Built with Packmol
22134
    1LIG      O    1   2.627   2.620   0.038
    1LIG      C    2   2.692   2.670   0.126
    1LIG     C1    3   2.621   2.617   0.219
    1LIG     O1    4   2.685   2.667   0.308
    1LIG     C2    5   2.620   2.618   0.396
    1LIG     C3    6   2.691   2.673   0.487
    1LIG     O2    7   2.627   2.625   0.575
    1LIG     C4    8   2.690   2.675   0.664
    1LIG     C5    9   2.618   2.620   0.756
    1LIG     O3   10   2.681   2.670   0.844
    1LIG     C6   11   2.616   2.621   0.932
    1LIG     C7   12   2.688   2.677   1.023
    1LIG     O4   13   2.624   2.629   1.112
    1LIG     C8   14   2.688   2.679   1.200
    1LIG     C9   15   2.615   2.623   1.291
    1LIG     O5   16   2.679   2.673   1.379
    1LIG    C10   17   2.615   2.624   1.468
    1LIG    C11   18   2.687   2.680   1.559
    1LIG     O6   19   2.623   2.631   1.647
    1LIG    C12   20   2.686   2.680   1.735
    1LIG    C13   21   2.613   2.625   1.827
    1LIG     O7   22   2.677   2.674   1.915
    1LIG    C14   23   2.613   2.625   2.003
    1LIG    C15   24   2.685   2.680   2.095
    1LIG     O8   25   2.621   2.631   2.184
    1LIG    C16   26   2.685   2.681   2.272
    1LIG    C17   27   2.614   2.626   2.363
    1LIG     O9   28   2.677   2.675   2.452
    1LIG    C18   29   2.612   2.626   2.540
    1LIG    C19   30   2.684   2.681   2.631
    1LIG    O10   31   2.621   2.632   2.720
    1LIG    C20   32   2.685   2.682   2.807
    1LIG    C21   33   2.612   2.626   2.899
    1LIG    O11   34   2.676   2.675   2.987
    1LIG    C22   35   2.612   2.626   3.075
    1LIG    C23   36   2.684   2.682   3.166
    1LIG    O12   37   2.620   2.633   3.254
    1LIG    C24   38   2.684   2.682   3.343
    1LIG    C25   39   2.612   2.627   3.435
    1LIG    O13   40   2.675   2.676   3.524
    1LIG    C26   41   2.611   2.627   3.611
    1LIG    C27   42   2.683   2.682   3.703
    1LIG    O14   43   2.619   2.633   3.791
    1LIG    C28   44   2.684   2.682   3.879
    1LIG    C29   45   2.612   2.626   3.971
    1LIG    O15   46   2.676   2.675   4.059
    1LIG    C30   47   2.612   2.626   4.147
    1LIG    C31   48   2.684   2.681   4.238
    1LIG    O16   49   2.620   2.632   4.326
    1LIG    C32   50   2.684   2.681   4.415
    1LIG    C33   51   2.612   2.626   4.506
    1LIG    O17   52   2.676   2.675   4.595
    1LIG    C34   53   2.612   2.625   4.683
    1LIG    C35   54   2.684   2.680   4.774
    1LIG    O18   55   2.620   2.631   4.863
    1LIG    C36   56   2.684   2.680   4.951
    1LIG    C37   57   2.613   2.625   5.042
    1LIG    O19   58   2.677   2.674   5.131
    1LIG    C38   59   2.613   2.624   5.219
    1LIG    C39   60   2.684   2.679   5.311
    1LIG    O20   61   2.621   2.630   5.399
    1LIG    C40   62   2.685   2.679   5.487
    1LIG    C41   63   2.614   2.624   5.579
    1LIG    O21   64   2.677   2.673   5.667
    1LIG    C42   65   2.613   2.623   5.755
    1LIG    C43   66   2.685   2.678   5.846
    1LIG    O22   67   2.622   2.629   5.935
    1LIG    C44   68   2.686   2.678   6.023
    1LIG    C45   69   2.614   2.622   6.114
    1LIG    O23   70   2.678   2.671   6.202
    1LIG    C46   71   2.614   2.622   6.291
    1LIG    C47   72   2.687   2.678   6.382
    1LIG    O24   73   2.623   2.628   6.470
    1LIG    C48   74   2.686   2.677   6.558
    1LIG    C49   75   2.614   2.621   6.650
    1LIG    O25   76   2.678   2.670   6.738
    1LIG    C50   77   2.615   2.621   6.826
    1LIG    C51   78   2.687   2.677   6.917
    1LIG    O26   79   2.624   2.627   7.005
    1LIG    C52   80   2.687   2.676   7.094
    1LIG    C53   81   2.615   2.619   7.185
    1LIG    O27   82   2.679   2.669   7.273
    1LIG    C54   83   2.616   2.619   7.362
    1LIG    C55   84   2.688   2.675   7.454
    1LIG    O28   85   2.624   2.625   7.542
    1LIG    C56   86   2.688   2.674   7.630
    1LIG    C57   87   2.617   2.618   7.723
    1LIG    O29   88   2.681   2.667   7.811
    1LIG    C58   89   2.617   2.617   7.899
    1LIG    C59   90   2.688   2.672   7.991
    1LIG      H   91   2.689   2.780   0.125
    1LIG     H1   92   2.797   2.639   0.125
    1LIG     H2   93   2.624   2.508   0.219
    1LIG     H3   94   2.516   2.648   0.218
    1LIG     H4   95   2.623   2.508   0.397
    1LIG     H5   96   2.515   2.649   0.396
    1LIG     H6   97   2.689   2.783   0.486
    1LIG     H7   98   2.797   2.642   0.487
    1LIG     H8   99   2.688   2.784   0.664
    1LIG     H9  100   2.795   2.644   0.665
    1LIG    H10  101   2.621   2.511   0.755
    1LIG    H11  102   2.513   2.651   0.754
    1LIG    H12  103   2.619   2.512   0.933
    1LIG    H13  104   2.511   2.652   0.933
    1LIG    H14  105   2.685   2.787   1.022
    1LIG    H15  106   2.793   2.646   1.023
    1LIG    H16  107   2.685   2.788   1.201
    1LIG    H17  108   2.793   2.648   1.202
    1LIG    H18  109   2.618   2.514   1.290
    1LIG    H19  110   2.510   2.654   1.290
    1LIG    H20  111   2.617   2.514   1.469
    1LIG    H21  112   2.509   2.655   1.469
    1LIG    H22  113   2.684   2.789   1.558
    1LIG    H23  114   2.792   2.649   1.558
    1LIG    H24  115   2.683   2.789   1.736
    1LIG    H25  116   2.791   2.649   1.737
    1LIG    H26  117   2.616   2.515   1.826
    1LIG    H27  118   2.508   2.656   1.825
    1LIG    H28  119   2.616   2.515   2.004
    1LIG    H29  120   2.508   2.656   2.004
    1LIG    H30  121   2.682   2.790   2.094
    1LIG    H31  122   2.790   2.649   2.094
    1LIG    H32  123   2.682   2.791   2.272
    1LIG    H33  124   2.790   2.650   2.273
    1LIG    H34  125   2.616   2.517   2.362
    1LIG    H35  126   2.508   2.657   2.362
    1LIG    H36  127   2.615   2.516   2.541
    1LIG    H37  128   2.507   2.657   2.541
    1LIG    H38  129   2.681   2.791   2.630
    1LIG    H39  130   2.789   2.650   2.630
    1LIG    H40  131   2.682   2.791   2.809
    1LIG    H41  132   2.790   2.651   2.809
    1LIG    H42  133   2.615   2.517   2.897
    1LIG    H43  134   2.507   2.657   2.897
    1LIG    H44  135   2.615   2.517   3.076
    1LIG    H45  136   2.507   2.657   3.076
    1LIG    H46  137   2.681   2.792   3.165
    1LIG    H47  138   2.790   2.651   3.165
    1LIG    H48  139   2.681   2.791   3.344
    1LIG    H49  140   2.789   2.651   3.344
    1LIG    H50  141   2.615   2.517   3.434
    1LIG    H51  142   2.507   2.658   3.434
    1LIG    H52  143   2.614   2.517   3.612
    1LIG    H53  144   2.506   2.658   3.612
    1LIG    H54  145   2.680   2.792   3.702
    1LIG    H55  146   2.788   2.651   3.701
    1LIG    H56  147   2.681   2.791   3.880
    1LIG    H57  148   2.789   2.651   3.880
    1LIG    H58  149   2.615   2.517   3.970
    1LIG    H59  150   2.507   2.657   3.970
    1LIG    H60  151   2.615   2.516   4.148
    1LIG    H61  152   2.507   2.657   4.148
    1LIG    H62  153   2.681   2.791   4.237
    1LIG    H63  154   2.789   2.650   4.237
    1LIG    H64  155   2.681   2.790   4.416
    1LIG    H65  156   2.789   2.650   4.416
    1LIG    H66  157   2.615   2.516   4.505
    1LIG    H67  158   2.507   2.657   4.505
    1LIG    H68  159   2.615   2.516   4.683
    1LIG    H69  160   2.507   2.656   4.683
    1LIG    H70  161   2.681   2.790   4.773
    1LIG    H71  162   2.789   2.650   4.773
    1LIG    H72  163   2.681   2.790   4.952
    1LIG    H73  164   2.790   2.650   4.951
    1LIG    H74  165   2.616   2.516   5.041
    1LIG    H75  166   2.508   2.656   5.042
    1LIG    H76  167   2.616   2.515   5.219
    1LIG    H77  168   2.508   2.655   5.220
    1LIG    H78  169   2.681   2.788   5.310
    1LIG    H79  170   2.790   2.648   5.309
    1LIG    H80  171   2.682   2.789   5.488
    1LIG    H81  172   2.790   2.649   5.488
    1LIG    H82  173   2.617   2.514   5.577
    1LIG    H83  174   2.508   2.654   5.578
    1LIG    H84  175   2.617   2.513   5.756
    1LIG    H85  176   2.508   2.653   5.756
    1LIG    H86  177   2.682   2.788   5.845
    1LIG    H87  178   2.791   2.648   5.845
    1LIG    H88  179   2.683   2.788   6.024
    1LIG    H89  180   2.791   2.648   6.024
    1LIG    H90  181   2.617   2.513   6.113
    1LIG    H91  182   2.509   2.653   6.113
    1LIG    H92  183   2.618   2.512   6.292
    1LIG    H93  184   2.509   2.652   6.292
    1LIG    H94  185   2.683   2.787   6.381
    1LIG    H95  186   2.792   2.647   6.381
    1LIG    H96  187   2.683   2.786   6.560
    1LIG    H97  188   2.791   2.646   6.560
    1LIG    H98  189   2.618   2.511   6.648
    1LIG    H99  190   2.509   2.651   6.649
    1LIG   H100  191   2.618   2.511   6.827
    1LIG   H101  192   2.510   2.651   6.828
    1LIG   H102  193   2.684   2.786   6.916
    1LIG   H103  194   2.792   2.646   6.916
    1LIG   H104  195   2.684   2.785   7.095
    1LIG   H105  196   2.792   2.645   7.095
    1LIG   H106  197   2.619   2.510   7.184
    1LIG   H107  198   2.510   2.650   7.184
    1LIG   H108  199   2.620   2.510   7.363
    1LIG   H109  200   2.511   2.650   7.363
    1LIG   H110  201   2.684   2.784   7.453
    1LIG   H111  202   2.793   2.644   7.452
    1LIG   H112  203   2.685   2.784   7.631
    1LIG   H113  204   2.794   2.644   7.631
    1LIG   H114  205   2.621   2.509   7.721
    1LIG   H115  206   2.512   2.649   7.722
    1LIG   H116  207   2.621   2.507   7.899
    1LIG   H117  208   2.512   2.649   7.900
    1LIG   H118  209   2.793   2.642   7.991
    1LIG   H119  210   2.641   2.635   8.060
    1MOL     C1  211   2.129   2.197   3.436
    1MOL     H1  212   2.107   2.090   3.426
    1MOL     O1  213   2.083   2.230   3.566
    1MOL     C2  214   2.103   2.368   3.602
    1MOL     H2  215   2.209   2.395   3.588
    1MOL     C3  216   2.072   2.381   3.750
    1MOL     H3  217   2.105   2.480   3.785
    1MOL     H4  218   2.128   2.304   3.805
    1MOL     O2  219   1.932   2.366   3.772
    1MOL     C4  220   1.897   2.383   3.908
    1MOL     C5  221   2.047   2.278   3.333
    1MOL     H5  222   1.944   2.242   3.341
    1MOL     O3  223   2.093   2.263   3.200
    1MOL     C6  224   2.063   2.139   3.140
    1MOL     C7  225   2.046   2.429   3.363
    1MOL     H6  226   2.144   2.471   3.339
    1MOL     O4  227   1.944   2.489   3.285
    1MOL     C8  228   1.991   2.580   3.187
    1MOL     C9  229   2.016   2.457   3.511
    1MOL     H7  230   1.911   2.433   3.530
    1MOL     O5  231   2.041   2.596   3.533
    1MOL    C10  232   1.955   2.665   3.622
    1MOL     H8  233   1.877   2.598   3.657
    1MOL     O6  234   2.024   2.705   3.739
    1MOL    C11  235   2.135   2.793   3.715
    1MOL     H9  236   2.205   2.745   3.645
    1MOL    C12  237   2.208   2.812   3.847
    1MOL    H10  238   2.304   2.860   3.828
    1MOL    H11  239   2.226   2.713   3.892
    1MOL     O7  240   2.130   2.892   3.934
    1MOL    C13  241   2.196   2.920   4.055
    1MOL    C14  242   1.895   2.789   3.553
    1MOL    H12  243   1.820   2.830   3.622
    1MOL     O8  244   1.835   2.761   3.428
    1MOL    C15  245   1.711   2.694   3.435
    1MOL    C16  246   1.999   2.899   3.528
    1MOL    H13  247   2.065   2.866   3.447
    1MOL     O9  248   1.933   3.019   3.494
    1MOL    C17  249   1.947   3.059   3.359
    1MOL    C18  250   2.085   2.925   3.652
    1MOL    H14  251   2.024   2.977   3.726
    1MOL    O10  252   2.194   3.007   3.611
    1MOL    C19  253   2.235   3.112   3.696
    1MOL    H15  254   2.168   3.119   3.782
    1MOL    O11  255   2.363   3.086   3.753
    1MOL    C20  256   2.468   3.072   3.658
    1MOL    H16  257   2.442   2.993   3.585
    1MOL    C21  258   2.591   3.023   3.733
    1MOL    H17  259   2.667   2.991   3.660
    1MOL    H18  260   2.562   2.936   3.793
    1MOL    O12  261   2.641   3.126   3.817
    1MOL    C22  262   2.742   3.080   3.904
    1MOL    C23  263   2.241   3.245   3.618
    1MOL    H19  264   2.263   3.324   3.692
    1MOL    O13  265   2.122   3.275   3.549
    1MOL    C24  266   2.014   3.316   3.632
    1MOL    C25  267   2.355   3.245   3.516
    1MOL    H20  268   2.332   3.173   3.436
    1MOL    O14  269   2.369   3.376   3.461
    1MOL    C26  270   2.313   3.392   3.331
    1MOL    C27  271   2.488   3.204   3.581
    1MOL    H21  272   2.522   3.281   3.651
    1MOL    O15  273   2.588   3.180   3.481
    1MOL    C28  274   2.660   3.294   3.438
    1MOL    H22  275   2.594   3.380   3.434
    1MOL    O16  276   2.763   3.331   3.528
    1MOL    C29  277   2.863   3.231   3.551
    1MOL    H23  278   2.817   3.141   3.594
    1MOL    C30  279   2.957   3.289   3.656
    1MOL    H24  280   3.021   3.209   3.697
    1MOL    H25  281   2.895   3.330   3.737
    1MOL    O17  282   3.038   3.390   3.598
    1MOL    C31  283   3.122   3.452   3.693
    1MOL    C32  284   2.720   3.264   3.300
    1MOL    H26  285   2.769   3.356   3.266
    1MOL    O18  286   2.616   3.227   3.211
    1MOL    C33  287   2.630   3.279   3.080
    1MOL    C34  288   2.828   3.155   3.311
    1MOL    H27  289   2.779   3.061   3.339
    1MOL    O19  290   2.891   3.142   3.184
    1MOL    C35  291   2.906   3.008   3.138
    1MOL    C36  292   2.932   3.192   3.418
    1MOL    H28  293   2.989   3.278   3.381
    1MOL    O20  294   3.019   3.079   3.434
    1MOL    C37  295   3.153   3.105   3.469
    1MOL    H29  296   3.171   3.213   3.471
    1MOL    O21  297   3.182   3.062   3.601
    1MOL    C38  298   3.165   2.921   3.622
    1MOL    H30  299   3.063   2.893   3.593
    1MOL    C39  300   3.178   2.896   3.772
    1MOL    H31  301   3.145   2.794   3.794
    1MOL    H32  302   3.113   2.967   3.826
    1MOL    O22  303   3.313   2.913   3.811
    1MOL    C40  304   3.334   2.880   3.947
    1MOL    C41  305   3.250   3.035   3.371
    1MOL    H33  306   3.351   3.073   3.394
    1MOL    O23  307   3.219   3.060   3.235
    1MOL    C42  308   3.251   3.190   3.188
    1MOL    C43  309   3.254   2.883   3.389
    1MOL    H34  310   3.161   2.840   3.349
    1MOL    O24  311   3.366   2.832   3.319
    1MOL    C44  312   3.335   2.752   3.206
    1MOL    C45  313   3.266   2.844   3.536
    1MOL    H35  314   3.367   2.869   3.571
    1MOL    O25  315   3.245   2.702   3.544
    1MOL    C46  316   3.327   2.629   3.634
    1MOL    H36  317   3.402   2.695   3.678
    1MOL    O26  318   3.253   2.580   3.744
    1MOL    C47  319   3.147   2.490   3.711
    1MOL    H37  320   3.078   2.538   3.640
    1MOL    C48  321   3.069   2.461   3.839
    1MOL    H38  322   2.974   2.413   3.814
    1MOL    H39  323   3.047   2.558   3.888
    1MOL    O27  324   3.146   2.379   3.924
    1MOL    C49  325   3.073   2.339   4.039
    1MOL    C50  326   3.393   2.510   3.561
    1MOL    H40  327   3.466   2.467   3.631
    1MOL    O28  328   3.459   2.547   3.441
    1MOL    C51  329   3.581   2.617   3.459
    1MOL    C52  330   3.293   2.400   3.525
    1MOL    H41  331   3.228   2.436   3.444
    1MOL    O29  332   3.364   2.284   3.484
    1MOL    C53  333   3.359   2.258   3.345
    1MOL    C54  334   3.206   2.364   3.645
    1MOL    H42  335   3.268   2.313   3.720
    1MOL    O30  336   3.103   2.275   3.600
    1MOL    C55  337   3.079   2.158   3.674
    1MOL    H43  338   3.159   2.143   3.747
    1MOL    O31  339   2.961   2.165   3.751
    1MOL    C56  340   2.839   2.184   3.677
    1MOL    H44  341   2.843   2.279   3.622
    1MOL    C57  342   2.728   2.189   3.780
    1MOL    H45  343   2.743   2.107   3.853
    1MOL    H46  344   2.631   2.173   3.732
    1MOL    O32  345   2.731   2.315   3.846
    1MOL    C58  346   2.630   2.326   3.944
    1MOL    C59  347   3.069   2.036   3.579
    1MOL    H47  348   3.058   1.947   3.644
    1MOL    O33  349   3.181   2.019   3.495
    1MOL    C60  350   3.298   1.972   3.560
    1MOL    C61  351   2.944   2.044   3.491
    1MOL    H48  352   2.955   2.128   3.421
    1MOL    O34  353   2.924   1.922   3.421
    1MOL    C62  354   2.976   1.919   3.289
    1MOL    C63  355   2.818   2.069   3.576
    1MOL    H49  356   2.795   1.977   3.631
    1MOL    O35  357   2.708   2.104   3.491
    1MOL    C64  358   2.625   1.997   3.452
    1MOL    H50  359   2.682   1.904   3.453
    1MOL    O36  360   2.519   1.976   3.544
    1MOL    C65  361   2.424   2.082   3.556
    1MOL    H51  362   2.474   2.175   3.585
    1MOL    C66  363   2.329   2.041   3.668
    1MOL    H52  364   2.304   1.934   3.655
    1MOL    H53  365   2.237   2.099   3.665
    1MOL    O37  366   2.396   2.061   3.792
    1MOL    C67  367   2.323   2.009   3.901
    1MOL    C68  368   2.567   2.021   3.312
    1MOL    H54  369   2.517   1.928   3.284
    1MOL    O38  370   2.672   2.050   3.220
    1MOL    C69  371   2.660   1.982   3.096
    1MOL    C70  372   2.462   2.133   3.313
    1MOL    H55  373   2.512   2.228   3.336
    1MOL    O39  374   2.402   2.139   3.184
    1MOL    C71  375   2.409   2.266   3.122
    1MOL    C72  376   2.355   2.106   3.420
    1MOL    H56  377   2.298   2.017   3.391
    1MOL    O40  378   2.267   2.220   3.421
    1MOL    H57  379   1.788   2.369   3.914
    1MOL    H58  380   1.946   2.308   3.972
    1MOL    H59  381   1.923   2.483   3.944
    1MOL    H60  382   2.381   2.030   3.991
    1MOL    H61  383   2.224   2.057   3.911
    1MOL    H62  384   2.308   1.901   3.893
    1MOL    H63  385   2.635   2.428   3.984
    1MOL    H64  386   2.530   2.308   3.901
    1MOL    H65  387   2.646   2.255   4.026
    1MOL    H66  388   3.138   2.272   4.096
    1MOL    H67  389   3.047   2.425   4.102
    1MOL    H68  390   2.982   2.285   4.011
    1MOL    H69  391   3.440   2.896   3.969
    1MOL    H70  392   3.274   2.944   4.014
    1MOL    H71  393   3.308   2.775   3.967
    1MOL    H72  394   3.180   3.528   3.640
    1MOL    H73  395   3.064   3.501   3.773
    1MOL    H74  396   3.191   3.380   3.740
    1MOL    H75  397   2.774   3.166   3.964
    1MOL    H76  398   2.704   3.001   3.971
    1MOL    H77  399   2.829   3.040   3.850
    1MOL    H78  400   2.129   2.982   4.115
    1MOL    H79  401   2.219   2.828   4.111
    1MOL    H80  402   2.290   2.975   4.038
    1MOL    H81  403   1.889   3.151   3.347
    1MOL    H82  404   2.052   3.081   3.335
    1MOL    H83  405   1.908   2.983   3.290
    1MOL    H84  406   1.670   2.693   3.334
    1MOL    H85  407   1.721   2.590   3.469
    1MOL    H86  408   1.640   2.746   3.501
    1MOL    H87  409   1.902   2.618   3.134
    1MOL    H88  410   2.042   2.666   3.233
    1MOL    H89  411   2.057   2.531   3.114
    1MOL    H90  412   2.084   2.149   3.034
    1MOL    H91  413   2.125   2.057   3.180
    1MOL    H92  414   1.957   2.113   3.153
    1MOL    H93  415   2.362   2.256   3.023
    1MOL    H94  416   2.353   2.342   3.179
    1MOL    H95  417   2.513   2.298   3.108
    1MOL    H96  418   2.745   2.015   3.035
    1MOL    H97  419   2.666   1.873   3.109
    1MOL    H98  420   2.567   2.007   3.045
    1MOL    H99  421   2.947   1.823   3.247
    1MOL   H100  422   2.933   1.999   3.228
    1MOL   H101  423   3.085   1.928   3.289
    1MOL   H102  424   3.368   1.944   3.482
    1MOL   H103  425   3.345   2.050   3.622
    1MOL   H104  426   3.276   1.884   3.622
    1MOL   H105  427   3.422   2.169   3.328
    1MOL   H106  428   3.257   2.235   3.312
    1MOL   H107  429   3.400   2.342   3.287
    1MOL   H108  430   3.629   2.623   3.361
    1MOL   H109  431   3.566   2.719   3.497
    1MOL   H110  432   3.648   2.562   3.528
    1MOL   H111  433   3.430   2.722   3.162
    1MOL   H112  434   3.280   2.662   3.235
    1MOL   H113  435   3.277   2.809   3.132
    1MOL   H114  436   3.236   3.189   3.080
    1MOL   H115  437   3.185   3.266   3.231
    1MOL   H116  438   3.356   3.215   3.210
    1MOL   H117  439   2.953   3.014   3.040
    1MOL   H118  440   2.969   2.949   3.205
    1MOL   H119  441   2.808   2.959   3.127
    1MOL   H120  442   2.544   3.243   3.023
    1MOL   H121  443   2.629   3.390   3.080
    1MOL   H122  444   2.723   3.245   3.032
    1MOL   H123  445   2.329   3.497   3.303
    1MOL   H124  446   2.363   3.327   3.258
    1MOL   H125  447   2.205   3.371   3.332
    1MOL   H126  448   1.936   3.352   3.565
    1MOL   H127  449   1.973   3.233   3.691
    1MOL   H128  450   2.044   3.398   3.699
    1MOL     C1  451   2.129   2.197   4.436
    1MOL     H1  452   2.107   2.090   4.426
    1MOL     O1  453   2.083   2.230   4.566
    1MOL     C2  454   2.103   2.368   4.602
    1MOL     H2  455   2.209   2.395   4.588
    1MOL     C3  456   2.072   2.381   4.750
    1MOL     H3  457   2.105   2.480   4.785
    1MOL     H4  458   2.128   2.304   4.805
    1MOL     O2  459   1.932   2.366   4.772
    1MOL     C4  460   1.897   2.383   4.908
    1MOL     C5  461   2.047   2.278   4.333
    1MOL     H5  462   1.944   2.242   4.341
    1MOL     O3  463   2.093   2.263   4.200
    1MOL     C6  464   2.063   2.139   4.140
    1MOL     C7  465   2.046   2.429   4.363
    1MOL     H6  466   2.144   2.471   4.339
    1MOL     O4  467   1.944   2.489   4.285
    1MOL     C8  468   1.991   2.580   4.187
    1MOL     C9  469   2.016   2.457   4.511
    1MOL     H7  470   1.911   2.433   4.530
    1MOL     O5  471   2.041   2.596   4.533
    1MOL    C10  472   1.955   2.665   4.622
    1MOL     H8  473   1.877   2.598   4.657
    1MOL     O6  474   2.024   2.705   4.739
    1MOL    C11  475   2.135   2.793   4.715
    1MOL     H9  476   2.205   2.745   4.645
    1MOL    C12  477   2.208   2.812   4.847
    1MOL    H10  478   2.304   2.860   4.828
    1MOL    H11  479   2.226   2.713   4.892
    1MOL     O7  480   2.130   2.892   4.934
    1MOL    C13  481   2.196   2.920   5.055
    1MOL    C14  482   1.895   2.789   4.553
    1MOL    H12  483   1.820   2.830   4.622
    1MOL     O8  484   1.835   2.761   4.428
    1MOL    C15  485   1.711   2.694   4.435
    1MOL    C16  486   1.999   2.899   4.528
    1MOL    H13  487   2.065   2.866   4.447
    1MOL     O9  488   1.933   3.019   4.494
    1MOL    C17  489   1.947   3.059   4.359
    1MOL    C18  490   2.085   2.925   4.652
    1MOL    H14  491   2.024   2.977   4.726
    1MOL    O10  492   2.194   3.007   4.611
    1MOL    C19  493   2.235   3.112   4.696
    1MOL    H15  494   2.168   3.119   4.782
    1MOL    O11  495   2.363   3.086   4.753
    1MOL    C20  496   2.468   3.072   4.658
    1MOL    H16  497   2.442   2.993   4.585
    1MOL    C21  498   2.591   3.023   4.733
    1MOL    H17  499   2.667   2.991   4.660
    1MOL    H18  500   2.562   2.936   4.793
    1MOL    O12  501   2.641   3.126   4.817
    1MOL    C22  502   2.742   3.080   4.904
    1MOL    C23  503   2.241   3.245   4.618
    1MOL    H19  504   2.263   3.324   4.692
    1MOL    O13  505   2.122   3.275   4.549
    1MOL    C24  506   2.014   3.316   4.632
    1MOL    C25  507   2.355   3.245   4.516
    1MOL    H20  508   2.332   3.173   4.436
    1MOL    O14  509   2.369   3.376   4.461
    1MOL    C26  510   2.313   3.392   4.331
    1MOL    C27  511   2.488   3.204   4.581
    1MOL    H21  512   2.522   3.281   4.651
    1MOL    O15  513   2.588   3.180   4.481
    1MOL    C28  514   2.660   3.294   4.438
    1MOL    H22  515   2.594   3.380   4.434
    1MOL    O16  516   2.763   3.331   4.528
    1MOL    C29  517   2.863   3.231   4.551
    1MOL    H23  518   2.817   3.141   4.594
    1MOL    C30  519   2.957   3.289   4.656
    1MOL    H24  520   3.021   3.209   4.697
    1MOL    H25  521   2.895   3.330   4.737
    1MOL    O17  522   3.038   3.390   4.598
    1MOL    C31  523   3.122   3.452   4.693
    1MOL    C32  524   2.720   3.264   4.300
    1MOL    H26  525   2.769   3.356   4.266
    1MOL    O18  526   2.616   3.227   4.211
    1MOL    C33  527   2.630   3.279   4.080
    1MOL    C34  528   2.828   3.155   4.311
    1MOL    H27  529   2.779   3.061   4.339
    1MOL    O19  530   2.891   3.142   4.184
    1MOL    C35  531   2.906   3.008   4.138
    1MOL    C36  532   2.932   3.192   4.418
    1MOL    H28  533   2.989   3.278   4.381
    1MOL    O20  534   3.019   3.079   4.434
    1MOL    C37  535   3.153   3.105   4.469
    1MOL    H29  536   3.171   3.213   4.471
    1MOL    O21  537   3.182   3.062   4.601
    1MOL    C38  538   3.165   2.921   4.622
    1MOL    H30  539   3.063   2.893   4.593
    1MOL    C39  540   3.178   2.896   4.772
    1MOL    H31  541   3.145   2.794   4.794
    1MOL    H32  542   3.113   2.967   4.826
    1MOL    O22  543   3.313   2.913   4.811
    1MOL    C40  544   3.334   2.880   4.947
    1MOL    C41  545   3.250   3.035   4.371
    1MOL    H33  546   3.351   3.073   4.394
    1MOL    O23  547   3.219   3.060   4.235
    1MOL    C42  548   3.251   3.190   4.188
    1MOL    C43  549   3.254   2.883   4.389
    1MOL    H34  550   3.161   2.840   4.349
    1MOL    O24  551   3.366   2.832   4.319
    1MOL    C44  552   3.335   2.752   4.206
    1MOL    C45  553   3.266   2.844   4.536
    1MOL    H35  554   3.367   2.869   4.571
    1MOL    O25  555   3.245   2.702   4.544
    1MOL    C46  556   3.327   2.629   4.634
    1MOL    H36  557   3.402   2.695   4.678
    1MOL    O26  558   3.253   2.580   4.744
    1MOL    C47  559   3.147   2.490   4.711
    1MOL    H37  560   3.078   2.538   4.640
    1MOL    C48  561   3.069   2.461   4.839
    1MOL    H38  562   2.974   2.413   4.814
    1MOL    H39  563   3.047   2.558   4.888
    1MOL    O27  564   3.146   2.379   4.924
    1MOL    C49  565   3.073   2.339   5.039
    1MOL    C50  566   3.393   2.510   4.561
    1MOL    H40  567   3.466   2.467   4.631
    1MOL    O28  568   3.459   2.547   4.441
    1MOL    C51  569   3.581   2.617   4.459
    1MOL    C52  570   3.293   2.400   4.525
    1MOL    H41  571   3.228   2.436   4.444
    1MOL    O29  572   3.364   2.284   4.484
    1MOL    C53  573   3.359   2.258   4.345
    1MOL    C54  574   3.206   2.364   4.645
    1MOL    H42  575   3.268   2.313   4.720
    1MOL    O30  576   3.103   2.275   4.600
    1MOL    C55  577   3.079   2.158   4.674
    1MOL    H43  578   3.159   2.143   4.747
    1MOL    O31  579   2.961   2.165   4.751
    1MOL    C56  580   2.839   2.184   4.677
    1MOL    H44  581   2.843   2.279   4.622
    1MOL    C57  582   2.728   2.189   4.780
    1MOL    H45  583   2.743   2.107   4.853
    1MOL    H46  584   2.631   2.173   4.732
    1MOL    O32  585   2.731   2.315   4.846
    1MOL    C58  586   2.630   2.326   4.944
    1MOL    C59  587   3.069   2.036   4.579
    1MOL    H47  588   3.058   1.947   4.644
    1MOL    O33  589   3.181   2.019   4.495
    1MOL    C60  590   3.298   1.972   4.560
    1MOL    C61  591   2.944   2.044   4.491
    1MOL    H48  592   2.955   2.128   4.421
    1MOL    O34  593   2.924   1.922   4.421
    1MOL    C62  594   2.976   1.919   4.289
    1MOL    C63  595   2.818   2.069   4.576
    1MOL    H49  596   2.795   1.977   4.631
    1MOL    O35  597   2.708   2.104   4.491
    1MOL    C64  598   2.625   1.997   4.452
    1MOL    H50  599   2.682   1.904   4.453
    1MOL    O36  600   2.519   1.976   4.544
    1MOL    C65  601   2.424   2.082   4.556
    1MOL    H51  602   2.474   2.175   4.585
    1MOL    C66  603   2.329   2.041   4.668
    1MOL    H52  604   2.304   1.934   4.655
    1MOL    H53  605   2.237   2.099   4.665
    1MOL    O37  606   2.396   2.061   4.792
    1MOL    C67  607   2.323   2.009   4.901
    1MOL    C68  608   2.567   2.021   4.312
    1MOL    H54  609   2.517   1.928   4.284
    1MOL    O38  610   2.672   2.050   4.220
    1MOL    C69  611   2.660   1.982   4.096
    1MOL    C70  612   2.462   2.133   4.313
    1MOL    H55  613   2.512   2.228   4.336
    1MOL    O39  614   2.402   2.139   4.184
    1MOL    C71  615   2.409   2.266   4.122
    1MOL    C72  616   2.355   2.106   4.420
    1MOL    H56  617   2.298   2.017   4.391
    1MOL    O40  618   2.267   2.220   4.421
    1MOL    H57  619   1.788   2.369   4.914
    1MOL    H58  620   1.946   2.308   4.972
    1MOL    H59  621   1.923   2.483   4.944
    1MOL    H60  622   2.381   2.030   4.991
    1MOL    H61  623   2.224   2.057   4.911
    1MOL    H62  624   2.308   1.901   4.893
    1MOL    H63  625   2.635   2.428   4.984
    1MOL    H64  626   2.530   2.308   4.901
    1MOL    H65  627   2.646   2.255   5.026
    1MOL    H66  628   3.138   2.272   5.096
    1MOL    H67  629   3.047   2.425   5.102
    1MOL    H68  630   2.982   2.285   5.011
    1MOL    H69  631   3.440   2.896   4.969
    1MOL    H70  632   3.274   2.944   5.014
    1MOL    H71  633   3.308   2.775   4.967
    1MOL    H72  634   3.180   3.528   4.640
    1MOL    H73  635   3.064   3.501   4.773
    1MOL    H74  636   3.191   3.380   4.740
    1MOL    H75  637   2.774   3.166   4.964
    1MOL    H76  638   2.704   3.001   4.971
    1MOL    H77  639   2.829   3.040   4.850
    1MOL    H78  640   2.129   2.982   5.115
    1MOL    H79  641   2.219   2.828   5.111
    1MOL    H80  642   2.290   2.975   5.038
    1MOL    H81  643   1.889   3.151   4.347
    1MOL    H82  644   2.052   3.081   4.335
    1MOL    H83  645   1.908   2.983   4.290
    1MOL    H84  646   1.670   2.693   4.334
    1MOL    H85  647   1.721   2.590   4.469
    1MOL    H86  648   1.640   2.746   4.501
    1MOL    H87  649   1.902   2.618   4.134
    1MOL    H88  650   2.042   2.666   4.233
    1MOL    H89  651   2.057   2.531   4.114
    1MOL    H90  652   2.084   2.149   4.034
    1MOL    H91  653   2.125   2.057   4.180
    1MOL    H92  654   1.957   2.113   4.153
    1MOL    H93  655   2.362   2.256   4.023
    1MOL    H94  656   2.353   2.342   4.179
    1MOL    H95  657   2.513   2.298   4.108
    1MOL    H96  658   2.745   2.015   4.035
    1MOL    H97  659   2.666   1.873   4.109
    1MOL    H98  660   2.567   2.007   4.045
    1MOL    H99  661   2.947   1.823   4.247
    1MOL   H100  662   2.933   1.999   4.228
    1MOL   H101  663   3.085   1.928   4.289
    1MOL   H102  664   3.368   1.944   4.482
    1MOL   H103  665   3.345   2.050   4.622
    1MOL   H104  666   3.276   1.884   4.622
    1MOL   H105  667   3.422   2.169   4.328
    1MOL   H106  668   3.257   2.235   4.312
    1MOL   H107  669   3.400   2.342   4.287
    1MOL   H108  670   3.629   2.623   4.361
    1MOL   H109  671   3.566   2.719   4.497
    1MOL   H110  672   3.648   2.562   4.528
    1MOL   H111  673   3.430   2.722   4.162
    1MOL   H112  674   3.280   2.662   4.235
    1MOL   H113  675   3.277   2.809   4.132
    1MOL   H114  676   3.236   3.189   4.080
    1MOL   H115  677   3.185   3.266   4.231
    1MOL   H116  678   3.356   3.215   4.210
    1MOL   H117  679   2.953   3.014   4.040
    1MOL   H118  680   2.969   2.949   4.205
    1MOL   H119  681   2.808   2.959   4.127
    1MOL   H120  682   2.544   3.243   4.023
    1MOL   H121  683   2.629   3.390   4.080
    1MOL   H122  684   2.723   3.245   4.032
    1MOL   H123  685   2.329   3.497   4.303
    1MOL   H124  686   2.363   3.327   4.258
    1MOL   H125  687   2.205   3.371   4.332
    1MOL   H126  688   1.936   3.352   4.565
    1MOL   H127  689   1.973   3.233   4.691
    1MOL   H128  690   2.044   3.398   4.699
    2SOL     OW  691   0.230   0.628   0.113
    2SOL    HW1  692   0.137   0.626   0.150
    2SOL    HW2  693   0.231   0.589   0.021
    3SOL     OW  694   0.225   0.275   0.996
    3SOL    HW1  695   0.260   0.258   1.088
    3SOL    HW2  696   0.137   0.230   0.984
    4SOL     OW  697   0.019   0.368   0.647
    4SOL    HW1  698  -0.063   0.411   0.686
    4SOL    HW2  699  -0.009   0.295   0.584
    5SOL     OW  700   0.569   1.275   1.165
    5SOL    HW1  701   0.476   1.268   1.128
    5SOL    HW2  702   0.580   1.364   1.209
    6SOL     OW  703   1.555   1.511   0.703
    6SOL    HW1  704   1.498   1.495   0.784
    6SOL    HW2  705   1.496   1.521   0.623
    7SOL     OW  706   1.135   0.703   0.717
    7SOL    HW1  707   1.192   0.781   0.692
    7SOL    HW2  708   1.075   0.729   0.793
    8SOL     OW  709   1.755   0.607   0.231
    8SOL    HW1  710   1.743   0.594   0.132
    8SOL    HW2  711   1.725   0.526   0.280
    9SOL     OW  712   0.768   1.144   1.023
    9SOL    HW1  713   0.690   1.161   1.083
    9SOL    HW2  714   0.802   1.231   0.987
   10SOL     OW  715   0.850   0.798   1.823
   10SOL    HW1  716   0.846   0.874   1.888
   10SOL    HW2  717   0.872   0.834   1.732
   11SOL     OW  718   0.685   1.012   0.665
   11SOL    HW1  719   0.754   0.996   0.735
   11SOL    HW2  720   0.612   1.069   0.703
   12SOL     OW  721   0.686   1.161   1.803
   12SOL    HW1  722   0.746   1.240   1.817
   12SOL    HW2  723   0.600   1.192   1.762
   13SOL     OW  724   0.335   1.435   1.061
   13SOL    HW1  725   0.257   1.404   1.008
   13SOL    HW2  726   0.393   1.493   1.004
   14SOL     OW  727   1.460   1.505   1.339
   14SOL    HW1  728   1.484   1.599   1.365
   14SOL    HW2  729   1.444   1.451   1.421
   15SOL     OW  730   0.438   0.392   1.499
   15SOL    HW1  731   0.520   0.336   1.508
   15SOL    HW2  732   0.357   0.334   1.503
   16SOL     OW  733   1.603   0.447   0.737
   16SOL    HW1  734   1.529   0.493   0.687
   16SOL    HW2  735   1.654   0.515   0.790
   17SOL     OW  736   0.231   1.713   0.483
   17SOL    HW1  737   0.265   1.790   0.537
   17SOL    HW2  738   0.275   1.713   0.393
   18SOL     OW  739   1.127   1.341   1.690
   18SOL    HW1  740   1.174   1.341   1.778
   18SOL    HW2  741   1.079   1.254   1.679
   19SOL     OW  742   0.230   1.434   0.538
   19SOL    HW1  743   0.204   1.530   0.538
   19SOL    HW2  744   0.159   1.380   0.583
   20SOL     OW  745   0.240   1.091   0.886
   20SOL    HW1  746   0.254   1.007   0.938
   20SOL    HW2  747   0.185   1.155   0.941
   21SOL     OW  748   0.620   1.786   1.439
   21SOL    HW1  749   0.528   1.769   1.474
   21SOL    HW2  750   0.648   1.878   1.465
   22SOL     OW  751   0.606   0.964   0.123
   22SOL    HW1  752   0.613   1.048   0.069
   22SOL    HW2  753   0.652   0.977   0.211
   23SOL     OW  754   1.594   0.114   1.480
   23SOL    HW1  755   1.576   0.181   1.408
   23SOL    HW2  756   1.591   0.160   1.569
   24SOL     OW  757   0.122   0.643   0.563
   24SOL    HW1  758   0.077   0.555   0.580
   24SOL    HW2  759   0.121   0.697   0.647
   25SOL     OW  760   1.842   1.767   0.359
   25SOL    HW1  761   1.896   1.738   0.439
   25SOL    HW2  762   1.872   1.857   0.330
   26SOL     OW  763   0.027   1.596   0.117
   26SOL    HW1  764   0.008   1.500   0.138
   26SOL    HW2  765  -0.006   1.654   0.192
   27SOL     OW  766   1.689   0.922   0.612
   27SOL    HW1  767   1.784   0.893   0.620
   27SOL    HW2  768   1.681   0.987   0.537
   28SOL     OW  769   1.641   1.108   0.432
   28SOL    HW1  770   1.727   1.110   0.380
   28SOL    HW2  771   1.655   1.155   0.520
   29SOL     OW  772   0.113   0.737   1.597
   29SOL    HW1  773   0.201   0.724   1.642
   29SOL    HW2  774   0.100   0.834   1.575
   30SOL     OW  775   0.613   1.365   0.726
   30SOL    HW1  776   0.564   1.278   0.735
   30SOL    HW2  777   0.590   1.408   0.639
   31SOL     OW  778   1.293   1.228   1.423
   31SOL    HW1  779   1.330   1.155   1.365
   31SOL    HW2  780   1.345   1.233   1.508
   32SOL     OW  781   0.809   0.004   0.502
   32SOL    HW1  782   0.849   0.095   0.493
   32SOL    HW2  783   0.709   0.012   0.508
   33SOL     OW  784   0.197   0.976   1.264
   33SOL    HW1  785   0.286   0.931   1.250
   33SOL    HW2  786   0.124   0.911   1.245
   34SOL     OW  787   1.525   0.999   0.190
   34SOL    HW1  788   1.462   0.923   0.203
   34SOL    HW2  789   1.573   1.017   0.276
   35SOL     OW  790   1.187   1.792   1.616
   35SOL    HW1  791   1.211   1.852   1.540
   35SOL    HW2  792   1.194   1.697   1.586
   36SOL     OW  793   0.317   0.251   1.801
   36SOL    HW1  794   0.388   0.322   1.807
   36SOL    HW2  795   0.229   0.290   1.829
   37SOL     OW  796   1.466   1.417   0.953
   37SOL    HW1  797   1.407   1.423   1.033
   37SOL    HW2  798   1.451   1.329   0.907
   38SOL     OW  799   1.667   1.714   0.572
   38SOL    HW1  800   1.626   1.691   0.484
   38SOL    HW2  801   1.649   1.640   0.637
   39SOL     OW  802   0.598   0.729   0.270
   39SOL    HW1  803   0.622   0.798   0.202
   39SOL    HW2  804   0.520   0.762   0.324
   40SOL     OW  805   1.281   0.345   0.944
   40SOL    HW1  806   1.195   0.295   0.931
   40SOL    HW2  807   1.343   0.291   1.000
   41SOL     OW  808   1.576   1.662   0.307
   41SOL    HW1  809   1.665   1.708   0.310
   41SOL    HW2  810   1.555   1.638   0.212
   42SOL     OW  811   0.807   0.605   1.465
   42SOL    HW1  812   0.760   0.602   1.554
   42SOL    HW2  813   0.756   0.550   1.399
   43SOL     OW  814   1.394   0.469   1.674
   43SOL    HW1  815   1.374   0.512   1.762
   43SOL    HW2  816   1.472   0.407   1.683
   44SOL     OW  817   0.973   0.890   1.572
   44SOL    HW1  818   1.019   0.806   1.543
   44SOL    HW2  819   0.917   0.924   1.497
   45SOL     OW  820   0.991   0.410   1.242
   45SOL    HW1  821   0.914   0.444   1.296
   45SOL    HW2  822   0.957   0.359   1.163
   46SOL     OW  823   1.041   0.701   0.429
   46SOL    HW1  824   1.067   0.697   0.525
   46SOL    HW2  825   0.956   0.650   0.415
   47SOL     OW  826   0.076   0.811   0.789
   47SOL    HW1  827   0.175   0.799   0.798
   47SOL    HW2  828   0.052   0.906   0.810
   48SOL     OW  829   0.130   1.821   1.571
   48SOL    HW1  830   0.120   1.806   1.670
   48SOL    HW2  831   0.044   1.857   1.535
   49SOL     OW  832   0.865   0.348   0.195
   49SOL    HW1  833   0.924   0.411   0.146
   49SOL    HW2  834   0.884   0.254   0.166
   50SOL     OW  835   1.719   0.585   1.831
   50SOL    HW1  836   1.693   0.674   1.795
   50SOL    HW2  837   1.717   0.517   1.758
   51SOL     OW  838   1.362   1.144   0.545
   51SOL    HW1  839   1.445   1.115   0.497
   51SOL    HW2  840   1.313   1.211   0.489
   52SOL     OW  841   0.550   0.196   0.885
   52SOL    HW1  842   0.545   0.191   0.985
   52SOL    HW2  843   0.552   0.292   0.856
   53SOL     OW  844   1.008   1.456   0.477
   53SOL    HW1  845   0.962   1.528   0.425
   53SOL    HW2  846   1.004   1.476   0.575
   54SOL     OW  847   0.351   1.801   0.853
   54SOL    HW1  848   0.401   1.715   0.859
   54SOL    HW2  849   0.416   1.878   0.850
   55SOL     OW  850   1.795   1.066   0.873
   55SOL    HW1  851   1.733   1.051   0.797
   55SOL    HW2  852   1.743   1.077   0.958
   56SOL     OW  853   1.227   1.550   1.506
   56SOL    HW1  854   1.233   1.473   1.570
   56SOL    HW2  855   1.175   1.524   1.426
   57SOL     OW  856   0.321   0.943   0.242
   57SOL    HW1  857   0.403   0.982   0.200
   57SOL    HW2  858   0.294   0.861   0.193
   58SOL     OW  859   1.458   0.735   0.728
   58SOL    HW1  860   1.453   0.670   0.803
   58SOL    HW2  861   1.538   0.794   0.741
   59SOL     OW  862   0.461   1.266   1.727
   59SOL    HW1  863   0.411   1.267   1.641
   59SOL    HW2  864   0.398   1.248   1.803
   60SOL     OW  865   1.111   1.776   0.237
   60SOL    HW1  866   1.051   1.714   0.287
   60SOL    HW2  867   1.142   1.732   0.152
   61SOL     OW  868   0.202   0.285   1.498
   61SOL    HW1  869   0.122   0.345   1.485
   61SOL    HW2  870   0.192   0.236   1.584
   62SOL     OW  871   1.632   1.377   0.081
   62SOL    HW1  872   1.600   1.471   0.071
   62SOL    HW2  873   1.556   1.314   0.069
   63SOL     OW  874   0.464   1.743   0.323
   63SOL    HW1  875   0.497   1.782   0.409
   63SOL    HW2  876   0.540   1.736   0.258
   64SOL     OW  877   1.400   0.107   0.426
   64SOL    HW1  878   1.376   0.070   0.336
   64SOL    HW2  879   1.499   0.123   0.430
   65SOL     OW  880   0.249   1.785   1.241
   65SOL    HW1  881   0.306   1.720   1.291
   65SOL    HW2  882   0.233   1.752   1.148
   66SOL     OW  883   0.940   1.698   0.904
   66SOL    HW1  884   1.020   1.641   0.925
   66SOL    HW2  885   0.891   1.658   0.827
   67SOL     OW  886   0.382   0.700   0.480
   67SOL    HW1  887   0.427   0.610   0.477
   67SOL    HW2  888   0.288   0.689   0.513
   68SOL     OW  889   1.547   0.222   1.729
   68SOL    HW1  890   1.542   0.259   1.821
   68SOL    HW2  891   1.475   0.153   1.717
   69SOL     OW  892   0.614   0.122   0.117
   69SOL    HW1  893   0.712   0.100   0.124
   69SOL    HW2  894   0.583   0.105   0.024
   70SOL     OW  895   0.781   0.264   1.749
   70SOL    HW1  896   0.848   0.203   1.792
   70SOL    HW2  897   0.708   0.283   1.814
   71SOL     OW  898   0.888   1.514   1.195
   71SOL    HW1  899   0.865   1.489   1.101
   71SOL    HW2  900   0.949   1.445   1.234
   72SOL     OW  901   1.351   0.590   1.433
   72SOL    HW1  902   1.379   0.547   1.518
   72SOL    HW2  903   1.376   0.686   1.434
   73SOL     OW  904   0.803   1.402   0.924
   73SOL    HW1  905   0.893   1.416   0.882
   73SOL    HW2  906   0.732   1.404   0.853
   74SOL     OW  907   0.922   0.503   0.899
   74SOL    HW1  908   0.897   0.494   0.803
   74SOL    HW2  909   0.970   0.421   0.930
   75SOL     OW  910   0.539   0.064   0.512
   75SOL    HW1  911   0.458   0.065   0.570
   75SOL    HW2  912   0.542   0.147   0.457
   76SOL     OW  913   1.434   1.188   0.041
   76SOL    HW1  914   1.466   1.112   0.098
   76SOL    HW2  915   1.342   1.215   0.071
   77SOL     OW  916   0.297   0.035   0.171
   77SOL    HW1  917   0.346   0.119   0.150
   77SOL    HW2  918   0.359  -0.030   0.216
   78SOL     OW  919   0.935   0.236   0.480
   78SOL    HW1  920   0.887   0.277   0.402
   78SOL    HW2  921   1.034   0.234   0.461
   79SOL     OW  922   1.076   0.683   1.464
   79SOL    HW1  923   0.996   0.622   1.467
   79SOL    HW2  924   1.157   0.630   1.440
   80SOL     OW  925   1.227   1.570   0.793
   80SOL    HW1  926   1.248   1.644   0.728
   80SOL    HW2  927   1.295   1.570   0.866
   81SOL     OW  928   0.459   1.152   0.741
   81SOL    HW1  929   0.388   1.125   0.806
   81SOL    HW2  930   0.433   1.124   0.648
   82SOL     OW  931   1.271   1.797   0.591
   82SOL    HW1  932   1.315   1.861   0.527
   82SOL    HW2  933   1.221   1.849   0.661
   83SOL     OW  934   1.032   0.549   0.016
   83SOL    HW1  935   0.991   0.631  -0.023
   83SOL    HW2  936   1.096   0.575   0.089
   84SOL     OW  937   0.078   0.556   1.386
   84SOL    HW1  938   0.170   0.555   1.345
   84SOL    HW2  939   0.072   0.630   1.453
   85SOL     OW  940   0.561   0.222   1.147
   85SOL    HW1  941   0.599   0.138   1.184
   85SOL    HW2  942   0.473   0.241   1.191
   86SOL     OW  943   0.866   0.454   0.642
   86SOL    HW1  944   0.834   0.526   0.580
   86SOL    HW2  945   0.890   0.373   0.589
   87SOL     OW  946   1.017   0.039   0.753
   87SOL    HW1  947   0.945   0.044   0.684
   87SOL    HW2  948   0.993  -0.030   0.822
   88SOL     OW  949   1.429   1.173   0.867
   88SOL    HW1  950   1.374   1.089   0.860
   88SOL    HW2  951   1.455   1.202   0.775
   89SOL     OW  952   1.466   0.590   0.992
   89SOL    HW1  953   1.436   0.495   0.999
   89SOL    HW2  954   1.539   0.606   1.058
   90SOL     OW  955   1.857   0.833   0.377
   90SOL    HW1  956   1.899   0.769   0.441
   90SOL    HW2  957   1.819   0.782   0.299
   91SOL     OW  958   0.488   1.385   0.174
   91SOL    HW1  959   0.401   1.370   0.221
   91SOL    HW2  960   0.471   1.411   0.079
   92SOL     OW  961   1.664   1.280   0.657
   92SOL    HW1  962   1.763   1.288   0.671
   92SOL    HW2  963   1.619   1.364   0.688
   93SOL     OW  964   1.390   0.575   0.078
   93SOL    HW1  965   1.336   0.554   0.159
   93SOL    HW2  966   1.481   0.534   0.087
   94SOL     OW  967   0.527   0.256   0.328
   94SOL    HW1  968   0.554   0.197   0.253
   94SOL    HW2  969   0.527   0.351   0.297
   95SOL     OW  970   1.754   1.223   1.588
   95SOL    HW1  971   1.845   1.184   1.575
   95SOL    HW2  972   1.762   1.319   1.612
   96SOL     OW  973   1.064   1.347   1.340
   96SOL    HW1  974   0.984   1.324   1.395
   96SOL    HW2  975   1.147   1.321   1.389
   97SOL     OW  976   1.592   1.629   1.625
   97SOL    HW1  977   1.619   1.663   1.535
   97SOL    HW2  978   1.671   1.591   1.671
   98SOL     OW  979   1.111   1.195   1.100
   98SOL    HW1  980   1.071   1.239   1.181
   98SOL    HW2  981   1.070   1.232   1.017
   99SOL     OW  982   1.638   1.099   1.079
   99SOL    HW1  983   1.643   1.180   1.138
   99SOL    HW2  984   1.552   1.101   1.028
  100SOL     OW  985   0.915   0.089   1.402
  100SOL    HW1  986   0.940   0.069   1.307
  100SOL    HW2  987   0.987   0.145   1.444
  101SOL     OW  988   0.980   1.116   1.719
  101SOL    HW1  989   0.881   1.122   1.729
  101SOL    HW2  990   1.003   1.036   1.663
  102SOL     OW  991   0.705   1.050   0.368
  102SOL    HW1  992   0.691   1.057   0.467
  102SOL    HW2  993   0.789   0.999   0.350
  103SOL     OW  994   0.410   0.813   1.251
  103SOL    HW1  995   0.496   0.825   1.301
  103SOL    HW2  996   0.368   0.726   1.278
  104SOL     OW  997   1.274   0.386   1.262
  104SOL    HW1  998   1.295   0.460   1.326
  104SOL    HW2  999   1.185   0.403   1.219
  105SOL     OW 1000   0.064   1.564   1.331
  105SOL    HW1 1001   0.018   1.646   1.297
  105SOL    HW2 1002   0.162   1.583   1.340
  106SOL     OW 1003   0.367   1.100   0.501
  106SOL    HW1 1004   0.360   1.183   0.445
  106SOL    HW2 1005   0.371   1.020   0.441
  107SOL     OW 1006   0.566   0.537   0.865
  107SOL    HW1 1007   0.578   0.603   0.791
  107SOL    HW2 1008   0.612   0.571   0.948
  108SOL     OW 1009   1.252   1.348   0.388
  108SOL    HW1 1010   1.302   1.425   0.428
  108SOL    HW2 1011   1.157   1.350   0.420
  109SOL     OW 1012   1.272   1.445   1.142
  109SOL    HW1 1013   1.319   1.458   1.229
  109SOL    HW2 1014   1.206   1.371   1.151
  110SOL     OW 1015   1.582   0.639   0.472
  110SOL    HW1 1016   1.551   0.700   0.545
  110SOL    HW2 1017   1.632   0.691   0.403
  111SOL     OW 1018   0.354   1.510   1.329
  111SOL    HW1 1019   0.333   1.466   1.242
  111SOL    HW2 1020   0.451   1.536   1.332
  112SOL     OW 1021   0.402   0.751   1.598
  112SOL    HW1 1022   0.470   0.806   1.551
  112SOL    HW2 1023   0.442   0.663   1.625
  113SOL     OW 1024   1.587   0.779   1.670
  113SOL    HW1 1025   1.495   0.817   1.665
  113SOL    HW2 1026   1.647   0.826   1.605
  114SOL     OW 1027   1.013   0.105   1.770
  114SOL    HW1 1028   1.019   0.190   1.718
  114SOL    HW2 1029   1.045   0.029   1.713
  115SOL     OW 1030   0.504   0.050   1.740
  115SOL    HW1 1031   0.462  -0.007   1.670
  115SOL    HW2 1032   0.438   0.119   1.772
  116SOL     OW 1033   0.573   0.870   1.029
  116SOL    HW1 1034   0.617   0.959   1.020
  116SOL    HW2 1035   0.510   0.870   1.106
  117SOL     OW 1036   1.360   0.862   1.045
  117SOL    HW1 1037   1.285   0.862   0.979
  117SOL    HW2 1038   1.397   0.770   1.054
  118SOL     OW 1039   1.209   0.525   0.275
  118SOL    HW1 1040   1.222   0.441   0.329
  118SOL    HW2 1041   1.180   0.599   0.335
  119SOL     OW 1042   0.307   0.213   1.231
  119SOL    HW1 1043   0.284   0.250   1.321
  119SOL    HW2 1044   0.277   0.118   1.225
  120SOL     OW 1045   0.037   1.310   1.282
  120SOL    HW1 1046   0.090   1.261   1.350
  120SOL    HW2 1047   0.059   1.408   1.287
  121SOL     OW 1048   0.732   0.634   1.064
  121SOL    HW1 1049   0.791   0.608   0.988
  121SOL    HW2 1050   0.704   0.730   1.053
  122SOL     OW 1051   1.728   0.935   1.854
  122SOL    HW1 1052   1.682   0.928   1.765
  122SOL    HW2 1053   1.666   0.979   1.920
  123SOL     OW 1054   0.307   0.063   0.618
  123SOL    HW1 1055   0.296   0.157   0.651
  123SOL    HW2 1056   0.302   0.000   0.695
  124SOL     OW 1057   1.622   0.367   0.374
  124SOL    HW1 1058   1.624   0.291   0.438
  124SOL    HW2 1059   1.574   0.444   0.414
  125SOL     OW 1060   1.023   0.766   0.966
  125SOL    HW1 1061   1.038   0.787   1.062
  125SOL    HW2 1062   0.993   0.671   0.957
  126SOL     OW 1063   0.980   1.573   1.700
  126SOL    HW1 1064   0.960   1.617   1.612
  126SOL    HW2 1065   1.019   1.482   1.684
  127SOL     OW 1066   1.859   1.518   1.605
  127SOL    HW1 1067   1.873   1.545   1.510
  127SOL    HW2 1068   1.942   1.540   1.658
  128SOL     OW 1069   0.350   0.898   1.804
  128SOL    HW1 1070   0.426   0.942   1.852
  128SOL    HW2 1071   0.385   0.851   1.722
  129SOL     OW 1072   1.540   0.274   0.125
  129SOL    HW1 1073   1.479   0.199   0.148
  129SOL    HW2 1074   1.562   0.326   0.208
  130SOL     OW 1075   1.303   0.838   0.042
  130SOL    HW1 1076   1.337   0.745   0.057
  130SOL    HW2 1077   1.321   0.865  -0.053
  131SOL     OW 1078   1.068   1.333   0.849
  131SOL    HW1 1079   1.075   1.249   0.794
  131SOL    HW2 1080   1.130   1.402   0.813
  132SOL     OW 1081   0.319   0.810   0.949
  132SOL    HW1 1082   0.412   0.846   0.954
  132SOL    HW2 1083   0.313   0.725   1.001
  133SOL     OW 1084   0.339   0.509   1.006
  133SOL    HW1 1085   0.287   0.426   0.989
  133SOL    HW2 1086   0.416   0.514   0.942
  134SOL     OW 1087   1.138   0.380   1.678
  134SOL    HW1 1088   1.093   0.443   1.742
  134SOL    HW2 1089   1.231   0.411   1.661
  135SOL     OW 1090   1.160   0.207   1.477
  135SOL    HW1 1091   1.160   0.271   1.554
  135SOL    HW2 1092   1.188   0.255   1.394
  136SOL     OW 1093   0.008   1.326   0.200
  136SOL    HW1 1094  -0.085   1.347   0.169
  136SOL    HW2 1095   0.018   1.227   0.213
  137SOL     OW 1096   0.088   1.801   0.927
  137SOL    HW1 1097   0.046   1.715   0.900
  137SOL    HW2 1098   0.182   1.804   0.893
  138SOL     OW 1099   0.504   1.568   0.910
  138SOL    HW1 1100   0.570   1.642   0.919
  138SOL    HW2 1101   0.548   1.489   0.868
  139SOL     OW 1102   1.002   0.796   1.238
  139SOL    HW1 1103   1.043   0.764   1.324
  139SOL    HW2 1104   0.906   0.769   1.235
  140SOL     OW 1105   0.040   0.544   1.114
  140SOL    HW1 1106   0.125   0.511   1.073
  140SOL    HW2 1107   0.053   0.559   1.212
  141SOL     OW 1108   0.189   0.520   1.722
  141SOL    HW1 1109   0.248   0.480   1.652
  141SOL    HW2 1110   0.131   0.591   1.681
  142SOL     OW 1111   1.369   0.950   1.660
  142SOL    HW1 1112   1.408   1.039   1.680
  142SOL    HW2 1113   1.379   0.930   1.563
  143SOL     OW 1114   0.815   0.572   0.325
  143SOL    HW1 1115   0.822   0.483   0.279
  143SOL    HW2 1116   0.721   0.606   0.317
  144SOL     OW 1117   1.657   0.604   1.206
  144SOL    HW1 1118   1.619   0.535   1.268
  144SOL    HW2 1119   1.739   0.568   1.162
  145SOL     OW 1120   0.252   1.564   1.744
  145SOL    HW1 1121   0.222   1.621   1.820
  145SOL    HW2 1122   0.245   1.467   1.770
  146SOL     OW 1123   0.671   0.464   1.269
  146SOL    HW1 1124   0.637   0.375   1.239
  146SOL    HW2 1125   0.697   0.518   1.189
  147SOL     OW 1126   0.930   1.678   1.465
  147SOL    HW1 1127   0.906   1.660   1.370
  147SOL    HW2 1128   0.960   1.772   1.475
  148SOL     OW 1129   0.473   0.500   0.191
  148SOL    HW1 1130   0.534   0.580   0.195
  148SOL    HW2 1131   0.378   0.531   0.198
  149SOL     OW 1132   0.159   1.137   1.466
  149SOL    HW1 1133   0.181   1.076   1.542
  149SOL    HW2 1134   0.169   1.088   1.380
  150SOL     OW 1135   1.347   1.059   1.234
  150SOL    HW1 1136   1.371   0.996   1.160
  150SOL    HW2 1137   1.257   1.099   1.216
  151SOL     OW 1138   1.302   0.855   0.309
  151SOL    HW1 1139   1.216   0.824   0.351
  151SOL    HW2 1140   1.298   0.841   0.210
  152SOL     OW 1141   1.759   1.747   1.154
  152SOL    HW1 1142   1.820   1.777   1.081
  152SOL    HW2 1143   1.721   1.658   1.132
  153SOL     OW 1144   1.252   1.731   1.128
  153SOL    HW1 1145   1.336   1.736   1.074
  153SOL    HW2 1146   1.229   1.635   1.146
  154SOL     OW 1147   0.083   1.258   1.022
  154SOL    HW1 1148   0.078   1.257   1.122
  154SOL    HW2 1149   0.000   1.217   0.984
  155SOL     OW 1150   0.688   1.662   1.716
  155SOL    HW1 1151   0.632   1.743   1.725
  155SOL    HW2 1152   0.740   1.666   1.630
  156SOL     OW 1153   0.903   0.086   0.133
  156SOL    HW1 1154   0.954   0.087   0.047
  156SOL    HW2 1155   0.959   0.044   0.204
  157SOL     OW 1156   1.726   0.135   0.523
  157SOL    HW1 1157   1.799   0.118   0.456
  157SOL    HW2 1158   1.695   0.048   0.561
  158SOL     OW 1159   1.388   1.573   0.477
  158SOL    HW1 1160   1.455   1.585   0.403
  158SOL    HW2 1161   1.348   1.662   0.500
  159SOL     OW 1162   0.130   1.794   1.851
  159SOL    HW1 1163   0.089   1.720   1.904
  159SOL    HW2 1164   0.194   1.845   1.909
  160SOL     OW 1165   1.280   0.927   0.672
  160SOL    HW1 1166   1.340   0.846   0.674
  160SOL    HW2 1167   1.320   0.996   0.612
  161SOL     OW 1168   0.830   1.273   1.422
  161SOL    HW1 1169   0.825   1.306   1.517
  161SOL    HW2 1170   0.744   1.292   1.376
  162SOL     OW 1171   0.672   1.616   0.154
  162SOL    HW1 1172   0.681   1.626   0.055
  162SOL    HW2 1173   0.632   1.527   0.175
  163SOL     OW 1174   1.650   1.720   1.394
  163SOL    HW1 1175   1.703   1.730   1.310
  163SOL    HW2 1176   1.623   1.810   1.428
  164SOL     OW 1177   1.841   0.175   0.963
  164SOL    HW1 1178   1.880   0.090   0.927
  164SOL    HW2 1179   1.743   0.177   0.944
  165SOL     OW 1180   0.263   0.326   0.720
  165SOL    HW1 1181   0.184   0.377   0.686
  165SOL    HW2 1182   0.254   0.311   0.818
  166SOL     OW 1183   1.194   1.612   0.031
  166SOL    HW1 1184   1.200   1.519   0.068
  166SOL    HW2 1185   1.135   1.612  -0.049
  167SOL     OW 1186   0.822   1.002   1.372
  167SOL    HW1 1187   0.862   1.001   1.280
  167SOL    HW2 1188   0.832   1.094   1.412
  168SOL     OW 1189   0.916   0.910   0.291
  168SOL    HW1 1190   0.979   0.948   0.223
  168SOL    HW2 1191   0.956   0.827   0.330
  169SOL     OW 1192   1.504   1.607   0.044
  169SOL    HW1 1193   1.412   1.644   0.051
  169SOL    HW2 1194   1.542   1.627  -0.046
  170SOL     OW 1195   0.372   1.288   1.490
  170SOL    HW1 1196   0.359   1.381   1.456
  170SOL    HW2 1197   0.288   1.236   1.477
  171SOL     OW 1198   1.614   1.292   1.289
  171SOL    HW1 1199   1.674   1.295   1.369
  171SOL    HW2 1200   1.539   1.356   1.302
  172SOL     OW 1201   1.039   1.098   0.696
  172SOL    HW1 1202   0.969   1.051   0.750
  172SOL    HW2 1203   1.098   1.030   0.653
  173SOL     OW 1204   1.014   0.236   0.971
  173SOL    HW1 1205   1.006   0.200   0.878
  173SOL    HW2 1206   1.012   0.160   1.036
  174SOL     OW 1207   0.590   1.487   0.491
  174SOL    HW1 1208   0.632   1.429   0.421
  174SOL    HW2 1209   0.546   1.566   0.447
  175SOL     OW 1210   1.709   0.385   1.381
  175SOL    HW1 1211   1.782   0.454   1.385
  175SOL    HW2 1212   1.737   0.310   1.322
  176SOL     OW 1213   0.255   1.348   0.290
  176SOL    HW1 1214   0.159   1.349   0.263
  176SOL    HW2 1215   0.267   1.401   0.374
  177SOL     OW 1216   0.105   1.013   1.726
  177SOL    HW1 1217   0.028   0.980   1.780
  177SOL    HW2 1218   0.190   0.983   1.768
  178SOL     OW 1219   0.672   0.203   1.489
  178SOL    HW1 1220   0.762   0.187   1.449
  178SOL    HW2 1221   0.680   0.208   1.588
  179SOL     OW 1222   0.075   0.345   0.033
  179SOL    HW1 1223  -0.017   0.317   0.004
  179SOL    HW2 1224   0.106   0.422  -0.023
  180SOL     OW 1225   1.440   0.856   1.398
  180SOL    HW1 1226   1.383   0.908   1.335
  180SOL    HW2 1227   1.536   0.868   1.374
  181SOL     OW 1228   0.072   0.166   0.318
  181SOL    HW1 1229   0.055   0.249   0.264
  181SOL    HW2 1230   0.162   0.129   0.296
  182SOL     OW 1231   1.183   1.335   0.119
  182SOL    HW1 1232   1.084   1.324   0.121
  182SOL    HW2 1233   1.217   1.350   0.212
  183SOL     OW 1234   0.613   0.842   1.431
  183SOL    HW1 1235   0.669   0.923   1.414
  183SOL    HW2 1236   0.672   0.762   1.434
  184SOL     OW 1237   1.493   1.767   0.959
  184SOL    HW1 1238   1.526   1.831   0.890
  184SOL    HW2 1239   1.559   1.761   1.034
  185SOL     OW 1240   0.716   0.565   1.708
  185SOL    HW1 1241   0.735   0.630   1.782
  185SOL    HW2 1242   0.776   0.485   1.717
  186SOL     OW 1243   1.450   1.220   1.633
  186SOL    HW1 1244   1.441   1.210   1.732
  186SOL    HW2 1245   1.546   1.213   1.607
  187SOL     OW 1246   0.390   1.741   1.560
  187SOL    HW1 1247   0.299   1.782   1.558
  187SOL    HW2 1248   0.383   1.647   1.592
  188SOL     OW 1249   1.674   0.883   1.254
  188SOL    HW1 1250   1.647   0.794   1.217
  188SOL    HW2 1251   1.675   0.951   1.181
  189SOL     OW 1252   1.225   0.325   0.449
  189SOL    HW1 1253   1.290   0.251   0.438
  189SOL    HW2 1254   1.245   0.375   0.533
  190SOL     OW 1255   0.594   0.745   0.652
  190SOL    HW1 1256   0.644   0.830   0.633
  190SOL    HW2 1257   0.506   0.747   0.604
  191SOL     OW 1258   1.777   0.342   1.642
  191SOL    HW1 1259   1.760   0.373   1.548
  191SOL    HW2 1260   1.693   0.305   1.680
  192SOL     OW 1261   1.730   0.934   1.517
  192SOL    HW1 1262   1.768   1.025   1.532
  192SOL    HW2 1263   1.722   0.917   1.418
  193SOL     OW 1264   0.859   1.374   0.016
  193SOL    HW1 1265   0.813   1.389   0.104
  193SOL    HW2 1266   0.903   1.459  -0.014
  194SOL     OW 1267   0.661   1.790   0.953
  194SOL    HW1 1268   0.615   1.878   0.940
  194SOL    HW2 1269   0.760   1.802   0.946
  195SOL     OW 1270   0.859   0.956   0.861
  195SOL    HW1 1271   0.913   0.887   0.909
  195SOL    HW2 1272   0.827   1.025   0.927
  196SOL     OW 1273   1.083   0.984   0.087
  196SOL    HW1 1274   1.060   1.037   0.005
  196SOL    HW2 1275   1.164   0.928   0.068
  197SOL     OW 1276   1.861   1.569   0.851
  197SOL    HW1 1277   1.790   1.557   0.781
  197SOL    HW2 1278   1.862   1.490   0.911
  198SOL     OW 1279   0.221   1.314   1.844
  198SOL    HW1 1280   0.156   1.241   1.823
  198SOL    HW2 1281   0.225   1.328   1.942
  199SOL     OW 1282   0.079   1.240   0.653
  199SOL    HW1 1283   0.078   1.193   0.741
  199SOL    HW2 1284   0.161   1.212   0.602
  200SOL     OW 1285   0.672   1.391   1.624
  200SOL    HW1 1286   0.594   1.341   1.662
  200SOL    HW2 1287   0.669   1.486   1.655
  201SOL     OW 1288   1.824   0.192   1.227
  201SOL    HW1 1289   1.820   0.102   1.271
  201SOL    HW2 1290   1.827   0.181   1.128
  202SOL     OW 1291   0.428   0.424   0.520
  202SOL    HW1 1292   0.458   0.352   0.458
  202SOL    HW2 1293   0.389   0.384   0.603
  203SOL     OW 1294   1.705   1.487   1.104
  203SOL    HW1 1295   1.612   1.462   1.077
  203SOL    HW2 1296   1.731   1.437   1.186
  204SOL     OW 1297   0.317   0.547   1.280
  204SOL    HW1 1298   0.355   0.488   1.352
  204SOL    HW2 1299   0.357   0.521   1.192
  205SOL     OW 1300   0.812   1.586   0.687
  205SOL    HW1 1301   0.844   1.596   0.593
  205SOL    HW2 1302   0.733   1.524   0.689
  206SOL     OW 1303   1.424   0.214   1.112
  206SOL    HW1 1304   1.476   0.149   1.167
  206SOL    HW2 1305   1.375   0.277   1.173
  207SOL     OW 1306   1.001   0.034   1.154
  207SOL    HW1 1307   0.938  -0.038   1.123
  207SOL    HW2 1308   1.094  -0.002   1.154
  208SOL     OW 1309   0.770   1.330   0.301
  208SOL    HW1 1310   0.724   1.243   0.318
  208SOL    HW2 1311   0.861   1.327   0.342
  209SOL     OW 1312   0.618   1.567   1.284
  209SOL    HW1 1313   0.613   1.649   1.341
  209SOL    HW2 1314   0.707   1.564   1.239
  210SOL     OW 1315   1.352   0.052   0.168
  210SOL    HW1 1316   1.387   0.011   0.084
  210SOL    HW2 1317   1.262   0.014   0.188
  211SOL     OW 1318   1.300   0.453   0.691
  211SOL    HW1 1319   1.241   0.533   0.695
  211SOL    HW2 1320   1.315   0.418   0.784
  212SOL     OW 1321   1.593   0.221   0.882
  212SOL    HW1 1322   1.509   0.220   0.936
  212SOL    HW2 1323   1.595   0.304   0.826
  213SOL     OW 1324   0.039   1.077   0.300
  213SOL    HW1 1325   0.138   1.066   0.291
  213SOL    HW2 1326  -0.001   0.991   0.332
  214SOL     OW 1327   0.875   1.646   0.337
  214SOL    HW1 1328   0.798   1.611   0.283
  214SOL    HW2 1329   0.843   1.717   0.399
  215SOL     OW 1330   0.230   0.628   1.975
  215SOL    HW1 1331   0.137   0.626   2.012
  215SOL    HW2 1332   0.231   0.589   1.883
  216SOL     OW 1333   0.225   0.275   2.858
  216SOL    HW1 1334   0.260   0.258   2.950
  216SOL    HW2 1335   0.137   0.230   2.846
  217SOL     OW 1336   0.019   0.368   2.509
  217SOL    HW1 1337  -0.063   0.411   2.548
  217SOL    HW2 1338  -0.009   0.295   2.446
  218SOL     OW 1339   0.569   1.275   3.027
  218SOL    HW1 1340   0.476   1.268   2.990
  218SOL    HW2 1341   0.580   1.364   3.071
  219SOL     OW 1342   1.555   1.511   2.565
  219SOL    HW1 1343   1.498   1.495   2.646
  219SOL    HW2 1344   1.496   1.521   2.485
  220SOL     OW 1345   1.135   0.703   2.579
  220SOL    HW1 1346   1.192   0.781   2.554
  220SOL    HW2 1347   1.075   0.729   2.655
  221SOL     OW 1348   1.755   0.607   2.093
  221SOL    HW1 1349   1.743   0.594   1.994
  221SOL    HW2 1350   1.725   0.526   2.142
  222SOL     OW 1351   0.768   1.144   2.885
  222SOL    HW1 1352   0.690   1.161   2.945
  222SOL    HW2 1353   0.802   1.231   2.849
  223SOL     OW 1354   0.850   0.798   3.685
  223SOL    HW1 1355   0.846   0.874   3.750
  223SOL    HW2 1356   0.872   0.834   3.594
  224SOL     OW 1357   0.685   1.012   2.527
  224SOL    HW1 1358   0.754   0.996   2.597
  224SOL    HW2 1359   0.612   1.069   2.565
  225SOL     OW 1360   0.686   1.161   3.665
  225SOL    HW1 1361   0.746   1.240   3.679
  225SOL    HW2 1362   0.600   1.192   3.624
  226SOL     OW 1363   0.335   1.435   2.923
  226SOL    HW1 1364   0.257   1.404   2.870
  226SOL    HW2 1365   0.393   1.493   2.866
  227SOL     OW 1366   1.460   1.505   3.201
  227SOL    HW1 1367   1.484   1.599   3.227
  227SOL    HW2 1368   1.444   1.451   3.283
  228SOL     OW 1369   0.438   0.392   3.361
  228SOL    HW1 1370   0.520   0.336   3.370
  228SOL    HW2 1371   0.357   0.334   3.365
  229SOL     OW 1372   1.603   0.447   2.599
  229SOL    HW1 1373   1.529   0.493   2.549
  229SOL    HW2 1374   1.654   0.515   2.652
  230SOL     OW 1375   0.231   1.713   2.345
  230SOL    HW1 1376   0.265   1.790   2.399
  230SOL    HW2 1377   0.275   1.713   2.255
  231SOL     OW 1378   1.127   1.341   3.552
  231SOL    HW1 1379   1.174   1.341   3.640
  231SOL    HW2 1380   1.079   1.254   3.541
  232SOL     OW 1381   0.230   1.434   2.400
  232SOL    HW1 1382   0.204   1.530   2.400
  232SOL    HW2 1383   0.159   1.380   2.445
  233SOL     OW 1384   0.240   1.091   2.748
  233SOL    HW1 1385   0.254   1.007   2.800
  233SOL    HW2 1386   0.185   1.155   2.803
  234SOL     OW 1387   0.620   1.786   3.301
  234SOL    HW1 1388   0.528   1.769   3.336
  234SOL    HW2 1389   0.648   1.878   3.327
  235SOL     OW 1390   0.606   0.964   1.985
  235SOL    HW1 1391   0.613   1.048   1.931
  235SOL    HW2 1392   0.652   0.977   2.073
  236SOL     OW 1393   1.594   0.114   3.342
  236SOL    HW1 1394   1.576   0.181   3.270
  236SOL    HW2 1395   1.591   0.160   3.431
  237SOL     OW 1396   0.122   0.643   2.425
  237SOL    HW1 1397   0.077   0.555   2.442
  237SOL    HW2 1398   0.121   0.697   2.509
  238SOL     OW 1399   1.842   1.767   2.221
  238SOL    HW1 1400   1.896   1.738   2.301
  238SOL    HW2 1401   1.872   1.857   2.192
  239SOL     OW 1402   0.027   1.596   1.979
  239SOL    HW1 1403   0.008   1.500   2.000
  239SOL    HW2 1404  -0.006   1.654   2.054
  240SOL     OW 1405   1.689   0.922   2.474
  240SOL    HW1 1406   1.784   0.893   2.482
  240SOL    HW2 1407   1.681   0.987   2.399
  241SOL     OW 1408   1.641   1.108   2.294
  241SOL    HW1 1409   1.727   1.110   2.242
  241SOL    HW2 1410   1.655   1.155   2.382
  242SOL     OW 1411   0.113   0.737   3.459
  242SOL    HW1 1412   0.201   0.724   3.504
  242SOL    HW2 1413   0.100   0.834   3.437
  243SOL     OW 1414   0.613   1.365   2.588
  243SOL    HW1 1415   0.564   1.278   2.597
  243SOL    HW2 1416   0.590   1.408   2.501
  244SOL     OW 1417   1.293   1.228   3.285
  244SOL    HW1 1418   1.330   1.155   3.227
  244SOL    HW2 1419   1.345   1.233   3.370
  245SOL     OW 1420   0.809   0.004   2.364
  245SOL    HW1 1421   0.849   0.095   2.355
  245SOL    HW2 1422   0.709   0.012   2.370
  246SOL     OW 1423   0.197   0.976   3.126
  246SOL    HW1 1424   0.286   0.931   3.112
  246SOL    HW2 1425   0.124   0.911   3.107
  247SOL     OW 1426   1.525   0.999   2.052
  247SOL    HW1 1427   1.462   0.923   2.065
  247SOL    HW2 1428   1.573   1.017   2.138
  248SOL     OW 1429   1.187   1.792   3.478
  248SOL    HW1 1430   1.211   1.852   3.402
  248SOL    HW2 1431   1.194   1.697   3.448
  249SOL     OW 1432   0.317   0.251   3.663
  249SOL    HW1 1433   0.388   0.322   3.669
  249SOL    HW2 1434   0.229   0.290   3.691
  250SOL     OW 1435   1.466   1.417   2.815
  250SOL    HW1 1436   1.407   1.423   2.895
  250SOL    HW2 1437   1.451   1.329   2.769
  251SOL     OW 1438   1.667   1.714   2.434
  251SOL    HW1 1439   1.626   1.691   2.346
  251SOL    HW2 1440   1.649   1.640   2.499
  252SOL     OW 1441   0.598   0.729   2.132
  252SOL    HW1 1442   0.622   0.798   2.064
  252SOL    HW2 1443   0.520   0.762   2.186
  253SOL     OW 1444   1.281   0.345   2.806
  253SOL    HW1 1445   1.195   0.295   2.793
  253SOL    HW2 1446   1.343   0.291   2.862
  254SOL     OW 1447   1.576   1.662   2.169
  254SOL    HW1 1448   1.665   1.708   2.172
  254SOL    HW2 1449   1.555   1.638   2.074
  255SOL     OW 1450   0.807   0.605   3.327
  255SOL    HW1 1451   0.760   0.602   3.416
  255SOL    HW2 1452   0.756   0.550   3.261
  256SOL     OW 1453   1.394   0.469   3.536
  256SOL    HW1 1454   1.374   0.512   3.624
  256SOL    HW2 1455   1.472   0.407   3.545
  257SOL     OW 1456   0.973   0.890   3.434
  257SOL    HW1 1457   1.019   0.806   3.405
  257SOL    HW2 1458   0.917   0.924   3.359
  258SOL     OW 1459   0.991   0.410   3.104
  258SOL    HW1 1460   0.914   0.444   3.158
  258SOL    HW2 1461   0.957   0.359   3.025
  259SOL     OW 1462   1.041   0.701   2.291
  259SOL    HW1 1463   1.067   0.697   2.387
  259SOL    HW2 1464   0.956   0.650   2.277
  260SOL     OW 1465   0.076   0.811   2.651
  260SOL    HW1 1466   0.175   0.799   2.660
  260SOL    HW2 1467   0.052   0.906   2.672
  261SOL     OW 1468   0.130   1.821   3.433
  261SOL    HW1 1469   0.120   1.806   3.532
  261SOL    HW2 1470   0.044   1.857   3.397
  262SOL     OW 1471   0.865   0.348   2.057
  262SOL    HW1 1472   0.924   0.411   2.008
  262SOL    HW2 1473   0.884   0.254   2.028
  263SOL     OW 1474   1.719   0.585   3.693
  263SOL    HW1 1475   1.693   0.674   3.657
  263SOL    HW2 1476   1.717   0.517   3.620
  264SOL     OW 1477   1.362   1.144   2.407
  264SOL    HW1 1478   1.445   1.115   2.359
  264SOL    HW2 1479   1.313   1.211   2.351
  265SOL     OW 1480   0.550   0.196   2.747
  265SOL    HW1 1481   0.545   0.191   2.847
  265SOL    HW2 1482   0.552   0.292   2.718
  266SOL     OW 1483   1.008   1.456   2.339
  266SOL    HW1 1484   0.962   1.528   2.287
  266SOL    HW2 1485   1.004   1.476   2.437
  267SOL     OW 1486   0.351   1.801   2.715
  267SOL    HW1 1487   0.401   1.715   2.721
  267SOL    HW2 1488   0.416   1.878   2.712
  268SOL     OW 1489   1.795   1.066   2.735
  268SOL    HW1 1490   1.733   1.051   2.659
  268SOL    HW2 1491   1.743   1.077   2.820
  269SOL     OW 1492   1.227   1.550   3.368
  269SOL    HW1 1493   1.233   1.473   3.432
  269SOL    HW2 1494   1.175   1.524   3.288
  270SOL     OW 1495   0.321   0.943   2.104
  270SOL    HW1 1496   0.403   0.982   2.062
  270SOL    HW2 1497   0.294   0.861   2.055
  271SOL     OW 1498   1.458   0.735   2.590
  271SOL    HW1 1499   1.453   0.670   2.665
  271SOL    HW2 1500   1.538   0.794   2.603
  272SOL     OW 1501   0.461   1.266   3.589
  272SOL    HW1 1502   0.411   1.267   3.503
  272SOL    HW2 1503   0.398   1.248   3.665
  273SOL     OW 1504   1.111   1.776   2.099
  273SOL    HW1 1505   1.051   1.714   2.149
  273SOL    HW2 1506   1.142   1.732   2.014
  274SOL     OW 1507   0.202   0.285   3.360
  274SOL    HW1 1508   0.122   0.345   3.347
  274SOL    HW2 1509   0.192   0.236   3.446
  275SOL     OW 1510   1.632   1.377   1.943
  275SOL    HW1 1511   1.600   1.471   1.933
  275SOL    HW2 1512   1.556   1.314   1.931
  276SOL     OW 1513   0.464   1.743   2.185
  276SOL    HW1 1514   0.497   1.782   2.271
  276SOL    HW2 1515   0.540   1.736   2.120
  277SOL     OW 1516   1.400   0.107   2.288
  277SOL    HW1 1517   1.376   0.070   2.198
  277SOL    HW2 1518   1.499   0.123   2.292
  278SOL     OW 1519   0.249   1.785   3.103
  278SOL    HW1 1520   0.306   1.720   3.153
  278SOL    HW2 1521   0.233   1.752   3.010
  279SOL     OW 1522   0.940   1.698   2.766
  279SOL    HW1 1523   1.020   1.641   2.787
  279SOL    HW2 1524   0.891   1.658   2.689
  280SOL     OW 1525   0.382   0.700   2.342
  280SOL    HW1 1526   0.427   0.610   2.339
  280SOL    HW2 1527   0.288   0.689   2.375
  281SOL     OW 1528   1.547   0.222   3.591
  281SOL    HW1 1529   1.542   0.259   3.683
  281SOL    HW2 1530   1.475   0.153   3.579
  282SOL     OW 1531   0.614   0.122   1.979
  282SOL    HW1 1532   0.712   0.100   1.986
  282SOL    HW2 1533   0.583   0.105   1.886
  283SOL     OW 1534   0.781   0.264   3.611
  283SOL    HW1 1535   0.848   0.203   3.654
  283SOL    HW2 1536   0.708   0.283   3.676
  284SOL     OW 1537   0.888   1.514   3.057
  284SOL    HW1 1538   0.865   1.489   2.963
  284SOL    HW2 1539   0.949   1.445   3.096
  285SOL     OW 1540   1.351   0.590   3.295
  285SOL    HW1 1541   1.379   0.547   3.380
  285SOL    HW2 1542   1.376   0.686   3.296
  286SOL     OW 1543   0.803   1.402   2.786
  286SOL    HW1 1544   0.893   1.416   2.744
  286SOL    HW2 1545   0.732   1.404   2.715
  287SOL     OW 1546   0.922   0.503   2.761
  287SOL    HW1 1547   0.897   0.494   2.665
  287SOL    HW2 1548   0.970   0.421   2.792
  288SOL     OW 1549   0.539   0.064   2.374
  288SOL    HW1 1550   0.458   0.065   2.432
  288SOL    HW2 1551   0.542   0.147   2.319
  289SOL     OW 1552   1.434   1.188   1.903
  289SOL    HW1 1553   1.466   1.112   1.960
  289SOL    HW2 1554   1.342   1.215   1.933
  290SOL     OW 1555   0.297   0.035   2.033
  290SOL    HW1 1556   0.346   0.119   2.012
  290SOL    HW2 1557   0.359  -0.030   2.078
  291SOL     OW 1558   0.935   0.236   2.342
  291SOL    HW1 1559   0.887   0.277   2.264
  291SOL    HW2 1560   1.034   0.234   2.323
  292SOL     OW 1561   1.076   0.683   3.326
  292SOL    HW1 1562   0.996   0.622   3.329
  292SOL    HW2 1563   1.157   0.630   3.302
  293SOL     OW 1564   1.227   1.570   2.655
  293SOL    HW1 1565   1.248   1.644   2.590
  293SOL    HW2 1566   1.295   1.570   2.728
  294SOL     OW 1567   0.459   1.152   2.603
  294SOL    HW1 1568   0.388   1.125   2.668
  294SOL    HW2 1569   0.433   1.124   2.510
  295SOL     OW 1570   1.271   1.797   2.453
  295SOL    HW1 1571   1.315   1.861   2.389
  295SOL    HW2 1572   1.221   1.849   2.523
  296SOL     OW 1573   1.032   0.549   1.878
  296SOL    HW1 1574   0.991   0.631   1.839
  296SOL    HW2 1575   1.096   0.575   1.951
  297SOL     OW 1576   0.078   0.556   3.248
  297SOL    HW1 1577   0.170   0.555   3.207
  297SOL    HW2 1578   0.072   0.630   3.315
  298SOL     OW 1579   0.561   0.222   3.009
  298SOL    HW1 1580   0.599   0.138   3.046
  298SOL    HW2 1581   0.473   0.241   3.053
  299SOL     OW 1582   0.866   0.454   2.504
  299SOL    HW1 1583   0.834   0.526   2.442
  299SOL    HW2 1584   0.890   0.373   2.451
  300SOL     OW 1585   1.017   0.039   2.615
  300SOL    HW1 1586   0.945   0.044   2.546
  300SOL    HW2 1587   0.993  -0.030   2.684
  301SOL     OW 1588   1.429   1.173   2.729
  301SOL    HW1 1589   1.374   1.089   2.722
  301SOL    HW2 1590   1.455   1.202   2.637
  302SOL     OW 1591   1.466   0.590   2.854
  302SOL    HW1 1592   1.436   0.495   2.861
  302SOL    HW2 1593   1.539   0.606   2.920
  303SOL     OW 1594   1.857   0.833   2.239
  303SOL    HW1 1595   1.899   0.769   2.303
  303SOL    HW2 1596   1.819   0.782   2.161
  304SOL     OW 1597   0.488   1.385   2.036
  304SOL    HW1 1598   0.401   1.370   2.083
  304SOL    HW2 1599   0.471   1.411   1.941
  305SOL     OW 1600   1.664   1.280   2.519
  305SOL    HW1 1601   1.763   1.288   2.533
  305SOL    HW2 1602   1.619   1.364   2.550
  306SOL     OW 1603   1.390   0.575   1.940
  306SOL    HW1 1604   1.336   0.554   2.021
  306SOL    HW2 1605   1.481   0.534   1.949
  307SOL     OW 1606   0.527   0.256   2.190
  307SOL    HW1 1607   0.554   0.197   2.115
  307SOL    HW2 1608   0.527   0.351   2.159
  308SOL     OW 1609   1.754   1.223   3.450
  308SOL    HW1 1610   1.845   1.184   3.437
  308SOL    HW2 1611   1.762   1.319   3.474
  309SOL     OW 1612   1.064   1.347   3.202
  309SOL    HW1 1613   0.984   1.324   3.257
  309SOL    HW2 1614   1.147   1.321   3.251
  310SOL     OW 1615   1.592   1.629   3.487
  310SOL    HW1 1616   1.619   1.663   3.397
  310SOL    HW2 1617   1.671   1.591   3.533
  311SOL     OW 1618   1.111   1.195   2.962
  311SOL    HW1 1619   1.071   1.239   3.043
  311SOL    HW2 1620   1.070   1.232   2.879
  312SOL     OW 1621   1.638   1.099   2.941
  312SOL    HW1 1622   1.643   1.180   3.000
  312SOL    HW2 1623   1.552   1.101   2.890
  313SOL     OW 1624   0.915   0.089   3.264
  313SOL    HW1 1625   0.940   0.069   3.169
  313SOL    HW2 1626   0.987   0.145   3.306
  314SOL     OW 1627   0.980   1.116   3.581
  314SOL    HW1 1628   0.881   1.122   3.591
  314SOL    HW2 1629   1.003   1.036   3.525
  315SOL     OW 1630   0.705   1.050   2.230
  315SOL    HW1 1631   0.691   1.057   2.329
  315SOL    HW2 1632   0.789   0.999   2.212
  316SOL     OW 1633   0.410   0.813   3.113
  316SOL    HW1 1634   0.496   0.825   3.163
  316SOL    HW2 1635   0.368   0.726   3.140
  317SOL     OW 1636   1.274   0.386   3.124
  317SOL    HW1 1637   1.295   0.460   3.188
  317SOL    HW2 1638   1.185   0.403   3.081
  318SOL     OW 1639   0.064   1.564   3.193
  318SOL    HW1 1640   0.018   1.646   3.159
  318SOL    HW2 1641   0.162   1.583   3.202
  319SOL     OW 1642   0.367   1.100   2.363
  319SOL    HW1 1643   0.360   1.183   2.307
  319SOL    HW2 1644   0.371   1.020   2.303
  320SOL     OW 1645   0.566   0.537   2.727
  320SOL    HW1 1646   0.578   0.603   2.653
  320SOL    HW2 1647   0.612   0.571   2.810
  321SOL     OW 1648   1.252   1.348   2.250
  321SOL    HW1 1649   1.302   1.425   2.290
  321SOL    HW2 1650   1.157   1.350   2.282
  322SOL     OW 1651   1.272   1.445   3.004
  322SOL    HW1 1652   1.319   1.458   3.091
  322SOL    HW2 1653   1.206   1.371   3.013
  323SOL     OW 1654   1.582   0.639   2.334
  323SOL    HW1 1655   1.551   0.700   2.407
  323SOL    HW2 1656   1.632   0.691   2.265
  324SOL     OW 1657   0.354   1.510   3.191
  324SOL    HW1 1658   0.333   1.466   3.104
  324SOL    HW2 1659   0.451   1.536   3.194
  325SOL     OW 1660   0.402   0.751   3.460
  325SOL    HW1 1661   0.470   0.806   3.413
  325SOL    HW2 1662   0.442   0.663   3.487
  326SOL     OW 1663   1.587   0.779   3.532
  326SOL    HW1 1664   1.495   0.817   3.527
  326SOL    HW2 1665   1.647   0.826   3.467
  327SOL     OW 1666   1.013   0.105   3.632
  327SOL    HW1 1667   1.019   0.190   3.580
  327SOL    HW2 1668   1.045   0.029   3.575
  328SOL     OW 1669   0.504   0.050   3.602
  328SOL    HW1 1670   0.462  -0.007   3.532
  328SOL    HW2 1671   0.438   0.119   3.634
  329SOL     OW 1672   0.573   0.870   2.891
  329SOL    HW1 1673   0.617   0.959   2.882
  329SOL    HW2 1674   0.510   0.870   2.968
  330SOL     OW 1675   1.360   0.862   2.907
  330SOL    HW1 1676   1.285   0.862   2.841
  330SOL    HW2 1677   1.397   0.770   2.916
  331SOL     OW 1678   1.209   0.525   2.137
  331SOL    HW1 1679   1.222   0.441   2.191
  331SOL    HW2 1680   1.180   0.599   2.197
  332SOL     OW 1681   0.307   0.213   3.093
  332SOL    HW1 1682   0.284   0.250   3.183
  332SOL    HW2 1683   0.277   0.118   3.087
  333SOL     OW 1684   0.037   1.310   3.144
  333SOL    HW1 1685   0.090   1.261   3.212
  333SOL    HW2 1686   0.059   1.408   3.149
  334SOL     OW 1687   0.732   0.634   2.926
  334SOL    HW1 1688   0.791   0.608   2.850
  334SOL    HW2 1689   0.704   0.730   2.915
  335SOL     OW 1690   1.728   0.935   3.716
  335SOL    HW1 1691   1.682   0.928   3.627
  335SOL    HW2 1692   1.666   0.979   3.782
  336SOL     OW 1693   0.307   0.063   2.480
  336SOL    HW1 1694   0.296   0.157   2.513
  336SOL    HW2 1695   0.302   0.000   2.557
  337SOL     OW 1696   1.622   0.367   2.236
  337SOL    HW1 1697   1.624   0.291   2.300
  337SOL    HW2 1698   1.574   0.444   2.276
  338SOL     OW 1699   1.023   0.766   2.828
  338SOL    HW1 1700   1.038   0.787   2.924
  338SOL    HW2 1701   0.993   0.671   2.819
  339SOL     OW 1702   0.980   1.573   3.562
  339SOL    HW1 1703   0.960   1.617   3.474
  339SOL    HW2 1704   1.019   1.482   3.546
  340SOL     OW 1705   1.859   1.518   3.467
  340SOL    HW1 1706   1.873   1.545   3.372
  340SOL    HW2 1707   1.942   1.540   3.520
  341SOL     OW 1708   0.350   0.898   3.666
  341SOL    HW1 1709   0.426   0.942   3.714
  341SOL    HW2 1710   0.385   0.851   3.584
  342SOL     OW 1711   1.540   0.274   1.987
  342SOL    HW1 1712   1.479   0.199   2.010
  342SOL    HW2 1713   1.562   0.326   2.070
  343SOL     OW 1714   1.303   0.838   1.904
  343SOL    HW1 1715   1.337   0.745   1.919
  343SOL    HW2 1716   1.321   0.865   1.809
  344SOL     OW 1717   1.068   1.333   2.711
  344SOL    HW1 1718   1.075   1.249   2.656
  344SOL    HW2 1719   1.130   1.402   2.675
  345SOL     OW 1720   0.319   0.810   2.811
  345SOL    HW1 1721   0.412   0.846   2.816
  345SOL    HW2 1722   0.313   0.725   2.863
  346SOL     OW 1723   0.339   0.509   2.868
  346SOL    HW1 1724   0.287   0.426   2.851
  346SOL    HW2 1725   0.416   0.514   2.804
  347SOL     OW 1726   1.138   0.380   3.540
  347SOL    HW1 1727   1.093   0.443   3.604
  347SOL    HW2 1728   1.231   0.411   3.523
  348SOL     OW 1729   1.160   0.207   3.339
  348SOL    HW1 1730   1.160   0.271   3.416
  348SOL    HW2 1731   1.188   0.255   3.256
  349SOL     OW 1732   0.008   1.326   2.062
  349SOL    HW1 1733  -0.085   1.347   2.031
  349SOL    HW2 1734   0.018   1.227   2.075
  350SOL     OW 1735   0.088   1.801   2.789
  350SOL    HW1 1736   0.046   1.715   2.762
  350SOL    HW2 1737   0.182   1.804   2.755
  351SOL     OW 1738   0.504   1.568   2.772
  351SOL    HW1 1739   0.570   1.642   2.781
  351SOL    HW2 1740   0.548   1.489   2.730
  352SOL     OW 1741   1.002   0.796   3.100
  352SOL    HW1 1742   1.043   0.764   3.186
  352SOL    HW2 1743   0.906   0.769   3.097
  353SOL     OW 1744   0.040   0.544   2.976
  353SOL    HW1 1745   0.125   0.511   2.935
  353SOL    HW2 1746   0.053   0.559   3.074
  354SOL     OW 1747   0.189   0.520   3.584
  354SOL    HW1 1748   0.248   0.480   3.514
  354SOL    HW2 1749   0.131   0.591   3.543
  355SOL     OW 1750   1.369   0.950   3.522
  355SOL    HW1 1751   1.408   1.039   3.542
  355SOL    HW2 1752   1.379   0.930   3.425
  356SOL     OW 1753   0.815   0.572   2.187
  356SOL    HW1 1754   0.822   0.483   2.141
  356SOL    HW2 1755   0.721   0.606   2.179
  357SOL     OW 1756   1.657   0.604   3.068
  357SOL    HW1 1757   1.619   0.535   3.130
  357SOL    HW2 1758   1.739   0.568   3.024
  358SOL     OW 1759   0.252   1.564   3.606
  358SOL    HW1 1760   0.222   1.621   3.682
  358SOL    HW2 1761   0.245   1.467   3.632
  359SOL     OW 1762   0.671   0.464   3.131
  359SOL    HW1 1763   0.637   0.375   3.101
  359SOL    HW2 1764   0.697   0.518   3.051
  360SOL     OW 1765   0.930   1.678   3.327
  360SOL    HW1 1766   0.906   1.660   3.232
  360SOL    HW2 1767   0.960   1.772   3.337
  361SOL     OW 1768   0.473   0.500   2.053
  361SOL    HW1 1769   0.534   0.580   2.057
  361SOL    HW2 1770   0.378   0.531   2.060
  362SOL     OW 1771   0.159   1.137   3.328
  362SOL    HW1 1772   0.181   1.076   3.404
  362SOL    HW2 1773   0.169   1.088   3.242
  363SOL     OW 1774   1.347   1.059   3.096
  363SOL    HW1 1775   1.371   0.996   3.022
  363SOL    HW2 1776   1.257   1.099   3.078
  364SOL     OW 1777   1.302   0.855   2.171
  364SOL    HW1 1778   1.216   0.824   2.213
  364SOL    HW2 1779   1.298   0.841   2.072
  365SOL     OW 1780   1.759   1.747   3.016
  365SOL    HW1 1781   1.820   1.777   2.943
  365SOL    HW2 1782   1.721   1.658   2.994
  366SOL     OW 1783   1.252   1.731   2.990
  366SOL    HW1 1784   1.336   1.736   2.936
  366SOL    HW2 1785   1.229   1.635   3.008
  367SOL     OW 1786   0.083   1.258   2.884
  367SOL    HW1 1787   0.078   1.257   2.984
  367SOL    HW2 1788   0.000   1.217   2.846
  368SOL     OW 1789   0.688   1.662   3.578
  368SOL    HW1 1790   0.632   1.743   3.587
  368SOL    HW2 1791   0.740   1.666   3.492
  369SOL     OW 1792   1.726   0.135   2.385
  369SOL    HW1 1793   1.799   0.118   2.318
  369SOL    HW2 1794   1.695   0.048   2.423
  370SOL     OW 1795   1.388   1.573   2.339
  370SOL    HW1 1796   1.455   1.585   2.265
  370SOL    HW2 1797   1.348   1.662   2.362
  371SOL     OW 1798   0.130   1.794   3.713
  371SOL    HW1 1799   0.089   1.720   3.766
  371SOL    HW2 1800   0.194   1.845   3.771
  372SOL     OW 1801   1.280   0.927   2.534
  372SOL    HW1 1802   1.340   0.846   2.536
  372SOL    HW2 1803   1.320   0.996   2.474
  373SOL     OW 1804   0.830   1.273   3.284
  373SOL    HW1 1805   0.825   1.306   3.379
  373SOL    HW2 1806   0.744   1.292   3.238
  374SOL     OW 1807   0.672   1.616   2.016
  374SOL    HW1 1808   0.681   1.626   1.917
  374SOL    HW2 1809   0.632   1.527   2.037
  375SOL     OW 1810   1.650   1.720   3.256
  375SOL    HW1 1811   1.703   1.730   3.172
  375SOL    HW2 1812   1.623   1.810   3.290
  376SOL     OW 1813   1.841   0.175   2.825
  376SOL    HW1 1814   1.880   0.090   2.789
  376SOL    HW2 1815   1.743   0.177   2.806
  377SOL     OW 1816   0.263   0.326   2.582
  377SOL    HW1 1817   0.184   0.377   2.548
  377SOL    HW2 1818   0.254   0.311   2.680
  378SOL     OW 1819   1.194   1.612   1.893
  378SOL    HW1 1820   1.200   1.519   1.930
  378SOL    HW2 1821   1.135   1.612   1.813
  379SOL     OW 1822   0.822   1.002   3.234
  379SOL    HW1 1823   0.862   1.001   3.142
  379SOL    HW2 1824   0.832   1.094   3.274
  380SOL     OW 1825   0.916   0.910   2.153
  380SOL    HW1 1826   0.979   0.948   2.085
  380SOL    HW2 1827   0.956   0.827   2.192
  381SOL     OW 1828   1.504   1.607   1.906
  381SOL    HW1 1829   1.412   1.644   1.913
  381SOL    HW2 1830   1.542   1.627   1.816
  382SOL     OW 1831   0.372   1.288   3.352
  382SOL    HW1 1832   0.359   1.381   3.318
  382SOL    HW2 1833   0.288   1.236   3.339
  383SOL     OW 1834   1.614   1.292   3.151
  383SOL    HW1 1835   1.674   1.295   3.231
  383SOL    HW2 1836   1.539   1.356   3.164
  384SOL     OW 1837   1.039   1.098   2.558
  384SOL    HW1 1838   0.969   1.051   2.612
  384SOL    HW2 1839   1.098   1.030   2.515
  385SOL     OW 1840   1.014   0.236   2.833
  385SOL    HW1 1841   1.006   0.200   2.740
  385SOL    HW2 1842   1.012   0.160   2.898
  386SOL     OW 1843   0.590   1.487   2.353
  386SOL    HW1 1844   0.632   1.429   2.283
  386SOL    HW2 1845   0.546   1.566   2.309
  387SOL     OW 1846   1.709   0.385   3.243
  387SOL    HW1 1847   1.782   0.454   3.247
  387SOL    HW2 1848   1.737   0.310   3.184
  388SOL     OW 1849   0.255   1.348   2.152
  388SOL    HW1 1850   0.159   1.349   2.125
  388SOL    HW2 1851   0.267   1.401   2.236
  389SOL     OW 1852   0.105   1.013   3.588
  389SOL    HW1 1853   0.028   0.980   3.642
  389SOL    HW2 1854   0.190   0.983   3.630
  390SOL     OW 1855   0.672   0.203   3.351
  390SOL    HW1 1856   0.762   0.187   3.311
  390SOL    HW2 1857   0.680   0.208   3.450
  391SOL     OW 1858   0.075   0.345   1.895
  391SOL    HW1 1859  -0.017   0.317   1.866
  391SOL    HW2 1860   0.106   0.422   1.839
  392SOL     OW 1861   1.440   0.856   3.260
  392SOL    HW1 1862   1.383   0.908   3.197
  392SOL    HW2 1863   1.536   0.868   3.236
  393SOL     OW 1864   0.072   0.166   2.180
  393SOL    HW1 1865   0.055   0.249   2.126
  393SOL    HW2 1866   0.162   0.129   2.158
  394SOL     OW 1867   1.183   1.335   1.981
  394SOL    HW1 1868   1.084   1.324   1.983
  394SOL    HW2 1869   1.217   1.350   2.074
  395SOL     OW 1870   0.613   0.842   3.293
  395SOL    HW1 1871   0.669   0.923   3.276
  395SOL    HW2 1872   0.672   0.762   3.296
  396SOL     OW 1873   1.493   1.767   2.821
  396SOL    HW1 1874   1.526   1.831   2.752
  396SOL    HW2 1875   1.559   1.761   2.896
  397SOL     OW 1876   0.716   0.565   3.570
  397SOL    HW1 1877   0.735   0.630   3.644
  397SOL    HW2 1878   0.776   0.485   3.579
  398SOL     OW 1879   1.450   1.220   3.495
  398SOL    HW1 1880   1.441   1.210   3.594
  398SOL    HW2 1881   1.546   1.213   3.469
  399SOL     OW 1882   0.390   1.741   3.422
  399SOL    HW1 1883   0.299   1.782   3.420
  399SOL    HW2 1884   0.383   1.647   3.454
  400SOL     OW 1885   1.674   0.883   3.116
  400SOL    HW1 1886   1.647   0.794   3.079
  400SOL    HW2 1887   1.675   0.951   3.043
  401SOL     OW 1888   1.225   0.325   2.311
  401SOL    HW1 1889   1.290   0.251   2.300
  401SOL    HW2 1890   1.245   0.375   2.395
  402SOL     OW 1891   0.594   0.745   2.514
  402SOL    HW1 1892   0.644   0.830   2.495
  402SOL    HW2 1893   0.506   0.747   2.466
  403SOL     OW 1894   1.777   0.342   3.504
  403SOL    HW1 1895   1.760   0.373   3.410
  403SOL    HW2 1896   1.693   0.305   3.542
  404SOL     OW 1897   1.730   0.934   3.379
  404SOL    HW1 1898   1.768   1.025   3.394
  404SOL    HW2 1899   1.722   0.917   3.280
  405SOL     OW 1900   0.859   1.374   1.878
  405SOL    HW1 1901   0.813   1.389   1.966
  405SOL    HW2 1902   0.903   1.459   1.848
  406SOL     OW 1903   0.661   1.790   2.815
  406SOL    HW1 1904   0.615   1.878   2.802
  406SOL    HW2 1905   0.760   1.802   2.808
  407SOL     OW 1906   0.859   0.956   2.723
  407SOL    HW1 1907   0.913   0.887   2.771
  407SOL    HW2 1908   0.827   1.025   2.789
  408SOL     OW 1909   1.083   0.984   1.949
  408SOL    HW1 1910   1.060   1.037   1.867
  408SOL    HW2 1911   1.164   0.928   1.930
  409SOL     OW 1912   1.861   1.569   2.713
  409SOL    HW1 1913   1.790   1.557   2.643
  409SOL    HW2 1914   1.862   1.490   2.773
  410SOL     OW 1915   0.221   1.314   3.706
  410SOL    HW1 1916   0.156   1.241   3.685
  410SOL    HW2 1917   0.225   1.328   3.804
  411SOL     OW 1918   0.079   1.240   2.515
  411SOL    HW1 1919   0.078   1.193   2.603
  411SOL    HW2 1920   0.161   1.212   2.464
  412SOL     OW 1921   0.672   1.391   3.486
  412SOL    HW1 1922   0.594   1.341   3.524
  412SOL    HW2 1923   0.669   1.486   3.517
  413SOL     OW 1924   1.824   0.192   3.089
  413SOL    HW1 1925   1.820   0.102   3.133
  413SOL    HW2 1926   1.827   0.181   2.990
  414SOL     OW 1927   0.428   0.424   2.382
  414SOL    HW1 1928   0.458   0.352   2.320
  414SOL    HW2 1929   0.389   0.384   2.465
  415SOL     OW 1930   1.705   1.487   2.966
  415SOL    HW1 1931   1.612   1.462   2.939
  415SOL    HW2 1932   1.731   1.437   3.048
  416SOL     OW 1933   0.317   0.547   3.142
  416SOL    HW1 1934   0.355   0.488   3.214
  416SOL    HW2 1935   0.357   0.521   3.054
  417SOL     OW 1936   0.812   1.586   2.549
  417SOL    HW1 1937   0.844   1.596   2.455
  417SOL    HW2 1938   0.733   1.524   2.551
  418SOL     OW 1939   1.424   0.214   2.974
  418SOL    HW1 1940   1.476   0.149   3.029
  418SOL    HW2 1941   1.375   0.277   3.035
  419SOL     OW 1942   1.001   0.034   3.016
  419SOL    HW1 1943   0.938  -0.038   2.985
  419SOL    HW2 1944   1.094  -0.002   3.016
  420SOL     OW 1945   0.770   1.330   2.163
  420SOL    HW1 1946   0.724   1.243   2.180
  420SOL    HW2 1947   0.861   1.327   2.204
  421SOL     OW 1948   0.618   1.567   3.146
  421SOL    HW1 1949   0.613   1.649   3.203
  421SOL    HW2 1950   0.707   1.564   3.101
  422SOL     OW 1951   1.352   0.052   2.030
  422SOL    HW1 1952   1.387   0.011   1.946
  422SOL    HW2 1953   1.262   0.014   2.050
  423SOL     OW 1954   1.300   0.453   2.553
  423SOL    HW1 1955   1.241   0.533   2.557
  423SOL    HW2 1956   1.315   0.418   2.646
  424SOL     OW 1957   1.593   0.221   2.744
  424SOL    HW1 1958   1.509   0.220   2.798
  424SOL    HW2 1959   1.595   0.304   2.688
  425SOL     OW 1960   0.039   1.077   2.162
  425SOL    HW1 1961   0.138   1.066   2.153
  425SOL    HW2 1962  -0.001   0.991   2.194
  426SOL     OW 1963   0.875   1.646   2.199
  426SOL    HW1 1964   0.798   1.611   2.145
  426SOL    HW2 1965   0.843   1.717   2.261
  427SOL     OW 1966   0.230   0.628   3.837
  427SOL    HW1 1967   0.137   0.626   3.874
  427SOL    HW2 1968   0.231   0.589   3.745
  428SOL     OW 1969   0.225   0.275   4.720
  428SOL    HW1 1970   0.260   0.258   4.812
  428SOL    HW2 1971   0.137   0.230   4.708
  429SOL     OW 1972   0.019   0.368   4.371
  429SOL    HW1 1973  -0.063   0.411   4.410
  429SOL    HW2 1974  -0.009   0.295   4.308
  430SOL     OW 1975   0.569   1.275   4.889
  430SOL    HW1 1976   0.476   1.268   4.852
  430SOL    HW2 1977   0.580   1.364   4.933
  431SOL     OW 1978   1.555   1.511   4.427
  431SOL    HW1 1979   1.498   1.495   4.508
  431SOL    HW2 1980   1.496   1.521   4.347
  432SOL     OW 1981   1.135   0.703   4.441
  432SOL    HW1 1982   1.192   0.781   4.416
  432SOL    HW2 1983   1.075   0.729   4.517
  433SOL     OW 1984   1.755   0.607   3.955
  433SOL    HW1 1985   1.743   0.594   3.856
  433SOL    HW2 1986   1.725   0.526   4.004
  434SOL     OW 1987   0.768   1.144   4.747
  434SOL    HW1 1988   0.690   1.161   4.807
  434SOL    HW2 1989   0.802   1.231   4.711
  435SOL     OW 1990   0.850   0.798   5.547
  435SOL    HW1 1991   0.846   0.874   5.612
  435SOL    HW2 1992   0.872   0.834   5.456
  436SOL     OW 1993   0.685   1.012   4.389
  436SOL    HW1 1994   0.754   0.996   4.459
  436SOL    HW2 1995   0.612   1.069   4.427
  437SOL     OW 1996   0.686   1.161   5.527
  437SOL    HW1 1997   0.746   1.240   5.541
  437SOL    HW2 1998   0.600   1.192   5.486
  438SOL     OW 1999   0.335   1.435   4.785
  438SOL    HW1 2000   0.257   1.404   4.732
  438SOL    HW2 2001   0.393   1.493   4.728
  439SOL     OW 2002   1.460   1.505   5.063
  439SOL    HW1 2003   1.484   1.599   5.089
  439SOL    HW2 2004   1.444   1.451   5.145
  440SOL     OW 2005   0.438   0.392   5.223
  440SOL    HW1 2006   0.520   0.336   5.232
  440SOL    HW2 2007   0.357   0.334   5.227
  441SOL     OW 2008   1.603   0.447   4.461
  441SOL    HW1 2009   1.529   0.493   4.411
  441SOL    HW2 2010   1.654   0.515   4.514
  442SOL     OW 2011   0.231   1.713   4.207
  442SOL    HW1 2012   0.265   1.790   4.261
  442SOL    HW2 2013   0.275   1.713   4.117
  443SOL     OW 2014   1.127   1.341   5.414
  443SOL    HW1 2015   1.174   1.341   5.502
  443SOL    HW2 2016   1.079   1.254   5.403
  444SOL     OW 2017   0.230   1.434   4.262
  444SOL    HW1 2018   0.204   1.530   4.262
  444SOL    HW2 2019   0.159   1.380   4.307
  445SOL     OW 2020   0.240   1.091   4.610
  445SOL    HW1 2021   0.254   1.007   4.662
  445SOL    HW2 2022   0.185   1.155   4.665
  446SOL     OW 2023   0.620   1.786   5.163
  446SOL    HW1 2024   0.528   1.769   5.198
  446SOL    HW2 2025   0.648   1.878   5.189
  447SOL     OW 2026   0.606   0.964   3.847
  447SOL    HW1 2027   0.613   1.048   3.793
  447SOL    HW2 2028   0.652   0.977   3.935
  448SOL     OW 2029   1.594   0.114   5.204
  448SOL    HW1 2030   1.576   0.181   5.132
  448SOL    HW2 2031   1.591   0.160   5.293
  449SOL     OW 2032   0.122   0.643   4.287
  449SOL    HW1 2033   0.077   0.555   4.304
  449SOL    HW2 2034   0.121   0.697   4.371
  450SOL     OW 2035   1.842   1.767   4.083
  450SOL    HW1 2036   1.896   1.738   4.163
  450SOL    HW2 2037   1.872   1.857   4.054
  451SOL     OW 2038   0.027   1.596   3.841
  451SOL    HW1 2039   0.008   1.500   3.862
  451SOL    HW2 2040  -0.006   1.654   3.916
  452SOL     OW 2041   1.689   0.922   4.336
  452SOL    HW1 2042   1.784   0.893   4.344
  452SOL    HW2 2043   1.681   0.987   4.261
  453SOL     OW 2044   1.641   1.108   4.156
  453SOL    HW1 2045   1.727   1.110   4.104
  453SOL    HW2 2046   1.655   1.155   4.244
  454SOL     OW 2047   0.113   0.737   5.321
  454SOL    HW1 2048   0.201   0.724   5.366
  454SOL    HW2 2049   0.100   0.834   5.299
  455SOL     OW 2050   0.613   1.365   4.450
  455SOL    HW1 2051   0.564   1.278   4.459
  455SOL    HW2 2052   0.590   1.408   4.363
  456SOL     OW 2053   1.293   1.228   5.147
  456SOL    HW1 2054   1.330   1.155   5.089
  456SOL    HW2 2055   1.345   1.233   5.232
  457SOL     OW 2056   0.809   0.004   4.226
  457SOL    HW1 2057   0.849   0.095   4.217
  457SOL    HW2 2058   0.709   0.012   4.232
  458SOL     OW 2059   0.197   0.976   4.988
  458SOL    HW1 2060   0.286   0.931   4.974
  458SOL    HW2 2061   0.124   0.911   4.969
  459SOL     OW 2062   1.525   0.999   3.914
  459SOL    HW1 2063   1.462   0.923   3.927
  459SOL    HW2 2064   1.573   1.017   4.000
  460SOL     OW 2065   1.187   1.792   5.340
  460SOL    HW1 2066   1.211   1.852   5.264
  460SOL    HW2 2067   1.194   1.697   5.310
  461SOL     OW 2068   0.317   0.251   5.525
  461SOL    HW1 2069   0.388   0.322   5.531
  461SOL    HW2 2070   0.229   0.290   5.553
  462SOL     OW 2071   1.466   1.417   4.677
  462SOL    HW1 2072   1.407   1.423   4.757
  462SOL    HW2 2073   1.451   1.329   4.631
  463SOL     OW 2074   1.667   1.714   4.296
  463SOL    HW1 2075   1.626   1.691   4.208
  463SOL    HW2 2076   1.649   1.640   4.361
  464SOL     OW 2077   0.598   0.729   3.994
  464SOL    HW1 2078   0.622   0.798   3.926
  464SOL    HW2 2079   0.520   0.762   4.048
  465SOL     OW 2080   1.281   0.345   4.668
  465SOL    HW1 2081   1.195   0.295   4.655
  465SOL    HW2 2082   1.343   0.291   4.724
  466SOL     OW 2083   1.576   1.662   4.031
  466SOL    HW1 2084   1.665   1.708   4.034
  466SOL    HW2 2085   1.555   1.638   3.936
  467SOL     OW 2086   0.807   0.605   5.189
  467SOL    HW1 2087   0.760   0.602   5.278
  467SOL    HW2 2088   0.756   0.550   5.123
  468SOL     OW 2089   1.394   0.469   5.398
  468SOL    HW1 2090   1.374   0.512   5.486
  468SOL    HW2 2091   1.472   0.407   5.407
  469SOL     OW 2092   0.973   0.890   5.296
  469SOL    HW1 2093   1.019   0.806   5.267
  469SOL    HW2 2094   0.917   0.924   5.221
  470SOL     OW 2095   0.991   0.410   4.966
  470SOL    HW1 2096   0.914   0.444   5.020
  470SOL    HW2 2097   0.957   0.359   4.887
  471SOL     OW 2098   1.041   0.701   4.153
  471SOL    HW1 2099   1.067   0.697   4.249
  471SOL    HW2 2100   0.956   0.650   4.139
  472SOL     OW 2101   0.076   0.811   4.513
  472SOL    HW1 2102   0.175   0.799   4.522
  472SOL    HW2 2103   0.052   0.906   4.534
  473SOL     OW 2104   0.130   1.821   5.295
  473SOL    HW1 2105   0.120   1.806   5.394
  473SOL    HW2 2106   0.044   1.857   5.259
  474SOL     OW 2107   0.865   0.348   3.919
  474SOL    HW1 2108   0.924   0.411   3.870
  474SOL    HW2 2109   0.884   0.254   3.890
  475SOL     OW 2110   1.719   0.585   5.555
  475SOL    HW1 2111   1.693   0.674   5.519
  475SOL    HW2 2112   1.717   0.517   5.482
  476SOL     OW 2113   1.362   1.144   4.269
  476SOL    HW1 2114   1.445   1.115   4.221
  476SOL    HW2 2115   1.313   1.211   4.213
  477SOL     OW 2116   0.550   0.196   4.609
  477SOL    HW1 2117   0.545   0.191   4.709
  477SOL    HW2 2118   0.552   0.292   4.580
  478SOL     OW 2119   1.008   1.456   4.201
  478SOL    HW1 2120   0.962   1.528   4.149
  478SOL    HW2 2121   1.004   1.476   4.299
  479SOL     OW 2122   0.351   1.801   4.577
  479SOL    HW1 2123   0.401   1.715   4.583
  479SOL    HW2 2124   0.416   1.878   4.574
  480SOL     OW 2125   1.795   1.066   4.597
  480SOL    HW1 2126   1.733   1.051   4.521
  480SOL    HW2 2127   1.743   1.077   4.682
  481SOL     OW 2128   1.227   1.550   5.230
  481SOL    HW1 2129   1.233   1.473   5.294
  481SOL    HW2 2130   1.175   1.524   5.150
  482SOL     OW 2131   0.321   0.943   3.966
  482SOL    HW1 2132   0.403   0.982   3.924
  482SOL    HW2 2133   0.294   0.861   3.917
  483SOL     OW 2134   1.458   0.735   4.452
  483SOL    HW1 2135   1.453   0.670   4.527
  483SOL    HW2 2136   1.538   0.794   4.465
  484SOL     OW 2137   0.461   1.266   5.451
  484SOL    HW1 2138   0.411   1.267   5.365
  484SOL    HW2 2139   0.398   1.248   5.527
  485SOL     OW 2140   1.111   1.776   3.961
  485SOL    HW1 2141   1.051   1.714   4.011
  485SOL    HW2 2142   1.142   1.732   3.876
  486SOL     OW 2143   0.202   0.285   5.222
  486SOL    HW1 2144   0.122   0.345   5.209
  486SOL    HW2 2145   0.192   0.236   5.308
  487SOL     OW 2146   1.632   1.377   3.805
  487SOL    HW1 2147   1.600   1.471   3.795
  487SOL    HW2 2148   1.556   1.314   3.793
  488SOL     OW 2149   0.464   1.743   4.047
  488SOL    HW1 2150   0.497   1.782   4.133
  488SOL    HW2 2151   0.540   1.736   3.982
  489SOL     OW 2152   1.400   0.107   4.150
  489SOL    HW1 2153   1.376   0.070   4.060
  489SOL    HW2 2154   1.499   0.123   4.154
  490SOL     OW 2155   0.249   1.785   4.965
  490SOL    HW1 2156   0.306   1.720   5.015
  490SOL    HW2 2157   0.233   1.752   4.872
  491SOL     OW 2158   0.940   1.698   4.628
  491SOL    HW1 2159   1.020   1.641   4.649
  491SOL    HW2 2160   0.891   1.658   4.551
  492SOL     OW 2161   0.382   0.700   4.204
  492SOL    HW1 2162   0.427   0.610   4.201
  492SOL    HW2 2163   0.288   0.689   4.237
  493SOL     OW 2164   1.547   0.222   5.453
  493SOL    HW1 2165   1.542   0.259   5.545
  493SOL    HW2 2166   1.475   0.153   5.441
  494SOL     OW 2167   0.614   0.122   3.841
  494SOL    HW1 2168   0.712   0.100   3.848
  494SOL    HW2 2169   0.583   0.105   3.748
  495SOL     OW 2170   0.781   0.264   5.473
  495SOL    HW1 2171   0.848   0.203   5.516
  495SOL    HW2 2172   0.708   0.283   5.538
  496SOL     OW 2173   0.888   1.514   4.919
  496SOL    HW1 2174   0.865   1.489   4.825
  496SOL    HW2 2175   0.949   1.445   4.958
  497SOL     OW 2176   1.351   0.590   5.157
  497SOL    HW1 2177   1.379   0.547   5.242
  497SOL    HW2 2178   1.376   0.686   5.158
  498SOL     OW 2179   0.803   1.402   4.648
  498SOL    HW1 2180   0.893   1.416   4.606
  498SOL    HW2 2181   0.732   1.404   4.577
  499SOL     OW 2182   0.922   0.503   4.623
  499SOL    HW1 2183   0.897   0.494   4.527
  499SOL    HW2 2184   0.970   0.421   4.654
  500SOL     OW 2185   0.539   0.064   4.236
  500SOL    HW1 2186   0.458   0.065   4.294
  500SOL    HW2 2187   0.542   0.147   4.181
  501SOL     OW 2188   1.434   1.188   3.765
  501SOL    HW1 2189   1.466   1.112   3.822
  501SOL    HW2 2190   1.342   1.215   3.795
  502SOL     OW 2191   0.297   0.035   3.895
  502SOL    HW1 2192   0.346   0.119   3.874
  502SOL    HW2 2193   0.359  -0.030   3.940
  503SOL     OW 2194   0.935   0.236   4.204
  503SOL    HW1 2195   0.887   0.277   4.126
  503SOL    HW2 2196   1.034   0.234   4.185
  504SOL     OW 2197   1.076   0.683   5.188
  504SOL    HW1 2198   0.996   0.622   5.191
  504SOL    HW2 2199   1.157   0.630   5.164
  505SOL     OW 2200   1.227   1.570   4.517
  505SOL    HW1 2201   1.248   1.644   4.452
  505SOL    HW2 2202   1.295   1.570   4.590
  506SOL     OW 2203   0.459   1.152   4.465
  506SOL    HW1 2204   0.388   1.125   4.530
  506SOL    HW2 2205   0.433   1.124   4.372
  507SOL     OW 2206   1.271   1.797   4.315
  507SOL    HW1 2207   1.315   1.861   4.251
  507SOL    HW2 2208   1.221   1.849   4.385
  508SOL     OW 2209   1.032   0.549   3.740
  508SOL    HW1 2210   0.991   0.631   3.701
  508SOL    HW2 2211   1.096   0.575   3.813
  509SOL     OW 2212   0.078   0.556   5.110
  509SOL    HW1 2213   0.170   0.555   5.069
  509SOL    HW2 2214   0.072   0.630   5.177
  510SOL     OW 2215   0.561   0.222   4.871
  510SOL    HW1 2216   0.599   0.138   4.908
  510SOL    HW2 2217   0.473   0.241   4.915
  511SOL     OW 2218   0.866   0.454   4.366
  511SOL    HW1 2219   0.834   0.526   4.304
  511SOL    HW2 2220   0.890   0.373   4.313
  512SOL     OW 2221   1.017   0.039   4.477
  512SOL    HW1 2222   0.945   0.044   4.408
  512SOL    HW2 2223   0.993  -0.030   4.546
  513SOL     OW 2224   1.429   1.173   4.591
  513SOL    HW1 2225   1.374   1.089   4.584
  513SOL    HW2 2226   1.455   1.202   4.499
  514SOL     OW 2227   1.466   0.590   4.716
  514SOL    HW1 2228   1.436   0.495   4.723
  514SOL    HW2 2229   1.539   0.606   4.782
  515SOL     OW 2230   1.857   0.833   4.101
  515SOL    HW1 2231   1.899   0.769   4.165
  515SOL    HW2 2232   1.819   0.782   4.023
  516SOL     OW 2233   0.488   1.385   3.898
  516SOL    HW1 2234   0.401   1.370   3.945
  516SOL    HW2 2235   0.471   1.411   3.803
  517SOL     OW 2236   1.664   1.280   4.381
  517SOL    HW1 2237   1.763   1.288   4.395
  517SOL    HW2 2238   1.619   1.364   4.412
  518SOL     OW 2239   1.390   0.575   3.802
  518SOL    HW1 2240   1.336   0.554   3.883
  518SOL    HW2 2241   1.481   0.534   3.811
  519SOL     OW 2242   0.527   0.256   4.052
  519SOL    HW1 2243   0.554   0.197   3.977
  519SOL    HW2 2244   0.527   0.351   4.021
  520SOL     OW 2245   1.754   1.223   5.312
  520SOL    HW1 2246   1.845   1.184   5.299
  520SOL    HW2 2247   1.762   1.319   5.336
  521SOL     OW 2248   1.064   1.347   5.064
  521SOL    HW1 2249   0.984   1.324   5.119
  521SOL    HW2 2250   1.147   1.321   5.113
  522SOL     OW 2251   1.592   1.629   5.349
  522SOL    HW1 2252   1.619   1.663   5.259
  522SOL    HW2 2253   1.671   1.591   5.395
  523SOL     OW 2254   1.111   1.195   4.824
  523SOL    HW1 2255   1.071   1.239   4.905
  523SOL    HW2 2256   1.070   1.232   4.741
  524SOL     OW 2257   1.638   1.099   4.803
  524SOL    HW1 2258   1.643   1.180   4.862
  524SOL    HW2 2259   1.552   1.101   4.752
  525SOL     OW 2260   0.915   0.089   5.126
  525SOL    HW1 2261   0.940   0.069   5.031
  525SOL    HW2 2262   0.987   0.145   5.168
  526SOL     OW 2263   0.980   1.116   5.443
  526SOL    HW1 2264   0.881   1.122   5.453
  526SOL    HW2 2265   1.003   1.036   5.387
  527SOL     OW 2266   0.705   1.050   4.092
  527SOL    HW1 2267   0.691   1.057   4.191
  527SOL    HW2 2268   0.789   0.999   4.074
  528SOL     OW 2269   0.410   0.813   4.975
  528SOL    HW1 2270   0.496   0.825   5.025
  528SOL    HW2 2271   0.368   0.726   5.002
  529SOL     OW 2272   1.274   0.386   4.986
  529SOL    HW1 2273   1.295   0.460   5.050
  529SOL    HW2 2274   1.185   0.403   4.943
  530SOL     OW 2275   0.064   1.564   5.055
  530SOL    HW1 2276   0.018   1.646   5.021
  530SOL    HW2 2277   0.162   1.583   5.064
  531SOL     OW 2278   0.367   1.100   4.225
  531SOL    HW1 2279   0.360   1.183   4.169
  531SOL    HW2 2280   0.371   1.020   4.165
  532SOL     OW 2281   0.566   0.537   4.589
  532SOL    HW1 2282   0.578   0.603   4.515
  532SOL    HW2 2283   0.612   0.571   4.672
  533SOL     OW 2284   1.252   1.348   4.112
  533SOL    HW1 2285   1.302   1.425   4.152
  533SOL    HW2 2286   1.157   1.350   4.144
  534SOL     OW 2287   1.272   1.445   4.866
  534SOL    HW1 2288   1.319   1.458   4.953
  534SOL    HW2 2289   1.206   1.371   4.875
  535SOL     OW 2290   1.582   0.639   4.196
  535SOL    HW1 2291   1.551   0.700   4.269
  535SOL    HW2 2292   1.632   0.691   4.127
  536SOL     OW 2293   0.354   1.510   5.053
  536SOL    HW1 2294   0.333   1.466   4.966
  536SOL    HW2 2295   0.451   1.536   5.056
  537SOL     OW 2296   0.402   0.751   5.322
  537SOL    HW1 2297   0.470   0.806   5.275
  537SOL    HW2 2298   0.442   0.663   5.349
  538SOL     OW 2299   1.587   0.779   5.394
  538SOL    HW1 2300   1.495   0.817   5.389
  538SOL    HW2 2301   1.647   0.826   5.329
  539SOL     OW 2302   1.013   0.105   5.494
  539SOL    HW1 2303   1.019   0.190   5.442
  539SOL    HW2 2304   1.045   0.029   5.437
  540SOL     OW 2305   0.504   0.050   5.464
  540SOL    HW1 2306   0.462  -0.007   5.394
  540SOL    HW2 2307   0.438   0.119   5.496
  541SOL     OW 2308   0.573   0.870   4.753
  541SOL    HW1 2309   0.617   0.959   4.744
  541SOL    HW2 2310   0.510   0.870   4.830
  542SOL     OW 2311   1.360   0.862   4.769
  542SOL    HW1 2312   1.285   0.862   4.703
  542SOL    HW2 2313   1.397   0.770   4.778
  543SOL     OW 2314   1.209   0.525   3.999
  543SOL    HW1 2315   1.222   0.441   4.053
  543SOL    HW2 2316   1.180   0.599   4.059
  544SOL     OW 2317   0.307   0.213   4.955
  544SOL    HW1 2318   0.284   0.250   5.045
  544SOL    HW2 2319   0.277   0.118   4.949
  545SOL     OW 2320   0.037   1.310   5.006
  545SOL    HW1 2321   0.090   1.261   5.074
  545SOL    HW2 2322   0.059   1.408   5.011
  546SOL     OW 2323   0.732   0.634   4.788
  546SOL    HW1 2324   0.791   0.608   4.712
  546SOL    HW2 2325   0.704   0.730   4.777
  547SOL     OW 2326   1.728   0.935   5.578
  547SOL    HW1 2327   1.682   0.928   5.489
  547SOL    HW2 2328   1.666   0.979   5.644
  548SOL     OW 2329   0.307   0.063   4.342
  548SOL    HW1 2330   0.296   0.157   4.375
  548SOL    HW2 2331   0.302   0.000   4.419
  549SOL     OW 2332   1.622   0.367   4.098
  549SOL    HW1 2333   1.624   0.291   4.162
  549SOL    HW2 2334   1.574   0.444   4.138
  550SOL     OW 2335   1.023   0.766   4.690
  550SOL    HW1 2336   1.038   0.787   4.786
  550SOL    HW2 2337   0.993   0.671   4.681
  551SOL     OW 2338   0.980   1.573   5.424
  551SOL    HW1 2339   0.960   1.617   5.336
  551SOL    HW2 2340   1.019   1.482   5.408
  552SOL     OW 2341   1.859   1.518   5.329
  552SOL    HW1 2342   1.873   1.545   5.234
  552SOL    HW2 2343   1.942   1.540   5.382
  553SOL     OW 2344   0.350   0.898   5.528
  553SOL    HW1 2345   0.426   0.942   5.576
  553SOL    HW2 2346   0.385   0.851   5.446
  554SOL     OW 2347   1.540   0.274   3.849
  554SOL    HW1 2348   1.479   0.199   3.872
  554SOL    HW2 2349   1.562   0.326   3.932
  555SOL     OW 2350   1.303   0.838   3.766
  555SOL    HW1 2351   1.337   0.745   3.781
  555SOL    HW2 2352   1.321   0.865   3.671
  556SOL     OW 2353   1.068   1.333   4.573
  556SOL    HW1 2354   1.075   1.249   4.518
  556SOL    HW2 2355   1.130   1.402   4.537
  557SOL     OW 2356   0.319   0.810   4.673
  557SOL    HW1 2357   0.412   0.846   4.678
  557SOL    HW2 2358   0.313   0.725   4.725
  558SOL     OW 2359   0.339   0.509   4.730
  558SOL    HW1 2360   0.287   0.426   4.713
  558SOL    HW2 2361   0.416   0.514   4.666
  559SOL     OW 2362   1.138   0.380   5.402
  559SOL    HW1 2363   1.093   0.443   5.466
  559SOL    HW2 2364   1.231   0.411   5.385
  560SOL     OW 2365   1.160   0.207   5.201
  560SOL    HW1 2366   1.160   0.271   5.278
  560SOL    HW2 2367   1.188   0.255   5.118
  561SOL     OW 2368   0.008   1.326   3.924
  561SOL    HW1 2369  -0.085   1.347   3.893
  561SOL    HW2 2370   0.018   1.227   3.937
  562SOL     OW 2371   0.088   1.801   4.651
  562SOL    HW1 2372   0.046   1.715   4.624
  562SOL    HW2 2373   0.182   1.804   4.617
  563SOL     OW 2374   0.504   1.568   4.634
  563SOL    HW1 2375   0.570   1.642   4.643
  563SOL    HW2 2376   0.548   1.489   4.592
  564SOL     OW 2377   1.002   0.796   4.962
  564SOL    HW1 2378   1.043   0.764   5.048
  564SOL    HW2 2379   0.906   0.769   4.959
  565SOL     OW 2380   0.040   0.544   4.838
  565SOL    HW1 2381   0.125   0.511   4.797
  565SOL    HW2 2382   0.053   0.559   4.936
  566SOL     OW 2383   0.189   0.520   5.446
  566SOL    HW1 2384   0.248   0.480   5.376
  566SOL    HW2 2385   0.131   0.591   5.405
  567SOL     OW 2386   1.369   0.950   5.384
  567SOL    HW1 2387   1.408   1.039   5.404
  567SOL    HW2 2388   1.379   0.930   5.287
  568SOL     OW 2389   0.815   0.572   4.049
  568SOL    HW1 2390   0.822   0.483   4.003
  568SOL    HW2 2391   0.721   0.606   4.041
  569SOL     OW 2392   1.657   0.604   4.930
  569SOL    HW1 2393   1.619   0.535   4.992
  569SOL    HW2 2394   1.739   0.568   4.886
  570SOL     OW 2395   0.252   1.564   5.468
  570SOL    HW1 2396   0.222   1.621   5.544
  570SOL    HW2 2397   0.245   1.467   5.494
  571SOL     OW 2398   0.671   0.464   4.993
  571SOL    HW1 2399   0.637   0.375   4.963
  571SOL    HW2 2400   0.697   0.518   4.913
  572SOL     OW 2401   0.930   1.678   5.189
  572SOL    HW1 2402   0.906   1.660   5.094
  572SOL    HW2 2403   0.960   1.772   5.199
  573SOL     OW 2404   0.473   0.500   3.915
  573SOL    HW1 2405   0.534   0.580   3.919
  573SOL    HW2 2406   0.378   0.531   3.922
  574SOL     OW 2407   0.159   1.137   5.190
  574SOL    HW1 2408   0.181   1.076   5.266
  574SOL    HW2 2409   0.169   1.088   5.104
  575SOL     OW 2410   1.347   1.059   4.958
  575SOL    HW1 2411   1.371   0.996   4.884
  575SOL    HW2 2412   1.257   1.099   4.940
  576SOL     OW 2413   1.302   0.855   4.033
  576SOL    HW1 2414   1.216   0.824   4.075
  576SOL    HW2 2415   1.298   0.841   3.934
  577SOL     OW 2416   1.759   1.747   4.878
  577SOL    HW1 2417   1.820   1.777   4.805
  577SOL    HW2 2418   1.721   1.658   4.856
  578SOL     OW 2419   1.252   1.731   4.852
  578SOL    HW1 2420   1.336   1.736   4.798
  578SOL    HW2 2421   1.229   1.635   4.870
  579SOL     OW 2422   0.083   1.258   4.746
  579SOL    HW1 2423   0.078   1.257   4.846
  579SOL    HW2 2424   0.000   1.217   4.708
  580SOL     OW 2425   0.688   1.662   5.440
  580SOL    HW1 2426   0.632   1.743   5.449
  580SOL    HW2 2427   0.740   1.666   5.354
  581SOL     OW 2428   1.726   0.135   4.247
  581SOL    HW1 2429   1.799   0.118   4.180
  581SOL    HW2 2430   1.695   0.048   4.285
  582SOL     OW 2431   1.388   1.573   4.201
  582SOL    HW1 2432   1.455   1.585   4.127
  582SOL    HW2 2433   1.348   1.662   4.224
  583SOL     OW 2434   0.130   1.794   5.575
  583SOL    HW1 2435   0.089   1.720   5.628
  583SOL    HW2 2436   0.194   1.845   5.633
  584SOL     OW 2437   1.280   0.927   4.396
  584SOL    HW1 2438   1.340   0.846   4.398
  584SOL    HW2 2439   1.320   0.996   4.336
  585SOL     OW 2440   0.830   1.273   5.146
  585SOL    HW1 2441   0.825   1.306   5.241
  585SOL    HW2 2442   0.744   1.292   5.100
  586SOL     OW 2443   0.672   1.616   3.878
  586SOL    HW1 2444   0.681   1.626   3.779
  586SOL    HW2 2445   0.632   1.527   3.899
  587SOL     OW 2446   1.650   1.720   5.118
  587SOL    HW1 2447   1.703   1.730   5.034
  587SOL    HW2 2448   1.623   1.810   5.152
  588SOL     OW 2449   1.841   0.175   4.687
  588SOL    HW1 2450   1.880   0.090   4.651
  588SOL    HW2 2451   1.743   0.177   4.668
  589SOL     OW 2452   0.263   0.326   4.444
  589SOL    HW1 2453   0.184   0.377   4.410
  589SOL    HW2 2454   0.254   0.311   4.542
  590SOL     OW 2455   1.194   1.612   3.755
  590SOL    HW1 2456   1.200   1.519   3.792
  590SOL    HW2 2457   1.135   1.612   3.675
  591SOL     OW 2458   0.822   1.002   5.096
  591SOL    HW1 2459   0.862   1.001   5.004
  591SOL    HW2 2460   0.832   1.094   5.136
  592SOL     OW 2461   0.916   0.910   4.015
  592SOL    HW1 2462   0.979   0.948   3.947
  592SOL    HW2 2463   0.956   0.827   4.054
  593SOL     OW 2464   1.504   1.607   3.768
  593SOL    HW1 2465   1.412   1.644   3.775
  593SOL    HW2 2466   1.542   1.627   3.678
  594SOL     OW 2467   0.372   1.288   5.214
  594SOL    HW1 2468   0.359   1.381   5.180
  594SOL    HW2 2469   0.288   1.236   5.201
  595SOL     OW 2470   1.614   1.292   5.013
  595SOL    HW1 2471   1.674   1.295   5.093
  595SOL    HW2 2472   1.539   1.356   5.026
  596SOL     OW 2473   1.039   1.098   4.420
  596SOL    HW1 2474   0.969   1.051   4.474
  596SOL    HW2 2475   1.098   1.030   4.377
  597SOL     OW 2476   1.014   0.236   4.695
  597SOL    HW1 2477   1.006   0.200   4.602
  597SOL    HW2 2478   1.012   0.160   4.760
  598SOL     OW 2479   0.590   1.487   4.215
  598SOL    HW1 2480   0.632   1.429   4.145
  598SOL    HW2 2481   0.546   1.566   4.171
  599SOL     OW 2482   1.709   0.385   5.105
  599SOL    HW1 2483   1.782   0.454   5.109
  599SOL    HW2 2484   1.737   0.310   5.046
  600SOL     OW 2485   0.255   1.348   4.014
  600SOL    HW1 2486   0.159   1.349   3.987
  600SOL    HW2 2487   0.267   1.401   4.098
  601SOL     OW 2488   0.105   1.013   5.450
  601SOL    HW1 2489   0.028   0.980   5.504
  601SOL    HW2 2490   0.190   0.983   5.492
  602SOL     OW 2491   0.672   0.203   5.213
  602SOL    HW1 2492   0.762   0.187   5.173
  602SOL    HW2 2493   0.680   0.208   5.312
  603SOL     OW 2494   0.075   0.345   3.757
  603SOL    HW1 2495  -0.017   0.317   3.728
  603SOL    HW2 2496   0.106   0.422   3.701
  604SOL     OW 2497   1.440   0.856   5.122
  604SOL    HW1 2498   1.383   0.908   5.059
  604SOL    HW2 2499   1.536   0.868   5.098
  605SOL     OW 2500   0.072   0.166   4.042
  605SOL    HW1 2501   0.055   0.249   3.988
  605SOL    HW2 2502   0.162   0.129   4.020
  606SOL     OW 2503   1.183   1.335   3.843
  606SOL    HW1 2504   1.084   1.324   3.845
  606SOL    HW2 2505   1.217   1.350   3.936
  607SOL     OW 2506   0.613   0.842   5.155
  607SOL    HW1 2507   0.669   0.923   5.138
  607SOL    HW2 2508   0.672   0.762   5.158
  608SOL     OW 2509   1.493   1.767   4.683
  608SOL    HW1 2510   1.526   1.831   4.614
  608SOL    HW2 2511   1.559   1.761   4.758
  609SOL     OW 2512   0.716   0.565   5.432
  609SOL    HW1 2513   0.735   0.630   5.506
  609SOL    HW2 2514   0.776   0.485   5.441
  610SOL     OW 2515   1.450   1.220   5.357
  610SOL    HW1 2516   1.441   1.210   5.456
  610SOL    HW2 2517   1.546   1.213   5.331
  611SOL     OW 2518   0.390   1.741   5.284
  611SOL    HW1 2519   0.299   1.782   5.282
  611SOL    HW2 2520   0.383   1.647   5.316
  612SOL     OW 2521   1.674   0.883   4.978
  612SOL    HW1 2522   1.647   0.794   4.941
  612SOL    HW2 2523   1.675   0.951   4.905
  613SOL     OW 2524   1.225   0.325   4.173
  613SOL    HW1 2525   1.290   0.251   4.162
  613SOL    HW2 2526   1.245   0.375   4.257
  614SOL     OW 2527   0.594   0.745   4.376
  614SOL    HW1 2528   0.644   0.830   4.357
  614SOL    HW2 2529   0.506   0.747   4.328
  615SOL     OW 2530   1.777   0.342   5.366
  615SOL    HW1 2531   1.760   0.373   5.272
  615SOL    HW2 2532   1.693   0.305   5.404
  616SOL     OW 2533   1.730   0.934   5.241
  616SOL    HW1 2534   1.768   1.025   5.256
  616SOL    HW2 2535   1.722   0.917   5.142
  617SOL     OW 2536   0.859   1.374   3.740
  617SOL    HW1 2537   0.813   1.389   3.828
  617SOL    HW2 2538   0.903   1.459   3.710
  618SOL     OW 2539   0.661   1.790   4.677
  618SOL    HW1 2540   0.615   1.878   4.664
  618SOL    HW2 2541   0.760   1.802   4.670
  619SOL     OW 2542   0.859   0.956   4.585
  619SOL    HW1 2543   0.913   0.887   4.633
  619SOL    HW2 2544   0.827   1.025   4.651
  620SOL     OW 2545   1.083   0.984   3.811
  620SOL    HW1 2546   1.060   1.037   3.729
  620SOL    HW2 2547   1.164   0.928   3.792
  621SOL     OW 2548   1.861   1.569   4.575
  621SOL    HW1 2549   1.790   1.557   4.505
  621SOL    HW2 2550   1.862   1.490   4.635
  622SOL     OW 2551   0.221   1.314   5.568
  622SOL    HW1 2552   0.156   1.241   5.547
  622SOL    HW2 2553   0.225   1.328   5.666
  623SOL     OW 2554   0.079   1.240   4.377
  623SOL    HW1 2555   0.078   1.193   4.465
  623SOL    HW2 2556   0.161   1.212   4.326
  624SOL     OW 2557   0.672   1.391   5.348
  624SOL    HW1 2558   0.594   1.341   5.386
  624SOL    HW2 2559   0.669   1.486   5.379
  625SOL     OW 2560   1.824   0.192   4.951
  625SOL    HW1 2561   1.820   0.102   4.995
  625SOL    HW2 2562   1.827   0.181   4.852
  626SOL     OW 2563   0.428   0.424   4.244
  626SOL    HW1 2564   0.458   0.352   4.182
  626SOL    HW2 2565   0.389   0.384   4.327
  627SOL     OW 2566   1.705   1.487   4.828
  627SOL    HW1 2567   1.612   1.462   4.801
  627SOL    HW2 2568   1.731   1.437   4.910
  628SOL     OW 2569   0.317   0.547   5.004
  628SOL    HW1 2570   0.355   0.488   5.076
  628SOL    HW2 2571   0.357   0.521   4.916
  629SOL     OW 2572   0.812   1.586   4.411
  629SOL    HW1 2573   0.844   1.596   4.317
  629SOL    HW2 2574   0.733   1.524   4.413
  630SOL     OW 2575   1.424   0.214   4.836
  630SOL    HW1 2576   1.476   0.149   4.891
  630SOL    HW2 2577   1.375   0.277   4.897
  631SOL     OW 2578   1.001   0.034   4.878
  631SOL    HW1 2579   0.938  -0.038   4.847
  631SOL    HW2 2580   1.094  -0.002   4.878
  632SOL     OW 2581   0.770   1.330   4.025
  632SOL    HW1 2582   0.724   1.243   4.042
  632SOL    HW2 2583   0.861   1.327   4.066
  633SOL     OW 2584   0.618   1.567   5.008
  633SOL    HW1 2585   0.613   1.649   5.065
  633SOL    HW2 2586   0.707   1.564   4.963
  634SOL     OW 2587   1.352   0.052   3.892
  634SOL    HW1 2588   1.387   0.011   3.808
  634SOL    HW2 2589   1.262   0.014   3.912
  635SOL     OW 2590   1.300   0.453   4.415
  635SOL    HW1 2591   1.241   0.533   4.419
  635SOL    HW2 2592   1.315   0.418   4.508
  636SOL     OW 2593   1.593   0.221   4.606
  636SOL    HW1 2594   1.509   0.220   4.660
  636SOL    HW2 2595   1.595   0.304   4.550
  637SOL     OW 2596   0.039   1.077   4.024
  637SOL    HW1 2597   0.138   1.066   4.015
  637SOL    HW2 2598  -0.001   0.991   4.056
  638SOL     OW 2599   0.875   1.646   4.061
  638SOL    HW1 2600   0.798   1.611   4.007
  638SOL    HW2 2601   0.843   1.717   4.123
  639SOL     OW 2602   0.230   0.628   5.699
  639SOL    HW1 2603   0.137   0.626   5.736
  639SOL    HW2 2604   0.231   0.589   5.607
  640SOL     OW 2605   0.225   0.275   6.582
  640SOL    HW1 2606   0.260   0.258   6.674
  640SOL    HW2 2607   0.137   0.230   6.570
  641SOL     OW 2608   0.019   0.368   6.233
  641SOL    HW1 2609  -0.063   0.411   6.272
  641SOL    HW2 2610  -0.009   0.295   6.170
  642SOL     OW 2611   0.569   1.275   6.751
  642SOL    HW1 2612   0.476   1.268   6.714
  642SOL    HW2 2613   0.580   1.364   6.795
  643SOL     OW 2614   1.555   1.511   6.289
  643SOL    HW1 2615   1.498   1.495   6.370
  643SOL    HW2 2616   1.496   1.521   6.209
  644SOL     OW 2617   1.135   0.703   6.303
  644SOL    HW1 2618   1.192   0.781   6.278
  644SOL    HW2 2619   1.075   0.729   6.379
  645SOL     OW 2620   1.755   0.607   5.817
  645SOL    HW1 2621   1.743   0.594   5.718
  645SOL    HW2 2622   1.725   0.526   5.866
  646SOL     OW 2623   0.768   1.144   6.609
  646SOL    HW1 2624   0.690   1.161   6.669
  646SOL    HW2 2625   0.802   1.231   6.573
  647SOL     OW 2626   0.850   0.798   7.409
  647SOL    HW1 2627   0.846   0.874   7.474
  647SOL    HW2 2628   0.872   0.834   7.318
  648SOL     OW 2629   0.685   1.012   6.251
  648SOL    HW1 2630   0.754   0.996   6.321
  648SOL    HW2 2631   0.612   1.069   6.289
  649SOL     OW 2632   0.686   1.161   7.389
  649SOL    HW1 2633   0.746   1.240   7.403
  649SOL    HW2 2634   0.600   1.192   7.348
  650SOL     OW 2635   0.335   1.435   6.647
  650SOL    HW1 2636   0.257   1.404   6.594
  650SOL    HW2 2637   0.393   1.493   6.590
  651SOL     OW 2638   1.460   1.505   6.925
  651SOL    HW1 2639   1.484   1.599   6.951
  651SOL    HW2 2640   1.444   1.451   7.007
  652SOL     OW 2641   0.438   0.392   7.085
  652SOL    HW1 2642   0.520   0.336   7.094
  652SOL    HW2 2643   0.357   0.334   7.089
  653SOL     OW 2644   1.603   0.447   6.323
  653SOL    HW1 2645   1.529   0.493   6.273
  653SOL    HW2 2646   1.654   0.515   6.376
  654SOL     OW 2647   0.231   1.713   6.069
  654SOL    HW1 2648   0.265   1.790   6.123
  654SOL    HW2 2649   0.275   1.713   5.979
  655SOL     OW 2650   1.127   1.341   7.276
  655SOL    HW1 2651   1.174   1.341   7.364
  655SOL    HW2 2652   1.079   1.254   7.265
  656SOL     OW 2653   0.230   1.434   6.124
  656SOL    HW1 2654   0.204   1.530   6.124
  656SOL    HW2 2655   0.159   1.380   6.169
  657SOL     OW 2656   0.240   1.091   6.472
  657SOL    HW1 2657   0.254   1.007   6.524
  657SOL    HW2 2658   0.185   1.155   6.527
  658SOL     OW 2659   0.620   1.786   7.025
  658SOL    HW1 2660   0.528   1.769   7.060
  658SOL    HW2 2661   0.648   1.878   7.051
  659SOL     OW 2662   0.606   0.964   5.709
  659SOL    HW1 2663   0.613   1.048   5.655
  659SOL    HW2 2664   0.652   0.977   5.797
  660SOL     OW 2665   1.594   0.114   7.066
  660SOL    HW1 2666   1.576   0.181   6.994
  660SOL    HW2 2667   1.591   0.160   7.155
  661SOL     OW 2668   0.122   0.643   6.149
  661SOL    HW1 2669   0.077   0.555   6.166
  661SOL    HW2 2670   0.121   0.697   6.233
  662SOL     OW 2671   1.842   1.767   5.945
  662SOL    HW1 2672   1.896   1.738   6.025
  662SOL    HW2 2673   1.872   1.857   5.916
  663SOL     OW 2674   0.027   1.596   5.703
  663SOL    HW1 2675   0.008   1.500   5.724
  663SOL    HW2 2676  -0.006   1.654   5.778
  664SOL     OW 2677   1.689   0.922   6.198
  664SOL    HW1 2678   1.784   0.893   6.206
  664SOL    HW2 2679   1.681   0.987   6.123
  665SOL     OW 2680   1.641   1.108   6.018
  665SOL    HW1 2681   1.727   1.110   5.966
  665SOL    HW2 2682   1.655   1.155   6.106
  666SOL     OW 2683   0.113   0.737   7.183
  666SOL    HW1 2684   0.201   0.724   7.228
  666SOL    HW2 2685   0.100   0.834   7.161
  667SOL     OW 2686   0.613   1.365   6.312
  667SOL    HW1 2687   0.564   1.278   6.321
  667SOL    HW2 2688   0.590   1.408   6.225
  668SOL     OW 2689   1.293   1.228   7.009
  668SOL    HW1 2690   1.330   1.155   6.951
  668SOL    HW2 2691   1.345   1.233   7.094
  669SOL     OW 2692   0.809   0.004   6.088
  669SOL    HW1 2693   0.849   0.095   6.079
  669SOL    HW2 2694   0.709   0.012   6.094
  670SOL     OW 2695   0.197   0.976   6.850
  670SOL    HW1 2696   0.286   0.931   6.836
  670SOL    HW2 2697   0.124   0.911   6.831
  671SOL     OW 2698   1.525   0.999   5.776
  671SOL    HW1 2699   1.462   0.923   5.789
  671SOL    HW2 2700   1.573   1.017   5.862
  672SOL     OW 2701   1.187   1.792   7.202
  672SOL    HW1 2702   1.211   1.852   7.126
  672SOL    HW2 2703   1.194   1.697   7.172
  673SOL     OW 2704   0.317   0.251   7.387
  673SOL    HW1 2705   0.388   0.322   7.393
  673SOL    HW2 2706   0.229   0.290   7.415
  674SOL     OW 2707   1.466   1.417   6.539
  674SOL    HW1 2708   1.407   1.423   6.619
  674SOL    HW2 2709   1.451   1.329   6.493
  675SOL     OW 2710   1.667   1.714   6.158
  675SOL    HW1 2711   1.626   1.691   6.070
  675SOL    HW2 2712   1.649   1.640   6.223
  676SOL     OW 2713   0.598   0.729   5.856
  676SOL    HW1 2714   0.622   0.798   5.788
  676SOL    HW2 2715   0.520   0.762   5.910
  677SOL     OW 2716   1.281   0.345   6.530
  677SOL    HW1 2717   1.195   0.295   6.517
  677SOL    HW2 2718   1.343   0.291   6.586
  678SOL     OW 2719   1.576   1.662   5.893
  678SOL    HW1 2720   1.665   1.708   5.896
  678SOL    HW2 2721   1.555   1.638   5.798
  679SOL     OW 2722   0.807   0.605   7.051
  679SOL    HW1 2723   0.760   0.602   7.140
  679SOL    HW2 2724   0.756   0.550   6.985
  680SOL     OW 2725   1.394   0.469   7.260
  680SOL    HW1 2726   1.374   0.512   7.348
  680SOL    HW2 2727   1.472   0.407   7.269
  681SOL     OW 2728   0.973   0.890   7.158
  681SOL    HW1 2729   1.019   0.806   7.129
  681SOL    HW2 2730   0.917   0.924   7.083
  682SOL     OW 2731   0.991   0.410   6.828
  682SOL    HW1 2732   0.914   0.444   6.882
  682SOL    HW2 2733   0.957   0.359   6.749
  683SOL     OW 2734   1.041   0.701   6.015
  683SOL    HW1 2735   1.067   0.697   6.111
  683SOL    HW2 2736   0.956   0.650   6.001
  684SOL     OW 2737   0.076   0.811   6.375
  684SOL    HW1 2738   0.175   0.799   6.384
  684SOL    HW2 2739   0.052   0.906   6.396
  685SOL     OW 2740   0.130   1.821   7.157
  685SOL    HW1 2741   0.120   1.806   7.256
  685SOL    HW2 2742   0.044   1.857   7.121
  686SOL     OW 2743   0.865   0.348   5.781
  686SOL    HW1 2744   0.924   0.411   5.732
  686SOL    HW2 2745   0.884   0.254   5.752
  687SOL     OW 2746   1.719   0.585   7.417
  687SOL    HW1 2747   1.693   0.674   7.381
  687SOL    HW2 2748   1.717   0.517   7.344
  688SOL     OW 2749   1.362   1.144   6.131
  688SOL    HW1 2750   1.445   1.115   6.083
  688SOL    HW2 2751   1.313   1.211   6.075
  689SOL     OW 2752   0.550   0.196   6.471
  689SOL    HW1 2753   0.545   0.191   6.571
  689SOL    HW2 2754   0.552   0.292   6.442
  690SOL     OW 2755   1.008   1.456   6.063
  690SOL    HW1 2756   0.962   1.528   6.011
  690SOL    HW2 2757   1.004   1.476   6.161
  691SOL     OW 2758   0.351   1.801   6.439
  691SOL    HW1 2759   0.401   1.715   6.445
  691SOL    HW2 2760   0.416   1.878   6.436
  692SOL     OW 2761   1.795   1.066   6.459
  692SOL    HW1 2762   1.733   1.051   6.383
  692SOL    HW2 2763   1.743   1.077   6.544
  693SOL     OW 2764   1.227   1.550   7.092
  693SOL    HW1 2765   1.233   1.473   7.156
  693SOL    HW2 2766   1.175   1.524   7.012
  694SOL     OW 2767   0.321   0.943   5.828
  694SOL    HW1 2768   0.403   0.982   5.786
  694SOL    HW2 2769   0.294   0.861   5.779
  695SOL     OW 2770   1.458   0.735   6.314
  695SOL    HW1 2771   1.453   0.670   6.389
  695SOL    HW2 2772   1.538   0.794   6.327
  696SOL     OW 2773   0.461   1.266   7.313
  696SOL    HW1 2774   0.411   1.267   7.227
  696SOL    HW2 2775   0.398   1.248   7.389
  697SOL     OW 2776   1.111   1.776   5.823
  697SOL    HW1 2777   1.051   1.714   5.873
  697SOL    HW2 2778   1.142   1.732   5.738
  698SOL     OW 2779   0.202   0.285   7.084
  698SOL    HW1 2780   0.122   0.345   7.071
  698SOL    HW2 2781   0.192   0.236   7.170
  699SOL     OW 2782   1.632   1.377   5.667
  699SOL    HW1 2783   1.600   1.471   5.657
  699SOL    HW2 2784   1.556   1.314   5.655
  700SOL     OW 2785   0.464   1.743   5.909
  700SOL    HW1 2786   0.497   1.782   5.995
  700SOL    HW2 2787   0.540   1.736   5.844
  701SOL     OW 2788   1.400   0.107   6.012
  701SOL    HW1 2789   1.376   0.070   5.922
  701SOL    HW2 2790   1.499   0.123   6.016
  702SOL     OW 2791   0.249   1.785   6.827
  702SOL    HW1 2792   0.306   1.720   6.877
  702SOL    HW2 2793   0.233   1.752   6.734
  703SOL     OW 2794   0.940   1.698   6.490
  703SOL    HW1 2795   1.020   1.641   6.511
  703SOL    HW2 2796   0.891   1.658   6.413
  704SOL     OW 2797   0.382   0.700   6.066
  704SOL    HW1 2798   0.427   0.610   6.063
  704SOL    HW2 2799   0.288   0.689   6.099
  705SOL     OW 2800   1.547   0.222   7.315
  705SOL    HW1 2801   1.542   0.259   7.407
  705SOL    HW2 2802   1.475   0.153   7.303
  706SOL     OW 2803   0.614   0.122   5.703
  706SOL    HW1 2804   0.712   0.100   5.710
  706SOL    HW2 2805   0.583   0.105   5.610
  707SOL     OW 2806   0.781   0.264   7.335
  707SOL    HW1 2807   0.848   0.203   7.378
  707SOL    HW2 2808   0.708   0.283   7.400
  708SOL     OW 2809   0.888   1.514   6.781
  708SOL    HW1 2810   0.865   1.489   6.687
  708SOL    HW2 2811   0.949   1.445   6.820
  709SOL     OW 2812   1.351   0.590   7.019
  709SOL    HW1 2813   1.379   0.547   7.104
  709SOL    HW2 2814   1.376   0.686   7.020
  710SOL     OW 2815   0.803   1.402   6.510
  710SOL    HW1 2816   0.893   1.416   6.468
  710SOL    HW2 2817   0.732   1.404   6.439
  711SOL     OW 2818   0.922   0.503   6.485
  711SOL    HW1 2819   0.897   0.494   6.389
  711SOL    HW2 2820   0.970   0.421   6.516
  712SOL     OW 2821   0.539   0.064   6.098
  712SOL    HW1 2822   0.458   0.065   6.156
  712SOL    HW2 2823   0.542   0.147   6.043
  713SOL     OW 2824   1.434   1.188   5.627
  713SOL    HW1 2825   1.466   1.112   5.684
  713SOL    HW2 2826   1.342   1.215   5.657
  714SOL     OW 2827   0.297   0.035   5.757
  714SOL    HW1 2828   0.346   0.119   5.736
  714SOL    HW2 2829   0.359  -0.030   5.802
  715SOL     OW 2830   0.935   0.236   6.066
  715SOL    HW1 2831   0.887   0.277   5.988
  715SOL    HW2 2832   1.034   0.234   6.047
  716SOL     OW 2833   1.076   0.683   7.050
  716SOL    HW1 2834   0.996   0.622   7.053
  716SOL    HW2 2835   1.157   0.630   7.026
  717SOL     OW 2836   1.227   1.570   6.379
  717SOL    HW1 2837   1.248   1.644   6.314
  717SOL    HW2 2838   1.295   1.570   6.452
  718SOL     OW 2839   0.459   1.152   6.327
  718SOL    HW1 2840   0.388   1.125   6.392
  718SOL    HW2 2841   0.433   1.124   6.234
  719SOL     OW 2842   1.271   1.797   6.177
  719SOL    HW1 2843   1.315   1.861   6.113
  719SOL    HW2 2844   1.221   1.849   6.247
  720SOL     OW 2845   1.032   0.549   5.602
  720SOL    HW1 2846   0.991   0.631   5.563
  720SOL    HW2 2847   1.096   0.575   5.675
  721SOL     OW 2848   0.078   0.556   6.972
  721SOL    HW1 2849   0.170   0.555   6.931
  721SOL    HW2 2850   0.072   0.630   7.039
  722SOL     OW 2851   0.561   0.222   6.733
  722SOL    HW1 2852   0.599   0.138   6.770
  722SOL    HW2 2853   0.473   0.241   6.777
  723SOL     OW 2854   0.866   0.454   6.228
  723SOL    HW1 2855   0.834   0.526   6.166
  723SOL    HW2 2856   0.890   0.373   6.175
  724SOL     OW 2857   1.017   0.039   6.339
  724SOL    HW1 2858   0.945   0.044   6.270
  724SOL    HW2 2859   0.993  -0.030   6.408
  725SOL     OW 2860   1.429   1.173   6.453
  725SOL    HW1 2861   1.374   1.089   6.446
  725SOL    HW2 2862   1.455   1.202   6.361
  726SOL     OW 2863   1.466   0.590   6.578
  726SOL    HW1 2864   1.436   0.495   6.585
  726SOL    HW2 2865   1.539   0.606   6.644
  727SOL     OW 2866   1.857   0.833   5.963
  727SOL    HW1 2867   1.899   0.769   6.027
  727SOL    HW2 2868   1.819   0.782   5.885
  728SOL     OW 2869   0.488   1.385   5.760
  728SOL    HW1 2870   0.401   1.370   5.807
  728SOL    HW2 2871   0.471   1.411   5.665
  729SOL     OW 2872   1.664   1.280   6.243
  729SOL    HW1 2873   1.763   1.288   6.257
  729SOL    HW2 2874   1.619   1.364   6.274
  730SOL     OW 2875   1.390   0.575   5.664
  730SOL    HW1 2876   1.336   0.554   5.745
  730SOL    HW2 2877   1.481   0.534   5.673
  731SOL     OW 2878   0.527   0.256   5.914
  731SOL    HW1 2879   0.554   0.197   5.839
  731SOL    HW2 2880   0.527   0.351   5.883
  732SOL     OW 2881   1.754   1.223   7.174
  732SOL    HW1 2882   1.845   1.184   7.161
  732SOL    HW2 2883   1.762   1.319   7.198
  733SOL     OW 2884   1.064   1.347   6.926
  733SOL    HW1 2885   0.984   1.324   6.981
  733SOL    HW2 2886   1.147   1.321   6.975
  734SOL     OW 2887   1.592   1.629   7.211
  734SOL    HW1 2888   1.619   1.663   7.121
  734SOL    HW2 2889   1.671   1.591   7.257
  735SOL     OW 2890   1.111   1.195   6.686
  735SOL    HW1 2891   1.071   1.239   6.767
  735SOL    HW2 2892   1.070   1.232   6.603
  736SOL     OW 2893   1.638   1.099   6.665
  736SOL    HW1 2894   1.643   1.180   6.724
  736SOL    HW2 2895   1.552   1.101   6.614
  737SOL     OW 2896   0.915   0.089   6.988
  737SOL    HW1 2897   0.940   0.069   6.893
  737SOL    HW2 2898   0.987   0.145   7.030
  738SOL     OW 2899   0.980   1.116   7.305
  738SOL    HW1 2900   0.881   1.122   7.315
  738SOL    HW2 2901   1.003   1.036   7.249
  739SOL     OW 2902   0.705   1.050   5.954
  739SOL    HW1 2903   0.691   1.057   6.053
  739SOL    HW2 2904   0.789   0.999   5.936
  740SOL     OW 2905   0.410   0.813   6.837
  740SOL    HW1 2906   0.496   0.825   6.887
  740SOL    HW2 2907   0.368   0.726   6.864
  741SOL     OW 2908   1.274   0.386   6.848
  741SOL    HW1 2909   1.295   0.460   6.912
  741SOL    HW2 2910   1.185   0.403   6.805
  742SOL     OW 2911   0.064   1.564   6.917
  742SOL    HW1 2912   0.018   1.646   6.883
  742SOL    HW2 2913   0.162   1.583   6.926
  743SOL     OW 2914   0.367   1.100   6.087
  743SOL    HW1 2915   0.360   1.183   6.031
  743SOL    HW2 2916   0.371   1.020   6.027
  744SOL     OW 2917   0.566   0.537   6.451
  744SOL    HW1 2918   0.578   0.603   6.377
  744SOL    HW2 2919   0.612   0.571   6.534
  745SOL     OW 2920   1.252   1.348   5.974
  745SOL    HW1 2921   1.302   1.425   6.014
  745SOL    HW2 2922   1.157   1.350   6.006
  746SOL     OW 2923   1.272   1.445   6.728
  746SOL    HW1 2924   1.319   1.458   6.815
  746SOL    HW2 2925   1.206   1.371   6.737
  747SOL     OW 2926   1.582   0.639   6.058
  747SOL    HW1 2927   1.551   0.700   6.131
  747SOL    HW2 2928   1.632   0.691   5.989
  748SOL     OW 2929   0.354   1.510   6.915
  748SOL    HW1 2930   0.333   1.466   6.828
  748SOL    HW2 2931   0.451   1.536   6.918
  749SOL     OW 2932   0.402   0.751   7.184
  749SOL    HW1 2933   0.470   0.806   7.137
  749SOL    HW2 2934   0.442   0.663   7.211
  750SOL     OW 2935   1.587   0.779   7.256
  750SOL    HW1 2936   1.495   0.817   7.251
  750SOL    HW2 2937   1.647   0.826   7.191
  751SOL     OW 2938   1.013   0.105   7.356
  751SOL    HW1 2939   1.019   0.190   7.304
  751SOL    HW2 2940   1.045   0.029   7.299
  752SOL     OW 2941   0.504   0.050   7.326
  752SOL    HW1 2942   0.462  -0.007   7.256
  752SOL    HW2 2943   0.438   0.119   7.358
  753SOL     OW 2944   0.573   0.870   6.615
  753SOL    HW1 2945   0.617   0.959   6.606
  753SOL    HW2 2946   0.510   0.870   6.692
  754SOL     OW 2947   1.360   0.862   6.631
  754SOL    HW1 2948   1.285   0.862   6.565
  754SOL    HW2 2949   1.397   0.770   6.640
  755SOL     OW 2950   1.209   0.525   5.861
  755SOL    HW1 2951   1.222   0.441   5.915
  755SOL    HW2 2952   1.180   0.599   5.921
  756SOL     OW 2953   0.307   0.213   6.817
  756SOL    HW1 2954   0.284   0.250   6.907
  756SOL    HW2 2955   0.277   0.118   6.811
  757SOL     OW 2956   0.037   1.310   6.868
  757SOL    HW1 2957   0.090   1.261   6.936
  757SOL    HW2 2958   0.059   1.408   6.873
  758SOL     OW 2959   0.732   0.634   6.650
  758SOL    HW1 2960   0.791   0.608   6.574
  758SOL    HW2 2961   0.704   0.730   6.639
  759SOL     OW 2962   1.728   0.935   7.440
  759SOL    HW1 2963   1.682   0.928   7.351
  759SOL    HW2 2964   1.666   0.979   7.506
  760SOL     OW 2965   0.307   0.063   6.204
  760SOL    HW1 2966   0.296   0.157   6.237
  760SOL    HW2 2967   0.302   0.000   6.281
  761SOL     OW 2968   1.622   0.367   5.960
  761SOL    HW1 2969   1.624   0.291   6.024
  761SOL    HW2 2970   1.574   0.444   6.000
  762SOL     OW 2971   1.023   0.766   6.552
  762SOL    HW1 2972   1.038   0.787   6.648
  762SOL    HW2 2973   0.993   0.671   6.543
  763SOL     OW 2974   0.980   1.573   7.286
  763SOL    HW1 2975   0.960   1.617   7.198
  763SOL    HW2 2976   1.019   1.482   7.270
  764SOL     OW 2977   1.859   1.518   7.191
  764SOL    HW1 2978   1.873   1.545   7.096
  764SOL    HW2 2979   1.942   1.540   7.244
  765SOL     OW 2980   0.350   0.898   7.390
  765SOL    HW1 2981   0.426   0.942   7.438
  765SOL    HW2 2982   0.385   0.851   7.308
  766SOL     OW 2983   1.540   0.274   5.711
  766SOL    HW1 2984   1.479   0.199   5.734
  766SOL    HW2 2985   1.562   0.326   5.794
  767SOL     OW 2986   1.303   0.838   5.628
  767SOL    HW1 2987   1.337   0.745   5.643
  767SOL    HW2 2988   1.321   0.865   5.533
  768SOL     OW 2989   1.068   1.333   6.435
  768SOL    HW1 2990   1.075   1.249   6.380
  768SOL    HW2 2991   1.130   1.402   6.399
  769SOL     OW 2992   0.319   0.810   6.535
  769SOL    HW1 2993   0.412   0.846   6.540
  769SOL    HW2 2994   0.313   0.725   6.587
  770SOL     OW 2995   0.339   0.509   6.592
  770SOL    HW1 2996   0.287   0.426   6.575
  770SOL    HW2 2997   0.416   0.514   6.528
  771SOL     OW 2998   1.138   0.380   7.264
  771SOL    HW1 2999   1.093   0.443   7.328
  771SOL    HW2 3000   1.231   0.411   7.247
  772SOL     OW 3001   1.160   0.207   7.063
  772SOL    HW1 3002   1.160   0.271   7.140
  772SOL    HW2 3003   1.188   0.255   6.980
  773SOL     OW 3004   0.008   1.326   5.786
  773SOL    HW1 3005  -0.085   1.347   5.755
  773SOL    HW2 3006   0.018   1.227   5.799
  774SOL     OW 3007   0.088   1.801   6.513
  774SOL    HW1 3008   0.046   1.715   6.486
  774SOL    HW2 3009   0.182   1.804   6.479
  775SOL     OW 3010   0.504   1.568   6.496
  775SOL    HW1 3011   0.570   1.642   6.505
  775SOL    HW2 3012   0.548   1.489   6.454
  776SOL     OW 3013   1.002   0.796   6.824
  776SOL    HW1 3014   1.043   0.764   6.910
  776SOL    HW2 3015   0.906   0.769   6.821
  777SOL     OW 3016   0.040   0.544   6.700
  777SOL    HW1 3017   0.125   0.511   6.659
  777SOL    HW2 3018   0.053   0.559   6.798
  778SOL     OW 3019   0.189   0.520   7.308
  778SOL    HW1 3020   0.248   0.480   7.238
  778SOL    HW2 3021   0.131   0.591   7.267
  779SOL     OW 3022   1.369   0.950   7.246
  779SOL    HW1 3023   1.408   1.039   7.266
  779SOL    HW2 3024   1.379   0.930   7.149
  780SOL     OW 3025   0.815   0.572   5.911
  780SOL    HW1 3026   0.822   0.483   5.865
  780SOL    HW2 3027   0.721   0.606   5.903
  781SOL     OW 3028   1.657   0.604   6.792
  781SOL    HW1 3029   1.619   0.535   6.854
  781SOL    HW2 3030   1.739   0.568   6.748
  782SOL     OW 3031   0.252   1.564   7.330
  782SOL    HW1 3032   0.222   1.621   7.406
  782SOL    HW2 3033   0.245   1.467   7.356
  783SOL     OW 3034   0.671   0.464   6.855
  783SOL    HW1 3035   0.637   0.375   6.825
  783SOL    HW2 3036   0.697   0.518   6.775
  784SOL     OW 3037   0.930   1.678   7.051
  784SOL    HW1 3038   0.906   1.660   6.956
  784SOL    HW2 3039   0.960   1.772   7.061
  785SOL     OW 3040   0.473   0.500   5.777
  785SOL    HW1 3041   0.534   0.580   5.781
  785SOL    HW2 3042   0.378   0.531   5.784
  786SOL     OW 3043   0.159   1.137   7.052
  786SOL    HW1 3044   0.181   1.076   7.128
  786SOL    HW2 3045   0.169   1.088   6.966
  787SOL     OW 3046   1.347   1.059   6.820
  787SOL    HW1 3047   1.371   0.996   6.746
  787SOL    HW2 3048   1.257   1.099   6.802
  788SOL     OW 3049   1.302   0.855   5.895
  788SOL    HW1 3050   1.216   0.824   5.937
  788SOL    HW2 3051   1.298   0.841   5.796
  789SOL     OW 3052   1.759   1.747   6.740
  789SOL    HW1 3053   1.820   1.777   6.667
  789SOL    HW2 3054   1.721   1.658   6.718
  790SOL     OW 3055   1.252   1.731   6.714
  790SOL    HW1 3056   1.336   1.736   6.660
  790SOL    HW2 3057   1.229   1.635   6.732
  791SOL     OW 3058   0.083   1.258   6.608
  791SOL    HW1 3059   0.078   1.257   6.708
  791SOL    HW2 3060   0.000   1.217   6.570
  792SOL     OW 3061   0.688   1.662   7.302
  792SOL    HW1 3062   0.632   1.743   7.311
  792SOL    HW2 3063   0.740   1.666   7.216
  793SOL     OW 3064   1.726   0.135   6.109
  793SOL    HW1 3065   1.799   0.118   6.042
  793SOL    HW2 3066   1.695   0.048   6.147
  794SOL     OW 3067   1.388   1.573   6.063
  794SOL    HW1 3068   1.455   1.585   5.989
  794SOL    HW2 3069   1.348   1.662   6.086
  795SOL     OW 3070   0.130   1.794   7.437
  795SOL    HW1 3071   0.089   1.720   7.490
  795SOL    HW2 3072   0.194   1.845   7.495
  796SOL     OW 3073   1.280   0.927   6.258
  796SOL    HW1 3074   1.340   0.846   6.260
  796SOL    HW2 3075   1.320   0.996   6.198
  797SOL     OW 3076   0.830   1.273   7.008
  797SOL    HW1 3077   0.825   1.306   7.103
  797SOL    HW2 3078   0.744   1.292   6.962
  798SOL     OW 3079   0.672   1.616   5.740
  798SOL    HW1 3080   0.681   1.626   5.641
  798SOL    HW2 3081   0.632   1.527   5.761
  799SOL     OW 3082   1.650   1.720   6.980
  799SOL    HW1 3083   1.703   1.730   6.896
  799SOL    HW2 3084   1.623   1.810   7.014
  800SOL     OW 3085   1.841   0.175   6.549
  800SOL    HW1 3086   1.880   0.090   6.513
  800SOL    HW2 3087   1.743   0.177   6.530
  801SOL     OW 3088   0.263   0.326   6.306
  801SOL    HW1 3089   0.184   0.377   6.272
  801SOL    HW2 3090   0.254   0.311   6.404
  802SOL     OW 3091   1.194   1.612   5.617
  802SOL    HW1 3092   1.200   1.519   5.654
  802SOL    HW2 3093   1.135   1.612   5.537
  803SOL     OW 3094   0.822   1.002   6.958
  803SOL    HW1 3095   0.862   1.001   6.866
  803SOL    HW2 3096   0.832   1.094   6.998
  804SOL     OW 3097   0.916   0.910   5.877
  804SOL    HW1 3098   0.979   0.948   5.809
  804SOL    HW2 3099   0.956   0.827   5.916
  805SOL     OW 3100   1.504   1.607   5.630
  805SOL    HW1 3101   1.412   1.644   5.637
  805SOL    HW2 3102   1.542   1.627   5.540
  806SOL     OW 3103   0.372   1.288   7.076
  806SOL    HW1 3104   0.359   1.381   7.042
  806SOL    HW2 3105   0.288   1.236   7.063
  807SOL     OW 3106   1.614   1.292   6.875
  807SOL    HW1 3107   1.674   1.295   6.955
  807SOL    HW2 3108   1.539   1.356   6.888
  808SOL     OW 3109   1.039   1.098   6.282
  808SOL    HW1 3110   0.969   1.051   6.336
  808SOL    HW2 3111   1.098   1.030   6.239
  809SOL     OW 3112   1.014   0.236   6.557
  809SOL    HW1 3113   1.006   0.200   6.464
  809SOL    HW2 3114   1.012   0.160   6.622
  810SOL     OW 3115   0.590   1.487   6.077
  810SOL    HW1 3116   0.632   1.429   6.007
  810SOL    HW2 3117   0.546   1.566   6.033
  811SOL     OW 3118   1.709   0.385   6.967
  811SOL    HW1 3119   1.782   0.454   6.971
  811SOL    HW2 3120   1.737   0.310   6.908
  812SOL     OW 3121   0.255   1.348   5.876
  812SOL    HW1 3122   0.159   1.349   5.849
  812SOL    HW2 3123   0.267   1.401   5.960
  813SOL     OW 3124   0.105   1.013   7.312
  813SOL    HW1 3125   0.028   0.980   7.366
  813SOL    HW2 3126   0.190   0.983   7.354
  814SOL     OW 3127   0.672   0.203   7.075
  814SOL    HW1 3128   0.762   0.187   7.035
  814SOL    HW2 3129   0.680   0.208   7.174
  815SOL     OW 3130   0.075   0.345   5.619
  815SOL    HW1 3131  -0.017   0.317   5.590
  815SOL    HW2 3132   0.106   0.422   5.563
  816SOL     OW 3133   1.440   0.856   6.984
  816SOL    HW1 3134   1.383   0.908   6.921
  816SOL    HW2 3135   1.536   0.868   6.960
  817SOL     OW 3136   0.072   0.166   5.904
  817SOL    HW1 3137   0.055   0.249   5.850
  817SOL    HW2 3138   0.162   0.129   5.882
  818SOL     OW 3139   1.183   1.335   5.705
  818SOL    HW1 3140   1.084   1.324   5.707
  818SOL    HW2 3141   1.217   1.350   5.798
  819SOL     OW 3142   0.613   0.842   7.017
  819SOL    HW1 3143   0.669   0.923   7.000
  819SOL    HW2 3144   0.672   0.762   7.020
  820SOL     OW 3145   1.493   1.767   6.545
  820SOL    HW1 3146   1.526   1.831   6.476
  820SOL    HW2 3147   1.559   1.761   6.620
  821SOL     OW 3148   0.716   0.565   7.294
  821SOL    HW1 3149   0.735   0.630   7.368
  821SOL    HW2 3150   0.776   0.485   7.303
  822SOL     OW 3151   1.450   1.220   7.219
  822SOL    HW1 3152   1.441   1.210   7.318
  822SOL    HW2 3153   1.546   1.213   7.193
  823SOL     OW 3154   0.390   1.741   7.146
  823SOL    HW1 3155   0.299   1.782   7.144
  823SOL    HW2 3156   0.383   1.647   7.178
  824SOL     OW 3157   1.674   0.883   6.840
  824SOL    HW1 3158   1.647   0.794   6.803
  824SOL    HW2 3159   1.675   0.951   6.767
  825SOL     OW 3160   1.225   0.325   6.035
  825SOL    HW1 3161   1.290   0.251   6.024
  825SOL    HW2 3162   1.245   0.375   6.119
  826SOL     OW 3163   0.594   0.745   6.238
  826SOL    HW1 3164   0.644   0.830   6.219
  826SOL    HW2 3165   0.506   0.747   6.190
  827SOL     OW 3166   1.777   0.342   7.228
  827SOL    HW1 3167   1.760   0.373   7.134
  827SOL    HW2 3168   1.693   0.305   7.266
  828SOL     OW 3169   1.730   0.934   7.103
  828SOL    HW1 3170   1.768   1.025   7.118
  828SOL    HW2 3171   1.722   0.917   7.004
  829SOL     OW 3172   0.859   1.374   5.602
  829SOL    HW1 3173   0.813   1.389   5.690
  829SOL    HW2 3174   0.903   1.459   5.572
  830SOL     OW 3175   0.661   1.790   6.539
  830SOL    HW1 3176   0.615   1.878   6.526
  830SOL    HW2 3177   0.760   1.802   6.532
  831SOL     OW 3178   0.859   0.956   6.447
  831SOL    HW1 3179   0.913   0.887   6.495
  831SOL    HW2 3180   0.827   1.025   6.513
  832SOL     OW 3181   1.083   0.984   5.673
  832SOL    HW1 3182   1.060   1.037   5.591
  832SOL    HW2 3183   1.164   0.928   5.654
  833SOL     OW 3184   1.861   1.569   6.437
  833SOL    HW1 3185   1.790   1.557   6.367
  833SOL    HW2 3186   1.862   1.490   6.497
  834SOL     OW 3187   0.221   1.314   7.430
  834SOL    HW1 3188   0.156   1.241   7.409
  834SOL    HW2 3189   0.225   1.328   7.528
  835SOL     OW 3190   0.079   1.240   6.239
  835SOL    HW1 3191   0.078   1.193   6.327
  835SOL    HW2 3192   0.161   1.212   6.188
  836SOL     OW 3193   0.672   1.391   7.210
  836SOL    HW1 3194   0.594   1.341   7.248
  836SOL    HW2 3195   0.669   1.486   7.241
  837SOL     OW 3196   1.824   0.192   6.813
  837SOL    HW1 3197   1.820   0.102   6.857
  837SOL    HW2 3198   1.827   0.181   6.714
  838SOL     OW 3199   0.428   0.424   6.106
  838SOL    HW1 3200   0.458   0.352   6.044
  838SOL    HW2 3201   0.389   0.384   6.189
  839SOL     OW 3202   1.705   1.487   6.690
  839SOL    HW1 3203   1.612   1.462   6.663
  839SOL    HW2 3204   1.731   1.437   6.772
  840SOL     OW 3205   0.317   0.547   6.866
  840SOL    HW1 3206   0.355   0.488   6.938
  840SOL    HW2 3207   0.357   0.521   6.778
  841SOL     OW 3208   0.812   1.586   6.273
  841SOL    HW1 3209   0.844   1.596   6.179
  841SOL    HW2 3210   0.733   1.524   6.275
  842SOL     OW 3211   1.424   0.214   6.698
  842SOL    HW1 3212   1.476   0.149   6.753
  842SOL    HW2 3213   1.375   0.277   6.759
  843SOL     OW 3214   1.001   0.034   6.740
  843SOL    HW1 3215   0.938  -0.038   6.709
  843SOL    HW2 3216   1.094  -0.002   6.740
  844SOL     OW 3217   0.770   1.330   5.887
  844SOL    HW1 3218   0.724   1.243   5.904
  844SOL    HW2 3219   0.861   1.327   5.928
  845SOL     OW 3220   0.618   1.567   6.870
  845SOL    HW1 3221   0.613   1.649   6.927
  845SOL    HW2 3222   0.707   1.564   6.825
  846SOL     OW 3223   1.352   0.052   5.754
  846SOL    HW1 3224   1.387   0.011   5.670
  846SOL    HW2 3225   1.262   0.014   5.774
  847SOL     OW 3226   1.300   0.453   6.277
  847SOL    HW1 3227   1.241   0.533   6.281
  847SOL    HW2 3228   1.315   0.418   6.370
  848SOL     OW 3229   1.593   0.221   6.468
  848SOL    HW1 3230   1.509   0.220   6.522
  848SOL    HW2 3231   1.595   0.304   6.412
  849SOL     OW 3232   0.039   1.077   5.886
  849SOL    HW1 3233   0.138   1.066   5.877
  849SOL    HW2 3234  -0.001   0.991   5.918
  850SOL     OW 3235   0.875   1.646   5.923
  850SOL    HW1 3236   0.798   1.611   5.869
  850SOL    HW2 3237   0.843   1.717   5.985
  851SOL     OW 3238   0.230   0.628   7.561
  851SOL    HW1 3239   0.137   0.626   7.598
  851SOL    HW2 3240   0.231   0.589   7.469
  852SOL     OW 3241   1.755   0.607   7.679
  852SOL    HW1 3242   1.743   0.594   7.580
  852SOL    HW2 3243   1.725   0.526   7.728
  853SOL     OW 3244   0.231   1.713   7.931
  853SOL    HW1 3245   0.265   1.790   7.985
  853SOL    HW2 3246   0.275   1.713   7.841
  854SOL     OW 3247   0.230   1.434   7.986
  854SOL    HW1 3248   0.204   1.530   7.986
  854SOL    HW2 3249   0.159   1.380   8.031
  855SOL     OW 3250   0.606   0.964   7.571
  855SOL    HW1 3251   0.613   1.048   7.517
  855SOL    HW2 3252   0.652   0.977   7.659
  856SOL     OW 3253   1.842   1.767   7.807
  856SOL    HW1 3254   1.896   1.738   7.887
  856SOL    HW2 3255   1.872   1.857   7.778
  857SOL     OW 3256   0.027   1.596   7.565
  857SOL    HW1 3257   0.008   1.500   7.586
  857SOL    HW2 3258  -0.006   1.654   7.640
  858SOL     OW 3259   1.689   0.922   8.060
  858SOL    HW1 3260   1.784   0.893   8.068
  858SOL    HW2 3261   1.681   0.987   7.985
  859SOL     OW 3262   1.641   1.108   7.880
  859SOL    HW1 3263   1.727   1.110   7.828
  859SOL    HW2 3264   1.655   1.155   7.968
  860SOL     OW 3265   0.809   0.004   7.950
  860SOL    HW1 3266   0.849   0.095   7.941
  860SOL    HW2 3267   0.709   0.012   7.956
  861SOL     OW 3268   1.525   0.999   7.638
  861SOL    HW1 3269   1.462   0.923   7.651
  861SOL    HW2 3270   1.573   1.017   7.724
  862SOL     OW 3271   0.598   0.729   7.718
  862SOL    HW1 3272   0.622   0.798   7.650
  862SOL    HW2 3273   0.520   0.762   7.772
  863SOL     OW 3274   1.576   1.662   7.755
  863SOL    HW1 3275   1.665   1.708   7.758
  863SOL    HW2 3276   1.555   1.638   7.660
  864SOL     OW 3277   0.076   0.811   8.237
  864SOL    HW1 3278   0.175   0.799   8.246
  864SOL    HW2 3279   0.052   0.906   8.258
  865SOL     OW 3280   0.865   0.348   7.643
  865SOL    HW1 3281   0.924   0.411   7.594
  865SOL    HW2 3282   0.884   0.254   7.614
  866SOL     OW 3283   0.321   0.943   7.690
  866SOL    HW1 3284   0.403   0.982   7.648
  866SOL    HW2 3285   0.294   0.861   7.641
  867SOL     OW 3286   1.111   1.776   7.685
  867SOL    HW1 3287   1.051   1.714   7.735
  867SOL    HW2 3288   1.142   1.732   7.600
  868SOL     OW 3289   1.632   1.377   7.529
  868SOL    HW1 3290   1.600   1.471   7.519
  868SOL    HW2 3291   1.556   1.314   7.517
  869SOL     OW 3292   0.464   1.743   7.771
  869SOL    HW1 3293   0.497   1.782   7.857
  869SOL    HW2 3294   0.540   1.736   7.706
  870SOL     OW 3295   1.400   0.107   7.874
  870SOL    HW1 3296   1.376   0.070   7.784
  870SOL    HW2 3297   1.499   0.123   7.878
  871SOL     OW 3298   0.382   0.700   7.928
  871SOL    HW1 3299   0.427   0.610   7.925
  871SOL    HW2 3300   0.288   0.689   7.961
  872SOL     OW 3301   0.614   0.122   7.565
  872SOL    HW1 3302   0.712   0.100   7.572
  872SOL    HW2 3303   0.583   0.105   7.472
  873SOL     OW 3304   0.539   0.064   7.960
  873SOL    HW1 3305   0.458   0.065   8.018
  873SOL    HW2 3306   0.542   0.147   7.905
  874SOL     OW 3307   1.434   1.188   7.489
  874SOL    HW1 3308   1.466   1.112   7.546
  874SOL    HW2 3309   1.342   1.215   7.519
  875SOL     OW 3310   0.297   0.035   7.619
  875SOL    HW1 3311   0.346   0.119   7.598
  875SOL    HW2 3312   0.359  -0.030   7.664
  876SOL     OW 3313   0.935   0.236   7.928
  876SOL    HW1 3314   0.887   0.277   7.850
  876SOL    HW2 3315   1.034   0.234   7.909
  877SOL     OW 3316   0.459   1.152   8.189
  877SOL    HW1 3317   0.388   1.125   8.254
  877SOL    HW2 3318   0.433   1.124   8.096
  878SOL     OW 3319   1.271   1.797   8.039
  878SOL    HW1 3320   1.315   1.861   7.975
  878SOL    HW2 3321   1.221   1.849   8.109
  879SOL     OW 3322   1.032   0.549   7.464
  879SOL    HW1 3323   0.991   0.631   7.425
  879SOL    HW2 3324   1.096   0.575   7.537
  880SOL     OW 3325   1.857   0.833   7.825
  880SOL    HW1 3326   1.899   0.769   7.889
  880SOL    HW2 3327   1.819   0.782   7.747
  881SOL     OW 3328   0.488   1.385   7.622
  881SOL    HW1 3329   0.401   1.370   7.669
  881SOL    HW2 3330   0.471   1.411   7.527
  882SOL     OW 3331   1.390   0.575   7.526
  882SOL    HW1 3332   1.336   0.554   7.607
  882SOL    HW2 3333   1.481   0.534   7.535
  883SOL     OW 3334   0.527   0.256   7.776
  883SOL    HW1 3335   0.554   0.197   7.701
  883SOL    HW2 3336   0.527   0.351   7.745
  884SOL     OW 3337   0.705   1.050   7.816
  884SOL    HW1 3338   0.691   1.057   7.915
  884SOL    HW2 3339   0.789   0.999   7.798
  885SOL     OW 3340   0.367   1.100   7.949
  885SOL    HW1 3341   0.360   1.183   7.893
  885SOL    HW2 3342   0.371   1.020   7.889
  886SOL     OW 3343   1.252   1.348   7.836
  886SOL    HW1 3344   1.302   1.425   7.876
  886SOL    HW2 3345   1.157   1.350   7.868
  887SOL     OW 3346   1.582   0.639   7.920
  887SOL    HW1 3347   1.551   0.700   7.993
  887SOL    HW2 3348   1.632   0.691   7.851
  888SOL     OW 3349   1.209   0.525   7.723
  888SOL    HW1 3350   1.222   0.441   7.777
  888SOL    HW2 3351   1.180   0.599   7.783
  889SOL     OW 3352   1.622   0.367   7.822
  889SOL    HW1 3353   1.624   0.291   7.886
  889SOL    HW2 3354   1.574   0.444   7.862
  890SOL     OW 3355   1.540   0.274   7.573
  890SOL    HW1 3356   1.479   0.199   7.596
  890SOL    HW2 3357   1.562   0.326   7.656
  891SOL     OW 3358   1.303   0.838   7.490
  891SOL    HW1 3359   1.337   0.745   7.505
  891SOL    HW2 3360   1.321   0.865   7.395
  892SOL     OW 3361   0.008   1.326   7.648
  892SOL    HW1 3362  -0.085   1.347   7.617
  892SOL    HW2 3363   0.018   1.227   7.661
  893SOL     OW 3364   0.815   0.572   7.773
  893SOL    HW1 3365   0.822   0.483   7.727
  893SOL    HW2 3366   0.721   0.606   7.765
  894SOL     OW 3367   0.473   0.500   7.639
  894SOL    HW1 3368   0.534   0.580   7.643
  894SOL    HW2 3369   0.378   0.531   7.646
  895SOL     OW 3370   1.302   0.855   7.757
  895SOL    HW1 3371   1.216   0.824   7.799
  895SOL    HW2 3372   1.298   0.841   7.658
  896SOL     OW 3373   1.726   0.135   7.971
  896SOL    HW1 3374   1.799   0.118   7.904
  896SOL    HW2 3375   1.695   0.048   8.009
  897SOL     OW 3376   1.388   1.573   7.925
  897SOL    HW1 3377   1.455   1.585   7.851
  897SOL    HW2 3378   1.348   1.662   7.948
  898SOL     OW 3379   0.672   1.616   7.602
  898SOL    HW1 3380   0.681   1.626   7.503
  898SOL    HW2 3381   0.632   1.527   7.623
  899SOL     OW 3382   1.194   1.612   7.479
  899SOL    HW1 3383   1.200   1.519   7.516
  899SOL    HW2 3384   1.135   1.612   7.399
  900SOL     OW 3385   0.916   0.910   7.739
  900SOL    HW1 3386   0.979   0.948   7.671
  900SOL    HW2 3387   0.956   0.827   7.778
  901SOL     OW 3388   1.504   1.607   7.492
  901SOL    HW1 3389   1.412   1.644   7.499
  901SOL    HW2 3390   1.542   1.627   7.402
  902SOL     OW 3391   0.590   1.487   7.939
  902SOL    HW1 3392   0.632   1.429   7.869
  902SOL    HW2 3393   0.546   1.566   7.895
  903SOL     OW 3394   0.255   1.348   7.738
  903SOL    HW1 3395   0.159   1.349   7.711
  903SOL    HW2 3396   0.267   1.401   7.822
  904SOL     OW 3397   0.075   0.345   7.481
  904SOL    HW1 3398  -0.017   0.317   7.452
  904SOL    HW2 3399   0.106   0.422   7.425
  905SOL     OW 3400   0.072   0.166   7.766
  905SOL    HW1 3401   0.055   0.249   7.712
  905SOL    HW2 3402   0.162   0.129   7.744
  906SOL     OW 3403   1.183   1.335   7.567
  906SOL    HW1 3404   1.084   1.324   7.569
  906SOL    HW2 3405   1.217   1.350   7.660
  907SOL     OW 3406   1.225   0.325   7.897
  907SOL    HW1 3407   1.290   0.251   7.886
  907SOL    HW2 3408   1.245   0.375   7.981
  908SOL     OW 3409   0.594   0.745   8.100
  908SOL    HW1 3410   0.644   0.830   8.081
  908SOL    HW2 3411   0.506   0.747   8.052
  909SOL     OW 3412   0.859   1.374   7.464
  909SOL    HW1 3413   0.813   1.389   7.552
  909SOL    HW2 3414   0.903   1.459   7.434
  910SOL     OW 3415   1.083   0.984   7.535
  910SOL    HW1 3416   1.060   1.037   7.453
  910SOL    HW2 3417   1.164   0.928   7.516
  911SOL     OW 3418   0.428   0.424   7.968
  911SOL    HW1 3419   0.458   0.352   7.906
  911SOL    HW2 3420   0.389   0.384   8.051
  912SOL     OW 3421   0.770   1.330   7.749
  912SOL    HW1 3422   0.724   1.243   7.766
  912SOL    HW2 3423   0.861   1.327   7.790
  913SOL     OW 3424   1.352   0.052   7.616
  913SOL    HW1 3425   1.387   0.011   7.532
  913SOL    HW2 3426   1.262   0.014   7.636
  914SOL     OW 3427   0.039   1.077   7.748
  914SOL    HW1 3428   0.138   1.066   7.739
  914SOL    HW2 3429  -0.001   0.991   7.780
  915SOL     OW 3430   0.875   1.646   7.785
  915SOL    HW1 3431   0.798   1.611   7.731
  915SOL    HW2 3432   0.843   1.717   7.847
  916SOL     OW 3433   0.230   2.490   0.113
  916SOL    HW1 3434   0.137   2.488   0.150
  916SOL    HW2 3435   0.231   2.451   0.021
  917SOL     OW 3436   0.225   2.137   0.996
  917SOL    HW1 3437   0.260   2.120   1.088
  917SOL    HW2 3438   0.137   2.092   0.984
  918SOL     OW 3439   0.019   2.230   0.647
  918SOL    HW1 3440  -0.063   2.273   0.686
  918SOL    HW2 3441  -0.009   2.157   0.584
  919SOL     OW 3442   0.569   3.137   1.165
  919SOL    HW1 3443   0.476   3.130   1.128
  919SOL    HW2 3444   0.580   3.226   1.209
  920SOL     OW 3445   1.555   3.373   0.703
  920SOL    HW1 3446   1.498   3.357   0.784
  920SOL    HW2 3447   1.496   3.383   0.623
  921SOL     OW 3448   1.135   2.565   0.717
  921SOL    HW1 3449   1.192   2.643   0.692
  921SOL    HW2 3450   1.075   2.591   0.793
  922SOL     OW 3451   1.755   2.469   0.231
  922SOL    HW1 3452   1.743   2.456   0.132
  922SOL    HW2 3453   1.725   2.388   0.280
  923SOL     OW 3454   0.768   3.006   1.023
  923SOL    HW1 3455   0.690   3.023   1.083
  923SOL    HW2 3456   0.802   3.093   0.987
  924SOL     OW 3457   0.850   2.660   1.823
  924SOL    HW1 3458   0.846   2.736   1.888
  924SOL    HW2 3459   0.872   2.696   1.732
  925SOL     OW 3460   0.685   2.874   0.665
  925SOL    HW1 3461   0.754   2.858   0.735
  925SOL    HW2 3462   0.612   2.931   0.703
  926SOL     OW 3463   0.686   3.023   1.803
  926SOL    HW1 3464   0.746   3.102   1.817
  926SOL    HW2 3465   0.600   3.054   1.762
  927SOL     OW 3466   0.335   3.297   1.061
  927SOL    HW1 3467   0.257   3.266   1.008
  927SOL    HW2 3468   0.393   3.355   1.004
  928SOL     OW 3469   1.460   3.367   1.339
  928SOL    HW1 3470   1.484   3.461   1.365
  928SOL    HW2 3471   1.444   3.313   1.421
  929SOL     OW 3472   0.438   2.254   1.499
  929SOL    HW1 3473   0.520   2.198   1.508
  929SOL    HW2 3474   0.357   2.196   1.503
  930SOL     OW 3475   1.603   2.309   0.737
  930SOL    HW1 3476   1.529   2.355   0.687
  930SOL    HW2 3477   1.654   2.377   0.790
  931SOL     OW 3478   0.231   3.575   0.483
  931SOL    HW1 3479   0.265   3.652   0.537
  931SOL    HW2 3480   0.275   3.575   0.393
  932SOL     OW 3481   1.127   3.203   1.690
  932SOL    HW1 3482   1.174   3.203   1.778
  932SOL    HW2 3483   1.079   3.116   1.679
  933SOL     OW 3484   0.230   3.296   0.538
  933SOL    HW1 3485   0.204   3.392   0.538
  933SOL    HW2 3486   0.159   3.242   0.583
  934SOL     OW 3487   0.240   2.953   0.886
  934SOL    HW1 3488   0.254   2.869   0.938
  934SOL    HW2 3489   0.185   3.017   0.941
  935SOL     OW 3490   0.620   3.648   1.439
  935SOL    HW1 3491   0.528   3.631   1.474
  935SOL    HW2 3492   0.648   3.740   1.465
  936SOL     OW 3493   0.606   2.826   0.123
  936SOL    HW1 3494   0.613   2.910   0.069
  936SOL    HW2 3495   0.652   2.839   0.211
  937SOL     OW 3496   1.594   1.976   1.480
  937SOL    HW1 3497   1.576   2.043   1.408
  937SOL    HW2 3498   1.591   2.022   1.569
  938SOL     OW 3499   0.122   2.505   0.563
  938SOL    HW1 3500   0.077   2.417   0.580
  938SOL    HW2 3501   0.121   2.559   0.647
  939SOL     OW 3502   1.842   3.629   0.359
  939SOL    HW1 3503   1.896   3.600   0.439
  939SOL    HW2 3504   1.872   3.719   0.330
  940SOL     OW 3505   0.027   3.458   0.117
  940SOL    HW1 3506   0.008   3.362   0.138
  940SOL    HW2 3507  -0.006   3.516   0.192
  941SOL     OW 3508   1.689   2.784   0.612
  941SOL    HW1 3509   1.784   2.755   0.620
  941SOL    HW2 3510   1.681   2.849   0.537
  942SOL     OW 3511   1.641   2.970   0.432
  942SOL    HW1 3512   1.727   2.972   0.380
  942SOL    HW2 3513   1.655   3.017   0.520
  943SOL     OW 3514   0.113   2.599   1.597
  943SOL    HW1 3515   0.201   2.586   1.642
  943SOL    HW2 3516   0.100   2.696   1.575
  944SOL     OW 3517   0.613   3.227   0.726
  944SOL    HW1 3518   0.564   3.140   0.735
  944SOL    HW2 3519   0.590   3.270   0.639
  945SOL     OW 3520   1.293   3.090   1.423
  945SOL    HW1 3521   1.330   3.017   1.365
  945SOL    HW2 3522   1.345   3.095   1.508
  946SOL     OW 3523   0.809   1.866   0.502
  946SOL    HW1 3524   0.849   1.957   0.493
  946SOL    HW2 3525   0.709   1.874   0.508
  947SOL     OW 3526   0.197   2.838   1.264
  947SOL    HW1 3527   0.286   2.793   1.250
  947SOL    HW2 3528   0.124   2.773   1.245
  948SOL     OW 3529   1.525   2.861   0.190
  948SOL    HW1 3530   1.462   2.785   0.203
  948SOL    HW2 3531   1.573   2.879   0.276
  949SOL     OW 3532   1.187   3.654   1.616
  949SOL    HW1 3533   1.211   3.714   1.540
  949SOL    HW2 3534   1.194   3.559   1.586
  950SOL     OW 3535   0.317   2.113   1.801
  950SOL    HW1 3536   0.388   2.184   1.807
  950SOL    HW2 3537   0.229   2.152   1.829
  951SOL     OW 3538   1.466   3.279   0.953
  951SOL    HW1 3539   1.407   3.285   1.033
  951SOL    HW2 3540   1.451   3.191   0.907
  952SOL     OW 3541   1.667   3.576   0.572
  952SOL    HW1 3542   1.626   3.553   0.484
  952SOL    HW2 3543   1.649   3.502   0.637
  953SOL     OW 3544   0.598   2.591   0.270
  953SOL    HW1 3545   0.622   2.660   0.202
  953SOL    HW2 3546   0.520   2.624   0.324
  954SOL     OW 3547   1.281   2.207   0.944
  954SOL    HW1 3548   1.195   2.157   0.931
  954SOL    HW2 3549   1.343   2.153   1.000
  955SOL     OW 3550   1.576   3.524   0.307
  955SOL    HW1 3551   1.665   3.570   0.310
  955SOL    HW2 3552   1.555   3.500   0.212
  956SOL     OW 3553   0.807   2.467   1.465
  956SOL    HW1 3554   0.760   2.464   1.554
  956SOL    HW2 3555   0.756   2.412   1.399
  957SOL     OW 3556   1.394   2.331   1.674
  957SOL    HW1 3557   1.374   2.374   1.762
  957SOL    HW2 3558   1.472   2.269   1.683
  958SOL     OW 3559   0.973   2.752   1.572
  958SOL    HW1 3560   1.019   2.668   1.543
  958SOL    HW2 3561   0.917   2.786   1.497
  959SOL     OW 3562   0.991   2.272   1.242
  959SOL    HW1 3563   0.914   2.306   1.296
  959SOL    HW2 3564   0.957   2.221   1.163
  960SOL     OW 3565   1.041   2.563   0.429
  960SOL    HW1 3566   1.067   2.559   0.525
  960SOL    HW2 3567   0.956   2.512   0.415
  961SOL     OW 3568   0.076   2.673   0.789
  961SOL    HW1 3569   0.175   2.661   0.798
  961SOL    HW2 3570   0.052   2.768   0.810
  962SOL     OW 3571   0.130   3.683   1.571
  962SOL    HW1 3572   0.120   3.668   1.670
  962SOL    HW2 3573   0.044   3.719   1.535
  963SOL     OW 3574   0.865   2.210   0.195
  963SOL    HW1 3575   0.924   2.273   0.146
  963SOL    HW2 3576   0.884   2.116   0.166
  964SOL     OW 3577   1.719   2.447   1.831
  964SOL    HW1 3578   1.693   2.536   1.795
  964SOL    HW2 3579   1.717   2.379   1.758
  965SOL     OW 3580   1.362   3.006   0.545
  965SOL    HW1 3581   1.445   2.977   0.497
  965SOL    HW2 3582   1.313   3.073   0.489
  966SOL     OW 3583   0.550   2.058   0.885
  966SOL    HW1 3584   0.545   2.053   0.985
  966SOL    HW2 3585   0.552   2.154   0.856
  967SOL     OW 3586   1.008   3.318   0.477
  967SOL    HW1 3587   0.962   3.390   0.425
  967SOL    HW2 3588   1.004   3.338   0.575
  968SOL     OW 3589   0.351   3.663   0.853
  968SOL    HW1 3590   0.401   3.577   0.859
  968SOL    HW2 3591   0.416   3.740   0.850
  969SOL     OW 3592   1.795   2.928   0.873
  969SOL    HW1 3593   1.733   2.913   0.797
  969SOL    HW2 3594   1.743   2.939   0.958
  970SOL     OW 3595   1.227   3.412   1.506
  970SOL    HW1 3596   1.233   3.335   1.570
  970SOL    HW2 3597   1.175   3.386   1.426
  971SOL     OW 3598   0.321   2.805   0.242
  971SOL    HW1 3599   0.403   2.844   0.200
  971SOL    HW2 3600   0.294   2.723   0.193
  972SOL     OW 3601   1.458   2.597   0.728
  972SOL    HW1 3602   1.453   2.532   0.803
  972SOL    HW2 3603   1.538   2.656   0.741
  973SOL     OW 3604   0.461   3.128   1.727
  973SOL    HW1 3605   0.411   3.129   1.641
  973SOL    HW2 3606   0.398   3.110   1.803
  974SOL     OW 3607   1.111   3.638   0.237
  974SOL    HW1 3608   1.051   3.576   0.287
  974SOL    HW2 3609   1.142   3.594   0.152
  975SOL     OW 3610   0.202   2.147   1.498
  975SOL    HW1 3611   0.122   2.207   1.485
  975SOL    HW2 3612   0.192   2.098   1.584
  976SOL     OW 3613   1.632   3.239   0.081
  976SOL    HW1 3614   1.600   3.333   0.071
  976SOL    HW2 3615   1.556   3.176   0.069
  977SOL     OW 3616   0.464   3.605   0.323
  977SOL    HW1 3617   0.497   3.644   0.409
  977SOL    HW2 3618   0.540   3.598   0.258
  978SOL     OW 3619   1.400   1.969   0.426
  978SOL    HW1 3620   1.376   1.932   0.336
  978SOL    HW2 3621   1.499   1.985   0.430
  979SOL     OW 3622   0.249   3.647   1.241
  979SOL    HW1 3623   0.306   3.582   1.291
  979SOL    HW2 3624   0.233   3.614   1.148
  980SOL     OW 3625   0.940   3.560   0.904
  980SOL    HW1 3626   1.020   3.503   0.925
  980SOL    HW2 3627   0.891   3.520   0.827
  981SOL     OW 3628   0.382   2.562   0.480
  981SOL    HW1 3629   0.427   2.472   0.477
  981SOL    HW2 3630   0.288   2.551   0.513
  982SOL     OW 3631   1.547   2.084   1.729
  982SOL    HW1 3632   1.542   2.121   1.821
  982SOL    HW2 3633   1.475   2.015   1.717
  983SOL     OW 3634   0.614   1.984   0.117
  983SOL    HW1 3635   0.712   1.962   0.124
  983SOL    HW2 3636   0.583   1.967   0.024
  984SOL     OW 3637   0.781   2.126   1.749
  984SOL    HW1 3638   0.848   2.065   1.792
  984SOL    HW2 3639   0.708   2.145   1.814
  985SOL     OW 3640   0.888   3.376   1.195
  985SOL    HW1 3641   0.865   3.351   1.101
  985SOL    HW2 3642   0.949   3.307   1.234
  986SOL     OW 3643   1.351   2.452   1.433
  986SOL    HW1 3644   1.379   2.409   1.518
  986SOL    HW2 3645   1.376   2.548   1.434
  987SOL     OW 3646   0.803   3.264   0.924
  987SOL    HW1 3647   0.893   3.278   0.882
  987SOL    HW2 3648   0.732   3.266   0.853
  988SOL     OW 3649   0.922   2.365   0.899
  988SOL    HW1 3650   0.897   2.356   0.803
  988SOL    HW2 3651   0.970   2.283   0.930
  989SOL     OW 3652   0.539   1.926   0.512
  989SOL    HW1 3653   0.458   1.927   0.570
  989SOL    HW2 3654   0.542   2.009   0.457
  990SOL     OW 3655   1.434   3.050   0.041
  990SOL    HW1 3656   1.466   2.974   0.098
  990SOL    HW2 3657   1.342   3.077   0.071
  991SOL     OW 3658   0.297   1.897   0.171
  991SOL    HW1 3659   0.346   1.981   0.150
  991SOL    HW2 3660   0.359   1.832   0.216
  992SOL     OW 3661   0.935   2.098   0.480
  992SOL    HW1 3662   0.887   2.139   0.402
  992SOL    HW2 3663   1.034   2.096   0.461
  993SOL     OW 3664   1.076   2.545   1.464
  993SOL    HW1 3665   0.996   2.484   1.467
  993SOL    HW2 3666   1.157   2.492   1.440
  994SOL     OW 3667   1.227   3.432   0.793
  994SOL    HW1 3668   1.248   3.506   0.728
  994SOL    HW2 3669   1.295   3.432   0.866
  995SOL     OW 3670   0.459   3.014   0.741
  995SOL    HW1 3671   0.388   2.987   0.806
  995SOL    HW2 3672   0.433   2.986   0.648
  996SOL     OW 3673   1.271   3.659   0.591
  996SOL    HW1 3674   1.315   3.723   0.527
  996SOL    HW2 3675   1.221   3.711   0.661
  997SOL     OW 3676   1.032   2.411   0.016
  997SOL    HW1 3677   0.991   2.493  -0.023
  997SOL    HW2 3678   1.096   2.437   0.089
  998SOL     OW 3679   0.078   2.418   1.386
  998SOL    HW1 3680   0.170   2.417   1.345
  998SOL    HW2 3681   0.072   2.492   1.453
  999SOL     OW 3682   0.561   2.084   1.147
  999SOL    HW1 3683   0.599   2.000   1.184
  999SOL    HW2 3684   0.473   2.103   1.191
 1000SOL     OW 3685   0.866   2.316   0.642
 1000SOL    HW1 3686   0.834   2.388   0.580
 1000SOL    HW2 3687   0.890   2.235   0.589
 1001SOL     OW 3688   1.017   1.901   0.753
 1001SOL    HW1 3689   0.945   1.906   0.684
 1001SOL    HW2 3690   0.993   1.832   0.822
 1002SOL     OW 3691   1.429   3.035   0.867
 1002SOL    HW1 3692   1.374   2.951   0.860
 1002SOL    HW2 3693   1.455   3.064   0.775
 1003SOL     OW 3694   1.466   2.452   0.992
 1003SOL    HW1 3695   1.436   2.357   0.999
 1003SOL    HW2 3696   1.539   2.468   1.058
 1004SOL     OW 3697   1.857   2.695   0.377
 1004SOL    HW1 3698   1.899   2.631   0.441
 1004SOL    HW2 3699   1.819   2.644   0.299
 1005SOL     OW 3700   0.488   3.247   0.174
 1005SOL    HW1 3701   0.401   3.232   0.221
 1005SOL    HW2 3702   0.471   3.273   0.079
 1006SOL     OW 3703   1.664   3.142   0.657
 1006SOL    HW1 3704   1.763   3.150   0.671
 1006SOL    HW2 3705   1.619   3.226   0.688
 1007SOL     OW 3706   1.390   2.437   0.078
 1007SOL    HW1 3707   1.336   2.416   0.159
 1007SOL    HW2 3708   1.481   2.396   0.087
 1008SOL     OW 3709   0.527   2.118   0.328
 1008SOL    HW1 3710   0.554   2.059   0.253
 1008SOL    HW2 3711   0.527   2.213   0.297
 1009SOL     OW 3712   1.754   3.085   1.588
 1009SOL    HW1 3713   1.845   3.046   1.575
 1009SOL    HW2 3714   1.762   3.181   1.612
 1010SOL     OW 3715   1.064   3.209   1.340
 1010SOL    HW1 3716   0.984   3.186   1.395
 1010SOL    HW2 3717   1.147   3.183   1.389
 1011SOL     OW 3718   1.592   3.491   1.625
 1011SOL    HW1 3719   1.619   3.525   1.535
 1011SOL    HW2 3720   1.671   3.453   1.671
 1012SOL     OW 3721   1.111   3.057   1.100
 1012SOL    HW1 3722   1.071   3.101   1.181
 1012SOL    HW2 3723   1.070   3.094   1.017
 1013SOL     OW 3724   1.638   2.961   1.079
 1013SOL    HW1 3725   1.643   3.042   1.138
 1013SOL    HW2 3726   1.552   2.963   1.028
 1014SOL     OW 3727   0.915   1.951   1.402
 1014SOL    HW1 3728   0.940   1.931   1.307
 1014SOL    HW2 3729   0.987   2.007   1.444
 1015SOL     OW 3730   0.980   2.978   1.719
 1015SOL    HW1 3731   0.881   2.984   1.729
 1015SOL    HW2 3732   1.003   2.898   1.663
 1016SOL     OW 3733   0.705   2.912   0.368
 1016SOL    HW1 3734   0.691   2.919   0.467
 1016SOL    HW2 3735   0.789   2.861   0.350
 1017SOL     OW 3736   0.410   2.675   1.251
 1017SOL    HW1 3737   0.496   2.687   1.301
 1017SOL    HW2 3738   0.368   2.588   1.278
 1018SOL     OW 3739   1.274   2.248   1.262
 1018SOL    HW1 3740   1.295   2.322   1.326
 1018SOL    HW2 3741   1.185   2.265   1.219
 1019SOL     OW 3742   0.064   3.426   1.331
 1019SOL    HW1 3743   0.018   3.508   1.297
 1019SOL    HW2 3744   0.162   3.445   1.340
 1020SOL     OW 3745   0.367   2.962   0.501
 1020SOL    HW1 3746   0.360   3.045   0.445
 1020SOL    HW2 3747   0.371   2.882   0.441
 1021SOL     OW 3748   0.566   2.399   0.865
 1021SOL    HW1 3749   0.578   2.465   0.791
 1021SOL    HW2 3750   0.612   2.433   0.948
 1022SOL     OW 3751   1.252   3.210   0.388
 1022SOL    HW1 3752   1.302   3.287   0.428
 1022SOL    HW2 3753   1.157   3.212   0.420
 1023SOL     OW 3754   1.272   3.307   1.142
 1023SOL    HW1 3755   1.319   3.320   1.229
 1023SOL    HW2 3756   1.206   3.233   1.151
 1024SOL     OW 3757   1.582   2.501   0.472
 1024SOL    HW1 3758   1.551   2.562   0.545
 1024SOL    HW2 3759   1.632   2.553   0.403
 1025SOL     OW 3760   0.354   3.372   1.329
 1025SOL    HW1 3761   0.333   3.328   1.242
 1025SOL    HW2 3762   0.451   3.398   1.332
 1026SOL     OW 3763   0.402   2.613   1.598
 1026SOL    HW1 3764   0.470   2.668   1.551
 1026SOL    HW2 3765   0.442   2.525   1.625
 1027SOL     OW 3766   1.587   2.641   1.670
 1027SOL    HW1 3767   1.495   2.679   1.665
 1027SOL    HW2 3768   1.647   2.688   1.605
 1028SOL     OW 3769   1.013   1.967   1.770
 1028SOL    HW1 3770   1.019   2.052   1.718
 1028SOL    HW2 3771   1.045   1.891   1.713
 1029SOL     OW 3772   0.504   1.912   1.740
 1029SOL    HW1 3773   0.462   1.855   1.670
 1029SOL    HW2 3774   0.438   1.981   1.772
 1030SOL     OW 3775   0.573   2.732   1.029
 1030SOL    HW1 3776   0.617   2.821   1.020
 1030SOL    HW2 3777   0.510   2.732   1.106
 1031SOL     OW 3778   1.360   2.724   1.045
 1031SOL    HW1 3779   1.285   2.724   0.979
 1031SOL    HW2 3780   1.397   2.632   1.054
 1032SOL     OW 3781   1.209   2.387   0.275
 1032SOL    HW1 3782   1.222   2.303   0.329
 1032SOL    HW2 3783   1.180   2.461   0.335
 1033SOL     OW 3784   0.307   2.075   1.231
 1033SOL    HW1 3785   0.284   2.112   1.321
 1033SOL    HW2 3786   0.277   1.980   1.225
 1034SOL     OW 3787   0.037   3.172   1.282
 1034SOL    HW1 3788   0.090   3.123   1.350
 1034SOL    HW2 3789   0.059   3.270   1.287
 1035SOL     OW 3790   0.732   2.496   1.064
 1035SOL    HW1 3791   0.791   2.470   0.988
 1035SOL    HW2 3792   0.704   2.592   1.053
 1036SOL     OW 3793   1.728   2.797   1.854
 1036SOL    HW1 3794   1.682   2.790   1.765
 1036SOL    HW2 3795   1.666   2.841   1.920
 1037SOL     OW 3796   0.307   1.925   0.618
 1037SOL    HW1 3797   0.296   2.019   0.651
 1037SOL    HW2 3798   0.302   1.862   0.695
 1038SOL     OW 3799   1.622   2.229   0.374
 1038SOL    HW1 3800   1.624   2.153   0.438
 1038SOL    HW2 3801   1.574   2.306   0.414
 1039SOL     OW 3802   1.023   2.628   0.966
 1039SOL    HW1 3803   1.038   2.649   1.062
 1039SOL    HW2 3804   0.993   2.533   0.957
 1040SOL     OW 3805   0.980   3.435   1.700
 1040SOL    HW1 3806   0.960   3.479   1.612
 1040SOL    HW2 3807   1.019   3.344   1.684
 1041SOL     OW 3808   1.859   3.380   1.605
 1041SOL    HW1 3809   1.873   3.407   1.510
 1041SOL    HW2 3810   1.942   3.402   1.658
 1042SOL     OW 3811   0.350   2.760   1.804
 1042SOL    HW1 3812   0.426   2.804   1.852
 1042SOL    HW2 3813   0.385   2.713   1.722
 1043SOL     OW 3814   1.540   2.136   0.125
 1043SOL    HW1 3815   1.479   2.061   0.148
 1043SOL    HW2 3816   1.562   2.188   0.208
 1044SOL     OW 3817   1.303   2.700   0.042
 1044SOL    HW1 3818   1.337   2.607   0.057
 1044SOL    HW2 3819   1.321   2.727  -0.053
 1045SOL     OW 3820   1.068   3.195   0.849
 1045SOL    HW1 3821   1.075   3.111   0.794
 1045SOL    HW2 3822   1.130   3.264   0.813
 1046SOL     OW 3823   0.319   2.672   0.949
 1046SOL    HW1 3824   0.412   2.708   0.954
 1046SOL    HW2 3825   0.313   2.587   1.001
 1047SOL     OW 3826   0.339   2.371   1.006
 1047SOL    HW1 3827   0.287   2.288   0.989
 1047SOL    HW2 3828   0.416   2.376   0.942
 1048SOL     OW 3829   1.138   2.242   1.678
 1048SOL    HW1 3830   1.093   2.305   1.742
 1048SOL    HW2 3831   1.231   2.273   1.661
 1049SOL     OW 3832   1.160   2.069   1.477
 1049SOL    HW1 3833   1.160   2.133   1.554
 1049SOL    HW2 3834   1.188   2.117   1.394
 1050SOL     OW 3835   0.008   3.188   0.200
 1050SOL    HW1 3836  -0.085   3.209   0.169
 1050SOL    HW2 3837   0.018   3.089   0.213
 1051SOL     OW 3838   0.088   3.663   0.927
 1051SOL    HW1 3839   0.046   3.577   0.900
 1051SOL    HW2 3840   0.182   3.666   0.893
 1052SOL     OW 3841   0.504   3.430   0.910
 1052SOL    HW1 3842   0.570   3.504   0.919
 1052SOL    HW2 3843   0.548   3.351   0.868
 1053SOL     OW 3844   1.002   2.658   1.238
 1053SOL    HW1 3845   1.043   2.626   1.324
 1053SOL    HW2 3846   0.906   2.631   1.235
 1054SOL     OW 3847   0.040   2.406   1.114
 1054SOL    HW1 3848   0.125   2.373   1.073
 1054SOL    HW2 3849   0.053   2.421   1.212
 1055SOL     OW 3850   0.189   2.382   1.722
 1055SOL    HW1 3851   0.248   2.342   1.652
 1055SOL    HW2 3852   0.131   2.453   1.681
 1056SOL     OW 3853   1.369   2.812   1.660
 1056SOL    HW1 3854   1.408   2.901   1.680
 1056SOL    HW2 3855   1.379   2.792   1.563
 1057SOL     OW 3856   0.815   2.434   0.325
 1057SOL    HW1 3857   0.822   2.345   0.279
 1057SOL    HW2 3858   0.721   2.468   0.317
 1058SOL     OW 3859   1.657   2.466   1.206
 1058SOL    HW1 3860   1.619   2.397   1.268
 1058SOL    HW2 3861   1.739   2.430   1.162
 1059SOL     OW 3862   0.252   3.426   1.744
 1059SOL    HW1 3863   0.222   3.483   1.820
 1059SOL    HW2 3864   0.245   3.329   1.770
 1060SOL     OW 3865   0.671   2.326   1.269
 1060SOL    HW1 3866   0.637   2.237   1.239
 1060SOL    HW2 3867   0.697   2.380   1.189
 1061SOL     OW 3868   0.930   3.540   1.465
 1061SOL    HW1 3869   0.906   3.522   1.370
 1061SOL    HW2 3870   0.960   3.634   1.475
 1062SOL     OW 3871   0.473   2.362   0.191
 1062SOL    HW1 3872   0.534   2.442   0.195
 1062SOL    HW2 3873   0.378   2.393   0.198
 1063SOL     OW 3874   0.159   2.999   1.466
 1063SOL    HW1 3875   0.181   2.938   1.542
 1063SOL    HW2 3876   0.169   2.950   1.380
 1064SOL     OW 3877   1.347   2.921   1.234
 1064SOL    HW1 3878   1.371   2.858   1.160
 1064SOL    HW2 3879   1.257   2.961   1.216
 1065SOL     OW 3880   1.302   2.717   0.309
 1065SOL    HW1 3881   1.216   2.686   0.351
 1065SOL    HW2 3882   1.298   2.703   0.210
 1066SOL     OW 3883   1.759   3.609   1.154
 1066SOL    HW1 3884   1.820   3.639   1.081
 1066SOL    HW2 3885   1.721   3.520   1.132
 1067SOL     OW 3886   1.252   3.593   1.128
 1067SOL    HW1 3887   1.336   3.598   1.074
 1067SOL    HW2 3888   1.229   3.497   1.146
 1068SOL     OW 3889   0.083   3.120   1.022
 1068SOL    HW1 3890   0.078   3.119   1.122
 1068SOL    HW2 3891   0.000   3.079   0.984
 1069SOL     OW 3892   0.688   3.524   1.716
 1069SOL    HW1 3893   0.632   3.605   1.725
 1069SOL    HW2 3894   0.740   3.528   1.630
 1070SOL     OW 3895   0.903   1.948   0.133
 1070SOL    HW1 3896   0.954   1.949   0.047
 1070SOL    HW2 3897   0.959   1.906   0.204
 1071SOL     OW 3898   1.726   1.997   0.523
 1071SOL    HW1 3899   1.799   1.980   0.456
 1071SOL    HW2 3900   1.695   1.910   0.561
 1072SOL     OW 3901   1.388   3.435   0.477
 1072SOL    HW1 3902   1.455   3.447   0.403
 1072SOL    HW2 3903   1.348   3.524   0.500
 1073SOL     OW 3904   0.130   3.656   1.851
 1073SOL    HW1 3905   0.089   3.582   1.904
 1073SOL    HW2 3906   0.194   3.707   1.909
 1074SOL     OW 3907   1.280   2.789   0.672
 1074SOL    HW1 3908   1.340   2.708   0.674
 1074SOL    HW2 3909   1.320   2.858   0.612
 1075SOL     OW 3910   0.830   3.135   1.422
 1075SOL    HW1 3911   0.825   3.168   1.517
 1075SOL    HW2 3912   0.744   3.154   1.376
 1076SOL     OW 3913   0.672   3.478   0.154
 1076SOL    HW1 3914   0.681   3.488   0.055
 1076SOL    HW2 3915   0.632   3.389   0.175
 1077SOL     OW 3916   1.650   3.582   1.394
 1077SOL    HW1 3917   1.703   3.592   1.310
 1077SOL    HW2 3918   1.623   3.672   1.428
 1078SOL     OW 3919   1.841   2.037   0.963
 1078SOL    HW1 3920   1.880   1.952   0.927
 1078SOL    HW2 3921   1.743   2.039   0.944
 1079SOL     OW 3922   0.263   2.188   0.720
 1079SOL    HW1 3923   0.184   2.239   0.686
 1079SOL    HW2 3924   0.254   2.173   0.818
 1080SOL     OW 3925   1.194   3.474   0.031
 1080SOL    HW1 3926   1.200   3.381   0.068
 1080SOL    HW2 3927   1.135   3.474  -0.049
 1081SOL     OW 3928   0.822   2.864   1.372
 1081SOL    HW1 3929   0.862   2.863   1.280
 1081SOL    HW2 3930   0.832   2.956   1.412
 1082SOL     OW 3931   0.916   2.772   0.291
 1082SOL    HW1 3932   0.979   2.810   0.223
 1082SOL    HW2 3933   0.956   2.689   0.330
 1083SOL     OW 3934   1.504   3.469   0.044
 1083SOL    HW1 3935   1.412   3.506   0.051
 1083SOL    HW2 3936   1.542   3.489  -0.046
 1084SOL     OW 3937   0.372   3.150   1.490
 1084SOL    HW1 3938   0.359   3.243   1.456
 1084SOL    HW2 3939   0.288   3.098   1.477
 1085SOL     OW 3940   1.614   3.154   1.289
 1085SOL    HW1 3941   1.674   3.157   1.369
 1085SOL    HW2 3942   1.539   3.218   1.302
 1086SOL     OW 3943   1.039   2.960   0.696
 1086SOL    HW1 3944   0.969   2.913   0.750
 1086SOL    HW2 3945   1.098   2.892   0.653
 1087SOL     OW 3946   1.014   2.098   0.971
 1087SOL    HW1 3947   1.006   2.062   0.878
 1087SOL    HW2 3948   1.012   2.022   1.036
 1088SOL     OW 3949   0.590   3.349   0.491
 1088SOL    HW1 3950   0.632   3.291   0.421
 1088SOL    HW2 3951   0.546   3.428   0.447
 1089SOL     OW 3952   1.709   2.247   1.381
 1089SOL    HW1 3953   1.782   2.316   1.385
 1089SOL    HW2 3954   1.737   2.172   1.322
 1090SOL     OW 3955   0.255   3.210   0.290
 1090SOL    HW1 3956   0.159   3.211   0.263
 1090SOL    HW2 3957   0.267   3.263   0.374
 1091SOL     OW 3958   0.105   2.875   1.726
 1091SOL    HW1 3959   0.028   2.842   1.780
 1091SOL    HW2 3960   0.190   2.845   1.768
 1092SOL     OW 3961   0.672   2.065   1.489
 1092SOL    HW1 3962   0.762   2.049   1.449
 1092SOL    HW2 3963   0.680   2.070   1.588
 1093SOL     OW 3964   0.075   2.207   0.033
 1093SOL    HW1 3965  -0.017   2.179   0.004
 1093SOL    HW2 3966   0.106   2.284  -0.023
 1094SOL     OW 3967   1.440   2.718   1.398
 1094SOL    HW1 3968   1.383   2.770   1.335
 1094SOL    HW2 3969   1.536   2.730   1.374
 1095SOL     OW 3970   0.072   2.028   0.318
 1095SOL    HW1 3971   0.055   2.111   0.264
 1095SOL    HW2 3972   0.162   1.991   0.296
 1096SOL     OW 3973   1.183   3.197   0.119
 1096SOL    HW1 3974   1.084   3.186   0.121
 1096SOL    HW2 3975   1.217   3.212   0.212
 1097SOL     OW 3976   0.613   2.704   1.431
 1097SOL    HW1 3977   0.669   2.785   1.414
 1097SOL    HW2 3978   0.672   2.624   1.434
 1098SOL     OW 3979   1.493   3.629   0.959
 1098SOL    HW1 3980   1.526   3.693   0.890
 1098SOL    HW2 3981   1.559   3.623   1.034
 1099SOL     OW 3982   0.716   2.427   1.708
 1099SOL    HW1 3983   0.735   2.492   1.782
 1099SOL    HW2 3984   0.776   2.347   1.717
 1100SOL     OW 3985   1.450   3.082   1.633
 1100SOL    HW1 3986   1.441   3.072   1.732
 1100SOL    HW2 3987   1.546   3.075   1.607
 1101SOL     OW 3988   0.390   3.603   1.560
 1101SOL    HW1 3989   0.299   3.644   1.558
 1101SOL    HW2 3990   0.383   3.509   1.592
 1102SOL     OW 3991   1.674   2.745   1.254
 1102SOL    HW1 3992   1.647   2.656   1.217
 1102SOL    HW2 3993   1.675   2.813   1.181
 1103SOL     OW 3994   1.225   2.187   0.449
 1103SOL    HW1 3995   1.290   2.113   0.438
 1103SOL    HW2 3996   1.245   2.237   0.533
 1104SOL     OW 3997   0.594   2.607   0.652
 1104SOL    HW1 3998   0.644   2.692   0.633
 1104SOL    HW2 3999   0.506   2.609   0.604
 1105SOL     OW 4000   1.777   2.204   1.642
 1105SOL    HW1 4001   1.760   2.235   1.548
 1105SOL    HW2 4002   1.693   2.167   1.680
 1106SOL     OW 4003   1.730   2.796   1.517
 1106SOL    HW1 4004   1.768   2.887   1.532
 1106SOL    HW2 4005   1.722   2.779   1.418
 1107SOL     OW 4006   0.859   3.236   0.016
 1107SOL    HW1 4007   0.813   3.251   0.104
 1107SOL    HW2 4008   0.903   3.321  -0.014
 1108SOL     OW 4009   0.661   3.652   0.953
 1108SOL    HW1 4010   0.615   3.740   0.940
 1108SOL    HW2 4011   0.760   3.664   0.946
 1109SOL     OW 4012   0.859   2.818   0.861
 1109SOL    HW1 4013   0.913   2.749   0.909
 1109SOL    HW2 4014   0.827   2.887   0.927
 1110SOL     OW 4015   1.083   2.846   0.087
 1110SOL    HW1 4016   1.060   2.899   0.005
 1110SOL    HW2 4017   1.164   2.790   0.068
 1111SOL     OW 4018   1.861   3.431   0.851
 1111SOL    HW1 4019   1.790   3.419   0.781
 1111SOL    HW2 4020   1.862   3.352   0.911
 1112SOL     OW 4021   0.221   3.176   1.844
 1112SOL    HW1 4022   0.156   3.103   1.823
 1112SOL    HW2 4023   0.225   3.190   1.942
 1113SOL     OW 4024   0.079   3.102   0.653
 1113SOL    HW1 4025   0.078   3.055   0.741
 1113SOL    HW2 4026   0.161   3.074   0.602
 1114SOL     OW 4027   0.672   3.253   1.624
 1114SOL    HW1 4028   0.594   3.203   1.662
 1114SOL    HW2 4029   0.669   3.348   1.655
 1115SOL     OW 4030   1.824   2.054   1.227
 1115SOL    HW1 4031   1.820   1.964   1.271
 1115SOL    HW2 4032   1.827   2.043   1.128
 1116SOL     OW 4033   0.428   2.286   0.520
 1116SOL    HW1 4034   0.458   2.214   0.458
 1116SOL    HW2 4035   0.389   2.246   0.603
 1117SOL     OW 4036   1.705   3.349   1.104
 1117SOL    HW1 4037   1.612   3.324   1.077
 1117SOL    HW2 4038   1.731   3.299   1.186
 1118SOL     OW 4039   0.317   2.409   1.280
 1118SOL    HW1 4040   0.355   2.350   1.352
 1118SOL    HW2 4041   0.357   2.383   1.192
 1119SOL     OW 4042   0.812   3.448   0.687
 1119SOL    HW1 4043   0.844   3.458   0.593
 1119SOL    HW2 4044   0.733   3.386   0.689
 1120SOL     OW 4045   1.424   2.076   1.112
 1120SOL    HW1 4046   1.476   2.011   1.167
 1120SOL    HW2 4047   1.375   2.139   1.173
 1121SOL     OW 4048   1.001   1.896   1.154
 1121SOL    HW1 4049   0.938   1.824   1.123
 1121SOL    HW2 4050   1.094   1.860   1.154
 1122SOL     OW 4051   0.770   3.192   0.301
 1122SOL    HW1 4052   0.724   3.105   0.318
 1122SOL    HW2 4053   0.861   3.189   0.342
 1123SOL     OW 4054   0.618   3.429   1.284
 1123SOL    HW1 4055   0.613   3.511   1.341
 1123SOL    HW2 4056   0.707   3.426   1.239
 1124SOL     OW 4057   1.352   1.914   0.168
 1124SOL    HW1 4058   1.387   1.873   0.084
 1124SOL    HW2 4059   1.262   1.876   0.188
 1125SOL     OW 4060   1.300   2.315   0.691
 1125SOL    HW1 4061   1.241   2.395   0.695
 1125SOL    HW2 4062   1.315   2.280   0.784
 1126SOL     OW 4063   1.593   2.083   0.882
 1126SOL    HW1 4064   1.509   2.082   0.936
 1126SOL    HW2 4065   1.595   2.166   0.826
 1127SOL     OW 4066   0.039   2.939   0.300
 1127SOL    HW1 4067   0.138   2.928   0.291
 1127SOL    HW2 4068  -0.001   2.853   0.332
 1128SOL     OW 4069   0.875   3.508   0.337
 1128SOL    HW1 4070   0.798   3.473   0.283
 1128SOL    HW2 4071   0.843   3.579   0.399
 1129SOL     OW 4072   0.230   2.490   1.975
 1129SOL    HW1 4073   0.137   2.488   2.012
 1129SOL    HW2 4074   0.231   2.451   1.883
 1130SOL     OW 4075   0.225   2.137   2.858
 1130SOL    HW1 4076   0.260   2.120   2.950
 1130SOL    HW2 4077   0.137   2.092   2.846
 1131SOL     OW 4078   0.019   2.230   2.509
 1131SOL    HW1 4079  -0.063   2.273   2.548
 1131SOL    HW2 4080  -0.009   2.157   2.446
 1132SOL     OW 4081   0.569   3.137   3.027
 1132SOL    HW1 4082   0.476   3.130   2.990
 1132SOL    HW2 4083   0.580   3.226   3.071
 1133SOL     OW 4084   1.555   3.373   2.565
 1133SOL    HW1 4085   1.498   3.357   2.646
 1133SOL    HW2 4086   1.496   3.383   2.485
 1134SOL     OW 4087   1.135   2.565   2.579
 1134SOL    HW1 4088   1.192   2.643   2.554
 1134SOL    HW2 4089   1.075   2.591   2.655
 1135SOL     OW 4090   1.755   2.469   2.093
 1135SOL    HW1 4091   1.743   2.456   1.994
 1135SOL    HW2 4092   1.725   2.388   2.142
 1136SOL     OW 4093   0.768   3.006   2.885
 1136SOL    HW1 4094   0.690   3.023   2.945
 1136SOL    HW2 4095   0.802   3.093   2.849
 1137SOL     OW 4096   0.850   2.660   3.685
 1137SOL    HW1 4097   0.846   2.736   3.750
 1137SOL    HW2 4098   0.872   2.696   3.594
 1138SOL     OW 4099   0.685   2.874   2.527
 1138SOL    HW1 4100   0.754   2.858   2.597
 1138SOL    HW2 4101   0.612   2.931   2.565
 1139SOL     OW 4102   0.686   3.023   3.665
 1139SOL    HW1 4103   0.746   3.102   3.679
 1139SOL    HW2 4104   0.600   3.054   3.624
 1140SOL     OW 4105   0.335   3.297   2.923
 1140SOL    HW1 4106   0.257   3.266   2.870
 1140SOL    HW2 4107   0.393   3.355   2.866
 1141SOL     OW 4108   1.460   3.367   3.201
 1141SOL    HW1 4109   1.484   3.461   3.227
 1141SOL    HW2 4110   1.444   3.313   3.283
 1142SOL     OW 4111   0.438   2.254   3.361
 1142SOL    HW1 4112   0.520   2.198   3.370
 1142SOL    HW2 4113   0.357   2.196   3.365
 1143SOL     OW 4114   1.603   2.309   2.599
 1143SOL    HW1 4115   1.529   2.355   2.549
 1143SOL    HW2 4116   1.654   2.377   2.652
 1144SOL     OW 4117   0.231   3.575   2.345
 1144SOL    HW1 4118   0.265   3.652   2.399
 1144SOL    HW2 4119   0.275   3.575   2.255
 1145SOL     OW 4120   1.127   3.203   3.552
 1145SOL    HW1 4121   1.174   3.203   3.640
 1145SOL    HW2 4122   1.079   3.116   3.541
 1146SOL     OW 4123   0.230   3.296   2.400
 1146SOL    HW1 4124   0.204   3.392   2.400
 1146SOL    HW2 4125   0.159   3.242   2.445
 1147SOL     OW 4126   0.240   2.953   2.748
 1147SOL    HW1 4127   0.254   2.869   2.800
 1147SOL    HW2 4128   0.185   3.017   2.803
 1148SOL     OW 4129   0.620   3.648   3.301
 1148SOL    HW1 4130   0.528   3.631   3.336
 1148SOL    HW2 4131   0.648   3.740   3.327
 1149SOL     OW 4132   0.606   2.826   1.985
 1149SOL    HW1 4133   0.613   2.910   1.931
 1149SOL    HW2 4134   0.652   2.839   2.073
 1150SOL     OW 4135   1.594   1.976   3.342
 1150SOL    HW1 4136   1.576   2.043   3.270
 1150SOL    HW2 4137   1.591   2.022   3.431
 1151SOL     OW 4138   0.122   2.505   2.425
 1151SOL    HW1 4139   0.077   2.417   2.442
 1151SOL    HW2 4140   0.121   2.559   2.509
 1152SOL     OW 4141   1.842   3.629   2.221
 1152SOL    HW1 4142   1.896   3.600   2.301
 1152SOL    HW2 4143   1.872   3.719   2.192
 1153SOL     OW 4144   0.027   3.458   1.979
 1153SOL    HW1 4145   0.008   3.362   2.000
 1153SOL    HW2 4146  -0.006   3.516   2.054
 1154SOL     OW 4147   1.689   2.784   2.474
 1154SOL    HW1 4148   1.784   2.755   2.482
 1154SOL    HW2 4149   1.681   2.849   2.399
 1155SOL     OW 4150   1.641   2.970   2.294
 1155SOL    HW1 4151   1.727   2.972   2.242
 1155SOL    HW2 4152   1.655   3.017   2.382
 1156SOL     OW 4153   0.113   2.599   3.459
 1156SOL    HW1 4154   0.201   2.586   3.504
 1156SOL    HW2 4155   0.100   2.696   3.437
 1157SOL     OW 4156   0.613   3.227   2.588
 1157SOL    HW1 4157   0.564   3.140   2.597
 1157SOL    HW2 4158   0.590   3.270   2.501
 1158SOL     OW 4159   1.293   3.090   3.285
 1158SOL    HW1 4160   1.330   3.017   3.227
 1158SOL    HW2 4161   1.345   3.095   3.370
 1159SOL     OW 4162   0.809   1.866   2.364
 1159SOL    HW1 4163   0.849   1.957   2.355
 1159SOL    HW2 4164   0.709   1.874   2.370
 1160SOL     OW 4165   0.197   2.838   3.126
 1160SOL    HW1 4166   0.286   2.793   3.112
 1160SOL    HW2 4167   0.124   2.773   3.107
 1161SOL     OW 4168   1.525   2.861   2.052
 1161SOL    HW1 4169   1.462   2.785   2.065
 1161SOL    HW2 4170   1.573   2.879   2.138
 1162SOL     OW 4171   1.187   3.654   3.478
 1162SOL    HW1 4172   1.211   3.714   3.402
 1162SOL    HW2 4173   1.194   3.559   3.448
 1163SOL     OW 4174   0.317   2.113   3.663
 1163SOL    HW1 4175   0.388   2.184   3.669
 1163SOL    HW2 4176   0.229   2.152   3.691
 1164SOL     OW 4177   1.466   3.279   2.815
 1164SOL    HW1 4178   1.407   3.285   2.895
 1164SOL    HW2 4179   1.451   3.191   2.769
 1165SOL     OW 4180   1.667   3.576   2.434
 1165SOL    HW1 4181   1.626   3.553   2.346
 1165SOL    HW2 4182   1.649   3.502   2.499
 1166SOL     OW 4183   0.598   2.591   2.132
 1166SOL    HW1 4184   0.622   2.660   2.064
 1166SOL    HW2 4185   0.520   2.624   2.186
 1167SOL     OW 4186   1.281   2.207   2.806
 1167SOL    HW1 4187   1.195   2.157   2.793
 1167SOL    HW2 4188   1.343   2.153   2.862
 1168SOL     OW 4189   1.576   3.524   2.169
 1168SOL    HW1 4190   1.665   3.570   2.172
 1168SOL    HW2 4191   1.555   3.500   2.074
 1169SOL     OW 4192   0.807   2.467   3.327
 1169SOL    HW1 4193   0.760   2.464   3.416
 1169SOL    HW2 4194   0.756   2.412   3.261
 1170SOL     OW 4195   1.394   2.331   3.536
 1170SOL    HW1 4196   1.374   2.374   3.624
 1170SOL    HW2 4197   1.472   2.269   3.545
 1171SOL     OW 4198   0.973   2.752   3.434
 1171SOL    HW1 4199   1.019   2.668   3.405
 1171SOL    HW2 4200   0.917   2.786   3.359
 1172SOL     OW 4201   0.991   2.272   3.104
 1172SOL    HW1 4202   0.914   2.306   3.158
 1172SOL    HW2 4203   0.957   2.221   3.025
 1173SOL     OW 4204   1.041   2.563   2.291
 1173SOL    HW1 4205   1.067   2.559   2.387
 1173SOL    HW2 4206   0.956   2.512   2.277
 1174SOL     OW 4207   0.076   2.673   2.651
 1174SOL    HW1 4208   0.175   2.661   2.660
 1174SOL    HW2 4209   0.052   2.768   2.672
 1175SOL     OW 4210   0.130   3.683   3.433
 1175SOL    HW1 4211   0.120   3.668   3.532
 1175SOL    HW2 4212   0.044   3.719   3.397
 1176SOL     OW 4213   0.865   2.210   2.057
 1176SOL    HW1 4214   0.924   2.273   2.008
 1176SOL    HW2 4215   0.884   2.116   2.028
 1177SOL     OW 4216   1.719   2.447   3.693
 1177SOL    HW1 4217   1.693   2.536   3.657
 1177SOL    HW2 4218   1.717   2.379   3.620
 1178SOL     OW 4219   1.362   3.006   2.407
 1178SOL    HW1 4220   1.445   2.977   2.359
 1178SOL    HW2 4221   1.313   3.073   2.351
 1179SOL     OW 4222   0.550   2.058   2.747
 1179SOL    HW1 4223   0.545   2.053   2.847
 1179SOL    HW2 4224   0.552   2.154   2.718
 1180SOL     OW 4225   1.008   3.318   2.339
 1180SOL    HW1 4226   0.962   3.390   2.287
 1180SOL    HW2 4227   1.004   3.338   2.437
 1181SOL     OW 4228   0.351   3.663   2.715
 1181SOL    HW1 4229   0.401   3.577   2.721
 1181SOL    HW2 4230   0.416   3.740   2.712
 1182SOL     OW 4231   1.795   2.928   2.735
 1182SOL    HW1 4232   1.733   2.913   2.659
 1182SOL    HW2 4233   1.743   2.939   2.820
 1183SOL     OW 4234   1.227   3.412   3.368
 1183SOL    HW1 4235   1.233   3.335   3.432
 1183SOL    HW2 4236   1.175   3.386   3.288
 1184SOL     OW 4237   0.321   2.805   2.104
 1184SOL    HW1 4238   0.403   2.844   2.062
 1184SOL    HW2 4239   0.294   2.723   2.055
 1185SOL     OW 4240   1.458   2.597   2.590
 1185SOL    HW1 4241   1.453   2.532   2.665
 1185SOL    HW2 4242   1.538   2.656   2.603
 1186SOL     OW 4243   0.461   3.128   3.589
 1186SOL    HW1 4244   0.411   3.129   3.503
 1186SOL    HW2 4245   0.398   3.110   3.665
 1187SOL     OW 4246   1.111   3.638   2.099
 1187SOL    HW1 4247   1.051   3.576   2.149
 1187SOL    HW2 4248   1.142   3.594   2.014
 1188SOL     OW 4249   0.202   2.147   3.360
 1188SOL    HW1 4250   0.122   2.207   3.347
 1188SOL    HW2 4251   0.192   2.098   3.446
 1189SOL     OW 4252   1.632   3.239   1.943
 1189SOL    HW1 4253   1.600   3.333   1.933
 1189SOL    HW2 4254   1.556   3.176   1.931
 1190SOL     OW 4255   0.464   3.605   2.185
 1190SOL    HW1 4256   0.497   3.644   2.271
 1190SOL    HW2 4257   0.540   3.598   2.120
 1191SOL     OW 4258   1.400   1.969   2.288
 1191SOL    HW1 4259   1.376   1.932   2.198
 1191SOL    HW2 4260   1.499   1.985   2.292
 1192SOL     OW 4261   0.249   3.647   3.103
 1192SOL    HW1 4262   0.306   3.582   3.153
 1192SOL    HW2 4263   0.233   3.614   3.010
 1193SOL     OW 4264   0.940   3.560   2.766
 1193SOL    HW1 4265   1.020   3.503   2.787
 1193SOL    HW2 4266   0.891   3.520   2.689
 1194SOL     OW 4267   0.382   2.562   2.342
 1194SOL    HW1 4268   0.427   2.472   2.339
 1194SOL    HW2 4269   0.288   2.551   2.375
 1195SOL     OW 4270   1.547   2.084   3.591
 1195SOL    HW1 4271   1.542   2.121   3.683
 1195SOL    HW2 4272   1.475   2.015   3.579
 1196SOL     OW 4273   0.614   1.984   1.979
 1196SOL    HW1 4274   0.712   1.962   1.986
 1196SOL    HW2 4275   0.583   1.967   1.886
 1197SOL     OW 4276   0.781   2.126   3.611
 1197SOL    HW1 4277   0.848   2.065   3.654
 1197SOL    HW2 4278   0.708   2.145   3.676
 1198SOL     OW 4279   0.888   3.376   3.057
 1198SOL    HW1 4280   0.865   3.351   2.963
 1198SOL    HW2 4281   0.949   3.307   3.096
 1199SOL     OW 4282   1.351   2.452   3.295
 1199SOL    HW1 4283   1.379   2.409   3.380
 1199SOL    HW2 4284   1.376   2.548   3.296
 1200SOL     OW 4285   0.803   3.264   2.786
 1200SOL    HW1 4286   0.893   3.278   2.744
 1200SOL    HW2 4287   0.732   3.266   2.715
 1201SOL     OW 4288   0.922   2.365   2.761
 1201SOL    HW1 4289   0.897   2.356   2.665
 1201SOL    HW2 4290   0.970   2.283   2.792
 1202SOL     OW 4291   0.539   1.926   2.374
 1202SOL    HW1 4292   0.458   1.927   2.432
 1202SOL    HW2 4293   0.542   2.009   2.319
 1203SOL     OW 4294   1.434   3.050   1.903
 1203SOL    HW1 4295   1.466   2.974   1.960
 1203SOL    HW2 4296   1.342   3.077   1.933
 1204SOL     OW 4297   0.297   1.897   2.033
 1204SOL    HW1 4298   0.346   1.981   2.012
 1204SOL    HW2 4299   0.359   1.832   2.078
 1205SOL     OW 4300   0.935   2.098   2.342
 1205SOL    HW1 4301   0.887   2.139   2.264
 1205SOL    HW2 4302   1.034   2.096   2.323
 1206SOL     OW 4303   1.076   2.545   3.326
 1206SOL    HW1 4304   0.996   2.484   3.329
 1206SOL    HW2 4305   1.157   2.492   3.302
 1207SOL     OW 4306   1.227   3.432   2.655
 1207SOL    HW1 4307   1.248   3.506   2.590
 1207SOL    HW2 4308   1.295   3.432   2.728
 1208SOL     OW 4309   0.459   3.014   2.603
 1208SOL    HW1 4310   0.388   2.987   2.668
 1208SOL    HW2 4311   0.433   2.986   2.510
 1209SOL     OW 4312   1.271   3.659   2.453
 1209SOL    HW1 4313   1.315   3.723   2.389
 1209SOL    HW2 4314   1.221   3.711   2.523
 1210SOL     OW 4315   1.032   2.411   1.878
 1210SOL    HW1 4316   0.991   2.493   1.839
 1210SOL    HW2 4317   1.096   2.437   1.951
 1211SOL     OW 4318   0.078   2.418   3.248
 1211SOL    HW1 4319   0.170   2.417   3.207
 1211SOL    HW2 4320   0.072   2.492   3.315
 1212SOL     OW 4321   0.561   2.084   3.009
 1212SOL    HW1 4322   0.599   2.000   3.046
 1212SOL    HW2 4323   0.473   2.103   3.053
 1213SOL     OW 4324   0.866   2.316   2.504
 1213SOL    HW1 4325   0.834   2.388   2.442
 1213SOL    HW2 4326   0.890   2.235   2.451
 1214SOL     OW 4327   1.017   1.901   2.615
 1214SOL    HW1 4328   0.945   1.906   2.546
 1214SOL    HW2 4329   0.993   1.832   2.684
 1215SOL     OW 4330   1.429   3.035   2.729
 1215SOL    HW1 4331   1.374   2.951   2.722
 1215SOL    HW2 4332   1.455   3.064   2.637
 1216SOL     OW 4333   1.466   2.452   2.854
 1216SOL    HW1 4334   1.436   2.357   2.861
 1216SOL    HW2 4335   1.539   2.468   2.920
 1217SOL     OW 4336   1.857   2.695   2.239
 1217SOL    HW1 4337   1.899   2.631   2.303
 1217SOL    HW2 4338   1.819   2.644   2.161
 1218SOL     OW 4339   0.488   3.247   2.036
 1218SOL    HW1 4340   0.401   3.232   2.083
 1218SOL    HW2 4341   0.471   3.273   1.941
 1219SOL     OW 4342   1.664   3.142   2.519
 1219SOL    HW1 4343   1.763   3.150   2.533
 1219SOL    HW2 4344   1.619   3.226   2.550
 1220SOL     OW 4345   1.390   2.437   1.940
 1220SOL    HW1 4346   1.336   2.416   2.021
 1220SOL    HW2 4347   1.481   2.396   1.949
 1221SOL     OW 4348   0.527   2.118   2.190
 1221SOL    HW1 4349   0.554   2.059   2.115
 1221SOL    HW2 4350   0.527   2.213   2.159
 1222SOL     OW 4351   1.064   3.209   3.202
 1222SOL    HW1 4352   0.984   3.186   3.257
 1222SOL    HW2 4353   1.147   3.183   3.251
 1223SOL     OW 4354   1.592   3.491   3.487
 1223SOL    HW1 4355   1.619   3.525   3.397
 1223SOL    HW2 4356   1.671   3.453   3.533
 1224SOL     OW 4357   1.111   3.057   2.962
 1224SOL    HW1 4358   1.071   3.101   3.043
 1224SOL    HW2 4359   1.070   3.094   2.879
 1225SOL     OW 4360   1.638   2.961   2.941
 1225SOL    HW1 4361   1.643   3.042   3.000
 1225SOL    HW2 4362   1.552   2.963   2.890
 1226SOL     OW 4363   0.915   1.951   3.264
 1226SOL    HW1 4364   0.940   1.931   3.169
 1226SOL    HW2 4365   0.987   2.007   3.306
 1227SOL     OW 4366   0.980   2.978   3.581
 1227SOL    HW1 4367   0.881   2.984   3.591
 1227SOL    HW2 4368   1.003   2.898   3.525
 1228SOL     OW 4369   0.705   2.912   2.230
 1228SOL    HW1 4370   0.691   2.919   2.329
 1228SOL    HW2 4371   0.789   2.861   2.212
 1229SOL     OW 4372   0.410   2.675   3.113
 1229SOL    HW1 4373   0.496   2.687   3.163
 1229SOL    HW2 4374   0.368   2.588   3.140
 1230SOL     OW 4375   1.274   2.248   3.124
 1230SOL    HW1 4376   1.295   2.322   3.188
 1230SOL    HW2 4377   1.185   2.265   3.081
 1231SOL     OW 4378   0.064   3.426   3.193
 1231SOL    HW1 4379   0.018   3.508   3.159
 1231SOL    HW2 4380   0.162   3.445   3.202
 1232SOL     OW 4381   0.367   2.962   2.363
 1232SOL    HW1 4382   0.360   3.045   2.307
 1232SOL    HW2 4383   0.371   2.882   2.303
 1233SOL     OW 4384   0.566   2.399   2.727
 1233SOL    HW1 4385   0.578   2.465   2.653
 1233SOL    HW2 4386   0.612   2.433   2.810
 1234SOL     OW 4387   1.252   3.210   2.250
 1234SOL    HW1 4388   1.302   3.287   2.290
 1234SOL    HW2 4389   1.157   3.212   2.282
 1235SOL     OW 4390   1.272   3.307   3.004
 1235SOL    HW1 4391   1.319   3.320   3.091
 1235SOL    HW2 4392   1.206   3.233   3.013
 1236SOL     OW 4393   1.582   2.501   2.334
 1236SOL    HW1 4394   1.551   2.562   2.407
 1236SOL    HW2 4395   1.632   2.553   2.265
 1237SOL     OW 4396   0.354   3.372   3.191
 1237SOL    HW1 4397   0.333   3.328   3.104
 1237SOL    HW2 4398   0.451   3.398   3.194
 1238SOL     OW 4399   0.402   2.613   3.460
 1238SOL    HW1 4400   0.470   2.668   3.413
 1238SOL    HW2 4401   0.442   2.525   3.487
 1239SOL     OW 4402   1.013   1.967   3.632
 1239SOL    HW1 4403   1.019   2.052   3.580
 1239SOL    HW2 4404   1.045   1.891   3.575
 1240SOL     OW 4405   0.504   1.912   3.602
 1240SOL    HW1 4406   0.462   1.855   3.532
 1240SOL    HW2 4407   0.438   1.981   3.634
 1241SOL     OW 4408   0.573   2.732   2.891
 1241SOL    HW1 4409   0.617   2.821   2.882
 1241SOL    HW2 4410   0.510   2.732   2.968
 1242SOL     OW 4411   1.360   2.724   2.907
 1242SOL    HW1 4412   1.285   2.724   2.841
 1242SOL    HW2 4413   1.397   2.632   2.916
 1243SOL     OW 4414   1.209   2.387   2.137
 1243SOL    HW1 4415   1.222   2.303   2.191
 1243SOL    HW2 4416   1.180   2.461   2.197
 1244SOL     OW 4417   0.307   2.075   3.093
 1244SOL    HW1 4418   0.284   2.112   3.183
 1244SOL    HW2 4419   0.277   1.980   3.087
 1245SOL     OW 4420   0.037   3.172   3.144
 1245SOL    HW1 4421   0.090   3.123   3.212
 1245SOL    HW2 4422   0.059   3.270   3.149
 1246SOL     OW 4423   0.732   2.496   2.926
 1246SOL    HW1 4424   0.791   2.470   2.850
 1246SOL    HW2 4425   0.704   2.592   2.915
 1247SOL     OW 4426   0.307   1.925   2.480
 1247SOL    HW1 4427   0.296   2.019   2.513
 1247SOL    HW2 4428   0.302   1.862   2.557
 1248SOL     OW 4429   1.622   2.229   2.236
 1248SOL    HW1 4430   1.624   2.153   2.300
 1248SOL    HW2 4431   1.574   2.306   2.276
 1249SOL     OW 4432   1.023   2.628   2.828
 1249SOL    HW1 4433   1.038   2.649   2.924
 1249SOL    HW2 4434   0.993   2.533   2.819
 1250SOL     OW 4435   0.980   3.435   3.562
 1250SOL    HW1 4436   0.960   3.479   3.474
 1250SOL    HW2 4437   1.019   3.344   3.546
 1251SOL     OW 4438   0.350   2.760   3.666
 1251SOL    HW1 4439   0.426   2.804   3.714
 1251SOL    HW2 4440   0.385   2.713   3.584
 1252SOL     OW 4441   1.540   2.136   1.987
 1252SOL    HW1 4442   1.479   2.061   2.010
 1252SOL    HW2 4443   1.562   2.188   2.070
 1253SOL     OW 4444   1.303   2.700   1.904
 1253SOL    HW1 4445   1.337   2.607   1.919
 1253SOL    HW2 4446   1.321   2.727   1.809
 1254SOL     OW 4447   1.068   3.195   2.711
 1254SOL    HW1 4448   1.075   3.111   2.656
 1254SOL    HW2 4449   1.130   3.264   2.675
 1255SOL     OW 4450   0.319   2.672   2.811
 1255SOL    HW1 4451   0.412   2.708   2.816
 1255SOL    HW2 4452   0.313   2.587   2.863
 1256SOL     OW 4453   0.339   2.371   2.868
 1256SOL    HW1 4454   0.287   2.288   2.851
 1256SOL    HW2 4455   0.416   2.376   2.804
 1257SOL     OW 4456   1.138   2.242   3.540
 1257SOL    HW1 4457   1.093   2.305   3.604
 1257SOL    HW2 4458   1.231   2.273   3.523
 1258SOL     OW 4459   1.160   2.069   3.339
 1258SOL    HW1 4460   1.160   2.133   3.416
 1258SOL    HW2 4461   1.188   2.117   3.256
 1259SOL     OW 4462   0.008   3.188   2.062
 1259SOL    HW1 4463  -0.085   3.209   2.031
 1259SOL    HW2 4464   0.018   3.089   2.075
 1260SOL     OW 4465   0.088   3.663   2.789
 1260SOL    HW1 4466   0.046   3.577   2.762
 1260SOL    HW2 4467   0.182   3.666   2.755
 1261SOL     OW 4468   0.504   3.430   2.772
 1261SOL    HW1 4469   0.570   3.504   2.781
 1261SOL    HW2 4470   0.548   3.351   2.730
 1262SOL     OW 4471   1.002   2.658   3.100
 1262SOL    HW1 4472   1.043   2.626   3.186
 1262SOL    HW2 4473   0.906   2.631   3.097
 1263SOL     OW 4474   0.040   2.406   2.976
 1263SOL    HW1 4475   0.125   2.373   2.935
 1263SOL    HW2 4476   0.053   2.421   3.074
 1264SOL     OW 4477   0.189   2.382   3.584
 1264SOL    HW1 4478   0.248   2.342   3.514
 1264SOL    HW2 4479   0.131   2.453   3.543
 1265SOL     OW 4480   1.369   2.812   3.522
 1265SOL    HW1 4481   1.408   2.901   3.542
 1265SOL    HW2 4482   1.379   2.792   3.425
 1266SOL     OW 4483   0.815   2.434   2.187
 1266SOL    HW1 4484   0.822   2.345   2.141
 1266SOL    HW2 4485   0.721   2.468   2.179
 1267SOL     OW 4486   1.657   2.466   3.068
 1267SOL    HW1 4487   1.619   2.397   3.130
 1267SOL    HW2 4488   1.739   2.430   3.024
 1268SOL     OW 4489   0.252   3.426   3.606
 1268SOL    HW1 4490   0.222   3.483   3.682
 1268SOL    HW2 4491   0.245   3.329   3.632
 1269SOL     OW 4492   0.671   2.326   3.131
 1269SOL    HW1 4493   0.637   2.237   3.101
 1269SOL    HW2 4494   0.697   2.380   3.051
 1270SOL     OW 4495   0.930   3.540   3.327
 1270SOL    HW1 4496   0.906   3.522   3.232
 1270SOL    HW2 4497   0.960   3.634   3.337
 1271SOL     OW 4498   0.473   2.362   2.053
 1271SOL    HW1 4499   0.534   2.442   2.057
 1271SOL    HW2 4500   0.378   2.393   2.060
 1272SOL     OW 4501   0.159   2.999   3.328
 1272SOL    HW1 4502   0.181   2.938   3.404
 1272SOL    HW2 4503   0.169   2.950   3.242
 1273SOL     OW 4504   1.347   2.921   3.096
 1273SOL    HW1 4505   1.371   2.858   3.022
 1273SOL    HW2 4506   1.257   2.961   3.078
 1274SOL     OW 4507   1.302   2.717   2.171
 1274SOL    HW1 4508   1.216   2.686   2.213
 1274SOL    HW2 4509   1.298   2.703   2.072
 1275SOL     OW 4510   1.759   3.609   3.016
 1275SOL    HW1 4511   1.820   3.639   2.943
 1275SOL    HW2 4512   1.721   3.520   2.994
 1276SOL     OW 4513   1.252   3.593   2.990
 1276SOL    HW1 4514   1.336   3.598   2.936
 1276SOL    HW2 4515   1.229   3.497   3.008
 1277SOL     OW 4516   0.083   3.120   2.884
 1277SOL    HW1 4517   0.078   3.119   2.984
 1277SOL    HW2 4518   0.000   3.079   2.846
 1278SOL     OW 4519   0.688   3.524   3.578
 1278SOL    HW1 4520   0.632   3.605   3.587
 1278SOL    HW2 4521   0.740   3.528   3.492
 1279SOL     OW 4522   1.726   1.997   2.385
 1279SOL    HW1 4523   1.799   1.980   2.318
 1279SOL    HW2 4524   1.695   1.910   2.423
 1280SOL     OW 4525   1.388   3.435   2.339
 1280SOL    HW1 4526   1.455   3.447   2.265
 1280SOL    HW2 4527   1.348   3.524   2.362
 1281SOL     OW 4528   0.130   3.656   3.713
 1281SOL    HW1 4529   0.089   3.582   3.766
 1281SOL    HW2 4530   0.194   3.707   3.771
 1282SOL     OW 4531   1.280   2.789   2.534
 1282SOL    HW1 4532   1.340   2.708   2.536
 1282SOL    HW2 4533   1.320   2.858   2.474
 1283SOL     OW 4534   0.830   3.135   3.284
 1283SOL    HW1 4535   0.825   3.168   3.379
 1283SOL    HW2 4536   0.744   3.154   3.238
 1284SOL     OW 4537   0.672   3.478   2.016
 1284SOL    HW1 4538   0.681   3.488   1.917
 1284SOL    HW2 4539   0.632   3.389   2.037
 1285SOL     OW 4540   1.650   3.582   3.256
 1285SOL    HW1 4541   1.703   3.592   3.172
 1285SOL    HW2 4542   1.623   3.672   3.290
 1286SOL     OW 4543   1.841   2.037   2.825
 1286SOL    HW1 4544   1.880   1.952   2.789
 1286SOL    HW2 4545   1.743   2.039   2.806
 1287SOL     OW 4546   0.263   2.188   2.582
 1287SOL    HW1 4547   0.184   2.239   2.548
 1287SOL    HW2 4548   0.254   2.173   2.680
 1288SOL     OW 4549   1.194   3.474   1.893
 1288SOL    HW1 4550   1.200   3.381   1.930
 1288SOL    HW2 4551   1.135   3.474   1.813
 1289SOL     OW 4552   0.822   2.864   3.234
 1289SOL    HW1 4553   0.862   2.863   3.142
 1289SOL    HW2 4554   0.832   2.956   3.274
 1290SOL     OW 4555   0.916   2.772   2.153
 1290SOL    HW1 4556   0.979   2.810   2.085
 1290SOL    HW2 4557   0.956   2.689   2.192
 1291SOL     OW 4558   1.504   3.469   1.906
 1291SOL    HW1 4559   1.412   3.506   1.913
 1291SOL    HW2 4560   1.542   3.489   1.816
 1292SOL     OW 4561   0.372   3.150   3.352
 1292SOL    HW1 4562   0.359   3.243   3.318
 1292SOL    HW2 4563   0.288   3.098   3.339
 1293SOL     OW 4564   1.614   3.154   3.151
 1293SOL    HW1 4565   1.674   3.157   3.231
 1293SOL    HW2 4566   1.539   3.218   3.164
 1294SOL     OW 4567   1.039   2.960   2.558
 1294SOL    HW1 4568   0.969   2.913   2.612
 1294SOL    HW2 4569   1.098   2.892   2.515
 1295SOL     OW 4570   1.014   2.098   2.833
 1295SOL    HW1 4571   1.006   2.062   2.740
 1295SOL    HW2 4572   1.012   2.022   2.898
 1296SOL     OW 4573   0.590   3.349   2.353
 1296SOL    HW1 4574   0.632   3.291   2.283
 1296SOL    HW2 4575   0.546   3.428   2.309
 1297SOL     OW 4576   1.709   2.247   3.243
 1297SOL    HW1 4577   1.782   2.316   3.247
 1297SOL    HW2 4578   1.737   2.172   3.184
 1298SOL     OW 4579   0.255   3.210   2.152
 1298SOL    HW1 4580   0.159   3.211   2.125
 1298SOL    HW2 4581   0.267   3.263   2.236
 1299SOL     OW 4582   0.105   2.875   3.588
 1299SOL    HW1 4583   0.028   2.842   3.642
 1299SOL    HW2 4584   0.190   2.845   3.630
 1300SOL     OW 4585   0.672   2.065   3.351
 1300SOL    HW1 4586   0.762   2.049   3.311
 1300SOL    HW2 4587   0.680   2.070   3.450
 1301SOL     OW 4588   0.075   2.207   1.895
 1301SOL    HW1 4589  -0.017   2.179   1.866
 1301SOL    HW2 4590   0.106   2.284   1.839
 1302SOL     OW 4591   1.440   2.718   3.260
 1302SOL    HW1 4592   1.383   2.770   3.197
 1302SOL    HW2 4593   1.536   2.730   3.236
 1303SOL     OW 4594   0.072   2.028   2.180
 1303SOL    HW1 4595   0.055   2.111   2.126
 1303SOL    HW2 4596   0.162   1.991   2.158
 1304SOL     OW 4597   1.183   3.197   1.981
 1304SOL    HW1 4598   1.084   3.186   1.983
 1304SOL    HW2 4599   1.217   3.212   2.074
 1305SOL     OW 4600   0.613   2.704   3.293
 1305SOL    HW1 4601   0.669   2.785   3.276
 1305SOL    HW2 4602   0.672   2.624   3.296
 1306SOL     OW 4603   1.493   3.629   2.821
 1306SOL    HW1 4604   1.526   3.693   2.752
 1306SOL    HW2 4605   1.559   3.623   2.896
 1307SOL     OW 4606   0.716   2.427   3.570
 1307SOL    HW1 4607   0.735   2.492   3.644
 1307SOL    HW2 4608   0.776   2.347   3.579
 1308SOL     OW 4609   1.450   3.082   3.495
 1308SOL    HW1 4610   1.441   3.072   3.594
 1308SOL    HW2 4611   1.546   3.075   3.469
 1309SOL     OW 4612   0.390   3.603   3.422
 1309SOL    HW1 4613   0.299   3.644   3.420
 1309SOL    HW2 4614   0.383   3.509   3.454
 1310SOL     OW 4615   1.674   2.745   3.116
 1310SOL    HW1 4616   1.647   2.656   3.079
 1310SOL    HW2 4617   1.675   2.813   3.043
 1311SOL     OW 4618   1.225   2.187   2.311
 1311SOL    HW1 4619   1.290   2.113   2.300
 1311SOL    HW2 4620   1.245   2.237   2.395
 1312SOL     OW 4621   0.594   2.607   2.514
 1312SOL    HW1 4622   0.644   2.692   2.495
 1312SOL    HW2 4623   0.506   2.609   2.466
 1313SOL     OW 4624   1.777   2.204   3.504
 1313SOL    HW1 4625   1.760   2.235   3.410
 1313SOL    HW2 4626   1.693   2.167   3.542
 1314SOL     OW 4627   0.859   3.236   1.878
 1314SOL    HW1 4628   0.813   3.251   1.966
 1314SOL    HW2 4629   0.903   3.321   1.848
 1315SOL     OW 4630   0.661   3.652   2.815
 1315SOL    HW1 4631   0.615   3.740   2.802
 1315SOL    HW2 4632   0.760   3.664   2.808
 1316SOL     OW 4633   0.859   2.818   2.723
 1316SOL    HW1 4634   0.913   2.749   2.771
 1316SOL    HW2 4635   0.827   2.887   2.789
 1317SOL     OW 4636   1.083   2.846   1.949
 1317SOL    HW1 4637   1.060   2.899   1.867
 1317SOL    HW2 4638   1.164   2.790   1.930
 1318SOL     OW 4639   1.861   3.431   2.713
 1318SOL    HW1 4640   1.790   3.419   2.643
 1318SOL    HW2 4641   1.862   3.352   2.773
 1319SOL     OW 4642   0.221   3.176   3.706
 1319SOL    HW1 4643   0.156   3.103   3.685
 1319SOL    HW2 4644   0.225   3.190   3.804
 1320SOL     OW 4645   0.079   3.102   2.515
 1320SOL    HW1 4646   0.078   3.055   2.603
 1320SOL    HW2 4647   0.161   3.074   2.464
 1321SOL     OW 4648   0.672   3.253   3.486
 1321SOL    HW1 4649   0.594   3.203   3.524
 1321SOL    HW2 4650   0.669   3.348   3.517
 1322SOL     OW 4651   1.824   2.054   3.089
 1322SOL    HW1 4652   1.820   1.964   3.133
 1322SOL    HW2 4653   1.827   2.043   2.990
 1323SOL     OW 4654   0.428   2.286   2.382
 1323SOL    HW1 4655   0.458   2.214   2.320
 1323SOL    HW2 4656   0.389   2.246   2.465
 1324SOL     OW 4657   1.705   3.349   2.966
 1324SOL    HW1 4658   1.612   3.324   2.939
 1324SOL    HW2 4659   1.731   3.299   3.048
 1325SOL     OW 4660   0.317   2.409   3.142
 1325SOL    HW1 4661   0.355   2.350   3.214
 1325SOL    HW2 4662   0.357   2.383   3.054
 1326SOL     OW 4663   0.812   3.448   2.549
 1326SOL    HW1 4664   0.844   3.458   2.455
 1326SOL    HW2 4665   0.733   3.386   2.551
 1327SOL     OW 4666   1.424   2.076   2.974
 1327SOL    HW1 4667   1.476   2.011   3.029
 1327SOL    HW2 4668   1.375   2.139   3.035
 1328SOL     OW 4669   1.001   1.896   3.016
 1328SOL    HW1 4670   0.938   1.824   2.985
 1328SOL    HW2 4671   1.094   1.860   3.016
 1329SOL     OW 4672   0.770   3.192   2.163
 1329SOL    HW1 4673   0.724   3.105   2.180
 1329SOL    HW2 4674   0.861   3.189   2.204
 1330SOL     OW 4675   0.618   3.429   3.146
 1330SOL    HW1 4676   0.613   3.511   3.203
 1330SOL    HW2 4677   0.707   3.426   3.101
 1331SOL     OW 4678   1.352   1.914   2.030
 1331SOL    HW1 4679   1.387   1.873   1.946
 1331SOL    HW2 4680   1.262   1.876   2.050
 1332SOL     OW 4681   1.300   2.315   2.553
 1332SOL    HW1 4682   1.241   2.395   2.557
 1332SOL    HW2 4683   1.315   2.280   2.646
 1333SOL     OW 4684   1.593   2.083   2.744
 1333SOL    HW1 4685   1.509   2.082   2.798
 1333SOL    HW2 4686   1.595   2.166   2.688
 1334SOL     OW 4687   0.039   2.939   2.162
 1334SOL    HW1 4688   0.138   2.928   2.153
 1334SOL    HW2 4689  -0.001   2.853   2.194
 1335SOL     OW 4690   0.875   3.508   2.199
 1335SOL    HW1 4691   0.798   3.473   2.145
 1335SOL    HW2 4692   0.843   3.579   2.261
 1336SOL     OW 4693   0.230   2.490   3.837
 1336SOL    HW1 4694   0.137   2.488   3.874
 1336SOL    HW2 4695   0.231   2.451   3.745
 1337SOL     OW 4696   0.225   2.137   4.720
 1337SOL    HW1 4697   0.260   2.120   4.812
 1337SOL    HW2 4698   0.137   2.092   4.708
 1338SOL     OW 4699   0.019   2.230   4.371
 1338SOL    HW1 4700  -0.063   2.273   4.410
 1338SOL    HW2 4701  -0.009   2.157   4.308
 1339SOL     OW 4702   0.569   3.137   4.889
 1339SOL    HW1 4703   0.476   3.130   4.852
 1339SOL    HW2 4704   0.580   3.226   4.933
 1340SOL     OW 4705   1.555   3.373   4.427
 1340SOL    HW1 4706   1.498   3.357   4.508
 1340SOL    HW2 4707   1.496   3.383   4.347
 1341SOL     OW 4708   1.135   2.565   4.441
 1341SOL    HW1 4709   1.192   2.643   4.416
 1341SOL    HW2 4710   1.075   2.591   4.517
 1342SOL     OW 4711   0.768   3.006   4.747
 1342SOL    HW1 4712   0.690   3.023   4.807
 1342SOL    HW2 4713   0.802   3.093   4.711
 1343SOL     OW 4714   0.850   2.660   5.547
 1343SOL    HW1 4715   0.846   2.736   5.612
 1343SOL    HW2 4716   0.872   2.696   5.456
 1344SOL     OW 4717   0.685   2.874   4.389
 1344SOL    HW1 4718   0.754   2.858   4.459
 1344SOL    HW2 4719   0.612   2.931   4.427
 1345SOL     OW 4720   0.686   3.023   5.527
 1345SOL    HW1 4721   0.746   3.102   5.541
 1345SOL    HW2 4722   0.600   3.054   5.486
 1346SOL     OW 4723   0.335   3.297   4.785
 1346SOL    HW1 4724   0.257   3.266   4.732
 1346SOL    HW2 4725   0.393   3.355   4.728
 1347SOL     OW 4726   1.460   3.367   5.063
 1347SOL    HW1 4727   1.484   3.461   5.089
 1347SOL    HW2 4728   1.444   3.313   5.145
 1348SOL     OW 4729   0.438   2.254   5.223
 1348SOL    HW1 4730   0.520   2.198   5.232
 1348SOL    HW2 4731   0.357   2.196   5.227
 1349SOL     OW 4732   1.603   2.309   4.461
 1349SOL    HW1 4733   1.529   2.355   4.411
 1349SOL    HW2 4734   1.654   2.377   4.514
 1350SOL     OW 4735   0.231   3.575   4.207
 1350SOL    HW1 4736   0.265   3.652   4.261
 1350SOL    HW2 4737   0.275   3.575   4.117
 1351SOL     OW 4738   1.127   3.203   5.414
 1351SOL    HW1 4739   1.174   3.203   5.502
 1351SOL    HW2 4740   1.079   3.116   5.403
 1352SOL     OW 4741   0.230   3.296   4.262
 1352SOL    HW1 4742   0.204   3.392   4.262
 1352SOL    HW2 4743   0.159   3.242   4.307
 1353SOL     OW 4744   0.240   2.953   4.610
 1353SOL    HW1 4745   0.254   2.869   4.662
 1353SOL    HW2 4746   0.185   3.017   4.665
 1354SOL     OW 4747   0.620   3.648   5.163
 1354SOL    HW1 4748   0.528   3.631   5.198
 1354SOL    HW2 4749   0.648   3.740   5.189
 1355SOL     OW 4750   0.606   2.826   3.847
 1355SOL    HW1 4751   0.613   2.910   3.793
 1355SOL    HW2 4752   0.652   2.839   3.935
 1356SOL     OW 4753   1.594   1.976   5.204
 1356SOL    HW1 4754   1.576   2.043   5.132
 1356SOL    HW2 4755   1.591   2.022   5.293
 1357SOL     OW 4756   0.122   2.505   4.287
 1357SOL    HW1 4757   0.077   2.417   4.304
 1357SOL    HW2 4758   0.121   2.559   4.371
 1358SOL     OW 4759   1.842   3.629   4.083
 1358SOL    HW1 4760   1.896   3.600   4.163
 1358SOL    HW2 4761   1.872   3.719   4.054
 1359SOL     OW 4762   0.027   3.458   3.841
 1359SOL    HW1 4763   0.008   3.362   3.862
 1359SOL    HW2 4764  -0.006   3.516   3.916
 1360SOL     OW 4765   1.641   2.970   4.156
 1360SOL    HW1 4766   1.727   2.972   4.104
 1360SOL    HW2 4767   1.655   3.017   4.244
 1361SOL     OW 4768   0.113   2.599   5.321
 1361SOL    HW1 4769   0.201   2.586   5.366
 1361SOL    HW2 4770   0.100   2.696   5.299
 1362SOL     OW 4771   0.613   3.227   4.450
 1362SOL    HW1 4772   0.564   3.140   4.459
 1362SOL    HW2 4773   0.590   3.270   4.363
 1363SOL     OW 4774   1.293   3.090   5.147
 1363SOL    HW1 4775   1.330   3.017   5.089
 1363SOL    HW2 4776   1.345   3.095   5.232
 1364SOL     OW 4777   0.809   1.866   4.226
 1364SOL    HW1 4778   0.849   1.957   4.217
 1364SOL    HW2 4779   0.709   1.874   4.232
 1365SOL     OW 4780   0.197   2.838   4.988
 1365SOL    HW1 4781   0.286   2.793   4.974
 1365SOL    HW2 4782   0.124   2.773   4.969
 1366SOL     OW 4783   1.525   2.861   3.914
 1366SOL    HW1 4784   1.462   2.785   3.927
 1366SOL    HW2 4785   1.573   2.879   4.000
 1367SOL     OW 4786   1.187   3.654   5.340
 1367SOL    HW1 4787   1.211   3.714   5.264
 1367SOL    HW2 4788   1.194   3.559   5.310
 1368SOL     OW 4789   0.317   2.113   5.525
 1368SOL    HW1 4790   0.388   2.184   5.531
 1368SOL    HW2 4791   0.229   2.152   5.553
 1369SOL     OW 4792   1.466   3.279   4.677
 1369SOL    HW1 4793   1.407   3.285   4.757
 1369SOL    HW2 4794   1.451   3.191   4.631
 1370SOL     OW 4795   1.667   3.576   4.296
 1370SOL    HW1 4796   1.626   3.553   4.208
 1370SOL    HW2 4797   1.649   3.502   4.361
 1371SOL     OW 4798   0.598   2.591   3.994
 1371SOL    HW1 4799   0.622   2.660   3.926
 1371SOL    HW2 4800   0.520   2.624   4.048
 1372SOL     OW 4801   1.281   2.207   4.668
 1372SOL    HW1 4802   1.195   2.157   4.655
 1372SOL    HW2 4803   1.343   2.153   4.724
 1373SOL     OW 4804   1.576   3.524   4.031
 1373SOL    HW1 4805   1.665   3.570   4.034
 1373SOL    HW2 4806   1.555   3.500   3.936
 1374SOL     OW 4807   0.807   2.467   5.189
 1374SOL    HW1 4808   0.760   2.464   5.278
 1374SOL    HW2 4809   0.756   2.412   5.123
 1375SOL     OW 4810   1.394   2.331   5.398
 1375SOL    HW1 4811   1.374   2.374   5.486
 1375SOL    HW2 4812   1.472   2.269   5.407
 1376SOL     OW 4813   0.973   2.752   5.296
 1376SOL    HW1 4814   1.019   2.668   5.267
 1376SOL    HW2 4815   0.917   2.786   5.221
 1377SOL     OW 4816   0.991   2.272   4.966
 1377SOL    HW1 4817   0.914   2.306   5.020
 1377SOL    HW2 4818   0.957   2.221   4.887
 1378SOL     OW 4819   1.041   2.563   4.153
 1378SOL    HW1 4820   1.067   2.559   4.249
 1378SOL    HW2 4821   0.956   2.512   4.139
 1379SOL     OW 4822   0.076   2.673   4.513
 1379SOL    HW1 4823   0.175   2.661   4.522
 1379SOL    HW2 4824   0.052   2.768   4.534
 1380SOL     OW 4825   0.130   3.683   5.295
 1380SOL    HW1 4826   0.120   3.668   5.394
 1380SOL    HW2 4827   0.044   3.719   5.259
 1381SOL     OW 4828   0.865   2.210   3.919
 1381SOL    HW1 4829   0.924   2.273   3.870
 1381SOL    HW2 4830   0.884   2.116   3.890
 1382SOL     OW 4831   1.719   2.447   5.555
 1382SOL    HW1 4832   1.693   2.536   5.519
 1382SOL    HW2 4833   1.717   2.379   5.482
 1383SOL     OW 4834   1.362   3.006   4.269
 1383SOL    HW1 4835   1.445   2.977   4.221
 1383SOL    HW2 4836   1.313   3.073   4.213
 1384SOL     OW 4837   0.550   2.058   4.609
 1384SOL    HW1 4838   0.545   2.053   4.709
 1384SOL    HW2 4839   0.552   2.154   4.580
 1385SOL     OW 4840   1.008   3.318   4.201
 1385SOL    HW1 4841   0.962   3.390   4.149
 1385SOL    HW2 4842   1.004   3.338   4.299
 1386SOL     OW 4843   0.351   3.663   4.577
 1386SOL    HW1 4844   0.401   3.577   4.583
 1386SOL    HW2 4845   0.416   3.740   4.574
 1387SOL     OW 4846   1.227   3.412   5.230
 1387SOL    HW1 4847   1.233   3.335   5.294
 1387SOL    HW2 4848   1.175   3.386   5.150
 1388SOL     OW 4849   0.321   2.805   3.966
 1388SOL    HW1 4850   0.403   2.844   3.924
 1388SOL    HW2 4851   0.294   2.723   3.917
 1389SOL     OW 4852   1.458   2.597   4.452
 1389SOL    HW1 4853   1.453   2.532   4.527
 1389SOL    HW2 4854   1.538   2.656   4.465
 1390SOL     OW 4855   0.461   3.128   5.451
 1390SOL    HW1 4856   0.411   3.129   5.365
 1390SOL    HW2 4857   0.398   3.110   5.527
 1391SOL     OW 4858   1.111   3.638   3.961
 1391SOL    HW1 4859   1.051   3.576   4.011
 1391SOL    HW2 4860   1.142   3.594   3.876
 1392SOL     OW 4861   0.202   2.147   5.222
 1392SOL    HW1 4862   0.122   2.207   5.209
 1392SOL    HW2 4863   0.192   2.098   5.308
 1393SOL     OW 4864   1.632   3.239   3.805
 1393SOL    HW1 4865   1.600   3.333   3.795
 1393SOL    HW2 4866   1.556   3.176   3.793
 1394SOL     OW 4867   0.464   3.605   4.047
 1394SOL    HW1 4868   0.497   3.644   4.133
 1394SOL    HW2 4869   0.540   3.598   3.982
 1395SOL     OW 4870   1.400   1.969   4.150
 1395SOL    HW1 4871   1.376   1.932   4.060
 1395SOL    HW2 4872   1.499   1.985   4.154
 1396SOL     OW 4873   0.249   3.647   4.965
 1396SOL    HW1 4874   0.306   3.582   5.015
 1396SOL    HW2 4875   0.233   3.614   4.872
 1397SOL     OW 4876   0.940   3.560   4.628
 1397SOL    HW1 4877   1.020   3.503   4.649
 1397SOL    HW2 4878   0.891   3.520   4.551
 1398SOL     OW 4879   0.382   2.562   4.204
 1398SOL    HW1 4880   0.427   2.472   4.201
 1398SOL    HW2 4881   0.288   2.551   4.237
 1399SOL     OW 4882   1.547   2.084   5.453
 1399SOL    HW1 4883   1.542   2.121   5.545
 1399SOL    HW2 4884   1.475   2.015   5.441
 1400SOL     OW 4885   0.614   1.984   3.841
 1400SOL    HW1 4886   0.712   1.962   3.848
 1400SOL    HW2 4887   0.583   1.967   3.748
 1401SOL     OW 4888   0.781   2.126   5.473
 1401SOL    HW1 4889   0.848   2.065   5.516
 1401SOL    HW2 4890   0.708   2.145   5.538
 1402SOL     OW 4891   0.888   3.376   4.919
 1402SOL    HW1 4892   0.865   3.351   4.825
 1402SOL    HW2 4893   0.949   3.307   4.958
 1403SOL     OW 4894   1.351   2.452   5.157
 1403SOL    HW1 4895   1.379   2.409   5.242
 1403SOL    HW2 4896   1.376   2.548   5.158
 1404SOL     OW 4897   0.803   3.264   4.648
 1404SOL    HW1 4898   0.893   3.278   4.606
 1404SOL    HW2 4899   0.732   3.266   4.577
 1405SOL     OW 4900   0.922   2.365   4.623
 1405SOL    HW1 4901   0.897   2.356   4.527
 1405SOL    HW2 4902   0.970   2.283   4.654
 1406SOL     OW 4903   0.539   1.926   4.236
 1406SOL    HW1 4904   0.458   1.927   4.294
 1406SOL    HW2 4905   0.542   2.009   4.181
 1407SOL     OW 4906   1.434   3.050   3.765
 1407SOL    HW1 4907   1.466   2.974   3.822
 1407SOL    HW2 4908   1.342   3.077   3.795
 1408SOL     OW 4909   0.297   1.897   3.895
 1408SOL    HW1 4910   0.346   1.981   3.874
 1408SOL    HW2 4911   0.359   1.832   3.940
 1409SOL     OW 4912   0.935   2.098   4.204
 1409SOL    HW1 4913   0.887   2.139   4.126
 1409SOL    HW2 4914   1.034   2.096   4.185
 1410SOL     OW 4915   1.076   2.545   5.188
 1410SOL    HW1 4916   0.996   2.484   5.191
 1410SOL    HW2 4917   1.157   2.492   5.164
 1411SOL     OW 4918   1.227   3.432   4.517
 1411SOL    HW1 4919   1.248   3.506   4.452
 1411SOL    HW2 4920   1.295   3.432   4.590
 1412SOL     OW 4921   0.459   3.014   4.465
 1412SOL    HW1 4922   0.388   2.987   4.530
 1412SOL    HW2 4923   0.433   2.986   4.372
 1413SOL     OW 4924   1.271   3.659   4.315
 1413SOL    HW1 4925   1.315   3.723   4.251
 1413SOL    HW2 4926   1.221   3.711   4.385
 1414SOL     OW 4927   1.032   2.411   3.740
 1414SOL    HW1 4928   0.991   2.493   3.701
 1414SOL    HW2 4929   1.096   2.437   3.813
 1415SOL     OW 4930   0.078   2.418   5.110
 1415SOL    HW1 4931   0.170   2.417   5.069
 1415SOL    HW2 4932   0.072   2.492   5.177
 1416SOL     OW 4933   0.561   2.084   4.871
 1416SOL    HW1 4934   0.599   2.000   4.908
 1416SOL    HW2 4935   0.473   2.103   4.915
 1417SOL     OW 4936   0.866   2.316   4.366
 1417SOL    HW1 4937   0.834   2.388   4.304
 1417SOL    HW2 4938   0.890   2.235   4.313
 1418SOL     OW 4939   1.017   1.901   4.477
 1418SOL    HW1 4940   0.945   1.906   4.408
 1418SOL    HW2 4941   0.993   1.832   4.546
 1419SOL     OW 4942   1.429   3.035   4.591
 1419SOL    HW1 4943   1.374   2.951   4.584
 1419SOL    HW2 4944   1.455   3.064   4.499
 1420SOL     OW 4945   1.466   2.452   4.716
 1420SOL    HW1 4946   1.436   2.357   4.723
 1420SOL    HW2 4947   1.539   2.468   4.782
 1421SOL     OW 4948   0.488   3.247   3.898
 1421SOL    HW1 4949   0.401   3.232   3.945
 1421SOL    HW2 4950   0.471   3.273   3.803
 1422SOL     OW 4951   1.390   2.437   3.802
 1422SOL    HW1 4952   1.336   2.416   3.883
 1422SOL    HW2 4953   1.481   2.396   3.811
 1423SOL     OW 4954   0.527   2.118   4.052
 1423SOL    HW1 4955   0.554   2.059   3.977
 1423SOL    HW2 4956   0.527   2.213   4.021
 1424SOL     OW 4957   1.754   3.085   5.312
 1424SOL    HW1 4958   1.845   3.046   5.299
 1424SOL    HW2 4959   1.762   3.181   5.336
 1425SOL     OW 4960   1.064   3.209   5.064
 1425SOL    HW1 4961   0.984   3.186   5.119
 1425SOL    HW2 4962   1.147   3.183   5.113
 1426SOL     OW 4963   1.592   3.491   5.349
 1426SOL    HW1 4964   1.619   3.525   5.259
 1426SOL    HW2 4965   1.671   3.453   5.395
 1427SOL     OW 4966   1.111   3.057   4.824
 1427SOL    HW1 4967   1.071   3.101   4.905
 1427SOL    HW2 4968   1.070   3.094   4.741
 1428SOL     OW 4969   1.638   2.961   4.803
 1428SOL    HW1 4970   1.643   3.042   4.862
 1428SOL    HW2 4971   1.552   2.963   4.752
 1429SOL     OW 4972   0.915   1.951   5.126
 1429SOL    HW1 4973   0.940   1.931   5.031
 1429SOL    HW2 4974   0.987   2.007   5.168
 1430SOL     OW 4975   0.980   2.978   5.443
 1430SOL    HW1 4976   0.881   2.984   5.453
 1430SOL    HW2 4977   1.003   2.898   5.387
 1431SOL     OW 4978   0.705   2.912   4.092
 1431SOL    HW1 4979   0.691   2.919   4.191
 1431SOL    HW2 4980   0.789   2.861   4.074
 1432SOL     OW 4981   0.410   2.675   4.975
 1432SOL    HW1 4982   0.496   2.687   5.025
 1432SOL    HW2 4983   0.368   2.588   5.002
 1433SOL     OW 4984   1.274   2.248   4.986
 1433SOL    HW1 4985   1.295   2.322   5.050
 1433SOL    HW2 4986   1.185   2.265   4.943
 1434SOL     OW 4987   0.064   3.426   5.055
 1434SOL    HW1 4988   0.018   3.508   5.021
 1434SOL    HW2 4989   0.162   3.445   5.064
 1435SOL     OW 4990   0.367   2.962   4.225
 1435SOL    HW1 4991   0.360   3.045   4.169
 1435SOL    HW2 4992   0.371   2.882   4.165
 1436SOL     OW 4993   0.566   2.399   4.589
 1436SOL    HW1 4994   0.578   2.465   4.515
 1436SOL    HW2 4995   0.612   2.433   4.672
 1437SOL     OW 4996   1.252   3.210   4.112
 1437SOL    HW1 4997   1.302   3.287   4.152
 1437SOL    HW2 4998   1.157   3.212   4.144
 1438SOL     OW 4999   1.272   3.307   4.866
 1438SOL    HW1 5000   1.319   3.320   4.953
 1438SOL    HW2 5001   1.206   3.233   4.875
 1439SOL     OW 5002   1.582   2.501   4.196
 1439SOL    HW1 5003   1.551   2.562   4.269
 1439SOL    HW2 5004   1.632   2.553   4.127
 1440SOL     OW 5005   0.354   3.372   5.053
 1440SOL    HW1 5006   0.333   3.328   4.966
 1440SOL    HW2 5007   0.451   3.398   5.056
 1441SOL     OW 5008   0.402   2.613   5.322
 1441SOL    HW1 5009   0.470   2.668   5.275
 1441SOL    HW2 5010   0.442   2.525   5.349
 1442SOL     OW 5011   1.587   2.641   5.394
 1442SOL    HW1 5012   1.495   2.679   5.389
 1442SOL    HW2 5013   1.647   2.688   5.329
 1443SOL     OW 5014   1.013   1.967   5.494
 1443SOL    HW1 5015   1.019   2.052   5.442
 1443SOL    HW2 5016   1.045   1.891   5.437
 1444SOL     OW 5017   0.504   1.912   5.464
 1444SOL    HW1 5018   0.462   1.855   5.394
 1444SOL    HW2 5019   0.438   1.981   5.496
 1445SOL     OW 5020   0.573   2.732   4.753
 1445SOL    HW1 5021   0.617   2.821   4.744
 1445SOL    HW2 5022   0.510   2.732   4.830
 1446SOL     OW 5023   1.360   2.724   4.769
 1446SOL    HW1 5024   1.285   2.724   4.703
 1446SOL    HW2 5025   1.397   2.632   4.778
 1447SOL     OW 5026   1.209   2.387   3.999
 1447SOL    HW1 5027   1.222   2.303   4.053
 1447SOL    HW2 5028   1.180   2.461   4.059
 1448SOL     OW 5029   0.307   2.075   4.955
 1448SOL    HW1 5030   0.284   2.112   5.045
 1448SOL    HW2 5031   0.277   1.980   4.949
 1449SOL     OW 5032   0.037   3.172   5.006
 1449SOL    HW1 5033   0.090   3.123   5.074
 1449SOL    HW2 5034   0.059   3.270   5.011
 1450SOL     OW 5035   0.732   2.496   4.788
 1450SOL    HW1 5036   0.791   2.470   4.712
 1450SOL    HW2 5037   0.704   2.592   4.777
 1451SOL     OW 5038   1.728   2.797   5.578
 1451SOL    HW1 5039   1.682   2.790   5.489
 1451SOL    HW2 5040   1.666   2.841   5.644
 1452SOL     OW 5041   0.307   1.925   4.342
 1452SOL    HW1 5042   0.296   2.019   4.375
 1452SOL    HW2 5043   0.302   1.862   4.419
 1453SOL     OW 5044   1.622   2.229   4.098
 1453SOL    HW1 5045   1.624   2.153   4.162
 1453SOL    HW2 5046   1.574   2.306   4.138
 1454SOL     OW 5047   1.023   2.628   4.690
 1454SOL    HW1 5048   1.038   2.649   4.786
 1454SOL    HW2 5049   0.993   2.533   4.681
 1455SOL     OW 5050   0.980   3.435   5.424
 1455SOL    HW1 5051   0.960   3.479   5.336
 1455SOL    HW2 5052   1.019   3.344   5.408
 1456SOL     OW 5053   1.859   3.380   5.329
 1456SOL    HW1 5054   1.873   3.407   5.234
 1456SOL    HW2 5055   1.942   3.402   5.382
 1457SOL     OW 5056   0.350   2.760   5.528
 1457SOL    HW1 5057   0.426   2.804   5.576
 1457SOL    HW2 5058   0.385   2.713   5.446
 1458SOL     OW 5059   1.540   2.136   3.849
 1458SOL    HW1 5060   1.479   2.061   3.872
 1458SOL    HW2 5061   1.562   2.188   3.932
 1459SOL     OW 5062   1.303   2.700   3.766
 1459SOL    HW1 5063   1.337   2.607   3.781
 1459SOL    HW2 5064   1.321   2.727   3.671
 1460SOL     OW 5065   1.068   3.195   4.573
 1460SOL    HW1 5066   1.075   3.111   4.518
 1460SOL    HW2 5067   1.130   3.264   4.537
 1461SOL     OW 5068   0.319   2.672   4.673
 1461SOL    HW1 5069   0.412   2.708   4.678
 1461SOL    HW2 5070   0.313   2.587   4.725
 1462SOL     OW 5071   0.339   2.371   4.730
 1462SOL    HW1 5072   0.287   2.288   4.713
 1462SOL    HW2 5073   0.416   2.376   4.666
 1463SOL     OW 5074   1.138   2.242   5.402
 1463SOL    HW1 5075   1.093   2.305   5.466
 1463SOL    HW2 5076   1.231   2.273   5.385
 1464SOL     OW 5077   1.160   2.069   5.201
 1464SOL    HW1 5078   1.160   2.133   5.278
 1464SOL    HW2 5079   1.188   2.117   5.118
 1465SOL     OW 5080   0.008   3.188   3.924
 1465SOL    HW1 5081  -0.085   3.209   3.893
 1465SOL    HW2 5082   0.018   3.089   3.937
 1466SOL     OW 5083   0.088   3.663   4.651
 1466SOL    HW1 5084   0.046   3.577   4.624
 1466SOL    HW2 5085   0.182   3.666   4.617
 1467SOL     OW 5086   0.504   3.430   4.634
 1467SOL    HW1 5087   0.570   3.504   4.643
 1467SOL    HW2 5088   0.548   3.351   4.592
 1468SOL     OW 5089   1.002   2.658   4.962
 1468SOL    HW1 5090   1.043   2.626   5.048
 1468SOL    HW2 5091   0.906   2.631   4.959
 1469SOL     OW 5092   0.040   2.406   4.838
 1469SOL    HW1 5093   0.125   2.373   4.797
 1469SOL    HW2 5094   0.053   2.421   4.936
 1470SOL     OW 5095   0.189   2.382   5.446
 1470SOL    HW1 5096   0.248   2.342   5.376
 1470SOL    HW2 5097   0.131   2.453   5.405
 1471SOL     OW 5098   1.369   2.812   5.384
 1471SOL    HW1 5099   1.408   2.901   5.404
 1471SOL    HW2 5100   1.379   2.792   5.287
 1472SOL     OW 5101   0.815   2.434   4.049
 1472SOL    HW1 5102   0.822   2.345   4.003
 1472SOL    HW2 5103   0.721   2.468   4.041
 1473SOL     OW 5104   0.252   3.426   5.468
 1473SOL    HW1 5105   0.222   3.483   5.544
 1473SOL    HW2 5106   0.245   3.329   5.494
 1474SOL     OW 5107   0.671   2.326   4.993
 1474SOL    HW1 5108   0.637   2.237   4.963
 1474SOL    HW2 5109   0.697   2.380   4.913
 1475SOL     OW 5110   0.930   3.540   5.189
 1475SOL    HW1 5111   0.906   3.522   5.094
 1475SOL    HW2 5112   0.960   3.634   5.199
 1476SOL     OW 5113   0.473   2.362   3.915
 1476SOL    HW1 5114   0.534   2.442   3.919
 1476SOL    HW2 5115   0.378   2.393   3.922
 1477SOL     OW 5116   0.159   2.999   5.190
 1477SOL    HW1 5117   0.181   2.938   5.266
 1477SOL    HW2 5118   0.169   2.950   5.104
 1478SOL     OW 5119   1.347   2.921   4.958
 1478SOL    HW1 5120   1.371   2.858   4.884
 1478SOL    HW2 5121   1.257   2.961   4.940
 1479SOL     OW 5122   1.302   2.717   4.033
 1479SOL    HW1 5123   1.216   2.686   4.075
 1479SOL    HW2 5124   1.298   2.703   3.934
 1480SOL     OW 5125   1.759   3.609   4.878
 1480SOL    HW1 5126   1.820   3.639   4.805
 1480SOL    HW2 5127   1.721   3.520   4.856
 1481SOL     OW 5128   1.252   3.593   4.852
 1481SOL    HW1 5129   1.336   3.598   4.798
 1481SOL    HW2 5130   1.229   3.497   4.870
 1482SOL     OW 5131   0.083   3.120   4.746
 1482SOL    HW1 5132   0.078   3.119   4.846
 1482SOL    HW2 5133   0.000   3.079   4.708
 1483SOL     OW 5134   0.688   3.524   5.440
 1483SOL    HW1 5135   0.632   3.605   5.449
 1483SOL    HW2 5136   0.740   3.528   5.354
 1484SOL     OW 5137   1.726   1.997   4.247
 1484SOL    HW1 5138   1.799   1.980   4.180
 1484SOL    HW2 5139   1.695   1.910   4.285
 1485SOL     OW 5140   1.388   3.435   4.201
 1485SOL    HW1 5141   1.455   3.447   4.127
 1485SOL    HW2 5142   1.348   3.524   4.224
 1486SOL     OW 5143   0.130   3.656   5.575
 1486SOL    HW1 5144   0.089   3.582   5.628
 1486SOL    HW2 5145   0.194   3.707   5.633
 1487SOL     OW 5146   1.280   2.789   4.396
 1487SOL    HW1 5147   1.340   2.708   4.398
 1487SOL    HW2 5148   1.320   2.858   4.336
 1488SOL     OW 5149   0.830   3.135   5.146
 1488SOL    HW1 5150   0.825   3.168   5.241
 1488SOL    HW2 5151   0.744   3.154   5.100
 1489SOL     OW 5152   0.672   3.478   3.878
 1489SOL    HW1 5153   0.681   3.488   3.779
 1489SOL    HW2 5154   0.632   3.389   3.899
 1490SOL     OW 5155   1.650   3.582   5.118
 1490SOL    HW1 5156   1.703   3.592   5.034
 1490SOL    HW2 5157   1.623   3.672   5.152
 1491SOL     OW 5158   1.841   2.037   4.687
 1491SOL    HW1 5159   1.880   1.952   4.651
 1491SOL    HW2 5160   1.743   2.039   4.668
 1492SOL     OW 5161   0.263   2.188   4.444
 1492SOL    HW1 5162   0.184   2.239   4.410
 1492SOL    HW2 5163   0.254   2.173   4.542
 1493SOL     OW 5164   1.194   3.474   3.755
 1493SOL    HW1 5165   1.200   3.381   3.792
 1493SOL    HW2 5166   1.135   3.474   3.675
 1494SOL     OW 5167   0.822   2.864   5.096
 1494SOL    HW1 5168   0.862   2.863   5.004
 1494SOL    HW2 5169   0.832   2.956   5.136
 1495SOL     OW 5170   0.916   2.772   4.015
 1495SOL    HW1 5171   0.979   2.810   3.947
 1495SOL    HW2 5172   0.956   2.689   4.054
 1496SOL     OW 5173   1.504   3.469   3.768
 1496SOL    HW1 5174   1.412   3.506   3.775
 1496SOL    HW2 5175   1.542   3.489   3.678
 1497SOL     OW 5176   0.372   3.150   5.214
 1497SOL    HW1 5177   0.359   3.243   5.180
 1497SOL    HW2 5178   0.288   3.098   5.201
 1498SOL     OW 5179   1.614   3.154   5.013
 1498SOL    HW1 5180   1.674   3.157   5.093
 1498SOL    HW2 5181   1.539   3.218   5.026
 1499SOL     OW 5182   1.039   2.960   4.420
 1499SOL    HW1 5183   0.969   2.913   4.474
 1499SOL    HW2 5184   1.098   2.892   4.377
 1500SOL     OW 5185   1.014   2.098   4.695
 1500SOL    HW1 5186   1.006   2.062   4.602
 1500SOL    HW2 5187   1.012   2.022   4.760
 1501SOL     OW 5188   0.590   3.349   4.215
 1501SOL    HW1 5189   0.632   3.291   4.145
 1501SOL    HW2 5190   0.546   3.428   4.171
 1502SOL     OW 5191   1.709   2.247   5.105
 1502SOL    HW1 5192   1.782   2.316   5.109
 1502SOL    HW2 5193   1.737   2.172   5.046
 1503SOL     OW 5194   0.255   3.210   4.014
 1503SOL    HW1 5195   0.159   3.211   3.987
 1503SOL    HW2 5196   0.267   3.263   4.098
 1504SOL     OW 5197   0.105   2.875   5.450
 1504SOL    HW1 5198   0.028   2.842   5.504
 1504SOL    HW2 5199   0.190   2.845   5.492
 1505SOL     OW 5200   0.672   2.065   5.213
 1505SOL    HW1 5201   0.762   2.049   5.173
 1505SOL    HW2 5202   0.680   2.070   5.312
 1506SOL     OW 5203   0.075   2.207   3.757
 1506SOL    HW1 5204  -0.017   2.179   3.728
 1506SOL    HW2 5205   0.106   2.284   3.701
 1507SOL     OW 5206   1.440   2.718   5.122
 1507SOL    HW1 5207   1.383   2.770   5.059
 1507SOL    HW2 5208   1.536   2.730   5.098
 1508SOL     OW 5209   0.072   2.028   4.042
 1508SOL    HW1 5210   0.055   2.111   3.988
 1508SOL    HW2 5211   0.162   1.991   4.020
 1509SOL     OW 5212   1.183   3.197   3.843
 1509SOL    HW1 5213   1.084   3.186   3.845
 1509SOL    HW2 5214   1.217   3.212   3.936
 1510SOL     OW 5215   0.613   2.704   5.155
 1510SOL    HW1 5216   0.669   2.785   5.138
 1510SOL    HW2 5217   0.672   2.624   5.158
 1511SOL     OW 5218   1.493   3.629   4.683
 1511SOL    HW1 5219   1.526   3.693   4.614
 1511SOL    HW2 5220   1.559   3.623   4.758
 1512SOL     OW 5221   0.716   2.427   5.432
 1512SOL    HW1 5222   0.735   2.492   5.506
 1512SOL    HW2 5223   0.776   2.347   5.441
 1513SOL     OW 5224   1.450   3.082   5.357
 1513SOL    HW1 5225   1.441   3.072   5.456
 1513SOL    HW2 5226   1.546   3.075   5.331
 1514SOL     OW 5227   0.390   3.603   5.284
 1514SOL    HW1 5228   0.299   3.644   5.282
 1514SOL    HW2 5229   0.383   3.509   5.316
 1515SOL     OW 5230   1.674   2.745   4.978
 1515SOL    HW1 5231   1.647   2.656   4.941
 1515SOL    HW2 5232   1.675   2.813   4.905
 1516SOL     OW 5233   1.225   2.187   4.173
 1516SOL    HW1 5234   1.290   2.113   4.162
 1516SOL    HW2 5235   1.245   2.237   4.257
 1517SOL     OW 5236   0.594   2.607   4.376
 1517SOL    HW1 5237   0.644   2.692   4.357
 1517SOL    HW2 5238   0.506   2.609   4.328
 1518SOL     OW 5239   1.777   2.204   5.366
 1518SOL    HW1 5240   1.760   2.235   5.272
 1518SOL    HW2 5241   1.693   2.167   5.404
 1519SOL     OW 5242   1.730   2.796   5.241
 1519SOL    HW1 5243   1.768   2.887   5.256
 1519SOL    HW2 5244   1.722   2.779   5.142
 1520SOL     OW 5245   0.859   3.236   3.740
 1520SOL    HW1 5246   0.813   3.251   3.828
 1520SOL    HW2 5247   0.903   3.321   3.710
 1521SOL     OW 5248   0.661   3.652   4.677
 1521SOL    HW1 5249   0.615   3.740   4.664
 1521SOL    HW2 5250   0.760   3.664   4.670
 1522SOL     OW 5251   0.859   2.818   4.585
 1522SOL    HW1 5252   0.913   2.749   4.633
 1522SOL    HW2 5253   0.827   2.887   4.651
 1523SOL     OW 5254   1.083   2.846   3.811
 1523SOL    HW1 5255   1.060   2.899   3.729
 1523SOL    HW2 5256   1.164   2.790   3.792
 1524SOL     OW 5257   0.221   3.176   5.568
 1524SOL    HW1 5258   0.156   3.103   5.547
 1524SOL    HW2 5259   0.225   3.190   5.666
 1525SOL     OW 5260   0.079   3.102   4.377
 1525SOL    HW1 5261   0.078   3.055   4.465
 1525SOL    HW2 5262   0.161   3.074   4.326
 1526SOL     OW 5263   0.672   3.253   5.348
 1526SOL    HW1 5264   0.594   3.203   5.386
 1526SOL    HW2 5265   0.669   3.348   5.379
 1527SOL     OW 5266   1.824   2.054   4.951
 1527SOL    HW1 5267   1.820   1.964   4.995
 1527SOL    HW2 5268   1.827   2.043   4.852
 1528SOL     OW 5269   0.428   2.286   4.244
 1528SOL    HW1 5270   0.458   2.214   4.182
 1528SOL    HW2 5271   0.389   2.246   4.327
 1529SOL     OW 5272   1.705   3.349   4.828
 1529SOL    HW1 5273   1.612   3.324   4.801
 1529SOL    HW2 5274   1.731   3.299   4.910
 1530SOL     OW 5275   0.317   2.409   5.004
 1530SOL    HW1 5276   0.355   2.350   5.076
 1530SOL    HW2 5277   0.357   2.383   4.916
 1531SOL     OW 5278   0.812   3.448   4.411
 1531SOL    HW1 5279   0.844   3.458   4.317
 1531SOL    HW2 5280   0.733   3.386   4.413
 1532SOL     OW 5281   1.424   2.076   4.836
 1532SOL    HW1 5282   1.476   2.011   4.891
 1532SOL    HW2 5283   1.375   2.139   4.897
 1533SOL     OW 5284   1.001   1.896   4.878
 1533SOL    HW1 5285   0.938   1.824   4.847
 1533SOL    HW2 5286   1.094   1.860   4.878
 1534SOL     OW 5287   0.770   3.192   4.025
 1534SOL    HW1 5288   0.724   3.105   4.042
 1534SOL    HW2 5289   0.861   3.189   4.066
 1535SOL     OW 5290   0.618   3.429   5.008
 1535SOL    HW1 5291   0.613   3.511   5.065
 1535SOL    HW2 5292   0.707   3.426   4.963
 1536SOL     OW 5293   1.352   1.914   3.892
 1536SOL    HW1 5294   1.387   1.873   3.808
 1536SOL    HW2 5295   1.262   1.876   3.912
 1537SOL     OW 5296   1.300   2.315   4.415
 1537SOL    HW1 5297   1.241   2.395   4.419
 1537SOL    HW2 5298   1.315   2.280   4.508
 1538SOL     OW 5299   1.593   2.083   4.606
 1538SOL    HW1 5300   1.509   2.082   4.660
 1538SOL    HW2 5301   1.595   2.166   4.550
 1539SOL     OW 5302   0.039   2.939   4.024
 1539SOL    HW1 5303   0.138   2.928   4.015
 1539SOL    HW2 5304  -0.001   2.853   4.056
 1540SOL     OW 5305   0.875   3.508   4.061
 1540SOL    HW1 5306   0.798   3.473   4.007
 1540SOL    HW2 5307   0.843   3.579   4.123
 1541SOL     OW 5308   0.230   2.490   5.699
 1541SOL    HW1 5309   0.137   2.488   5.736
 1541SOL    HW2 5310   0.231   2.451   5.607
 1542SOL     OW 5311   0.225   2.137   6.582
 1542SOL    HW1 5312   0.260   2.120   6.674
 1542SOL    HW2 5313   0.137   2.092   6.570
 1543SOL     OW 5314   0.019   2.230   6.233
 1543SOL    HW1 5315  -0.063   2.273   6.272
 1543SOL    HW2 5316  -0.009   2.157   6.170
 1544SOL     OW 5317   0.569   3.137   6.751
 1544SOL    HW1 5318   0.476   3.130   6.714
 1544SOL    HW2 5319   0.580   3.226   6.795
 1545SOL     OW 5320   1.555   3.373   6.289
 1545SOL    HW1 5321   1.498   3.357   6.370
 1545SOL    HW2 5322   1.496   3.383   6.209
 1546SOL     OW 5323   1.135   2.565   6.303
 1546SOL    HW1 5324   1.192   2.643   6.278
 1546SOL    HW2 5325   1.075   2.591   6.379
 1547SOL     OW 5326   1.755   2.469   5.817
 1547SOL    HW1 5327   1.743   2.456   5.718
 1547SOL    HW2 5328   1.725   2.388   5.866
 1548SOL     OW 5329   0.768   3.006   6.609
 1548SOL    HW1 5330   0.690   3.023   6.669
 1548SOL    HW2 5331   0.802   3.093   6.573
 1549SOL     OW 5332   0.850   2.660   7.409
 1549SOL    HW1 5333   0.846   2.736   7.474
 1549SOL    HW2 5334   0.872   2.696   7.318
 1550SOL     OW 5335   0.685   2.874   6.251
 1550SOL    HW1 5336   0.754   2.858   6.321
 1550SOL    HW2 5337   0.612   2.931   6.289
 1551SOL     OW 5338   0.686   3.023   7.389
 1551SOL    HW1 5339   0.746   3.102   7.403
 1551SOL    HW2 5340   0.600   3.054   7.348
 1552SOL     OW 5341   0.335   3.297   6.647
 1552SOL    HW1 5342   0.257   3.266   6.594
 1552SOL    HW2 5343   0.393   3.355   6.590
 1553SOL     OW 5344   1.460   3.367   6.925
 1553SOL    HW1 5345   1.484   3.461   6.951
 1553SOL    HW2 5346   1.444   3.313   7.007
 1554SOL     OW 5347   0.438   2.254   7.085
 1554SOL    HW1 5348   0.520   2.198   7.094
 1554SOL    HW2 5349   0.357   2.196   7.089
 1555SOL     OW 5350   1.603   2.309   6.323
 1555SOL    HW1 5351   1.529   2.355   6.273
 1555SOL    HW2 5352   1.654   2.377   6.376
 1556SOL     OW 5353   0.231   3.575   6.069
 1556SOL    HW1 5354   0.265   3.652   6.123
 1556SOL    HW2 5355   0.275   3.575   5.979
 1557SOL     OW 5356   1.127   3.203   7.276
 1557SOL    HW1 5357   1.174   3.203   7.364
 1557SOL    HW2 5358   1.079   3.116   7.265
 1558SOL     OW 5359   0.230   3.296   6.124
 1558SOL    HW1 5360   0.204   3.392   6.124
 1558SOL    HW2 5361   0.159   3.242   6.169
 1559SOL     OW 5362   0.240   2.953   6.472
 1559SOL    HW1 5363   0.254   2.869   6.524
 1559SOL    HW2 5364   0.185   3.017   6.527
 1560SOL     OW 5365   0.620   3.648   7.025
 1560SOL    HW1 5366   0.528   3.631   7.060
 1560SOL    HW2 5367   0.648   3.740   7.051
 1561SOL     OW 5368   0.606   2.826   5.709
 1561SOL    HW1 5369   0.613   2.910   5.655
 1561SOL    HW2 5370   0.652   2.839   5.797
 1562SOL     OW 5371   1.594   1.976   7.066
 1562SOL    HW1 5372   1.576   2.043   6.994
 1562SOL    HW2 5373   1.591   2.022   7.155
 1563SOL     OW 5374   0.122   2.505   6.149
 1563SOL    HW1 5375   0.077   2.417   6.166
 1563SOL    HW2 5376   0.121   2.559   6.233
 1564SOL     OW 5377   1.842   3.629   5.945
 1564SOL    HW1 5378   1.896   3.600   6.025
 1564SOL    HW2 5379   1.872   3.719   5.916
 1565SOL     OW 5380   0.027   3.458   5.703
 1565SOL    HW1 5381   0.008   3.362   5.724
 1565SOL    HW2 5382  -0.006   3.516   5.778
 1566SOL     OW 5383   1.689   2.784   6.198
 1566SOL    HW1 5384   1.784   2.755   6.206
 1566SOL    HW2 5385   1.681   2.849   6.123
 1567SOL     OW 5386   1.641   2.970   6.018
 1567SOL    HW1 5387   1.727   2.972   5.966
 1567SOL    HW2 5388   1.655   3.017   6.106
 1568SOL     OW 5389   0.113   2.599   7.183
 1568SOL    HW1 5390   0.201   2.586   7.228
 1568SOL    HW2 5391   0.100   2.696   7.161
 1569SOL     OW 5392   0.613   3.227   6.312
 1569SOL    HW1 5393   0.564   3.140   6.321
 1569SOL    HW2 5394   0.590   3.270   6.225
 1570SOL     OW 5395   1.293   3.090   7.009
 1570SOL    HW1 5396   1.330   3.017   6.951
 1570SOL    HW2 5397   1.345   3.095   7.094
 1571SOL     OW 5398   0.809   1.866   6.088
 1571SOL    HW1 5399   0.849   1.957   6.079
 1571SOL    HW2 5400   0.709   1.874   6.094
 1572SOL     OW 5401   0.197   2.838   6.850
 1572SOL    HW1 5402   0.286   2.793   6.836
 1572SOL    HW2 5403   0.124   2.773   6.831
 1573SOL     OW 5404   1.525   2.861   5.776
 1573SOL    HW1 5405   1.462   2.785   5.789
 1573SOL    HW2 5406   1.573   2.879   5.862
 1574SOL     OW 5407   1.187   3.654   7.202
 1574SOL    HW1 5408   1.211   3.714   7.126
 1574SOL    HW2 5409   1.194   3.559   7.172
 1575SOL     OW 5410   0.317   2.113   7.387
 1575SOL    HW1 5411   0.388   2.184   7.393
 1575SOL    HW2 5412   0.229   2.152   7.415
 1576SOL     OW 5413   1.466   3.279   6.539
 1576SOL    HW1 5414   1.407   3.285   6.619
 1576SOL    HW2 5415   1.451   3.191   6.493
 1577SOL     OW 5416   1.667   3.576   6.158
 1577SOL    HW1 5417   1.626   3.553   6.070
 1577SOL    HW2 5418   1.649   3.502   6.223
 1578SOL     OW 5419   0.598   2.591   5.856
 1578SOL    HW1 5420   0.622   2.660   5.788
 1578SOL    HW2 5421   0.520   2.624   5.910
 1579SOL     OW 5422   1.281   2.207   6.530
 1579SOL    HW1 5423   1.195   2.157   6.517
 1579SOL    HW2 5424   1.343   2.153   6.586
 1580SOL     OW 5425   1.576   3.524   5.893
 1580SOL    HW1 5426   1.665   3.570   5.896
 1580SOL    HW2 5427   1.555   3.500   5.798
 1581SOL     OW 5428   0.807   2.467   7.051
 1581SOL    HW1 5429   0.760   2.464   7.140
 1581SOL    HW2 5430   0.756   2.412   6.985
 1582SOL     OW 5431   1.394   2.331   7.260
 1582SOL    HW1 5432   1.374   2.374   7.348
 1582SOL    HW2 5433   1.472   2.269   7.269
 1583SOL     OW 5434   0.973   2.752   7.158
 1583SOL    HW1 5435   1.019   2.668   7.129
 1583SOL    HW2 5436   0.917   2.786   7.083
 1584SOL     OW 5437   0.991   2.272   6.828
 1584SOL    HW1 5438   0.914   2.306   6.882
 1584SOL    HW2 5439   0.957   2.221   6.749
 1585SOL     OW 5440   1.041   2.563   6.015
 1585SOL    HW1 5441   1.067   2.559   6.111
 1585SOL    HW2 5442   0.956   2.512   6.001
 1586SOL     OW 5443   0.076   2.673   6.375
 1586SOL    HW1 5444   0.175   2.661   6.384
 1586SOL    HW2 5445   0.052   2.768   6.396
 1587SOL     OW 5446   0.130   3.683   7.157
 1587SOL    HW1 5447   0.120   3.668   7.256
 1587SOL    HW2 5448   0.044   3.719   7.121
 1588SOL     OW 5449   0.865   2.210   5.781
 1588SOL    HW1 5450   0.924   2.273   5.732
 1588SOL    HW2 5451   0.884   2.116   5.752
 1589SOL     OW 5452   1.719   2.447   7.417
 1589SOL    HW1 5453   1.693   2.536   7.381
 1589SOL    HW2 5454   1.717   2.379   7.344
 1590SOL     OW 5455   1.362   3.006   6.131
 1590SOL    HW1 5456   1.445   2.977   6.083
 1590SOL    HW2 5457   1.313   3.073   6.075
 1591SOL     OW 5458   0.550   2.058   6.471
 1591SOL    HW1 5459   0.545   2.053   6.571
 1591SOL    HW2 5460   0.552   2.154   6.442
 1592SOL     OW 5461   1.008   3.318   6.063
 1592SOL    HW1 5462   0.962   3.390   6.011
 1592SOL    HW2 5463   1.004   3.338   6.161
 1593SOL     OW 5464   0.351   3.663   6.439
 1593SOL    HW1 5465   0.401   3.577   6.445
 1593SOL    HW2 5466   0.416   3.740   6.436
 1594SOL     OW 5467   1.795   2.928   6.459
 1594SOL    HW1 5468   1.733   2.913   6.383
 1594SOL    HW2 5469   1.743   2.939   6.544
 1595SOL     OW 5470   1.227   3.412   7.092
 1595SOL    HW1 5471   1.233   3.335   7.156
 1595SOL    HW2 5472   1.175   3.386   7.012
 1596SOL     OW 5473   0.321   2.805   5.828
 1596SOL    HW1 5474   0.403   2.844   5.786
 1596SOL    HW2 5475   0.294   2.723   5.779
 1597SOL     OW 5476   1.458   2.597   6.314
 1597SOL    HW1 5477   1.453   2.532   6.389
 1597SOL    HW2 5478   1.538   2.656   6.327
 1598SOL     OW 5479   0.461   3.128   7.313
 1598SOL    HW1 5480   0.411   3.129   7.227
 1598SOL    HW2 5481   0.398   3.110   7.389
 1599SOL     OW 5482   1.111   3.638   5.823
 1599SOL    HW1 5483   1.051   3.576   5.873
 1599SOL    HW2 5484   1.142   3.594   5.738
 1600SOL     OW 5485   0.202   2.147   7.084
 1600SOL    HW1 5486   0.122   2.207   7.071
 1600SOL    HW2 5487   0.192   2.098   7.170
 1601SOL     OW 5488   1.632   3.239   5.667
 1601SOL    HW1 5489   1.600   3.333   5.657
 1601SOL    HW2 5490   1.556   3.176   5.655
 1602SOL     OW 5491   0.464   3.605   5.909
 1602SOL    HW1 5492   0.497   3.644   5.995
 1602SOL    HW2 5493   0.540   3.598   5.844
 1603SOL     OW 5494   1.400   1.969   6.012
 1603SOL    HW1 5495   1.376   1.932   5.922
 1603SOL    HW2 5496   1.499   1.985   6.016
 1604SOL     OW 5497   0.249   3.647   6.827
 1604SOL    HW1 5498   0.306   3.582   6.877
 1604SOL    HW2 5499   0.233   3.614   6.734
 1605SOL     OW 5500   0.940   3.560   6.490
 1605SOL    HW1 5501   1.020   3.503   6.511
 1605SOL    HW2 5502   0.891   3.520   6.413
 1606SOL     OW 5503   0.382   2.562   6.066
 1606SOL    HW1 5504   0.427   2.472   6.063
 1606SOL    HW2 5505   0.288   2.551   6.099
 1607SOL     OW 5506   1.547   2.084   7.315
 1607SOL    HW1 5507   1.542   2.121   7.407
 1607SOL    HW2 5508   1.475   2.015   7.303
 1608SOL     OW 5509   0.614   1.984   5.703
 1608SOL    HW1 5510   0.712   1.962   5.710
 1608SOL    HW2 5511   0.583   1.967   5.610
 1609SOL     OW 5512   0.781   2.126   7.335
 1609SOL    HW1 5513   0.848   2.065   7.378
 1609SOL    HW2 5514   0.708   2.145   7.400
 1610SOL     OW 5515   0.888   3.376   6.781
 1610SOL    HW1 5516   0.865   3.351   6.687
 1610SOL    HW2 5517   0.949   3.307   6.820
 1611SOL     OW 5518   1.351   2.452   7.019
 1611SOL    HW1 5519   1.379   2.409   7.104
 1611SOL    HW2 5520   1.376   2.548   7.020
 1612SOL     OW 5521   0.803   3.264   6.510
 1612SOL    HW1 5522   0.893   3.278   6.468
 1612SOL    HW2 5523   0.732   3.266   6.439
 1613SOL     OW 5524   0.922   2.365   6.485
 1613SOL    HW1 5525   0.897   2.356   6.389
 1613SOL    HW2 5526   0.970   2.283   6.516
 1614SOL     OW 5527   0.539   1.926   6.098
 1614SOL    HW1 5528   0.458   1.927   6.156
 1614SOL    HW2 5529   0.542   2.009   6.043
 1615SOL     OW 5530   1.434   3.050   5.627
 1615SOL    HW1 5531   1.466   2.974   5.684
 1615SOL    HW2 5532   1.342   3.077   5.657
 1616SOL     OW 5533   0.297   1.897   5.757
 1616SOL    HW1 5534   0.346   1.981   5.736
 1616SOL    HW2 5535   0.359   1.832   5.802
 1617SOL     OW 5536   0.935   2.098   6.066
 1617SOL    HW1 5537   0.887   2.139   5.988
 1617SOL    HW2 5538   1.034   2.096   6.047
 1618SOL     OW 5539   1.076   2.545   7.050
 1618SOL    HW1 5540   0.996   2.484   7.053
 1618SOL    HW2 5541   1.157   2.492   7.026
 1619SOL     OW 5542   1.227   3.432   6.379
 1619SOL    HW1 5543   1.248   3.506   6.314
 1619SOL    HW2 5544   1.295   3.432   6.452
 1620SOL     OW 5545   0.459   3.014   6.327
 1620SOL    HW1 5546   0.388   2.987   6.392
 1620SOL    HW2 5547   0.433   2.986   6.234
 1621SOL     OW 5548   1.271   3.659   6.177
 1621SOL    HW1 5549   1.315   3.723   6.113
 1621SOL    HW2 5550   1.221   3.711   6.247
 1622SOL     OW 5551   1.032   2.411   5.602
 1622SOL    HW1 5552   0.991   2.493   5.563
 1622SOL    HW2 5553   1.096   2.437   5.675
 1623SOL     OW 5554   0.078   2.418   6.972
 1623SOL    HW1 5555   0.170   2.417   6.931
 1623SOL    HW2 5556   0.072   2.492   7.039
 1624SOL     OW 5557   0.561   2.084   6.733
 1624SOL    HW1 5558   0.599   2.000   6.770
 1624SOL    HW2 5559   0.473   2.103   6.777
 1625SOL     OW 5560   0.866   2.316   6.228
 1625SOL    HW1 5561   0.834   2.388   6.166
 1625SOL    HW2 5562   0.890   2.235   6.175
 1626SOL     OW 5563   1.017   1.901   6.339
 1626SOL    HW1 5564   0.945   1.906   6.270
 1626SOL    HW2 5565   0.993   1.832   6.408
 1627SOL     OW 5566   1.429   3.035   6.453
 1627SOL    HW1 5567   1.374   2.951   6.446
 1627SOL    HW2 5568   1.455   3.064   6.361
 1628SOL     OW 5569   1.466   2.452   6.578
 1628SOL    HW1 5570   1.436   2.357   6.585
 1628SOL    HW2 5571   1.539   2.468   6.644
 1629SOL     OW 5572   1.857   2.695   5.963
 1629SOL    HW1 5573   1.899   2.631   6.027
 1629SOL    HW2 5574   1.819   2.644   5.885
 1630SOL     OW 5575   0.488   3.247   5.760
 1630SOL    HW1 5576   0.401   3.232   5.807
 1630SOL    HW2 5577   0.471   3.273   5.665
 1631SOL     OW 5578   1.664   3.142   6.243
 1631SOL    HW1 5579   1.763   3.150   6.257
 1631SOL    HW2 5580   1.619   3.226   6.274
 1632SOL     OW 5581   1.390   2.437   5.664
 1632SOL    HW1 5582   1.336   2.416   5.745
 1632SOL    HW2 5583   1.481   2.396   5.673
 1633SOL     OW 5584   0.527   2.118   5.914
 1633SOL    HW1 5585   0.554   2.059   5.839
 1633SOL    HW2 5586   0.527   2.213   5.883
 1634SOL     OW 5587   1.754   3.085   7.174
 1634SOL    HW1 5588   1.845   3.046   7.161
 1634SOL    HW2 5589   1.762   3.181   7.198
 1635SOL     OW 5590   1.064   3.209   6.926
 1635SOL    HW1 5591   0.984   3.186   6.981
 1635SOL    HW2 5592   1.147   3.183   6.975
 1636SOL     OW 5593   1.592   3.491   7.211
 1636SOL    HW1 5594   1.619   3.525   7.121
 1636SOL    HW2 5595   1.671   3.453   7.257
 1637SOL     OW 5596   1.111   3.057   6.686
 1637SOL    HW1 5597   1.071   3.101   6.767
 1637SOL    HW2 5598   1.070   3.094   6.603
 1638SOL     OW 5599   1.638   2.961   6.665
 1638SOL    HW1 5600   1.643   3.042   6.724
 1638SOL    HW2 5601   1.552   2.963   6.614
 1639SOL     OW 5602   0.915   1.951   6.988
 1639SOL    HW1 5603   0.940   1.931   6.893
 1639SOL    HW2 5604   0.987   2.007   7.030
 1640SOL     OW 5605   0.980   2.978   7.305
 1640SOL    HW1 5606   0.881   2.984   7.315
 1640SOL    HW2 5607   1.003   2.898   7.249
 1641SOL     OW 5608   0.705   2.912   5.954
 1641SOL    HW1 5609   0.691   2.919   6.053
 1641SOL    HW2 5610   0.789   2.861   5.936
 1642SOL     OW 5611   0.410   2.675   6.837
 1642SOL    HW1 5612   0.496   2.687   6.887
 1642SOL    HW2 5613   0.368   2.588   6.864
 1643SOL     OW 5614   1.274   2.248   6.848
 1643SOL    HW1 5615   1.295   2.322   6.912
 1643SOL    HW2 5616   1.185   2.265   6.805
 1644SOL     OW 5617   0.064   3.426   6.917
 1644SOL    HW1 5618   0.018   3.508   6.883
 1644SOL    HW2 5619   0.162   3.445   6.926
 1645SOL     OW 5620   0.367   2.962   6.087
 1645SOL    HW1 5621   0.360   3.045   6.031
 1645SOL    HW2 5622   0.371   2.882   6.027
 1646SOL     OW 5623   0.566   2.399   6.451
 1646SOL    HW1 5624   0.578   2.465   6.377
 1646SOL    HW2 5625   0.612   2.433   6.534
 1647SOL     OW 5626   1.252   3.210   5.974
 1647SOL    HW1 5627   1.302   3.287   6.014
 1647SOL    HW2 5628   1.157   3.212   6.006
 1648SOL     OW 5629   1.272   3.307   6.728
 1648SOL    HW1 5630   1.319   3.320   6.815
 1648SOL    HW2 5631   1.206   3.233   6.737
 1649SOL     OW 5632   1.582   2.501   6.058
 1649SOL    HW1 5633   1.551   2.562   6.131
 1649SOL    HW2 5634   1.632   2.553   5.989
 1650SOL     OW 5635   0.354   3.372   6.915
 1650SOL    HW1 5636   0.333   3.328   6.828
 1650SOL    HW2 5637   0.451   3.398   6.918
 1651SOL     OW 5638   0.402   2.613   7.184
 1651SOL    HW1 5639   0.470   2.668   7.137
 1651SOL    HW2 5640   0.442   2.525   7.211
 1652SOL     OW 5641   1.587   2.641   7.256
 1652SOL    HW1 5642   1.495   2.679   7.251
 1652SOL    HW2 5643   1.647   2.688   7.191
 1653SOL     OW 5644   1.013   1.967   7.356
 1653SOL    HW1 5645   1.019   2.052   7.304
 1653SOL    HW2 5646   1.045   1.891   7.299
 1654SOL     OW 5647   0.504   1.912   7.326
 1654SOL    HW1 5648   0.462   1.855   7.256
 1654SOL    HW2 5649   0.438   1.981   7.358
 1655SOL     OW 5650   0.573   2.732   6.615
 1655SOL    HW1 5651   0.617   2.821   6.606
 1655SOL    HW2 5652   0.510   2.732   6.692
 1656SOL     OW 5653   1.360   2.724   6.631
 1656SOL    HW1 5654   1.285   2.724   6.565
 1656SOL    HW2 5655   1.397   2.632   6.640
 1657SOL     OW 5656   1.209   2.387   5.861
 1657SOL    HW1 5657   1.222   2.303   5.915
 1657SOL    HW2 5658   1.180   2.461   5.921
 1658SOL     OW 5659   0.307   2.075   6.817
 1658SOL    HW1 5660   0.284   2.112   6.907
 1658SOL    HW2 5661   0.277   1.980   6.811
 1659SOL     OW 5662   0.037   3.172   6.868
 1659SOL    HW1 5663   0.090   3.123   6.936
 1659SOL    HW2 5664   0.059   3.270   6.873
 1660SOL     OW 5665   0.732   2.496   6.650
 1660SOL    HW1 5666   0.791   2.470   6.574
 1660SOL    HW2 5667   0.704   2.592   6.639
 1661SOL     OW 5668   1.728   2.797   7.440
 1661SOL    HW1 5669   1.682   2.790   7.351
 1661SOL    HW2 5670   1.666   2.841   7.506
 1662SOL     OW 5671   0.307   1.925   6.204
 1662SOL    HW1 5672   0.296   2.019   6.237
 1662SOL    HW2 5673   0.302   1.862   6.281
 1663SOL     OW 5674   1.622   2.229   5.960
 1663SOL    HW1 5675   1.624   2.153   6.024
 1663SOL    HW2 5676   1.574   2.306   6.000
 1664SOL     OW 5677   1.023   2.628   6.552
 1664SOL    HW1 5678   1.038   2.649   6.648
 1664SOL    HW2 5679   0.993   2.533   6.543
 1665SOL     OW 5680   0.980   3.435   7.286
 1665SOL    HW1 5681   0.960   3.479   7.198
 1665SOL    HW2 5682   1.019   3.344   7.270
 1666SOL     OW 5683   1.859   3.380   7.191
 1666SOL    HW1 5684   1.873   3.407   7.096
 1666SOL    HW2 5685   1.942   3.402   7.244
 1667SOL     OW 5686   0.350   2.760   7.390
 1667SOL    HW1 5687   0.426   2.804   7.438
 1667SOL    HW2 5688   0.385   2.713   7.308
 1668SOL     OW 5689   1.540   2.136   5.711
 1668SOL    HW1 5690   1.479   2.061   5.734
 1668SOL    HW2 5691   1.562   2.188   5.794
 1669SOL     OW 5692   1.303   2.700   5.628
 1669SOL    HW1 5693   1.337   2.607   5.643
 1669SOL    HW2 5694   1.321   2.727   5.533
 1670SOL     OW 5695   1.068   3.195   6.435
 1670SOL    HW1 5696   1.075   3.111   6.380
 1670SOL    HW2 5697   1.130   3.264   6.399
 1671SOL     OW 5698   0.319   2.672   6.535
 1671SOL    HW1 5699   0.412   2.708   6.540
 1671SOL    HW2 5700   0.313   2.587   6.587
 1672SOL     OW 5701   0.339   2.371   6.592
 1672SOL    HW1 5702   0.287   2.288   6.575
 1672SOL    HW2 5703   0.416   2.376   6.528
 1673SOL     OW 5704   1.138   2.242   7.264
 1673SOL    HW1 5705   1.093   2.305   7.328
 1673SOL    HW2 5706   1.231   2.273   7.247
 1674SOL     OW 5707   1.160   2.069   7.063
 1674SOL    HW1 5708   1.160   2.133   7.140
 1674SOL    HW2 5709   1.188   2.117   6.980
 1675SOL     OW 5710   0.008   3.188   5.786
 1675SOL    HW1 5711  -0.085   3.209   5.755
 1675SOL    HW2 5712   0.018   3.089   5.799
 1676SOL     OW 5713   0.088   3.663   6.513
 1676SOL    HW1 5714   0.046   3.577   6.486
 1676SOL    HW2 5715   0.182   3.666   6.479
 1677SOL     OW 5716   0.504   3.430   6.496
 1677SOL    HW1 5717   0.570   3.504   6.505
 1677SOL    HW2 5718   0.548   3.351   6.454
 1678SOL     OW 5719   1.002   2.658   6.824
 1678SOL    HW1 5720   1.043   2.626   6.910
 1678SOL    HW2 5721   0.906   2.631   6.821
 1679SOL     OW 5722   0.040   2.406   6.700
 1679SOL    HW1 5723   0.125   2.373   6.659
 1679SOL    HW2 5724   0.053   2.421   6.798
 1680SOL     OW 5725   0.189   2.382   7.308
 1680SOL    HW1 5726   0.248   2.342   7.238
 1680SOL    HW2 5727   0.131   2.453   7.267
 1681SOL     OW 5728   1.369   2.812   7.246
 1681SOL    HW1 5729   1.408   2.901   7.266
 1681SOL    HW2 5730   1.379   2.792   7.149
 1682SOL     OW 5731   0.815   2.434   5.911
 1682SOL    HW1 5732   0.822   2.345   5.865
 1682SOL    HW2 5733   0.721   2.468   5.903
 1683SOL     OW 5734   1.657   2.466   6.792
 1683SOL    HW1 5735   1.619   2.397   6.854
 1683SOL    HW2 5736   1.739   2.430   6.748
 1684SOL     OW 5737   0.252   3.426   7.330
 1684SOL    HW1 5738   0.222   3.483   7.406
 1684SOL    HW2 5739   0.245   3.329   7.356
 1685SOL     OW 5740   0.671   2.326   6.855
 1685SOL    HW1 5741   0.637   2.237   6.825
 1685SOL    HW2 5742   0.697   2.380   6.775
 1686SOL     OW 5743   0.930   3.540   7.051
 1686SOL    HW1 5744   0.906   3.522   6.956
 1686SOL    HW2 5745   0.960   3.634   7.061
 1687SOL     OW 5746   0.473   2.362   5.777
 1687SOL    HW1 5747   0.534   2.442   5.781
 1687SOL    HW2 5748   0.378   2.393   5.784
 1688SOL     OW 5749   0.159   2.999   7.052
 1688SOL    HW1 5750   0.181   2.938   7.128
 1688SOL    HW2 5751   0.169   2.950   6.966
 1689SOL     OW 5752   1.347   2.921   6.820
 1689SOL    HW1 5753   1.371   2.858   6.746
 1689SOL    HW2 5754   1.257   2.961   6.802
 1690SOL     OW 5755   1.302   2.717   5.895
 1690SOL    HW1 5756   1.216   2.686   5.937
 1690SOL    HW2 5757   1.298   2.703   5.796
 1691SOL     OW 5758   1.759   3.609   6.740
 1691SOL    HW1 5759   1.820   3.639   6.667
 1691SOL    HW2 5760   1.721   3.520   6.718
 1692SOL     OW 5761   1.252   3.593   6.714
 1692SOL    HW1 5762   1.336   3.598   6.660
 1692SOL    HW2 5763   1.229   3.497   6.732
 1693SOL     OW 5764   0.083   3.120   6.608
 1693SOL    HW1 5765   0.078   3.119   6.708
 1693SOL    HW2 5766   0.000   3.079   6.570
 1694SOL     OW 5767   0.688   3.524   7.302
 1694SOL    HW1 5768   0.632   3.605   7.311
 1694SOL    HW2 5769   0.740   3.528   7.216
 1695SOL     OW 5770   1.726   1.997   6.109
 1695SOL    HW1 5771   1.799   1.980   6.042
 1695SOL    HW2 5772   1.695   1.910   6.147
 1696SOL     OW 5773   1.388   3.435   6.063
 1696SOL    HW1 5774   1.455   3.447   5.989
 1696SOL    HW2 5775   1.348   3.524   6.086
 1697SOL     OW 5776   0.130   3.656   7.437
 1697SOL    HW1 5777   0.089   3.582   7.490
 1697SOL    HW2 5778   0.194   3.707   7.495
 1698SOL     OW 5779   1.280   2.789   6.258
 1698SOL    HW1 5780   1.340   2.708   6.260
 1698SOL    HW2 5781   1.320   2.858   6.198
 1699SOL     OW 5782   0.830   3.135   7.008
 1699SOL    HW1 5783   0.825   3.168   7.103
 1699SOL    HW2 5784   0.744   3.154   6.962
 1700SOL     OW 5785   0.672   3.478   5.740
 1700SOL    HW1 5786   0.681   3.488   5.641
 1700SOL    HW2 5787   0.632   3.389   5.761
 1701SOL     OW 5788   1.650   3.582   6.980
 1701SOL    HW1 5789   1.703   3.592   6.896
 1701SOL    HW2 5790   1.623   3.672   7.014
 1702SOL     OW 5791   1.841   2.037   6.549
 1702SOL    HW1 5792   1.880   1.952   6.513
 1702SOL    HW2 5793   1.743   2.039   6.530
 1703SOL     OW 5794   0.263   2.188   6.306
 1703SOL    HW1 5795   0.184   2.239   6.272
 1703SOL    HW2 5796   0.254   2.173   6.404
 1704SOL     OW 5797   1.194   3.474   5.617
 1704SOL    HW1 5798   1.200   3.381   5.654
 1704SOL    HW2 5799   1.135   3.474   5.537
 1705SOL     OW 5800   0.822   2.864   6.958
 1705SOL    HW1 5801   0.862   2.863   6.866
 1705SOL    HW2 5802   0.832   2.956   6.998
 1706SOL     OW 5803   0.916   2.772   5.877
 1706SOL    HW1 5804   0.979   2.810   5.809
 1706SOL    HW2 5805   0.956   2.689   5.916
 1707SOL     OW 5806   1.504   3.469   5.630
 1707SOL    HW1 5807   1.412   3.506   5.637
 1707SOL    HW2 5808   1.542   3.489   5.540
 1708SOL     OW 5809   0.372   3.150   7.076
 1708SOL    HW1 5810   0.359   3.243   7.042
 1708SOL    HW2 5811   0.288   3.098   7.063
 1709SOL     OW 5812   1.614   3.154   6.875
 1709SOL    HW1 5813   1.674   3.157   6.955
 1709SOL    HW2 5814   1.539   3.218   6.888
 1710SOL     OW 5815   1.039   2.960   6.282
 1710SOL    HW1 5816   0.969   2.913   6.336
 1710SOL    HW2 5817   1.098   2.892   6.239
 1711SOL     OW 5818   1.014   2.098   6.557
 1711SOL    HW1 5819   1.006   2.062   6.464
 1711SOL    HW2 5820   1.012   2.022   6.622
 1712SOL     OW 5821   0.590   3.349   6.077
 1712SOL    HW1 5822   0.632   3.291   6.007
 1712SOL    HW2 5823   0.546   3.428   6.033
 1713SOL     OW 5824   1.709   2.247   6.967
 1713SOL    HW1 5825   1.782   2.316   6.971
 1713SOL    HW2 5826   1.737   2.172   6.908
 1714SOL     OW 5827   0.255   3.210   5.876
 1714SOL    HW1 5828   0.159   3.211   5.849
 1714SOL    HW2 5829   0.267   3.263   5.960
 1715SOL     OW 5830   0.105   2.875   7.312
 1715SOL    HW1 5831   0.028   2.842   7.366
 1715SOL    HW2 5832   0.190   2.845   7.354
 1716SOL     OW 5833   0.672   2.065   7.075
 1716SOL    HW1 5834   0.762   2.049   7.035
 1716SOL    HW2 5835   0.680   2.070   7.174
 1717SOL     OW 5836   0.075   2.207   5.619
 1717SOL    HW1 5837  -0.017   2.179   5.590
 1717SOL    HW2 5838   0.106   2.284   5.563
 1718SOL     OW 5839   1.440   2.718   6.984
 1718SOL    HW1 5840   1.383   2.770   6.921
 1718SOL    HW2 5841   1.536   2.730   6.960
 1719SOL     OW 5842   0.072   2.028   5.904
 1719SOL    HW1 5843   0.055   2.111   5.850
 1719SOL    HW2 5844   0.162   1.991   5.882
 1720SOL     OW 5845   1.183   3.197   5.705
 1720SOL    HW1 5846   1.084   3.186   5.707
 1720SOL    HW2 5847   1.217   3.212   5.798
 1721SOL     OW 5848   0.613   2.704   7.017
 1721SOL    HW1 5849   0.669   2.785   7.000
 1721SOL    HW2 5850   0.672   2.624   7.020
 1722SOL     OW 5851   1.493   3.629   6.545
 1722SOL    HW1 5852   1.526   3.693   6.476
 1722SOL    HW2 5853   1.559   3.623   6.620
 1723SOL     OW 5854   0.716   2.427   7.294
 1723SOL    HW1 5855   0.735   2.492   7.368
 1723SOL    HW2 5856   0.776   2.347   7.303
 1724SOL     OW 5857   1.450   3.082   7.219
 1724SOL    HW1 5858   1.441   3.072   7.318
 1724SOL    HW2 5859   1.546   3.075   7.193
 1725SOL     OW 5860   0.390   3.603   7.146
 1725SOL    HW1 5861   0.299   3.644   7.144
 1725SOL    HW2 5862   0.383   3.509   7.178
 1726SOL     OW 5863   1.674   2.745   6.840
 1726SOL    HW1 5864   1.647   2.656   6.803
 1726SOL    HW2 5865   1.675   2.813   6.767
 1727SOL     OW 5866   1.225   2.187   6.035
 1727SOL    HW1 5867   1.290   2.113   6.024
 1727SOL    HW2 5868   1.245   2.237   6.119
 1728SOL     OW 5869   0.594   2.607   6.238
 1728SOL    HW1 5870   0.644   2.692   6.219
 1728SOL    HW2 5871   0.506   2.609   6.190
 1729SOL     OW 5872   1.777   2.204   7.228
 1729SOL    HW1 5873   1.760   2.235   7.134
 1729SOL    HW2 5874   1.693   2.167   7.266
 1730SOL     OW 5875   1.730   2.796   7.103
 1730SOL    HW1 5876   1.768   2.887   7.118
 1730SOL    HW2 5877   1.722   2.779   7.004
 1731SOL     OW 5878   0.859   3.236   5.602
 1731SOL    HW1 5879   0.813   3.251   5.690
 1731SOL    HW2 5880   0.903   3.321   5.572
 1732SOL     OW 5881   0.661   3.652   6.539
 1732SOL    HW1 5882   0.615   3.740   6.526
 1732SOL    HW2 5883   0.760   3.664   6.532
 1733SOL     OW 5884   0.859   2.818   6.447
 1733SOL    HW1 5885   0.913   2.749   6.495
 1733SOL    HW2 5886   0.827   2.887   6.513
 1734SOL     OW 5887   1.083   2.846   5.673
 1734SOL    HW1 5888   1.060   2.899   5.591
 1734SOL    HW2 5889   1.164   2.790   5.654
 1735SOL     OW 5890   1.861   3.431   6.437
 1735SOL    HW1 5891   1.790   3.419   6.367
 1735SOL    HW2 5892   1.862   3.352   6.497
 1736SOL     OW 5893   0.221   3.176   7.430
 1736SOL    HW1 5894   0.156   3.103   7.409
 1736SOL    HW2 5895   0.225   3.190   7.528
 1737SOL     OW 5896   0.079   3.102   6.239
 1737SOL    HW1 5897   0.078   3.055   6.327
 1737SOL    HW2 5898   0.161   3.074   6.188
 1738SOL     OW 5899   0.672   3.253   7.210
 1738SOL    HW1 5900   0.594   3.203   7.248
 1738SOL    HW2 5901   0.669   3.348   7.241
 1739SOL     OW 5902   1.824   2.054   6.813
 1739SOL    HW1 5903   1.820   1.964   6.857
 1739SOL    HW2 5904   1.827   2.043   6.714
 1740SOL     OW 5905   0.428   2.286   6.106
 1740SOL    HW1 5906   0.458   2.214   6.044
 1740SOL    HW2 5907   0.389   2.246   6.189
 1741SOL     OW 5908   1.705   3.349   6.690
 1741SOL    HW1 5909   1.612   3.324   6.663
 1741SOL    HW2 5910   1.731   3.299   6.772
 1742SOL     OW 5911   0.317   2.409   6.866
 1742SOL    HW1 5912   0.355   2.350   6.938
 1742SOL    HW2 5913   0.357   2.383   6.778
 1743SOL     OW 5914   0.812   3.448   6.273
 1743SOL    HW1 5915   0.844   3.458   6.179
 1743SOL    HW2 5916   0.733   3.386   6.275
 1744SOL     OW 5917   1.424   2.076   6.698
 1744SOL    HW1 5918   1.476   2.011   6.753
 1744SOL    HW2 5919   1.375   2.139   6.759
 1745SOL     OW 5920   1.001   1.896   6.740
 1745SOL    HW1 5921   0.938   1.824   6.709
 1745SOL    HW2 5922   1.094   1.860   6.740
 1746SOL     OW 5923   0.770   3.192   5.887
 1746SOL    HW1 5924   0.724   3.105   5.904
 1746SOL    HW2 5925   0.861   3.189   5.928
 1747SOL     OW 5926   0.618   3.429   6.870
 1747SOL    HW1 5927   0.613   3.511   6.927
 1747SOL    HW2 5928   0.707   3.426   6.825
 1748SOL     OW 5929   1.352   1.914   5.754
 1748SOL    HW1 5930   1.387   1.873   5.670
 1748SOL    HW2 5931   1.262   1.876   5.774
 1749SOL     OW 5932   1.300   2.315   6.277
 1749SOL    HW1 5933   1.241   2.395   6.281
 1749SOL    HW2 5934   1.315   2.280   6.370
 1750SOL     OW 5935   1.593   2.083   6.468
 1750SOL    HW1 5936   1.509   2.082   6.522
 1750SOL    HW2 5937   1.595   2.166   6.412
 1751SOL     OW 5938   0.039   2.939   5.886
 1751SOL    HW1 5939   0.138   2.928   5.877
 1751SOL    HW2 5940  -0.001   2.853   5.918
 1752SOL     OW 5941   0.875   3.508   5.923
 1752SOL    HW1 5942   0.798   3.473   5.869
 1752SOL    HW2 5943   0.843   3.579   5.985
 1753SOL     OW 5944   0.230   2.490   7.561
 1753SOL    HW1 5945   0.137   2.488   7.598
 1753SOL    HW2 5946   0.231   2.451   7.469
 1754SOL     OW 5947   1.755   2.469   7.679
 1754SOL    HW1 5948   1.743   2.456   7.580
 1754SOL    HW2 5949   1.725   2.388   7.728
 1755SOL     OW 5950   0.231   3.575   7.931
 1755SOL    HW1 5951   0.265   3.652   7.985
 1755SOL    HW2 5952   0.275   3.575   7.841
 1756SOL     OW 5953   0.230   3.296   7.986
 1756SOL    HW1 5954   0.204   3.392   7.986
 1756SOL    HW2 5955   0.159   3.242   8.031
 1757SOL     OW 5956   0.606   2.826   7.571
 1757SOL    HW1 5957   0.613   2.910   7.517
 1757SOL    HW2 5958   0.652   2.839   7.659
 1758SOL     OW 5959   1.842   3.629   7.807
 1758SOL    HW1 5960   1.896   3.600   7.887
 1758SOL    HW2 5961   1.872   3.719   7.778
 1759SOL     OW 5962   0.027   3.458   7.565
 1759SOL    HW1 5963   0.008   3.362   7.586
 1759SOL    HW2 5964  -0.006   3.516   7.640
 1760SOL     OW 5965   1.689   2.784   8.060
 1760SOL    HW1 5966   1.784   2.755   8.068
 1760SOL    HW2 5967   1.681   2.849   7.985
 1761SOL     OW 5968   1.641   2.970   7.880
 1761SOL    HW1 5969   1.727   2.972   7.828
 1761SOL    HW2 5970   1.655   3.017   7.968
 1762SOL     OW 5971   0.809   1.866   7.950
 1762SOL    HW1 5972   0.849   1.957   7.941
 1762SOL    HW2 5973   0.709   1.874   7.956
 1763SOL     OW 5974   1.525   2.861   7.638
 1763SOL    HW1 5975   1.462   2.785   7.651
 1763SOL    HW2 5976   1.573   2.879   7.724
 1764SOL     OW 5977   0.598   2.591   7.718
 1764SOL    HW1 5978   0.622   2.660   7.650
 1764SOL    HW2 5979   0.520   2.624   7.772
 1765SOL     OW 5980   1.576   3.524   7.755
 1765SOL    HW1 5981   1.665   3.570   7.758
 1765SOL    HW2 5982   1.555   3.500   7.660
 1766SOL     OW 5983   0.076   2.673   8.237
 1766SOL    HW1 5984   0.175   2.661   8.246
 1766SOL    HW2 5985   0.052   2.768   8.258
 1767SOL     OW 5986   0.865   2.210   7.643
 1767SOL    HW1 5987   0.924   2.273   7.594
 1767SOL    HW2 5988   0.884   2.116   7.614
 1768SOL     OW 5989   0.321   2.805   7.690
 1768SOL    HW1 5990   0.403   2.844   7.648
 1768SOL    HW2 5991   0.294   2.723   7.641
 1769SOL     OW 5992   1.111   3.638   7.685
 1769SOL    HW1 5993   1.051   3.576   7.735
 1769SOL    HW2 5994   1.142   3.594   7.600
 1770SOL     OW 5995   1.632   3.239   7.529
 1770SOL    HW1 5996   1.600   3.333   7.519
 1770SOL    HW2 5997   1.556   3.176   7.517
 1771SOL     OW 5998   0.464   3.605   7.771
 1771SOL    HW1 5999   0.497   3.644   7.857
 1771SOL    HW2 6000   0.540   3.598   7.706
 1772SOL     OW 6001   1.400   1.969   7.874
 1772SOL    HW1 6002   1.376   1.932   7.784
 1772SOL    HW2 6003   1.499   1.985   7.878
 1773SOL     OW 6004   0.382   2.562   7.928
 1773SOL    HW1 6005   0.427   2.472   7.925
 1773SOL    HW2 6006   0.288   2.551   7.961
 1774SOL     OW 6007   0.614   1.984   7.565
 1774SOL    HW1 6008   0.712   1.962   7.572
 1774SOL    HW2 6009   0.583   1.967   7.472
 1775SOL     OW 6010   0.539   1.926   7.960
 1775SOL    HW1 6011   0.458   1.927   8.018
 1775SOL    HW2 6012   0.542   2.009   7.905
 1776SOL     OW 6013   1.434   3.050   7.489
 1776SOL    HW1 6014   1.466   2.974   7.546
 1776SOL    HW2 6015   1.342   3.077   7.519
 1777SOL     OW 6016   0.297   1.897   7.619
 1777SOL    HW1 6017   0.346   1.981   7.598
 1777SOL    HW2 6018   0.359   1.832   7.664
 1778SOL     OW 6019   0.935   2.098   7.928
 1778SOL    HW1 6020   0.887   2.139   7.850
 1778SOL    HW2 6021   1.034   2.096   7.909
 1779SOL     OW 6022   0.459   3.014   8.189
 1779SOL    HW1 6023   0.388   2.987   8.254
 1779SOL    HW2 6024   0.433   2.986   8.096
 1780SOL     OW 6025   1.271   3.659   8.039
 1780SOL    HW1 6026   1.315   3.723   7.975
 1780SOL    HW2 6027   1.221   3.711   8.109
 1781SOL     OW 6028   1.032   2.411   7.464
 1781SOL    HW1 6029   0.991   2.493   7.425
 1781SOL    HW2 6030   1.096   2.437   7.537
 1782SOL     OW 6031   1.857   2.695   7.825
 1782SOL    HW1 6032   1.899   2.631   7.889
 1782SOL    HW2 6033   1.819   2.644   7.747
 1783SOL     OW 6034   0.488   3.247   7.622
 1783SOL    HW1 6035   0.401   3.232   7.669
 1783SOL    HW2 6036   0.471   3.273   7.527
 1784SOL     OW 6037   1.390   2.437   7.526
 1784SOL    HW1 6038   1.336   2.416   7.607
 1784SOL    HW2 6039   1.481   2.396   7.535
 1785SOL     OW 6040   0.527   2.118   7.776
 1785SOL    HW1 6041   0.554   2.059   7.701
 1785SOL    HW2 6042   0.527   2.213   7.745
 1786SOL     OW 6043   0.705   2.912   7.816
 1786SOL    HW1 6044   0.691   2.919   7.915
 1786SOL    HW2 6045   0.789   2.861   7.798
 1787SOL     OW 6046   0.367   2.962   7.949
 1787SOL    HW1 6047   0.360   3.045   7.893
 1787SOL    HW2 6048   0.371   2.882   7.889
 1788SOL     OW 6049   1.252   3.210   7.836
 1788SOL    HW1 6050   1.302   3.287   7.876
 1788SOL    HW2 6051   1.157   3.212   7.868
 1789SOL     OW 6052   1.582   2.501   7.920
 1789SOL    HW1 6053   1.551   2.562   7.993
 1789SOL    HW2 6054   1.632   2.553   7.851
 1790SOL     OW 6055   1.209   2.387   7.723
 1790SOL    HW1 6056   1.222   2.303   7.777
 1790SOL    HW2 6057   1.180   2.461   7.783
 1791SOL     OW 6058   1.622   2.229   7.822
 1791SOL    HW1 6059   1.624   2.153   7.886
 1791SOL    HW2 6060   1.574   2.306   7.862
 1792SOL     OW 6061   1.540   2.136   7.573
 1792SOL    HW1 6062   1.479   2.061   7.596
 1792SOL    HW2 6063   1.562   2.188   7.656
 1793SOL     OW 6064   1.303   2.700   7.490
 1793SOL    HW1 6065   1.337   2.607   7.505
 1793SOL    HW2 6066   1.321   2.727   7.395
 1794SOL     OW 6067   0.008   3.188   7.648
 1794SOL    HW1 6068  -0.085   3.209   7.617
 1794SOL    HW2 6069   0.018   3.089   7.661
 1795SOL     OW 6070   0.815   2.434   7.773
 1795SOL    HW1 6071   0.822   2.345   7.727
 1795SOL    HW2 6072   0.721   2.468   7.765
 1796SOL     OW 6073   0.473   2.362   7.639
 1796SOL    HW1 6074   0.534   2.442   7.643
 1796SOL    HW2 6075   0.378   2.393   7.646
 1797SOL     OW 6076   1.302   2.717   7.757
 1797SOL    HW1 6077   1.216   2.686   7.799
 1797SOL    HW2 6078   1.298   2.703   7.658
 1798SOL     OW 6079   1.726   1.997   7.971
 1798SOL    HW1 6080   1.799   1.980   7.904
 1798SOL    HW2 6081   1.695   1.910   8.009
 1799SOL     OW 6082   1.388   3.435   7.925
 1799SOL    HW1 6083   1.455   3.447   7.851
 1799SOL    HW2 6084   1.348   3.524   7.948
 1800SOL     OW 6085   0.672   3.478   7.602
 1800SOL    HW1 6086   0.681   3.488   7.503
 1800SOL    HW2 6087   0.632   3.389   7.623
 1801SOL     OW 6088   1.194   3.474   7.479
 1801SOL    HW1 6089   1.200   3.381   7.516
 1801SOL    HW2 6090   1.135   3.474   7.399
 1802SOL     OW 6091   0.916   2.772   7.739
 1802SOL    HW1 6092   0.979   2.810   7.671
 1802SOL    HW2 6093   0.956   2.689   7.778
 1803SOL     OW 6094   1.504   3.469   7.492
 1803SOL    HW1 6095   1.412   3.506   7.499
 1803SOL    HW2 6096   1.542   3.489   7.402
 1804SOL     OW 6097   0.590   3.349   7.939
 1804SOL    HW1 6098   0.632   3.291   7.869
 1804SOL    HW2 6099   0.546   3.428   7.895
 1805SOL     OW 6100   0.255   3.210   7.738
 1805SOL    HW1 6101   0.159   3.211   7.711
 1805SOL    HW2 6102   0.267   3.263   7.822
 1806SOL     OW 6103   0.075   2.207   7.481
 1806SOL    HW1 6104  -0.017   2.179   7.452
 1806SOL    HW2 6105   0.106   2.284   7.425
 1807SOL     OW 6106   0.072   2.028   7.766
 1807SOL    HW1 6107   0.055   2.111   7.712
 1807SOL    HW2 6108   0.162   1.991   7.744
 1808SOL     OW 6109   1.183   3.197   7.567
 1808SOL    HW1 6110   1.084   3.186   7.569
 1808SOL    HW2 6111   1.217   3.212   7.660
 1809SOL     OW 6112   1.225   2.187   7.897
 1809SOL    HW1 6113   1.290   2.113   7.886
 1809SOL    HW2 6114   1.245   2.237   7.981
 1810SOL     OW 6115   0.594   2.607   8.100
 1810SOL    HW1 6116   0.644   2.692   8.081
 1810SOL    HW2 6117   0.506   2.609   8.052
 1811SOL     OW 6118   0.859   3.236   7.464
 1811SOL    HW1 6119   0.813   3.251   7.552
 1811SOL    HW2 6120   0.903   3.321   7.434
 1812SOL     OW 6121   1.083   2.846   7.535
 1812SOL    HW1 6122   1.060   2.899   7.453
 1812SOL    HW2 6123   1.164   2.790   7.516
 1813SOL     OW 6124   0.428   2.286   7.968
 1813SOL    HW1 6125   0.458   2.214   7.906
 1813SOL    HW2 6126   0.389   2.246   8.051
 1814SOL     OW 6127   0.770   3.192   7.749
 1814SOL    HW1 6128   0.724   3.105   7.766
 1814SOL    HW2 6129   0.861   3.189   7.790
 1815SOL     OW 6130   1.352   1.914   7.616
 1815SOL    HW1 6131   1.387   1.873   7.532
 1815SOL    HW2 6132   1.262   1.876   7.636
 1816SOL     OW 6133   0.039   2.939   7.748
 1816SOL    HW1 6134   0.138   2.928   7.739
 1816SOL    HW2 6135  -0.001   2.853   7.780
 1817SOL     OW 6136   0.875   3.508   7.785
 1817SOL    HW1 6137   0.798   3.473   7.731
 1817SOL    HW2 6138   0.843   3.579   7.847
 1818SOL     OW 6139   0.230   4.352   0.113
 1818SOL    HW1 6140   0.137   4.350   0.150
 1818SOL    HW2 6141   0.231   4.313   0.021
 1819SOL     OW 6142   0.225   3.999   0.996
 1819SOL    HW1 6143   0.260   3.982   1.088
 1819SOL    HW2 6144   0.137   3.954   0.984
 1820SOL     OW 6145   0.019   4.092   0.647
 1820SOL    HW1 6146  -0.063   4.135   0.686
 1820SOL    HW2 6147  -0.009   4.019   0.584
 1821SOL     OW 6148   0.569   4.999   1.165
 1821SOL    HW1 6149   0.476   4.992   1.128
 1821SOL    HW2 6150   0.580   5.088   1.209
 1822SOL     OW 6151   1.555   5.235   0.703
 1822SOL    HW1 6152   1.498   5.219   0.784
 1822SOL    HW2 6153   1.496   5.245   0.623
 1823SOL     OW 6154   1.135   4.427   0.717
 1823SOL    HW1 6155   1.192   4.505   0.692
 1823SOL    HW2 6156   1.075   4.453   0.793
 1824SOL     OW 6157   1.755   4.331   0.231
 1824SOL    HW1 6158   1.743   4.318   0.132
 1824SOL    HW2 6159   1.725   4.250   0.280
 1825SOL     OW 6160   0.768   4.868   1.023
 1825SOL    HW1 6161   0.690   4.885   1.083
 1825SOL    HW2 6162   0.802   4.955   0.987
 1826SOL     OW 6163   0.850   4.522   1.823
 1826SOL    HW1 6164   0.846   4.598   1.888
 1826SOL    HW2 6165   0.872   4.558   1.732
 1827SOL     OW 6166   0.685   4.736   0.665
 1827SOL    HW1 6167   0.754   4.720   0.735
 1827SOL    HW2 6168   0.612   4.793   0.703
 1828SOL     OW 6169   0.686   4.885   1.803
 1828SOL    HW1 6170   0.746   4.964   1.817
 1828SOL    HW2 6171   0.600   4.916   1.762
 1829SOL     OW 6172   0.335   5.159   1.061
 1829SOL    HW1 6173   0.257   5.128   1.008
 1829SOL    HW2 6174   0.393   5.217   1.004
 1830SOL     OW 6175   1.460   5.229   1.339
 1830SOL    HW1 6176   1.484   5.323   1.365
 1830SOL    HW2 6177   1.444   5.175   1.421
 1831SOL     OW 6178   0.438   4.116   1.499
 1831SOL    HW1 6179   0.520   4.060   1.508
 1831SOL    HW2 6180   0.357   4.058   1.503
 1832SOL     OW 6181   1.603   4.171   0.737
 1832SOL    HW1 6182   1.529   4.217   0.687
 1832SOL    HW2 6183   1.654   4.239   0.790
 1833SOL     OW 6184   1.127   5.065   1.690
 1833SOL    HW1 6185   1.174   5.065   1.778
 1833SOL    HW2 6186   1.079   4.978   1.679
 1834SOL     OW 6187   0.230   5.158   0.538
 1834SOL    HW1 6188   0.204   5.254   0.538
 1834SOL    HW2 6189   0.159   5.104   0.583
 1835SOL     OW 6190   0.240   4.815   0.886
 1835SOL    HW1 6191   0.254   4.731   0.938
 1835SOL    HW2 6192   0.185   4.879   0.941
 1836SOL     OW 6193   0.606   4.688   0.123
 1836SOL    HW1 6194   0.613   4.772   0.069
 1836SOL    HW2 6195   0.652   4.701   0.211
 1837SOL     OW 6196   1.594   3.838   1.480
 1837SOL    HW1 6197   1.576   3.905   1.408
 1837SOL    HW2 6198   1.591   3.884   1.569
 1838SOL     OW 6199   0.122   4.367   0.563
 1838SOL    HW1 6200   0.077   4.279   0.580
 1838SOL    HW2 6201   0.121   4.421   0.647
 1839SOL     OW 6202   0.027   5.320   0.117
 1839SOL    HW1 6203   0.008   5.224   0.138
 1839SOL    HW2 6204  -0.006   5.378   0.192
 1840SOL     OW 6205   1.689   4.646   0.612
 1840SOL    HW1 6206   1.784   4.617   0.620
 1840SOL    HW2 6207   1.681   4.711   0.537
 1841SOL     OW 6208   1.641   4.832   0.432
 1841SOL    HW1 6209   1.727   4.834   0.380
 1841SOL    HW2 6210   1.655   4.879   0.520
 1842SOL     OW 6211   0.113   4.461   1.597
 1842SOL    HW1 6212   0.201   4.448   1.642
 1842SOL    HW2 6213   0.100   4.558   1.575
 1843SOL     OW 6214   0.613   5.089   0.726
 1843SOL    HW1 6215   0.564   5.002   0.735
 1843SOL    HW2 6216   0.590   5.132   0.639
 1844SOL     OW 6217   1.293   4.952   1.423
 1844SOL    HW1 6218   1.330   4.879   1.365
 1844SOL    HW2 6219   1.345   4.957   1.508
 1845SOL     OW 6220   0.809   3.728   0.502
 1845SOL    HW1 6221   0.849   3.819   0.493
 1845SOL    HW2 6222   0.709   3.736   0.508
 1846SOL     OW 6223   0.197   4.700   1.264
 1846SOL    HW1 6224   0.286   4.655   1.250
 1846SOL    HW2 6225   0.124   4.635   1.245
 1847SOL     OW 6226   1.525   4.723   0.190
 1847SOL    HW1 6227   1.462   4.647   0.203
 1847SOL    HW2 6228   1.573   4.741   0.276
 1848SOL     OW 6229   0.317   3.975   1.801
 1848SOL    HW1 6230   0.388   4.046   1.807
 1848SOL    HW2 6231   0.229   4.014   1.829
 1849SOL     OW 6232   1.466   5.141   0.953
 1849SOL    HW1 6233   1.407   5.147   1.033
 1849SOL    HW2 6234   1.451   5.053   0.907
 1850SOL     OW 6235   0.598   4.453   0.270
 1850SOL    HW1 6236   0.622   4.522   0.202
 1850SOL    HW2 6237   0.520   4.486   0.324
 1851SOL     OW 6238   1.281   4.069   0.944
 1851SOL    HW1 6239   1.195   4.019   0.931
 1851SOL    HW2 6240   1.343   4.015   1.000
 1852SOL     OW 6241   0.807   4.329   1.465
 1852SOL    HW1 6242   0.760   4.326   1.554
 1852SOL    HW2 6243   0.756   4.274   1.399
 1853SOL     OW 6244   1.394   4.193   1.674
 1853SOL    HW1 6245   1.374   4.236   1.762
 1853SOL    HW2 6246   1.472   4.131   1.683
 1854SOL     OW 6247   0.973   4.614   1.572
 1854SOL    HW1 6248   1.019   4.530   1.543
 1854SOL    HW2 6249   0.917   4.648   1.497
 1855SOL     OW 6250   0.991   4.134   1.242
 1855SOL    HW1 6251   0.914   4.168   1.296
 1855SOL    HW2 6252   0.957   4.083   1.163
 1856SOL     OW 6253   1.041   4.425   0.429
 1856SOL    HW1 6254   1.067   4.421   0.525
 1856SOL    HW2 6255   0.956   4.374   0.415
 1857SOL     OW 6256   0.076   4.535   0.789
 1857SOL    HW1 6257   0.175   4.523   0.798
 1857SOL    HW2 6258   0.052   4.630   0.810
 1858SOL     OW 6259   0.865   4.072   0.195
 1858SOL    HW1 6260   0.924   4.135   0.146
 1858SOL    HW2 6261   0.884   3.978   0.166
 1859SOL     OW 6262   1.719   4.309   1.831
 1859SOL    HW1 6263   1.693   4.398   1.795
 1859SOL    HW2 6264   1.717   4.241   1.758
 1860SOL     OW 6265   1.362   4.868   0.545
 1860SOL    HW1 6266   1.445   4.839   0.497
 1860SOL    HW2 6267   1.313   4.935   0.489
 1861SOL     OW 6268   0.550   3.920   0.885
 1861SOL    HW1 6269   0.545   3.915   0.985
 1861SOL    HW2 6270   0.552   4.016   0.856
 1862SOL     OW 6271   1.008   5.180   0.477
 1862SOL    HW1 6272   0.962   5.252   0.425
 1862SOL    HW2 6273   1.004   5.200   0.575
 1863SOL     OW 6274   1.795   4.790   0.873
 1863SOL    HW1 6275   1.733   4.775   0.797
 1863SOL    HW2 6276   1.743   4.801   0.958
 1864SOL     OW 6277   1.227   5.274   1.506
 1864SOL    HW1 6278   1.233   5.197   1.570
 1864SOL    HW2 6279   1.175   5.248   1.426
 1865SOL     OW 6280   0.321   4.667   0.242
 1865SOL    HW1 6281   0.403   4.706   0.200
 1865SOL    HW2 6282   0.294   4.585   0.193
 1866SOL     OW 6283   1.458   4.459   0.728
 1866SOL    HW1 6284   1.453   4.394   0.803
 1866SOL    HW2 6285   1.538   4.518   0.741
 1867SOL     OW 6286   0.461   4.990   1.727
 1867SOL    HW1 6287   0.411   4.991   1.641
 1867SOL    HW2 6288   0.398   4.972   1.803
 1868SOL     OW 6289   1.111   5.500   0.237
 1868SOL    HW1 6290   1.051   5.438   0.287
 1868SOL    HW2 6291   1.142   5.456   0.152
 1869SOL     OW 6292   0.202   4.009   1.498
 1869SOL    HW1 6293   0.122   4.069   1.485
 1869SOL    HW2 6294   0.192   3.960   1.584
 1870SOL     OW 6295   1.632   5.101   0.081
 1870SOL    HW1 6296   1.600   5.195   0.071
 1870SOL    HW2 6297   1.556   5.038   0.069
 1871SOL     OW 6298   1.400   3.831   0.426
 1871SOL    HW1 6299   1.376   3.794   0.336
 1871SOL    HW2 6300   1.499   3.847   0.430
 1872SOL     OW 6301   0.382   4.424   0.480
 1872SOL    HW1 6302   0.427   4.334   0.477
 1872SOL    HW2 6303   0.288   4.413   0.513
 1873SOL     OW 6304   1.547   3.946   1.729
 1873SOL    HW1 6305   1.542   3.983   1.821
 1873SOL    HW2 6306   1.475   3.877   1.717
 1874SOL     OW 6307   0.614   3.846   0.117
 1874SOL    HW1 6308   0.712   3.824   0.124
 1874SOL    HW2 6309   0.583   3.829   0.024
 1875SOL     OW 6310   0.781   3.988   1.749
 1875SOL    HW1 6311   0.848   3.927   1.792
 1875SOL    HW2 6312   0.708   4.007   1.814
 1876SOL     OW 6313   1.351   4.314   1.433
 1876SOL    HW1 6314   1.379   4.271   1.518
 1876SOL    HW2 6315   1.376   4.410   1.434
 1877SOL     OW 6316   0.803   5.126   0.924
 1877SOL    HW1 6317   0.893   5.140   0.882
 1877SOL    HW2 6318   0.732   5.128   0.853
 1878SOL     OW 6319   0.922   4.227   0.899
 1878SOL    HW1 6320   0.897   4.218   0.803
 1878SOL    HW2 6321   0.970   4.145   0.930
 1879SOL     OW 6322   0.539   3.788   0.512
 1879SOL    HW1 6323   0.458   3.789   0.570
 1879SOL    HW2 6324   0.542   3.871   0.457
 1880SOL     OW 6325   1.434   4.912   0.041
 1880SOL    HW1 6326   1.466   4.836   0.098
 1880SOL    HW2 6327   1.342   4.939   0.071
 1881SOL     OW 6328   0.297   3.759   0.171
 1881SOL    HW1 6329   0.346   3.843   0.150
 1881SOL    HW2 6330   0.359   3.694   0.216
 1882SOL     OW 6331   0.935   3.960   0.480
 1882SOL    HW1 6332   0.887   4.001   0.402
 1882SOL    HW2 6333   1.034   3.958   0.461
 1883SOL     OW 6334   1.076   4.407   1.464
 1883SOL    HW1 6335   0.996   4.346   1.467
 1883SOL    HW2 6336   1.157   4.354   1.440
 1884SOL     OW 6337   1.227   5.294   0.793
 1884SOL    HW1 6338   1.248   5.368   0.728
 1884SOL    HW2 6339   1.295   5.294   0.866
 1885SOL     OW 6340   0.459   4.876   0.741
 1885SOL    HW1 6341   0.388   4.849   0.806
 1885SOL    HW2 6342   0.433   4.848   0.648
 1886SOL     OW 6343   1.032   4.273   0.016
 1886SOL    HW1 6344   0.991   4.355  -0.023
 1886SOL    HW2 6345   1.096   4.299   0.089
 1887SOL     OW 6346   0.078   4.280   1.386
 1887SOL    HW1 6347   0.170   4.279   1.345
 1887SOL    HW2 6348   0.072   4.354   1.453
 1888SOL     OW 6349   0.561   3.946   1.147
 1888SOL    HW1 6350   0.599   3.862   1.184
 1888SOL    HW2 6351   0.473   3.965   1.191
 1889SOL     OW 6352   0.866   4.178   0.642
 1889SOL    HW1 6353   0.834   4.250   0.580
 1889SOL    HW2 6354   0.890   4.097   0.589
 1890SOL     OW 6355   1.017   3.763   0.753
 1890SOL    HW1 6356   0.945   3.768   0.684
 1890SOL    HW2 6357   0.993   3.694   0.822
 1891SOL     OW 6358   1.429   4.897   0.867
 1891SOL    HW1 6359   1.374   4.813   0.860
 1891SOL    HW2 6360   1.455   4.926   0.775
 1892SOL     OW 6361   1.466   4.314   0.992
 1892SOL    HW1 6362   1.436   4.219   0.999
 1892SOL    HW2 6363   1.539   4.330   1.058
 1893SOL     OW 6364   1.857   4.557   0.377
 1893SOL    HW1 6365   1.899   4.493   0.441
 1893SOL    HW2 6366   1.819   4.506   0.299
 1894SOL     OW 6367   0.488   5.109   0.174
 1894SOL    HW1 6368   0.401   5.094   0.221
 1894SOL    HW2 6369   0.471   5.135   0.079
 1895SOL     OW 6370   1.664   5.004   0.657
 1895SOL    HW1 6371   1.763   5.012   0.671
 1895SOL    HW2 6372   1.619   5.088   0.688
 1896SOL     OW 6373   1.390   4.299   0.078
 1896SOL    HW1 6374   1.336   4.278   0.159
 1896SOL    HW2 6375   1.481   4.258   0.087
 1897SOL     OW 6376   0.527   3.980   0.328
 1897SOL    HW1 6377   0.554   3.921   0.253
 1897SOL    HW2 6378   0.527   4.075   0.297
 1898SOL     OW 6379   1.754   4.947   1.588
 1898SOL    HW1 6380   1.845   4.908   1.575
 1898SOL    HW2 6381   1.762   5.043   1.612
 1899SOL     OW 6382   1.064   5.071   1.340
 1899SOL    HW1 6383   0.984   5.048   1.395
 1899SOL    HW2 6384   1.147   5.045   1.389
 1900SOL     OW 6385   1.111   4.919   1.100
 1900SOL    HW1 6386   1.071   4.963   1.181
 1900SOL    HW2 6387   1.070   4.956   1.017
 1901SOL     OW 6388   1.638   4.823   1.079
 1901SOL    HW1 6389   1.643   4.904   1.138
 1901SOL    HW2 6390   1.552   4.825   1.028
 1902SOL     OW 6391   0.915   3.813   1.402
 1902SOL    HW1 6392   0.940   3.793   1.307
 1902SOL    HW2 6393   0.987   3.869   1.444
 1903SOL     OW 6394   0.980   4.840   1.719
 1903SOL    HW1 6395   0.881   4.846   1.729
 1903SOL    HW2 6396   1.003   4.760   1.663
 1904SOL     OW 6397   0.705   4.774   0.368
 1904SOL    HW1 6398   0.691   4.781   0.467
 1904SOL    HW2 6399   0.789   4.723   0.350
 1905SOL     OW 6400   0.410   4.537   1.251
 1905SOL    HW1 6401   0.496   4.549   1.301
 1905SOL    HW2 6402   0.368   4.450   1.278
 1906SOL     OW 6403   1.274   4.110   1.262
 1906SOL    HW1 6404   1.295   4.184   1.326
 1906SOL    HW2 6405   1.185   4.127   1.219
 1907SOL     OW 6406   0.064   5.288   1.331
 1907SOL    HW1 6407   0.018   5.370   1.297
 1907SOL    HW2 6408   0.162   5.307   1.340
 1908SOL     OW 6409   0.367   4.824   0.501
 1908SOL    HW1 6410   0.360   4.907   0.445
 1908SOL    HW2 6411   0.371   4.744   0.441
 1909SOL     OW 6412   0.566   4.261   0.865
 1909SOL    HW1 6413   0.578   4.327   0.791
 1909SOL    HW2 6414   0.612   4.295   0.948
 1910SOL     OW 6415   1.252   5.072   0.388
 1910SOL    HW1 6416   1.302   5.149   0.428
 1910SOL    HW2 6417   1.157   5.074   0.420
 1911SOL     OW 6418   1.272   5.169   1.142
 1911SOL    HW1 6419   1.319   5.182   1.229
 1911SOL    HW2 6420   1.206   5.095   1.151
 1912SOL     OW 6421   1.582   4.363   0.472
 1912SOL    HW1 6422   1.551   4.424   0.545
 1912SOL    HW2 6423   1.632   4.415   0.403
 1913SOL     OW 6424   0.354   5.234   1.329
 1913SOL    HW1 6425   0.333   5.190   1.242
 1913SOL    HW2 6426   0.451   5.260   1.332
 1914SOL     OW 6427   0.402   4.475   1.598
 1914SOL    HW1 6428   0.470   4.530   1.551
 1914SOL    HW2 6429   0.442   4.387   1.625
 1915SOL     OW 6430   1.587   4.503   1.670
 1915SOL    HW1 6431   1.495   4.541   1.665
 1915SOL    HW2 6432   1.647   4.550   1.605
 1916SOL     OW 6433   1.013   3.829   1.770
 1916SOL    HW1 6434   1.019   3.914   1.718
 1916SOL    HW2 6435   1.045   3.753   1.713
 1917SOL     OW 6436   0.504   3.774   1.740
 1917SOL    HW1 6437   0.462   3.717   1.670
 1917SOL    HW2 6438   0.438   3.843   1.772
 1918SOL     OW 6439   0.573   4.594   1.029
 1918SOL    HW1 6440   0.617   4.683   1.020
 1918SOL    HW2 6441   0.510   4.594   1.106
 1919SOL     OW 6442   1.360   4.586   1.045
 1919SOL    HW1 6443   1.285   4.586   0.979
 1919SOL    HW2 6444   1.397   4.494   1.054
 1920SOL     OW 6445   1.209   4.249   0.275
 1920SOL    HW1 6446   1.222   4.165   0.329
 1920SOL    HW2 6447   1.180   4.323   0.335
 1921SOL     OW 6448   0.307   3.937   1.231
 1921SOL    HW1 6449   0.284   3.974   1.321
 1921SOL    HW2 6450   0.277   3.842   1.225
 1922SOL     OW 6451   0.037   5.034   1.282
 1922SOL    HW1 6452   0.090   4.985   1.350
 1922SOL    HW2 6453   0.059   5.132   1.287
 1923SOL     OW 6454   0.732   4.358   1.064
 1923SOL    HW1 6455   0.791   4.332   0.988
 1923SOL    HW2 6456   0.704   4.454   1.053
 1924SOL     OW 6457   1.728   4.659   1.854
 1924SOL    HW1 6458   1.682   4.652   1.765
 1924SOL    HW2 6459   1.666   4.703   1.920
 1925SOL     OW 6460   0.307   3.787   0.618
 1925SOL    HW1 6461   0.296   3.881   0.651
 1925SOL    HW2 6462   0.302   3.724   0.695
 1926SOL     OW 6463   1.622   4.091   0.374
 1926SOL    HW1 6464   1.624   4.015   0.438
 1926SOL    HW2 6465   1.574   4.168   0.414
 1927SOL     OW 6466   1.023   4.490   0.966
 1927SOL    HW1 6467   1.038   4.511   1.062
 1927SOL    HW2 6468   0.993   4.395   0.957
 1928SOL     OW 6469   1.859   5.242   1.605
 1928SOL    HW1 6470   1.873   5.269   1.510
 1928SOL    HW2 6471   1.942   5.264   1.658
 1929SOL     OW 6472   0.350   4.622   1.804
 1929SOL    HW1 6473   0.426   4.666   1.852
 1929SOL    HW2 6474   0.385   4.575   1.722
 1930SOL     OW 6475   1.540   3.998   0.125
 1930SOL    HW1 6476   1.479   3.923   0.148
 1930SOL    HW2 6477   1.562   4.050   0.208
 1931SOL     OW 6478   1.303   4.562   0.042
 1931SOL    HW1 6479   1.337   4.469   0.057
 1931SOL    HW2 6480   1.321   4.589  -0.053
 1932SOL     OW 6481   1.068   5.057   0.849
 1932SOL    HW1 6482   1.075   4.973   0.794
 1932SOL    HW2 6483   1.130   5.126   0.813
 1933SOL     OW 6484   0.319   4.534   0.949
 1933SOL    HW1 6485   0.412   4.570   0.954
 1933SOL    HW2 6486   0.313   4.449   1.001
 1934SOL     OW 6487   0.339   4.233   1.006
 1934SOL    HW1 6488   0.287   4.150   0.989
 1934SOL    HW2 6489   0.416   4.238   0.942
 1935SOL     OW 6490   1.138   4.104   1.678
 1935SOL    HW1 6491   1.093   4.167   1.742
 1935SOL    HW2 6492   1.231   4.135   1.661
 1936SOL     OW 6493   1.160   3.931   1.477
 1936SOL    HW1 6494   1.160   3.995   1.554
 1936SOL    HW2 6495   1.188   3.979   1.394
 1937SOL     OW 6496   0.008   5.050   0.200
 1937SOL    HW1 6497  -0.085   5.071   0.169
 1937SOL    HW2 6498   0.018   4.951   0.213
 1938SOL     OW 6499   1.002   4.520   1.238
 1938SOL    HW1 6500   1.043   4.488   1.324
 1938SOL    HW2 6501   0.906   4.493   1.235
 1939SOL     OW 6502   0.040   4.268   1.114
 1939SOL    HW1 6503   0.125   4.235   1.073
 1939SOL    HW2 6504   0.053   4.283   1.212
 1940SOL     OW 6505   0.189   4.244   1.722
 1940SOL    HW1 6506   0.248   4.204   1.652
 1940SOL    HW2 6507   0.131   4.315   1.681
 1941SOL     OW 6508   1.369   4.674   1.660
 1941SOL    HW1 6509   1.408   4.763   1.680
 1941SOL    HW2 6510   1.379   4.654   1.563
 1942SOL     OW 6511   0.815   4.296   0.325
 1942SOL    HW1 6512   0.822   4.207   0.279
 1942SOL    HW2 6513   0.721   4.330   0.317
 1943SOL     OW 6514   1.657   4.328   1.206
 1943SOL    HW1 6515   1.619   4.259   1.268
 1943SOL    HW2 6516   1.739   4.292   1.162
 1944SOL     OW 6517   0.252   5.288   1.744
 1944SOL    HW1 6518   0.222   5.345   1.820
 1944SOL    HW2 6519   0.245   5.191   1.770
 1945SOL     OW 6520   0.671   4.188   1.269
 1945SOL    HW1 6521   0.637   4.099   1.239
 1945SOL    HW2 6522   0.697   4.242   1.189
 1946SOL     OW 6523   0.473   4.224   0.191
 1946SOL    HW1 6524   0.534   4.304   0.195
 1946SOL    HW2 6525   0.378   4.255   0.198
 1947SOL     OW 6526   0.159   4.861   1.466
 1947SOL    HW1 6527   0.181   4.800   1.542
 1947SOL    HW2 6528   0.169   4.812   1.380
 1948SOL     OW 6529   1.347   4.783   1.234
 1948SOL    HW1 6530   1.371   4.720   1.160
 1948SOL    HW2 6531   1.257   4.823   1.216
 1949SOL     OW 6532   1.302   4.579   0.309
 1949SOL    HW1 6533   1.216   4.548   0.351
 1949SOL    HW2 6534   1.298   4.565   0.210
 1950SOL     OW 6535   0.083   4.982   1.022
 1950SOL    HW1 6536   0.078   4.981   1.122
 1950SOL    HW2 6537   0.000   4.941   0.984
 1951SOL     OW 6538   0.688   5.386   1.716
 1951SOL    HW1 6539   0.632   5.467   1.725
 1951SOL    HW2 6540   0.740   5.390   1.630
 1952SOL     OW 6541   0.903   3.810   0.133
 1952SOL    HW1 6542   0.954   3.811   0.047
 1952SOL    HW2 6543   0.959   3.768   0.204
 1953SOL     OW 6544   1.726   3.859   0.523
 1953SOL    HW1 6545   1.799   3.842   0.456
 1953SOL    HW2 6546   1.695   3.772   0.561
 1954SOL     OW 6547   1.280   4.651   0.672
 1954SOL    HW1 6548   1.340   4.570   0.674
 1954SOL    HW2 6549   1.320   4.720   0.612
 1955SOL     OW 6550   0.830   4.997   1.422
 1955SOL    HW1 6551   0.825   5.030   1.517
 1955SOL    HW2 6552   0.744   5.016   1.376
 1956SOL     OW 6553   1.841   3.899   0.963
 1956SOL    HW1 6554   1.880   3.814   0.927
 1956SOL    HW2 6555   1.743   3.901   0.944
 1957SOL     OW 6556   0.263   4.050   0.720
 1957SOL    HW1 6557   0.184   4.101   0.686
 1957SOL    HW2 6558   0.254   4.035   0.818
 1958SOL     OW 6559   1.194   5.336   0.031
 1958SOL    HW1 6560   1.200   5.243   0.068
 1958SOL    HW2 6561   1.135   5.336  -0.049
 1959SOL     OW 6562   0.822   4.726   1.372
 1959SOL    HW1 6563   0.862   4.725   1.280
 1959SOL    HW2 6564   0.832   4.818   1.412
 1960SOL     OW 6565   0.916   4.634   0.291
 1960SOL    HW1 6566   0.979   4.672   0.223
 1960SOL    HW2 6567   0.956   4.551   0.330
 1961SOL     OW 6568   0.372   5.012   1.490
 1961SOL    HW1 6569   0.359   5.105   1.456
 1961SOL    HW2 6570   0.288   4.960   1.477
 1962SOL     OW 6571   1.614   5.016   1.289
 1962SOL    HW1 6572   1.674   5.019   1.369
 1962SOL    HW2 6573   1.539   5.080   1.302
 1963SOL     OW 6574   1.039   4.822   0.696
 1963SOL    HW1 6575   0.969   4.775   0.750
 1963SOL    HW2 6576   1.098   4.754   0.653
 1964SOL     OW 6577   1.014   3.960   0.971
 1964SOL    HW1 6578   1.006   3.924   0.878
 1964SOL    HW2 6579   1.012   3.884   1.036
 1965SOL     OW 6580   1.709   4.109   1.381
 1965SOL    HW1 6581   1.782   4.178   1.385
 1965SOL    HW2 6582   1.737   4.034   1.322
 1966SOL     OW 6583   0.255   5.072   0.290
 1966SOL    HW1 6584   0.159   5.073   0.263
 1966SOL    HW2 6585   0.267   5.125   0.374
 1967SOL     OW 6586   0.105   4.737   1.726
 1967SOL    HW1 6587   0.028   4.704   1.780
 1967SOL    HW2 6588   0.190   4.707   1.768
 1968SOL     OW 6589   0.672   3.927   1.489
 1968SOL    HW1 6590   0.762   3.911   1.449
 1968SOL    HW2 6591   0.680   3.932   1.588
 1969SOL     OW 6592   0.075   4.069   0.033
 1969SOL    HW1 6593  -0.017   4.041   0.004
 1969SOL    HW2 6594   0.106   4.146  -0.023
 1970SOL     OW 6595   1.440   4.580   1.398
 1970SOL    HW1 6596   1.383   4.632   1.335
 1970SOL    HW2 6597   1.536   4.592   1.374
 1971SOL     OW 6598   0.072   3.890   0.318
 1971SOL    HW1 6599   0.055   3.973   0.264
 1971SOL    HW2 6600   0.162   3.853   0.296
 1972SOL     OW 6601   1.183   5.059   0.119
 1972SOL    HW1 6602   1.084   5.048   0.121
 1972SOL    HW2 6603   1.217   5.074   0.212
 1973SOL     OW 6604   0.613   4.566   1.431
 1973SOL    HW1 6605   0.669   4.647   1.414
 1973SOL    HW2 6606   0.672   4.486   1.434
 1974SOL     OW 6607   0.716   4.289   1.708
 1974SOL    HW1 6608   0.735   4.354   1.782
 1974SOL    HW2 6609   0.776   4.209   1.717
 1975SOL     OW 6610   1.450   4.944   1.633
 1975SOL    HW1 6611   1.441   4.934   1.732
 1975SOL    HW2 6612   1.546   4.937   1.607
 1976SOL     OW 6613   1.674   4.607   1.254
 1976SOL    HW1 6614   1.647   4.518   1.217
 1976SOL    HW2 6615   1.675   4.675   1.181
 1977SOL     OW 6616   1.225   4.049   0.449
 1977SOL    HW1 6617   1.290   3.975   0.438
 1977SOL    HW2 6618   1.245   4.099   0.533
 1978SOL     OW 6619   0.594   4.469   0.652
 1978SOL    HW1 6620   0.644   4.554   0.633
 1978SOL    HW2 6621   0.506   4.471   0.604
 1979SOL     OW 6622   1.777   4.066   1.642
 1979SOL    HW1 6623   1.760   4.097   1.548
 1979SOL    HW2 6624   1.693   4.029   1.680
 1980SOL     OW 6625   1.730   4.658   1.517
 1980SOL    HW1 6626   1.768   4.749   1.532
 1980SOL    HW2 6627   1.722   4.641   1.418
 1981SOL     OW 6628   0.859   5.098   0.016
 1981SOL    HW1 6629   0.813   5.113   0.104
 1981SOL    HW2 6630   0.903   5.183  -0.014
 1982SOL     OW 6631   0.859   4.680   0.861
 1982SOL    HW1 6632   0.913   4.611   0.909
 1982SOL    HW2 6633   0.827   4.749   0.927
 1983SOL     OW 6634   1.083   4.708   0.087
 1983SOL    HW1 6635   1.060   4.761   0.005
 1983SOL    HW2 6636   1.164   4.652   0.068
 1984SOL     OW 6637   0.221   5.038   1.844
 1984SOL    HW1 6638   0.156   4.965   1.823
 1984SOL    HW2 6639   0.225   5.052   1.942
 1985SOL     OW 6640   0.079   4.964   0.653
 1985SOL    HW1 6641   0.078   4.917   0.741
 1985SOL    HW2 6642   0.161   4.936   0.602
 1986SOL     OW 6643   0.672   5.115   1.624
 1986SOL    HW1 6644   0.594   5.065   1.662
 1986SOL    HW2 6645   0.669   5.210   1.655
 1987SOL     OW 6646   1.824   3.916   1.227
 1987SOL    HW1 6647   1.820   3.826   1.271
 1987SOL    HW2 6648   1.827   3.905   1.128
 1988SOL     OW 6649   0.428   4.148   0.520
 1988SOL    HW1 6650   0.458   4.076   0.458
 1988SOL    HW2 6651   0.389   4.108   0.603
 1989SOL     OW 6652   1.705   5.211   1.104
 1989SOL    HW1 6653   1.612   5.186   1.077
 1989SOL    HW2 6654   1.731   5.161   1.186
 1990SOL     OW 6655   0.317   4.271   1.280
 1990SOL    HW1 6656   0.355   4.212   1.352
 1990SOL    HW2 6657   0.357   4.245   1.192
 1991SOL     OW 6658   1.424   3.938   1.112
 1991SOL    HW1 6659   1.476   3.873   1.167
 1991SOL    HW2 6660   1.375   4.001   1.173
 1992SOL     OW 6661   1.001   3.758   1.154
 1992SOL    HW1 6662   0.938   3.686   1.123
 1992SOL    HW2 6663   1.094   3.722   1.154
 1993SOL     OW 6664   0.770   5.054   0.301
 1993SOL    HW1 6665   0.724   4.967   0.318
 1993SOL    HW2 6666   0.861   5.051   0.342
 1994SOL     OW 6667   0.618   5.291   1.284
 1994SOL    HW1 6668   0.613   5.373   1.341
 1994SOL    HW2 6669   0.707   5.288   1.239
 1995SOL     OW 6670   1.352   3.776   0.168
 1995SOL    HW1 6671   1.387   3.735   0.084
 1995SOL    HW2 6672   1.262   3.738   0.188
 1996SOL     OW 6673   1.300   4.177   0.691
 1996SOL    HW1 6674   1.241   4.257   0.695
 1996SOL    HW2 6675   1.315   4.142   0.784
 1997SOL     OW 6676   1.593   3.945   0.882
 1997SOL    HW1 6677   1.509   3.944   0.936
 1997SOL    HW2 6678   1.595   4.028   0.826
 1998SOL     OW 6679   0.039   4.801   0.300
 1998SOL    HW1 6680   0.138   4.790   0.291
 1998SOL    HW2 6681  -0.001   4.715   0.332
 1999SOL     OW 6682   0.230   4.352   1.975
 1999SOL    HW1 6683   0.137   4.350   2.012
 1999SOL    HW2 6684   0.231   4.313   1.883
 2000SOL     OW 6685   0.225   3.999   2.858
 2000SOL    HW1 6686   0.260   3.982   2.950
 2000SOL    HW2 6687   0.137   3.954   2.846
 2001SOL     OW 6688   0.019   4.092   2.509
 2001SOL    HW1 6689  -0.063   4.135   2.548
 2001SOL    HW2 6690  -0.009   4.019   2.446
 2002SOL     OW 6691   0.569   4.999   3.027
 2002SOL    HW1 6692   0.476   4.992   2.990
 2002SOL    HW2 6693   0.580   5.088   3.071
 2003SOL     OW 6694   1.555   5.235   2.565
 2003SOL    HW1 6695   1.498   5.219   2.646
 2003SOL    HW2 6696   1.496   5.245   2.485
 2004SOL     OW 6697   1.135   4.427   2.579
 2004SOL    HW1 6698   1.192   4.505   2.554
 2004SOL    HW2 6699   1.075   4.453   2.655
 2005SOL     OW 6700   1.755   4.331   2.093
 2005SOL    HW1 6701   1.743   4.318   1.994
 2005SOL    HW2 6702   1.725   4.250   2.142
 2006SOL     OW 6703   0.768   4.868   2.885
 2006SOL    HW1 6704   0.690   4.885   2.945
 2006SOL    HW2 6705   0.802   4.955   2.849
 2007SOL     OW 6706   0.850   4.522   3.685
 2007SOL    HW1 6707   0.846   4.598   3.750
 2007SOL    HW2 6708   0.872   4.558   3.594
 2008SOL     OW 6709   0.685   4.736   2.527
 2008SOL    HW1 6710   0.754   4.720   2.597
 2008SOL    HW2 6711   0.612   4.793   2.565
 2009SOL     OW 6712   0.686   4.885   3.665
 2009SOL    HW1 6713   0.746   4.964   3.679
 2009SOL    HW2 6714   0.600   4.916   3.624
 2010SOL     OW 6715   0.335   5.159   2.923
 2010SOL    HW1 6716   0.257   5.128   2.870
 2010SOL    HW2 6717   0.393   5.217   2.866
 2011SOL     OW 6718   1.460   5.229   3.201
 2011SOL    HW1 6719   1.484   5.323   3.227
 2011SOL    HW2 6720   1.444   5.175   3.283
 2012SOL     OW 6721   0.438   4.116   3.361
 2012SOL    HW1 6722   0.520   4.060   3.370
 2012SOL    HW2 6723   0.357   4.058   3.365
 2013SOL     OW 6724   1.603   4.171   2.599
 2013SOL    HW1 6725   1.529   4.217   2.549
 2013SOL    HW2 6726   1.654   4.239   2.652
 2014SOL     OW 6727   1.127   5.065   3.552
 2014SOL    HW1 6728   1.174   5.065   3.640
 2014SOL    HW2 6729   1.079   4.978   3.541
 2015SOL     OW 6730   0.230   5.158   2.400
 2015SOL    HW1 6731   0.204   5.254   2.400
 2015SOL    HW2 6732   0.159   5.104   2.445
 2016SOL     OW 6733   0.240   4.815   2.748
 2016SOL    HW1 6734   0.254   4.731   2.800
 2016SOL    HW2 6735   0.185   4.879   2.803
 2017SOL     OW 6736   0.606   4.688   1.985
 2017SOL    HW1 6737   0.613   4.772   1.931
 2017SOL    HW2 6738   0.652   4.701   2.073
 2018SOL     OW 6739   1.594   3.838   3.342
 2018SOL    HW1 6740   1.576   3.905   3.270
 2018SOL    HW2 6741   1.591   3.884   3.431
 2019SOL     OW 6742   0.122   4.367   2.425
 2019SOL    HW1 6743   0.077   4.279   2.442
 2019SOL    HW2 6744   0.121   4.421   2.509
 2020SOL     OW 6745   0.027   5.320   1.979
 2020SOL    HW1 6746   0.008   5.224   2.000
 2020SOL    HW2 6747  -0.006   5.378   2.054
 2021SOL     OW 6748   1.689   4.646   2.474
 2021SOL    HW1 6749   1.784   4.617   2.482
 2021SOL    HW2 6750   1.681   4.711   2.399
 2022SOL     OW 6751   1.641   4.832   2.294
 2022SOL    HW1 6752   1.727   4.834   2.242
 2022SOL    HW2 6753   1.655   4.879   2.382
 2023SOL     OW 6754   0.113   4.461   3.459
 2023SOL    HW1 6755   0.201   4.448   3.504
 2023SOL    HW2 6756   0.100   4.558   3.437
 2024SOL     OW 6757   0.613   5.089   2.588
 2024SOL    HW1 6758   0.564   5.002   2.597
 2024SOL    HW2 6759   0.590   5.132   2.501
 2025SOL     OW 6760   1.293   4.952   3.285
 2025SOL    HW1 6761   1.330   4.879   3.227
 2025SOL    HW2 6762   1.345   4.957   3.370
 2026SOL     OW 6763   0.809   3.728   2.364
 2026SOL    HW1 6764   0.849   3.819   2.355
 2026SOL    HW2 6765   0.709   3.736   2.370
 2027SOL     OW 6766   0.197   4.700   3.126
 2027SOL    HW1 6767   0.286   4.655   3.112
 2027SOL    HW2 6768   0.124   4.635   3.107
 2028SOL     OW 6769   1.525   4.723   2.052
 2028SOL    HW1 6770   1.462   4.647   2.065
 2028SOL    HW2 6771   1.573   4.741   2.138
 2029SOL     OW 6772   0.317   3.975   3.663
 2029SOL    HW1 6773   0.388   4.046   3.669
 2029SOL    HW2 6774   0.229   4.014   3.691
 2030SOL     OW 6775   1.466   5.141   2.815
 2030SOL    HW1 6776   1.407   5.147   2.895
 2030SOL    HW2 6777   1.451   5.053   2.769
 2031SOL     OW 6778   0.598   4.453   2.132
 2031SOL    HW1 6779   0.622   4.522   2.064
 2031SOL    HW2 6780   0.520   4.486   2.186
 2032SOL     OW 6781   1.281   4.069   2.806
 2032SOL    HW1 6782   1.195   4.019   2.793
 2032SOL    HW2 6783   1.343   4.015   2.862
 2033SOL     OW 6784   0.807   4.329   3.327
 2033SOL    HW1 6785   0.760   4.326   3.416
 2033SOL    HW2 6786   0.756   4.274   3.261
 2034SOL     OW 6787   1.394   4.193   3.536
 2034SOL    HW1 6788   1.374   4.236   3.624
 2034SOL    HW2 6789   1.472   4.131   3.545
 2035SOL     OW 6790   0.973   4.614   3.434
 2035SOL    HW1 6791   1.019   4.530   3.405
 2035SOL    HW2 6792   0.917   4.648   3.359
 2036SOL     OW 6793   0.991   4.134   3.104
 2036SOL    HW1 6794   0.914   4.168   3.158
 2036SOL    HW2 6795   0.957   4.083   3.025
 2037SOL     OW 6796   1.041   4.425   2.291
 2037SOL    HW1 6797   1.067   4.421   2.387
 2037SOL    HW2 6798   0.956   4.374   2.277
 2038SOL     OW 6799   0.076   4.535   2.651
 2038SOL    HW1 6800   0.175   4.523   2.660
 2038SOL    HW2 6801   0.052   4.630   2.672
 2039SOL     OW 6802   0.865   4.072   2.057
 2039SOL    HW1 6803   0.924   4.135   2.008
 2039SOL    HW2 6804   0.884   3.978   2.028
 2040SOL     OW 6805   1.719   4.309   3.693
 2040SOL    HW1 6806   1.693   4.398   3.657
 2040SOL    HW2 6807   1.717   4.241   3.620
 2041SOL     OW 6808   1.362   4.868   2.407
 2041SOL    HW1 6809   1.445   4.839   2.359
 2041SOL    HW2 6810   1.313   4.935   2.351
 2042SOL     OW 6811   0.550   3.920   2.747
 2042SOL    HW1 6812   0.545   3.915   2.847
 2042SOL    HW2 6813   0.552   4.016   2.718
 2043SOL     OW 6814   1.008   5.180   2.339
 2043SOL    HW1 6815   0.962   5.252   2.287
 2043SOL    HW2 6816   1.004   5.200   2.437
 2044SOL     OW 6817   1.795   4.790   2.735
 2044SOL    HW1 6818   1.733   4.775   2.659
 2044SOL    HW2 6819   1.743   4.801   2.820
 2045SOL     OW 6820   1.227   5.274   3.368
 2045SOL    HW1 6821   1.233   5.197   3.432
 2045SOL    HW2 6822   1.175   5.248   3.288
 2046SOL     OW 6823   0.321   4.667   2.104
 2046SOL    HW1 6824   0.403   4.706   2.062
 2046SOL    HW2 6825   0.294   4.585   2.055
 2047SOL     OW 6826   1.458   4.459   2.590
 2047SOL    HW1 6827   1.453   4.394   2.665
 2047SOL    HW2 6828   1.538   4.518   2.603
 2048SOL     OW 6829   0.461   4.990   3.589
 2048SOL    HW1 6830   0.411   4.991   3.503
 2048SOL    HW2 6831   0.398   4.972   3.665
 2049SOL     OW 6832   1.111   5.500   2.099
 2049SOL    HW1 6833   1.051   5.438   2.149
 2049SOL    HW2 6834   1.142   5.456   2.014
 2050SOL     OW 6835   0.202   4.009   3.360
 2050SOL    HW1 6836   0.122   4.069   3.347
 2050SOL    HW2 6837   0.192   3.960   3.446
 2051SOL     OW 6838   1.632   5.101   1.943
 2051SOL    HW1 6839   1.600   5.195   1.933
 2051SOL    HW2 6840   1.556   5.038   1.931
 2052SOL     OW 6841   1.400   3.831   2.288
 2052SOL    HW1 6842   1.376   3.794   2.198
 2052SOL    HW2 6843   1.499   3.847   2.292
 2053SOL     OW 6844   0.382   4.424   2.342
 2053SOL    HW1 6845   0.427   4.334   2.339
 2053SOL    HW2 6846   0.288   4.413   2.375
 2054SOL     OW 6847   1.547   3.946   3.591
 2054SOL    HW1 6848   1.542   3.983   3.683
 2054SOL    HW2 6849   1.475   3.877   3.579
 2055SOL     OW 6850   0.614   3.846   1.979
 2055SOL    HW1 6851   0.712   3.824   1.986
 2055SOL    HW2 6852   0.583   3.829   1.886
 2056SOL     OW 6853   0.781   3.988   3.611
 2056SOL    HW1 6854   0.848   3.927   3.654
 2056SOL    HW2 6855   0.708   4.007   3.676
 2057SOL     OW 6856   1.351   4.314   3.295
 2057SOL    HW1 6857   1.379   4.271   3.380
 2057SOL    HW2 6858   1.376   4.410   3.296
 2058SOL     OW 6859   0.803   5.126   2.786
 2058SOL    HW1 6860   0.893   5.140   2.744
 2058SOL    HW2 6861   0.732   5.128   2.715
 2059SOL     OW 6862   0.922   4.227   2.761
 2059SOL    HW1 6863   0.897   4.218   2.665
 2059SOL    HW2 6864   0.970   4.145   2.792
 2060SOL     OW 6865   0.539   3.788   2.374
 2060SOL    HW1 6866   0.458   3.789   2.432
 2060SOL    HW2 6867   0.542   3.871   2.319
 2061SOL     OW 6868   1.434   4.912   1.903
 2061SOL    HW1 6869   1.466   4.836   1.960
 2061SOL    HW2 6870   1.342   4.939   1.933
 2062SOL     OW 6871   0.297   3.759   2.033
 2062SOL    HW1 6872   0.346   3.843   2.012
 2062SOL    HW2 6873   0.359   3.694   2.078
 2063SOL     OW 6874   0.935   3.960   2.342
 2063SOL    HW1 6875   0.887   4.001   2.264
 2063SOL    HW2 6876   1.034   3.958   2.323
 2064SOL     OW 6877   1.076   4.407   3.326
 2064SOL    HW1 6878   0.996   4.346   3.329
 2064SOL    HW2 6879   1.157   4.354   3.302
 2065SOL     OW 6880   1.227   5.294   2.655
 2065SOL    HW1 6881   1.248   5.368   2.590
 2065SOL    HW2 6882   1.295   5.294   2.728
 2066SOL     OW 6883   0.459   4.876   2.603
 2066SOL    HW1 6884   0.388   4.849   2.668
 2066SOL    HW2 6885   0.433   4.848   2.510
 2067SOL     OW 6886   1.032   4.273   1.878
 2067SOL    HW1 6887   0.991   4.355   1.839
 2067SOL    HW2 6888   1.096   4.299   1.951
 2068SOL     OW 6889   0.078   4.280   3.248
 2068SOL    HW1 6890   0.170   4.279   3.207
 2068SOL    HW2 6891   0.072   4.354   3.315
 2069SOL     OW 6892   0.561   3.946   3.009
 2069SOL    HW1 6893   0.599   3.862   3.046
 2069SOL    HW2 6894   0.473   3.965   3.053
 2070SOL     OW 6895   0.866   4.178   2.504
 2070SOL    HW1 6896   0.834   4.250   2.442
 2070SOL    HW2 6897   0.890   4.097   2.451
 2071SOL     OW 6898   1.017   3.763   2.615
 2071SOL    HW1 6899   0.945   3.768   2.546
 2071SOL    HW2 6900   0.993   3.694   2.684
 2072SOL     OW 6901   1.429   4.897   2.729
 2072SOL    HW1 6902   1.374   4.813   2.722
 2072SOL    HW2 6903   1.455   4.926   2.637
 2073SOL     OW 6904   1.466   4.314   2.854
 2073SOL    HW1 6905   1.436   4.219   2.861
 2073SOL    HW2 6906   1.539   4.330   2.920
 2074SOL     OW 6907   1.857   4.557   2.239
 2074SOL    HW1 6908   1.899   4.493   2.303
 2074SOL    HW2 6909   1.819   4.506   2.161
 2075SOL     OW 6910   0.488   5.109   2.036
 2075SOL    HW1 6911   0.401   5.094   2.083
 2075SOL    HW2 6912   0.471   5.135   1.941
 2076SOL     OW 6913   1.664   5.004   2.519
 2076SOL    HW1 6914   1.763   5.012   2.533
 2076SOL    HW2 6915   1.619   5.088   2.550
 2077SOL     OW 6916   1.390   4.299   1.940
 2077SOL    HW1 6917   1.336   4.278   2.021
 2077SOL    HW2 6918   1.481   4.258   1.949
 2078SOL     OW 6919   0.527   3.980   2.190
 2078SOL    HW1 6920   0.554   3.921   2.115
 2078SOL    HW2 6921   0.527   4.075   2.159
 2079SOL     OW 6922   1.754   4.947   3.450
 2079SOL    HW1 6923   1.845   4.908   3.437
 2079SOL    HW2 6924   1.762   5.043   3.474
 2080SOL     OW 6925   1.064   5.071   3.202
 2080SOL    HW1 6926   0.984   5.048   3.257
 2080SOL    HW2 6927   1.147   5.045   3.251
 2081SOL     OW 6928   1.111   4.919   2.962
 2081SOL    HW1 6929   1.071   4.963   3.043
 2081SOL    HW2 6930   1.070   4.956   2.879
 2082SOL     OW 6931   1.638   4.823   2.941
 2082SOL    HW1 6932   1.643   4.904   3.000
 2082SOL    HW2 6933   1.552   4.825   2.890
 2083SOL     OW 6934   0.915   3.813   3.264
 2083SOL    HW1 6935   0.940   3.793   3.169
 2083SOL    HW2 6936   0.987   3.869   3.306
 2084SOL     OW 6937   0.980   4.840   3.581
 2084SOL    HW1 6938   0.881   4.846   3.591
 2084SOL    HW2 6939   1.003   4.760   3.525
 2085SOL     OW 6940   0.705   4.774   2.230
 2085SOL    HW1 6941   0.691   4.781   2.329
 2085SOL    HW2 6942   0.789   4.723   2.212
 2086SOL     OW 6943   0.410   4.537   3.113
 2086SOL    HW1 6944   0.496   4.549   3.163
 2086SOL    HW2 6945   0.368   4.450   3.140
 2087SOL     OW 6946   1.274   4.110   3.124
 2087SOL    HW1 6947   1.295   4.184   3.188
 2087SOL    HW2 6948   1.185   4.127   3.081
 2088SOL     OW 6949   0.064   5.288   3.193
 2088SOL    HW1 6950   0.018   5.370   3.159
 2088SOL    HW2 6951   0.162   5.307   3.202
 2089SOL     OW 6952   0.367   4.824   2.363
 2089SOL    HW1 6953   0.360   4.907   2.307
 2089SOL    HW2 6954   0.371   4.744   2.303
 2090SOL     OW 6955   0.566   4.261   2.727
 2090SOL    HW1 6956   0.578   4.327   2.653
 2090SOL    HW2 6957   0.612   4.295   2.810
 2091SOL     OW 6958   1.252   5.072   2.250
 2091SOL    HW1 6959   1.302   5.149   2.290
 2091SOL    HW2 6960   1.157   5.074   2.282
 2092SOL     OW 6961   1.272   5.169   3.004
 2092SOL    HW1 6962   1.319   5.182   3.091
 2092SOL    HW2 6963   1.206   5.095   3.013
 2093SOL     OW 6964   1.582   4.363   2.334
 2093SOL    HW1 6965   1.551   4.424   2.407
 2093SOL    HW2 6966   1.632   4.415   2.265
 2094SOL     OW 6967   0.354   5.234   3.191
 2094SOL    HW1 6968   0.333   5.190   3.104
 2094SOL    HW2 6969   0.451   5.260   3.194
 2095SOL     OW 6970   0.402   4.475   3.460
 2095SOL    HW1 6971   0.470   4.530   3.413
 2095SOL    HW2 6972   0.442   4.387   3.487
 2096SOL     OW 6973   1.587   4.503   3.532
 2096SOL    HW1 6974   1.495   4.541   3.527
 2096SOL    HW2 6975   1.647   4.550   3.467
 2097SOL     OW 6976   1.013   3.829   3.632
 2097SOL    HW1 6977   1.019   3.914   3.580
 2097SOL    HW2 6978   1.045   3.753   3.575
 2098SOL     OW 6979   0.504   3.774   3.602
 2098SOL    HW1 6980   0.462   3.717   3.532
 2098SOL    HW2 6981   0.438   3.843   3.634
 2099SOL     OW 6982   0.573   4.594   2.891
 2099SOL    HW1 6983   0.617   4.683   2.882
 2099SOL    HW2 6984   0.510   4.594   2.968
 2100SOL     OW 6985   1.360   4.586   2.907
 2100SOL    HW1 6986   1.285   4.586   2.841
 2100SOL    HW2 6987   1.397   4.494   2.916
 2101SOL     OW 6988   1.209   4.249   2.137
 2101SOL    HW1 6989   1.222   4.165   2.191
 2101SOL    HW2 6990   1.180   4.323   2.197
 2102SOL     OW 6991   0.307   3.937   3.093
 2102SOL    HW1 6992   0.284   3.974   3.183
 2102SOL    HW2 6993   0.277   3.842   3.087
 2103SOL     OW 6994   0.037   5.034   3.144
 2103SOL    HW1 6995   0.090   4.985   3.212
 2103SOL    HW2 6996   0.059   5.132   3.149
 2104SOL     OW 6997   0.732   4.358   2.926
 2104SOL    HW1 6998   0.791   4.332   2.850
 2104SOL    HW2 6999   0.704   4.454   2.915
 2105SOL     OW 7000   1.728   4.659   3.716
 2105SOL    HW1 7001   1.682   4.652   3.627
 2105SOL    HW2 7002   1.666   4.703   3.782
 2106SOL     OW 7003   0.307   3.787   2.480
 2106SOL    HW1 7004   0.296   3.881   2.513
 2106SOL    HW2 7005   0.302   3.724   2.557
 2107SOL     OW 7006   1.622   4.091   2.236
 2107SOL    HW1 7007   1.624   4.015   2.300
 2107SOL    HW2 7008   1.574   4.168   2.276
 2108SOL     OW 7009   1.023   4.490   2.828
 2108SOL    HW1 7010   1.038   4.511   2.924
 2108SOL    HW2 7011   0.993   4.395   2.819
 2109SOL     OW 7012   1.859   5.242   3.467
 2109SOL    HW1 7013   1.873   5.269   3.372
 2109SOL    HW2 7014   1.942   5.264   3.520
 2110SOL     OW 7015   0.350   4.622   3.666
 2110SOL    HW1 7016   0.426   4.666   3.714
 2110SOL    HW2 7017   0.385   4.575   3.584
 2111SOL     OW 7018   1.540   3.998   1.987
 2111SOL    HW1 7019   1.479   3.923   2.010
 2111SOL    HW2 7020   1.562   4.050   2.070
 2112SOL     OW 7021   1.303   4.562   1.904
 2112SOL    HW1 7022   1.337   4.469   1.919
 2112SOL    HW2 7023   1.321   4.589   1.809
 2113SOL     OW 7024   1.068   5.057   2.711
 2113SOL    HW1 7025   1.075   4.973   2.656
 2113SOL    HW2 7026   1.130   5.126   2.675
 2114SOL     OW 7027   0.319   4.534   2.811
 2114SOL    HW1 7028   0.412   4.570   2.816
 2114SOL    HW2 7029   0.313   4.449   2.863
 2115SOL     OW 7030   0.339   4.233   2.868
 2115SOL    HW1 7031   0.287   4.150   2.851
 2115SOL    HW2 7032   0.416   4.238   2.804
 2116SOL     OW 7033   1.138   4.104   3.540
 2116SOL    HW1 7034   1.093   4.167   3.604
 2116SOL    HW2 7035   1.231   4.135   3.523
 2117SOL     OW 7036   1.160   3.931   3.339
 2117SOL    HW1 7037   1.160   3.995   3.416
 2117SOL    HW2 7038   1.188   3.979   3.256
 2118SOL     OW 7039   0.008   5.050   2.062
 2118SOL    HW1 7040  -0.085   5.071   2.031
 2118SOL    HW2 7041   0.018   4.951   2.075
 2119SOL     OW 7042   1.002   4.520   3.100
 2119SOL    HW1 7043   1.043   4.488   3.186
 2119SOL    HW2 7044   0.906   4.493   3.097
 2120SOL     OW 7045   0.040   4.268   2.976
 2120SOL    HW1 7046   0.125   4.235   2.935
 2120SOL    HW2 7047   0.053   4.283   3.074
 2121SOL     OW 7048   0.189   4.244   3.584
 2121SOL    HW1 7049   0.248   4.204   3.514
 2121SOL    HW2 7050   0.131   4.315   3.543
 2122SOL     OW 7051   1.369   4.674   3.522
 2122SOL    HW1 7052   1.408   4.763   3.542
 2122SOL    HW2 7053   1.379   4.654   3.425
 2123SOL     OW 7054   0.815   4.296   2.187
 2123SOL    HW1 7055   0.822   4.207   2.141
 2123SOL    HW2 7056   0.721   4.330   2.179
 2124SOL     OW 7057   1.657   4.328   3.068
 2124SOL    HW1 7058   1.619   4.259   3.130
 2124SOL    HW2 7059   1.739   4.292   3.024
 2125SOL     OW 7060   0.252   5.288   3.606
 2125SOL    HW1 7061   0.222   5.345   3.682
 2125SOL    HW2 7062   0.245   5.191   3.632
 2126SOL     OW 7063   0.671   4.188   3.131
 2126SOL    HW1 7064   0.637   4.099   3.101
 2126SOL    HW2 7065   0.697   4.242   3.051
 2127SOL     OW 7066   0.473   4.224   2.053
 2127SOL    HW1 7067   0.534   4.304   2.057
 2127SOL    HW2 7068   0.378   4.255   2.060
 2128SOL     OW 7069   0.159   4.861   3.328
 2128SOL    HW1 7070   0.181   4.800   3.404
 2128SOL    HW2 7071   0.169   4.812   3.242
 2129SOL     OW 7072   1.347   4.783   3.096
 2129SOL    HW1 7073   1.371   4.720   3.022
 2129SOL    HW2 7074   1.257   4.823   3.078
 2130SOL     OW 7075   1.302   4.579   2.171
 2130SOL    HW1 7076   1.216   4.548   2.213
 2130SOL    HW2 7077   1.298   4.565   2.072
 2131SOL     OW 7078   0.083   4.982   2.884
 2131SOL    HW1 7079   0.078   4.981   2.984
 2131SOL    HW2 7080   0.000   4.941   2.846
 2132SOL     OW 7081   0.688   5.386   3.578
 2132SOL    HW1 7082   0.632   5.467   3.587
 2132SOL    HW2 7083   0.740   5.390   3.492
 2133SOL     OW 7084   1.726   3.859   2.385
 2133SOL    HW1 7085   1.799   3.842   2.318
 2133SOL    HW2 7086   1.695   3.772   2.423
 2134SOL     OW 7087   1.280   4.651   2.534
 2134SOL    HW1 7088   1.340   4.570   2.536
 2134SOL    HW2 7089   1.320   4.720   2.474
 2135SOL     OW 7090   0.830   4.997   3.284
 2135SOL    HW1 7091   0.825   5.030   3.379
 2135SOL    HW2 7092   0.744   5.016   3.238
 2136SOL     OW 7093   1.841   3.899   2.825
 2136SOL    HW1 7094   1.880   3.814   2.789
 2136SOL    HW2 7095   1.743   3.901   2.806
 2137SOL     OW 7096   0.263   4.050   2.582
 2137SOL    HW1 7097   0.184   4.101   2.548
 2137SOL    HW2 7098   0.254   4.035   2.680
 2138SOL     OW 7099   0.822   4.726   3.234
 2138SOL    HW1 7100   0.862   4.725   3.142
 2138SOL    HW2 7101   0.832   4.818   3.274
 2139SOL     OW 7102   0.916   4.634   2.153
 2139SOL    HW1 7103   0.979   4.672   2.085
 2139SOL    HW2 7104   0.956   4.551   2.192
 2140SOL     OW 7105   0.372   5.012   3.352
 2140SOL    HW1 7106   0.359   5.105   3.318
 2140SOL    HW2 7107   0.288   4.960   3.339
 2141SOL     OW 7108   1.614   5.016   3.151
 2141SOL    HW1 7109   1.674   5.019   3.231
 2141SOL    HW2 7110   1.539   5.080   3.164
 2142SOL     OW 7111   1.039   4.822   2.558
 2142SOL    HW1 7112   0.969   4.775   2.612
 2142SOL    HW2 7113   1.098   4.754   2.515
 2143SOL     OW 7114   1.014   3.960   2.833
 2143SOL    HW1 7115   1.006   3.924   2.740
 2143SOL    HW2 7116   1.012   3.884   2.898
 2144SOL     OW 7117   1.709   4.109   3.243
 2144SOL    HW1 7118   1.782   4.178   3.247
 2144SOL    HW2 7119   1.737   4.034   3.184
 2145SOL     OW 7120   0.255   5.072   2.152
 2145SOL    HW1 7121   0.159   5.073   2.125
 2145SOL    HW2 7122   0.267   5.125   2.236
 2146SOL     OW 7123   0.105   4.737   3.588
 2146SOL    HW1 7124   0.028   4.704   3.642
 2146SOL    HW2 7125   0.190   4.707   3.630
 2147SOL     OW 7126   0.672   3.927   3.351
 2147SOL    HW1 7127   0.762   3.911   3.311
 2147SOL    HW2 7128   0.680   3.932   3.450
 2148SOL     OW 7129   0.075   4.069   1.895
 2148SOL    HW1 7130  -0.017   4.041   1.866
 2148SOL    HW2 7131   0.106   4.146   1.839
 2149SOL     OW 7132   1.440   4.580   3.260
 2149SOL    HW1 7133   1.383   4.632   3.197
 2149SOL    HW2 7134   1.536   4.592   3.236
 2150SOL     OW 7135   0.072   3.890   2.180
 2150SOL    HW1 7136   0.055   3.973   2.126
 2150SOL    HW2 7137   0.162   3.853   2.158
 2151SOL     OW 7138   1.183   5.059   1.981
 2151SOL    HW1 7139   1.084   5.048   1.983
 2151SOL    HW2 7140   1.217   5.074   2.074
 2152SOL     OW 7141   0.613   4.566   3.293
 2152SOL    HW1 7142   0.669   4.647   3.276
 2152SOL    HW2 7143   0.672   4.486   3.296
 2153SOL     OW 7144   0.716   4.289   3.570
 2153SOL    HW1 7145   0.735   4.354   3.644
 2153SOL    HW2 7146   0.776   4.209   3.579
 2154SOL     OW 7147   1.450   4.944   3.495
 2154SOL    HW1 7148   1.441   4.934   3.594
 2154SOL    HW2 7149   1.546   4.937   3.469
 2155SOL     OW 7150   1.674   4.607   3.116
 2155SOL    HW1 7151   1.647   4.518   3.079
 2155SOL    HW2 7152   1.675   4.675   3.043
 2156SOL     OW 7153   1.225   4.049   2.311
 2156SOL    HW1 7154   1.290   3.975   2.300
 2156SOL    HW2 7155   1.245   4.099   2.395
 2157SOL     OW 7156   0.594   4.469   2.514
 2157SOL    HW1 7157   0.644   4.554   2.495
 2157SOL    HW2 7158   0.506   4.471   2.466
 2158SOL     OW 7159   1.777   4.066   3.504
 2158SOL    HW1 7160   1.760   4.097   3.410
 2158SOL    HW2 7161   1.693   4.029   3.542
 2159SOL     OW 7162   1.730   4.658   3.379
 2159SOL    HW1 7163   1.768   4.749   3.394
 2159SOL    HW2 7164   1.722   4.641   3.280
 2160SOL     OW 7165   0.859   5.098   1.878
 2160SOL    HW1 7166   0.813   5.113   1.966
 2160SOL    HW2 7167   0.903   5.183   1.848
 2161SOL     OW 7168   0.859   4.680   2.723
 2161SOL    HW1 7169   0.913   4.611   2.771
 2161SOL    HW2 7170   0.827   4.749   2.789
 2162SOL     OW 7171   1.083   4.708   1.949
 2162SOL    HW1 7172   1.060   4.761   1.867
 2162SOL    HW2 7173   1.164   4.652   1.930
 2163SOL     OW 7174   0.221   5.038   3.706
 2163SOL    HW1 7175   0.156   4.965   3.685
 2163SOL    HW2 7176   0.225   5.052   3.804
 2164SOL     OW 7177   0.079   4.964   2.515
 2164SOL    HW1 7178   0.078   4.917   2.603
 2164SOL    HW2 7179   0.161   4.936   2.464
 2165SOL     OW 7180   0.672   5.115   3.486
 2165SOL    HW1 7181   0.594   5.065   3.524
 2165SOL    HW2 7182   0.669   5.210   3.517
 2166SOL     OW 7183   1.824   3.916   3.089
 2166SOL    HW1 7184   1.820   3.826   3.133
 2166SOL    HW2 7185   1.827   3.905   2.990
 2167SOL     OW 7186   0.428   4.148   2.382
 2167SOL    HW1 7187   0.458   4.076   2.320
 2167SOL    HW2 7188   0.389   4.108   2.465
 2168SOL     OW 7189   1.705   5.211   2.966
 2168SOL    HW1 7190   1.612   5.186   2.939
 2168SOL    HW2 7191   1.731   5.161   3.048
 2169SOL     OW 7192   0.317   4.271   3.142
 2169SOL    HW1 7193   0.355   4.212   3.214
 2169SOL    HW2 7194   0.357   4.245   3.054
 2170SOL     OW 7195   1.424   3.938   2.974
 2170SOL    HW1 7196   1.476   3.873   3.029
 2170SOL    HW2 7197   1.375   4.001   3.035
 2171SOL     OW 7198   1.001   3.758   3.016
 2171SOL    HW1 7199   0.938   3.686   2.985
 2171SOL    HW2 7200   1.094   3.722   3.016
 2172SOL     OW 7201   0.770   5.054   2.163
 2172SOL    HW1 7202   0.724   4.967   2.180
 2172SOL    HW2 7203   0.861   5.051   2.204
 2173SOL     OW 7204   0.618   5.291   3.146
 2173SOL    HW1 7205   0.613   5.373   3.203
 2173SOL    HW2 7206   0.707   5.288   3.101
 2174SOL     OW 7207   1.352   3.776   2.030
 2174SOL    HW1 7208   1.387   3.735   1.946
 2174SOL    HW2 7209   1.262   3.738   2.050
 2175SOL     OW 7210   1.300   4.177   2.553
 2175SOL    HW1 7211   1.241   4.257   2.557
 2175SOL    HW2 7212   1.315   4.142   2.646
 2176SOL     OW 7213   1.593   3.945   2.744
 2176SOL    HW1 7214   1.509   3.944   2.798
 2176SOL    HW2 7215   1.595   4.028   2.688
 2177SOL     OW 7216   0.039   4.801   2.162
 2177SOL    HW1 7217   0.138   4.790   2.153
 2177SOL    HW2 7218  -0.001   4.715   2.194
 2178SOL     OW 7219   0.230   4.352   3.837
 2178SOL    HW1 7220   0.137   4.350   3.874
 2178SOL    HW2 7221   0.231   4.313   3.745
 2179SOL     OW 7222   0.225   3.999   4.720
 2179SOL    HW1 7223   0.260   3.982   4.812
 2179SOL    HW2 7224   0.137   3.954   4.708
 2180SOL     OW 7225   0.019   4.092   4.371
 2180SOL    HW1 7226  -0.063   4.135   4.410
 2180SOL    HW2 7227  -0.009   4.019   4.308
 2181SOL     OW 7228   0.569   4.999   4.889
 2181SOL    HW1 7229   0.476   4.992   4.852
 2181SOL    HW2 7230   0.580   5.088   4.933
 2182SOL     OW 7231   1.555   5.235   4.427
 2182SOL    HW1 7232   1.498   5.219   4.508
 2182SOL    HW2 7233   1.496   5.245   4.347
 2183SOL     OW 7234   1.135   4.427   4.441
 2183SOL    HW1 7235   1.192   4.505   4.416
 2183SOL    HW2 7236   1.075   4.453   4.517
 2184SOL     OW 7237   1.755   4.331   3.955
 2184SOL    HW1 7238   1.743   4.318   3.856
 2184SOL    HW2 7239   1.725   4.250   4.004
 2185SOL     OW 7240   0.768   4.868   4.747
 2185SOL    HW1 7241   0.690   4.885   4.807
 2185SOL    HW2 7242   0.802   4.955   4.711
 2186SOL     OW 7243   0.850   4.522   5.547
 2186SOL    HW1 7244   0.846   4.598   5.612
 2186SOL    HW2 7245   0.872   4.558   5.456
 2187SOL     OW 7246   0.685   4.736   4.389
 2187SOL    HW1 7247   0.754   4.720   4.459
 2187SOL    HW2 7248   0.612   4.793   4.427
 2188SOL     OW 7249   0.686   4.885   5.527
 2188SOL    HW1 7250   0.746   4.964   5.541
 2188SOL    HW2 7251   0.600   4.916   5.486
 2189SOL     OW 7252   0.335   5.159   4.785
 2189SOL    HW1 7253   0.257   5.128   4.732
 2189SOL    HW2 7254   0.393   5.217   4.728
 2190SOL     OW 7255   1.460   5.229   5.063
 2190SOL    HW1 7256   1.484   5.323   5.089
 2190SOL    HW2 7257   1.444   5.175   5.145
 2191SOL     OW 7258   0.438   4.116   5.223
 2191SOL    HW1 7259   0.520   4.060   5.232
 2191SOL    HW2 7260   0.357   4.058   5.227
 2192SOL     OW 7261   1.603   4.171   4.461
 2192SOL    HW1 7262   1.529   4.217   4.411
 2192SOL    HW2 7263   1.654   4.239   4.514
 2193SOL     OW 7264   1.127   5.065   5.414
 2193SOL    HW1 7265   1.174   5.065   5.502
 2193SOL    HW2 7266   1.079   4.978   5.403
 2194SOL     OW 7267   0.230   5.158   4.262
 2194SOL    HW1 7268   0.204   5.254   4.262
 2194SOL    HW2 7269   0.159   5.104   4.307
 2195SOL     OW 7270   0.240   4.815   4.610
 2195SOL    HW1 7271   0.254   4.731   4.662
 2195SOL    HW2 7272   0.185   4.879   4.665
 2196SOL     OW 7273   0.606   4.688   3.847
 2196SOL    HW1 7274   0.613   4.772   3.793
 2196SOL    HW2 7275   0.652   4.701   3.935
 2197SOL     OW 7276   1.594   3.838   5.204
 2197SOL    HW1 7277   1.576   3.905   5.132
 2197SOL    HW2 7278   1.591   3.884   5.293
 2198SOL     OW 7279   0.122   4.367   4.287
 2198SOL    HW1 7280   0.077   4.279   4.304
 2198SOL    HW2 7281   0.121   4.421   4.371
 2199SOL     OW 7282   0.027   5.320   3.841
 2199SOL    HW1 7283   0.008   5.224   3.862
 2199SOL    HW2 7284  -0.006   5.378   3.916
 2200SOL     OW 7285   1.689   4.646   4.336
 2200SOL    HW1 7286   1.784   4.617   4.344
 2200SOL    HW2 7287   1.681   4.711   4.261
 2201SOL     OW 7288   1.641   4.832   4.156
 2201SOL    HW1 7289   1.727   4.834   4.104
 2201SOL    HW2 7290   1.655   4.879   4.244
 2202SOL     OW 7291   0.113   4.461   5.321
 2202SOL    HW1 7292   0.201   4.448   5.366
 2202SOL    HW2 7293   0.100   4.558   5.299
 2203SOL     OW 7294   0.613   5.089   4.450
 2203SOL    HW1 7295   0.564   5.002   4.459
 2203SOL    HW2 7296   0.590   5.132   4.363
 2204SOL     OW 7297   1.293   4.952   5.147
 2204SOL    HW1 7298   1.330   4.879   5.089
 2204SOL    HW2 7299   1.345   4.957   5.232
 2205SOL     OW 7300   0.809   3.728   4.226
 2205SOL    HW1 7301   0.849   3.819   4.217
 2205SOL    HW2 7302   0.709   3.736   4.232
 2206SOL     OW 7303   0.197   4.700   4.988
 2206SOL    HW1 7304   0.286   4.655   4.974
 2206SOL    HW2 7305   0.124   4.635   4.969
 2207SOL     OW 7306   1.525   4.723   3.914
 2207SOL    HW1 7307   1.462   4.647   3.927
 2207SOL    HW2 7308   1.573   4.741   4.000
 2208SOL     OW 7309   0.317   3.975   5.525
 2208SOL    HW1 7310   0.388   4.046   5.531
 2208SOL    HW2 7311   0.229   4.014   5.553
 2209SOL     OW 7312   1.466   5.141   4.677
 2209SOL    HW1 7313   1.407   5.147   4.757
 2209SOL    HW2 7314   1.451   5.053   4.631
 2210SOL     OW 7315   0.598   4.453   3.994
 2210SOL    HW1 7316   0.622   4.522   3.926
 2210SOL    HW2 7317   0.520   4.486   4.048
 2211SOL     OW 7318   1.281   4.069   4.668
 2211SOL    HW1 7319   1.195   4.019   4.655
 2211SOL    HW2 7320   1.343   4.015   4.724
 2212SOL     OW 7321   0.807   4.329   5.189
 2212SOL    HW1 7322   0.760   4.326   5.278
 2212SOL    HW2 7323   0.756   4.274   5.123
 2213SOL     OW 7324   1.394   4.193   5.398
 2213SOL    HW1 7325   1.374   4.236   5.486
 2213SOL    HW2 7326   1.472   4.131   5.407
 2214SOL     OW 7327   0.973   4.614   5.296
 2214SOL    HW1 7328   1.019   4.530   5.267
 2214SOL    HW2 7329   0.917   4.648   5.221
 2215SOL     OW 7330   0.991   4.134   4.966
 2215SOL    HW1 7331   0.914   4.168   5.020
 2215SOL    HW2 7332   0.957   4.083   4.887
 2216SOL     OW 7333   1.041   4.425   4.153
 2216SOL    HW1 7334   1.067   4.421   4.249
 2216SOL    HW2 7335   0.956   4.374   4.139
 2217SOL     OW 7336   0.076   4.535   4.513
 2217SOL    HW1 7337   0.175   4.523   4.522
 2217SOL    HW2 7338   0.052   4.630   4.534
 2218SOL     OW 7339   0.865   4.072   3.919
 2218SOL    HW1 7340   0.924   4.135   3.870
 2218SOL    HW2 7341   0.884   3.978   3.890
 2219SOL     OW 7342   1.719   4.309   5.555
 2219SOL    HW1 7343   1.693   4.398   5.519
 2219SOL    HW2 7344   1.717   4.241   5.482
 2220SOL     OW 7345   1.362   4.868   4.269
 2220SOL    HW1 7346   1.445   4.839   4.221
 2220SOL    HW2 7347   1.313   4.935   4.213
 2221SOL     OW 7348   0.550   3.920   4.609
 2221SOL    HW1 7349   0.545   3.915   4.709
 2221SOL    HW2 7350   0.552   4.016   4.580
 2222SOL     OW 7351   1.008   5.180   4.201
 2222SOL    HW1 7352   0.962   5.252   4.149
 2222SOL    HW2 7353   1.004   5.200   4.299
 2223SOL     OW 7354   1.795   4.790   4.597
 2223SOL    HW1 7355   1.733   4.775   4.521
 2223SOL    HW2 7356   1.743   4.801   4.682
 2224SOL     OW 7357   1.227   5.274   5.230
 2224SOL    HW1 7358   1.233   5.197   5.294
 2224SOL    HW2 7359   1.175   5.248   5.150
 2225SOL     OW 7360   0.321   4.667   3.966
 2225SOL    HW1 7361   0.403   4.706   3.924
 2225SOL    HW2 7362   0.294   4.585   3.917
 2226SOL     OW 7363   1.458   4.459   4.452
 2226SOL    HW1 7364   1.453   4.394   4.527
 2226SOL    HW2 7365   1.538   4.518   4.465
 2227SOL     OW 7366   0.461   4.990   5.451
 2227SOL    HW1 7367   0.411   4.991   5.365
 2227SOL    HW2 7368   0.398   4.972   5.527
 2228SOL     OW 7369   1.111   5.500   3.961
 2228SOL    HW1 7370   1.051   5.438   4.011
 2228SOL    HW2 7371   1.142   5.456   3.876
 2229SOL     OW 7372   0.202   4.009   5.222
 2229SOL    HW1 7373   0.122   4.069   5.209
 2229SOL    HW2 7374   0.192   3.960   5.308
 2230SOL     OW 7375   1.632   5.101   3.805
 2230SOL    HW1 7376   1.600   5.195   3.795
 2230SOL    HW2 7377   1.556   5.038   3.793
 2231SOL     OW 7378   1.400   3.831   4.150
 2231SOL    HW1 7379   1.376   3.794   4.060
 2231SOL    HW2 7380   1.499   3.847   4.154
 2232SOL     OW 7381   0.382   4.424   4.204
 2232SOL    HW1 7382   0.427   4.334   4.201
 2232SOL    HW2 7383   0.288   4.413   4.237
 2233SOL     OW 7384   1.547   3.946   5.453
 2233SOL    HW1 7385   1.542   3.983   5.545
 2233SOL    HW2 7386   1.475   3.877   5.441
 2234SOL     OW 7387   0.614   3.846   3.841
 2234SOL    HW1 7388   0.712   3.824   3.848
 2234SOL    HW2 7389   0.583   3.829   3.748
 2235SOL     OW 7390   0.781   3.988   5.473
 2235SOL    HW1 7391   0.848   3.927   5.516
 2235SOL    HW2 7392   0.708   4.007   5.538
 2236SOL     OW 7393   1.351   4.314   5.157
 2236SOL    HW1 7394   1.379   4.271   5.242
 2236SOL    HW2 7395   1.376   4.410   5.158
 2237SOL     OW 7396   0.803   5.126   4.648
 2237SOL    HW1 7397   0.893   5.140   4.606
 2237SOL    HW2 7398   0.732   5.128   4.577
 2238SOL     OW 7399   0.922   4.227   4.623
 2238SOL    HW1 7400   0.897   4.218   4.527
 2238SOL    HW2 7401   0.970   4.145   4.654
 2239SOL     OW 7402   0.539   3.788   4.236
 2239SOL    HW1 7403   0.458   3.789   4.294
 2239SOL    HW2 7404   0.542   3.871   4.181
 2240SOL     OW 7405   1.434   4.912   3.765
 2240SOL    HW1 7406   1.466   4.836   3.822
 2240SOL    HW2 7407   1.342   4.939   3.795
 2241SOL     OW 7408   0.297   3.759   3.895
 2241SOL    HW1 7409   0.346   3.843   3.874
 2241SOL    HW2 7410   0.359   3.694   3.940
 2242SOL     OW 7411   0.935   3.960   4.204
 2242SOL    HW1 7412   0.887   4.001   4.126
 2242SOL    HW2 7413   1.034   3.958   4.185
 2243SOL     OW 7414   1.076   4.407   5.188
 2243SOL    HW1 7415   0.996   4.346   5.191
 2243SOL    HW2 7416   1.157   4.354   5.164
 2244SOL     OW 7417   1.227   5.294   4.517
 2244SOL    HW1 7418   1.248   5.368   4.452
 2244SOL    HW2 7419   1.295   5.294   4.590
 2245SOL     OW 7420   0.459   4.876   4.465
 2245SOL    HW1 7421   0.388   4.849   4.530
 2245SOL    HW2 7422   0.433   4.848   4.372
 2246SOL     OW 7423   1.032   4.273   3.740
 2246SOL    HW1 7424   0.991   4.355   3.701
 2246SOL    HW2 7425   1.096   4.299   3.813
 2247SOL     OW 7426   0.078   4.280   5.110
 2247SOL    HW1 7427   0.170   4.279   5.069
 2247SOL    HW2 7428   0.072   4.354   5.177
 2248SOL     OW 7429   0.561   3.946   4.871
 2248SOL    HW1 7430   0.599   3.862   4.908
 2248SOL    HW2 7431   0.473   3.965   4.915
 2249SOL     OW 7432   0.866   4.178   4.366
 2249SOL    HW1 7433   0.834   4.250   4.304
 2249SOL    HW2 7434   0.890   4.097   4.313
 2250SOL     OW 7435   1.017   3.763   4.477
 2250SOL    HW1 7436   0.945   3.768   4.408
 2250SOL    HW2 7437   0.993   3.694   4.546
 2251SOL     OW 7438   1.429   4.897   4.591
 2251SOL    HW1 7439   1.374   4.813   4.584
 2251SOL    HW2 7440   1.455   4.926   4.499
 2252SOL     OW 7441   1.466   4.314   4.716
 2252SOL    HW1 7442   1.436   4.219   4.723
 2252SOL    HW2 7443   1.539   4.330   4.782
 2253SOL     OW 7444   1.857   4.557   4.101
 2253SOL    HW1 7445   1.899   4.493   4.165
 2253SOL    HW2 7446   1.819   4.506   4.023
 2254SOL     OW 7447   0.488   5.109   3.898
 2254SOL    HW1 7448   0.401   5.094   3.945
 2254SOL    HW2 7449   0.471   5.135   3.803
 2255SOL     OW 7450   1.664   5.004   4.381
 2255SOL    HW1 7451   1.763   5.012   4.395
 2255SOL    HW2 7452   1.619   5.088   4.412
 2256SOL     OW 7453   1.390   4.299   3.802
 2256SOL    HW1 7454   1.336   4.278   3.883
 2256SOL    HW2 7455   1.481   4.258   3.811
 2257SOL     OW 7456   0.527   3.980   4.052
 2257SOL    HW1 7457   0.554   3.921   3.977
 2257SOL    HW2 7458   0.527   4.075   4.021
 2258SOL     OW 7459   1.754   4.947   5.312
 2258SOL    HW1 7460   1.845   4.908   5.299
 2258SOL    HW2 7461   1.762   5.043   5.336
 2259SOL     OW 7462   1.064   5.071   5.064
 2259SOL    HW1 7463   0.984   5.048   5.119
 2259SOL    HW2 7464   1.147   5.045   5.113
 2260SOL     OW 7465   1.111   4.919   4.824
 2260SOL    HW1 7466   1.071   4.963   4.905
 2260SOL    HW2 7467   1.070   4.956   4.741
 2261SOL     OW 7468   1.638   4.823   4.803
 2261SOL    HW1 7469   1.643   4.904   4.862
 2261SOL    HW2 7470   1.552   4.825   4.752
 2262SOL     OW 7471   0.915   3.813   5.126
 2262SOL    HW1 7472   0.940   3.793   5.031
 2262SOL    HW2 7473   0.987   3.869   5.168
 2263SOL     OW 7474   0.980   4.840   5.443
 2263SOL    HW1 7475   0.881   4.846   5.453
 2263SOL    HW2 7476   1.003   4.760   5.387
 2264SOL     OW 7477   0.705   4.774   4.092
 2264SOL    HW1 7478   0.691   4.781   4.191
 2264SOL    HW2 7479   0.789   4.723   4.074
 2265SOL     OW 7480   0.410   4.537   4.975
 2265SOL    HW1 7481   0.496   4.549   5.025
 2265SOL    HW2 7482   0.368   4.450   5.002
 2266SOL     OW 7483   1.274   4.110   4.986
 2266SOL    HW1 7484   1.295   4.184   5.050
 2266SOL    HW2 7485   1.185   4.127   4.943
 2267SOL     OW 7486   0.064   5.288   5.055
 2267SOL    HW1 7487   0.018   5.370   5.021
 2267SOL    HW2 7488   0.162   5.307   5.064
 2268SOL     OW 7489   0.367   4.824   4.225
 2268SOL    HW1 7490   0.360   4.907   4.169
 2268SOL    HW2 7491   0.371   4.744   4.165
 2269SOL     OW 7492   0.566   4.261   4.589
 2269SOL    HW1 7493   0.578   4.327   4.515
 2269SOL    HW2 7494   0.612   4.295   4.672
 2270SOL     OW 7495   1.252   5.072   4.112
 2270SOL    HW1 7496   1.302   5.149   4.152
 2270SOL    HW2 7497   1.157   5.074   4.144
 2271SOL     OW 7498   1.272   5.169   4.866
 2271SOL    HW1 7499   1.319   5.182   4.953
 2271SOL    HW2 7500   1.206   5.095   4.875
 2272SOL     OW 7501   1.582   4.363   4.196
 2272SOL    HW1 7502   1.551   4.424   4.269
 2272SOL    HW2 7503   1.632   4.415   4.127
 2273SOL     OW 7504   0.354   5.234   5.053
 2273SOL    HW1 7505   0.333   5.190   4.966
 2273SOL    HW2 7506   0.451   5.260   5.056
 2274SOL     OW 7507   0.402   4.475   5.322
 2274SOL    HW1 7508   0.470   4.530   5.275
 2274SOL    HW2 7509   0.442   4.387   5.349
 2275SOL     OW 7510   1.587   4.503   5.394
 2275SOL    HW1 7511   1.495   4.541   5.389
 2275SOL    HW2 7512   1.647   4.550   5.329
 2276SOL     OW 7513   1.013   3.829   5.494
 2276SOL    HW1 7514   1.019   3.914   5.442
 2276SOL    HW2 7515   1.045   3.753   5.437
 2277SOL     OW 7516   0.504   3.774   5.464
 2277SOL    HW1 7517   0.462   3.717   5.394
 2277SOL    HW2 7518   0.438   3.843   5.496
 2278SOL     OW 7519   0.573   4.594   4.753
 2278SOL    HW1 7520   0.617   4.683   4.744
 2278SOL    HW2 7521   0.510   4.594   4.830
 2279SOL     OW 7522   1.360   4.586   4.769
 2279SOL    HW1 7523   1.285   4.586   4.703
 2279SOL    HW2 7524   1.397   4.494   4.778
 2280SOL     OW 7525   1.209   4.249   3.999
 2280SOL    HW1 7526   1.222   4.165   4.053
 2280SOL    HW2 7527   1.180   4.323   4.059
 2281SOL     OW 7528   0.307   3.937   4.955
 2281SOL    HW1 7529   0.284   3.974   5.045
 2281SOL    HW2 7530   0.277   3.842   4.949
 2282SOL     OW 7531   0.037   5.034   5.006
 2282SOL    HW1 7532   0.090   4.985   5.074
 2282SOL    HW2 7533   0.059   5.132   5.011
 2283SOL     OW 7534   0.732   4.358   4.788
 2283SOL    HW1 7535   0.791   4.332   4.712
 2283SOL    HW2 7536   0.704   4.454   4.777
 2284SOL     OW 7537   1.728   4.659   5.578
 2284SOL    HW1 7538   1.682   4.652   5.489
 2284SOL    HW2 7539   1.666   4.703   5.644
 2285SOL     OW 7540   0.307   3.787   4.342
 2285SOL    HW1 7541   0.296   3.881   4.375
 2285SOL    HW2 7542   0.302   3.724   4.419
 2286SOL     OW 7543   1.622   4.091   4.098
 2286SOL    HW1 7544   1.624   4.015   4.162
 2286SOL    HW2 7545   1.574   4.168   4.138
 2287SOL     OW 7546   1.023   4.490   4.690
 2287SOL    HW1 7547   1.038   4.511   4.786
 2287SOL    HW2 7548   0.993   4.395   4.681
 2288SOL     OW 7549   1.859   5.242   5.329
 2288SOL    HW1 7550   1.873   5.269   5.234
 2288SOL    HW2 7551   1.942   5.264   5.382
 2289SOL     OW 7552   0.350   4.622   5.528
 2289SOL    HW1 7553   0.426   4.666   5.576
 2289SOL    HW2 7554   0.385   4.575   5.446
 2290SOL     OW 7555   1.540   3.998   3.849
 2290SOL    HW1 7556   1.479   3.923   3.872
 2290SOL    HW2 7557   1.562   4.050   3.932
 2291SOL     OW 7558   1.303   4.562   3.766
 2291SOL    HW1 7559   1.337   4.469   3.781
 2291SOL    HW2 7560   1.321   4.589   3.671
 2292SOL     OW 7561   1.068   5.057   4.573
 2292SOL    HW1 7562   1.075   4.973   4.518
 2292SOL    HW2 7563   1.130   5.126   4.537
 2293SOL     OW 7564   0.319   4.534   4.673
 2293SOL    HW1 7565   0.412   4.570   4.678
 2293SOL    HW2 7566   0.313   4.449   4.725
 2294SOL     OW 7567   0.339   4.233   4.730
 2294SOL    HW1 7568   0.287   4.150   4.713
 2294SOL    HW2 7569   0.416   4.238   4.666
 2295SOL     OW 7570   1.138   4.104   5.402
 2295SOL    HW1 7571   1.093   4.167   5.466
 2295SOL    HW2 7572   1.231   4.135   5.385
 2296SOL     OW 7573   1.160   3.931   5.201
 2296SOL    HW1 7574   1.160   3.995   5.278
 2296SOL    HW2 7575   1.188   3.979   5.118
 2297SOL     OW 7576   0.008   5.050   3.924
 2297SOL    HW1 7577  -0.085   5.071   3.893
 2297SOL    HW2 7578   0.018   4.951   3.937
 2298SOL     OW 7579   1.002   4.520   4.962
 2298SOL    HW1 7580   1.043   4.488   5.048
 2298SOL    HW2 7581   0.906   4.493   4.959
 2299SOL     OW 7582   0.040   4.268   4.838
 2299SOL    HW1 7583   0.125   4.235   4.797
 2299SOL    HW2 7584   0.053   4.283   4.936
 2300SOL     OW 7585   0.189   4.244   5.446
 2300SOL    HW1 7586   0.248   4.204   5.376
 2300SOL    HW2 7587   0.131   4.315   5.405
 2301SOL     OW 7588   1.369   4.674   5.384
 2301SOL    HW1 7589   1.408   4.763   5.404
 2301SOL    HW2 7590   1.379   4.654   5.287
 2302SOL     OW 7591   0.815   4.296   4.049
 2302SOL    HW1 7592   0.822   4.207   4.003
 2302SOL    HW2 7593   0.721   4.330   4.041
 2303SOL     OW 7594   1.657   4.328   4.930
 2303SOL    HW1 7595   1.619   4.259   4.992
 2303SOL    HW2 7596   1.739   4.292   4.886
 2304SOL     OW 7597   0.252   5.288   5.468
 2304SOL    HW1 7598   0.222   5.345   5.544
 2304SOL    HW2 7599   0.245   5.191   5.494
 2305SOL     OW 7600   0.671   4.188   4.993
 2305SOL    HW1 7601   0.637   4.099   4.963
 2305SOL    HW2 7602   0.697   4.242   4.913
 2306SOL     OW 7603   0.473   4.224   3.915
 2306SOL    HW1 7604   0.534   4.304   3.919
 2306SOL    HW2 7605   0.378   4.255   3.922
 2307SOL     OW 7606   0.159   4.861   5.190
 2307SOL    HW1 7607   0.181   4.800   5.266
 2307SOL    HW2 7608   0.169   4.812   5.104
 2308SOL     OW 7609   1.347   4.783   4.958
 2308SOL    HW1 7610   1.371   4.720   4.884
 2308SOL    HW2 7611   1.257   4.823   4.940
 2309SOL     OW 7612   1.302   4.579   4.033
 2309SOL    HW1 7613   1.216   4.548   4.075
 2309SOL    HW2 7614   1.298   4.565   3.934
 2310SOL     OW 7615   0.083   4.982   4.746
 2310SOL    HW1 7616   0.078   4.981   4.846
 2310SOL    HW2 7617   0.000   4.941   4.708
 2311SOL     OW 7618   0.688   5.386   5.440
 2311SOL    HW1 7619   0.632   5.467   5.449
 2311SOL    HW2 7620   0.740   5.390   5.354
 2312SOL     OW 7621   1.726   3.859   4.247
 2312SOL    HW1 7622   1.799   3.842   4.180
 2312SOL    HW2 7623   1.695   3.772   4.285
 2313SOL     OW 7624   1.280   4.651   4.396
 2313SOL    HW1 7625   1.340   4.570   4.398
 2313SOL    HW2 7626   1.320   4.720   4.336
 2314SOL     OW 7627   0.830   4.997   5.146
 2314SOL    HW1 7628   0.825   5.030   5.241
 2314SOL    HW2 7629   0.744   5.016   5.100
 2315SOL     OW 7630   1.841   3.899   4.687
 2315SOL    HW1 7631   1.880   3.814   4.651
 2315SOL    HW2 7632   1.743   3.901   4.668
 2316SOL     OW 7633   0.263   4.050   4.444
 2316SOL    HW1 7634   0.184   4.101   4.410
 2316SOL    HW2 7635   0.254   4.035   4.542
 2317SOL     OW 7636   0.822   4.726   5.096
 2317SOL    HW1 7637   0.862   4.725   5.004
 2317SOL    HW2 7638   0.832   4.818   5.136
 2318SOL     OW 7639   0.916   4.634   4.015
 2318SOL    HW1 7640   0.979   4.672   3.947
 2318SOL    HW2 7641   0.956   4.551   4.054
 2319SOL     OW 7642   0.372   5.012   5.214
 2319SOL    HW1 7643   0.359   5.105   5.180
 2319SOL    HW2 7644   0.288   4.960   5.201
 2320SOL     OW 7645   1.614   5.016   5.013
 2320SOL    HW1 7646   1.674   5.019   5.093
 2320SOL    HW2 7647   1.539   5.080   5.026
 2321SOL     OW 7648   1.039   4.822   4.420
 2321SOL    HW1 7649   0.969   4.775   4.474
 2321SOL    HW2 7650   1.098   4.754   4.377
 2322SOL     OW 7651   1.014   3.960   4.695
 2322SOL    HW1 7652   1.006   3.924   4.602
 2322SOL    HW2 7653   1.012   3.884   4.760
 2323SOL     OW 7654   1.709   4.109   5.105
 2323SOL    HW1 7655   1.782   4.178   5.109
 2323SOL    HW2 7656   1.737   4.034   5.046
 2324SOL     OW 7657   0.255   5.072   4.014
 2324SOL    HW1 7658   0.159   5.073   3.987
 2324SOL    HW2 7659   0.267   5.125   4.098
 2325SOL     OW 7660   0.105   4.737   5.450
 2325SOL    HW1 7661   0.028   4.704   5.504
 2325SOL    HW2 7662   0.190   4.707   5.492
 2326SOL     OW 7663   0.672   3.927   5.213
 2326SOL    HW1 7664   0.762   3.911   5.173
 2326SOL    HW2 7665   0.680   3.932   5.312
 2327SOL     OW 7666   0.075   4.069   3.757
 2327SOL    HW1 7667  -0.017   4.041   3.728
 2327SOL    HW2 7668   0.106   4.146   3.701
 2328SOL     OW 7669   1.440   4.580   5.122
 2328SOL    HW1 7670   1.383   4.632   5.059
 2328SOL    HW2 7671   1.536   4.592   5.098
 2329SOL     OW 7672   0.072   3.890   4.042
 2329SOL    HW1 7673   0.055   3.973   3.988
 2329SOL    HW2 7674   0.162   3.853   4.020
 2330SOL     OW 7675   1.183   5.059   3.843
 2330SOL    HW1 7676   1.084   5.048   3.845
 2330SOL    HW2 7677   1.217   5.074   3.936
 2331SOL     OW 7678   0.613   4.566   5.155
 2331SOL    HW1 7679   0.669   4.647   5.138
 2331SOL    HW2 7680   0.672   4.486   5.158
 2332SOL     OW 7681   0.716   4.289   5.432
 2332SOL    HW1 7682   0.735   4.354   5.506
 2332SOL    HW2 7683   0.776   4.209   5.441
 2333SOL     OW 7684   1.450   4.944   5.357
 2333SOL    HW1 7685   1.441   4.934   5.456
 2333SOL    HW2 7686   1.546   4.937   5.331
 2334SOL     OW 7687   1.674   4.607   4.978
 2334SOL    HW1 7688   1.647   4.518   4.941
 2334SOL    HW2 7689   1.675   4.675   4.905
 2335SOL     OW 7690   1.225   4.049   4.173
 2335SOL    HW1 7691   1.290   3.975   4.162
 2335SOL    HW2 7692   1.245   4.099   4.257
 2336SOL     OW 7693   0.594   4.469   4.376
 2336SOL    HW1 7694   0.644   4.554   4.357
 2336SOL    HW2 7695   0.506   4.471   4.328
 2337SOL     OW 7696   1.777   4.066   5.366
 2337SOL    HW1 7697   1.760   4.097   5.272
 2337SOL    HW2 7698   1.693   4.029   5.404
 2338SOL     OW 7699   1.730   4.658   5.241
 2338SOL    HW1 7700   1.768   4.749   5.256
 2338SOL    HW2 7701   1.722   4.641   5.142
 2339SOL     OW 7702   0.859   5.098   3.740
 2339SOL    HW1 7703   0.813   5.113   3.828
 2339SOL    HW2 7704   0.903   5.183   3.710
 2340SOL     OW 7705   0.859   4.680   4.585
 2340SOL    HW1 7706   0.913   4.611   4.633
 2340SOL    HW2 7707   0.827   4.749   4.651
 2341SOL     OW 7708   1.083   4.708   3.811
 2341SOL    HW1 7709   1.060   4.761   3.729
 2341SOL    HW2 7710   1.164   4.652   3.792
 2342SOL     OW 7711   0.221   5.038   5.568
 2342SOL    HW1 7712   0.156   4.965   5.547
 2342SOL    HW2 7713   0.225   5.052   5.666
 2343SOL     OW 7714   0.079   4.964   4.377
 2343SOL    HW1 7715   0.078   4.917   4.465
 2343SOL    HW2 7716   0.161   4.936   4.326
 2344SOL     OW 7717   0.672   5.115   5.348
 2344SOL    HW1 7718   0.594   5.065   5.386
 2344SOL    HW2 7719   0.669   5.210   5.379
 2345SOL     OW 7720   1.824   3.916   4.951
 2345SOL    HW1 7721   1.820   3.826   4.995
 2345SOL    HW2 7722   1.827   3.905   4.852
 2346SOL     OW 7723   0.428   4.148   4.244
 2346SOL    HW1 7724   0.458   4.076   4.182
 2346SOL    HW2 7725   0.389   4.108   4.327
 2347SOL     OW 7726   1.705   5.211   4.828
 2347SOL    HW1 7727   1.612   5.186   4.801
 2347SOL    HW2 7728   1.731   5.161   4.910
 2348SOL     OW 7729   0.317   4.271   5.004
 2348SOL    HW1 7730   0.355   4.212   5.076
 2348SOL    HW2 7731   0.357   4.245   4.916
 2349SOL     OW 7732   1.424   3.938   4.836
 2349SOL    HW1 7733   1.476   3.873   4.891
 2349SOL    HW2 7734   1.375   4.001   4.897
 2350SOL     OW 7735   1.001   3.758   4.878
 2350SOL    HW1 7736   0.938   3.686   4.847
 2350SOL    HW2 7737   1.094   3.722   4.878
 2351SOL     OW 7738   0.770   5.054   4.025
 2351SOL    HW1 7739   0.724   4.967   4.042
 2351SOL    HW2 7740   0.861   5.051   4.066
 2352SOL     OW 7741   0.618   5.291   5.008
 2352SOL    HW1 7742   0.613   5.373   5.065
 2352SOL    HW2 7743   0.707   5.288   4.963
 2353SOL     OW 7744   1.352   3.776   3.892
 2353SOL    HW1 7745   1.387   3.735   3.808
 2353SOL    HW2 7746   1.262   3.738   3.912
 2354SOL     OW 7747   1.300   4.177   4.415
 2354SOL    HW1 7748   1.241   4.257   4.419
 2354SOL    HW2 7749   1.315   4.142   4.508
 2355SOL     OW 7750   1.593   3.945   4.606
 2355SOL    HW1 7751   1.509   3.944   4.660
 2355SOL    HW2 7752   1.595   4.028   4.550
 2356SOL     OW 7753   0.039   4.801   4.024
 2356SOL    HW1 7754   0.138   4.790   4.015
 2356SOL    HW2 7755  -0.001   4.715   4.056
 2357SOL     OW 7756   0.230   4.352   5.699
 2357SOL    HW1 7757   0.137   4.350   5.736
 2357SOL    HW2 7758   0.231   4.313   5.607
 2358SOL     OW 7759   0.225   3.999   6.582
 2358SOL    HW1 7760   0.260   3.982   6.674
 2358SOL    HW2 7761   0.137   3.954   6.570
 2359SOL     OW 7762   0.019   4.092   6.233
 2359SOL    HW1 7763  -0.063   4.135   6.272
 2359SOL    HW2 7764  -0.009   4.019   6.170
 2360SOL     OW 7765   0.569   4.999   6.751
 2360SOL    HW1 7766   0.476   4.992   6.714
 2360SOL    HW2 7767   0.580   5.088   6.795
 2361SOL     OW 7768   1.555   5.235   6.289
 2361SOL    HW1 7769   1.498   5.219   6.370
 2361SOL    HW2 7770   1.496   5.245   6.209
 2362SOL     OW 7771   1.135   4.427   6.303
 2362SOL    HW1 7772   1.192   4.505   6.278
 2362SOL    HW2 7773   1.075   4.453   6.379
 2363SOL     OW 7774   1.755   4.331   5.817
 2363SOL    HW1 7775   1.743   4.318   5.718
 2363SOL    HW2 7776   1.725   4.250   5.866
 2364SOL     OW 7777   0.768   4.868   6.609
 2364SOL    HW1 7778   0.690   4.885   6.669
 2364SOL    HW2 7779   0.802   4.955   6.573
 2365SOL     OW 7780   0.850   4.522   7.409
 2365SOL    HW1 7781   0.846   4.598   7.474
 2365SOL    HW2 7782   0.872   4.558   7.318
 2366SOL     OW 7783   0.685   4.736   6.251
 2366SOL    HW1 7784   0.754   4.720   6.321
 2366SOL    HW2 7785   0.612   4.793   6.289
 2367SOL     OW 7786   0.686   4.885   7.389
 2367SOL    HW1 7787   0.746   4.964   7.403
 2367SOL    HW2 7788   0.600   4.916   7.348
 2368SOL     OW 7789   0.335   5.159   6.647
 2368SOL    HW1 7790   0.257   5.128   6.594
 2368SOL    HW2 7791   0.393   5.217   6.590
 2369SOL     OW 7792   1.460   5.229   6.925
 2369SOL    HW1 7793   1.484   5.323   6.951
 2369SOL    HW2 7794   1.444   5.175   7.007
 2370SOL     OW 7795   0.438   4.116   7.085
 2370SOL    HW1 7796   0.520   4.060   7.094
 2370SOL    HW2 7797   0.357   4.058   7.089
 2371SOL     OW 7798   1.603   4.171   6.323
 2371SOL    HW1 7799   1.529   4.217   6.273
 2371SOL    HW2 7800   1.654   4.239   6.376
 2372SOL     OW 7801   1.127   5.065   7.276
 2372SOL    HW1 7802   1.174   5.065   7.364
 2372SOL    HW2 7803   1.079   4.978   7.265
 2373SOL     OW 7804   0.230   5.158   6.124
 2373SOL    HW1 7805   0.204   5.254   6.124
 2373SOL    HW2 7806   0.159   5.104   6.169
 2374SOL     OW 7807   0.240   4.815   6.472
 2374SOL    HW1 7808   0.254   4.731   6.524
 2374SOL    HW2 7809   0.185   4.879   6.527
 2375SOL     OW 7810   0.606   4.688   5.709
 2375SOL    HW1 7811   0.613   4.772   5.655
 2375SOL    HW2 7812   0.652   4.701   5.797
 2376SOL     OW 7813   1.594   3.838   7.066
 2376SOL    HW1 7814   1.576   3.905   6.994
 2376SOL    HW2 7815   1.591   3.884   7.155
 2377SOL     OW 7816   0.122   4.367   6.149
 2377SOL    HW1 7817   0.077   4.279   6.166
 2377SOL    HW2 7818   0.121   4.421   6.233
 2378SOL     OW 7819   0.027   5.320   5.703
 2378SOL    HW1 7820   0.008   5.224   5.724
 2378SOL    HW2 7821  -0.006   5.378   5.778
 2379SOL     OW 7822   1.689   4.646   6.198
 2379SOL    HW1 7823   1.784   4.617   6.206
 2379SOL    HW2 7824   1.681   4.711   6.123
 2380SOL     OW 7825   1.641   4.832   6.018
 2380SOL    HW1 7826   1.727   4.834   5.966
 2380SOL    HW2 7827   1.655   4.879   6.106
 2381SOL     OW 7828   0.113   4.461   7.183
 2381SOL    HW1 7829   0.201   4.448   7.228
 2381SOL    HW2 7830   0.100   4.558   7.161
 2382SOL     OW 7831   0.613   5.089   6.312
 2382SOL    HW1 7832   0.564   5.002   6.321
 2382SOL    HW2 7833   0.590   5.132   6.225
 2383SOL     OW 7834   1.293   4.952   7.009
 2383SOL    HW1 7835   1.330   4.879   6.951
 2383SOL    HW2 7836   1.345   4.957   7.094
 2384SOL     OW 7837   0.809   3.728   6.088
 2384SOL    HW1 7838   0.849   3.819   6.079
 2384SOL    HW2 7839   0.709   3.736   6.094
 2385SOL     OW 7840   0.197   4.700   6.850
 2385SOL    HW1 7841   0.286   4.655   6.836
 2385SOL    HW2 7842   0.124   4.635   6.831
 2386SOL     OW 7843   1.525   4.723   5.776
 2386SOL    HW1 7844   1.462   4.647   5.789
 2386SOL    HW2 7845   1.573   4.741   5.862
 2387SOL     OW 7846   0.317   3.975   7.387
 2387SOL    HW1 7847   0.388   4.046   7.393
 2387SOL    HW2 7848   0.229   4.014   7.415
 2388SOL     OW 7849   1.466   5.141   6.539
 2388SOL    HW1 7850   1.407   5.147   6.619
 2388SOL    HW2 7851   1.451   5.053   6.493
 2389SOL     OW 7852   0.598   4.453   5.856
 2389SOL    HW1 7853   0.622   4.522   5.788
 2389SOL    HW2 7854   0.520   4.486   5.910
 2390SOL     OW 7855   1.281   4.069   6.530
 2390SOL    HW1 7856   1.195   4.019   6.517
 2390SOL    HW2 7857   1.343   4.015   6.586
 2391SOL     OW 7858   0.807   4.329   7.051
 2391SOL    HW1 7859   0.760   4.326   7.140
 2391SOL    HW2 7860   0.756   4.274   6.985
 2392SOL     OW 7861   1.394   4.193   7.260
 2392SOL    HW1 7862   1.374   4.236   7.348
 2392SOL    HW2 7863   1.472   4.131   7.269
 2393SOL     OW 7864   0.973   4.614   7.158
 2393SOL    HW1 7865   1.019   4.530   7.129
 2393SOL    HW2 7866   0.917   4.648   7.083
 2394SOL     OW 7867   0.991   4.134   6.828
 2394SOL    HW1 7868   0.914   4.168   6.882
 2394SOL    HW2 7869   0.957   4.083   6.749
 2395SOL     OW 7870   1.041   4.425   6.015
 2395SOL    HW1 7871   1.067   4.421   6.111
 2395SOL    HW2 7872   0.956   4.374   6.001
 2396SOL     OW 7873   0.076   4.535   6.375
 2396SOL    HW1 7874   0.175   4.523   6.384
 2396SOL    HW2 7875   0.052   4.630   6.396
 2397SOL     OW 7876   0.865   4.072   5.781
 2397SOL    HW1 7877   0.924   4.135   5.732
 2397SOL    HW2 7878   0.884   3.978   5.752
 2398SOL     OW 7879   1.719   4.309   7.417
 2398SOL    HW1 7880   1.693   4.398   7.381
 2398SOL    HW2 7881   1.717   4.241   7.344
 2399SOL     OW 7882   1.362   4.868   6.131
 2399SOL    HW1 7883   1.445   4.839   6.083
 2399SOL    HW2 7884   1.313   4.935   6.075
 2400SOL     OW 7885   0.550   3.920   6.471
 2400SOL    HW1 7886   0.545   3.915   6.571
 2400SOL    HW2 7887   0.552   4.016   6.442
 2401SOL     OW 7888   1.008   5.180   6.063
 2401SOL    HW1 7889   0.962   5.252   6.011
 2401SOL    HW2 7890   1.004   5.200   6.161
 2402SOL     OW 7891   1.795   4.790   6.459
 2402SOL    HW1 7892   1.733   4.775   6.383
 2402SOL    HW2 7893   1.743   4.801   6.544
 2403SOL     OW 7894   1.227   5.274   7.092
 2403SOL    HW1 7895   1.233   5.197   7.156
 2403SOL    HW2 7896   1.175   5.248   7.012
 2404SOL     OW 7897   0.321   4.667   5.828
 2404SOL    HW1 7898   0.403   4.706   5.786
 2404SOL    HW2 7899   0.294   4.585   5.779
 2405SOL     OW 7900   1.458   4.459   6.314
 2405SOL    HW1 7901   1.453   4.394   6.389
 2405SOL    HW2 7902   1.538   4.518   6.327
 2406SOL     OW 7903   0.461   4.990   7.313
 2406SOL    HW1 7904   0.411   4.991   7.227
 2406SOL    HW2 7905   0.398   4.972   7.389
 2407SOL     OW 7906   1.111   5.500   5.823
 2407SOL    HW1 7907   1.051   5.438   5.873
 2407SOL    HW2 7908   1.142   5.456   5.738
 2408SOL     OW 7909   0.202   4.009   7.084
 2408SOL    HW1 7910   0.122   4.069   7.071
 2408SOL    HW2 7911   0.192   3.960   7.170
 2409SOL     OW 7912   1.632   5.101   5.667
 2409SOL    HW1 7913   1.600   5.195   5.657
 2409SOL    HW2 7914   1.556   5.038   5.655
 2410SOL     OW 7915   1.400   3.831   6.012
 2410SOL    HW1 7916   1.376   3.794   5.922
 2410SOL    HW2 7917   1.499   3.847   6.016
 2411SOL     OW 7918   0.382   4.424   6.066
 2411SOL    HW1 7919   0.427   4.334   6.063
 2411SOL    HW2 7920   0.288   4.413   6.099
 2412SOL     OW 7921   1.547   3.946   7.315
 2412SOL    HW1 7922   1.542   3.983   7.407
 2412SOL    HW2 7923   1.475   3.877   7.303
 2413SOL     OW 7924   0.614   3.846   5.703
 2413SOL    HW1 7925   0.712   3.824   5.710
 2413SOL    HW2 7926   0.583   3.829   5.610
 2414SOL     OW 7927   0.781   3.988   7.335
 2414SOL    HW1 7928   0.848   3.927   7.378
 2414SOL    HW2 7929   0.708   4.007   7.400
 2415SOL     OW 7930   1.351   4.314   7.019
 2415SOL    HW1 7931   1.379   4.271   7.104
 2415SOL    HW2 7932   1.376   4.410   7.020
 2416SOL     OW 7933   0.803   5.126   6.510
 2416SOL    HW1 7934   0.893   5.140   6.468
 2416SOL    HW2 7935   0.732   5.128   6.439
 2417SOL     OW 7936   0.922   4.227   6.485
 2417SOL    HW1 7937   0.897   4.218   6.389
 2417SOL    HW2 7938   0.970   4.145   6.516
 2418SOL     OW 7939   0.539   3.788   6.098
 2418SOL    HW1 7940   0.458   3.789   6.156
 2418SOL    HW2 7941   0.542   3.871   6.043
 2419SOL     OW 7942   1.434   4.912   5.627
 2419SOL    HW1 7943   1.466   4.836   5.684
 2419SOL    HW2 7944   1.342   4.939   5.657
 2420SOL     OW 7945   0.297   3.759   5.757
 2420SOL    HW1 7946   0.346   3.843   5.736
 2420SOL    HW2 7947   0.359   3.694   5.802
 2421SOL     OW 7948   0.935   3.960   6.066
 2421SOL    HW1 7949   0.887   4.001   5.988
 2421SOL    HW2 7950   1.034   3.958   6.047
 2422SOL     OW 7951   1.076   4.407   7.050
 2422SOL    HW1 7952   0.996   4.346   7.053
 2422SOL    HW2 7953   1.157   4.354   7.026
 2423SOL     OW 7954   1.227   5.294   6.379
 2423SOL    HW1 7955   1.248   5.368   6.314
 2423SOL    HW2 7956   1.295   5.294   6.452
 2424SOL     OW 7957   0.459   4.876   6.327
 2424SOL    HW1 7958   0.388   4.849   6.392
 2424SOL    HW2 7959   0.433   4.848   6.234
 2425SOL     OW 7960   1.032   4.273   5.602
 2425SOL    HW1 7961   0.991   4.355   5.563
 2425SOL    HW2 7962   1.096   4.299   5.675
 2426SOL     OW 7963   0.078   4.280   6.972
 2426SOL    HW1 7964   0.170   4.279   6.931
 2426SOL    HW2 7965   0.072   4.354   7.039
 2427SOL     OW 7966   0.561   3.946   6.733
 2427SOL    HW1 7967   0.599   3.862   6.770
 2427SOL    HW2 7968   0.473   3.965   6.777
 2428SOL     OW 7969   0.866   4.178   6.228
 2428SOL    HW1 7970   0.834   4.250   6.166
 2428SOL    HW2 7971   0.890   4.097   6.175
 2429SOL     OW 7972   1.017   3.763   6.339
 2429SOL    HW1 7973   0.945   3.768   6.270
 2429SOL    HW2 7974   0.993   3.694   6.408
 2430SOL     OW 7975   1.429   4.897   6.453
 2430SOL    HW1 7976   1.374   4.813   6.446
 2430SOL    HW2 7977   1.455   4.926   6.361
 2431SOL     OW 7978   1.466   4.314   6.578
 2431SOL    HW1 7979   1.436   4.219   6.585
 2431SOL    HW2 7980   1.539   4.330   6.644
 2432SOL     OW 7981   1.857   4.557   5.963
 2432SOL    HW1 7982   1.899   4.493   6.027
 2432SOL    HW2 7983   1.819   4.506   5.885
 2433SOL     OW 7984   0.488   5.109   5.760
 2433SOL    HW1 7985   0.401   5.094   5.807
 2433SOL    HW2 7986   0.471   5.135   5.665
 2434SOL     OW 7987   1.664   5.004   6.243
 2434SOL    HW1 7988   1.763   5.012   6.257
 2434SOL    HW2 7989   1.619   5.088   6.274
 2435SOL     OW 7990   1.390   4.299   5.664
 2435SOL    HW1 7991   1.336   4.278   5.745
 2435SOL    HW2 7992   1.481   4.258   5.673
 2436SOL     OW 7993   0.527   3.980   5.914
 2436SOL    HW1 7994   0.554   3.921   5.839
 2436SOL    HW2 7995   0.527   4.075   5.883
 2437SOL     OW 7996   1.754   4.947   7.174
 2437SOL    HW1 7997   1.845   4.908   7.161
 2437SOL    HW2 7998   1.762   5.043   7.198
 2438SOL     OW 7999   1.064   5.071   6.926
 2438SOL    HW1 8000   0.984   5.048   6.981
 2438SOL    HW2 8001   1.147   5.045   6.975
 2439SOL     OW 8002   1.111   4.919   6.686
 2439SOL    HW1 8003   1.071   4.963   6.767
 2439SOL    HW2 8004   1.070   4.956   6.603
 2440SOL     OW 8005   1.638   4.823   6.665
 2440SOL    HW1 8006   1.643   4.904   6.724
 2440SOL    HW2 8007   1.552   4.825   6.614
 2441SOL     OW 8008   0.915   3.813   6.988
 2441SOL    HW1 8009   0.940   3.793   6.893
 2441SOL    HW2 8010   0.987   3.869   7.030
 2442SOL     OW 8011   0.980   4.840   7.305
 2442SOL    HW1 8012   0.881   4.846   7.315
 2442SOL    HW2 8013   1.003   4.760   7.249
 2443SOL     OW 8014   0.705   4.774   5.954
 2443SOL    HW1 8015   0.691   4.781   6.053
 2443SOL    HW2 8016   0.789   4.723   5.936
 2444SOL     OW 8017   0.410   4.537   6.837
 2444SOL    HW1 8018   0.496   4.549   6.887
 2444SOL    HW2 8019   0.368   4.450   6.864
 2445SOL     OW 8020   1.274   4.110   6.848
 2445SOL    HW1 8021   1.295   4.184   6.912
 2445SOL    HW2 8022   1.185   4.127   6.805
 2446SOL     OW 8023   0.064   5.288   6.917
 2446SOL    HW1 8024   0.018   5.370   6.883
 2446SOL    HW2 8025   0.162   5.307   6.926
 2447SOL     OW 8026   0.367   4.824   6.087
 2447SOL    HW1 8027   0.360   4.907   6.031
 2447SOL    HW2 8028   0.371   4.744   6.027
 2448SOL     OW 8029   0.566   4.261   6.451
 2448SOL    HW1 8030   0.578   4.327   6.377
 2448SOL    HW2 8031   0.612   4.295   6.534
 2449SOL     OW 8032   1.252   5.072   5.974
 2449SOL    HW1 8033   1.302   5.149   6.014
 2449SOL    HW2 8034   1.157   5.074   6.006
 2450SOL     OW 8035   1.272   5.169   6.728
 2450SOL    HW1 8036   1.319   5.182   6.815
 2450SOL    HW2 8037   1.206   5.095   6.737
 2451SOL     OW 8038   1.582   4.363   6.058
 2451SOL    HW1 8039   1.551   4.424   6.131
 2451SOL    HW2 8040   1.632   4.415   5.989
 2452SOL     OW 8041   0.354   5.234   6.915
 2452SOL    HW1 8042   0.333   5.190   6.828
 2452SOL    HW2 8043   0.451   5.260   6.918
 2453SOL     OW 8044   0.402   4.475   7.184
 2453SOL    HW1 8045   0.470   4.530   7.137
 2453SOL    HW2 8046   0.442   4.387   7.211
 2454SOL     OW 8047   1.587   4.503   7.256
 2454SOL    HW1 8048   1.495   4.541   7.251
 2454SOL    HW2 8049   1.647   4.550   7.191
 2455SOL     OW 8050   1.013   3.829   7.356
 2455SOL    HW1 8051   1.019   3.914   7.304
 2455SOL    HW2 8052   1.045   3.753   7.299
 2456SOL     OW 8053   0.504   3.774   7.326
 2456SOL    HW1 8054   0.462   3.717   7.256
 2456SOL    HW2 8055   0.438   3.843   7.358
 2457SOL     OW 8056   0.573   4.594   6.615
 2457SOL    HW1 8057   0.617   4.683   6.606
 2457SOL    HW2 8058   0.510   4.594   6.692
 2458SOL     OW 8059   1.360   4.586   6.631
 2458SOL    HW1 8060   1.285   4.586   6.565
 2458SOL    HW2 8061   1.397   4.494   6.640
 2459SOL     OW 8062   1.209   4.249   5.861
 2459SOL    HW1 8063   1.222   4.165   5.915
 2459SOL    HW2 8064   1.180   4.323   5.921
 2460SOL     OW 8065   0.307   3.937   6.817
 2460SOL    HW1 8066   0.284   3.974   6.907
 2460SOL    HW2 8067   0.277   3.842   6.811
 2461SOL     OW 8068   0.037   5.034   6.868
 2461SOL    HW1 8069   0.090   4.985   6.936
 2461SOL    HW2 8070   0.059   5.132   6.873
 2462SOL     OW 8071   0.732   4.358   6.650
 2462SOL    HW1 8072   0.791   4.332   6.574
 2462SOL    HW2 8073   0.704   4.454   6.639
 2463SOL     OW 8074   1.728   4.659   7.440
 2463SOL    HW1 8075   1.682   4.652   7.351
 2463SOL    HW2 8076   1.666   4.703   7.506
 2464SOL     OW 8077   0.307   3.787   6.204
 2464SOL    HW1 8078   0.296   3.881   6.237
 2464SOL    HW2 8079   0.302   3.724   6.281
 2465SOL     OW 8080   1.622   4.091   5.960
 2465SOL    HW1 8081   1.624   4.015   6.024
 2465SOL    HW2 8082   1.574   4.168   6.000
 2466SOL     OW 8083   1.023   4.490   6.552
 2466SOL    HW1 8084   1.038   4.511   6.648
 2466SOL    HW2 8085   0.993   4.395   6.543
 2467SOL     OW 8086   1.859   5.242   7.191
 2467SOL    HW1 8087   1.873   5.269   7.096
 2467SOL    HW2 8088   1.942   5.264   7.244
 2468SOL     OW 8089   0.350   4.622   7.390
 2468SOL    HW1 8090   0.426   4.666   7.438
 2468SOL    HW2 8091   0.385   4.575   7.308
 2469SOL     OW 8092   1.540   3.998   5.711
 2469SOL    HW1 8093   1.479   3.923   5.734
 2469SOL    HW2 8094   1.562   4.050   5.794
 2470SOL     OW 8095   1.303   4.562   5.628
 2470SOL    HW1 8096   1.337   4.469   5.643
 2470SOL    HW2 8097   1.321   4.589   5.533
 2471SOL     OW 8098   1.068   5.057   6.435
 2471SOL    HW1 8099   1.075   4.973   6.380
 2471SOL    HW2 8100   1.130   5.126   6.399
 2472SOL     OW 8101   0.319   4.534   6.535
 2472SOL    HW1 8102   0.412   4.570   6.540
 2472SOL    HW2 8103   0.313   4.449   6.587
 2473SOL     OW 8104   0.339   4.233   6.592
 2473SOL    HW1 8105   0.287   4.150   6.575
 2473SOL    HW2 8106   0.416   4.238   6.528
 2474SOL     OW 8107   1.138   4.104   7.264
 2474SOL    HW1 8108   1.093   4.167   7.328
 2474SOL    HW2 8109   1.231   4.135   7.247
 2475SOL     OW 8110   1.160   3.931   7.063
 2475SOL    HW1 8111   1.160   3.995   7.140
 2475SOL    HW2 8112   1.188   3.979   6.980
 2476SOL     OW 8113   0.008   5.050   5.786
 2476SOL    HW1 8114  -0.085   5.071   5.755
 2476SOL    HW2 8115   0.018   4.951   5.799
 2477SOL     OW 8116   1.002   4.520   6.824
 2477SOL    HW1 8117   1.043   4.488   6.910
 2477SOL    HW2 8118   0.906   4.493   6.821
 2478SOL     OW 8119   0.040   4.268   6.700
 2478SOL    HW1 8120   0.125   4.235   6.659
 2478SOL    HW2 8121   0.053   4.283   6.798
 2479SOL     OW 8122   0.189   4.244   7.308
 2479SOL    HW1 8123   0.248   4.204   7.238
 2479SOL    HW2 8124   0.131   4.315   7.267
 2480SOL     OW 8125   1.369   4.674   7.246
 2480SOL    HW1 8126   1.408   4.763   7.266
 2480SOL    HW2 8127   1.379   4.654   7.149
 2481SOL     OW 8128   0.815   4.296   5.911
 2481SOL    HW1 8129   0.822   4.207   5.865
 2481SOL    HW2 8130   0.721   4.330   5.903
 2482SOL     OW 8131   1.657   4.328   6.792
 2482SOL    HW1 8132   1.619   4.259   6.854
 2482SOL    HW2 8133   1.739   4.292   6.748
 2483SOL     OW 8134   0.252   5.288   7.330
 2483SOL    HW1 8135   0.222   5.345   7.406
 2483SOL    HW2 8136   0.245   5.191   7.356
 2484SOL     OW 8137   0.671   4.188   6.855
 2484SOL    HW1 8138   0.637   4.099   6.825
 2484SOL    HW2 8139   0.697   4.242   6.775
 2485SOL     OW 8140   0.473   4.224   5.777
 2485SOL    HW1 8141   0.534   4.304   5.781
 2485SOL    HW2 8142   0.378   4.255   5.784
 2486SOL     OW 8143   0.159   4.861   7.052
 2486SOL    HW1 8144   0.181   4.800   7.128
 2486SOL    HW2 8145   0.169   4.812   6.966
 2487SOL     OW 8146   1.347   4.783   6.820
 2487SOL    HW1 8147   1.371   4.720   6.746
 2487SOL    HW2 8148   1.257   4.823   6.802
 2488SOL     OW 8149   1.302   4.579   5.895
 2488SOL    HW1 8150   1.216   4.548   5.937
 2488SOL    HW2 8151   1.298   4.565   5.796
 2489SOL     OW 8152   0.083   4.982   6.608
 2489SOL    HW1 8153   0.078   4.981   6.708
 2489SOL    HW2 8154   0.000   4.941   6.570
 2490SOL     OW 8155   0.688   5.386   7.302
 2490SOL    HW1 8156   0.632   5.467   7.311
 2490SOL    HW2 8157   0.740   5.390   7.216
 2491SOL     OW 8158   1.726   3.859   6.109
 2491SOL    HW1 8159   1.799   3.842   6.042
 2491SOL    HW2 8160   1.695   3.772   6.147
 2492SOL     OW 8161   1.280   4.651   6.258
 2492SOL    HW1 8162   1.340   4.570   6.260
 2492SOL    HW2 8163   1.320   4.720   6.198
 2493SOL     OW 8164   0.830   4.997   7.008
 2493SOL    HW1 8165   0.825   5.030   7.103
 2493SOL    HW2 8166   0.744   5.016   6.962
 2494SOL     OW 8167   1.841   3.899   6.549
 2494SOL    HW1 8168   1.880   3.814   6.513
 2494SOL    HW2 8169   1.743   3.901   6.530
 2495SOL     OW 8170   0.263   4.050   6.306
 2495SOL    HW1 8171   0.184   4.101   6.272
 2495SOL    HW2 8172   0.254   4.035   6.404
 2496SOL     OW 8173   0.822   4.726   6.958
 2496SOL    HW1 8174   0.862   4.725   6.866
 2496SOL    HW2 8175   0.832   4.818   6.998
 2497SOL     OW 8176   0.916   4.634   5.877
 2497SOL    HW1 8177   0.979   4.672   5.809
 2497SOL    HW2 8178   0.956   4.551   5.916
 2498SOL     OW 8179   0.372   5.012   7.076
 2498SOL    HW1 8180   0.359   5.105   7.042
 2498SOL    HW2 8181   0.288   4.960   7.063
 2499SOL     OW 8182   1.614   5.016   6.875
 2499SOL    HW1 8183   1.674   5.019   6.955
 2499SOL    HW2 8184   1.539   5.080   6.888
 2500SOL     OW 8185   1.039   4.822   6.282
 2500SOL    HW1 8186   0.969   4.775   6.336
 2500SOL    HW2 8187   1.098   4.754   6.239
 2501SOL     OW 8188   1.014   3.960   6.557
 2501SOL    HW1 8189   1.006   3.924   6.464
 2501SOL    HW2 8190   1.012   3.884   6.622
 2502SOL     OW 8191   1.709   4.109   6.967
 2502SOL    HW1 8192   1.782   4.178   6.971
 2502SOL    HW2 8193   1.737   4.034   6.908
 2503SOL     OW 8194   0.255   5.072   5.876
 2503SOL    HW1 8195   0.159   5.073   5.849
 2503SOL    HW2 8196   0.267   5.125   5.960
 2504SOL     OW 8197   0.105   4.737   7.312
 2504SOL    HW1 8198   0.028   4.704   7.366
 2504SOL    HW2 8199   0.190   4.707   7.354
 2505SOL     OW 8200   0.672   3.927   7.075
 2505SOL    HW1 8201   0.762   3.911   7.035
 2505SOL    HW2 8202   0.680   3.932   7.174
 2506SOL     OW 8203   0.075   4.069   5.619
 2506SOL    HW1 8204  -0.017   4.041   5.590
 2506SOL    HW2 8205   0.106   4.146   5.563
 2507SOL     OW 8206   1.440   4.580   6.984
 2507SOL    HW1 8207   1.383   4.632   6.921
 2507SOL    HW2 8208   1.536   4.592   6.960
 2508SOL     OW 8209   0.072   3.890   5.904
 2508SOL    HW1 8210   0.055   3.973   5.850
 2508SOL    HW2 8211   0.162   3.853   5.882
 2509SOL     OW 8212   1.183   5.059   5.705
 2509SOL    HW1 8213   1.084   5.048   5.707
 2509SOL    HW2 8214   1.217   5.074   5.798
 2510SOL     OW 8215   0.613   4.566   7.017
 2510SOL    HW1 8216   0.669   4.647   7.000
 2510SOL    HW2 8217   0.672   4.486   7.020
 2511SOL     OW 8218   0.716   4.289   7.294
 2511SOL    HW1 8219   0.735   4.354   7.368
 2511SOL    HW2 8220   0.776   4.209   7.303
 2512SOL     OW 8221   1.450   4.944   7.219
 2512SOL    HW1 8222   1.441   4.934   7.318
 2512SOL    HW2 8223   1.546   4.937   7.193
 2513SOL     OW 8224   1.674   4.607   6.840
 2513SOL    HW1 8225   1.647   4.518   6.803
 2513SOL    HW2 8226   1.675   4.675   6.767
 2514SOL     OW 8227   1.225   4.049   6.035
 2514SOL    HW1 8228   1.290   3.975   6.024
 2514SOL    HW2 8229   1.245   4.099   6.119
 2515SOL     OW 8230   0.594   4.469   6.238
 2515SOL    HW1 8231   0.644   4.554   6.219
 2515SOL    HW2 8232   0.506   4.471   6.190
 2516SOL     OW 8233   1.777   4.066   7.228
 2516SOL    HW1 8234   1.760   4.097   7.134
 2516SOL    HW2 8235   1.693   4.029   7.266
 2517SOL     OW 8236   1.730   4.658   7.103
 2517SOL    HW1 8237   1.768   4.749   7.118
 2517SOL    HW2 8238   1.722   4.641   7.004
 2518SOL     OW 8239   0.859   5.098   5.602
 2518SOL    HW1 8240   0.813   5.113   5.690
 2518SOL    HW2 8241   0.903   5.183   5.572
 2519SOL     OW 8242   0.859   4.680   6.447
 2519SOL    HW1 8243   0.913   4.611   6.495
 2519SOL    HW2 8244   0.827   4.749   6.513
 2520SOL     OW 8245   1.083   4.708   5.673
 2520SOL    HW1 8246   1.060   4.761   5.591
 2520SOL    HW2 8247   1.164   4.652   5.654
 2521SOL     OW 8248   0.221   5.038   7.430
 2521SOL    HW1 8249   0.156   4.965   7.409
 2521SOL    HW2 8250   0.225   5.052   7.528
 2522SOL     OW 8251   0.079   4.964   6.239
 2522SOL    HW1 8252   0.078   4.917   6.327
 2522SOL    HW2 8253   0.161   4.936   6.188
 2523SOL     OW 8254   0.672   5.115   7.210
 2523SOL    HW1 8255   0.594   5.065   7.248
 2523SOL    HW2 8256   0.669   5.210   7.241
 2524SOL     OW 8257   1.824   3.916   6.813
 2524SOL    HW1 8258   1.820   3.826   6.857
 2524SOL    HW2 8259   1.827   3.905   6.714
 2525SOL     OW 8260   0.428   4.148   6.106
 2525SOL    HW1 8261   0.458   4.076   6.044
 2525SOL    HW2 8262   0.389   4.108   6.189
 2526SOL     OW 8263   1.705   5.211   6.690
 2526SOL    HW1 8264   1.612   5.186   6.663
 2526SOL    HW2 8265   1.731   5.161   6.772
 2527SOL     OW 8266   0.317   4.271   6.866
 2527SOL    HW1 8267   0.355   4.212   6.938
 2527SOL    HW2 8268   0.357   4.245   6.778
 2528SOL     OW 8269   1.424   3.938   6.698
 2528SOL    HW1 8270   1.476   3.873   6.753
 2528SOL    HW2 8271   1.375   4.001   6.759
 2529SOL     OW 8272   1.001   3.758   6.740
 2529SOL    HW1 8273   0.938   3.686   6.709
 2529SOL    HW2 8274   1.094   3.722   6.740
 2530SOL     OW 8275   0.770   5.054   5.887
 2530SOL    HW1 8276   0.724   4.967   5.904
 2530SOL    HW2 8277   0.861   5.051   5.928
 2531SOL     OW 8278   0.618   5.291   6.870
 2531SOL    HW1 8279   0.613   5.373   6.927
 2531SOL    HW2 8280   0.707   5.288   6.825
 2532SOL     OW 8281   1.352   3.776   5.754
 2532SOL    HW1 8282   1.387   3.735   5.670
 2532SOL    HW2 8283   1.262   3.738   5.774
 2533SOL     OW 8284   1.300   4.177   6.277
 2533SOL    HW1 8285   1.241   4.257   6.281
 2533SOL    HW2 8286   1.315   4.142   6.370
 2534SOL     OW 8287   1.593   3.945   6.468
 2534SOL    HW1 8288   1.509   3.944   6.522
 2534SOL    HW2 8289   1.595   4.028   6.412
 2535SOL     OW 8290   0.039   4.801   5.886
 2535SOL    HW1 8291   0.138   4.790   5.877
 2535SOL    HW2 8292  -0.001   4.715   5.918
 2536SOL     OW 8293   0.230   4.352   7.561
 2536SOL    HW1 8294   0.137   4.350   7.598
 2536SOL    HW2 8295   0.231   4.313   7.469
 2537SOL     OW 8296   1.755   4.331   7.679
 2537SOL    HW1 8297   1.743   4.318   7.580
 2537SOL    HW2 8298   1.725   4.250   7.728
 2538SOL     OW 8299   0.231   5.437   7.931
 2538SOL    HW1 8300   0.265   5.514   7.985
 2538SOL    HW2 8301   0.275   5.437   7.841
 2539SOL     OW 8302   0.230   5.158   7.986
 2539SOL    HW1 8303   0.204   5.254   7.986
 2539SOL    HW2 8304   0.159   5.104   8.031
 2540SOL     OW 8305   0.606   4.688   7.571
 2540SOL    HW1 8306   0.613   4.772   7.517
 2540SOL    HW2 8307   0.652   4.701   7.659
 2541SOL     OW 8308   0.027   5.320   7.565
 2541SOL    HW1 8309   0.008   5.224   7.586
 2541SOL    HW2 8310  -0.006   5.378   7.640
 2542SOL     OW 8311   1.689   4.646   8.060
 2542SOL    HW1 8312   1.784   4.617   8.068
 2542SOL    HW2 8313   1.681   4.711   7.985
 2543SOL     OW 8314   1.641   4.832   7.880
 2543SOL    HW1 8315   1.727   4.834   7.828
 2543SOL    HW2 8316   1.655   4.879   7.968
 2544SOL     OW 8317   0.809   3.728   7.950
 2544SOL    HW1 8318   0.849   3.819   7.941
 2544SOL    HW2 8319   0.709   3.736   7.956
 2545SOL     OW 8320   1.525   4.723   7.638
 2545SOL    HW1 8321   1.462   4.647   7.651
 2545SOL    HW2 8322   1.573   4.741   7.724
 2546SOL     OW 8323   0.598   4.453   7.718
 2546SOL    HW1 8324   0.622   4.522   7.650
 2546SOL    HW2 8325   0.520   4.486   7.772
 2547SOL     OW 8326   0.076   4.535   8.237
 2547SOL    HW1 8327   0.175   4.523   8.246
 2547SOL    HW2 8328   0.052   4.630   8.258
 2548SOL     OW 8329   0.865   4.072   7.643
 2548SOL    HW1 8330   0.924   4.135   7.594
 2548SOL    HW2 8331   0.884   3.978   7.614
 2549SOL     OW 8332   0.321   4.667   7.690
 2549SOL    HW1 8333   0.403   4.706   7.648
 2549SOL    HW2 8334   0.294   4.585   7.641
 2550SOL     OW 8335   1.111   5.500   7.685
 2550SOL    HW1 8336   1.051   5.438   7.735
 2550SOL    HW2 8337   1.142   5.456   7.600
 2551SOL     OW 8338   1.632   5.101   7.529
 2551SOL    HW1 8339   1.600   5.195   7.519
 2551SOL    HW2 8340   1.556   5.038   7.517
 2552SOL     OW 8341   1.400   3.831   7.874
 2552SOL    HW1 8342   1.376   3.794   7.784
 2552SOL    HW2 8343   1.499   3.847   7.878
 2553SOL     OW 8344   0.382   4.424   7.928
 2553SOL    HW1 8345   0.427   4.334   7.925
 2553SOL    HW2 8346   0.288   4.413   7.961
 2554SOL     OW 8347   0.614   3.846   7.565
 2554SOL    HW1 8348   0.712   3.824   7.572
 2554SOL    HW2 8349   0.583   3.829   7.472
 2555SOL     OW 8350   0.539   3.788   7.960
 2555SOL    HW1 8351   0.458   3.789   8.018
 2555SOL    HW2 8352   0.542   3.871   7.905
 2556SOL     OW 8353   1.434   4.912   7.489
 2556SOL    HW1 8354   1.466   4.836   7.546
 2556SOL    HW2 8355   1.342   4.939   7.519
 2557SOL     OW 8356   0.297   3.759   7.619
 2557SOL    HW1 8357   0.346   3.843   7.598
 2557SOL    HW2 8358   0.359   3.694   7.664
 2558SOL     OW 8359   0.935   3.960   7.928
 2558SOL    HW1 8360   0.887   4.001   7.850
 2558SOL    HW2 8361   1.034   3.958   7.909
 2559SOL     OW 8362   0.459   4.876   8.189
 2559SOL    HW1 8363   0.388   4.849   8.254
 2559SOL    HW2 8364   0.433   4.848   8.096
 2560SOL     OW 8365   1.032   4.273   7.464
 2560SOL    HW1 8366   0.991   4.355   7.425
 2560SOL    HW2 8367   1.096   4.299   7.537
 2561SOL     OW 8368   1.857   4.557   7.825
 2561SOL    HW1 8369   1.899   4.493   7.889
 2561SOL    HW2 8370   1.819   4.506   7.747
 2562SOL     OW 8371   0.488   5.109   7.622
 2562SOL    HW1 8372   0.401   5.094   7.669
 2562SOL    HW2 8373   0.471   5.135   7.527
 2563SOL     OW 8374   1.390   4.299   7.526
 2563SOL    HW1 8375   1.336   4.278   7.607
 2563SOL    HW2 8376   1.481   4.258   7.535
 2564SOL     OW 8377   0.527   3.980   7.776
 2564SOL    HW1 8378   0.554   3.921   7.701
 2564SOL    HW2 8379   0.527   4.075   7.745
 2565SOL     OW 8380   0.705   4.774   7.816
 2565SOL    HW1 8381   0.691   4.781   7.915
 2565SOL    HW2 8382   0.789   4.723   7.798
 2566SOL     OW 8383   0.367   4.824   7.949
 2566SOL    HW1 8384   0.360   4.907   7.893
 2566SOL    HW2 8385   0.371   4.744   7.889
 2567SOL     OW 8386   1.252   5.072   7.836
 2567SOL    HW1 8387   1.302   5.149   7.876
 2567SOL    HW2 8388   1.157   5.074   7.868
 2568SOL     OW 8389   1.582   4.363   7.920
 2568SOL    HW1 8390   1.551   4.424   7.993
 2568SOL    HW2 8391   1.632   4.415   7.851
 2569SOL     OW 8392   1.209   4.249   7.723
 2569SOL    HW1 8393   1.222   4.165   7.777
 2569SOL    HW2 8394   1.180   4.323   7.783
 2570SOL     OW 8395   1.622   4.091   7.822
 2570SOL    HW1 8396   1.624   4.015   7.886
 2570SOL    HW2 8397   1.574   4.168   7.862
 2571SOL     OW 8398   1.540   3.998   7.573
 2571SOL    HW1 8399   1.479   3.923   7.596
 2571SOL    HW2 8400   1.562   4.050   7.656
 2572SOL     OW 8401   1.303   4.562   7.490
 2572SOL    HW1 8402   1.337   4.469   7.505
 2572SOL    HW2 8403   1.321   4.589   7.395
 2573SOL     OW 8404   0.008   5.050   7.648
 2573SOL    HW1 8405  -0.085   5.071   7.617
 2573SOL    HW2 8406   0.018   4.951   7.661
 2574SOL     OW 8407   0.815   4.296   7.773
 2574SOL    HW1 8408   0.822   4.207   7.727
 2574SOL    HW2 8409   0.721   4.330   7.765
 2575SOL     OW 8410   0.473   4.224   7.639
 2575SOL    HW1 8411   0.534   4.304   7.643
 2575SOL    HW2 8412   0.378   4.255   7.646
 2576SOL     OW 8413   1.302   4.579   7.757
 2576SOL    HW1 8414   1.216   4.548   7.799
 2576SOL    HW2 8415   1.298   4.565   7.658
 2577SOL     OW 8416   1.726   3.859   7.971
 2577SOL    HW1 8417   1.799   3.842   7.904
 2577SOL    HW2 8418   1.695   3.772   8.009
 2578SOL     OW 8419   0.916   4.634   7.739
 2578SOL    HW1 8420   0.979   4.672   7.671
 2578SOL    HW2 8421   0.956   4.551   7.778
 2579SOL     OW 8422   0.255   5.072   7.738
 2579SOL    HW1 8423   0.159   5.073   7.711
 2579SOL    HW2 8424   0.267   5.125   7.822
 2580SOL     OW 8425   0.075   4.069   7.481
 2580SOL    HW1 8426  -0.017   4.041   7.452
 2580SOL    HW2 8427   0.106   4.146   7.425
 2581SOL     OW 8428   0.072   3.890   7.766
 2581SOL    HW1 8429   0.055   3.973   7.712
 2581SOL    HW2 8430   0.162   3.853   7.744
 2582SOL     OW 8431   1.183   5.059   7.567
 2582SOL    HW1 8432   1.084   5.048   7.569
 2582SOL    HW2 8433   1.217   5.074   7.660
 2583SOL     OW 8434   1.225   4.049   7.897
 2583SOL    HW1 8435   1.290   3.975   7.886
 2583SOL    HW2 8436   1.245   4.099   7.981
 2584SOL     OW 8437   0.594   4.469   8.100
 2584SOL    HW1 8438   0.644   4.554   8.081
 2584SOL    HW2 8439   0.506   4.471   8.052
 2585SOL     OW 8440   0.859   5.098   7.464
 2585SOL    HW1 8441   0.813   5.113   7.552
 2585SOL    HW2 8442   0.903   5.183   7.434
 2586SOL     OW 8443   1.083   4.708   7.535
 2586SOL    HW1 8444   1.060   4.761   7.453
 2586SOL    HW2 8445   1.164   4.652   7.516
 2587SOL     OW 8446   0.428   4.148   7.968
 2587SOL    HW1 8447   0.458   4.076   7.906
 2587SOL    HW2 8448   0.389   4.108   8.051
 2588SOL     OW 8449   0.770   5.054   7.749
 2588SOL    HW1 8450   0.724   4.967   7.766
 2588SOL    HW2 8451   0.861   5.051   7.790
 2589SOL     OW 8452   1.352   3.776   7.616
 2589SOL    HW1 8453   1.387   3.735   7.532
 2589SOL    HW2 8454   1.262   3.738   7.636
 2590SOL     OW 8455   0.039   4.801   7.748
 2590SOL    HW1 8456   0.138   4.790   7.739
 2590SOL    HW2 8457  -0.001   4.715   7.780
 2591SOL     OW 8458   2.092   0.628   0.113
 2591SOL    HW1 8459   1.999   0.626   0.150
 2591SOL    HW2 8460   2.093   0.589   0.021
 2592SOL     OW 8461   2.087   0.275   0.996
 2592SOL    HW1 8462   2.122   0.258   1.088
 2592SOL    HW2 8463   1.999   0.230   0.984
 2593SOL     OW 8464   1.881   0.368   0.647
 2593SOL    HW1 8465   1.799   0.411   0.686
 2593SOL    HW2 8466   1.853   0.295   0.584
 2594SOL     OW 8467   2.431   1.275   1.165
 2594SOL    HW1 8468   2.338   1.268   1.128
 2594SOL    HW2 8469   2.442   1.364   1.209
 2595SOL     OW 8470   3.417   1.511   0.703
 2595SOL    HW1 8471   3.360   1.495   0.784
 2595SOL    HW2 8472   3.358   1.521   0.623
 2596SOL     OW 8473   2.997   0.703   0.717
 2596SOL    HW1 8474   3.054   0.781   0.692
 2596SOL    HW2 8475   2.937   0.729   0.793
 2597SOL     OW 8476   3.617   0.607   0.231
 2597SOL    HW1 8477   3.605   0.594   0.132
 2597SOL    HW2 8478   3.587   0.526   0.280
 2598SOL     OW 8479   2.630   1.144   1.023
 2598SOL    HW1 8480   2.552   1.161   1.083
 2598SOL    HW2 8481   2.664   1.231   0.987
 2599SOL     OW 8482   2.712   0.798   1.823
 2599SOL    HW1 8483   2.708   0.874   1.888
 2599SOL    HW2 8484   2.734   0.834   1.732
 2600SOL     OW 8485   2.547   1.012   0.665
 2600SOL    HW1 8486   2.616   0.996   0.735
 2600SOL    HW2 8487   2.474   1.069   0.703
 2601SOL     OW 8488   2.548   1.161   1.803
 2601SOL    HW1 8489   2.608   1.240   1.817
 2601SOL    HW2 8490   2.462   1.192   1.762
 2602SOL     OW 8491   2.197   1.435   1.061
 2602SOL    HW1 8492   2.119   1.404   1.008
 2602SOL    HW2 8493   2.255   1.493   1.004
 2603SOL     OW 8494   3.322   1.505   1.339
 2603SOL    HW1 8495   3.346   1.599   1.365
 2603SOL    HW2 8496   3.306   1.451   1.421
 2604SOL     OW 8497   2.300   0.392   1.499
 2604SOL    HW1 8498   2.382   0.336   1.508
 2604SOL    HW2 8499   2.219   0.334   1.503
 2605SOL     OW 8500   3.465   0.447   0.737
 2605SOL    HW1 8501   3.391   0.493   0.687
 2605SOL    HW2 8502   3.516   0.515   0.790
 2606SOL     OW 8503   2.093   1.713   0.483
 2606SOL    HW1 8504   2.127   1.790   0.537
 2606SOL    HW2 8505   2.137   1.713   0.393
 2607SOL     OW 8506   2.989   1.341   1.690
 2607SOL    HW1 8507   3.036   1.341   1.778
 2607SOL    HW2 8508   2.941   1.254   1.679
 2608SOL     OW 8509   2.092   1.434   0.538
 2608SOL    HW1 8510   2.066   1.530   0.538
 2608SOL    HW2 8511   2.021   1.380   0.583
 2609SOL     OW 8512   2.102   1.091   0.886
 2609SOL    HW1 8513   2.116   1.007   0.938
 2609SOL    HW2 8514   2.047   1.155   0.941
 2610SOL     OW 8515   2.482   1.786   1.439
 2610SOL    HW1 8516   2.390   1.769   1.474
 2610SOL    HW2 8517   2.510   1.878   1.465
 2611SOL     OW 8518   2.468   0.964   0.123
 2611SOL    HW1 8519   2.475   1.048   0.069
 2611SOL    HW2 8520   2.514   0.977   0.211
 2612SOL     OW 8521   3.456   0.114   1.480
 2612SOL    HW1 8522   3.438   0.181   1.408
 2612SOL    HW2 8523   3.453   0.160   1.569
 2613SOL     OW 8524   1.984   0.643   0.563
 2613SOL    HW1 8525   1.939   0.555   0.580
 2613SOL    HW2 8526   1.983   0.697   0.647
 2614SOL     OW 8527   3.704   1.767   0.359
 2614SOL    HW1 8528   3.758   1.738   0.439
 2614SOL    HW2 8529   3.734   1.857   0.330
 2615SOL     OW 8530   1.889   1.596   0.117
 2615SOL    HW1 8531   1.870   1.500   0.138
 2615SOL    HW2 8532   1.856   1.654   0.192
 2616SOL     OW 8533   3.551   0.922   0.612
 2616SOL    HW1 8534   3.646   0.893   0.620
 2616SOL    HW2 8535   3.543   0.987   0.537
 2617SOL     OW 8536   3.503   1.108   0.432
 2617SOL    HW1 8537   3.589   1.110   0.380
 2617SOL    HW2 8538   3.517   1.155   0.520
 2618SOL     OW 8539   1.975   0.737   1.597
 2618SOL    HW1 8540   2.063   0.724   1.642
 2618SOL    HW2 8541   1.962   0.834   1.575
 2619SOL     OW 8542   2.475   1.365   0.726
 2619SOL    HW1 8543   2.426   1.278   0.735
 2619SOL    HW2 8544   2.452   1.408   0.639
 2620SOL     OW 8545   3.155   1.228   1.423
 2620SOL    HW1 8546   3.192   1.155   1.365
 2620SOL    HW2 8547   3.207   1.233   1.508
 2621SOL     OW 8548   2.671   0.004   0.502
 2621SOL    HW1 8549   2.711   0.095   0.493
 2621SOL    HW2 8550   2.571   0.012   0.508
 2622SOL     OW 8551   2.059   0.976   1.264
 2622SOL    HW1 8552   2.148   0.931   1.250
 2622SOL    HW2 8553   1.986   0.911   1.245
 2623SOL     OW 8554   3.387   0.999   0.190
 2623SOL    HW1 8555   3.324   0.923   0.203
 2623SOL    HW2 8556   3.435   1.017   0.276
 2624SOL     OW 8557   3.049   1.792   1.616
 2624SOL    HW1 8558   3.073   1.852   1.540
 2624SOL    HW2 8559   3.056   1.697   1.586
 2625SOL     OW 8560   2.179   0.251   1.801
 2625SOL    HW1 8561   2.250   0.322   1.807
 2625SOL    HW2 8562   2.091   0.290   1.829
 2626SOL     OW 8563   3.328   1.417   0.953
 2626SOL    HW1 8564   3.269   1.423   1.033
 2626SOL    HW2 8565   3.313   1.329   0.907
 2627SOL     OW 8566   3.529   1.714   0.572
 2627SOL    HW1 8567   3.488   1.691   0.484
 2627SOL    HW2 8568   3.511   1.640   0.637
 2628SOL     OW 8569   2.460   0.729   0.270
 2628SOL    HW1 8570   2.484   0.798   0.202
 2628SOL    HW2 8571   2.382   0.762   0.324
 2629SOL     OW 8572   3.143   0.345   0.944
 2629SOL    HW1 8573   3.057   0.295   0.931
 2629SOL    HW2 8574   3.205   0.291   1.000
 2630SOL     OW 8575   3.438   1.662   0.307
 2630SOL    HW1 8576   3.527   1.708   0.310
 2630SOL    HW2 8577   3.417   1.638   0.212
 2631SOL     OW 8578   2.669   0.605   1.465
 2631SOL    HW1 8579   2.622   0.602   1.554
 2631SOL    HW2 8580   2.618   0.550   1.399
 2632SOL     OW 8581   3.256   0.469   1.674
 2632SOL    HW1 8582   3.236   0.512   1.762
 2632SOL    HW2 8583   3.334   0.407   1.683
 2633SOL     OW 8584   2.835   0.890   1.572
 2633SOL    HW1 8585   2.881   0.806   1.543
 2633SOL    HW2 8586   2.779   0.924   1.497
 2634SOL     OW 8587   2.853   0.410   1.242
 2634SOL    HW1 8588   2.776   0.444   1.296
 2634SOL    HW2 8589   2.819   0.359   1.163
 2635SOL     OW 8590   2.903   0.701   0.429
 2635SOL    HW1 8591   2.929   0.697   0.525
 2635SOL    HW2 8592   2.818   0.650   0.415
 2636SOL     OW 8593   1.938   0.811   0.789
 2636SOL    HW1 8594   2.037   0.799   0.798
 2636SOL    HW2 8595   1.914   0.906   0.810
 2637SOL     OW 8596   1.992   1.821   1.571
 2637SOL    HW1 8597   1.982   1.806   1.670
 2637SOL    HW2 8598   1.906   1.857   1.535
 2638SOL     OW 8599   2.727   0.348   0.195
 2638SOL    HW1 8600   2.786   0.411   0.146
 2638SOL    HW2 8601   2.746   0.254   0.166
 2639SOL     OW 8602   3.581   0.585   1.831
 2639SOL    HW1 8603   3.555   0.674   1.795
 2639SOL    HW2 8604   3.579   0.517   1.758
 2640SOL     OW 8605   3.224   1.144   0.545
 2640SOL    HW1 8606   3.307   1.115   0.497
 2640SOL    HW2 8607   3.175   1.211   0.489
 2641SOL     OW 8608   2.412   0.196   0.885
 2641SOL    HW1 8609   2.407   0.191   0.985
 2641SOL    HW2 8610   2.414   0.292   0.856
 2642SOL     OW 8611   2.870   1.456   0.477
 2642SOL    HW1 8612   2.824   1.528   0.425
 2642SOL    HW2 8613   2.866   1.476   0.575
 2643SOL     OW 8614   2.213   1.801   0.853
 2643SOL    HW1 8615   2.263   1.715   0.859
 2643SOL    HW2 8616   2.278   1.878   0.850
 2644SOL     OW 8617   3.657   1.066   0.873
 2644SOL    HW1 8618   3.595   1.051   0.797
 2644SOL    HW2 8619   3.605   1.077   0.958
 2645SOL     OW 8620   3.089   1.550   1.506
 2645SOL    HW1 8621   3.095   1.473   1.570
 2645SOL    HW2 8622   3.037   1.524   1.426
 2646SOL     OW 8623   2.183   0.943   0.242
 2646SOL    HW1 8624   2.265   0.982   0.200
 2646SOL    HW2 8625   2.156   0.861   0.193
 2647SOL     OW 8626   3.320   0.735   0.728
 2647SOL    HW1 8627   3.315   0.670   0.803
 2647SOL    HW2 8628   3.400   0.794   0.741
 2648SOL     OW 8629   2.323   1.266   1.727
 2648SOL    HW1 8630   2.273   1.267   1.641
 2648SOL    HW2 8631   2.260   1.248   1.803
 2649SOL     OW 8632   2.973   1.776   0.237
 2649SOL    HW1 8633   2.913   1.714   0.287
 2649SOL    HW2 8634   3.004   1.732   0.152
 2650SOL     OW 8635   2.064   0.285   1.498
 2650SOL    HW1 8636   1.984   0.345   1.485
 2650SOL    HW2 8637   2.054   0.236   1.584
 2651SOL     OW 8638   3.494   1.377   0.081
 2651SOL    HW1 8639   3.462   1.471   0.071
 2651SOL    HW2 8640   3.418   1.314   0.069
 2652SOL     OW 8641   2.326   1.743   0.323
 2652SOL    HW1 8642   2.359   1.782   0.409
 2652SOL    HW2 8643   2.402   1.736   0.258
 2653SOL     OW 8644   3.262   0.107   0.426
 2653SOL    HW1 8645   3.238   0.070   0.336
 2653SOL    HW2 8646   3.361   0.123   0.430
 2654SOL     OW 8647   2.111   1.785   1.241
 2654SOL    HW1 8648   2.168   1.720   1.291
 2654SOL    HW2 8649   2.095   1.752   1.148
 2655SOL     OW 8650   2.802   1.698   0.904
 2655SOL    HW1 8651   2.882   1.641   0.925
 2655SOL    HW2 8652   2.753   1.658   0.827
 2656SOL     OW 8653   2.244   0.700   0.480
 2656SOL    HW1 8654   2.289   0.610   0.477
 2656SOL    HW2 8655   2.150   0.689   0.513
 2657SOL     OW 8656   3.409   0.222   1.729
 2657SOL    HW1 8657   3.404   0.259   1.821
 2657SOL    HW2 8658   3.337   0.153   1.717
 2658SOL     OW 8659   2.476   0.122   0.117
 2658SOL    HW1 8660   2.574   0.100   0.124
 2658SOL    HW2 8661   2.445   0.105   0.024
 2659SOL     OW 8662   2.643   0.264   1.749
 2659SOL    HW1 8663   2.710   0.203   1.792
 2659SOL    HW2 8664   2.570   0.283   1.814
 2660SOL     OW 8665   2.750   1.514   1.195
 2660SOL    HW1 8666   2.727   1.489   1.101
 2660SOL    HW2 8667   2.811   1.445   1.234
 2661SOL     OW 8668   3.213   0.590   1.433
 2661SOL    HW1 8669   3.241   0.547   1.518
 2661SOL    HW2 8670   3.238   0.686   1.434
 2662SOL     OW 8671   2.665   1.402   0.924
 2662SOL    HW1 8672   2.755   1.416   0.882
 2662SOL    HW2 8673   2.594   1.404   0.853
 2663SOL     OW 8674   2.784   0.503   0.899
 2663SOL    HW1 8675   2.759   0.494   0.803
 2663SOL    HW2 8676   2.832   0.421   0.930
 2664SOL     OW 8677   2.401   0.064   0.512
 2664SOL    HW1 8678   2.320   0.065   0.570
 2664SOL    HW2 8679   2.404   0.147   0.457
 2665SOL     OW 8680   3.296   1.188   0.041
 2665SOL    HW1 8681   3.328   1.112   0.098
 2665SOL    HW2 8682   3.204   1.215   0.071
 2666SOL     OW 8683   2.159   0.035   0.171
 2666SOL    HW1 8684   2.208   0.119   0.150
 2666SOL    HW2 8685   2.221  -0.030   0.216
 2667SOL     OW 8686   2.797   0.236   0.480
 2667SOL    HW1 8687   2.749   0.277   0.402
 2667SOL    HW2 8688   2.896   0.234   0.461
 2668SOL     OW 8689   2.938   0.683   1.464
 2668SOL    HW1 8690   2.858   0.622   1.467
 2668SOL    HW2 8691   3.019   0.630   1.440
 2669SOL     OW 8692   3.089   1.570   0.793
 2669SOL    HW1 8693   3.110   1.644   0.728
 2669SOL    HW2 8694   3.157   1.570   0.866
 2670SOL     OW 8695   2.321   1.152   0.741
 2670SOL    HW1 8696   2.250   1.125   0.806
 2670SOL    HW2 8697   2.295   1.124   0.648
 2671SOL     OW 8698   3.133   1.797   0.591
 2671SOL    HW1 8699   3.177   1.861   0.527
 2671SOL    HW2 8700   3.083   1.849   0.661
 2672SOL     OW 8701   2.894   0.549   0.016
 2672SOL    HW1 8702   2.853   0.631  -0.023
 2672SOL    HW2 8703   2.958   0.575   0.089
 2673SOL     OW 8704   1.940   0.556   1.386
 2673SOL    HW1 8705   2.032   0.555   1.345
 2673SOL    HW2 8706   1.934   0.630   1.453
 2674SOL     OW 8707   2.423   0.222   1.147
 2674SOL    HW1 8708   2.461   0.138   1.184
 2674SOL    HW2 8709   2.335   0.241   1.191
 2675SOL     OW 8710   2.728   0.454   0.642
 2675SOL    HW1 8711   2.696   0.526   0.580
 2675SOL    HW2 8712   2.752   0.373   0.589
 2676SOL     OW 8713   2.879   0.039   0.753
 2676SOL    HW1 8714   2.807   0.044   0.684
 2676SOL    HW2 8715   2.855  -0.030   0.822
 2677SOL     OW 8716   3.291   1.173   0.867
 2677SOL    HW1 8717   3.236   1.089   0.860
 2677SOL    HW2 8718   3.317   1.202   0.775
 2678SOL     OW 8719   3.328   0.590   0.992
 2678SOL    HW1 8720   3.298   0.495   0.999
 2678SOL    HW2 8721   3.401   0.606   1.058
 2679SOL     OW 8722   3.719   0.833   0.377
 2679SOL    HW1 8723   3.761   0.769   0.441
 2679SOL    HW2 8724   3.681   0.782   0.299
 2680SOL     OW 8725   2.350   1.385   0.174
 2680SOL    HW1 8726   2.263   1.370   0.221
 2680SOL    HW2 8727   2.333   1.411   0.079
 2681SOL     OW 8728   3.526   1.280   0.657
 2681SOL    HW1 8729   3.625   1.288   0.671
 2681SOL    HW2 8730   3.481   1.364   0.688
 2682SOL     OW 8731   3.252   0.575   0.078
 2682SOL    HW1 8732   3.198   0.554   0.159
 2682SOL    HW2 8733   3.343   0.534   0.087
 2683SOL     OW 8734   2.389   0.256   0.328
 2683SOL    HW1 8735   2.416   0.197   0.253
 2683SOL    HW2 8736   2.389   0.351   0.297
 2684SOL     OW 8737   3.616   1.223   1.588
 2684SOL    HW1 8738   3.707   1.184   1.575
 2684SOL    HW2 8739   3.624   1.319   1.612
 2685SOL     OW 8740   2.926   1.347   1.340
 2685SOL    HW1 8741   2.846   1.324   1.395
 2685SOL    HW2 8742   3.009   1.321   1.389
 2686SOL     OW 8743   3.454   1.629   1.625
 2686SOL    HW1 8744   3.481   1.663   1.535
 2686SOL    HW2 8745   3.533   1.591   1.671
 2687SOL     OW 8746   2.973   1.195   1.100
 2687SOL    HW1 8747   2.933   1.239   1.181
 2687SOL    HW2 8748   2.932   1.232   1.017
 2688SOL     OW 8749   3.500   1.099   1.079
 2688SOL    HW1 8750   3.505   1.180   1.138
 2688SOL    HW2 8751   3.414   1.101   1.028
 2689SOL     OW 8752   2.777   0.089   1.402
 2689SOL    HW1 8753   2.802   0.069   1.307
 2689SOL    HW2 8754   2.849   0.145   1.444
 2690SOL     OW 8755   2.842   1.116   1.719
 2690SOL    HW1 8756   2.743   1.122   1.729
 2690SOL    HW2 8757   2.865   1.036   1.663
 2691SOL     OW 8758   2.567   1.050   0.368
 2691SOL    HW1 8759   2.553   1.057   0.467
 2691SOL    HW2 8760   2.651   0.999   0.350
 2692SOL     OW 8761   2.272   0.813   1.251
 2692SOL    HW1 8762   2.358   0.825   1.301
 2692SOL    HW2 8763   2.230   0.726   1.278
 2693SOL     OW 8764   3.136   0.386   1.262
 2693SOL    HW1 8765   3.157   0.460   1.326
 2693SOL    HW2 8766   3.047   0.403   1.219
 2694SOL     OW 8767   1.926   1.564   1.331
 2694SOL    HW1 8768   1.880   1.646   1.297
 2694SOL    HW2 8769   2.024   1.583   1.340
 2695SOL     OW 8770   2.229   1.100   0.501
 2695SOL    HW1 8771   2.222   1.183   0.445
 2695SOL    HW2 8772   2.233   1.020   0.441
 2696SOL     OW 8773   2.428   0.537   0.865
 2696SOL    HW1 8774   2.440   0.603   0.791
 2696SOL    HW2 8775   2.474   0.571   0.948
 2697SOL     OW 8776   3.114   1.348   0.388
 2697SOL    HW1 8777   3.164   1.425   0.428
 2697SOL    HW2 8778   3.019   1.350   0.420
 2698SOL     OW 8779   3.134   1.445   1.142
 2698SOL    HW1 8780   3.181   1.458   1.229
 2698SOL    HW2 8781   3.068   1.371   1.151
 2699SOL     OW 8782   3.444   0.639   0.472
 2699SOL    HW1 8783   3.413   0.700   0.545
 2699SOL    HW2 8784   3.494   0.691   0.403
 2700SOL     OW 8785   2.216   1.510   1.329
 2700SOL    HW1 8786   2.195   1.466   1.242
 2700SOL    HW2 8787   2.313   1.536   1.332
 2701SOL     OW 8788   2.264   0.751   1.598
 2701SOL    HW1 8789   2.332   0.806   1.551
 2701SOL    HW2 8790   2.304   0.663   1.625
 2702SOL     OW 8791   3.449   0.779   1.670
 2702SOL    HW1 8792   3.357   0.817   1.665
 2702SOL    HW2 8793   3.509   0.826   1.605
 2703SOL     OW 8794   2.875   0.105   1.770
 2703SOL    HW1 8795   2.881   0.190   1.718
 2703SOL    HW2 8796   2.907   0.029   1.713
 2704SOL     OW 8797   2.366   0.050   1.740
 2704SOL    HW1 8798   2.324  -0.007   1.670
 2704SOL    HW2 8799   2.300   0.119   1.772
 2705SOL     OW 8800   2.435   0.870   1.029
 2705SOL    HW1 8801   2.479   0.959   1.020
 2705SOL    HW2 8802   2.372   0.870   1.106
 2706SOL     OW 8803   3.222   0.862   1.045
 2706SOL    HW1 8804   3.147   0.862   0.979
 2706SOL    HW2 8805   3.259   0.770   1.054
 2707SOL     OW 8806   3.071   0.525   0.275
 2707SOL    HW1 8807   3.084   0.441   0.329
 2707SOL    HW2 8808   3.042   0.599   0.335
 2708SOL     OW 8809   2.169   0.213   1.231
 2708SOL    HW1 8810   2.146   0.250   1.321
 2708SOL    HW2 8811   2.139   0.118   1.225
 2709SOL     OW 8812   1.899   1.310   1.282
 2709SOL    HW1 8813   1.952   1.261   1.350
 2709SOL    HW2 8814   1.921   1.408   1.287
 2710SOL     OW 8815   2.594   0.634   1.064
 2710SOL    HW1 8816   2.653   0.608   0.988
 2710SOL    HW2 8817   2.566   0.730   1.053
 2711SOL     OW 8818   3.590   0.935   1.854
 2711SOL    HW1 8819   3.544   0.928   1.765
 2711SOL    HW2 8820   3.528   0.979   1.920
 2712SOL     OW 8821   2.169   0.063   0.618
 2712SOL    HW1 8822   2.158   0.157   0.651
 2712SOL    HW2 8823   2.164   0.000   0.695
 2713SOL     OW 8824   3.484   0.367   0.374
 2713SOL    HW1 8825   3.486   0.291   0.438
 2713SOL    HW2 8826   3.436   0.444   0.414
 2714SOL     OW 8827   2.885   0.766   0.966
 2714SOL    HW1 8828   2.900   0.787   1.062
 2714SOL    HW2 8829   2.855   0.671   0.957
 2715SOL     OW 8830   2.842   1.573   1.700
 2715SOL    HW1 8831   2.822   1.617   1.612
 2715SOL    HW2 8832   2.881   1.482   1.684
 2716SOL     OW 8833   3.721   1.518   1.605
 2716SOL    HW1 8834   3.735   1.545   1.510
 2716SOL    HW2 8835   3.804   1.540   1.658
 2717SOL     OW 8836   2.212   0.898   1.804
 2717SOL    HW1 8837   2.288   0.942   1.852
 2717SOL    HW2 8838   2.247   0.851   1.722
 2718SOL     OW 8839   3.402   0.274   0.125
 2718SOL    HW1 8840   3.341   0.199   0.148
 2718SOL    HW2 8841   3.424   0.326   0.208
 2719SOL     OW 8842   3.165   0.838   0.042
 2719SOL    HW1 8843   3.199   0.745   0.057
 2719SOL    HW2 8844   3.183   0.865  -0.053
 2720SOL     OW 8845   2.930   1.333   0.849
 2720SOL    HW1 8846   2.937   1.249   0.794
 2720SOL    HW2 8847   2.992   1.402   0.813
 2721SOL     OW 8848   2.181   0.810   0.949
 2721SOL    HW1 8849   2.274   0.846   0.954
 2721SOL    HW2 8850   2.175   0.725   1.001
 2722SOL     OW 8851   2.201   0.509   1.006
 2722SOL    HW1 8852   2.149   0.426   0.989
 2722SOL    HW2 8853   2.278   0.514   0.942
 2723SOL     OW 8854   3.000   0.380   1.678
 2723SOL    HW1 8855   2.955   0.443   1.742
 2723SOL    HW2 8856   3.093   0.411   1.661
 2724SOL     OW 8857   3.022   0.207   1.477
 2724SOL    HW1 8858   3.022   0.271   1.554
 2724SOL    HW2 8859   3.050   0.255   1.394
 2725SOL     OW 8860   1.870   1.326   0.200
 2725SOL    HW1 8861   1.777   1.347   0.169
 2725SOL    HW2 8862   1.880   1.227   0.213
 2726SOL     OW 8863   1.950   1.801   0.927
 2726SOL    HW1 8864   1.908   1.715   0.900
 2726SOL    HW2 8865   2.044   1.804   0.893
 2727SOL     OW 8866   2.366   1.568   0.910
 2727SOL    HW1 8867   2.432   1.642   0.919
 2727SOL    HW2 8868   2.410   1.489   0.868
 2728SOL     OW 8869   2.864   0.796   1.238
 2728SOL    HW1 8870   2.905   0.764   1.324
 2728SOL    HW2 8871   2.768   0.769   1.235
 2729SOL     OW 8872   1.902   0.544   1.114
 2729SOL    HW1 8873   1.987   0.511   1.073
 2729SOL    HW2 8874   1.915   0.559   1.212
 2730SOL     OW 8875   2.051   0.520   1.722
 2730SOL    HW1 8876   2.110   0.480   1.652
 2730SOL    HW2 8877   1.993   0.591   1.681
 2731SOL     OW 8878   3.231   0.950   1.660
 2731SOL    HW1 8879   3.270   1.039   1.680
 2731SOL    HW2 8880   3.241   0.930   1.563
 2732SOL     OW 8881   2.677   0.572   0.325
 2732SOL    HW1 8882   2.684   0.483   0.279
 2732SOL    HW2 8883   2.583   0.606   0.317
 2733SOL     OW 8884   3.519   0.604   1.206
 2733SOL    HW1 8885   3.481   0.535   1.268
 2733SOL    HW2 8886   3.601   0.568   1.162
 2734SOL     OW 8887   2.114   1.564   1.744
 2734SOL    HW1 8888   2.084   1.621   1.820
 2734SOL    HW2 8889   2.107   1.467   1.770
 2735SOL     OW 8890   2.533   0.464   1.269
 2735SOL    HW1 8891   2.499   0.375   1.239
 2735SOL    HW2 8892   2.559   0.518   1.189
 2736SOL     OW 8893   2.792   1.678   1.465
 2736SOL    HW1 8894   2.768   1.660   1.370
 2736SOL    HW2 8895   2.822   1.772   1.475
 2737SOL     OW 8896   2.335   0.500   0.191
 2737SOL    HW1 8897   2.396   0.580   0.195
 2737SOL    HW2 8898   2.240   0.531   0.198
 2738SOL     OW 8899   2.021   1.137   1.466
 2738SOL    HW1 8900   2.043   1.076   1.542
 2738SOL    HW2 8901   2.031   1.088   1.380
 2739SOL     OW 8902   3.209   1.059   1.234
 2739SOL    HW1 8903   3.233   0.996   1.160
 2739SOL    HW2 8904   3.119   1.099   1.216
 2740SOL     OW 8905   3.164   0.855   0.309
 2740SOL    HW1 8906   3.078   0.824   0.351
 2740SOL    HW2 8907   3.160   0.841   0.210
 2741SOL     OW 8908   3.621   1.747   1.154
 2741SOL    HW1 8909   3.682   1.777   1.081
 2741SOL    HW2 8910   3.583   1.658   1.132
 2742SOL     OW 8911   3.114   1.731   1.128
 2742SOL    HW1 8912   3.198   1.736   1.074
 2742SOL    HW2 8913   3.091   1.635   1.146
 2743SOL     OW 8914   1.945   1.258   1.022
 2743SOL    HW1 8915   1.940   1.257   1.122
 2743SOL    HW2 8916   1.862   1.217   0.984
 2744SOL     OW 8917   2.550   1.662   1.716
 2744SOL    HW1 8918   2.494   1.743   1.725
 2744SOL    HW2 8919   2.602   1.666   1.630
 2745SOL     OW 8920   2.765   0.086   0.133
 2745SOL    HW1 8921   2.816   0.087   0.047
 2745SOL    HW2 8922   2.821   0.044   0.204
 2746SOL     OW 8923   3.588   0.135   0.523
 2746SOL    HW1 8924   3.661   0.118   0.456
 2746SOL    HW2 8925   3.557   0.048   0.561
 2747SOL     OW 8926   3.250   1.573   0.477
 2747SOL    HW1 8927   3.317   1.585   0.403
 2747SOL    HW2 8928   3.210   1.662   0.500
 2748SOL     OW 8929   1.992   1.794   1.851
 2748SOL    HW1 8930   1.951   1.720   1.904
 2748SOL    HW2 8931   2.056   1.845   1.909
 2749SOL     OW 8932   3.142   0.927   0.672
 2749SOL    HW1 8933   3.202   0.846   0.674
 2749SOL    HW2 8934   3.182   0.996   0.612
 2750SOL     OW 8935   2.692   1.273   1.422
 2750SOL    HW1 8936   2.687   1.306   1.517
 2750SOL    HW2 8937   2.606   1.292   1.376
 2751SOL     OW 8938   2.534   1.616   0.154
 2751SOL    HW1 8939   2.543   1.626   0.055
 2751SOL    HW2 8940   2.494   1.527   0.175
 2752SOL     OW 8941   3.512   1.720   1.394
 2752SOL    HW1 8942   3.565   1.730   1.310
 2752SOL    HW2 8943   3.485   1.810   1.428
 2753SOL     OW 8944   3.703   0.175   0.963
 2753SOL    HW1 8945   3.742   0.090   0.927
 2753SOL    HW2 8946   3.605   0.177   0.944
 2754SOL     OW 8947   2.125   0.326   0.720
 2754SOL    HW1 8948   2.046   0.377   0.686
 2754SOL    HW2 8949   2.116   0.311   0.818
 2755SOL     OW 8950   3.056   1.612   0.031
 2755SOL    HW1 8951   3.062   1.519   0.068
 2755SOL    HW2 8952   2.997   1.612  -0.049
 2756SOL     OW 8953   2.684   1.002   1.372
 2756SOL    HW1 8954   2.724   1.001   1.280
 2756SOL    HW2 8955   2.694   1.094   1.412
 2757SOL     OW 8956   2.778   0.910   0.291
 2757SOL    HW1 8957   2.841   0.948   0.223
 2757SOL    HW2 8958   2.818   0.827   0.330
 2758SOL     OW 8959   3.366   1.607   0.044
 2758SOL    HW1 8960   3.274   1.644   0.051
 2758SOL    HW2 8961   3.404   1.627  -0.046
 2759SOL     OW 8962   2.234   1.288   1.490
 2759SOL    HW1 8963   2.221   1.381   1.456
 2759SOL    HW2 8964   2.150   1.236   1.477
 2760SOL     OW 8965   3.476   1.292   1.289
 2760SOL    HW1 8966   3.536   1.295   1.369
 2760SOL    HW2 8967   3.401   1.356   1.302
 2761SOL     OW 8968   2.901   1.098   0.696
 2761SOL    HW1 8969   2.831   1.051   0.750
 2761SOL    HW2 8970   2.960   1.030   0.653
 2762SOL     OW 8971   2.876   0.236   0.971
 2762SOL    HW1 8972   2.868   0.200   0.878
 2762SOL    HW2 8973   2.874   0.160   1.036
 2763SOL     OW 8974   2.452   1.487   0.491
 2763SOL    HW1 8975   2.494   1.429   0.421
 2763SOL    HW2 8976   2.408   1.566   0.447
 2764SOL     OW 8977   3.571   0.385   1.381
 2764SOL    HW1 8978   3.644   0.454   1.385
 2764SOL    HW2 8979   3.599   0.310   1.322
 2765SOL     OW 8980   2.117   1.348   0.290
 2765SOL    HW1 8981   2.021   1.349   0.263
 2765SOL    HW2 8982   2.129   1.401   0.374
 2766SOL     OW 8983   1.967   1.013   1.726
 2766SOL    HW1 8984   1.890   0.980   1.780
 2766SOL    HW2 8985   2.052   0.983   1.768
 2767SOL     OW 8986   2.534   0.203   1.489
 2767SOL    HW1 8987   2.624   0.187   1.449
 2767SOL    HW2 8988   2.542   0.208   1.588
 2768SOL     OW 8989   1.937   0.345   0.033
 2768SOL    HW1 8990   1.845   0.317   0.004
 2768SOL    HW2 8991   1.968   0.422  -0.023
 2769SOL     OW 8992   3.302   0.856   1.398
 2769SOL    HW1 8993   3.245   0.908   1.335
 2769SOL    HW2 8994   3.398   0.868   1.374
 2770SOL     OW 8995   1.934   0.166   0.318
 2770SOL    HW1 8996   1.917   0.249   0.264
 2770SOL    HW2 8997   2.024   0.129   0.296
 2771SOL     OW 8998   3.045   1.335   0.119
 2771SOL    HW1 8999   2.946   1.324   0.121
 2771SOL    HW2 9000   3.079   1.350   0.212
 2772SOL     OW 9001   2.475   0.842   1.431
 2772SOL    HW1 9002   2.531   0.923   1.414
 2772SOL    HW2 9003   2.534   0.762   1.434
 2773SOL     OW 9004   3.355   1.767   0.959
 2773SOL    HW1 9005   3.388   1.831   0.890
 2773SOL    HW2 9006   3.421   1.761   1.034
 2774SOL     OW 9007   2.578   0.565   1.708
 2774SOL    HW1 9008   2.597   0.630   1.782
 2774SOL    HW2 9009   2.638   0.485   1.717
 2775SOL     OW 9010   3.312   1.220   1.633
 2775SOL    HW1 9011   3.303   1.210   1.732
 2775SOL    HW2 9012   3.408   1.213   1.607
 2776SOL     OW 9013   2.252   1.741   1.560
 2776SOL    HW1 9014   2.161   1.782   1.558
 2776SOL    HW2 9015   2.245   1.647   1.592
 2777SOL     OW 9016   3.536   0.883   1.254
 2777SOL    HW1 9017   3.509   0.794   1.217
 2777SOL    HW2 9018   3.537   0.951   1.181
 2778SOL     OW 9019   3.087   0.325   0.449
 2778SOL    HW1 9020   3.152   0.251   0.438
 2778SOL    HW2 9021   3.107   0.375   0.533
 2779SOL     OW 9022   2.456   0.745   0.652
 2779SOL    HW1 9023   2.506   0.830   0.633
 2779SOL    HW2 9024   2.368   0.747   0.604
 2780SOL     OW 9025   3.639   0.342   1.642
 2780SOL    HW1 9026   3.622   0.373   1.548
 2780SOL    HW2 9027   3.555   0.305   1.680
 2781SOL     OW 9028   3.592   0.934   1.517
 2781SOL    HW1 9029   3.630   1.025   1.532
 2781SOL    HW2 9030   3.584   0.917   1.418
 2782SOL     OW 9031   2.721   1.374   0.016
 2782SOL    HW1 9032   2.675   1.389   0.104
 2782SOL    HW2 9033   2.765   1.459  -0.014
 2783SOL     OW 9034   2.523   1.790   0.953
 2783SOL    HW1 9035   2.477   1.878   0.940
 2783SOL    HW2 9036   2.622   1.802   0.946
 2784SOL     OW 9037   2.721   0.956   0.861
 2784SOL    HW1 9038   2.775   0.887   0.909
 2784SOL    HW2 9039   2.689   1.025   0.927
 2785SOL     OW 9040   2.945   0.984   0.087
 2785SOL    HW1 9041   2.922   1.037   0.005
 2785SOL    HW2 9042   3.026   0.928   0.068
 2786SOL     OW 9043   3.723   1.569   0.851
 2786SOL    HW1 9044   3.652   1.557   0.781
 2786SOL    HW2 9045   3.724   1.490   0.911
 2787SOL     OW 9046   2.083   1.314   1.844
 2787SOL    HW1 9047   2.018   1.241   1.823
 2787SOL    HW2 9048   2.087   1.328   1.942
 2788SOL     OW 9049   1.941   1.240   0.653
 2788SOL    HW1 9050   1.940   1.193   0.741
 2788SOL    HW2 9051   2.023   1.212   0.602
 2789SOL     OW 9052   2.534   1.391   1.624
 2789SOL    HW1 9053   2.456   1.341   1.662
 2789SOL    HW2 9054   2.531   1.486   1.655
 2790SOL     OW 9055   3.686   0.192   1.227
 2790SOL    HW1 9056   3.682   0.102   1.271
 2790SOL    HW2 9057   3.689   0.181   1.128
 2791SOL     OW 9058   2.290   0.424   0.520
 2791SOL    HW1 9059   2.320   0.352   0.458
 2791SOL    HW2 9060   2.251   0.384   0.603
 2792SOL     OW 9061   3.567   1.487   1.104
 2792SOL    HW1 9062   3.474   1.462   1.077
 2792SOL    HW2 9063   3.593   1.437   1.186
 2793SOL     OW 9064   2.179   0.547   1.280
 2793SOL    HW1 9065   2.217   0.488   1.352
 2793SOL    HW2 9066   2.219   0.521   1.192
 2794SOL     OW 9067   2.674   1.586   0.687
 2794SOL    HW1 9068   2.706   1.596   0.593
 2794SOL    HW2 9069   2.595   1.524   0.689
 2795SOL     OW 9070   3.286   0.214   1.112
 2795SOL    HW1 9071   3.338   0.149   1.167
 2795SOL    HW2 9072   3.237   0.277   1.173
 2796SOL     OW 9073   2.863   0.034   1.154
 2796SOL    HW1 9074   2.800  -0.038   1.123
 2796SOL    HW2 9075   2.956  -0.002   1.154
 2797SOL     OW 9076   2.632   1.330   0.301
 2797SOL    HW1 9077   2.586   1.243   0.318
 2797SOL    HW2 9078   2.723   1.327   0.342
 2798SOL     OW 9079   2.480   1.567   1.284
 2798SOL    HW1 9080   2.475   1.649   1.341
 2798SOL    HW2 9081   2.569   1.564   1.239
 2799SOL     OW 9082   3.214   0.052   0.168
 2799SOL    HW1 9083   3.249   0.011   0.084
 2799SOL    HW2 9084   3.124   0.014   0.188
 2800SOL     OW 9085   3.162   0.453   0.691
 2800SOL    HW1 9086   3.103   0.533   0.695
 2800SOL    HW2 9087   3.177   0.418   0.784
 2801SOL     OW 9088   3.455   0.221   0.882
 2801SOL    HW1 9089   3.371   0.220   0.936
 2801SOL    HW2 9090   3.457   0.304   0.826
 2802SOL     OW 9091   1.901   1.077   0.300
 2802SOL    HW1 9092   2.000   1.066   0.291
 2802SOL    HW2 9093   1.861   0.991   0.332
 2803SOL     OW 9094   2.737   1.646   0.337
 2803SOL    HW1 9095   2.660   1.611   0.283
 2803SOL    HW2 9096   2.705   1.717   0.399
 2804SOL     OW 9097   2.092   0.628   1.975
 2804SOL    HW1 9098   1.999   0.626   2.012
 2804SOL    HW2 9099   2.093   0.589   1.883
 2805SOL     OW 9100   2.087   0.275   2.858
 2805SOL    HW1 9101   2.122   0.258   2.950
 2805SOL    HW2 9102   1.999   0.230   2.846
 2806SOL     OW 9103   1.881   0.368   2.509
 2806SOL    HW1 9104   1.799   0.411   2.548
 2806SOL    HW2 9105   1.853   0.295   2.446
 2807SOL     OW 9106   2.431   1.275   3.027
 2807SOL    HW1 9107   2.338   1.268   2.990
 2807SOL    HW2 9108   2.442   1.364   3.071
 2808SOL     OW 9109   3.417   1.511   2.565
 2808SOL    HW1 9110   3.360   1.495   2.646
 2808SOL    HW2 9111   3.358   1.521   2.485
 2809SOL     OW 9112   2.997   0.703   2.579
 2809SOL    HW1 9113   3.054   0.781   2.554
 2809SOL    HW2 9114   2.937   0.729   2.655
 2810SOL     OW 9115   3.617   0.607   2.093
 2810SOL    HW1 9116   3.605   0.594   1.994
 2810SOL    HW2 9117   3.587   0.526   2.142
 2811SOL     OW 9118   2.630   1.144   2.885
 2811SOL    HW1 9119   2.552   1.161   2.945
 2811SOL    HW2 9120   2.664   1.231   2.849
 2812SOL     OW 9121   2.712   0.798   3.685
 2812SOL    HW1 9122   2.708   0.874   3.750
 2812SOL    HW2 9123   2.734   0.834   3.594
 2813SOL     OW 9124   2.547   1.012   2.527
 2813SOL    HW1 9125   2.616   0.996   2.597
 2813SOL    HW2 9126   2.474   1.069   2.565
 2814SOL     OW 9127   2.548   1.161   3.665
 2814SOL    HW1 9128   2.608   1.240   3.679
 2814SOL    HW2 9129   2.462   1.192   3.624
 2815SOL     OW 9130   2.197   1.435   2.923
 2815SOL    HW1 9131   2.119   1.404   2.870
 2815SOL    HW2 9132   2.255   1.493   2.866
 2816SOL     OW 9133   3.322   1.505   3.201
 2816SOL    HW1 9134   3.346   1.599   3.227
 2816SOL    HW2 9135   3.306   1.451   3.283
 2817SOL     OW 9136   2.300   0.392   3.361
 2817SOL    HW1 9137   2.382   0.336   3.370
 2817SOL    HW2 9138   2.219   0.334   3.365
 2818SOL     OW 9139   3.465   0.447   2.599
 2818SOL    HW1 9140   3.391   0.493   2.549
 2818SOL    HW2 9141   3.516   0.515   2.652
 2819SOL     OW 9142   2.093   1.713   2.345
 2819SOL    HW1 9143   2.127   1.790   2.399
 2819SOL    HW2 9144   2.137   1.713   2.255
 2820SOL     OW 9145   2.989   1.341   3.552
 2820SOL    HW1 9146   3.036   1.341   3.640
 2820SOL    HW2 9147   2.941   1.254   3.541
 2821SOL     OW 9148   2.092   1.434   2.400
 2821SOL    HW1 9149   2.066   1.530   2.400
 2821SOL    HW2 9150   2.021   1.380   2.445
 2822SOL     OW 9151   2.102   1.091   2.748
 2822SOL    HW1 9152   2.116   1.007   2.800
 2822SOL    HW2 9153   2.047   1.155   2.803
 2823SOL     OW 9154   2.468   0.964   1.985
 2823SOL    HW1 9155   2.475   1.048   1.931
 2823SOL    HW2 9156   2.514   0.977   2.073
 2824SOL     OW 9157   3.456   0.114   3.342
 2824SOL    HW1 9158   3.438   0.181   3.270
 2824SOL    HW2 9159   3.453   0.160   3.431
 2825SOL     OW 9160   1.984   0.643   2.425
 2825SOL    HW1 9161   1.939   0.555   2.442
 2825SOL    HW2 9162   1.983   0.697   2.509
 2826SOL     OW 9163   3.704   1.767   2.221
 2826SOL    HW1 9164   3.758   1.738   2.301
 2826SOL    HW2 9165   3.734   1.857   2.192
 2827SOL     OW 9166   1.889   1.596   1.979
 2827SOL    HW1 9167   1.870   1.500   2.000
 2827SOL    HW2 9168   1.856   1.654   2.054
 2828SOL     OW 9169   3.551   0.922   2.474
 2828SOL    HW1 9170   3.646   0.893   2.482
 2828SOL    HW2 9171   3.543   0.987   2.399
 2829SOL     OW 9172   3.503   1.108   2.294
 2829SOL    HW1 9173   3.589   1.110   2.242
 2829SOL    HW2 9174   3.517   1.155   2.382
 2830SOL     OW 9175   1.975   0.737   3.459
 2830SOL    HW1 9176   2.063   0.724   3.504
 2830SOL    HW2 9177   1.962   0.834   3.437
 2831SOL     OW 9178   2.475   1.365   2.588
 2831SOL    HW1 9179   2.426   1.278   2.597
 2831SOL    HW2 9180   2.452   1.408   2.501
 2832SOL     OW 9181   3.155   1.228   3.285
 2832SOL    HW1 9182   3.192   1.155   3.227
 2832SOL    HW2 9183   3.207   1.233   3.370
 2833SOL     OW 9184   2.671   0.004   2.364
 2833SOL    HW1 9185   2.711   0.095   2.355
 2833SOL    HW2 9186   2.571   0.012   2.370
 2834SOL     OW 9187   2.059   0.976   3.126
 2834SOL    HW1 9188   2.148   0.931   3.112
 2834SOL    HW2 9189   1.986   0.911   3.107
 2835SOL     OW 9190   3.387   0.999   2.052
 2835SOL    HW1 9191   3.324   0.923   2.065
 2835SOL    HW2 9192   3.435   1.017   2.138
 2836SOL     OW 9193   2.179   0.251   3.663
 2836SOL    HW1 9194   2.250   0.322   3.669
 2836SOL    HW2 9195   2.091   0.290   3.691
 2837SOL     OW 9196   3.328   1.417   2.815
 2837SOL    HW1 9197   3.269   1.423   2.895
 2837SOL    HW2 9198   3.313   1.329   2.769
 2838SOL     OW 9199   3.529   1.714   2.434
 2838SOL    HW1 9200   3.488   1.691   2.346
 2838SOL    HW2 9201   3.511   1.640   2.499
 2839SOL     OW 9202   2.460   0.729   2.132
 2839SOL    HW1 9203   2.484   0.798   2.064
 2839SOL    HW2 9204   2.382   0.762   2.186
 2840SOL     OW 9205   3.143   0.345   2.806
 2840SOL    HW1 9206   3.057   0.295   2.793
 2840SOL    HW2 9207   3.205   0.291   2.862
 2841SOL     OW 9208   3.438   1.662   2.169
 2841SOL    HW1 9209   3.527   1.708   2.172
 2841SOL    HW2 9210   3.417   1.638   2.074
 2842SOL     OW 9211   2.669   0.605   3.327
 2842SOL    HW1 9212   2.622   0.602   3.416
 2842SOL    HW2 9213   2.618   0.550   3.261
 2843SOL     OW 9214   3.256   0.469   3.536
 2843SOL    HW1 9215   3.236   0.512   3.624
 2843SOL    HW2 9216   3.334   0.407   3.545
 2844SOL     OW 9217   2.835   0.890   3.434
 2844SOL    HW1 9218   2.881   0.806   3.405
 2844SOL    HW2 9219   2.779   0.924   3.359
 2845SOL     OW 9220   2.853   0.410   3.104
 2845SOL    HW1 9221   2.776   0.444   3.158
 2845SOL    HW2 9222   2.819   0.359   3.025
 2846SOL     OW 9223   2.903   0.701   2.291
 2846SOL    HW1 9224   2.929   0.697   2.387
 2846SOL    HW2 9225   2.818   0.650   2.277
 2847SOL     OW 9226   1.938   0.811   2.651
 2847SOL    HW1 9227   2.037   0.799   2.660
 2847SOL    HW2 9228   1.914   0.906   2.672
 2848SOL     OW 9229   1.992   1.821   3.433
 2848SOL    HW1 9230   1.982   1.806   3.532
 2848SOL    HW2 9231   1.906   1.857   3.397
 2849SOL     OW 9232   2.727   0.348   2.057
 2849SOL    HW1 9233   2.786   0.411   2.008
 2849SOL    HW2 9234   2.746   0.254   2.028
 2850SOL     OW 9235   3.581   0.585   3.693
 2850SOL    HW1 9236   3.555   0.674   3.657
 2850SOL    HW2 9237   3.579   0.517   3.620
 2851SOL     OW 9238   3.224   1.144   2.407
 2851SOL    HW1 9239   3.307   1.115   2.359
 2851SOL    HW2 9240   3.175   1.211   2.351
 2852SOL     OW 9241   2.412   0.196   2.747
 2852SOL    HW1 9242   2.407   0.191   2.847
 2852SOL    HW2 9243   2.414   0.292   2.718
 2853SOL     OW 9244   2.870   1.456   2.339
 2853SOL    HW1 9245   2.824   1.528   2.287
 2853SOL    HW2 9246   2.866   1.476   2.437
 2854SOL     OW 9247   2.213   1.801   2.715
 2854SOL    HW1 9248   2.263   1.715   2.721
 2854SOL    HW2 9249   2.278   1.878   2.712
 2855SOL     OW 9250   3.657   1.066   2.735
 2855SOL    HW1 9251   3.595   1.051   2.659
 2855SOL    HW2 9252   3.605   1.077   2.820
 2856SOL     OW 9253   3.089   1.550   3.368
 2856SOL    HW1 9254   3.095   1.473   3.432
 2856SOL    HW2 9255   3.037   1.524   3.288
 2857SOL     OW 9256   2.183   0.943   2.104
 2857SOL    HW1 9257   2.265   0.982   2.062
 2857SOL    HW2 9258   2.156   0.861   2.055
 2858SOL     OW 9259   3.320   0.735   2.590
 2858SOL    HW1 9260   3.315   0.670   2.665
 2858SOL    HW2 9261   3.400   0.794   2.603
 2859SOL     OW 9262   2.323   1.266   3.589
 2859SOL    HW1 9263   2.273   1.267   3.503
 2859SOL    HW2 9264   2.260   1.248   3.665
 2860SOL     OW 9265   2.973   1.776   2.099
 2860SOL    HW1 9266   2.913   1.714   2.149
 2860SOL    HW2 9267   3.004   1.732   2.014
 2861SOL     OW 9268   2.064   0.285   3.360
 2861SOL    HW1 9269   1.984   0.345   3.347
 2861SOL    HW2 9270   2.054   0.236   3.446
 2862SOL     OW 9271   3.494   1.377   1.943
 2862SOL    HW1 9272   3.462   1.471   1.933
 2862SOL    HW2 9273   3.418   1.314   1.931
 2863SOL     OW 9274   2.326   1.743   2.185
 2863SOL    HW1 9275   2.359   1.782   2.271
 2863SOL    HW2 9276   2.402   1.736   2.120
 2864SOL     OW 9277   3.262   0.107   2.288
 2864SOL    HW1 9278   3.238   0.070   2.198
 2864SOL    HW2 9279   3.361   0.123   2.292
 2865SOL     OW 9280   2.111   1.785   3.103
 2865SOL    HW1 9281   2.168   1.720   3.153
 2865SOL    HW2 9282   2.095   1.752   3.010
 2866SOL     OW 9283   2.802   1.698   2.766
 2866SOL    HW1 9284   2.882   1.641   2.787
 2866SOL    HW2 9285   2.753   1.658   2.689
 2867SOL     OW 9286   2.244   0.700   2.342
 2867SOL    HW1 9287   2.289   0.610   2.339
 2867SOL    HW2 9288   2.150   0.689   2.375
 2868SOL     OW 9289   3.409   0.222   3.591
 2868SOL    HW1 9290   3.404   0.259   3.683
 2868SOL    HW2 9291   3.337   0.153   3.579
 2869SOL     OW 9292   2.476   0.122   1.979
 2869SOL    HW1 9293   2.574   0.100   1.986
 2869SOL    HW2 9294   2.445   0.105   1.886
 2870SOL     OW 9295   2.643   0.264   3.611
 2870SOL    HW1 9296   2.710   0.203   3.654
 2870SOL    HW2 9297   2.570   0.283   3.676
 2871SOL     OW 9298   2.750   1.514   3.057
 2871SOL    HW1 9299   2.727   1.489   2.963
 2871SOL    HW2 9300   2.811   1.445   3.096
 2872SOL     OW 9301   3.213   0.590   3.295
 2872SOL    HW1 9302   3.241   0.547   3.380
 2872SOL    HW2 9303   3.238   0.686   3.296
 2873SOL     OW 9304   2.665   1.402   2.786
 2873SOL    HW1 9305   2.755   1.416   2.744
 2873SOL    HW2 9306   2.594   1.404   2.715
 2874SOL     OW 9307   2.784   0.503   2.761
 2874SOL    HW1 9308   2.759   0.494   2.665
 2874SOL    HW2 9309   2.832   0.421   2.792
 2875SOL     OW 9310   2.401   0.064   2.374
 2875SOL    HW1 9311   2.320   0.065   2.432
 2875SOL    HW2 9312   2.404   0.147   2.319
 2876SOL     OW 9313   3.296   1.188   1.903
 2876SOL    HW1 9314   3.328   1.112   1.960
 2876SOL    HW2 9315   3.204   1.215   1.933
 2877SOL     OW 9316   2.159   0.035   2.033
 2877SOL    HW1 9317   2.208   0.119   2.012
 2877SOL    HW2 9318   2.221  -0.030   2.078
 2878SOL     OW 9319   2.797   0.236   2.342
 2878SOL    HW1 9320   2.749   0.277   2.264
 2878SOL    HW2 9321   2.896   0.234   2.323
 2879SOL     OW 9322   2.938   0.683   3.326
 2879SOL    HW1 9323   2.858   0.622   3.329
 2879SOL    HW2 9324   3.019   0.630   3.302
 2880SOL     OW 9325   3.089   1.570   2.655
 2880SOL    HW1 9326   3.110   1.644   2.590
 2880SOL    HW2 9327   3.157   1.570   2.728
 2881SOL     OW 9328   2.321   1.152   2.603
 2881SOL    HW1 9329   2.250   1.125   2.668
 2881SOL    HW2 9330   2.295   1.124   2.510
 2882SOL     OW 9331   3.133   1.797   2.453
 2882SOL    HW1 9332   3.177   1.861   2.389
 2882SOL    HW2 9333   3.083   1.849   2.523
 2883SOL     OW 9334   2.894   0.549   1.878
 2883SOL    HW1 9335   2.853   0.631   1.839
 2883SOL    HW2 9336   2.958   0.575   1.951
 2884SOL     OW 9337   1.940   0.556   3.248
 2884SOL    HW1 9338   2.032   0.555   3.207
 2884SOL    HW2 9339   1.934   0.630   3.315
 2885SOL     OW 9340   2.423   0.222   3.009
 2885SOL    HW1 9341   2.461   0.138   3.046
 2885SOL    HW2 9342   2.335   0.241   3.053
 2886SOL     OW 9343   2.728   0.454   2.504
 2886SOL    HW1 9344   2.696   0.526   2.442
 2886SOL    HW2 9345   2.752   0.373   2.451
 2887SOL     OW 9346   2.879   0.039   2.615
 2887SOL    HW1 9347   2.807   0.044   2.546
 2887SOL    HW2 9348   2.855  -0.030   2.684
 2888SOL     OW 9349   3.291   1.173   2.729
 2888SOL    HW1 9350   3.236   1.089   2.722
 2888SOL    HW2 9351   3.317   1.202   2.637
 2889SOL     OW 9352   3.328   0.590   2.854
 2889SOL    HW1 9353   3.298   0.495   2.861
 2889SOL    HW2 9354   3.401   0.606   2.920
 2890SOL     OW 9355   3.719   0.833   2.239
 2890SOL    HW1 9356   3.761   0.769   2.303
 2890SOL    HW2 9357   3.681   0.782   2.161
 2891SOL     OW 9358   2.350   1.385   2.036
 2891SOL    HW1 9359   2.263   1.370   2.083
 2891SOL    HW2 9360   2.333   1.411   1.941
 2892SOL     OW 9361   3.526   1.280   2.519
 2892SOL    HW1 9362   3.625   1.288   2.533
 2892SOL    HW2 9363   3.481   1.364   2.550
 2893SOL     OW 9364   3.252   0.575   1.940
 2893SOL    HW1 9365   3.198   0.554   2.021
 2893SOL    HW2 9366   3.343   0.534   1.949
 2894SOL     OW 9367   2.389   0.256   2.190
 2894SOL    HW1 9368   2.416   0.197   2.115
 2894SOL    HW2 9369   2.389   0.351   2.159
 2895SOL     OW 9370   3.616   1.223   3.450
 2895SOL    HW1 9371   3.707   1.184   3.437
 2895SOL    HW2 9372   3.624   1.319   3.474
 2896SOL     OW 9373   2.926   1.347   3.202
 2896SOL    HW1 9374   2.846   1.324   3.257
 2896SOL    HW2 9375   3.009   1.321   3.251
 2897SOL     OW 9376   3.454   1.629   3.487
 2897SOL    HW1 9377   3.481   1.663   3.397
 2897SOL    HW2 9378   3.533   1.591   3.533
 2898SOL     OW 9379   2.973   1.195   2.962
 2898SOL    HW1 9380   2.933   1.239   3.043
 2898SOL    HW2 9381   2.932   1.232   2.879
 2899SOL     OW 9382   3.500   1.099   2.941
 2899SOL    HW1 9383   3.505   1.180   3.000
 2899SOL    HW2 9384   3.414   1.101   2.890
 2900SOL     OW 9385   2.777   0.089   3.264
 2900SOL    HW1 9386   2.802   0.069   3.169
 2900SOL    HW2 9387   2.849   0.145   3.306
 2901SOL     OW 9388   2.842   1.116   3.581
 2901SOL    HW1 9389   2.743   1.122   3.591
 2901SOL    HW2 9390   2.865   1.036   3.525
 2902SOL     OW 9391   2.567   1.050   2.230
 2902SOL    HW1 9392   2.553   1.057   2.329
 2902SOL    HW2 9393   2.651   0.999   2.212
 2903SOL     OW 9394   2.272   0.813   3.113
 2903SOL    HW1 9395   2.358   0.825   3.163
 2903SOL    HW2 9396   2.230   0.726   3.140
 2904SOL     OW 9397   3.136   0.386   3.124
 2904SOL    HW1 9398   3.157   0.460   3.188
 2904SOL    HW2 9399   3.047   0.403   3.081
 2905SOL     OW 9400   1.926   1.564   3.193
 2905SOL    HW1 9401   1.880   1.646   3.159
 2905SOL    HW2 9402   2.024   1.583   3.202
 2906SOL     OW 9403   2.229   1.100   2.363
 2906SOL    HW1 9404   2.222   1.183   2.307
 2906SOL    HW2 9405   2.233   1.020   2.303
 2907SOL     OW 9406   2.428   0.537   2.727
 2907SOL    HW1 9407   2.440   0.603   2.653
 2907SOL    HW2 9408   2.474   0.571   2.810
 2908SOL     OW 9409   3.114   1.348   2.250
 2908SOL    HW1 9410   3.164   1.425   2.290
 2908SOL    HW2 9411   3.019   1.350   2.282
 2909SOL     OW 9412   3.134   1.445   3.004
 2909SOL    HW1 9413   3.181   1.458   3.091
 2909SOL    HW2 9414   3.068   1.371   3.013
 2910SOL     OW 9415   3.444   0.639   2.334
 2910SOL    HW1 9416   3.413   0.700   2.407
 2910SOL    HW2 9417   3.494   0.691   2.265
 2911SOL     OW 9418   2.216   1.510   3.191
 2911SOL    HW1 9419   2.195   1.466   3.104
 2911SOL    HW2 9420   2.313   1.536   3.194
 2912SOL     OW 9421   2.264   0.751   3.460
 2912SOL    HW1 9422   2.332   0.806   3.413
 2912SOL    HW2 9423   2.304   0.663   3.487
 2913SOL     OW 9424   3.449   0.779   3.532
 2913SOL    HW1 9425   3.357   0.817   3.527
 2913SOL    HW2 9426   3.509   0.826   3.467
 2914SOL     OW 9427   2.875   0.105   3.632
 2914SOL    HW1 9428   2.881   0.190   3.580
 2914SOL    HW2 9429   2.907   0.029   3.575
 2915SOL     OW 9430   2.366   0.050   3.602
 2915SOL    HW1 9431   2.324  -0.007   3.532
 2915SOL    HW2 9432   2.300   0.119   3.634
 2916SOL     OW 9433   2.435   0.870   2.891
 2916SOL    HW1 9434   2.479   0.959   2.882
 2916SOL    HW2 9435   2.372   0.870   2.968
 2917SOL     OW 9436   3.222   0.862   2.907
 2917SOL    HW1 9437   3.147   0.862   2.841
 2917SOL    HW2 9438   3.259   0.770   2.916
 2918SOL     OW 9439   3.071   0.525   2.137
 2918SOL    HW1 9440   3.084   0.441   2.191
 2918SOL    HW2 9441   3.042   0.599   2.197
 2919SOL     OW 9442   2.169   0.213   3.093
 2919SOL    HW1 9443   2.146   0.250   3.183
 2919SOL    HW2 9444   2.139   0.118   3.087
 2920SOL     OW 9445   1.899   1.310   3.144
 2920SOL    HW1 9446   1.952   1.261   3.212
 2920SOL    HW2 9447   1.921   1.408   3.149
 2921SOL     OW 9448   2.594   0.634   2.926
 2921SOL    HW1 9449   2.653   0.608   2.850
 2921SOL    HW2 9450   2.566   0.730   2.915
 2922SOL     OW 9451   3.590   0.935   3.716
 2922SOL    HW1 9452   3.544   0.928   3.627
 2922SOL    HW2 9453   3.528   0.979   3.782
 2923SOL     OW 9454   2.169   0.063   2.480
 2923SOL    HW1 9455   2.158   0.157   2.513
 2923SOL    HW2 9456   2.164   0.000   2.557
 2924SOL     OW 9457   3.484   0.367   2.236
 2924SOL    HW1 9458   3.486   0.291   2.300
 2924SOL    HW2 9459   3.436   0.444   2.276
 2925SOL     OW 9460   2.885   0.766   2.828
 2925SOL    HW1 9461   2.900   0.787   2.924
 2925SOL    HW2 9462   2.855   0.671   2.819
 2926SOL     OW 9463   2.842   1.573   3.562
 2926SOL    HW1 9464   2.822   1.617   3.474
 2926SOL    HW2 9465   2.881   1.482   3.546
 2927SOL     OW 9466   3.721   1.518   3.467
 2927SOL    HW1 9467   3.735   1.545   3.372
 2927SOL    HW2 9468   3.804   1.540   3.520
 2928SOL     OW 9469   2.212   0.898   3.666
 2928SOL    HW1 9470   2.288   0.942   3.714
 2928SOL    HW2 9471   2.247   0.851   3.584
 2929SOL     OW 9472   3.402   0.274   1.987
 2929SOL    HW1 9473   3.341   0.199   2.010
 2929SOL    HW2 9474   3.424   0.326   2.070
 2930SOL     OW 9475   3.165   0.838   1.904
 2930SOL    HW1 9476   3.199   0.745   1.919
 2930SOL    HW2 9477   3.183   0.865   1.809
 2931SOL     OW 9478   2.930   1.333   2.711
 2931SOL    HW1 9479   2.937   1.249   2.656
 2931SOL    HW2 9480   2.992   1.402   2.675
 2932SOL     OW 9481   2.181   0.810   2.811
 2932SOL    HW1 9482   2.274   0.846   2.816
 2932SOL    HW2 9483   2.175   0.725   2.863
 2933SOL     OW 9484   2.201   0.509   2.868
 2933SOL    HW1 9485   2.149   0.426   2.851
 2933SOL    HW2 9486   2.278   0.514   2.804
 2934SOL     OW 9487   3.000   0.380   3.540
 2934SOL    HW1 9488   2.955   0.443   3.604
 2934SOL    HW2 9489   3.093   0.411   3.523
 2935SOL     OW 9490   3.022   0.207   3.339
 2935SOL    HW1 9491   3.022   0.271   3.416
 2935SOL    HW2 9492   3.050   0.255   3.256
 2936SOL     OW 9493   1.870   1.326   2.062
 2936SOL    HW1 9494   1.777   1.347   2.031
 2936SOL    HW2 9495   1.880   1.227   2.075
 2937SOL     OW 9496   1.950   1.801   2.789
 2937SOL    HW1 9497   1.908   1.715   2.762
 2937SOL    HW2 9498   2.044   1.804   2.755
 2938SOL     OW 9499   2.366   1.568   2.772
 2938SOL    HW1 9500   2.432   1.642   2.781
 2938SOL    HW2 9501   2.410   1.489   2.730
 2939SOL     OW 9502   2.864   0.796   3.100
 2939SOL    HW1 9503   2.905   0.764   3.186
 2939SOL    HW2 9504   2.768   0.769   3.097
 2940SOL     OW 9505   1.902   0.544   2.976
 2940SOL    HW1 9506   1.987   0.511   2.935
 2940SOL    HW2 9507   1.915   0.559   3.074
 2941SOL     OW 9508   2.051   0.520   3.584
 2941SOL    HW1 9509   2.110   0.480   3.514
 2941SOL    HW2 9510   1.993   0.591   3.543
 2942SOL     OW 9511   3.231   0.950   3.522
 2942SOL    HW1 9512   3.270   1.039   3.542
 2942SOL    HW2 9513   3.241   0.930   3.425
 2943SOL     OW 9514   2.677   0.572   2.187
 2943SOL    HW1 9515   2.684   0.483   2.141
 2943SOL    HW2 9516   2.583   0.606   2.179
 2944SOL     OW 9517   3.519   0.604   3.068
 2944SOL    HW1 9518   3.481   0.535   3.130
 2944SOL    HW2 9519   3.601   0.568   3.024
 2945SOL     OW 9520   2.114   1.564   3.606
 2945SOL    HW1 9521   2.084   1.621   3.682
 2945SOL    HW2 9522   2.107   1.467   3.632
 2946SOL     OW 9523   2.533   0.464   3.131
 2946SOL    HW1 9524   2.499   0.375   3.101
 2946SOL    HW2 9525   2.559   0.518   3.051
 2947SOL     OW 9526   2.792   1.678   3.327
 2947SOL    HW1 9527   2.768   1.660   3.232
 2947SOL    HW2 9528   2.822   1.772   3.337
 2948SOL     OW 9529   2.335   0.500   2.053
 2948SOL    HW1 9530   2.396   0.580   2.057
 2948SOL    HW2 9531   2.240   0.531   2.060
 2949SOL     OW 9532   2.021   1.137   3.328
 2949SOL    HW1 9533   2.043   1.076   3.404
 2949SOL    HW2 9534   2.031   1.088   3.242
 2950SOL     OW 9535   3.209   1.059   3.096
 2950SOL    HW1 9536   3.233   0.996   3.022
 2950SOL    HW2 9537   3.119   1.099   3.078
 2951SOL     OW 9538   3.164   0.855   2.171
 2951SOL    HW1 9539   3.078   0.824   2.213
 2951SOL    HW2 9540   3.160   0.841   2.072
 2952SOL     OW 9541   3.621   1.747   3.016
 2952SOL    HW1 9542   3.682   1.777   2.943
 2952SOL    HW2 9543   3.583   1.658   2.994
 2953SOL     OW 9544   3.114   1.731   2.990
 2953SOL    HW1 9545   3.198   1.736   2.936
 2953SOL    HW2 9546   3.091   1.635   3.008
 2954SOL     OW 9547   1.945   1.258   2.884
 2954SOL    HW1 9548   1.940   1.257   2.984
 2954SOL    HW2 9549   1.862   1.217   2.846
 2955SOL     OW 9550   2.550   1.662   3.578
 2955SOL    HW1 9551   2.494   1.743   3.587
 2955SOL    HW2 9552   2.602   1.666   3.492
 2956SOL     OW 9553   3.588   0.135   2.385
 2956SOL    HW1 9554   3.661   0.118   2.318
 2956SOL    HW2 9555   3.557   0.048   2.423
 2957SOL     OW 9556   3.250   1.573   2.339
 2957SOL    HW1 9557   3.317   1.585   2.265
 2957SOL    HW2 9558   3.210   1.662   2.362
 2958SOL     OW 9559   1.992   1.794   3.713
 2958SOL    HW1 9560   1.951   1.720   3.766
 2958SOL    HW2 9561   2.056   1.845   3.771
 2959SOL     OW 9562   3.142   0.927   2.534
 2959SOL    HW1 9563   3.202   0.846   2.536
 2959SOL    HW2 9564   3.182   0.996   2.474
 2960SOL     OW 9565   2.692   1.273   3.284
 2960SOL    HW1 9566   2.687   1.306   3.379
 2960SOL    HW2 9567   2.606   1.292   3.238
 2961SOL     OW 9568   2.534   1.616   2.016
 2961SOL    HW1 9569   2.543   1.626   1.917
 2961SOL    HW2 9570   2.494   1.527   2.037
 2962SOL     OW 9571   3.512   1.720   3.256
 2962SOL    HW1 9572   3.565   1.730   3.172
 2962SOL    HW2 9573   3.485   1.810   3.290
 2963SOL     OW 9574   3.703   0.175   2.825
 2963SOL    HW1 9575   3.742   0.090   2.789
 2963SOL    HW2 9576   3.605   0.177   2.806
 2964SOL     OW 9577   2.125   0.326   2.582
 2964SOL    HW1 9578   2.046   0.377   2.548
 2964SOL    HW2 9579   2.116   0.311   2.680
 2965SOL     OW 9580   3.056   1.612   1.893
 2965SOL    HW1 9581   3.062   1.519   1.930
 2965SOL    HW2 9582   2.997   1.612   1.813
 2966SOL     OW 9583   2.684   1.002   3.234
 2966SOL    HW1 9584   2.724   1.001   3.142
 2966SOL    HW2 9585   2.694   1.094   3.274
 2967SOL     OW 9586   2.778   0.910   2.153
 2967SOL    HW1 9587   2.841   0.948   2.085
 2967SOL    HW2 9588   2.818   0.827   2.192
 2968SOL     OW 9589   3.366   1.607   1.906
 2968SOL    HW1 9590   3.274   1.644   1.913
 2968SOL    HW2 9591   3.404   1.627   1.816
 2969SOL     OW 9592   2.234   1.288   3.352
 2969SOL    HW1 9593   2.221   1.381   3.318
 2969SOL    HW2 9594   2.150   1.236   3.339
 2970SOL     OW 9595   3.476   1.292   3.151
 2970SOL    HW1 9596   3.536   1.295   3.231
 2970SOL    HW2 9597   3.401   1.356   3.164
 2971SOL     OW 9598   2.901   1.098   2.558
 2971SOL    HW1 9599   2.831   1.051   2.612
 2971SOL    HW2 9600   2.960   1.030   2.515
 2972SOL     OW 9601   2.876   0.236   2.833
 2972SOL    HW1 9602   2.868   0.200   2.740
 2972SOL    HW2 9603   2.874   0.160   2.898
 2973SOL     OW 9604   2.452   1.487   2.353
 2973SOL    HW1 9605   2.494   1.429   2.283
 2973SOL    HW2 9606   2.408   1.566   2.309
 2974SOL     OW 9607   3.571   0.385   3.243
 2974SOL    HW1 9608   3.644   0.454   3.247
 2974SOL    HW2 9609   3.599   0.310   3.184
 2975SOL     OW 9610   2.117   1.348   2.152
 2975SOL    HW1 9611   2.021   1.349   2.125
 2975SOL    HW2 9612   2.129   1.401   2.236
 2976SOL     OW 9613   1.967   1.013   3.588
 2976SOL    HW1 9614   1.890   0.980   3.642
 2976SOL    HW2 9615   2.052   0.983   3.630
 2977SOL     OW 9616   2.534   0.203   3.351
 2977SOL    HW1 9617   2.624   0.187   3.311
 2977SOL    HW2 9618   2.542   0.208   3.450
 2978SOL     OW 9619   1.937   0.345   1.895
 2978SOL    HW1 9620   1.845   0.317   1.866
 2978SOL    HW2 9621   1.968   0.422   1.839
 2979SOL     OW 9622   3.302   0.856   3.260
 2979SOL    HW1 9623   3.245   0.908   3.197
 2979SOL    HW2 9624   3.398   0.868   3.236
 2980SOL     OW 9625   1.934   0.166   2.180
 2980SOL    HW1 9626   1.917   0.249   2.126
 2980SOL    HW2 9627   2.024   0.129   2.158
 2981SOL     OW 9628   3.045   1.335   1.981
 2981SOL    HW1 9629   2.946   1.324   1.983
 2981SOL    HW2 9630   3.079   1.350   2.074
 2982SOL     OW 9631   2.475   0.842   3.293
 2982SOL    HW1 9632   2.531   0.923   3.276
 2982SOL    HW2 9633   2.534   0.762   3.296
 2983SOL     OW 9634   3.355   1.767   2.821
 2983SOL    HW1 9635   3.388   1.831   2.752
 2983SOL    HW2 9636   3.421   1.761   2.896
 2984SOL     OW 9637   2.578   0.565   3.570
 2984SOL    HW1 9638   2.597   0.630   3.644
 2984SOL    HW2 9639   2.638   0.485   3.579
 2985SOL     OW 9640   3.312   1.220   3.495
 2985SOL    HW1 9641   3.303   1.210   3.594
 2985SOL    HW2 9642   3.408   1.213   3.469
 2986SOL     OW 9643   2.252   1.741   3.422
 2986SOL    HW1 9644   2.161   1.782   3.420
 2986SOL    HW2 9645   2.245   1.647   3.454
 2987SOL     OW 9646   3.536   0.883   3.116
 2987SOL    HW1 9647   3.509   0.794   3.079
 2987SOL    HW2 9648   3.537   0.951   3.043
 2988SOL     OW 9649   3.087   0.325   2.311
 2988SOL    HW1 9650   3.152   0.251   2.300
 2988SOL    HW2 9651   3.107   0.375   2.395
 2989SOL     OW 9652   2.456   0.745   2.514
 2989SOL    HW1 9653   2.506   0.830   2.495
 2989SOL    HW2 9654   2.368   0.747   2.466
 2990SOL     OW 9655   3.639   0.342   3.504
 2990SOL    HW1 9656   3.622   0.373   3.410
 2990SOL    HW2 9657   3.555   0.305   3.542
 2991SOL     OW 9658   3.592   0.934   3.379
 2991SOL    HW1 9659   3.630   1.025   3.394
 2991SOL    HW2 9660   3.584   0.917   3.280
 2992SOL     OW 9661   2.721   1.374   1.878
 2992SOL    HW1 9662   2.675   1.389   1.966
 2992SOL    HW2 9663   2.765   1.459   1.848
 2993SOL     OW 9664   2.523   1.790   2.815
 2993SOL    HW1 9665   2.477   1.878   2.802
 2993SOL    HW2 9666   2.622   1.802   2.808
 2994SOL     OW 9667   2.721   0.956   2.723
 2994SOL    HW1 9668   2.775   0.887   2.771
 2994SOL    HW2 9669   2.689   1.025   2.789
 2995SOL     OW 9670   2.945   0.984   1.949
 2995SOL    HW1 9671   2.922   1.037   1.867
 2995SOL    HW2 9672   3.026   0.928   1.930
 2996SOL     OW 9673   3.723   1.569   2.713
 2996SOL    HW1 9674   3.652   1.557   2.643
 2996SOL    HW2 9675   3.724   1.490   2.773
 2997SOL     OW 9676   2.083   1.314   3.706
 2997SOL    HW1 9677   2.018   1.241   3.685
 2997SOL    HW2 9678   2.087   1.328   3.804
 2998SOL     OW 9679   1.941   1.240   2.515
 2998SOL    HW1 9680   1.940   1.193   2.603
 2998SOL    HW2 9681   2.023   1.212   2.464
 2999SOL     OW 9682   2.534   1.391   3.486
 2999SOL    HW1 9683   2.456   1.341   3.524
 2999SOL    HW2 9684   2.531   1.486   3.517
 3000SOL     OW 9685   3.686   0.192   3.089
 3000SOL    HW1 9686   3.682   0.102   3.133
 3000SOL    HW2 9687   3.689   0.181   2.990
 3001SOL     OW 9688   2.290   0.424   2.382
 3001SOL    HW1 9689   2.320   0.352   2.320
 3001SOL    HW2 9690   2.251   0.384   2.465
 3002SOL     OW 9691   3.567   1.487   2.966
 3002SOL    HW1 9692   3.474   1.462   2.939
 3002SOL    HW2 9693   3.593   1.437   3.048
 3003SOL     OW 9694   2.179   0.547   3.142
 3003SOL    HW1 9695   2.217   0.488   3.214
 3003SOL    HW2 9696   2.219   0.521   3.054
 3004SOL     OW 9697   2.674   1.586   2.549
 3004SOL    HW1 9698   2.706   1.596   2.455
 3004SOL    HW2 9699   2.595   1.524   2.551
 3005SOL     OW 9700   3.286   0.214   2.974
 3005SOL    HW1 9701   3.338   0.149   3.029
 3005SOL    HW2 9702   3.237   0.277   3.035
 3006SOL     OW 9703   2.863   0.034   3.016
 3006SOL    HW1 9704   2.800  -0.038   2.985
 3006SOL    HW2 9705   2.956  -0.002   3.016
 3007SOL     OW 9706   2.632   1.330   2.163
 3007SOL    HW1 9707   2.586   1.243   2.180
 3007SOL    HW2 9708   2.723   1.327   2.204
 3008SOL     OW 9709   2.480   1.567   3.146
 3008SOL    HW1 9710   2.475   1.649   3.203
 3008SOL    HW2 9711   2.569   1.564   3.101
 3009SOL     OW 9712   3.214   0.052   2.030
 3009SOL    HW1 9713   3.249   0.011   1.946
 3009SOL    HW2 9714   3.124   0.014   2.050
 3010SOL     OW 9715   3.162   0.453   2.553
 3010SOL    HW1 9716   3.103   0.533   2.557
 3010SOL    HW2 9717   3.177   0.418   2.646
 3011SOL     OW 9718   3.455   0.221   2.744
 3011SOL    HW1 9719   3.371   0.220   2.798
 3011SOL    HW2 9720   3.457   0.304   2.688
 3012SOL     OW 9721   1.901   1.077   2.162
 3012SOL    HW1 9722   2.000   1.066   2.153
 3012SOL    HW2 9723   1.861   0.991   2.194
 3013SOL     OW 9724   2.737   1.646   2.199
 3013SOL    HW1 9725   2.660   1.611   2.145
 3013SOL    HW2 9726   2.705   1.717   2.261
 3014SOL     OW 9727   2.092   0.628   3.837
 3014SOL    HW1 9728   1.999   0.626   3.874
 3014SOL    HW2 9729   2.093   0.589   3.745
 3015SOL     OW 9730   2.087   0.275   4.720
 3015SOL    HW1 9731   2.122   0.258   4.812
 3015SOL    HW2 9732   1.999   0.230   4.708
 3016SOL     OW 9733   1.881   0.368   4.371
 3016SOL    HW1 9734   1.799   0.411   4.410
 3016SOL    HW2 9735   1.853   0.295   4.308
 3017SOL     OW 9736   2.431   1.275   4.889
 3017SOL    HW1 9737   2.338   1.268   4.852
 3017SOL    HW2 9738   2.442   1.364   4.933
 3018SOL     OW 9739   3.417   1.511   4.427
 3018SOL    HW1 9740   3.360   1.495   4.508
 3018SOL    HW2 9741   3.358   1.521   4.347
 3019SOL     OW 9742   2.997   0.703   4.441
 3019SOL    HW1 9743   3.054   0.781   4.416
 3019SOL    HW2 9744   2.937   0.729   4.517
 3020SOL     OW 9745   3.617   0.607   3.955
 3020SOL    HW1 9746   3.605   0.594   3.856
 3020SOL    HW2 9747   3.587   0.526   4.004
 3021SOL     OW 9748   2.630   1.144   4.747
 3021SOL    HW1 9749   2.552   1.161   4.807
 3021SOL    HW2 9750   2.664   1.231   4.711
 3022SOL     OW 9751   2.712   0.798   5.547
 3022SOL    HW1 9752   2.708   0.874   5.612
 3022SOL    HW2 9753   2.734   0.834   5.456
 3023SOL     OW 9754   2.547   1.012   4.389
 3023SOL    HW1 9755   2.616   0.996   4.459
 3023SOL    HW2 9756   2.474   1.069   4.427
 3024SOL     OW 9757   2.548   1.161   5.527
 3024SOL    HW1 9758   2.608   1.240   5.541
 3024SOL    HW2 9759   2.462   1.192   5.486
 3025SOL     OW 9760   2.197   1.435   4.785
 3025SOL    HW1 9761   2.119   1.404   4.732
 3025SOL    HW2 9762   2.255   1.493   4.728
 3026SOL     OW 9763   3.322   1.505   5.063
 3026SOL    HW1 9764   3.346   1.599   5.089
 3026SOL    HW2 9765   3.306   1.451   5.145
 3027SOL     OW 9766   2.300   0.392   5.223
 3027SOL    HW1 9767   2.382   0.336   5.232
 3027SOL    HW2 9768   2.219   0.334   5.227
 3028SOL     OW 9769   3.465   0.447   4.461
 3028SOL    HW1 9770   3.391   0.493   4.411
 3028SOL    HW2 9771   3.516   0.515   4.514
 3029SOL     OW 9772   2.093   1.713   4.207
 3029SOL    HW1 9773   2.127   1.790   4.261
 3029SOL    HW2 9774   2.137   1.713   4.117
 3030SOL     OW 9775   2.989   1.341   5.414
 3030SOL    HW1 9776   3.036   1.341   5.502
 3030SOL    HW2 9777   2.941   1.254   5.403
 3031SOL     OW 9778   2.092   1.434   4.262
 3031SOL    HW1 9779   2.066   1.530   4.262
 3031SOL    HW2 9780   2.021   1.380   4.307
 3032SOL     OW 9781   2.102   1.091   4.610
 3032SOL    HW1 9782   2.116   1.007   4.662
 3032SOL    HW2 9783   2.047   1.155   4.665
 3033SOL     OW 9784   2.482   1.786   5.163
 3033SOL    HW1 9785   2.390   1.769   5.198
 3033SOL    HW2 9786   2.510   1.878   5.189
 3034SOL     OW 9787   2.468   0.964   3.847
 3034SOL    HW1 9788   2.475   1.048   3.793
 3034SOL    HW2 9789   2.514   0.977   3.935
 3035SOL     OW 9790   3.456   0.114   5.204
 3035SOL    HW1 9791   3.438   0.181   5.132
 3035SOL    HW2 9792   3.453   0.160   5.293
 3036SOL     OW 9793   1.984   0.643   4.287
 3036SOL    HW1 9794   1.939   0.555   4.304
 3036SOL    HW2 9795   1.983   0.697   4.371
 3037SOL     OW 9796   3.704   1.767   4.083
 3037SOL    HW1 9797   3.758   1.738   4.163
 3037SOL    HW2 9798   3.734   1.857   4.054
 3038SOL     OW 9799   1.889   1.596   3.841
 3038SOL    HW1 9800   1.870   1.500   3.862
 3038SOL    HW2 9801   1.856   1.654   3.916
 3039SOL     OW 9802   3.551   0.922   4.336
 3039SOL    HW1 9803   3.646   0.893   4.344
 3039SOL    HW2 9804   3.543   0.987   4.261
 3040SOL     OW 9805   3.503   1.108   4.156
 3040SOL    HW1 9806   3.589   1.110   4.104
 3040SOL    HW2 9807   3.517   1.155   4.244
 3041SOL     OW 9808   1.975   0.737   5.321
 3041SOL    HW1 9809   2.063   0.724   5.366
 3041SOL    HW2 9810   1.962   0.834   5.299
 3042SOL     OW 9811   2.475   1.365   4.450
 3042SOL    HW1 9812   2.426   1.278   4.459
 3042SOL    HW2 9813   2.452   1.408   4.363
 3043SOL     OW 9814   3.155   1.228   5.147
 3043SOL    HW1 9815   3.192   1.155   5.089
 3043SOL    HW2 9816   3.207   1.233   5.232
 3044SOL     OW 9817   2.671   0.004   4.226
 3044SOL    HW1 9818   2.711   0.095   4.217
 3044SOL    HW2 9819   2.571   0.012   4.232
 3045SOL     OW 9820   2.059   0.976   4.988
 3045SOL    HW1 9821   2.148   0.931   4.974
 3045SOL    HW2 9822   1.986   0.911   4.969
 3046SOL     OW 9823   3.387   0.999   3.914
 3046SOL    HW1 9824   3.324   0.923   3.927
 3046SOL    HW2 9825   3.435   1.017   4.000
 3047SOL     OW 9826   3.049   1.792   5.340
 3047SOL    HW1 9827   3.073   1.852   5.264
 3047SOL    HW2 9828   3.056   1.697   5.310
 3048SOL     OW 9829   2.179   0.251   5.525
 3048SOL    HW1 9830   2.250   0.322   5.531
 3048SOL    HW2 9831   2.091   0.290   5.553
 3049SOL     OW 9832   3.328   1.417   4.677
 3049SOL    HW1 9833   3.269   1.423   4.757
 3049SOL    HW2 9834   3.313   1.329   4.631
 3050SOL     OW 9835   3.529   1.714   4.296
 3050SOL    HW1 9836   3.488   1.691   4.208
 3050SOL    HW2 9837   3.511   1.640   4.361
 3051SOL     OW 9838   2.460   0.729   3.994
 3051SOL    HW1 9839   2.484   0.798   3.926
 3051SOL    HW2 9840   2.382   0.762   4.048
 3052SOL     OW 9841   3.143   0.345   4.668
 3052SOL    HW1 9842   3.057   0.295   4.655
 3052SOL    HW2 9843   3.205   0.291   4.724
 3053SOL     OW 9844   3.438   1.662   4.031
 3053SOL    HW1 9845   3.527   1.708   4.034
 3053SOL    HW2 9846   3.417   1.638   3.936
 3054SOL     OW 9847   2.669   0.605   5.189
 3054SOL    HW1 9848   2.622   0.602   5.278
 3054SOL    HW2 9849   2.618   0.550   5.123
 3055SOL     OW 9850   3.256   0.469   5.398
 3055SOL    HW1 9851   3.236   0.512   5.486
 3055SOL    HW2 9852   3.334   0.407   5.407
 3056SOL     OW 9853   2.835   0.890   5.296
 3056SOL    HW1 9854   2.881   0.806   5.267
 3056SOL    HW2 9855   2.779   0.924   5.221
 3057SOL     OW 9856   2.853   0.410   4.966
 3057SOL    HW1 9857   2.776   0.444   5.020
 3057SOL    HW2 9858   2.819   0.359   4.887
 3058SOL     OW 9859   2.903   0.701   4.153
 3058SOL    HW1 9860   2.929   0.697   4.249
 3058SOL    HW2 9861   2.818   0.650   4.139
 3059SOL     OW 9862   1.938   0.811   4.513
 3059SOL    HW1 9863   2.037   0.799   4.522
 3059SOL    HW2 9864   1.914   0.906   4.534
 3060SOL     OW 9865   1.992   1.821   5.295
 3060SOL    HW1 9866   1.982   1.806   5.394
 3060SOL    HW2 9867   1.906   1.857   5.259
 3061SOL     OW 9868   2.727   0.348   3.919
 3061SOL    HW1 9869   2.786   0.411   3.870
 3061SOL    HW2 9870   2.746   0.254   3.890
 3062SOL     OW 9871   3.581   0.585   5.555
 3062SOL    HW1 9872   3.555   0.674   5.519
 3062SOL    HW2 9873   3.579   0.517   5.482
 3063SOL     OW 9874   3.224   1.144   4.269
 3063SOL    HW1 9875   3.307   1.115   4.221
 3063SOL    HW2 9876   3.175   1.211   4.213
 3064SOL     OW 9877   2.412   0.196   4.609
 3064SOL    HW1 9878   2.407   0.191   4.709
 3064SOL    HW2 9879   2.414   0.292   4.580
 3065SOL     OW 9880   2.870   1.456   4.201
 3065SOL    HW1 9881   2.824   1.528   4.149
 3065SOL    HW2 9882   2.866   1.476   4.299
 3066SOL     OW 9883   3.657   1.066   4.597
 3066SOL    HW1 9884   3.595   1.051   4.521
 3066SOL    HW2 9885   3.605   1.077   4.682
 3067SOL     OW 9886   3.089   1.550   5.230
 3067SOL    HW1 9887   3.095   1.473   5.294
 3067SOL    HW2 9888   3.037   1.524   5.150
 3068SOL     OW 9889   2.183   0.943   3.966
 3068SOL    HW1 9890   2.265   0.982   3.924
 3068SOL    HW2 9891   2.156   0.861   3.917
 3069SOL     OW 9892   3.320   0.735   4.452
 3069SOL    HW1 9893   3.315   0.670   4.527
 3069SOL    HW2 9894   3.400   0.794   4.465
 3070SOL     OW 9895   2.323   1.266   5.451
 3070SOL    HW1 9896   2.273   1.267   5.365
 3070SOL    HW2 9897   2.260   1.248   5.527
 3071SOL     OW 9898   2.973   1.776   3.961
 3071SOL    HW1 9899   2.913   1.714   4.011
 3071SOL    HW2 9900   3.004   1.732   3.876
 3072SOL     OW 9901   2.064   0.285   5.222
 3072SOL    HW1 9902   1.984   0.345   5.209
 3072SOL    HW2 9903   2.054   0.236   5.308
 3073SOL     OW 9904   3.494   1.377   3.805
 3073SOL    HW1 9905   3.462   1.471   3.795
 3073SOL    HW2 9906   3.418   1.314   3.793
 3074SOL     OW 9907   2.326   1.743   4.047
 3074SOL    HW1 9908   2.359   1.782   4.133
 3074SOL    HW2 9909   2.402   1.736   3.982
 3075SOL     OW 9910   3.262   0.107   4.150
 3075SOL    HW1 9911   3.238   0.070   4.060
 3075SOL    HW2 9912   3.361   0.123   4.154
 3076SOL     OW 9913   2.111   1.785   4.965
 3076SOL    HW1 9914   2.168   1.720   5.015
 3076SOL    HW2 9915   2.095   1.752   4.872
 3077SOL     OW 9916   2.802   1.698   4.628
 3077SOL    HW1 9917   2.882   1.641   4.649
 3077SOL    HW2 9918   2.753   1.658   4.551
 3078SOL     OW 9919   2.244   0.700   4.204
 3078SOL    HW1 9920   2.289   0.610   4.201
 3078SOL    HW2 9921   2.150   0.689   4.237
 3079SOL     OW 9922   3.409   0.222   5.453
 3079SOL    HW1 9923   3.404   0.259   5.545
 3079SOL    HW2 9924   3.337   0.153   5.441
 3080SOL     OW 9925   2.476   0.122   3.841
 3080SOL    HW1 9926   2.574   0.100   3.848
 3080SOL    HW2 9927   2.445   0.105   3.748
 3081SOL     OW 9928   2.643   0.264   5.473
 3081SOL    HW1 9929   2.710   0.203   5.516
 3081SOL    HW2 9930   2.570   0.283   5.538
 3082SOL     OW 9931   2.750   1.514   4.919
 3082SOL    HW1 9932   2.727   1.489   4.825
 3082SOL    HW2 9933   2.811   1.445   4.958
 3083SOL     OW 9934   3.213   0.590   5.157
 3083SOL    HW1 9935   3.241   0.547   5.242
 3083SOL    HW2 9936   3.238   0.686   5.158
 3084SOL     OW 9937   2.665   1.402   4.648
 3084SOL    HW1 9938   2.755   1.416   4.606
 3084SOL    HW2 9939   2.594   1.404   4.577
 3085SOL     OW 9940   2.784   0.503   4.623
 3085SOL    HW1 9941   2.759   0.494   4.527
 3085SOL    HW2 9942   2.832   0.421   4.654
 3086SOL     OW 9943   2.401   0.064   4.236
 3086SOL    HW1 9944   2.320   0.065   4.294
 3086SOL    HW2 9945   2.404   0.147   4.181
 3087SOL     OW 9946   3.296   1.188   3.765
 3087SOL    HW1 9947   3.328   1.112   3.822
 3087SOL    HW2 9948   3.204   1.215   3.795
 3088SOL     OW 9949   2.159   0.035   3.895
 3088SOL    HW1 9950   2.208   0.119   3.874
 3088SOL    HW2 9951   2.221  -0.030   3.940
 3089SOL     OW 9952   2.797   0.236   4.204
 3089SOL    HW1 9953   2.749   0.277   4.126
 3089SOL    HW2 9954   2.896   0.234   4.185
 3090SOL     OW 9955   2.938   0.683   5.188
 3090SOL    HW1 9956   2.858   0.622   5.191
 3090SOL    HW2 9957   3.019   0.630   5.164
 3091SOL     OW 9958   3.089   1.570   4.517
 3091SOL    HW1 9959   3.110   1.644   4.452
 3091SOL    HW2 9960   3.157   1.570   4.590
 3092SOL     OW 9961   2.321   1.152   4.465
 3092SOL    HW1 9962   2.250   1.125   4.530
 3092SOL    HW2 9963   2.295   1.124   4.372
 3093SOL     OW 9964   2.894   0.549   3.740
 3093SOL    HW1 9965   2.853   0.631   3.701
 3093SOL    HW2 9966   2.958   0.575   3.813
 3094SOL     OW 9967   1.940   0.556   5.110
 3094SOL    HW1 9968   2.032   0.555   5.069
 3094SOL    HW2 9969   1.934   0.630   5.177
 3095SOL     OW 9970   2.423   0.222   4.871
 3095SOL    HW1 9971   2.461   0.138   4.908
 3095SOL    HW2 9972   2.335   0.241   4.915
 3096SOL     OW 9973   2.728   0.454   4.366
 3096SOL    HW1 9974   2.696   0.526   4.304
 3096SOL    HW2 9975   2.752   0.373   4.313
 3097SOL     OW 9976   2.879   0.039   4.477
 3097SOL    HW1 9977   2.807   0.044   4.408
 3097SOL    HW2 9978   2.855  -0.030   4.546
 3098SOL     OW 9979   3.291   1.173   4.591
 3098SOL    HW1 9980   3.236   1.089   4.584
 3098SOL    HW2 9981   3.317   1.202   4.499
 3099SOL     OW 9982   3.328   0.590   4.716
 3099SOL    HW1 9983   3.298   0.495   4.723
 3099SOL    HW2 9984   3.401   0.606   4.782
 3100SOL     OW 9985   3.719   0.833   4.101
 3100SOL    HW1 9986   3.761   0.769   4.165
 3100SOL    HW2 9987   3.681   0.782   4.023
 3101SOL     OW 9988   2.350   1.385   3.898
 3101SOL    HW1 9989   2.263   1.370   3.945
 3101SOL    HW2 9990   2.333   1.411   3.803
 3102SOL     OW 9991   3.526   1.280   4.381
 3102SOL    HW1 9992   3.625   1.288   4.395
 3102SOL    HW2 9993   3.481   1.364   4.412
 3103SOL     OW 9994   3.252   0.575   3.802
 3103SOL    HW1 9995   3.198   0.554   3.883
 3103SOL    HW2 9996   3.343   0.534   3.811
 3104SOL     OW 9997   2.389   0.256   4.052
 3104SOL    HW1 9998   2.416   0.197   3.977
 3104SOL    HW2 9999   2.389   0.351   4.021
 3105SOL     OW10000   3.616   1.223   5.312
 3105SOL    HW110001   3.707   1.184   5.299
 3105SOL    HW210002   3.624   1.319   5.336
 3106SOL     OW10003   2.926   1.347   5.064
 3106SOL    HW110004   2.846   1.324   5.119
 3106SOL    HW210005   3.009   1.321   5.113
 3107SOL     OW10006   3.454   1.629   5.349
 3107SOL    HW110007   3.481   1.663   5.259
 3107SOL    HW210008   3.533   1.591   5.395
 3108SOL     OW10009   2.973   1.195   4.824
 3108SOL    HW110010   2.933   1.239   4.905
 3108SOL    HW210011   2.932   1.232   4.741
 3109SOL     OW10012   3.500   1.099   4.803
 3109SOL    HW110013   3.505   1.180   4.862
 3109SOL    HW210014   3.414   1.101   4.752
 3110SOL     OW10015   2.777   0.089   5.126
 3110SOL    HW110016   2.802   0.069   5.031
 3110SOL    HW210017   2.849   0.145   5.168
 3111SOL     OW10018   2.842   1.116   5.443
 3111SOL    HW110019   2.743   1.122   5.453
 3111SOL    HW210020   2.865   1.036   5.387
 3112SOL     OW10021   2.567   1.050   4.092
 3112SOL    HW110022   2.553   1.057   4.191
 3112SOL    HW210023   2.651   0.999   4.074
 3113SOL     OW10024   2.272   0.813   4.975
 3113SOL    HW110025   2.358   0.825   5.025
 3113SOL    HW210026   2.230   0.726   5.002
 3114SOL     OW10027   3.136   0.386   4.986
 3114SOL    HW110028   3.157   0.460   5.050
 3114SOL    HW210029   3.047   0.403   4.943
 3115SOL     OW10030   1.926   1.564   5.055
 3115SOL    HW110031   1.880   1.646   5.021
 3115SOL    HW210032   2.024   1.583   5.064
 3116SOL     OW10033   2.229   1.100   4.225
 3116SOL    HW110034   2.222   1.183   4.169
 3116SOL    HW210035   2.233   1.020   4.165
 3117SOL     OW10036   2.428   0.537   4.589
 3117SOL    HW110037   2.440   0.603   4.515
 3117SOL    HW210038   2.474   0.571   4.672
 3118SOL     OW10039   3.114   1.348   4.112
 3118SOL    HW110040   3.164   1.425   4.152
 3118SOL    HW210041   3.019   1.350   4.144
 3119SOL     OW10042   3.134   1.445   4.866
 3119SOL    HW110043   3.181   1.458   4.953
 3119SOL    HW210044   3.068   1.371   4.875
 3120SOL     OW10045   3.444   0.639   4.196
 3120SOL    HW110046   3.413   0.700   4.269
 3120SOL    HW210047   3.494   0.691   4.127
 3121SOL     OW10048   2.216   1.510   5.053
 3121SOL    HW110049   2.195   1.466   4.966
 3121SOL    HW210050   2.313   1.536   5.056
 3122SOL     OW10051   2.264   0.751   5.322
 3122SOL    HW110052   2.332   0.806   5.275
 3122SOL    HW210053   2.304   0.663   5.349
 3123SOL     OW10054   3.449   0.779   5.394
 3123SOL    HW110055   3.357   0.817   5.389
 3123SOL    HW210056   3.509   0.826   5.329
 3124SOL     OW10057   2.875   0.105   5.494
 3124SOL    HW110058   2.881   0.190   5.442
 3124SOL    HW210059   2.907   0.029   5.437
 3125SOL     OW10060   2.366   0.050   5.464
 3125SOL    HW110061   2.324  -0.007   5.394
 3125SOL    HW210062   2.300   0.119   5.496
 3126SOL     OW10063   2.435   0.870   4.753
 3126SOL    HW110064   2.479   0.959   4.744
 3126SOL    HW210065   2.372   0.870   4.830
 3127SOL     OW10066   3.222   0.862   4.769
 3127SOL    HW110067   3.147   0.862   4.703
 3127SOL    HW210068   3.259   0.770   4.778
 3128SOL     OW10069   3.071   0.525   3.999
 3128SOL    HW110070   3.084   0.441   4.053
 3128SOL    HW210071   3.042   0.599   4.059
 3129SOL     OW10072   2.169   0.213   4.955
 3129SOL    HW110073   2.146   0.250   5.045
 3129SOL    HW210074   2.139   0.118   4.949
 3130SOL     OW10075   1.899   1.310   5.006
 3130SOL    HW110076   1.952   1.261   5.074
 3130SOL    HW210077   1.921   1.408   5.011
 3131SOL     OW10078   2.594   0.634   4.788
 3131SOL    HW110079   2.653   0.608   4.712
 3131SOL    HW210080   2.566   0.730   4.777
 3132SOL     OW10081   3.590   0.935   5.578
 3132SOL    HW110082   3.544   0.928   5.489
 3132SOL    HW210083   3.528   0.979   5.644
 3133SOL     OW10084   2.169   0.063   4.342
 3133SOL    HW110085   2.158   0.157   4.375
 3133SOL    HW210086   2.164   0.000   4.419
 3134SOL     OW10087   3.484   0.367   4.098
 3134SOL    HW110088   3.486   0.291   4.162
 3134SOL    HW210089   3.436   0.444   4.138
 3135SOL     OW10090   2.885   0.766   4.690
 3135SOL    HW110091   2.900   0.787   4.786
 3135SOL    HW210092   2.855   0.671   4.681
 3136SOL     OW10093   2.842   1.573   5.424
 3136SOL    HW110094   2.822   1.617   5.336
 3136SOL    HW210095   2.881   1.482   5.408
 3137SOL     OW10096   3.721   1.518   5.329
 3137SOL    HW110097   3.735   1.545   5.234
 3137SOL    HW210098   3.804   1.540   5.382
 3138SOL     OW10099   2.212   0.898   5.528
 3138SOL    HW110100   2.288   0.942   5.576
 3138SOL    HW210101   2.247   0.851   5.446
 3139SOL     OW10102   3.402   0.274   3.849
 3139SOL    HW110103   3.341   0.199   3.872
 3139SOL    HW210104   3.424   0.326   3.932
 3140SOL     OW10105   3.165   0.838   3.766
 3140SOL    HW110106   3.199   0.745   3.781
 3140SOL    HW210107   3.183   0.865   3.671
 3141SOL     OW10108   2.930   1.333   4.573
 3141SOL    HW110109   2.937   1.249   4.518
 3141SOL    HW210110   2.992   1.402   4.537
 3142SOL     OW10111   2.181   0.810   4.673
 3142SOL    HW110112   2.274   0.846   4.678
 3142SOL    HW210113   2.175   0.725   4.725
 3143SOL     OW10114   2.201   0.509   4.730
 3143SOL    HW110115   2.149   0.426   4.713
 3143SOL    HW210116   2.278   0.514   4.666
 3144SOL     OW10117   3.000   0.380   5.402
 3144SOL    HW110118   2.955   0.443   5.466
 3144SOL    HW210119   3.093   0.411   5.385
 3145SOL     OW10120   3.022   0.207   5.201
 3145SOL    HW110121   3.022   0.271   5.278
 3145SOL    HW210122   3.050   0.255   5.118
 3146SOL     OW10123   1.870   1.326   3.924
 3146SOL    HW110124   1.777   1.347   3.893
 3146SOL    HW210125   1.880   1.227   3.937
 3147SOL     OW10126   1.950   1.801   4.651
 3147SOL    HW110127   1.908   1.715   4.624
 3147SOL    HW210128   2.044   1.804   4.617
 3148SOL     OW10129   2.366   1.568   4.634
 3148SOL    HW110130   2.432   1.642   4.643
 3148SOL    HW210131   2.410   1.489   4.592
 3149SOL     OW10132   2.864   0.796   4.962
 3149SOL    HW110133   2.905   0.764   5.048
 3149SOL    HW210134   2.768   0.769   4.959
 3150SOL     OW10135   1.902   0.544   4.838
 3150SOL    HW110136   1.987   0.511   4.797
 3150SOL    HW210137   1.915   0.559   4.936
 3151SOL     OW10138   2.051   0.520   5.446
 3151SOL    HW110139   2.110   0.480   5.376
 3151SOL    HW210140   1.993   0.591   5.405
 3152SOL     OW10141   3.231   0.950   5.384
 3152SOL    HW110142   3.270   1.039   5.404
 3152SOL    HW210143   3.241   0.930   5.287
 3153SOL     OW10144   2.677   0.572   4.049
 3153SOL    HW110145   2.684   0.483   4.003
 3153SOL    HW210146   2.583   0.606   4.041
 3154SOL     OW10147   3.519   0.604   4.930
 3154SOL    HW110148   3.481   0.535   4.992
 3154SOL    HW210149   3.601   0.568   4.886
 3155SOL     OW10150   2.114   1.564   5.468
 3155SOL    HW110151   2.084   1.621   5.544
 3155SOL    HW210152   2.107   1.467   5.494
 3156SOL     OW10153   2.533   0.464   4.993
 3156SOL    HW110154   2.499   0.375   4.963
 3156SOL    HW210155   2.559   0.518   4.913
 3157SOL     OW10156   2.792   1.678   5.189
 3157SOL    HW110157   2.768   1.660   5.094
 3157SOL    HW210158   2.822   1.772   5.199
 3158SOL     OW10159   2.335   0.500   3.915
 3158SOL    HW110160   2.396   0.580   3.919
 3158SOL    HW210161   2.240   0.531   3.922
 3159SOL     OW10162   2.021   1.137   5.190
 3159SOL    HW110163   2.043   1.076   5.266
 3159SOL    HW210164   2.031   1.088   5.104
 3160SOL     OW10165   3.209   1.059   4.958
 3160SOL    HW110166   3.233   0.996   4.884
 3160SOL    HW210167   3.119   1.099   4.940
 3161SOL     OW10168   3.164   0.855   4.033
 3161SOL    HW110169   3.078   0.824   4.075
 3161SOL    HW210170   3.160   0.841   3.934
 3162SOL     OW10171   3.621   1.747   4.878
 3162SOL    HW110172   3.682   1.777   4.805
 3162SOL    HW210173   3.583   1.658   4.856
 3163SOL     OW10174   3.114   1.731   4.852
 3163SOL    HW110175   3.198   1.736   4.798
 3163SOL    HW210176   3.091   1.635   4.870
 3164SOL     OW10177   1.945   1.258   4.746
 3164SOL    HW110178   1.940   1.257   4.846
 3164SOL    HW210179   1.862   1.217   4.708
 3165SOL     OW10180   2.550   1.662   5.440
 3165SOL    HW110181   2.494   1.743   5.449
 3165SOL    HW210182   2.602   1.666   5.354
 3166SOL     OW10183   3.588   0.135   4.247
 3166SOL    HW110184   3.661   0.118   4.180
 3166SOL    HW210185   3.557   0.048   4.285
 3167SOL     OW10186   3.250   1.573   4.201
 3167SOL    HW110187   3.317   1.585   4.127
 3167SOL    HW210188   3.210   1.662   4.224
 3168SOL     OW10189   1.992   1.794   5.575
 3168SOL    HW110190   1.951   1.720   5.628
 3168SOL    HW210191   2.056   1.845   5.633
 3169SOL     OW10192   3.142   0.927   4.396
 3169SOL    HW110193   3.202   0.846   4.398
 3169SOL    HW210194   3.182   0.996   4.336
 3170SOL     OW10195   2.692   1.273   5.146
 3170SOL    HW110196   2.687   1.306   5.241
 3170SOL    HW210197   2.606   1.292   5.100
 3171SOL     OW10198   2.534   1.616   3.878
 3171SOL    HW110199   2.543   1.626   3.779
 3171SOL    HW210200   2.494   1.527   3.899
 3172SOL     OW10201   3.512   1.720   5.118
 3172SOL    HW110202   3.565   1.730   5.034
 3172SOL    HW210203   3.485   1.810   5.152
 3173SOL     OW10204   3.703   0.175   4.687
 3173SOL    HW110205   3.742   0.090   4.651
 3173SOL    HW210206   3.605   0.177   4.668
 3174SOL     OW10207   2.125   0.326   4.444
 3174SOL    HW110208   2.046   0.377   4.410
 3174SOL    HW210209   2.116   0.311   4.542
 3175SOL     OW10210   3.056   1.612   3.755
 3175SOL    HW110211   3.062   1.519   3.792
 3175SOL    HW210212   2.997   1.612   3.675
 3176SOL     OW10213   2.684   1.002   5.096
 3176SOL    HW110214   2.724   1.001   5.004
 3176SOL    HW210215   2.694   1.094   5.136
 3177SOL     OW10216   2.778   0.910   4.015
 3177SOL    HW110217   2.841   0.948   3.947
 3177SOL    HW210218   2.818   0.827   4.054
 3178SOL     OW10219   3.366   1.607   3.768
 3178SOL    HW110220   3.274   1.644   3.775
 3178SOL    HW210221   3.404   1.627   3.678
 3179SOL     OW10222   2.234   1.288   5.214
 3179SOL    HW110223   2.221   1.381   5.180
 3179SOL    HW210224   2.150   1.236   5.201
 3180SOL     OW10225   3.476   1.292   5.013
 3180SOL    HW110226   3.536   1.295   5.093
 3180SOL    HW210227   3.401   1.356   5.026
 3181SOL     OW10228   2.901   1.098   4.420
 3181SOL    HW110229   2.831   1.051   4.474
 3181SOL    HW210230   2.960   1.030   4.377
 3182SOL     OW10231   2.876   0.236   4.695
 3182SOL    HW110232   2.868   0.200   4.602
 3182SOL    HW210233   2.874   0.160   4.760
 3183SOL     OW10234   2.452   1.487   4.215
 3183SOL    HW110235   2.494   1.429   4.145
 3183SOL    HW210236   2.408   1.566   4.171
 3184SOL     OW10237   3.571   0.385   5.105
 3184SOL    HW110238   3.644   0.454   5.109
 3184SOL    HW210239   3.599   0.310   5.046
 3185SOL     OW10240   2.117   1.348   4.014
 3185SOL    HW110241   2.021   1.349   3.987
 3185SOL    HW210242   2.129   1.401   4.098
 3186SOL     OW10243   1.967   1.013   5.450
 3186SOL    HW110244   1.890   0.980   5.504
 3186SOL    HW210245   2.052   0.983   5.492
 3187SOL     OW10246   2.534   0.203   5.213
 3187SOL    HW110247   2.624   0.187   5.173
 3187SOL    HW210248   2.542   0.208   5.312
 3188SOL     OW10249   1.937   0.345   3.757
 3188SOL    HW110250   1.845   0.317   3.728
 3188SOL    HW210251   1.968   0.422   3.701
 3189SOL     OW10252   3.302   0.856   5.122
 3189SOL    HW110253   3.245   0.908   5.059
 3189SOL    HW210254   3.398   0.868   5.098
 3190SOL     OW10255   1.934   0.166   4.042
 3190SOL    HW110256   1.917   0.249   3.988
 3190SOL    HW210257   2.024   0.129   4.020
 3191SOL     OW10258   3.045   1.335   3.843
 3191SOL    HW110259   2.946   1.324   3.845
 3191SOL    HW210260   3.079   1.350   3.936
 3192SOL     OW10261   2.475   0.842   5.155
 3192SOL    HW110262   2.531   0.923   5.138
 3192SOL    HW210263   2.534   0.762   5.158
 3193SOL     OW10264   2.578   0.565   5.432
 3193SOL    HW110265   2.597   0.630   5.506
 3193SOL    HW210266   2.638   0.485   5.441
 3194SOL     OW10267   3.312   1.220   5.357
 3194SOL    HW110268   3.303   1.210   5.456
 3194SOL    HW210269   3.408   1.213   5.331
 3195SOL     OW10270   2.252   1.741   5.284
 3195SOL    HW110271   2.161   1.782   5.282
 3195SOL    HW210272   2.245   1.647   5.316
 3196SOL     OW10273   3.536   0.883   4.978
 3196SOL    HW110274   3.509   0.794   4.941
 3196SOL    HW210275   3.537   0.951   4.905
 3197SOL     OW10276   3.087   0.325   4.173
 3197SOL    HW110277   3.152   0.251   4.162
 3197SOL    HW210278   3.107   0.375   4.257
 3198SOL     OW10279   2.456   0.745   4.376
 3198SOL    HW110280   2.506   0.830   4.357
 3198SOL    HW210281   2.368   0.747   4.328
 3199SOL     OW10282   3.639   0.342   5.366
 3199SOL    HW110283   3.622   0.373   5.272
 3199SOL    HW210284   3.555   0.305   5.404
 3200SOL     OW10285   3.592   0.934   5.241
 3200SOL    HW110286   3.630   1.025   5.256
 3200SOL    HW210287   3.584   0.917   5.142
 3201SOL     OW10288   2.721   1.374   3.740
 3201SOL    HW110289   2.675   1.389   3.828
 3201SOL    HW210290   2.765   1.459   3.710
 3202SOL     OW10291   2.523   1.790   4.677
 3202SOL    HW110292   2.477   1.878   4.664
 3202SOL    HW210293   2.622   1.802   4.670
 3203SOL     OW10294   2.721   0.956   4.585
 3203SOL    HW110295   2.775   0.887   4.633
 3203SOL    HW210296   2.689   1.025   4.651
 3204SOL     OW10297   2.945   0.984   3.811
 3204SOL    HW110298   2.922   1.037   3.729
 3204SOL    HW210299   3.026   0.928   3.792
 3205SOL     OW10300   3.723   1.569   4.575
 3205SOL    HW110301   3.652   1.557   4.505
 3205SOL    HW210302   3.724   1.490   4.635
 3206SOL     OW10303   2.083   1.314   5.568
 3206SOL    HW110304   2.018   1.241   5.547
 3206SOL    HW210305   2.087   1.328   5.666
 3207SOL     OW10306   1.941   1.240   4.377
 3207SOL    HW110307   1.940   1.193   4.465
 3207SOL    HW210308   2.023   1.212   4.326
 3208SOL     OW10309   2.534   1.391   5.348
 3208SOL    HW110310   2.456   1.341   5.386
 3208SOL    HW210311   2.531   1.486   5.379
 3209SOL     OW10312   3.686   0.192   4.951
 3209SOL    HW110313   3.682   0.102   4.995
 3209SOL    HW210314   3.689   0.181   4.852
 3210SOL     OW10315   2.290   0.424   4.244
 3210SOL    HW110316   2.320   0.352   4.182
 3210SOL    HW210317   2.251   0.384   4.327
 3211SOL     OW10318   3.567   1.487   4.828
 3211SOL    HW110319   3.474   1.462   4.801
 3211SOL    HW210320   3.593   1.437   4.910
 3212SOL     OW10321   2.179   0.547   5.004
 3212SOL    HW110322   2.217   0.488   5.076
 3212SOL    HW210323   2.219   0.521   4.916
 3213SOL     OW10324   2.674   1.586   4.411
 3213SOL    HW110325   2.706   1.596   4.317
 3213SOL    HW210326   2.595   1.524   4.413
 3214SOL     OW10327   3.286   0.214   4.836
 3214SOL    HW110328   3.338   0.149   4.891
 3214SOL    HW210329   3.237   0.277   4.897
 3215SOL     OW10330   2.863   0.034   4.878
 3215SOL    HW110331   2.800  -0.038   4.847
 3215SOL    HW210332   2.956  -0.002   4.878
 3216SOL     OW10333   2.632   1.330   4.025
 3216SOL    HW110334   2.586   1.243   4.042
 3216SOL    HW210335   2.723   1.327   4.066
 3217SOL     OW10336   2.480   1.567   5.008
 3217SOL    HW110337   2.475   1.649   5.065
 3217SOL    HW210338   2.569   1.564   4.963
 3218SOL     OW10339   3.214   0.052   3.892
 3218SOL    HW110340   3.249   0.011   3.808
 3218SOL    HW210341   3.124   0.014   3.912
 3219SOL     OW10342   3.162   0.453   4.415
 3219SOL    HW110343   3.103   0.533   4.419
 3219SOL    HW210344   3.177   0.418   4.508
 3220SOL     OW10345   3.455   0.221   4.606
 3220SOL    HW110346   3.371   0.220   4.660
 3220SOL    HW210347   3.457   0.304   4.550
 3221SOL     OW10348   1.901   1.077   4.024
 3221SOL    HW110349   2.000   1.066   4.015
 3221SOL    HW210350   1.861   0.991   4.056
 3222SOL     OW10351   2.737   1.646   4.061
 3222SOL    HW110352   2.660   1.611   4.007
 3222SOL    HW210353   2.705   1.717   4.123
 3223SOL     OW10354   2.092   0.628   5.699
 3223SOL    HW110355   1.999   0.626   5.736
 3223SOL    HW210356   2.093   0.589   5.607
 3224SOL     OW10357   2.087   0.275   6.582
 3224SOL    HW110358   2.122   0.258   6.674
 3224SOL    HW210359   1.999   0.230   6.570
 3225SOL     OW10360   1.881   0.368   6.233
 3225SOL    HW110361   1.799   0.411   6.272
 3225SOL    HW210362   1.853   0.295   6.170
 3226SOL     OW10363   2.431   1.275   6.751
 3226SOL    HW110364   2.338   1.268   6.714
 3226SOL    HW210365   2.442   1.364   6.795
 3227SOL     OW10366   3.417   1.511   6.289
 3227SOL    HW110367   3.360   1.495   6.370
 3227SOL    HW210368   3.358   1.521   6.209
 3228SOL     OW10369   2.997   0.703   6.303
 3228SOL    HW110370   3.054   0.781   6.278
 3228SOL    HW210371   2.937   0.729   6.379
 3229SOL     OW10372   3.617   0.607   5.817
 3229SOL    HW110373   3.605   0.594   5.718
 3229SOL    HW210374   3.587   0.526   5.866
 3230SOL     OW10375   2.630   1.144   6.609
 3230SOL    HW110376   2.552   1.161   6.669
 3230SOL    HW210377   2.664   1.231   6.573
 3231SOL     OW10378   2.712   0.798   7.409
 3231SOL    HW110379   2.708   0.874   7.474
 3231SOL    HW210380   2.734   0.834   7.318
 3232SOL     OW10381   2.547   1.012   6.251
 3232SOL    HW110382   2.616   0.996   6.321
 3232SOL    HW210383   2.474   1.069   6.289
 3233SOL     OW10384   2.548   1.161   7.389
 3233SOL    HW110385   2.608   1.240   7.403
 3233SOL    HW210386   2.462   1.192   7.348
 3234SOL     OW10387   2.197   1.435   6.647
 3234SOL    HW110388   2.119   1.404   6.594
 3234SOL    HW210389   2.255   1.493   6.590
 3235SOL     OW10390   3.322   1.505   6.925
 3235SOL    HW110391   3.346   1.599   6.951
 3235SOL    HW210392   3.306   1.451   7.007
 3236SOL     OW10393   2.300   0.392   7.085
 3236SOL    HW110394   2.382   0.336   7.094
 3236SOL    HW210395   2.219   0.334   7.089
 3237SOL     OW10396   3.465   0.447   6.323
 3237SOL    HW110397   3.391   0.493   6.273
 3237SOL    HW210398   3.516   0.515   6.376
 3238SOL     OW10399   2.093   1.713   6.069
 3238SOL    HW110400   2.127   1.790   6.123
 3238SOL    HW210401   2.137   1.713   5.979
 3239SOL     OW10402   2.989   1.341   7.276
 3239SOL    HW110403   3.036   1.341   7.364
 3239SOL    HW210404   2.941   1.254   7.265
 3240SOL     OW10405   2.092   1.434   6.124
 3240SOL    HW110406   2.066   1.530   6.124
 3240SOL    HW210407   2.021   1.380   6.169
 3241SOL     OW10408   2.102   1.091   6.472
 3241SOL    HW110409   2.116   1.007   6.524
 3241SOL    HW210410   2.047   1.155   6.527
 3242SOL     OW10411   2.482   1.786   7.025
 3242SOL    HW110412   2.390   1.769   7.060
 3242SOL    HW210413   2.510   1.878   7.051
 3243SOL     OW10414   2.468   0.964   5.709
 3243SOL    HW110415   2.475   1.048   5.655
 3243SOL    HW210416   2.514   0.977   5.797
 3244SOL     OW10417   3.456   0.114   7.066
 3244SOL    HW110418   3.438   0.181   6.994
 3244SOL    HW210419   3.453   0.160   7.155
 3245SOL     OW10420   1.984   0.643   6.149
 3245SOL    HW110421   1.939   0.555   6.166
 3245SOL    HW210422   1.983   0.697   6.233
 3246SOL     OW10423   3.704   1.767   5.945
 3246SOL    HW110424   3.758   1.738   6.025
 3246SOL    HW210425   3.734   1.857   5.916
 3247SOL     OW10426   1.889   1.596   5.703
 3247SOL    HW110427   1.870   1.500   5.724
 3247SOL    HW210428   1.856   1.654   5.778
 3248SOL     OW10429   3.551   0.922   6.198
 3248SOL    HW110430   3.646   0.893   6.206
 3248SOL    HW210431   3.543   0.987   6.123
 3249SOL     OW10432   3.503   1.108   6.018
 3249SOL    HW110433   3.589   1.110   5.966
 3249SOL    HW210434   3.517   1.155   6.106
 3250SOL     OW10435   1.975   0.737   7.183
 3250SOL    HW110436   2.063   0.724   7.228
 3250SOL    HW210437   1.962   0.834   7.161
 3251SOL     OW10438   2.475   1.365   6.312
 3251SOL    HW110439   2.426   1.278   6.321
 3251SOL    HW210440   2.452   1.408   6.225
 3252SOL     OW10441   3.155   1.228   7.009
 3252SOL    HW110442   3.192   1.155   6.951
 3252SOL    HW210443   3.207   1.233   7.094
 3253SOL     OW10444   2.671   0.004   6.088
 3253SOL    HW110445   2.711   0.095   6.079
 3253SOL    HW210446   2.571   0.012   6.094
 3254SOL     OW10447   2.059   0.976   6.850
 3254SOL    HW110448   2.148   0.931   6.836
 3254SOL    HW210449   1.986   0.911   6.831
 3255SOL     OW10450   3.387   0.999   5.776
 3255SOL    HW110451   3.324   0.923   5.789
 3255SOL    HW210452   3.435   1.017   5.862
 3256SOL     OW10453   3.049   1.792   7.202
 3256SOL    HW110454   3.073   1.852   7.126
 3256SOL    HW210455   3.056   1.697   7.172
 3257SOL     OW10456   2.179   0.251   7.387
 3257SOL    HW110457   2.250   0.322   7.393
 3257SOL    HW210458   2.091   0.290   7.415
 3258SOL     OW10459   3.328   1.417   6.539
 3258SOL    HW110460   3.269   1.423   6.619
 3258SOL    HW210461   3.313   1.329   6.493
 3259SOL     OW10462   3.529   1.714   6.158
 3259SOL    HW110463   3.488   1.691   6.070
 3259SOL    HW210464   3.511   1.640   6.223
 3260SOL     OW10465   2.460   0.729   5.856
 3260SOL    HW110466   2.484   0.798   5.788
 3260SOL    HW210467   2.382   0.762   5.910
 3261SOL     OW10468   3.143   0.345   6.530
 3261SOL    HW110469   3.057   0.295   6.517
 3261SOL    HW210470   3.205   0.291   6.586
 3262SOL     OW10471   3.438   1.662   5.893
 3262SOL    HW110472   3.527   1.708   5.896
 3262SOL    HW210473   3.417   1.638   5.798
 3263SOL     OW10474   2.669   0.605   7.051
 3263SOL    HW110475   2.622   0.602   7.140
 3263SOL    HW210476   2.618   0.550   6.985
 3264SOL     OW10477   3.256   0.469   7.260
 3264SOL    HW110478   3.236   0.512   7.348
 3264SOL    HW210479   3.334   0.407   7.269
 3265SOL     OW10480   2.835   0.890   7.158
 3265SOL    HW110481   2.881   0.806   7.129
 3265SOL    HW210482   2.779   0.924   7.083
 3266SOL     OW10483   2.853   0.410   6.828
 3266SOL    HW110484   2.776   0.444   6.882
 3266SOL    HW210485   2.819   0.359   6.749
 3267SOL     OW10486   2.903   0.701   6.015
 3267SOL    HW110487   2.929   0.697   6.111
 3267SOL    HW210488   2.818   0.650   6.001
 3268SOL     OW10489   1.938   0.811   6.375
 3268SOL    HW110490   2.037   0.799   6.384
 3268SOL    HW210491   1.914   0.906   6.396
 3269SOL     OW10492   1.992   1.821   7.157
 3269SOL    HW110493   1.982   1.806   7.256
 3269SOL    HW210494   1.906   1.857   7.121
 3270SOL     OW10495   2.727   0.348   5.781
 3270SOL    HW110496   2.786   0.411   5.732
 3270SOL    HW210497   2.746   0.254   5.752
 3271SOL     OW10498   3.581   0.585   7.417
 3271SOL    HW110499   3.555   0.674   7.381
 3271SOL    HW210500   3.579   0.517   7.344
 3272SOL     OW10501   3.224   1.144   6.131
 3272SOL    HW110502   3.307   1.115   6.083
 3272SOL    HW210503   3.175   1.211   6.075
 3273SOL     OW10504   2.412   0.196   6.471
 3273SOL    HW110505   2.407   0.191   6.571
 3273SOL    HW210506   2.414   0.292   6.442
 3274SOL     OW10507   2.870   1.456   6.063
 3274SOL    HW110508   2.824   1.528   6.011
 3274SOL    HW210509   2.866   1.476   6.161
 3275SOL     OW10510   2.213   1.801   6.439
 3275SOL    HW110511   2.263   1.715   6.445
 3275SOL    HW210512   2.278   1.878   6.436
 3276SOL     OW10513   3.657   1.066   6.459
 3276SOL    HW110514   3.595   1.051   6.383
 3276SOL    HW210515   3.605   1.077   6.544
 3277SOL     OW10516   3.089   1.550   7.092
 3277SOL    HW110517   3.095   1.473   7.156
 3277SOL    HW210518   3.037   1.524   7.012
 3278SOL     OW10519   2.183   0.943   5.828
 3278SOL    HW110520   2.265   0.982   5.786
 3278SOL    HW210521   2.156   0.861   5.779
 3279SOL     OW10522   3.320   0.735   6.314
 3279SOL    HW110523   3.315   0.670   6.389
 3279SOL    HW210524   3.400   0.794   6.327
 3280SOL     OW10525   2.323   1.266   7.313
 3280SOL    HW110526   2.273   1.267   7.227
 3280SOL    HW210527   2.260   1.248   7.389
 3281SOL     OW10528   2.973   1.776   5.823
 3281SOL    HW110529   2.913   1.714   5.873
 3281SOL    HW210530   3.004   1.732   5.738
 3282SOL     OW10531   2.064   0.285   7.084
 3282SOL    HW110532   1.984   0.345   7.071
 3282SOL    HW210533   2.054   0.236   7.170
 3283SOL     OW10534   3.494   1.377   5.667
 3283SOL    HW110535   3.462   1.471   5.657
 3283SOL    HW210536   3.418   1.314   5.655
 3284SOL     OW10537   2.326   1.743   5.909
 3284SOL    HW110538   2.359   1.782   5.995
 3284SOL    HW210539   2.402   1.736   5.844
 3285SOL     OW10540   3.262   0.107   6.012
 3285SOL    HW110541   3.238   0.070   5.922
 3285SOL    HW210542   3.361   0.123   6.016
 3286SOL     OW10543   2.111   1.785   6.827
 3286SOL    HW110544   2.168   1.720   6.877
 3286SOL    HW210545   2.095   1.752   6.734
 3287SOL     OW10546   2.802   1.698   6.490
 3287SOL    HW110547   2.882   1.641   6.511
 3287SOL    HW210548   2.753   1.658   6.413
 3288SOL     OW10549   2.244   0.700   6.066
 3288SOL    HW110550   2.289   0.610   6.063
 3288SOL    HW210551   2.150   0.689   6.099
 3289SOL     OW10552   3.409   0.222   7.315
 3289SOL    HW110553   3.404   0.259   7.407
 3289SOL    HW210554   3.337   0.153   7.303
 3290SOL     OW10555   2.476   0.122   5.703
 3290SOL    HW110556   2.574   0.100   5.710
 3290SOL    HW210557   2.445   0.105   5.610
 3291SOL     OW10558   2.643   0.264   7.335
 3291SOL    HW110559   2.710   0.203   7.378
 3291SOL    HW210560   2.570   0.283   7.400
 3292SOL     OW10561   2.750   1.514   6.781
 3292SOL    HW110562   2.727   1.489   6.687
 3292SOL    HW210563   2.811   1.445   6.820
 3293SOL     OW10564   3.213   0.590   7.019
 3293SOL    HW110565   3.241   0.547   7.104
 3293SOL    HW210566   3.238   0.686   7.020
 3294SOL     OW10567   2.665   1.402   6.510
 3294SOL    HW110568   2.755   1.416   6.468
 3294SOL    HW210569   2.594   1.404   6.439
 3295SOL     OW10570   2.784   0.503   6.485
 3295SOL    HW110571   2.759   0.494   6.389
 3295SOL    HW210572   2.832   0.421   6.516
 3296SOL     OW10573   2.401   0.064   6.098
 3296SOL    HW110574   2.320   0.065   6.156
 3296SOL    HW210575   2.404   0.147   6.043
 3297SOL     OW10576   3.296   1.188   5.627
 3297SOL    HW110577   3.328   1.112   5.684
 3297SOL    HW210578   3.204   1.215   5.657
 3298SOL     OW10579   2.159   0.035   5.757
 3298SOL    HW110580   2.208   0.119   5.736
 3298SOL    HW210581   2.221  -0.030   5.802
 3299SOL     OW10582   2.797   0.236   6.066
 3299SOL    HW110583   2.749   0.277   5.988
 3299SOL    HW210584   2.896   0.234   6.047
 3300SOL     OW10585   2.938   0.683   7.050
 3300SOL    HW110586   2.858   0.622   7.053
 3300SOL    HW210587   3.019   0.630   7.026
 3301SOL     OW10588   3.089   1.570   6.379
 3301SOL    HW110589   3.110   1.644   6.314
 3301SOL    HW210590   3.157   1.570   6.452
 3302SOL     OW10591   2.321   1.152   6.327
 3302SOL    HW110592   2.250   1.125   6.392
 3302SOL    HW210593   2.295   1.124   6.234
 3303SOL     OW10594   3.133   1.797   6.177
 3303SOL    HW110595   3.177   1.861   6.113
 3303SOL    HW210596   3.083   1.849   6.247
 3304SOL     OW10597   2.894   0.549   5.602
 3304SOL    HW110598   2.853   0.631   5.563
 3304SOL    HW210599   2.958   0.575   5.675
 3305SOL     OW10600   1.940   0.556   6.972
 3305SOL    HW110601   2.032   0.555   6.931
 3305SOL    HW210602   1.934   0.630   7.039
 3306SOL     OW10603   2.423   0.222   6.733
 3306SOL    HW110604   2.461   0.138   6.770
 3306SOL    HW210605   2.335   0.241   6.777
 3307SOL     OW10606   2.728   0.454   6.228
 3307SOL    HW110607   2.696   0.526   6.166
 3307SOL    HW210608   2.752   0.373   6.175
 3308SOL     OW10609   2.879   0.039   6.339
 3308SOL    HW110610   2.807   0.044   6.270
 3308SOL    HW210611   2.855  -0.030   6.408
 3309SOL     OW10612   3.291   1.173   6.453
 3309SOL    HW110613   3.236   1.089   6.446
 3309SOL    HW210614   3.317   1.202   6.361
 3310SOL     OW10615   3.328   0.590   6.578
 3310SOL    HW110616   3.298   0.495   6.585
 3310SOL    HW210617   3.401   0.606   6.644
 3311SOL     OW10618   3.719   0.833   5.963
 3311SOL    HW110619   3.761   0.769   6.027
 3311SOL    HW210620   3.681   0.782   5.885
 3312SOL     OW10621   2.350   1.385   5.760
 3312SOL    HW110622   2.263   1.370   5.807
 3312SOL    HW210623   2.333   1.411   5.665
 3313SOL     OW10624   3.526   1.280   6.243
 3313SOL    HW110625   3.625   1.288   6.257
 3313SOL    HW210626   3.481   1.364   6.274
 3314SOL     OW10627   3.252   0.575   5.664
 3314SOL    HW110628   3.198   0.554   5.745
 3314SOL    HW210629   3.343   0.534   5.673
 3315SOL     OW10630   2.389   0.256   5.914
 3315SOL    HW110631   2.416   0.197   5.839
 3315SOL    HW210632   2.389   0.351   5.883
 3316SOL     OW10633   3.616   1.223   7.174
 3316SOL    HW110634   3.707   1.184   7.161
 3316SOL    HW210635   3.624   1.319   7.198
 3317SOL     OW10636   2.926   1.347   6.926
 3317SOL    HW110637   2.846   1.324   6.981
 3317SOL    HW210638   3.009   1.321   6.975
 3318SOL     OW10639   3.454   1.629   7.211
 3318SOL    HW110640   3.481   1.663   7.121
 3318SOL    HW210641   3.533   1.591   7.257
 3319SOL     OW10642   2.973   1.195   6.686
 3319SOL    HW110643   2.933   1.239   6.767
 3319SOL    HW210644   2.932   1.232   6.603
 3320SOL     OW10645   3.500   1.099   6.665
 3320SOL    HW110646   3.505   1.180   6.724
 3320SOL    HW210647   3.414   1.101   6.614
 3321SOL     OW10648   2.777   0.089   6.988
 3321SOL    HW110649   2.802   0.069   6.893
 3321SOL    HW210650   2.849   0.145   7.030
 3322SOL     OW10651   2.842   1.116   7.305
 3322SOL    HW110652   2.743   1.122   7.315
 3322SOL    HW210653   2.865   1.036   7.249
 3323SOL     OW10654   2.567   1.050   5.954
 3323SOL    HW110655   2.553   1.057   6.053
 3323SOL    HW210656   2.651   0.999   5.936
 3324SOL     OW10657   2.272   0.813   6.837
 3324SOL    HW110658   2.358   0.825   6.887
 3324SOL    HW210659   2.230   0.726   6.864
 3325SOL     OW10660   3.136   0.386   6.848
 3325SOL    HW110661   3.157   0.460   6.912
 3325SOL    HW210662   3.047   0.403   6.805
 3326SOL     OW10663   1.926   1.564   6.917
 3326SOL    HW110664   1.880   1.646   6.883
 3326SOL    HW210665   2.024   1.583   6.926
 3327SOL     OW10666   2.229   1.100   6.087
 3327SOL    HW110667   2.222   1.183   6.031
 3327SOL    HW210668   2.233   1.020   6.027
 3328SOL     OW10669   2.428   0.537   6.451
 3328SOL    HW110670   2.440   0.603   6.377
 3328SOL    HW210671   2.474   0.571   6.534
 3329SOL     OW10672   3.114   1.348   5.974
 3329SOL    HW110673   3.164   1.425   6.014
 3329SOL    HW210674   3.019   1.350   6.006
 3330SOL     OW10675   3.134   1.445   6.728
 3330SOL    HW110676   3.181   1.458   6.815
 3330SOL    HW210677   3.068   1.371   6.737
 3331SOL     OW10678   3.444   0.639   6.058
 3331SOL    HW110679   3.413   0.700   6.131
 3331SOL    HW210680   3.494   0.691   5.989
 3332SOL     OW10681   2.216   1.510   6.915
 3332SOL    HW110682   2.195   1.466   6.828
 3332SOL    HW210683   2.313   1.536   6.918
 3333SOL     OW10684   2.264   0.751   7.184
 3333SOL    HW110685   2.332   0.806   7.137
 3333SOL    HW210686   2.304   0.663   7.211
 3334SOL     OW10687   3.449   0.779   7.256
 3334SOL    HW110688   3.357   0.817   7.251
 3334SOL    HW210689   3.509   0.826   7.191
 3335SOL     OW10690   2.875   0.105   7.356
 3335SOL    HW110691   2.881   0.190   7.304
 3335SOL    HW210692   2.907   0.029   7.299
 3336SOL     OW10693   2.366   0.050   7.326
 3336SOL    HW110694   2.324  -0.007   7.256
 3336SOL    HW210695   2.300   0.119   7.358
 3337SOL     OW10696   2.435   0.870   6.615
 3337SOL    HW110697   2.479   0.959   6.606
 3337SOL    HW210698   2.372   0.870   6.692
 3338SOL     OW10699   3.222   0.862   6.631
 3338SOL    HW110700   3.147   0.862   6.565
 3338SOL    HW210701   3.259   0.770   6.640
 3339SOL     OW10702   3.071   0.525   5.861
 3339SOL    HW110703   3.084   0.441   5.915
 3339SOL    HW210704   3.042   0.599   5.921
 3340SOL     OW10705   2.169   0.213   6.817
 3340SOL    HW110706   2.146   0.250   6.907
 3340SOL    HW210707   2.139   0.118   6.811
 3341SOL     OW10708   1.899   1.310   6.868
 3341SOL    HW110709   1.952   1.261   6.936
 3341SOL    HW210710   1.921   1.408   6.873
 3342SOL     OW10711   2.594   0.634   6.650
 3342SOL    HW110712   2.653   0.608   6.574
 3342SOL    HW210713   2.566   0.730   6.639
 3343SOL     OW10714   3.590   0.935   7.440
 3343SOL    HW110715   3.544   0.928   7.351
 3343SOL    HW210716   3.528   0.979   7.506
 3344SOL     OW10717   2.169   0.063   6.204
 3344SOL    HW110718   2.158   0.157   6.237
 3344SOL    HW210719   2.164   0.000   6.281
 3345SOL     OW10720   3.484   0.367   5.960
 3345SOL    HW110721   3.486   0.291   6.024
 3345SOL    HW210722   3.436   0.444   6.000
 3346SOL     OW10723   2.885   0.766   6.552
 3346SOL    HW110724   2.900   0.787   6.648
 3346SOL    HW210725   2.855   0.671   6.543
 3347SOL     OW10726   2.842   1.573   7.286
 3347SOL    HW110727   2.822   1.617   7.198
 3347SOL    HW210728   2.881   1.482   7.270
 3348SOL     OW10729   3.721   1.518   7.191
 3348SOL    HW110730   3.735   1.545   7.096
 3348SOL    HW210731   3.804   1.540   7.244
 3349SOL     OW10732   2.212   0.898   7.390
 3349SOL    HW110733   2.288   0.942   7.438
 3349SOL    HW210734   2.247   0.851   7.308
 3350SOL     OW10735   3.402   0.274   5.711
 3350SOL    HW110736   3.341   0.199   5.734
 3350SOL    HW210737   3.424   0.326   5.794
 3351SOL     OW10738   3.165   0.838   5.628
 3351SOL    HW110739   3.199   0.745   5.643
 3351SOL    HW210740   3.183   0.865   5.533
 3352SOL     OW10741   2.930   1.333   6.435
 3352SOL    HW110742   2.937   1.249   6.380
 3352SOL    HW210743   2.992   1.402   6.399
 3353SOL     OW10744   2.181   0.810   6.535
 3353SOL    HW110745   2.274   0.846   6.540
 3353SOL    HW210746   2.175   0.725   6.587
 3354SOL     OW10747   2.201   0.509   6.592
 3354SOL    HW110748   2.149   0.426   6.575
 3354SOL    HW210749   2.278   0.514   6.528
 3355SOL     OW10750   3.000   0.380   7.264
 3355SOL    HW110751   2.955   0.443   7.328
 3355SOL    HW210752   3.093   0.411   7.247
 3356SOL     OW10753   3.022   0.207   7.063
 3356SOL    HW110754   3.022   0.271   7.140
 3356SOL    HW210755   3.050   0.255   6.980
 3357SOL     OW10756   1.870   1.326   5.786
 3357SOL    HW110757   1.777   1.347   5.755
 3357SOL    HW210758   1.880   1.227   5.799
 3358SOL     OW10759   1.950   1.801   6.513
 3358SOL    HW110760   1.908   1.715   6.486
 3358SOL    HW210761   2.044   1.804   6.479
 3359SOL     OW10762   2.366   1.568   6.496
 3359SOL    HW110763   2.432   1.642   6.505
 3359SOL    HW210764   2.410   1.489   6.454
 3360SOL     OW10765   2.864   0.796   6.824
 3360SOL    HW110766   2.905   0.764   6.910
 3360SOL    HW210767   2.768   0.769   6.821
 3361SOL     OW10768   1.902   0.544   6.700
 3361SOL    HW110769   1.987   0.511   6.659
 3361SOL    HW210770   1.915   0.559   6.798
 3362SOL     OW10771   2.051   0.520   7.308
 3362SOL    HW110772   2.110   0.480   7.238
 3362SOL    HW210773   1.993   0.591   7.267
 3363SOL     OW10774   3.231   0.950   7.246
 3363SOL    HW110775   3.270   1.039   7.266
 3363SOL    HW210776   3.241   0.930   7.149
 3364SOL     OW10777   2.677   0.572   5.911
 3364SOL    HW110778   2.684   0.483   5.865
 3364SOL    HW210779   2.583   0.606   5.903
 3365SOL     OW10780   3.519   0.604   6.792
 3365SOL    HW110781   3.481   0.535   6.854
 3365SOL    HW210782   3.601   0.568   6.748
 3366SOL     OW10783   2.114   1.564   7.330
 3366SOL    HW110784   2.084   1.621   7.406
 3366SOL    HW210785   2.107   1.467   7.356
 3367SOL     OW10786   2.533   0.464   6.855
 3367SOL    HW110787   2.499   0.375   6.825
 3367SOL    HW210788   2.559   0.518   6.775
 3368SOL     OW10789   2.792   1.678   7.051
 3368SOL    HW110790   2.768   1.660   6.956
 3368SOL    HW210791   2.822   1.772   7.061
 3369SOL     OW10792   2.335   0.500   5.777
 3369SOL    HW110793   2.396   0.580   5.781
 3369SOL    HW210794   2.240   0.531   5.784
 3370SOL     OW10795   2.021   1.137   7.052
 3370SOL    HW110796   2.043   1.076   7.128
 3370SOL    HW210797   2.031   1.088   6.966
 3371SOL     OW10798   3.209   1.059   6.820
 3371SOL    HW110799   3.233   0.996   6.746
 3371SOL    HW210800   3.119   1.099   6.802
 3372SOL     OW10801   3.164   0.855   5.895
 3372SOL    HW110802   3.078   0.824   5.937
 3372SOL    HW210803   3.160   0.841   5.796
 3373SOL     OW10804   3.621   1.747   6.740
 3373SOL    HW110805   3.682   1.777   6.667
 3373SOL    HW210806   3.583   1.658   6.718
 3374SOL     OW10807   3.114   1.731   6.714
 3374SOL    HW110808   3.198   1.736   6.660
 3374SOL    HW210809   3.091   1.635   6.732
 3375SOL     OW10810   1.945   1.258   6.608
 3375SOL    HW110811   1.940   1.257   6.708
 3375SOL    HW210812   1.862   1.217   6.570
 3376SOL     OW10813   2.550   1.662   7.302
 3376SOL    HW110814   2.494   1.743   7.311
 3376SOL    HW210815   2.602   1.666   7.216
 3377SOL     OW10816   3.588   0.135   6.109
 3377SOL    HW110817   3.661   0.118   6.042
 3377SOL    HW210818   3.557   0.048   6.147
 3378SOL     OW10819   3.250   1.573   6.063
 3378SOL    HW110820   3.317   1.585   5.989
 3378SOL    HW210821   3.210   1.662   6.086
 3379SOL     OW10822   1.992   1.794   7.437
 3379SOL    HW110823   1.951   1.720   7.490
 3379SOL    HW210824   2.056   1.845   7.495
 3380SOL     OW10825   3.142   0.927   6.258
 3380SOL    HW110826   3.202   0.846   6.260
 3380SOL    HW210827   3.182   0.996   6.198
 3381SOL     OW10828   2.692   1.273   7.008
 3381SOL    HW110829   2.687   1.306   7.103
 3381SOL    HW210830   2.606   1.292   6.962
 3382SOL     OW10831   2.534   1.616   5.740
 3382SOL    HW110832   2.543   1.626   5.641
 3382SOL    HW210833   2.494   1.527   5.761
 3383SOL     OW10834   3.512   1.720   6.980
 3383SOL    HW110835   3.565   1.730   6.896
 3383SOL    HW210836   3.485   1.810   7.014
 3384SOL     OW10837   3.703   0.175   6.549
 3384SOL    HW110838   3.742   0.090   6.513
 3384SOL    HW210839   3.605   0.177   6.530
 3385SOL     OW10840   2.125   0.326   6.306
 3385SOL    HW110841   2.046   0.377   6.272
 3385SOL    HW210842   2.116   0.311   6.404
 3386SOL     OW10843   3.056   1.612   5.617
 3386SOL    HW110844   3.062   1.519   5.654
 3386SOL    HW210845   2.997   1.612   5.537
 3387SOL     OW10846   2.684   1.002   6.958
 3387SOL    HW110847   2.724   1.001   6.866
 3387SOL    HW210848   2.694   1.094   6.998
 3388SOL     OW10849   2.778   0.910   5.877
 3388SOL    HW110850   2.841   0.948   5.809
 3388SOL    HW210851   2.818   0.827   5.916
 3389SOL     OW10852   3.366   1.607   5.630
 3389SOL    HW110853   3.274   1.644   5.637
 3389SOL    HW210854   3.404   1.627   5.540
 3390SOL     OW10855   2.234   1.288   7.076
 3390SOL    HW110856   2.221   1.381   7.042
 3390SOL    HW210857   2.150   1.236   7.063
 3391SOL     OW10858   3.476   1.292   6.875
 3391SOL    HW110859   3.536   1.295   6.955
 3391SOL    HW210860   3.401   1.356   6.888
 3392SOL     OW10861   2.901   1.098   6.282
 3392SOL    HW110862   2.831   1.051   6.336
 3392SOL    HW210863   2.960   1.030   6.239
 3393SOL     OW10864   2.876   0.236   6.557
 3393SOL    HW110865   2.868   0.200   6.464
 3393SOL    HW210866   2.874   0.160   6.622
 3394SOL     OW10867   2.452   1.487   6.077
 3394SOL    HW110868   2.494   1.429   6.007
 3394SOL    HW210869   2.408   1.566   6.033
 3395SOL     OW10870   3.571   0.385   6.967
 3395SOL    HW110871   3.644   0.454   6.971
 3395SOL    HW210872   3.599   0.310   6.908
 3396SOL     OW10873   2.117   1.348   5.876
 3396SOL    HW110874   2.021   1.349   5.849
 3396SOL    HW210875   2.129   1.401   5.960
 3397SOL     OW10876   1.967   1.013   7.312
 3397SOL    HW110877   1.890   0.980   7.366
 3397SOL    HW210878   2.052   0.983   7.354
 3398SOL     OW10879   2.534   0.203   7.075
 3398SOL    HW110880   2.624   0.187   7.035
 3398SOL    HW210881   2.542   0.208   7.174
 3399SOL     OW10882   1.937   0.345   5.619
 3399SOL    HW110883   1.845   0.317   5.590
 3399SOL    HW210884   1.968   0.422   5.563
 3400SOL     OW10885   3.302   0.856   6.984
 3400SOL    HW110886   3.245   0.908   6.921
 3400SOL    HW210887   3.398   0.868   6.960
 3401SOL     OW10888   1.934   0.166   5.904
 3401SOL    HW110889   1.917   0.249   5.850
 3401SOL    HW210890   2.024   0.129   5.882
 3402SOL     OW10891   3.045   1.335   5.705
 3402SOL    HW110892   2.946   1.324   5.707
 3402SOL    HW210893   3.079   1.350   5.798
 3403SOL     OW10894   2.475   0.842   7.017
 3403SOL    HW110895   2.531   0.923   7.000
 3403SOL    HW210896   2.534   0.762   7.020
 3404SOL     OW10897   3.355   1.767   6.545
 3404SOL    HW110898   3.388   1.831   6.476
 3404SOL    HW210899   3.421   1.761   6.620
 3405SOL     OW10900   2.578   0.565   7.294
 3405SOL    HW110901   2.597   0.630   7.368
 3405SOL    HW210902   2.638   0.485   7.303
 3406SOL     OW10903   3.312   1.220   7.219
 3406SOL    HW110904   3.303   1.210   7.318
 3406SOL    HW210905   3.408   1.213   7.193
 3407SOL     OW10906   2.252   1.741   7.146
 3407SOL    HW110907   2.161   1.782   7.144
 3407SOL    HW210908   2.245   1.647   7.178
 3408SOL     OW10909   3.536   0.883   6.840
 3408SOL    HW110910   3.509   0.794   6.803
 3408SOL    HW210911   3.537   0.951   6.767
 3409SOL     OW10912   3.087   0.325   6.035
 3409SOL    HW110913   3.152   0.251   6.024
 3409SOL    HW210914   3.107   0.375   6.119
 3410SOL     OW10915   2.456   0.745   6.238
 3410SOL    HW110916   2.506   0.830   6.219
 3410SOL    HW210917   2.368   0.747   6.190
 3411SOL     OW10918   3.639   0.342   7.228
 3411SOL    HW110919   3.622   0.373   7.134
 3411SOL    HW210920   3.555   0.305   7.266
 3412SOL     OW10921   3.592   0.934   7.103
 3412SOL    HW110922   3.630   1.025   7.118
 3412SOL    HW210923   3.584   0.917   7.004
 3413SOL     OW10924   2.721   1.374   5.602
 3413SOL    HW110925   2.675   1.389   5.690
 3413SOL    HW210926   2.765   1.459   5.572
 3414SOL     OW10927   2.523   1.790   6.539
 3414SOL    HW110928   2.477   1.878   6.526
 3414SOL    HW210929   2.622   1.802   6.532
 3415SOL     OW10930   2.721   0.956   6.447
 3415SOL    HW110931   2.775   0.887   6.495
 3415SOL    HW210932   2.689   1.025   6.513
 3416SOL     OW10933   2.945   0.984   5.673
 3416SOL    HW110934   2.922   1.037   5.591
 3416SOL    HW210935   3.026   0.928   5.654
 3417SOL     OW10936   3.723   1.569   6.437
 3417SOL    HW110937   3.652   1.557   6.367
 3417SOL    HW210938   3.724   1.490   6.497
 3418SOL     OW10939   2.083   1.314   7.430
 3418SOL    HW110940   2.018   1.241   7.409
 3418SOL    HW210941   2.087   1.328   7.528
 3419SOL     OW10942   1.941   1.240   6.239
 3419SOL    HW110943   1.940   1.193   6.327
 3419SOL    HW210944   2.023   1.212   6.188
 3420SOL     OW10945   2.534   1.391   7.210
 3420SOL    HW110946   2.456   1.341   7.248
 3420SOL    HW210947   2.531   1.486   7.241
 3421SOL     OW10948   3.686   0.192   6.813
 3421SOL    HW110949   3.682   0.102   6.857
 3421SOL    HW210950   3.689   0.181   6.714
 3422SOL     OW10951   2.290   0.424   6.106
 3422SOL    HW110952   2.320   0.352   6.044
 3422SOL    HW210953   2.251   0.384   6.189
 3423SOL     OW10954   3.567   1.487   6.690
 3423SOL    HW110955   3.474   1.462   6.663
 3423SOL    HW210956   3.593   1.437   6.772
 3424SOL     OW10957   2.179   0.547   6.866
 3424SOL    HW110958   2.217   0.488   6.938
 3424SOL    HW210959   2.219   0.521   6.778
 3425SOL     OW10960   2.674   1.586   6.273
 3425SOL    HW110961   2.706   1.596   6.179
 3425SOL    HW210962   2.595   1.524   6.275
 3426SOL     OW10963   3.286   0.214   6.698
 3426SOL    HW110964   3.338   0.149   6.753
 3426SOL    HW210965   3.237   0.277   6.759
 3427SOL     OW10966   2.863   0.034   6.740
 3427SOL    HW110967   2.800  -0.038   6.709
 3427SOL    HW210968   2.956  -0.002   6.740
 3428SOL     OW10969   2.632   1.330   5.887
 3428SOL    HW110970   2.586   1.243   5.904
 3428SOL    HW210971   2.723   1.327   5.928
 3429SOL     OW10972   2.480   1.567   6.870
 3429SOL    HW110973   2.475   1.649   6.927
 3429SOL    HW210974   2.569   1.564   6.825
 3430SOL     OW10975   3.214   0.052   5.754
 3430SOL    HW110976   3.249   0.011   5.670
 3430SOL    HW210977   3.124   0.014   5.774
 3431SOL     OW10978   3.162   0.453   6.277
 3431SOL    HW110979   3.103   0.533   6.281
 3431SOL    HW210980   3.177   0.418   6.370
 3432SOL     OW10981   3.455   0.221   6.468
 3432SOL    HW110982   3.371   0.220   6.522
 3432SOL    HW210983   3.457   0.304   6.412
 3433SOL     OW10984   1.901   1.077   5.886
 3433SOL    HW110985   2.000   1.066   5.877
 3433SOL    HW210986   1.861   0.991   5.918
 3434SOL     OW10987   2.737   1.646   5.923
 3434SOL    HW110988   2.660   1.611   5.869
 3434SOL    HW210989   2.705   1.717   5.985
 3435SOL     OW10990   2.092   0.628   7.561
 3435SOL    HW110991   1.999   0.626   7.598
 3435SOL    HW210992   2.093   0.589   7.469
 3436SOL     OW10993   3.617   0.607   7.679
 3436SOL    HW110994   3.605   0.594   7.580
 3436SOL    HW210995   3.587   0.526   7.728
 3437SOL     OW10996   2.093   1.713   7.931
 3437SOL    HW110997   2.127   1.790   7.985
 3437SOL    HW210998   2.137   1.713   7.841
 3438SOL     OW10999   2.092   1.434   7.986
 3438SOL    HW111000   2.066   1.530   7.986
 3438SOL    HW211001   2.021   1.380   8.031
 3439SOL     OW11002   2.468   0.964   7.571
 3439SOL    HW111003   2.475   1.048   7.517
 3439SOL    HW211004   2.514   0.977   7.659
 3440SOL     OW11005   3.704   1.767   7.807
 3440SOL    HW111006   3.758   1.738   7.887
 3440SOL    HW211007   3.734   1.857   7.778
 3441SOL     OW11008   1.889   1.596   7.565
 3441SOL    HW111009   1.870   1.500   7.586
 3441SOL    HW211010   1.856   1.654   7.640
 3442SOL     OW11011   3.551   0.922   8.060
 3442SOL    HW111012   3.646   0.893   8.068
 3442SOL    HW211013   3.543   0.987   7.985
 3443SOL     OW11014   3.503   1.108   7.880
 3443SOL    HW111015   3.589   1.110   7.828
 3443SOL    HW211016   3.517   1.155   7.968
 3444SOL     OW11017   2.671   0.004   7.950
 3444SOL    HW111018   2.711   0.095   7.941
 3444SOL    HW211019   2.571   0.012   7.956
 3445SOL     OW11020   3.387   0.999   7.638
 3445SOL    HW111021   3.324   0.923   7.651
 3445SOL    HW211022   3.435   1.017   7.724
 3446SOL     OW11023   2.460   0.729   7.718
 3446SOL    HW111024   2.484   0.798   7.650
 3446SOL    HW211025   2.382   0.762   7.772
 3447SOL     OW11026   3.438   1.662   7.755
 3447SOL    HW111027   3.527   1.708   7.758
 3447SOL    HW211028   3.417   1.638   7.660
 3448SOL     OW11029   1.938   0.811   8.237
 3448SOL    HW111030   2.037   0.799   8.246
 3448SOL    HW211031   1.914   0.906   8.258
 3449SOL     OW11032   2.727   0.348   7.643
 3449SOL    HW111033   2.786   0.411   7.594
 3449SOL    HW211034   2.746   0.254   7.614
 3450SOL     OW11035   2.183   0.943   7.690
 3450SOL    HW111036   2.265   0.982   7.648
 3450SOL    HW211037   2.156   0.861   7.641
 3451SOL     OW11038   2.973   1.776   7.685
 3451SOL    HW111039   2.913   1.714   7.735
 3451SOL    HW211040   3.004   1.732   7.600
 3452SOL     OW11041   3.494   1.377   7.529
 3452SOL    HW111042   3.462   1.471   7.519
 3452SOL    HW211043   3.418   1.314   7.517
 3453SOL     OW11044   2.326   1.743   7.771
 3453SOL    HW111045   2.359   1.782   7.857
 3453SOL    HW211046   2.402   1.736   7.706
 3454SOL     OW11047   3.262   0.107   7.874
 3454SOL    HW111048   3.238   0.070   7.784
 3454SOL    HW211049   3.361   0.123   7.878
 3455SOL     OW11050   2.244   0.700   7.928
 3455SOL    HW111051   2.289   0.610   7.925
 3455SOL    HW211052   2.150   0.689   7.961
 3456SOL     OW11053   2.476   0.122   7.565
 3456SOL    HW111054   2.574   0.100   7.572
 3456SOL    HW211055   2.445   0.105   7.472
 3457SOL     OW11056   2.401   0.064   7.960
 3457SOL    HW111057   2.320   0.065   8.018
 3457SOL    HW211058   2.404   0.147   7.905
 3458SOL     OW11059   3.296   1.188   7.489
 3458SOL    HW111060   3.328   1.112   7.546
 3458SOL    HW211061   3.204   1.215   7.519
 3459SOL     OW11062   2.159   0.035   7.619
 3459SOL    HW111063   2.208   0.119   7.598
 3459SOL    HW211064   2.221  -0.030   7.664
 3460SOL     OW11065   2.797   0.236   7.928
 3460SOL    HW111066   2.749   0.277   7.850
 3460SOL    HW211067   2.896   0.234   7.909
 3461SOL     OW11068   2.321   1.152   8.189
 3461SOL    HW111069   2.250   1.125   8.254
 3461SOL    HW211070   2.295   1.124   8.096
 3462SOL     OW11071   3.133   1.797   8.039
 3462SOL    HW111072   3.177   1.861   7.975
 3462SOL    HW211073   3.083   1.849   8.109
 3463SOL     OW11074   2.894   0.549   7.464
 3463SOL    HW111075   2.853   0.631   7.425
 3463SOL    HW211076   2.958   0.575   7.537
 3464SOL     OW11077   3.719   0.833   7.825
 3464SOL    HW111078   3.761   0.769   7.889
 3464SOL    HW211079   3.681   0.782   7.747
 3465SOL     OW11080   2.350   1.385   7.622
 3465SOL    HW111081   2.263   1.370   7.669
 3465SOL    HW211082   2.333   1.411   7.527
 3466SOL     OW11083   3.252   0.575   7.526
 3466SOL    HW111084   3.198   0.554   7.607
 3466SOL    HW211085   3.343   0.534   7.535
 3467SOL     OW11086   2.389   0.256   7.776
 3467SOL    HW111087   2.416   0.197   7.701
 3467SOL    HW211088   2.389   0.351   7.745
 3468SOL     OW11089   2.567   1.050   7.816
 3468SOL    HW111090   2.553   1.057   7.915
 3468SOL    HW211091   2.651   0.999   7.798
 3469SOL     OW11092   2.229   1.100   7.949
 3469SOL    HW111093   2.222   1.183   7.893
 3469SOL    HW211094   2.233   1.020   7.889
 3470SOL     OW11095   3.114   1.348   7.836
 3470SOL    HW111096   3.164   1.425   7.876
 3470SOL    HW211097   3.019   1.350   7.868
 3471SOL     OW11098   3.444   0.639   7.920
 3471SOL    HW111099   3.413   0.700   7.993
 3471SOL    HW211100   3.494   0.691   7.851
 3472SOL     OW11101   3.071   0.525   7.723
 3472SOL    HW111102   3.084   0.441   7.777
 3472SOL    HW211103   3.042   0.599   7.783
 3473SOL     OW11104   3.484   0.367   7.822
 3473SOL    HW111105   3.486   0.291   7.886
 3473SOL    HW211106   3.436   0.444   7.862
 3474SOL     OW11107   3.402   0.274   7.573
 3474SOL    HW111108   3.341   0.199   7.596
 3474SOL    HW211109   3.424   0.326   7.656
 3475SOL     OW11110   3.165   0.838   7.490
 3475SOL    HW111111   3.199   0.745   7.505
 3475SOL    HW211112   3.183   0.865   7.395
 3476SOL     OW11113   1.870   1.326   7.648
 3476SOL    HW111114   1.777   1.347   7.617
 3476SOL    HW211115   1.880   1.227   7.661
 3477SOL     OW11116   2.677   0.572   7.773
 3477SOL    HW111117   2.684   0.483   7.727
 3477SOL    HW211118   2.583   0.606   7.765
 3478SOL     OW11119   2.335   0.500   7.639
 3478SOL    HW111120   2.396   0.580   7.643
 3478SOL    HW211121   2.240   0.531   7.646
 3479SOL     OW11122   3.164   0.855   7.757
 3479SOL    HW111123   3.078   0.824   7.799
 3479SOL    HW211124   3.160   0.841   7.658
 3480SOL     OW11125   3.588   0.135   7.971
 3480SOL    HW111126   3.661   0.118   7.904
 3480SOL    HW211127   3.557   0.048   8.009
 3481SOL     OW11128   3.250   1.573   7.925
 3481SOL    HW111129   3.317   1.585   7.851
 3481SOL    HW211130   3.210   1.662   7.948
 3482SOL     OW11131   2.534   1.616   7.602
 3482SOL    HW111132   2.543   1.626   7.503
 3482SOL    HW211133   2.494   1.527   7.623
 3483SOL     OW11134   3.056   1.612   7.479
 3483SOL    HW111135   3.062   1.519   7.516
 3483SOL    HW211136   2.997   1.612   7.399
 3484SOL     OW11137   2.778   0.910   7.739
 3484SOL    HW111138   2.841   0.948   7.671
 3484SOL    HW211139   2.818   0.827   7.778
 3485SOL     OW11140   3.366   1.607   7.492
 3485SOL    HW111141   3.274   1.644   7.499
 3485SOL    HW211142   3.404   1.627   7.402
 3486SOL     OW11143   2.452   1.487   7.939
 3486SOL    HW111144   2.494   1.429   7.869
 3486SOL    HW211145   2.408   1.566   7.895
 3487SOL     OW11146   2.117   1.348   7.738
 3487SOL    HW111147   2.021   1.349   7.711
 3487SOL    HW211148   2.129   1.401   7.822
 3488SOL     OW11149   1.937   0.345   7.481
 3488SOL    HW111150   1.845   0.317   7.452
 3488SOL    HW211151   1.968   0.422   7.425
 3489SOL     OW11152   1.934   0.166   7.766
 3489SOL    HW111153   1.917   0.249   7.712
 3489SOL    HW211154   2.024   0.129   7.744
 3490SOL     OW11155   3.045   1.335   7.567
 3490SOL    HW111156   2.946   1.324   7.569
 3490SOL    HW211157   3.079   1.350   7.660
 3491SOL     OW11158   3.087   0.325   7.897
 3491SOL    HW111159   3.152   0.251   7.886
 3491SOL    HW211160   3.107   0.375   7.981
 3492SOL     OW11161   2.456   0.745   8.100
 3492SOL    HW111162   2.506   0.830   8.081
 3492SOL    HW211163   2.368   0.747   8.052
 3493SOL     OW11164   2.721   1.374   7.464
 3493SOL    HW111165   2.675   1.389   7.552
 3493SOL    HW211166   2.765   1.459   7.434
 3494SOL     OW11167   2.945   0.984   7.535
 3494SOL    HW111168   2.922   1.037   7.453
 3494SOL    HW211169   3.026   0.928   7.516
 3495SOL     OW11170   2.290   0.424   7.968
 3495SOL    HW111171   2.320   0.352   7.906
 3495SOL    HW211172   2.251   0.384   8.051
 3496SOL     OW11173   2.632   1.330   7.749
 3496SOL    HW111174   2.586   1.243   7.766
 3496SOL    HW211175   2.723   1.327   7.790
 3497SOL     OW11176   3.214   0.052   7.616
 3497SOL    HW111177   3.249   0.011   7.532
 3497SOL    HW211178   3.124   0.014   7.636
 3498SOL     OW11179   1.901   1.077   7.748
 3498SOL    HW111180   2.000   1.066   7.739
 3498SOL    HW211181   1.861   0.991   7.780
 3499SOL     OW11182   2.737   1.646   7.785
 3499SOL    HW111183   2.660   1.611   7.731
 3499SOL    HW211184   2.705   1.717   7.847
 3500SOL     OW11185   2.092   2.490   0.113
 3500SOL    HW111186   1.999   2.488   0.150
 3500SOL    HW211187   2.093   2.451   0.021
 3501SOL     OW11188   2.087   2.137   0.996
 3501SOL    HW111189   2.122   2.120   1.088
 3501SOL    HW211190   1.999   2.092   0.984
 3502SOL     OW11191   1.881   2.230   0.647
 3502SOL    HW111192   1.799   2.273   0.686
 3502SOL    HW211193   1.853   2.157   0.584
 3503SOL     OW11194   2.431   3.137   1.165
 3503SOL    HW111195   2.338   3.130   1.128
 3503SOL    HW211196   2.442   3.226   1.209
 3504SOL     OW11197   3.417   3.373   0.703
 3504SOL    HW111198   3.360   3.357   0.784
 3504SOL    HW211199   3.358   3.383   0.623
 3505SOL     OW11200   2.997   2.565   0.717
 3505SOL    HW111201   3.054   2.643   0.692
 3505SOL    HW211202   2.937   2.591   0.793
 3506SOL     OW11203   3.617   2.469   0.231
 3506SOL    HW111204   3.605   2.456   0.132
 3506SOL    HW211205   3.587   2.388   0.280
 3507SOL     OW11206   2.630   3.006   1.023
 3507SOL    HW111207   2.552   3.023   1.083
 3507SOL    HW211208   2.664   3.093   0.987
 3508SOL     OW11209   2.548   3.023   1.803
 3508SOL    HW111210   2.608   3.102   1.817
 3508SOL    HW211211   2.462   3.054   1.762
 3509SOL     OW11212   2.197   3.297   1.061
 3509SOL    HW111213   2.119   3.266   1.008
 3509SOL    HW211214   2.255   3.355   1.004
 3510SOL     OW11215   3.322   3.367   1.339
 3510SOL    HW111216   3.346   3.461   1.365
 3510SOL    HW211217   3.306   3.313   1.421
 3511SOL     OW11218   2.300   2.254   1.499
 3511SOL    HW111219   2.382   2.198   1.508
 3511SOL    HW211220   2.219   2.196   1.503
 3512SOL     OW11221   3.465   2.309   0.737
 3512SOL    HW111222   3.391   2.355   0.687
 3512SOL    HW211223   3.516   2.377   0.790
 3513SOL     OW11224   2.093   3.575   0.483
 3513SOL    HW111225   2.127   3.652   0.537
 3513SOL    HW211226   2.137   3.575   0.393
 3514SOL     OW11227   2.989   3.203   1.690
 3514SOL    HW111228   3.036   3.203   1.778
 3514SOL    HW211229   2.941   3.116   1.679
 3515SOL     OW11230   2.092   3.296   0.538
 3515SOL    HW111231   2.066   3.392   0.538
 3515SOL    HW211232   2.021   3.242   0.583
 3516SOL     OW11233   2.102   2.953   0.886
 3516SOL    HW111234   2.116   2.869   0.938
 3516SOL    HW211235   2.047   3.017   0.941
 3517SOL     OW11236   2.482   3.648   1.439
 3517SOL    HW111237   2.390   3.631   1.474
 3517SOL    HW211238   2.510   3.740   1.465
 3518SOL     OW11239   2.468   2.826   0.123
 3518SOL    HW111240   2.475   2.910   0.069
 3518SOL    HW211241   2.514   2.839   0.211
 3519SOL     OW11242   3.456   1.976   1.480
 3519SOL    HW111243   3.438   2.043   1.408
 3519SOL    HW211244   3.453   2.022   1.569
 3520SOL     OW11245   1.984   2.505   0.563
 3520SOL    HW111246   1.939   2.417   0.580
 3520SOL    HW211247   1.983   2.559   0.647
 3521SOL     OW11248   3.704   3.629   0.359
 3521SOL    HW111249   3.758   3.600   0.439
 3521SOL    HW211250   3.734   3.719   0.330
 3522SOL     OW11251   1.889   3.458   0.117
 3522SOL    HW111252   1.870   3.362   0.138
 3522SOL    HW211253   1.856   3.516   0.192
 3523SOL     OW11254   3.551   2.784   0.612
 3523SOL    HW111255   3.646   2.755   0.620
 3523SOL    HW211256   3.543   2.849   0.537
 3524SOL     OW11257   3.503   2.970   0.432
 3524SOL    HW111258   3.589   2.972   0.380
 3524SOL    HW211259   3.517   3.017   0.520
 3525SOL     OW11260   1.975   2.599   1.597
 3525SOL    HW111261   2.063   2.586   1.642
 3525SOL    HW211262   1.962   2.696   1.575
 3526SOL     OW11263   2.475   3.227   0.726
 3526SOL    HW111264   2.426   3.140   0.735
 3526SOL    HW211265   2.452   3.270   0.639
 3527SOL     OW11266   3.155   3.090   1.423
 3527SOL    HW111267   3.192   3.017   1.365
 3527SOL    HW211268   3.207   3.095   1.508
 3528SOL     OW11269   2.671   1.866   0.502
 3528SOL    HW111270   2.711   1.957   0.493
 3528SOL    HW211271   2.571   1.874   0.508
 3529SOL     OW11272   2.059   2.838   1.264
 3529SOL    HW111273   2.148   2.793   1.250
 3529SOL    HW211274   1.986   2.773   1.245
 3530SOL     OW11275   3.387   2.861   0.190
 3530SOL    HW111276   3.324   2.785   0.203
 3530SOL    HW211277   3.435   2.879   0.276
 3531SOL     OW11278   3.049   3.654   1.616
 3531SOL    HW111279   3.073   3.714   1.540
 3531SOL    HW211280   3.056   3.559   1.586
 3532SOL     OW11281   2.179   2.113   1.801
 3532SOL    HW111282   2.250   2.184   1.807
 3532SOL    HW211283   2.091   2.152   1.829
 3533SOL     OW11284   3.328   3.279   0.953
 3533SOL    HW111285   3.269   3.285   1.033
 3533SOL    HW211286   3.313   3.191   0.907
 3534SOL     OW11287   3.529   3.576   0.572
 3534SOL    HW111288   3.488   3.553   0.484
 3534SOL    HW211289   3.511   3.502   0.637
 3535SOL     OW11290   3.143   2.207   0.944
 3535SOL    HW111291   3.057   2.157   0.931
 3535SOL    HW211292   3.205   2.153   1.000
 3536SOL     OW11293   3.438   3.524   0.307
 3536SOL    HW111294   3.527   3.570   0.310
 3536SOL    HW211295   3.417   3.500   0.212
 3537SOL     OW11296   3.256   2.331   1.674
 3537SOL    HW111297   3.236   2.374   1.762
 3537SOL    HW211298   3.334   2.269   1.683
 3538SOL     OW11299   2.853   2.272   1.242
 3538SOL    HW111300   2.776   2.306   1.296
 3538SOL    HW211301   2.819   2.221   1.163
 3539SOL     OW11302   1.938   2.673   0.789
 3539SOL    HW111303   2.037   2.661   0.798
 3539SOL    HW211304   1.914   2.768   0.810
 3540SOL     OW11305   1.992   3.683   1.571
 3540SOL    HW111306   1.982   3.668   1.670
 3540SOL    HW211307   1.906   3.719   1.535
 3541SOL     OW11308   2.727   2.210   0.195
 3541SOL    HW111309   2.786   2.273   0.146
 3541SOL    HW211310   2.746   2.116   0.166
 3542SOL     OW11311   3.581   2.447   1.831
 3542SOL    HW111312   3.555   2.536   1.795
 3542SOL    HW211313   3.579   2.379   1.758
 3543SOL     OW11314   3.224   3.006   0.545
 3543SOL    HW111315   3.307   2.977   0.497
 3543SOL    HW211316   3.175   3.073   0.489
 3544SOL     OW11317   2.412   2.058   0.885
 3544SOL    HW111318   2.407   2.053   0.985
 3544SOL    HW211319   2.414   2.154   0.856
 3545SOL     OW11320   2.870   3.318   0.477
 3545SOL    HW111321   2.824   3.390   0.425
 3545SOL    HW211322   2.866   3.338   0.575
 3546SOL     OW11323   2.213   3.663   0.853
 3546SOL    HW111324   2.263   3.577   0.859
 3546SOL    HW211325   2.278   3.740   0.850
 3547SOL     OW11326   3.657   2.928   0.873
 3547SOL    HW111327   3.595   2.913   0.797
 3547SOL    HW211328   3.605   2.939   0.958
 3548SOL     OW11329   3.089   3.412   1.506
 3548SOL    HW111330   3.095   3.335   1.570
 3548SOL    HW211331   3.037   3.386   1.426
 3549SOL     OW11332   2.183   2.805   0.242
 3549SOL    HW111333   2.265   2.844   0.200
 3549SOL    HW211334   2.156   2.723   0.193
 3550SOL     OW11335   3.320   2.597   0.728
 3550SOL    HW111336   3.315   2.532   0.803
 3550SOL    HW211337   3.400   2.656   0.741
 3551SOL     OW11338   2.323   3.128   1.727
 3551SOL    HW111339   2.273   3.129   1.641
 3551SOL    HW211340   2.260   3.110   1.803
 3552SOL     OW11341   2.973   3.638   0.237
 3552SOL    HW111342   2.913   3.576   0.287
 3552SOL    HW211343   3.004   3.594   0.152
 3553SOL     OW11344   2.064   2.147   1.498
 3553SOL    HW111345   1.984   2.207   1.485
 3553SOL    HW211346   2.054   2.098   1.584
 3554SOL     OW11347   3.494   3.239   0.081
 3554SOL    HW111348   3.462   3.333   0.071
 3554SOL    HW211349   3.418   3.176   0.069
 3555SOL     OW11350   2.326   3.605   0.323
 3555SOL    HW111351   2.359   3.644   0.409
 3555SOL    HW211352   2.402   3.598   0.258
 3556SOL     OW11353   3.262   1.969   0.426
 3556SOL    HW111354   3.238   1.932   0.336
 3556SOL    HW211355   3.361   1.985   0.430
 3557SOL     OW11356   2.111   3.647   1.241
 3557SOL    HW111357   2.168   3.582   1.291
 3557SOL    HW211358   2.095   3.614   1.148
 3558SOL     OW11359   2.802   3.560   0.904
 3558SOL    HW111360   2.882   3.503   0.925
 3558SOL    HW211361   2.753   3.520   0.827
 3559SOL     OW11362   2.244   2.562   0.480
 3559SOL    HW111363   2.289   2.472   0.477
 3559SOL    HW211364   2.150   2.551   0.513
 3560SOL     OW11365   3.409   2.084   1.729
 3560SOL    HW111366   3.404   2.121   1.821
 3560SOL    HW211367   3.337   2.015   1.717
 3561SOL     OW11368   2.476   1.984   0.117
 3561SOL    HW111369   2.574   1.962   0.124
 3561SOL    HW211370   2.445   1.967   0.024
 3562SOL     OW11371   2.643   2.126   1.749
 3562SOL    HW111372   2.710   2.065   1.792
 3562SOL    HW211373   2.570   2.145   1.814
 3563SOL     OW11374   2.750   3.376   1.195
 3563SOL    HW111375   2.727   3.351   1.101
 3563SOL    HW211376   2.811   3.307   1.234
 3564SOL     OW11377   3.213   2.452   1.433
 3564SOL    HW111378   3.241   2.409   1.518
 3564SOL    HW211379   3.238   2.548   1.434
 3565SOL     OW11380   2.665   3.264   0.924
 3565SOL    HW111381   2.755   3.278   0.882
 3565SOL    HW211382   2.594   3.266   0.853
 3566SOL     OW11383   2.784   2.365   0.899
 3566SOL    HW111384   2.759   2.356   0.803
 3566SOL    HW211385   2.832   2.283   0.930
 3567SOL     OW11386   2.401   1.926   0.512
 3567SOL    HW111387   2.320   1.927   0.570
 3567SOL    HW211388   2.404   2.009   0.457
 3568SOL     OW11389   3.296   3.050   0.041
 3568SOL    HW111390   3.328   2.974   0.098
 3568SOL    HW211391   3.204   3.077   0.071
 3569SOL     OW11392   2.159   1.897   0.171
 3569SOL    HW111393   2.208   1.981   0.150
 3569SOL    HW211394   2.221   1.832   0.216
 3570SOL     OW11395   2.797   2.098   0.480
 3570SOL    HW111396   2.749   2.139   0.402
 3570SOL    HW211397   2.896   2.096   0.461
 3571SOL     OW11398   2.938   2.545   1.464
 3571SOL    HW111399   2.858   2.484   1.467
 3571SOL    HW211400   3.019   2.492   1.440
 3572SOL     OW11401   3.089   3.432   0.793
 3572SOL    HW111402   3.110   3.506   0.728
 3572SOL    HW211403   3.157   3.432   0.866
 3573SOL     OW11404   2.321   3.014   0.741
 3573SOL    HW111405   2.250   2.987   0.806
 3573SOL    HW211406   2.295   2.986   0.648
 3574SOL     OW11407   3.133   3.659   0.591
 3574SOL    HW111408   3.177   3.723   0.527
 3574SOL    HW211409   3.083   3.711   0.661
 3575SOL     OW11410   2.894   2.411   0.016
 3575SOL    HW111411   2.853   2.493  -0.023
 3575SOL    HW211412   2.958   2.437   0.089
 3576SOL     OW11413   1.940   2.418   1.386
 3576SOL    HW111414   2.032   2.417   1.345
 3576SOL    HW211415   1.934   2.492   1.453
 3577SOL     OW11416   2.423   2.084   1.147
 3577SOL    HW111417   2.461   2.000   1.184
 3577SOL    HW211418   2.335   2.103   1.191
 3578SOL     OW11419   2.728   2.316   0.642
 3578SOL    HW111420   2.696   2.388   0.580
 3578SOL    HW211421   2.752   2.235   0.589
 3579SOL     OW11422   2.879   1.901   0.753
 3579SOL    HW111423   2.807   1.906   0.684
 3579SOL    HW211424   2.855   1.832   0.822
 3580SOL     OW11425   3.291   3.035   0.867
 3580SOL    HW111426   3.236   2.951   0.860
 3580SOL    HW211427   3.317   3.064   0.775
 3581SOL     OW11428   3.328   2.452   0.992
 3581SOL    HW111429   3.298   2.357   0.999
 3581SOL    HW211430   3.401   2.468   1.058
 3582SOL     OW11431   3.719   2.695   0.377
 3582SOL    HW111432   3.761   2.631   0.441
 3582SOL    HW211433   3.681   2.644   0.299
 3583SOL     OW11434   2.350   3.247   0.174
 3583SOL    HW111435   2.263   3.232   0.221
 3583SOL    HW211436   2.333   3.273   0.079
 3584SOL     OW11437   3.526   3.142   0.657
 3584SOL    HW111438   3.625   3.150   0.671
 3584SOL    HW211439   3.481   3.226   0.688
 3585SOL     OW11440   3.252   2.437   0.078
 3585SOL    HW111441   3.198   2.416   0.159
 3585SOL    HW211442   3.343   2.396   0.087
 3586SOL     OW11443   2.389   2.118   0.328
 3586SOL    HW111444   2.416   2.059   0.253
 3586SOL    HW211445   2.389   2.213   0.297
 3587SOL     OW11446   3.616   3.085   1.588
 3587SOL    HW111447   3.707   3.046   1.575
 3587SOL    HW211448   3.624   3.181   1.612
 3588SOL     OW11449   2.926   3.209   1.340
 3588SOL    HW111450   2.846   3.186   1.395
 3588SOL    HW211451   3.009   3.183   1.389
 3589SOL     OW11452   3.454   3.491   1.625
 3589SOL    HW111453   3.481   3.525   1.535
 3589SOL    HW211454   3.533   3.453   1.671
 3590SOL     OW11455   2.973   3.057   1.100
 3590SOL    HW111456   2.933   3.101   1.181
 3590SOL    HW211457   2.932   3.094   1.017
 3591SOL     OW11458   3.500   2.961   1.079
 3591SOL    HW111459   3.505   3.042   1.138
 3591SOL    HW211460   3.414   2.963   1.028
 3592SOL     OW11461   2.777   1.951   1.402
 3592SOL    HW111462   2.802   1.931   1.307
 3592SOL    HW211463   2.849   2.007   1.444
 3593SOL     OW11464   2.842   2.978   1.719
 3593SOL    HW111465   2.743   2.984   1.729
 3593SOL    HW211466   2.865   2.898   1.663
 3594SOL     OW11467   2.567   2.912   0.368
 3594SOL    HW111468   2.553   2.919   0.467
 3594SOL    HW211469   2.651   2.861   0.350
 3595SOL     OW11470   2.272   2.675   1.251
 3595SOL    HW111471   2.358   2.687   1.301
 3595SOL    HW211472   2.230   2.588   1.278
 3596SOL     OW11473   3.136   2.248   1.262
 3596SOL    HW111474   3.157   2.322   1.326
 3596SOL    HW211475   3.047   2.265   1.219
 3597SOL     OW11476   1.926   3.426   1.331
 3597SOL    HW111477   1.880   3.508   1.297
 3597SOL    HW211478   2.024   3.445   1.340
 3598SOL     OW11479   2.229   2.962   0.501
 3598SOL    HW111480   2.222   3.045   0.445
 3598SOL    HW211481   2.233   2.882   0.441
 3599SOL     OW11482   2.428   2.399   0.865
 3599SOL    HW111483   2.440   2.465   0.791
 3599SOL    HW211484   2.474   2.433   0.948
 3600SOL     OW11485   3.114   3.210   0.388
 3600SOL    HW111486   3.164   3.287   0.428
 3600SOL    HW211487   3.019   3.212   0.420
 3601SOL     OW11488   3.134   3.307   1.142
 3601SOL    HW111489   3.181   3.320   1.229
 3601SOL    HW211490   3.068   3.233   1.151
 3602SOL     OW11491   3.444   2.501   0.472
 3602SOL    HW111492   3.413   2.562   0.545
 3602SOL    HW211493   3.494   2.553   0.403
 3603SOL     OW11494   2.216   3.372   1.329
 3603SOL    HW111495   2.195   3.328   1.242
 3603SOL    HW211496   2.313   3.398   1.332
 3604SOL     OW11497   2.264   2.613   1.598
 3604SOL    HW111498   2.332   2.668   1.551
 3604SOL    HW211499   2.304   2.525   1.625
 3605SOL     OW11500   3.449   2.641   1.670
 3605SOL    HW111501   3.357   2.679   1.665
 3605SOL    HW211502   3.509   2.688   1.605
 3606SOL     OW11503   2.875   1.967   1.770
 3606SOL    HW111504   2.881   2.052   1.718
 3606SOL    HW211505   2.907   1.891   1.713
 3607SOL     OW11506   2.366   1.912   1.740
 3607SOL    HW111507   2.324   1.855   1.670
 3607SOL    HW211508   2.300   1.981   1.772
 3608SOL     OW11509   3.222   2.724   1.045
 3608SOL    HW111510   3.147   2.724   0.979
 3608SOL    HW211511   3.259   2.632   1.054
 3609SOL     OW11512   3.071   2.387   0.275
 3609SOL    HW111513   3.084   2.303   0.329
 3609SOL    HW211514   3.042   2.461   0.335
 3610SOL     OW11515   2.169   2.075   1.231
 3610SOL    HW111516   2.146   2.112   1.321
 3610SOL    HW211517   2.139   1.980   1.225
 3611SOL     OW11518   1.899   3.172   1.282
 3611SOL    HW111519   1.952   3.123   1.350
 3611SOL    HW211520   1.921   3.270   1.287
 3612SOL     OW11521   3.590   2.797   1.854
 3612SOL    HW111522   3.544   2.790   1.765
 3612SOL    HW211523   3.528   2.841   1.920
 3613SOL     OW11524   2.169   1.925   0.618
 3613SOL    HW111525   2.158   2.019   0.651
 3613SOL    HW211526   2.164   1.862   0.695
 3614SOL     OW11527   3.484   2.229   0.374
 3614SOL    HW111528   3.486   2.153   0.438
 3614SOL    HW211529   3.436   2.306   0.414
 3615SOL     OW11530   2.842   3.435   1.700
 3615SOL    HW111531   2.822   3.479   1.612
 3615SOL    HW211532   2.881   3.344   1.684
 3616SOL     OW11533   3.721   3.380   1.605
 3616SOL    HW111534   3.735   3.407   1.510
 3616SOL    HW211535   3.804   3.402   1.658
 3617SOL     OW11536   2.212   2.760   1.804
 3617SOL    HW111537   2.288   2.804   1.852
 3617SOL    HW211538   2.247   2.713   1.722
 3618SOL     OW11539   3.402   2.136   0.125
 3618SOL    HW111540   3.341   2.061   0.148
 3618SOL    HW211541   3.424   2.188   0.208
 3619SOL     OW11542   3.165   2.700   0.042
 3619SOL    HW111543   3.199   2.607   0.057
 3619SOL    HW211544   3.183   2.727  -0.053
 3620SOL     OW11545   2.930   3.195   0.849
 3620SOL    HW111546   2.937   3.111   0.794
 3620SOL    HW211547   2.992   3.264   0.813
 3621SOL     OW11548   2.181   2.672   0.949
 3621SOL    HW111549   2.274   2.708   0.954
 3621SOL    HW211550   2.175   2.587   1.001
 3622SOL     OW11551   2.201   2.371   1.006
 3622SOL    HW111552   2.149   2.288   0.989
 3622SOL    HW211553   2.278   2.376   0.942
 3623SOL     OW11554   3.000   2.242   1.678
 3623SOL    HW111555   2.955   2.305   1.742
 3623SOL    HW211556   3.093   2.273   1.661
 3624SOL     OW11557   3.022   2.069   1.477
 3624SOL    HW111558   3.022   2.133   1.554
 3624SOL    HW211559   3.050   2.117   1.394
 3625SOL     OW11560   1.870   3.188   0.200
 3625SOL    HW111561   1.777   3.209   0.169
 3625SOL    HW211562   1.880   3.089   0.213
 3626SOL     OW11563   1.950   3.663   0.927
 3626SOL    HW111564   1.908   3.577   0.900
 3626SOL    HW211565   2.044   3.666   0.893
 3627SOL     OW11566   2.366   3.430   0.910
 3627SOL    HW111567   2.432   3.504   0.919
 3627SOL    HW211568   2.410   3.351   0.868
 3628SOL     OW11569   1.902   2.406   1.114
 3628SOL    HW111570   1.987   2.373   1.073
 3628SOL    HW211571   1.915   2.421   1.212
 3629SOL     OW11572   2.051   2.382   1.722
 3629SOL    HW111573   2.110   2.342   1.652
 3629SOL    HW211574   1.993   2.453   1.681
 3630SOL     OW11575   3.231   2.812   1.660
 3630SOL    HW111576   3.270   2.901   1.680
 3630SOL    HW211577   3.241   2.792   1.563
 3631SOL     OW11578   3.519   2.466   1.206
 3631SOL    HW111579   3.481   2.397   1.268
 3631SOL    HW211580   3.601   2.430   1.162
 3632SOL     OW11581   2.114   3.426   1.744
 3632SOL    HW111582   2.084   3.483   1.820
 3632SOL    HW211583   2.107   3.329   1.770
 3633SOL     OW11584   2.533   2.326   1.269
 3633SOL    HW111585   2.499   2.237   1.239
 3633SOL    HW211586   2.559   2.380   1.189
 3634SOL     OW11587   2.792   3.540   1.465
 3634SOL    HW111588   2.768   3.522   1.370
 3634SOL    HW211589   2.822   3.634   1.475
 3635SOL     OW11590   2.335   2.362   0.191
 3635SOL    HW111591   2.396   2.442   0.195
 3635SOL    HW211592   2.240   2.393   0.198
 3636SOL     OW11593   2.021   2.999   1.466
 3636SOL    HW111594   2.043   2.938   1.542
 3636SOL    HW211595   2.031   2.950   1.380
 3637SOL     OW11596   3.209   2.921   1.234
 3637SOL    HW111597   3.233   2.858   1.160
 3637SOL    HW211598   3.119   2.961   1.216
 3638SOL     OW11599   3.164   2.717   0.309
 3638SOL    HW111600   3.078   2.686   0.351
 3638SOL    HW211601   3.160   2.703   0.210
 3639SOL     OW11602   3.621   3.609   1.154
 3639SOL    HW111603   3.682   3.639   1.081
 3639SOL    HW211604   3.583   3.520   1.132
 3640SOL     OW11605   3.114   3.593   1.128
 3640SOL    HW111606   3.198   3.598   1.074
 3640SOL    HW211607   3.091   3.497   1.146
 3641SOL     OW11608   1.945   3.120   1.022
 3641SOL    HW111609   1.940   3.119   1.122
 3641SOL    HW211610   1.862   3.079   0.984
 3642SOL     OW11611   2.550   3.524   1.716
 3642SOL    HW111612   2.494   3.605   1.725
 3642SOL    HW211613   2.602   3.528   1.630
 3643SOL     OW11614   2.765   1.948   0.133
 3643SOL    HW111615   2.816   1.949   0.047
 3643SOL    HW211616   2.821   1.906   0.204
 3644SOL     OW11617   3.588   1.997   0.523
 3644SOL    HW111618   3.661   1.980   0.456
 3644SOL    HW211619   3.557   1.910   0.561
 3645SOL     OW11620   3.250   3.435   0.477
 3645SOL    HW111621   3.317   3.447   0.403
 3645SOL    HW211622   3.210   3.524   0.500
 3646SOL     OW11623   1.992   3.656   1.851
 3646SOL    HW111624   1.951   3.582   1.904
 3646SOL    HW211625   2.056   3.707   1.909
 3647SOL     OW11626   3.142   2.789   0.672
 3647SOL    HW111627   3.202   2.708   0.674
 3647SOL    HW211628   3.182   2.858   0.612
 3648SOL     OW11629   2.692   3.135   1.422
 3648SOL    HW111630   2.687   3.168   1.517
 3648SOL    HW211631   2.606   3.154   1.376
 3649SOL     OW11632   2.534   3.478   0.154
 3649SOL    HW111633   2.543   3.488   0.055
 3649SOL    HW211634   2.494   3.389   0.175
 3650SOL     OW11635   3.512   3.582   1.394
 3650SOL    HW111636   3.565   3.592   1.310
 3650SOL    HW211637   3.485   3.672   1.428
 3651SOL     OW11638   3.703   2.037   0.963
 3651SOL    HW111639   3.742   1.952   0.927
 3651SOL    HW211640   3.605   2.039   0.944
 3652SOL     OW11641   2.125   2.188   0.720
 3652SOL    HW111642   2.046   2.239   0.686
 3652SOL    HW211643   2.116   2.173   0.818
 3653SOL     OW11644   3.056   3.474   0.031
 3653SOL    HW111645   3.062   3.381   0.068
 3653SOL    HW211646   2.997   3.474  -0.049
 3654SOL     OW11647   3.366   3.469   0.044
 3654SOL    HW111648   3.274   3.506   0.051
 3654SOL    HW211649   3.404   3.489  -0.046
 3655SOL     OW11650   2.234   3.150   1.490
 3655SOL    HW111651   2.221   3.243   1.456
 3655SOL    HW211652   2.150   3.098   1.477
 3656SOL     OW11653   3.476   3.154   1.289
 3656SOL    HW111654   3.536   3.157   1.369
 3656SOL    HW211655   3.401   3.218   1.302
 3657SOL     OW11656   2.901   2.960   0.696
 3657SOL    HW111657   2.831   2.913   0.750
 3657SOL    HW211658   2.960   2.892   0.653
 3658SOL     OW11659   2.876   2.098   0.971
 3658SOL    HW111660   2.868   2.062   0.878
 3658SOL    HW211661   2.874   2.022   1.036
 3659SOL     OW11662   2.452   3.349   0.491
 3659SOL    HW111663   2.494   3.291   0.421
 3659SOL    HW211664   2.408   3.428   0.447
 3660SOL     OW11665   3.571   2.247   1.381
 3660SOL    HW111666   3.644   2.316   1.385
 3660SOL    HW211667   3.599   2.172   1.322
 3661SOL     OW11668   2.117   3.210   0.290
 3661SOL    HW111669   2.021   3.211   0.263
 3661SOL    HW211670   2.129   3.263   0.374
 3662SOL     OW11671   1.967   2.875   1.726
 3662SOL    HW111672   1.890   2.842   1.780
 3662SOL    HW211673   2.052   2.845   1.768
 3663SOL     OW11674   2.534   2.065   1.489
 3663SOL    HW111675   2.624   2.049   1.449
 3663SOL    HW211676   2.542   2.070   1.588
 3664SOL     OW11677   1.937   2.207   0.033
 3664SOL    HW111678   1.845   2.179   0.004
 3664SOL    HW211679   1.968   2.284  -0.023
 3665SOL     OW11680   3.302   2.718   1.398
 3665SOL    HW111681   3.245   2.770   1.335
 3665SOL    HW211682   3.398   2.730   1.374
 3666SOL     OW11683   1.934   2.028   0.318
 3666SOL    HW111684   1.917   2.111   0.264
 3666SOL    HW211685   2.024   1.991   0.296
 3667SOL     OW11686   3.045   3.197   0.119
 3667SOL    HW111687   2.946   3.186   0.121
 3667SOL    HW211688   3.079   3.212   0.212
 3668SOL     OW11689   3.355   3.629   0.959
 3668SOL    HW111690   3.388   3.693   0.890
 3668SOL    HW211691   3.421   3.623   1.034
 3669SOL     OW11692   3.312   3.082   1.633
 3669SOL    HW111693   3.303   3.072   1.732
 3669SOL    HW211694   3.408   3.075   1.607
 3670SOL     OW11695   2.252   3.603   1.560
 3670SOL    HW111696   2.161   3.644   1.558
 3670SOL    HW211697   2.245   3.509   1.592
 3671SOL     OW11698   3.536   2.745   1.254
 3671SOL    HW111699   3.509   2.656   1.217
 3671SOL    HW211700   3.537   2.813   1.181
 3672SOL     OW11701   3.087   2.187   0.449
 3672SOL    HW111702   3.152   2.113   0.438
 3672SOL    HW211703   3.107   2.237   0.533
 3673SOL     OW11704   3.639   2.204   1.642
 3673SOL    HW111705   3.622   2.235   1.548
 3673SOL    HW211706   3.555   2.167   1.680
 3674SOL     OW11707   3.592   2.796   1.517
 3674SOL    HW111708   3.630   2.887   1.532
 3674SOL    HW211709   3.584   2.779   1.418
 3675SOL     OW11710   2.721   3.236   0.016
 3675SOL    HW111711   2.675   3.251   0.104
 3675SOL    HW211712   2.765   3.321  -0.014
 3676SOL     OW11713   2.523   3.652   0.953
 3676SOL    HW111714   2.477   3.740   0.940
 3676SOL    HW211715   2.622   3.664   0.946
 3677SOL     OW11716   2.945   2.846   0.087
 3677SOL    HW111717   2.922   2.899   0.005
 3677SOL    HW211718   3.026   2.790   0.068
 3678SOL     OW11719   3.723   3.431   0.851
 3678SOL    HW111720   3.652   3.419   0.781
 3678SOL    HW211721   3.724   3.352   0.911
 3679SOL     OW11722   2.083   3.176   1.844
 3679SOL    HW111723   2.018   3.103   1.823
 3679SOL    HW211724   2.087   3.190   1.942
 3680SOL     OW11725   1.941   3.102   0.653
 3680SOL    HW111726   1.940   3.055   0.741
 3680SOL    HW211727   2.023   3.074   0.602
 3681SOL     OW11728   2.534   3.253   1.624
 3681SOL    HW111729   2.456   3.203   1.662
 3681SOL    HW211730   2.531   3.348   1.655
 3682SOL     OW11731   3.686   2.054   1.227
 3682SOL    HW111732   3.682   1.964   1.271
 3682SOL    HW211733   3.689   2.043   1.128
 3683SOL     OW11734   2.290   2.286   0.520
 3683SOL    HW111735   2.320   2.214   0.458
 3683SOL    HW211736   2.251   2.246   0.603
 3684SOL     OW11737   3.567   3.349   1.104
 3684SOL    HW111738   3.474   3.324   1.077
 3684SOL    HW211739   3.593   3.299   1.186
 3685SOL     OW11740   2.179   2.409   1.280
 3685SOL    HW111741   2.217   2.350   1.352
 3685SOL    HW211742   2.219   2.383   1.192
 3686SOL     OW11743   2.674   3.448   0.687
 3686SOL    HW111744   2.706   3.458   0.593
 3686SOL    HW211745   2.595   3.386   0.689
 3687SOL     OW11746   3.286   2.076   1.112
 3687SOL    HW111747   3.338   2.011   1.167
 3687SOL    HW211748   3.237   2.139   1.173
 3688SOL     OW11749   2.863   1.896   1.154
 3688SOL    HW111750   2.800   1.824   1.123
 3688SOL    HW211751   2.956   1.860   1.154
 3689SOL     OW11752   2.632   3.192   0.301
 3689SOL    HW111753   2.586   3.105   0.318
 3689SOL    HW211754   2.723   3.189   0.342
 3690SOL     OW11755   2.480   3.429   1.284
 3690SOL    HW111756   2.475   3.511   1.341
 3690SOL    HW211757   2.569   3.426   1.239
 3691SOL     OW11758   3.214   1.914   0.168
 3691SOL    HW111759   3.249   1.873   0.084
 3691SOL    HW211760   3.124   1.876   0.188
 3692SOL     OW11761   3.162   2.315   0.691
 3692SOL    HW111762   3.103   2.395   0.695
 3692SOL    HW211763   3.177   2.280   0.784
 3693SOL     OW11764   3.455   2.083   0.882
 3693SOL    HW111765   3.371   2.082   0.936
 3693SOL    HW211766   3.457   2.166   0.826
 3694SOL     OW11767   1.901   2.939   0.300
 3694SOL    HW111768   2.000   2.928   0.291
 3694SOL    HW211769   1.861   2.853   0.332
 3695SOL     OW11770   2.737   3.508   0.337
 3695SOL    HW111771   2.660   3.473   0.283
 3695SOL    HW211772   2.705   3.579   0.399
 3696SOL     OW11773   2.092   2.490   1.975
 3696SOL    HW111774   1.999   2.488   2.012
 3696SOL    HW211775   2.093   2.451   1.883
 3697SOL     OW11776   1.881   2.230   2.509
 3697SOL    HW111777   1.799   2.273   2.548
 3697SOL    HW211778   1.853   2.157   2.446
 3698SOL     OW11779   3.417   3.373   2.565
 3698SOL    HW111780   3.360   3.357   2.646
 3698SOL    HW211781   3.358   3.383   2.485
 3699SOL     OW11782   2.997   2.565   2.579
 3699SOL    HW111783   3.054   2.643   2.554
 3699SOL    HW211784   2.937   2.591   2.655
 3700SOL     OW11785   3.617   2.469   2.093
 3700SOL    HW111786   3.605   2.456   1.994
 3700SOL    HW211787   3.587   2.388   2.142
 3701SOL     OW11788   2.630   3.006   2.885
 3701SOL    HW111789   2.552   3.023   2.945
 3701SOL    HW211790   2.664   3.093   2.849
 3702SOL     OW11791   2.197   3.297   2.923
 3702SOL    HW111792   2.119   3.266   2.870
 3702SOL    HW211793   2.255   3.355   2.866
 3703SOL     OW11794   3.465   2.309   2.599
 3703SOL    HW111795   3.391   2.355   2.549
 3703SOL    HW211796   3.516   2.377   2.652
 3704SOL     OW11797   2.093   3.575   2.345
 3704SOL    HW111798   2.127   3.652   2.399
 3704SOL    HW211799   2.137   3.575   2.255
 3705SOL     OW11800   2.092   3.296   2.400
 3705SOL    HW111801   2.066   3.392   2.400
 3705SOL    HW211802   2.021   3.242   2.445
 3706SOL     OW11803   2.102   2.953   2.748
 3706SOL    HW111804   2.116   2.869   2.800
 3706SOL    HW211805   2.047   3.017   2.803
 3707SOL     OW11806   2.482   3.648   3.301
 3707SOL    HW111807   2.390   3.631   3.336
 3707SOL    HW211808   2.510   3.740   3.327
 3708SOL     OW11809   2.468   2.826   1.985
 3708SOL    HW111810   2.475   2.910   1.931
 3708SOL    HW211811   2.514   2.839   2.073
 3709SOL     OW11812   1.984   2.505   2.425
 3709SOL    HW111813   1.939   2.417   2.442
 3709SOL    HW211814   1.983   2.559   2.509
 3710SOL     OW11815   3.704   3.629   2.221
 3710SOL    HW111816   3.758   3.600   2.301
 3710SOL    HW211817   3.734   3.719   2.192
 3711SOL     OW11818   1.889   3.458   1.979
 3711SOL    HW111819   1.870   3.362   2.000
 3711SOL    HW211820   1.856   3.516   2.054
 3712SOL     OW11821   3.551   2.784   2.474
 3712SOL    HW111822   3.646   2.755   2.482
 3712SOL    HW211823   3.543   2.849   2.399
 3713SOL     OW11824   3.503   2.970   2.294
 3713SOL    HW111825   3.589   2.972   2.242
 3713SOL    HW211826   3.517   3.017   2.382
 3714SOL     OW11827   2.475   3.227   2.588
 3714SOL    HW111828   2.426   3.140   2.597
 3714SOL    HW211829   2.452   3.270   2.501
 3715SOL     OW11830   2.671   1.866   2.364
 3715SOL    HW111831   2.711   1.957   2.355
 3715SOL    HW211832   2.571   1.874   2.370
 3716SOL     OW11833   2.059   2.838   3.126
 3716SOL    HW111834   2.148   2.793   3.112
 3716SOL    HW211835   1.986   2.773   3.107
 3717SOL     OW11836   3.387   2.861   2.052
 3717SOL    HW111837   3.324   2.785   2.065
 3717SOL    HW211838   3.435   2.879   2.138
 3718SOL     OW11839   3.049   3.654   3.478
 3718SOL    HW111840   3.073   3.714   3.402
 3718SOL    HW211841   3.056   3.559   3.448
 3719SOL     OW11842   3.328   3.279   2.815
 3719SOL    HW111843   3.269   3.285   2.895
 3719SOL    HW211844   3.313   3.191   2.769
 3720SOL     OW11845   3.529   3.576   2.434
 3720SOL    HW111846   3.488   3.553   2.346
 3720SOL    HW211847   3.511   3.502   2.499
 3721SOL     OW11848   3.143   2.207   2.806
 3721SOL    HW111849   3.057   2.157   2.793
 3721SOL    HW211850   3.205   2.153   2.862
 3722SOL     OW11851   3.438   3.524   2.169
 3722SOL    HW111852   3.527   3.570   2.172
 3722SOL    HW211853   3.417   3.500   2.074
 3723SOL     OW11854   2.853   2.272   3.104
 3723SOL    HW111855   2.776   2.306   3.158
 3723SOL    HW211856   2.819   2.221   3.025
 3724SOL     OW11857   1.938   2.673   2.651
 3724SOL    HW111858   2.037   2.661   2.660
 3724SOL    HW211859   1.914   2.768   2.672
 3725SOL     OW11860   1.992   3.683   3.433
 3725SOL    HW111861   1.982   3.668   3.532
 3725SOL    HW211862   1.906   3.719   3.397
 3726SOL     OW11863   2.727   2.210   2.057
 3726SOL    HW111864   2.786   2.273   2.008
 3726SOL    HW211865   2.746   2.116   2.028
 3727SOL     OW11866   3.224   3.006   2.407
 3727SOL    HW111867   3.307   2.977   2.359
 3727SOL    HW211868   3.175   3.073   2.351
 3728SOL     OW11869   2.412   2.058   2.747
 3728SOL    HW111870   2.407   2.053   2.847
 3728SOL    HW211871   2.414   2.154   2.718
 3729SOL     OW11872   2.870   3.318   2.339
 3729SOL    HW111873   2.824   3.390   2.287
 3729SOL    HW211874   2.866   3.338   2.437
 3730SOL     OW11875   2.213   3.663   2.715
 3730SOL    HW111876   2.263   3.577   2.721
 3730SOL    HW211877   2.278   3.740   2.712
 3731SOL     OW11878   3.657   2.928   2.735
 3731SOL    HW111879   3.595   2.913   2.659
 3731SOL    HW211880   3.605   2.939   2.820
 3732SOL     OW11881   2.183   2.805   2.104
 3732SOL    HW111882   2.265   2.844   2.062
 3732SOL    HW211883   2.156   2.723   2.055
 3733SOL     OW11884   3.320   2.597   2.590
 3733SOL    HW111885   3.315   2.532   2.665
 3733SOL    HW211886   3.400   2.656   2.603
 3734SOL     OW11887   2.973   3.638   2.099
 3734SOL    HW111888   2.913   3.576   2.149
 3734SOL    HW211889   3.004   3.594   2.014
 3735SOL     OW11890   3.494   3.239   1.943
 3735SOL    HW111891   3.462   3.333   1.933
 3735SOL    HW211892   3.418   3.176   1.931
 3736SOL     OW11893   2.326   3.605   2.185
 3736SOL    HW111894   2.359   3.644   2.271
 3736SOL    HW211895   2.402   3.598   2.120
 3737SOL     OW11896   3.262   1.969   2.288
 3737SOL    HW111897   3.238   1.932   2.198
 3737SOL    HW211898   3.361   1.985   2.292
 3738SOL     OW11899   2.111   3.647   3.103
 3738SOL    HW111900   2.168   3.582   3.153
 3738SOL    HW211901   2.095   3.614   3.010
 3739SOL     OW11902   2.802   3.560   2.766
 3739SOL    HW111903   2.882   3.503   2.787
 3739SOL    HW211904   2.753   3.520   2.689
 3740SOL     OW11905   2.244   2.562   2.342
 3740SOL    HW111906   2.289   2.472   2.339
 3740SOL    HW211907   2.150   2.551   2.375
 3741SOL     OW11908   2.476   1.984   1.979
 3741SOL    HW111909   2.574   1.962   1.986
 3741SOL    HW211910   2.445   1.967   1.886
 3742SOL     OW11911   2.665   3.264   2.786
 3742SOL    HW111912   2.755   3.278   2.744
 3742SOL    HW211913   2.594   3.266   2.715
 3743SOL     OW11914   2.784   2.365   2.761
 3743SOL    HW111915   2.759   2.356   2.665
 3743SOL    HW211916   2.832   2.283   2.792
 3744SOL     OW11917   2.401   1.926   2.374
 3744SOL    HW111918   2.320   1.927   2.432
 3744SOL    HW211919   2.404   2.009   2.319
 3745SOL     OW11920   3.296   3.050   1.903
 3745SOL    HW111921   3.328   2.974   1.960
 3745SOL    HW211922   3.204   3.077   1.933
 3746SOL     OW11923   2.159   1.897   2.033
 3746SOL    HW111924   2.208   1.981   2.012
 3746SOL    HW211925   2.221   1.832   2.078
 3747SOL     OW11926   2.797   2.098   2.342
 3747SOL    HW111927   2.749   2.139   2.264
 3747SOL    HW211928   2.896   2.096   2.323
 3748SOL     OW11929   2.938   2.545   3.326
 3748SOL    HW111930   2.858   2.484   3.329
 3748SOL    HW211931   3.019   2.492   3.302
 3749SOL     OW11932   3.089   3.432   2.655
 3749SOL    HW111933   3.110   3.506   2.590
 3749SOL    HW211934   3.157   3.432   2.728
 3750SOL     OW11935   2.321   3.014   2.603
 3750SOL    HW111936   2.250   2.987   2.668
 3750SOL    HW211937   2.295   2.986   2.510
 3751SOL     OW11938   3.133   3.659   2.453
 3751SOL    HW111939   3.177   3.723   2.389
 3751SOL    HW211940   3.083   3.711   2.523
 3752SOL     OW11941   2.894   2.411   1.878
 3752SOL    HW111942   2.853   2.493   1.839
 3752SOL    HW211943   2.958   2.437   1.951
 3753SOL     OW11944   2.728   2.316   2.504
 3753SOL    HW111945   2.696   2.388   2.442
 3753SOL    HW211946   2.752   2.235   2.451
 3754SOL     OW11947   2.879   1.901   2.615
 3754SOL    HW111948   2.807   1.906   2.546
 3754SOL    HW211949   2.855   1.832   2.684
 3755SOL     OW11950   3.291   3.035   2.729
 3755SOL    HW111951   3.236   2.951   2.722
 3755SOL    HW211952   3.317   3.064   2.637
 3756SOL     OW11953   3.328   2.452   2.854
 3756SOL    HW111954   3.298   2.357   2.861
 3756SOL    HW211955   3.401   2.468   2.920
 3757SOL     OW11956   3.719   2.695   2.239
 3757SOL    HW111957   3.761   2.631   2.303
 3757SOL    HW211958   3.681   2.644   2.161
 3758SOL     OW11959   2.350   3.247   2.036
 3758SOL    HW111960   2.263   3.232   2.083
 3758SOL    HW211961   2.333   3.273   1.941
 3759SOL     OW11962   3.526   3.142   2.519
 3759SOL    HW111963   3.625   3.150   2.533
 3759SOL    HW211964   3.481   3.226   2.550
 3760SOL     OW11965   3.252   2.437   1.940
 3760SOL    HW111966   3.198   2.416   2.021
 3760SOL    HW211967   3.343   2.396   1.949
 3761SOL     OW11968   2.389   2.118   2.190
 3761SOL    HW111969   2.416   2.059   2.115
 3761SOL    HW211970   2.389   2.213   2.159
 3762SOL     OW11971   3.616   3.085   3.450
 3762SOL    HW111972   3.707   3.046   3.437
 3762SOL    HW211973   3.624   3.181   3.474
 3763SOL     OW11974   3.454   3.491   3.487
 3763SOL    HW111975   3.481   3.525   3.397
 3763SOL    HW211976   3.533   3.453   3.533
 3764SOL     OW11977   3.500   2.961   2.941
 3764SOL    HW111978   3.505   3.042   3.000
 3764SOL    HW211979   3.414   2.963   2.890
 3765SOL     OW11980   2.272   2.675   3.113
 3765SOL    HW111981   2.358   2.687   3.163
 3765SOL    HW211982   2.230   2.588   3.140
 3766SOL     OW11983   3.136   2.248   3.124
 3766SOL    HW111984   3.157   2.322   3.188
 3766SOL    HW211985   3.047   2.265   3.081
 3767SOL     OW11986   1.926   3.426   3.193
 3767SOL    HW111987   1.880   3.508   3.159
 3767SOL    HW211988   2.024   3.445   3.202
 3768SOL     OW11989   2.229   2.962   2.363
 3768SOL    HW111990   2.222   3.045   2.307
 3768SOL    HW211991   2.233   2.882   2.303
 3769SOL     OW11992   2.428   2.399   2.727
 3769SOL    HW111993   2.440   2.465   2.653
 3769SOL    HW211994   2.474   2.433   2.810
 3770SOL     OW11995   3.114   3.210   2.250
 3770SOL    HW111996   3.164   3.287   2.290
 3770SOL    HW211997   3.019   3.212   2.282
 3771SOL     OW11998   3.134   3.307   3.004
 3771SOL    HW111999   3.181   3.320   3.091
 3771SOL    HW212000   3.068   3.233   3.013
 3772SOL     OW12001   3.444   2.501   2.334
 3772SOL    HW112002   3.413   2.562   2.407
 3772SOL    HW212003   3.494   2.553   2.265
 3773SOL     OW12004   2.264   2.613   3.460
 3773SOL    HW112005   2.332   2.668   3.413
 3773SOL    HW212006   2.304   2.525   3.487
 3774SOL     OW12007   3.222   2.724   2.907
 3774SOL    HW112008   3.147   2.724   2.841
 3774SOL    HW212009   3.259   2.632   2.916
 3775SOL     OW12010   3.071   2.387   2.137
 3775SOL    HW112011   3.084   2.303   2.191
 3775SOL    HW212012   3.042   2.461   2.197
 3776SOL     OW12013   3.590   2.797   3.716
 3776SOL    HW112014   3.544   2.790   3.627
 3776SOL    HW212015   3.528   2.841   3.782
 3777SOL     OW12016   2.169   1.925   2.480
 3777SOL    HW112017   2.158   2.019   2.513
 3777SOL    HW212018   2.164   1.862   2.557
 3778SOL     OW12019   3.484   2.229   2.236
 3778SOL    HW112020   3.486   2.153   2.300
 3778SOL    HW212021   3.436   2.306   2.276
 3779SOL     OW12022   3.721   3.380   3.467
 3779SOL    HW112023   3.735   3.407   3.372
 3779SOL    HW212024   3.804   3.402   3.520
 3780SOL     OW12025   3.402   2.136   1.987
 3780SOL    HW112026   3.341   2.061   2.010
 3780SOL    HW212027   3.424   2.188   2.070
 3781SOL     OW12028   3.165   2.700   1.904
 3781SOL    HW112029   3.199   2.607   1.919
 3781SOL    HW212030   3.183   2.727   1.809
 3782SOL     OW12031   2.930   3.195   2.711
 3782SOL    HW112032   2.937   3.111   2.656
 3782SOL    HW212033   2.992   3.264   2.675
 3783SOL     OW12034   2.181   2.672   2.811
 3783SOL    HW112035   2.274   2.708   2.816
 3783SOL    HW212036   2.175   2.587   2.863
 3784SOL     OW12037   2.201   2.371   2.868
 3784SOL    HW112038   2.149   2.288   2.851
 3784SOL    HW212039   2.278   2.376   2.804
 3785SOL     OW12040   1.870   3.188   2.062
 3785SOL    HW112041   1.777   3.209   2.031
 3785SOL    HW212042   1.880   3.089   2.075
 3786SOL     OW12043   1.950   3.663   2.789
 3786SOL    HW112044   1.908   3.577   2.762
 3786SOL    HW212045   2.044   3.666   2.755
 3787SOL     OW12046   2.366   3.430   2.772
 3787SOL    HW112047   2.432   3.504   2.781
 3787SOL    HW212048   2.410   3.351   2.730
 3788SOL     OW12049   1.902   2.406   2.976
 3788SOL    HW112050   1.987   2.373   2.935
 3788SOL    HW212051   1.915   2.421   3.074
 3789SOL     OW12052   2.677   2.434   2.187
 3789SOL    HW112053   2.684   2.345   2.141
 3789SOL    HW212054   2.583   2.468   2.179
 3790SOL     OW12055   3.519   2.466   3.068
 3790SOL    HW112056   3.481   2.397   3.130
 3790SOL    HW212057   3.601   2.430   3.024
 3791SOL     OW12058   2.792   3.540   3.327
 3791SOL    HW112059   2.768   3.522   3.232
 3791SOL    HW212060   2.822   3.634   3.337
 3792SOL     OW12061   2.335   2.362   2.053
 3792SOL    HW112062   2.396   2.442   2.057
 3792SOL    HW212063   2.240   2.393   2.060
 3793SOL     OW12064   3.164   2.717   2.171
 3793SOL    HW112065   3.078   2.686   2.213
 3793SOL    HW212066   3.160   2.703   2.072
 3794SOL     OW12067   3.621   3.609   3.016
 3794SOL    HW112068   3.682   3.639   2.943
 3794SOL    HW212069   3.583   3.520   2.994
 3795SOL     OW12070   3.114   3.593   2.990
 3795SOL    HW112071   3.198   3.598   2.936
 3795SOL    HW212072   3.091   3.497   3.008
 3796SOL     OW12073   1.945   3.120   2.884
 3796SOL    HW112074   1.940   3.119   2.984
 3796SOL    HW212075   1.862   3.079   2.846
 3797SOL     OW12076   2.550   3.524   3.578
 3797SOL    HW112077   2.494   3.605   3.587
 3797SOL    HW212078   2.602   3.528   3.492
 3798SOL     OW12079   3.588   1.997   2.385
 3798SOL    HW112080   3.661   1.980   2.318
 3798SOL    HW212081   3.557   1.910   2.423
 3799SOL     OW12082   3.250   3.435   2.339
 3799SOL    HW112083   3.317   3.447   2.265
 3799SOL    HW212084   3.210   3.524   2.362
 3800SOL     OW12085   1.992   3.656   3.713
 3800SOL    HW112086   1.951   3.582   3.766
 3800SOL    HW212087   2.056   3.707   3.771
 3801SOL     OW12088   3.142   2.789   2.534
 3801SOL    HW112089   3.202   2.708   2.536
 3801SOL    HW212090   3.182   2.858   2.474
 3802SOL     OW12091   2.534   3.478   2.016
 3802SOL    HW112092   2.543   3.488   1.917
 3802SOL    HW212093   2.494   3.389   2.037
 3803SOL     OW12094   3.512   3.582   3.256
 3803SOL    HW112095   3.565   3.592   3.172
 3803SOL    HW212096   3.485   3.672   3.290
 3804SOL     OW12097   3.703   2.037   2.825
 3804SOL    HW112098   3.742   1.952   2.789
 3804SOL    HW212099   3.605   2.039   2.806
 3805SOL     OW12100   2.125   2.188   2.582
 3805SOL    HW112101   2.046   2.239   2.548
 3805SOL    HW212102   2.116   2.173   2.680
 3806SOL     OW12103   3.056   3.474   1.893
 3806SOL    HW112104   3.062   3.381   1.930
 3806SOL    HW212105   2.997   3.474   1.813
 3807SOL     OW12106   3.366   3.469   1.906
 3807SOL    HW112107   3.274   3.506   1.913
 3807SOL    HW212108   3.404   3.489   1.816
 3808SOL     OW12109   2.901   2.960   2.558
 3808SOL    HW112110   2.831   2.913   2.612
 3808SOL    HW212111   2.960   2.892   2.515
 3809SOL     OW12112   2.876   2.098   2.833
 3809SOL    HW112113   2.868   2.062   2.740
 3809SOL    HW212114   2.874   2.022   2.898
 3810SOL     OW12115   2.452   3.349   2.353
 3810SOL    HW112116   2.494   3.291   2.283
 3810SOL    HW212117   2.408   3.428   2.309
 3811SOL     OW12118   3.571   2.247   3.243
 3811SOL    HW112119   3.644   2.316   3.247
 3811SOL    HW212120   3.599   2.172   3.184
 3812SOL     OW12121   2.117   3.210   2.152
 3812SOL    HW112122   2.021   3.211   2.125
 3812SOL    HW212123   2.129   3.263   2.236
 3813SOL     OW12124   1.937   2.207   1.895
 3813SOL    HW112125   1.845   2.179   1.866
 3813SOL    HW212126   1.968   2.284   1.839
 3814SOL     OW12127   1.934   2.028   2.180
 3814SOL    HW112128   1.917   2.111   2.126
 3814SOL    HW212129   2.024   1.991   2.158
 3815SOL     OW12130   3.045   3.197   1.981
 3815SOL    HW112131   2.946   3.186   1.983
 3815SOL    HW212132   3.079   3.212   2.074
 3816SOL     OW12133   3.355   3.629   2.821
 3816SOL    HW112134   3.388   3.693   2.752
 3816SOL    HW212135   3.421   3.623   2.896
 3817SOL     OW12136   2.252   3.603   3.422
 3817SOL    HW112137   2.161   3.644   3.420
 3817SOL    HW212138   2.245   3.509   3.454
 3818SOL     OW12139   3.087   2.187   2.311
 3818SOL    HW112140   3.152   2.113   2.300
 3818SOL    HW212141   3.107   2.237   2.395
 3819SOL     OW12142   3.639   2.204   3.504
 3819SOL    HW112143   3.622   2.235   3.410
 3819SOL    HW212144   3.555   2.167   3.542
 3820SOL     OW12145   2.721   3.236   1.878
 3820SOL    HW112146   2.675   3.251   1.966
 3820SOL    HW212147   2.765   3.321   1.848
 3821SOL     OW12148   2.523   3.652   2.815
 3821SOL    HW112149   2.477   3.740   2.802
 3821SOL    HW212150   2.622   3.664   2.808
 3822SOL     OW12151   2.945   2.846   1.949
 3822SOL    HW112152   2.922   2.899   1.867
 3822SOL    HW212153   3.026   2.790   1.930
 3823SOL     OW12154   3.723   3.431   2.713
 3823SOL    HW112155   3.652   3.419   2.643
 3823SOL    HW212156   3.724   3.352   2.773
 3824SOL     OW12157   1.941   3.102   2.515
 3824SOL    HW112158   1.940   3.055   2.603
 3824SOL    HW212159   2.023   3.074   2.464
 3825SOL     OW12160   3.686   2.054   3.089
 3825SOL    HW112161   3.682   1.964   3.133
 3825SOL    HW212162   3.689   2.043   2.990
 3826SOL     OW12163   2.290   2.286   2.382
 3826SOL    HW112164   2.320   2.214   2.320
 3826SOL    HW212165   2.251   2.246   2.465
 3827SOL     OW12166   3.567   3.349   2.966
 3827SOL    HW112167   3.474   3.324   2.939
 3827SOL    HW212168   3.593   3.299   3.048
 3828SOL     OW12169   2.674   3.448   2.549
 3828SOL    HW112170   2.706   3.458   2.455
 3828SOL    HW212171   2.595   3.386   2.551
 3829SOL     OW12172   3.286   2.076   2.974
 3829SOL    HW112173   3.338   2.011   3.029
 3829SOL    HW212174   3.237   2.139   3.035
 3830SOL     OW12175   2.863   1.896   3.016
 3830SOL    HW112176   2.800   1.824   2.985
 3830SOL    HW212177   2.956   1.860   3.016
 3831SOL     OW12178   2.632   3.192   2.163
 3831SOL    HW112179   2.586   3.105   2.180
 3831SOL    HW212180   2.723   3.189   2.204
 3832SOL     OW12181   3.214   1.914   2.030
 3832SOL    HW112182   3.249   1.873   1.946
 3832SOL    HW212183   3.124   1.876   2.050
 3833SOL     OW12184   3.162   2.315   2.553
 3833SOL    HW112185   3.103   2.395   2.557
 3833SOL    HW212186   3.177   2.280   2.646
 3834SOL     OW12187   3.455   2.083   2.744
 3834SOL    HW112188   3.371   2.082   2.798
 3834SOL    HW212189   3.457   2.166   2.688
 3835SOL     OW12190   1.901   2.939   2.162
 3835SOL    HW112191   2.000   2.928   2.153
 3835SOL    HW212192   1.861   2.853   2.194
 3836SOL     OW12193   2.737   3.508   2.199
 3836SOL    HW112194   2.660   3.473   2.145
 3836SOL    HW212195   2.705   3.579   2.261
 3837SOL     OW12196   2.087   2.137   4.720
 3837SOL    HW112197   2.122   2.120   4.812
 3837SOL    HW212198   1.999   2.092   4.708
 3838SOL     OW12199   3.417   3.373   4.427
 3838SOL    HW112200   3.360   3.357   4.508
 3838SOL    HW212201   3.358   3.383   4.347
 3839SOL     OW12202   2.997   2.565   4.441
 3839SOL    HW112203   3.054   2.643   4.416
 3839SOL    HW212204   2.937   2.591   4.517
 3840SOL     OW12205   3.617   2.469   3.955
 3840SOL    HW112206   3.605   2.456   3.856
 3840SOL    HW212207   3.587   2.388   4.004
 3841SOL     OW12208   2.548   3.023   5.527
 3841SOL    HW112209   2.608   3.102   5.541
 3841SOL    HW212210   2.462   3.054   5.486
 3842SOL     OW12211   3.322   3.367   5.063
 3842SOL    HW112212   3.346   3.461   5.089
 3842SOL    HW212213   3.306   3.313   5.145
 3843SOL     OW12214   2.300   2.254   5.223
 3843SOL    HW112215   2.382   2.198   5.232
 3843SOL    HW212216   2.219   2.196   5.227
 3844SOL     OW12217   2.093   3.575   4.207
 3844SOL    HW112218   2.127   3.652   4.261
 3844SOL    HW212219   2.137   3.575   4.117
 3845SOL     OW12220   2.989   3.203   5.414
 3845SOL    HW112221   3.036   3.203   5.502
 3845SOL    HW212222   2.941   3.116   5.403
 3846SOL     OW12223   2.482   3.648   5.163
 3846SOL    HW112224   2.390   3.631   5.198
 3846SOL    HW212225   2.510   3.740   5.189
 3847SOL     OW12226   3.456   1.976   5.204
 3847SOL    HW112227   3.438   2.043   5.132
 3847SOL    HW212228   3.453   2.022   5.293
 3848SOL     OW12229   3.704   3.629   4.083
 3848SOL    HW112230   3.758   3.600   4.163
 3848SOL    HW212231   3.734   3.719   4.054
 3849SOL     OW12232   1.889   3.458   3.841
 3849SOL    HW112233   1.870   3.362   3.862
 3849SOL    HW212234   1.856   3.516   3.916
 3850SOL     OW12235   3.503   2.970   4.156
 3850SOL    HW112236   3.589   2.972   4.104
 3850SOL    HW212237   3.517   3.017   4.244
 3851SOL     OW12238   1.975   2.599   5.321
 3851SOL    HW112239   2.063   2.586   5.366
 3851SOL    HW212240   1.962   2.696   5.299
 3852SOL     OW12241   3.049   3.654   5.340
 3852SOL    HW112242   3.073   3.714   5.264
 3852SOL    HW212243   3.056   3.559   5.310
 3853SOL     OW12244   2.179   2.113   5.525
 3853SOL    HW112245   2.250   2.184   5.531
 3853SOL    HW212246   2.091   2.152   5.553
 3854SOL     OW12247   3.529   3.576   4.296
 3854SOL    HW112248   3.488   3.553   4.208
 3854SOL    HW212249   3.511   3.502   4.361
 3855SOL     OW12250   3.438   3.524   4.031
 3855SOL    HW112251   3.527   3.570   4.034
 3855SOL    HW212252   3.417   3.500   3.936
 3856SOL     OW12253   3.256   2.331   5.398
 3856SOL    HW112254   3.236   2.374   5.486
 3856SOL    HW212255   3.334   2.269   5.407
 3857SOL     OW12256   2.903   2.563   4.153
 3857SOL    HW112257   2.929   2.559   4.249
 3857SOL    HW212258   2.818   2.512   4.139
 3858SOL     OW12259   1.992   3.683   5.295
 3858SOL    HW112260   1.982   3.668   5.394
 3858SOL    HW212261   1.906   3.719   5.259
 3859SOL     OW12262   3.581   2.447   5.555
 3859SOL    HW112263   3.555   2.536   5.519
 3859SOL    HW212264   3.579   2.379   5.482
 3860SOL     OW12265   2.213   3.663   4.577
 3860SOL    HW112266   2.263   3.577   4.583
 3860SOL    HW212267   2.278   3.740   4.574
 3861SOL     OW12268   3.657   2.928   4.597
 3861SOL    HW112269   3.595   2.913   4.521
 3861SOL    HW212270   3.605   2.939   4.682
 3862SOL     OW12271   3.089   3.412   5.230
 3862SOL    HW112272   3.095   3.335   5.294
 3862SOL    HW212273   3.037   3.386   5.150
 3863SOL     OW12274   2.323   3.128   5.451
 3863SOL    HW112275   2.273   3.129   5.365
 3863SOL    HW212276   2.260   3.110   5.527
 3864SOL     OW12277   2.973   3.638   3.961
 3864SOL    HW112278   2.913   3.576   4.011
 3864SOL    HW212279   3.004   3.594   3.876
 3865SOL     OW12280   2.064   2.147   5.222
 3865SOL    HW112281   1.984   2.207   5.209
 3865SOL    HW212282   2.054   2.098   5.308
 3866SOL     OW12283   3.494   3.239   3.805
 3866SOL    HW112284   3.462   3.333   3.795
 3866SOL    HW212285   3.418   3.176   3.793
 3867SOL     OW12286   2.326   3.605   4.047
 3867SOL    HW112287   2.359   3.644   4.133
 3867SOL    HW212288   2.402   3.598   3.982
 3868SOL     OW12289   3.262   1.969   4.150
 3868SOL    HW112290   3.238   1.932   4.060
 3868SOL    HW212291   3.361   1.985   4.154
 3869SOL     OW12292   2.111   3.647   4.965
 3869SOL    HW112293   2.168   3.582   5.015
 3869SOL    HW212294   2.095   3.614   4.872
 3870SOL     OW12295   2.802   3.560   4.628
 3870SOL    HW112296   2.882   3.503   4.649
 3870SOL    HW212297   2.753   3.520   4.551
 3871SOL     OW12298   3.409   2.084   5.453
 3871SOL    HW112299   3.404   2.121   5.545
 3871SOL    HW212300   3.337   2.015   5.441
 3872SOL     OW12301   2.643   2.126   5.473
 3872SOL    HW112302   2.710   2.065   5.516
 3872SOL    HW212303   2.570   2.145   5.538
 3873SOL     OW12304   2.750   3.376   4.919
 3873SOL    HW112305   2.727   3.351   4.825
 3873SOL    HW212306   2.811   3.307   4.958
 3874SOL     OW12307   3.213   2.452   5.157
 3874SOL    HW112308   3.241   2.409   5.242
 3874SOL    HW212309   3.238   2.548   5.158
 3875SOL     OW12310   3.133   3.659   4.315
 3875SOL    HW112311   3.177   3.723   4.251
 3875SOL    HW212312   3.083   3.711   4.385
 3876SOL     OW12313   1.940   2.418   5.110
 3876SOL    HW112314   2.032   2.417   5.069
 3876SOL    HW212315   1.934   2.492   5.177
 3877SOL     OW12316   2.728   2.316   4.366
 3877SOL    HW112317   2.696   2.388   4.304
 3877SOL    HW212318   2.752   2.235   4.313
 3878SOL     OW12319   3.719   2.695   4.101
 3878SOL    HW112320   3.761   2.631   4.165
 3878SOL    HW212321   3.681   2.644   4.023
 3879SOL     OW12322   2.350   3.247   3.898
 3879SOL    HW112323   2.263   3.232   3.945
 3879SOL    HW212324   2.333   3.273   3.803
 3880SOL     OW12325   3.526   3.142   4.381
 3880SOL    HW112326   3.625   3.150   4.395
 3880SOL    HW212327   3.481   3.226   4.412
 3881SOL     OW12328   3.616   3.085   5.312
 3881SOL    HW112329   3.707   3.046   5.299
 3881SOL    HW212330   3.624   3.181   5.336
 3882SOL     OW12331   2.926   3.209   5.064
 3882SOL    HW112332   2.846   3.186   5.119
 3882SOL    HW212333   3.009   3.183   5.113
 3883SOL     OW12334   3.454   3.491   5.349
 3883SOL    HW112335   3.481   3.525   5.259
 3883SOL    HW212336   3.533   3.453   5.395
 3884SOL     OW12337   2.777   1.951   5.126
 3884SOL    HW112338   2.802   1.931   5.031
 3884SOL    HW212339   2.849   2.007   5.168
 3885SOL     OW12340   2.842   2.978   5.443
 3885SOL    HW112341   2.743   2.984   5.453
 3885SOL    HW212342   2.865   2.898   5.387
 3886SOL     OW12343   2.567   2.912   4.092
 3886SOL    HW112344   2.553   2.919   4.191
 3886SOL    HW212345   2.651   2.861   4.074
 3887SOL     OW12346   1.926   3.426   5.055
 3887SOL    HW112347   1.880   3.508   5.021
 3887SOL    HW212348   2.024   3.445   5.064
 3888SOL     OW12349   2.428   2.399   4.589
 3888SOL    HW112350   2.440   2.465   4.515
 3888SOL    HW212351   2.474   2.433   4.672
 3889SOL     OW12352   3.134   3.307   4.866
 3889SOL    HW112353   3.181   3.320   4.953
 3889SOL    HW212354   3.068   3.233   4.875
 3890SOL     OW12355   3.444   2.501   4.196
 3890SOL    HW112356   3.413   2.562   4.269
 3890SOL    HW212357   3.494   2.553   4.127
 3891SOL     OW12358   2.216   3.372   5.053
 3891SOL    HW112359   2.195   3.328   4.966
 3891SOL    HW212360   2.313   3.398   5.056
 3892SOL     OW12361   2.264   2.613   5.322
 3892SOL    HW112362   2.332   2.668   5.275
 3892SOL    HW212363   2.304   2.525   5.349
 3893SOL     OW12364   3.449   2.641   5.394
 3893SOL    HW112365   3.357   2.679   5.389
 3893SOL    HW212366   3.509   2.688   5.329
 3894SOL     OW12367   2.875   1.967   5.494
 3894SOL    HW112368   2.881   2.052   5.442
 3894SOL    HW212369   2.907   1.891   5.437
 3895SOL     OW12370   2.366   1.912   5.464
 3895SOL    HW112371   2.324   1.855   5.394
 3895SOL    HW212372   2.300   1.981   5.496
 3896SOL     OW12373   1.899   3.172   5.006
 3896SOL    HW112374   1.952   3.123   5.074
 3896SOL    HW212375   1.921   3.270   5.011
 3897SOL     OW12376   3.590   2.797   5.578
 3897SOL    HW112377   3.544   2.790   5.489
 3897SOL    HW212378   3.528   2.841   5.644
 3898SOL     OW12379   3.484   2.229   4.098
 3898SOL    HW112380   3.486   2.153   4.162
 3898SOL    HW212381   3.436   2.306   4.138
 3899SOL     OW12382   2.842   3.435   5.424
 3899SOL    HW112383   2.822   3.479   5.336
 3899SOL    HW212384   2.881   3.344   5.408
 3900SOL     OW12385   3.721   3.380   5.329
 3900SOL    HW112386   3.735   3.407   5.234
 3900SOL    HW212387   3.804   3.402   5.382
 3901SOL     OW12388   2.212   2.760   5.528
 3901SOL    HW112389   2.288   2.804   5.576
 3901SOL    HW212390   2.247   2.713   5.446
 3902SOL     OW12391   3.402   2.136   3.849
 3902SOL    HW112392   3.341   2.061   3.872
 3902SOL    HW212393   3.424   2.188   3.932
 3903SOL     OW12394   3.000   2.242   5.402
 3903SOL    HW112395   2.955   2.305   5.466
 3903SOL    HW212396   3.093   2.273   5.385
 3904SOL     OW12397   3.022   2.069   5.201
 3904SOL    HW112398   3.022   2.133   5.278
 3904SOL    HW212399   3.050   2.117   5.118
 3905SOL     OW12400   1.870   3.188   3.924
 3905SOL    HW112401   1.777   3.209   3.893
 3905SOL    HW212402   1.880   3.089   3.937
 3906SOL     OW12403   1.950   3.663   4.651
 3906SOL    HW112404   1.908   3.577   4.624
 3906SOL    HW212405   2.044   3.666   4.617
 3907SOL     OW12406   2.051   2.382   5.446
 3907SOL    HW112407   2.110   2.342   5.376
 3907SOL    HW212408   1.993   2.453   5.405
 3908SOL     OW12409   3.231   2.812   5.384
 3908SOL    HW112410   3.270   2.901   5.404
 3908SOL    HW212411   3.241   2.792   5.287
 3909SOL     OW12412   3.519   2.466   4.930
 3909SOL    HW112413   3.481   2.397   4.992
 3909SOL    HW212414   3.601   2.430   4.886
 3910SOL     OW12415   2.114   3.426   5.468
 3910SOL    HW112416   2.084   3.483   5.544
 3910SOL    HW212417   2.107   3.329   5.494
 3911SOL     OW12418   2.792   3.540   5.189
 3911SOL    HW112419   2.768   3.522   5.094
 3911SOL    HW212420   2.822   3.634   5.199
 3912SOL     OW12421   3.164   2.717   4.033
 3912SOL    HW112422   3.078   2.686   4.075
 3912SOL    HW212423   3.160   2.703   3.934
 3913SOL     OW12424   3.621   3.609   4.878
 3913SOL    HW112425   3.682   3.639   4.805
 3913SOL    HW212426   3.583   3.520   4.856
 3914SOL     OW12427   2.550   3.524   5.440
 3914SOL    HW112428   2.494   3.605   5.449
 3914SOL    HW212429   2.602   3.528   5.354
 3915SOL     OW12430   3.588   1.997   4.247
 3915SOL    HW112431   3.661   1.980   4.180
 3915SOL    HW212432   3.557   1.910   4.285
 3916SOL     OW12433   3.250   3.435   4.201
 3916SOL    HW112434   3.317   3.447   4.127
 3916SOL    HW212435   3.210   3.524   4.224
 3917SOL     OW12436   1.992   3.656   5.575
 3917SOL    HW112437   1.951   3.582   5.628
 3917SOL    HW212438   2.056   3.707   5.633
 3918SOL     OW12439   2.692   3.135   5.146
 3918SOL    HW112440   2.687   3.168   5.241
 3918SOL    HW212441   2.606   3.154   5.100
 3919SOL     OW12442   2.534   3.478   3.878
 3919SOL    HW112443   2.543   3.488   3.779
 3919SOL    HW212444   2.494   3.389   3.899
 3920SOL     OW12445   3.512   3.582   5.118
 3920SOL    HW112446   3.565   3.592   5.034
 3920SOL    HW212447   3.485   3.672   5.152
 3921SOL     OW12448   3.703   2.037   4.687
 3921SOL    HW112449   3.742   1.952   4.651
 3921SOL    HW212450   3.605   2.039   4.668
 3922SOL     OW12451   3.366   3.469   3.768
 3922SOL    HW112452   3.274   3.506   3.775
 3922SOL    HW212453   3.404   3.489   3.678
 3923SOL     OW12454   2.234   3.150   5.214
 3923SOL    HW112455   2.221   3.243   5.180
 3923SOL    HW212456   2.150   3.098   5.201
 3924SOL     OW12457   3.476   3.154   5.013
 3924SOL    HW112458   3.536   3.157   5.093
 3924SOL    HW212459   3.401   3.218   5.026
 3925SOL     OW12460   3.571   2.247   5.105
 3925SOL    HW112461   3.644   2.316   5.109
 3925SOL    HW212462   3.599   2.172   5.046
 3926SOL     OW12463   2.117   3.210   4.014
 3926SOL    HW112464   2.021   3.211   3.987
 3926SOL    HW212465   2.129   3.263   4.098
 3927SOL     OW12466   1.967   2.875   5.450
 3927SOL    HW112467   1.890   2.842   5.504
 3927SOL    HW212468   2.052   2.845   5.492
 3928SOL     OW12469   2.534   2.065   5.213
 3928SOL    HW112470   2.624   2.049   5.173
 3928SOL    HW212471   2.542   2.070   5.312
 3929SOL     OW12472   3.355   3.629   4.683
 3929SOL    HW112473   3.388   3.693   4.614
 3929SOL    HW212474   3.421   3.623   4.758
 3930SOL     OW12475   3.312   3.082   5.357
 3930SOL    HW112476   3.303   3.072   5.456
 3930SOL    HW212477   3.408   3.075   5.331
 3931SOL     OW12478   2.252   3.603   5.284
 3931SOL    HW112479   2.161   3.644   5.282
 3931SOL    HW212480   2.245   3.509   5.316
 3932SOL     OW12481   3.536   2.745   4.978
 3932SOL    HW112482   3.509   2.656   4.941
 3932SOL    HW212483   3.537   2.813   4.905
 3933SOL     OW12484   3.639   2.204   5.366
 3933SOL    HW112485   3.622   2.235   5.272
 3933SOL    HW212486   3.555   2.167   5.404
 3934SOL     OW12487   3.592   2.796   5.241
 3934SOL    HW112488   3.630   2.887   5.256
 3934SOL    HW212489   3.584   2.779   5.142
 3935SOL     OW12490   2.523   3.652   4.677
 3935SOL    HW112491   2.477   3.740   4.664
 3935SOL    HW212492   2.622   3.664   4.670
 3936SOL     OW12493   3.723   3.431   4.575
 3936SOL    HW112494   3.652   3.419   4.505
 3936SOL    HW212495   3.724   3.352   4.635
 3937SOL     OW12496   2.083   3.176   5.568
 3937SOL    HW112497   2.018   3.103   5.547
 3937SOL    HW212498   2.087   3.190   5.666
 3938SOL     OW12499   2.534   3.253   5.348
 3938SOL    HW112500   2.456   3.203   5.386
 3938SOL    HW212501   2.531   3.348   5.379
 3939SOL     OW12502   3.686   2.054   4.951
 3939SOL    HW112503   3.682   1.964   4.995
 3939SOL    HW212504   3.689   2.043   4.852
 3940SOL     OW12505   3.567   3.349   4.828
 3940SOL    HW112506   3.474   3.324   4.801
 3940SOL    HW212507   3.593   3.299   4.910
 3941SOL     OW12508   2.179   2.409   5.004
 3941SOL    HW112509   2.217   2.350   5.076
 3941SOL    HW212510   2.219   2.383   4.916
 3942SOL     OW12511   3.286   2.076   4.836
 3942SOL    HW112512   3.338   2.011   4.891
 3942SOL    HW212513   3.237   2.139   4.897
 3943SOL     OW12514   2.863   1.896   4.878
 3943SOL    HW112515   2.800   1.824   4.847
 3943SOL    HW212516   2.956   1.860   4.878
 3944SOL     OW12517   2.480   3.429   5.008
 3944SOL    HW112518   2.475   3.511   5.065
 3944SOL    HW212519   2.569   3.426   4.963
 3945SOL     OW12520   3.214   1.914   3.892
 3945SOL    HW112521   3.249   1.873   3.808
 3945SOL    HW212522   3.124   1.876   3.912
 3946SOL     OW12523   1.901   2.939   4.024
 3946SOL    HW112524   2.000   2.928   4.015
 3946SOL    HW212525   1.861   2.853   4.056
 3947SOL     OW12526   2.092   2.490   5.699
 3947SOL    HW112527   1.999   2.488   5.736
 3947SOL    HW212528   2.093   2.451   5.607
 3948SOL     OW12529   2.087   2.137   6.582
 3948SOL    HW112530   2.122   2.120   6.674
 3948SOL    HW212531   1.999   2.092   6.570
 3949SOL     OW12532   1.881   2.230   6.233
 3949SOL    HW112533   1.799   2.273   6.272
 3949SOL    HW212534   1.853   2.157   6.170
 3950SOL     OW12535   2.431   3.137   6.751
 3950SOL    HW112536   2.338   3.130   6.714
 3950SOL    HW212537   2.442   3.226   6.795
 3951SOL     OW12538   3.417   3.373   6.289
 3951SOL    HW112539   3.360   3.357   6.370
 3951SOL    HW212540   3.358   3.383   6.209
 3952SOL     OW12541   2.997   2.565   6.303
 3952SOL    HW112542   3.054   2.643   6.278
 3952SOL    HW212543   2.937   2.591   6.379
 3953SOL     OW12544   3.617   2.469   5.817
 3953SOL    HW112545   3.605   2.456   5.718
 3953SOL    HW212546   3.587   2.388   5.866
 3954SOL     OW12547   2.630   3.006   6.609
 3954SOL    HW112548   2.552   3.023   6.669
 3954SOL    HW212549   2.664   3.093   6.573
 3955SOL     OW12550   2.548   3.023   7.389
 3955SOL    HW112551   2.608   3.102   7.403
 3955SOL    HW212552   2.462   3.054   7.348
 3956SOL     OW12553   2.197   3.297   6.647
 3956SOL    HW112554   2.119   3.266   6.594
 3956SOL    HW212555   2.255   3.355   6.590
 3957SOL     OW12556   3.322   3.367   6.925
 3957SOL    HW112557   3.346   3.461   6.951
 3957SOL    HW212558   3.306   3.313   7.007
 3958SOL     OW12559   2.300   2.254   7.085
 3958SOL    HW112560   2.382   2.198   7.094
 3958SOL    HW212561   2.219   2.196   7.089
 3959SOL     OW12562   3.465   2.309   6.323
 3959SOL    HW112563   3.391   2.355   6.273
 3959SOL    HW212564   3.516   2.377   6.376
 3960SOL     OW12565   2.093   3.575   6.069
 3960SOL    HW112566   2.127   3.652   6.123
 3960SOL    HW212567   2.137   3.575   5.979
 3961SOL     OW12568   2.989   3.203   7.276
 3961SOL    HW112569   3.036   3.203   7.364
 3961SOL    HW212570   2.941   3.116   7.265
 3962SOL     OW12571   2.092   3.296   6.124
 3962SOL    HW112572   2.066   3.392   6.124
 3962SOL    HW212573   2.021   3.242   6.169
 3963SOL     OW12574   2.102   2.953   6.472
 3963SOL    HW112575   2.116   2.869   6.524
 3963SOL    HW212576   2.047   3.017   6.527
 3964SOL     OW12577   2.482   3.648   7.025
 3964SOL    HW112578   2.390   3.631   7.060
 3964SOL    HW212579   2.510   3.740   7.051
 3965SOL     OW12580   2.468   2.826   5.709
 3965SOL    HW112581   2.475   2.910   5.655
 3965SOL    HW212582   2.514   2.839   5.797
 3966SOL     OW12583   3.456   1.976   7.066
 3966SOL    HW112584   3.438   2.043   6.994
 3966SOL    HW212585   3.453   2.022   7.155
 3967SOL     OW12586   1.984   2.505   6.149
 3967SOL    HW112587   1.939   2.417   6.166
 3967SOL    HW212588   1.983   2.559   6.233
 3968SOL     OW12589   3.704   3.629   5.945
 3968SOL    HW112590   3.758   3.600   6.025
 3968SOL    HW212591   3.734   3.719   5.916
 3969SOL     OW12592   1.889   3.458   5.703
 3969SOL    HW112593   1.870   3.362   5.724
 3969SOL    HW212594   1.856   3.516   5.778
 3970SOL     OW12595   3.551   2.784   6.198
 3970SOL    HW112596   3.646   2.755   6.206
 3970SOL    HW212597   3.543   2.849   6.123
 3971SOL     OW12598   3.503   2.970   6.018
 3971SOL    HW112599   3.589   2.972   5.966
 3971SOL    HW212600   3.517   3.017   6.106
 3972SOL     OW12601   1.975   2.599   7.183
 3972SOL    HW112602   2.063   2.586   7.228
 3972SOL    HW212603   1.962   2.696   7.161
 3973SOL     OW12604   2.475   3.227   6.312
 3973SOL    HW112605   2.426   3.140   6.321
 3973SOL    HW212606   2.452   3.270   6.225
 3974SOL     OW12607   3.155   3.090   7.009
 3974SOL    HW112608   3.192   3.017   6.951
 3974SOL    HW212609   3.207   3.095   7.094
 3975SOL     OW12610   2.671   1.866   6.088
 3975SOL    HW112611   2.711   1.957   6.079
 3975SOL    HW212612   2.571   1.874   6.094
 3976SOL     OW12613   2.059   2.838   6.850
 3976SOL    HW112614   2.148   2.793   6.836
 3976SOL    HW212615   1.986   2.773   6.831
 3977SOL     OW12616   3.387   2.861   5.776
 3977SOL    HW112617   3.324   2.785   5.789
 3977SOL    HW212618   3.435   2.879   5.862
 3978SOL     OW12619   3.049   3.654   7.202
 3978SOL    HW112620   3.073   3.714   7.126
 3978SOL    HW212621   3.056   3.559   7.172
 3979SOL     OW12622   2.179   2.113   7.387
 3979SOL    HW112623   2.250   2.184   7.393
 3979SOL    HW212624   2.091   2.152   7.415
 3980SOL     OW12625   3.328   3.279   6.539
 3980SOL    HW112626   3.269   3.285   6.619
 3980SOL    HW212627   3.313   3.191   6.493
 3981SOL     OW12628   3.529   3.576   6.158
 3981SOL    HW112629   3.488   3.553   6.070
 3981SOL    HW212630   3.511   3.502   6.223
 3982SOL     OW12631   3.143   2.207   6.530
 3982SOL    HW112632   3.057   2.157   6.517
 3982SOL    HW212633   3.205   2.153   6.586
 3983SOL     OW12634   3.438   3.524   5.893
 3983SOL    HW112635   3.527   3.570   5.896
 3983SOL    HW212636   3.417   3.500   5.798
 3984SOL     OW12637   3.256   2.331   7.260
 3984SOL    HW112638   3.236   2.374   7.348
 3984SOL    HW212639   3.334   2.269   7.269
 3985SOL     OW12640   2.853   2.272   6.828
 3985SOL    HW112641   2.776   2.306   6.882
 3985SOL    HW212642   2.819   2.221   6.749
 3986SOL     OW12643   1.938   2.673   6.375
 3986SOL    HW112644   2.037   2.661   6.384
 3986SOL    HW212645   1.914   2.768   6.396
 3987SOL     OW12646   1.992   3.683   7.157
 3987SOL    HW112647   1.982   3.668   7.256
 3987SOL    HW212648   1.906   3.719   7.121
 3988SOL     OW12649   2.727   2.210   5.781
 3988SOL    HW112650   2.786   2.273   5.732
 3988SOL    HW212651   2.746   2.116   5.752
 3989SOL     OW12652   3.581   2.447   7.417
 3989SOL    HW112653   3.555   2.536   7.381
 3989SOL    HW212654   3.579   2.379   7.344
 3990SOL     OW12655   3.224   3.006   6.131
 3990SOL    HW112656   3.307   2.977   6.083
 3990SOL    HW212657   3.175   3.073   6.075
 3991SOL     OW12658   2.412   2.058   6.471
 3991SOL    HW112659   2.407   2.053   6.571
 3991SOL    HW212660   2.414   2.154   6.442
 3992SOL     OW12661   2.870   3.318   6.063
 3992SOL    HW112662   2.824   3.390   6.011
 3992SOL    HW212663   2.866   3.338   6.161
 3993SOL     OW12664   2.213   3.663   6.439
 3993SOL    HW112665   2.263   3.577   6.445
 3993SOL    HW212666   2.278   3.740   6.436
 3994SOL     OW12667   3.657   2.928   6.459
 3994SOL    HW112668   3.595   2.913   6.383
 3994SOL    HW212669   3.605   2.939   6.544
 3995SOL     OW12670   3.089   3.412   7.092
 3995SOL    HW112671   3.095   3.335   7.156
 3995SOL    HW212672   3.037   3.386   7.012
 3996SOL     OW12673   2.183   2.805   5.828
 3996SOL    HW112674   2.265   2.844   5.786
 3996SOL    HW212675   2.156   2.723   5.779
 3997SOL     OW12676   3.320   2.597   6.314
 3997SOL    HW112677   3.315   2.532   6.389
 3997SOL    HW212678   3.400   2.656   6.327
 3998SOL     OW12679   2.323   3.128   7.313
 3998SOL    HW112680   2.273   3.129   7.227
 3998SOL    HW212681   2.260   3.110   7.389
 3999SOL     OW12682   2.973   3.638   5.823
 3999SOL    HW112683   2.913   3.576   5.873
 3999SOL    HW212684   3.004   3.594   5.738
 4000SOL     OW12685   2.064   2.147   7.084
 4000SOL    HW112686   1.984   2.207   7.071
 4000SOL    HW212687   2.054   2.098   7.170
 4001SOL     OW12688   3.494   3.239   5.667
 4001SOL    HW112689   3.462   3.333   5.657
 4001SOL    HW212690   3.418   3.176   5.655
 4002SOL     OW12691   2.326   3.605   5.909
 4002SOL    HW112692   2.359   3.644   5.995
 4002SOL    HW212693   2.402   3.598   5.844
 4003SOL     OW12694   3.262   1.969   6.012
 4003SOL    HW112695   3.238   1.932   5.922
 4003SOL    HW212696   3.361   1.985   6.016
 4004SOL     OW12697   2.111   3.647   6.827
 4004SOL    HW112698   2.168   3.582   6.877
 4004SOL    HW212699   2.095   3.614   6.734
 4005SOL     OW12700   2.802   3.560   6.490
 4005SOL    HW112701   2.882   3.503   6.511
 4005SOL    HW212702   2.753   3.520   6.413
 4006SOL     OW12703   2.244   2.562   6.066
 4006SOL    HW112704   2.289   2.472   6.063
 4006SOL    HW212705   2.150   2.551   6.099
 4007SOL     OW12706   3.409   2.084   7.315
 4007SOL    HW112707   3.404   2.121   7.407
 4007SOL    HW212708   3.337   2.015   7.303
 4008SOL     OW12709   2.476   1.984   5.703
 4008SOL    HW112710   2.574   1.962   5.710
 4008SOL    HW212711   2.445   1.967   5.610
 4009SOL     OW12712   2.643   2.126   7.335
 4009SOL    HW112713   2.710   2.065   7.378
 4009SOL    HW212714   2.570   2.145   7.400
 4010SOL     OW12715   2.750   3.376   6.781
 4010SOL    HW112716   2.727   3.351   6.687
 4010SOL    HW212717   2.811   3.307   6.820
 4011SOL     OW12718   3.213   2.452   7.019
 4011SOL    HW112719   3.241   2.409   7.104
 4011SOL    HW212720   3.238   2.548   7.020
 4012SOL     OW12721   2.665   3.264   6.510
 4012SOL    HW112722   2.755   3.278   6.468
 4012SOL    HW212723   2.594   3.266   6.439
 4013SOL     OW12724   2.784   2.365   6.485
 4013SOL    HW112725   2.759   2.356   6.389
 4013SOL    HW212726   2.832   2.283   6.516
 4014SOL     OW12727   2.401   1.926   6.098
 4014SOL    HW112728   2.320   1.927   6.156
 4014SOL    HW212729   2.404   2.009   6.043
 4015SOL     OW12730   3.296   3.050   5.627
 4015SOL    HW112731   3.328   2.974   5.684
 4015SOL    HW212732   3.204   3.077   5.657
 4016SOL     OW12733   2.159   1.897   5.757
 4016SOL    HW112734   2.208   1.981   5.736
 4016SOL    HW212735   2.221   1.832   5.802
 4017SOL     OW12736   2.797   2.098   6.066
 4017SOL    HW112737   2.749   2.139   5.988
 4017SOL    HW212738   2.896   2.096   6.047
 4018SOL     OW12739   2.938   2.545   7.050
 4018SOL    HW112740   2.858   2.484   7.053
 4018SOL    HW212741   3.019   2.492   7.026
 4019SOL     OW12742   3.089   3.432   6.379
 4019SOL    HW112743   3.110   3.506   6.314
 4019SOL    HW212744   3.157   3.432   6.452
 4020SOL     OW12745   2.321   3.014   6.327
 4020SOL    HW112746   2.250   2.987   6.392
 4020SOL    HW212747   2.295   2.986   6.234
 4021SOL     OW12748   3.133   3.659   6.177
 4021SOL    HW112749   3.177   3.723   6.113
 4021SOL    HW212750   3.083   3.711   6.247
 4022SOL     OW12751   2.894   2.411   5.602
 4022SOL    HW112752   2.853   2.493   5.563
 4022SOL    HW212753   2.958   2.437   5.675
 4023SOL     OW12754   1.940   2.418   6.972
 4023SOL    HW112755   2.032   2.417   6.931
 4023SOL    HW212756   1.934   2.492   7.039
 4024SOL     OW12757   2.423   2.084   6.733
 4024SOL    HW112758   2.461   2.000   6.770
 4024SOL    HW212759   2.335   2.103   6.777
 4025SOL     OW12760   2.728   2.316   6.228
 4025SOL    HW112761   2.696   2.388   6.166
 4025SOL    HW212762   2.752   2.235   6.175
 4026SOL     OW12763   2.879   1.901   6.339
 4026SOL    HW112764   2.807   1.906   6.270
 4026SOL    HW212765   2.855   1.832   6.408
 4027SOL     OW12766   3.291   3.035   6.453
 4027SOL    HW112767   3.236   2.951   6.446
 4027SOL    HW212768   3.317   3.064   6.361
 4028SOL     OW12769   3.328   2.452   6.578
 4028SOL    HW112770   3.298   2.357   6.585
 4028SOL    HW212771   3.401   2.468   6.644
 4029SOL     OW12772   3.719   2.695   5.963
 4029SOL    HW112773   3.761   2.631   6.027
 4029SOL    HW212774   3.681   2.644   5.885
 4030SOL     OW12775   2.350   3.247   5.760
 4030SOL    HW112776   2.263   3.232   5.807
 4030SOL    HW212777   2.333   3.273   5.665
 4031SOL     OW12778   3.526   3.142   6.243
 4031SOL    HW112779   3.625   3.150   6.257
 4031SOL    HW212780   3.481   3.226   6.274
 4032SOL     OW12781   3.252   2.437   5.664
 4032SOL    HW112782   3.198   2.416   5.745
 4032SOL    HW212783   3.343   2.396   5.673
 4033SOL     OW12784   2.389   2.118   5.914
 4033SOL    HW112785   2.416   2.059   5.839
 4033SOL    HW212786   2.389   2.213   5.883
 4034SOL     OW12787   3.616   3.085   7.174
 4034SOL    HW112788   3.707   3.046   7.161
 4034SOL    HW212789   3.624   3.181   7.198
 4035SOL     OW12790   2.926   3.209   6.926
 4035SOL    HW112791   2.846   3.186   6.981
 4035SOL    HW212792   3.009   3.183   6.975
 4036SOL     OW12793   3.454   3.491   7.211
 4036SOL    HW112794   3.481   3.525   7.121
 4036SOL    HW212795   3.533   3.453   7.257
 4037SOL     OW12796   2.973   3.057   6.686
 4037SOL    HW112797   2.933   3.101   6.767
 4037SOL    HW212798   2.932   3.094   6.603
 4038SOL     OW12799   3.500   2.961   6.665
 4038SOL    HW112800   3.505   3.042   6.724
 4038SOL    HW212801   3.414   2.963   6.614
 4039SOL     OW12802   2.777   1.951   6.988
 4039SOL    HW112803   2.802   1.931   6.893
 4039SOL    HW212804   2.849   2.007   7.030
 4040SOL     OW12805   2.842   2.978   7.305
 4040SOL    HW112806   2.743   2.984   7.315
 4040SOL    HW212807   2.865   2.898   7.249
 4041SOL     OW12808   2.272   2.675   6.837
 4041SOL    HW112809   2.358   2.687   6.887
 4041SOL    HW212810   2.230   2.588   6.864
 4042SOL     OW12811   3.136   2.248   6.848
 4042SOL    HW112812   3.157   2.322   6.912
 4042SOL    HW212813   3.047   2.265   6.805
 4043SOL     OW12814   1.926   3.426   6.917
 4043SOL    HW112815   1.880   3.508   6.883
 4043SOL    HW212816   2.024   3.445   6.926
 4044SOL     OW12817   2.229   2.962   6.087
 4044SOL    HW112818   2.222   3.045   6.031
 4044SOL    HW212819   2.233   2.882   6.027
 4045SOL     OW12820   2.428   2.399   6.451
 4045SOL    HW112821   2.440   2.465   6.377
 4045SOL    HW212822   2.474   2.433   6.534
 4046SOL     OW12823   3.114   3.210   5.974
 4046SOL    HW112824   3.164   3.287   6.014
 4046SOL    HW212825   3.019   3.212   6.006
 4047SOL     OW12826   3.134   3.307   6.728
 4047SOL    HW112827   3.181   3.320   6.815
 4047SOL    HW212828   3.068   3.233   6.737
 4048SOL     OW12829   3.444   2.501   6.058
 4048SOL    HW112830   3.413   2.562   6.131
 4048SOL    HW212831   3.494   2.553   5.989
 4049SOL     OW12832   2.216   3.372   6.915
 4049SOL    HW112833   2.195   3.328   6.828
 4049SOL    HW212834   2.313   3.398   6.918
 4050SOL     OW12835   2.264   2.613   7.184
 4050SOL    HW112836   2.332   2.668   7.137
 4050SOL    HW212837   2.304   2.525   7.211
 4051SOL     OW12838   3.449   2.641   7.256
 4051SOL    HW112839   3.357   2.679   7.251
 4051SOL    HW212840   3.509   2.688   7.191
 4052SOL     OW12841   2.875   1.967   7.356
 4052SOL    HW112842   2.881   2.052   7.304
 4052SOL    HW212843   2.907   1.891   7.299
 4053SOL     OW12844   2.366   1.912   7.326
 4053SOL    HW112845   2.324   1.855   7.256
 4053SOL    HW212846   2.300   1.981   7.358
 4054SOL     OW12847   3.222   2.724   6.631
 4054SOL    HW112848   3.147   2.724   6.565
 4054SOL    HW212849   3.259   2.632   6.640
 4055SOL     OW12850   3.071   2.387   5.861
 4055SOL    HW112851   3.084   2.303   5.915
 4055SOL    HW212852   3.042   2.461   5.921
 4056SOL     OW12853   2.169   2.075   6.817
 4056SOL    HW112854   2.146   2.112   6.907
 4056SOL    HW212855   2.139   1.980   6.811
 4057SOL     OW12856   1.899   3.172   6.868
 4057SOL    HW112857   1.952   3.123   6.936
 4057SOL    HW212858   1.921   3.270   6.873
 4058SOL     OW12859   3.590   2.797   7.440
 4058SOL    HW112860   3.544   2.790   7.351
 4058SOL    HW212861   3.528   2.841   7.506
 4059SOL     OW12862   2.169   1.925   6.204
 4059SOL    HW112863   2.158   2.019   6.237
 4059SOL    HW212864   2.164   1.862   6.281
 4060SOL     OW12865   3.484   2.229   5.960
 4060SOL    HW112866   3.486   2.153   6.024
 4060SOL    HW212867   3.436   2.306   6.000
 4061SOL     OW12868   2.842   3.435   7.286
 4061SOL    HW112869   2.822   3.479   7.198
 4061SOL    HW212870   2.881   3.344   7.270
 4062SOL     OW12871   3.721   3.380   7.191
 4062SOL    HW112872   3.735   3.407   7.096
 4062SOL    HW212873   3.804   3.402   7.244
 4063SOL     OW12874   2.212   2.760   7.390
 4063SOL    HW112875   2.288   2.804   7.438
 4063SOL    HW212876   2.247   2.713   7.308
 4064SOL     OW12877   3.402   2.136   5.711
 4064SOL    HW112878   3.341   2.061   5.734
 4064SOL    HW212879   3.424   2.188   5.794
 4065SOL     OW12880   3.165   2.700   5.628
 4065SOL    HW112881   3.199   2.607   5.643
 4065SOL    HW212882   3.183   2.727   5.533
 4066SOL     OW12883   2.930   3.195   6.435
 4066SOL    HW112884   2.937   3.111   6.380
 4066SOL    HW212885   2.992   3.264   6.399
 4067SOL     OW12886   2.181   2.672   6.535
 4067SOL    HW112887   2.274   2.708   6.540
 4067SOL    HW212888   2.175   2.587   6.587
 4068SOL     OW12889   2.201   2.371   6.592
 4068SOL    HW112890   2.149   2.288   6.575
 4068SOL    HW212891   2.278   2.376   6.528
 4069SOL     OW12892   3.000   2.242   7.264
 4069SOL    HW112893   2.955   2.305   7.328
 4069SOL    HW212894   3.093   2.273   7.247
 4070SOL     OW12895   3.022   2.069   7.063
 4070SOL    HW112896   3.022   2.133   7.140
 4070SOL    HW212897   3.050   2.117   6.980
 4071SOL     OW12898   1.870   3.188   5.786
 4071SOL    HW112899   1.777   3.209   5.755
 4071SOL    HW212900   1.880   3.089   5.799
 4072SOL     OW12901   1.950   3.663   6.513
 4072SOL    HW112902   1.908   3.577   6.486
 4072SOL    HW212903   2.044   3.666   6.479
 4073SOL     OW12904   2.366   3.430   6.496
 4073SOL    HW112905   2.432   3.504   6.505
 4073SOL    HW212906   2.410   3.351   6.454
 4074SOL     OW12907   1.902   2.406   6.700
 4074SOL    HW112908   1.987   2.373   6.659
 4074SOL    HW212909   1.915   2.421   6.798
 4075SOL     OW12910   2.051   2.382   7.308
 4075SOL    HW112911   2.110   2.342   7.238
 4075SOL    HW212912   1.993   2.453   7.267
 4076SOL     OW12913   3.231   2.812   7.246
 4076SOL    HW112914   3.270   2.901   7.266
 4076SOL    HW212915   3.241   2.792   7.149
 4077SOL     OW12916   2.677   2.434   5.911
 4077SOL    HW112917   2.684   2.345   5.865
 4077SOL    HW212918   2.583   2.468   5.903
 4078SOL     OW12919   3.519   2.466   6.792
 4078SOL    HW112920   3.481   2.397   6.854
 4078SOL    HW212921   3.601   2.430   6.748
 4079SOL     OW12922   2.114   3.426   7.330
 4079SOL    HW112923   2.084   3.483   7.406
 4079SOL    HW212924   2.107   3.329   7.356
 4080SOL     OW12925   2.533   2.326   6.855
 4080SOL    HW112926   2.499   2.237   6.825
 4080SOL    HW212927   2.559   2.380   6.775
 4081SOL     OW12928   2.792   3.540   7.051
 4081SOL    HW112929   2.768   3.522   6.956
 4081SOL    HW212930   2.822   3.634   7.061
 4082SOL     OW12931   2.335   2.362   5.777
 4082SOL    HW112932   2.396   2.442   5.781
 4082SOL    HW212933   2.240   2.393   5.784
 4083SOL     OW12934   2.021   2.999   7.052
 4083SOL    HW112935   2.043   2.938   7.128
 4083SOL    HW212936   2.031   2.950   6.966
 4084SOL     OW12937   3.209   2.921   6.820
 4084SOL    HW112938   3.233   2.858   6.746
 4084SOL    HW212939   3.119   2.961   6.802
 4085SOL     OW12940   3.164   2.717   5.895
 4085SOL    HW112941   3.078   2.686   5.937
 4085SOL    HW212942   3.160   2.703   5.796
 4086SOL     OW12943   3.621   3.609   6.740
 4086SOL    HW112944   3.682   3.639   6.667
 4086SOL    HW212945   3.583   3.520   6.718
 4087SOL     OW12946   3.114   3.593   6.714
 4087SOL    HW112947   3.198   3.598   6.660
 4087SOL    HW212948   3.091   3.497   6.732
 4088SOL     OW12949   1.945   3.120   6.608
 4088SOL    HW112950   1.940   3.119   6.708
 4088SOL    HW212951   1.862   3.079   6.570
 4089SOL     OW12952   2.550   3.524   7.302
 4089SOL    HW112953   2.494   3.605   7.311
 4089SOL    HW212954   2.602   3.528   7.216
 4090SOL     OW12955   3.588   1.997   6.109
 4090SOL    HW112956   3.661   1.980   6.042
 4090SOL    HW212957   3.557   1.910   6.147
 4091SOL     OW12958   3.250   3.435   6.063
 4091SOL    HW112959   3.317   3.447   5.989
 4091SOL    HW212960   3.210   3.524   6.086
 4092SOL     OW12961   1.992   3.656   7.437
 4092SOL    HW112962   1.951   3.582   7.490
 4092SOL    HW212963   2.056   3.707   7.495
 4093SOL     OW12964   3.142   2.789   6.258
 4093SOL    HW112965   3.202   2.708   6.260
 4093SOL    HW212966   3.182   2.858   6.198
 4094SOL     OW12967   2.692   3.135   7.008
 4094SOL    HW112968   2.687   3.168   7.103
 4094SOL    HW212969   2.606   3.154   6.962
 4095SOL     OW12970   2.534   3.478   5.740
 4095SOL    HW112971   2.543   3.488   5.641
 4095SOL    HW212972   2.494   3.389   5.761
 4096SOL     OW12973   3.512   3.582   6.980
 4096SOL    HW112974   3.565   3.592   6.896
 4096SOL    HW212975   3.485   3.672   7.014
 4097SOL     OW12976   3.703   2.037   6.549
 4097SOL    HW112977   3.742   1.952   6.513
 4097SOL    HW212978   3.605   2.039   6.530
 4098SOL     OW12979   2.125   2.188   6.306
 4098SOL    HW112980   2.046   2.239   6.272
 4098SOL    HW212981   2.116   2.173   6.404
 4099SOL     OW12982   3.056   3.474   5.617
 4099SOL    HW112983   3.062   3.381   5.654
 4099SOL    HW212984   2.997   3.474   5.537
 4100SOL     OW12985   3.366   3.469   5.630
 4100SOL    HW112986   3.274   3.506   5.637
 4100SOL    HW212987   3.404   3.489   5.540
 4101SOL     OW12988   2.234   3.150   7.076
 4101SOL    HW112989   2.221   3.243   7.042
 4101SOL    HW212990   2.150   3.098   7.063
 4102SOL     OW12991   3.476   3.154   6.875
 4102SOL    HW112992   3.536   3.157   6.955
 4102SOL    HW212993   3.401   3.218   6.888
 4103SOL     OW12994   2.901   2.960   6.282
 4103SOL    HW112995   2.831   2.913   6.336
 4103SOL    HW212996   2.960   2.892   6.239
 4104SOL     OW12997   2.876   2.098   6.557
 4104SOL    HW112998   2.868   2.062   6.464
 4104SOL    HW212999   2.874   2.022   6.622
 4105SOL     OW13000   2.452   3.349   6.077
 4105SOL    HW113001   2.494   3.291   6.007
 4105SOL    HW213002   2.408   3.428   6.033
 4106SOL     OW13003   3.571   2.247   6.967
 4106SOL    HW113004   3.644   2.316   6.971
 4106SOL    HW213005   3.599   2.172   6.908
 4107SOL     OW13006   2.117   3.210   5.876
 4107SOL    HW113007   2.021   3.211   5.849
 4107SOL    HW213008   2.129   3.263   5.960
 4108SOL     OW13009   1.967   2.875   7.312
 4108SOL    HW113010   1.890   2.842   7.366
 4108SOL    HW213011   2.052   2.845   7.354
 4109SOL     OW13012   2.534   2.065   7.075
 4109SOL    HW113013   2.624   2.049   7.035
 4109SOL    HW213014   2.542   2.070   7.174
 4110SOL     OW13015   1.937   2.207   5.619
 4110SOL    HW113016   1.845   2.179   5.590
 4110SOL    HW213017   1.968   2.284   5.563
 4111SOL     OW13018   3.302   2.718   6.984
 4111SOL    HW113019   3.245   2.770   6.921
 4111SOL    HW213020   3.398   2.730   6.960
 4112SOL     OW13021   1.934   2.028   5.904
 4112SOL    HW113022   1.917   2.111   5.850
 4112SOL    HW213023   2.024   1.991   5.882
 4113SOL     OW13024   3.045   3.197   5.705
 4113SOL    HW113025   2.946   3.186   5.707
 4113SOL    HW213026   3.079   3.212   5.798
 4114SOL     OW13027   3.355   3.629   6.545
 4114SOL    HW113028   3.388   3.693   6.476
 4114SOL    HW213029   3.421   3.623   6.620
 4115SOL     OW13030   3.312   3.082   7.219
 4115SOL    HW113031   3.303   3.072   7.318
 4115SOL    HW213032   3.408   3.075   7.193
 4116SOL     OW13033   2.252   3.603   7.146
 4116SOL    HW113034   2.161   3.644   7.144
 4116SOL    HW213035   2.245   3.509   7.178
 4117SOL     OW13036   3.536   2.745   6.840
 4117SOL    HW113037   3.509   2.656   6.803
 4117SOL    HW213038   3.537   2.813   6.767
 4118SOL     OW13039   3.087   2.187   6.035
 4118SOL    HW113040   3.152   2.113   6.024
 4118SOL    HW213041   3.107   2.237   6.119
 4119SOL     OW13042   3.639   2.204   7.228
 4119SOL    HW113043   3.622   2.235   7.134
 4119SOL    HW213044   3.555   2.167   7.266
 4120SOL     OW13045   3.592   2.796   7.103
 4120SOL    HW113046   3.630   2.887   7.118
 4120SOL    HW213047   3.584   2.779   7.004
 4121SOL     OW13048   2.721   3.236   5.602
 4121SOL    HW113049   2.675   3.251   5.690
 4121SOL    HW213050   2.765   3.321   5.572
 4122SOL     OW13051   2.523   3.652   6.539
 4122SOL    HW113052   2.477   3.740   6.526
 4122SOL    HW213053   2.622   3.664   6.532
 4123SOL     OW13054   2.945   2.846   5.673
 4123SOL    HW113055   2.922   2.899   5.591
 4123SOL    HW213056   3.026   2.790   5.654
 4124SOL     OW13057   3.723   3.431   6.437
 4124SOL    HW113058   3.652   3.419   6.367
 4124SOL    HW213059   3.724   3.352   6.497
 4125SOL     OW13060   2.083   3.176   7.430
 4125SOL    HW113061   2.018   3.103   7.409
 4125SOL    HW213062   2.087   3.190   7.528
 4126SOL     OW13063   1.941   3.102   6.239
 4126SOL    HW113064   1.940   3.055   6.327
 4126SOL    HW213065   2.023   3.074   6.188
 4127SOL     OW13066   2.534   3.253   7.210
 4127SOL    HW113067   2.456   3.203   7.248
 4127SOL    HW213068   2.531   3.348   7.241
 4128SOL     OW13069   3.686   2.054   6.813
 4128SOL    HW113070   3.682   1.964   6.857
 4128SOL    HW213071   3.689   2.043   6.714
 4129SOL     OW13072   2.290   2.286   6.106
 4129SOL    HW113073   2.320   2.214   6.044
 4129SOL    HW213074   2.251   2.246   6.189
 4130SOL     OW13075   3.567   3.349   6.690
 4130SOL    HW113076   3.474   3.324   6.663
 4130SOL    HW213077   3.593   3.299   6.772
 4131SOL     OW13078   2.179   2.409   6.866
 4131SOL    HW113079   2.217   2.350   6.938
 4131SOL    HW213080   2.219   2.383   6.778
 4132SOL     OW13081   2.674   3.448   6.273
 4132SOL    HW113082   2.706   3.458   6.179
 4132SOL    HW213083   2.595   3.386   6.275
 4133SOL     OW13084   3.286   2.076   6.698
 4133SOL    HW113085   3.338   2.011   6.753
 4133SOL    HW213086   3.237   2.139   6.759
 4134SOL     OW13087   2.863   1.896   6.740
 4134SOL    HW113088   2.800   1.824   6.709
 4134SOL    HW213089   2.956   1.860   6.740
 4135SOL     OW13090   2.632   3.192   5.887
 4135SOL    HW113091   2.586   3.105   5.904
 4135SOL    HW213092   2.723   3.189   5.928
 4136SOL     OW13093   2.480   3.429   6.870
 4136SOL    HW113094   2.475   3.511   6.927
 4136SOL    HW213095   2.569   3.426   6.825
 4137SOL     OW13096   3.214   1.914   5.754
 4137SOL    HW113097   3.249   1.873   5.670
 4137SOL    HW213098   3.124   1.876   5.774
 4138SOL     OW13099   3.162   2.315   6.277
 4138SOL    HW113100   3.103   2.395   6.281
 4138SOL    HW213101   3.177   2.280   6.370
 4139SOL     OW13102   3.455   2.083   6.468
 4139SOL    HW113103   3.371   2.082   6.522
 4139SOL    HW213104   3.457   2.166   6.412
 4140SOL     OW13105   1.901   2.939   5.886
 4140SOL    HW113106   2.000   2.928   5.877
 4140SOL    HW213107   1.861   2.853   5.918
 4141SOL     OW13108   2.737   3.508   5.923
 4141SOL    HW113109   2.660   3.473   5.869
 4141SOL    HW213110   2.705   3.579   5.985
 4142SOL     OW13111   2.092   2.490   7.561
 4142SOL    HW113112   1.999   2.488   7.598
 4142SOL    HW213113   2.093   2.451   7.469
 4143SOL     OW13114   3.617   2.469   7.679
 4143SOL    HW113115   3.605   2.456   7.580
 4143SOL    HW213116   3.587   2.388   7.728
 4144SOL     OW13117   2.093   3.575   7.931
 4144SOL    HW113118   2.127   3.652   7.985
 4144SOL    HW213119   2.137   3.575   7.841
 4145SOL     OW13120   2.092   3.296   7.986
 4145SOL    HW113121   2.066   3.392   7.986
 4145SOL    HW213122   2.021   3.242   8.031
 4146SOL     OW13123   2.468   2.826   7.571
 4146SOL    HW113124   2.475   2.910   7.517
 4146SOL    HW213125   2.514   2.839   7.659
 4147SOL     OW13126   3.704   3.629   7.807
 4147SOL    HW113127   3.758   3.600   7.887
 4147SOL    HW213128   3.734   3.719   7.778
 4148SOL     OW13129   1.889   3.458   7.565
 4148SOL    HW113130   1.870   3.362   7.586
 4148SOL    HW213131   1.856   3.516   7.640
 4149SOL     OW13132   3.551   2.784   8.060
 4149SOL    HW113133   3.646   2.755   8.068
 4149SOL    HW213134   3.543   2.849   7.985
 4150SOL     OW13135   3.503   2.970   7.880
 4150SOL    HW113136   3.589   2.972   7.828
 4150SOL    HW213137   3.517   3.017   7.968
 4151SOL     OW13138   2.671   1.866   7.950
 4151SOL    HW113139   2.711   1.957   7.941
 4151SOL    HW213140   2.571   1.874   7.956
 4152SOL     OW13141   3.387   2.861   7.638
 4152SOL    HW113142   3.324   2.785   7.651
 4152SOL    HW213143   3.435   2.879   7.724
 4153SOL     OW13144   3.438   3.524   7.755
 4153SOL    HW113145   3.527   3.570   7.758
 4153SOL    HW213146   3.417   3.500   7.660
 4154SOL     OW13147   1.938   2.673   8.237
 4154SOL    HW113148   2.037   2.661   8.246
 4154SOL    HW213149   1.914   2.768   8.258
 4155SOL     OW13150   2.727   2.210   7.643
 4155SOL    HW113151   2.786   2.273   7.594
 4155SOL    HW213152   2.746   2.116   7.614
 4156SOL     OW13153   2.183   2.805   7.690
 4156SOL    HW113154   2.265   2.844   7.648
 4156SOL    HW213155   2.156   2.723   7.641
 4157SOL     OW13156   2.973   3.638   7.685
 4157SOL    HW113157   2.913   3.576   7.735
 4157SOL    HW213158   3.004   3.594   7.600
 4158SOL     OW13159   3.494   3.239   7.529
 4158SOL    HW113160   3.462   3.333   7.519
 4158SOL    HW213161   3.418   3.176   7.517
 4159SOL     OW13162   2.326   3.605   7.771
 4159SOL    HW113163   2.359   3.644   7.857
 4159SOL    HW213164   2.402   3.598   7.706
 4160SOL     OW13165   3.262   1.969   7.874
 4160SOL    HW113166   3.238   1.932   7.784
 4160SOL    HW213167   3.361   1.985   7.878
 4161SOL     OW13168   2.244   2.562   7.928
 4161SOL    HW113169   2.289   2.472   7.925
 4161SOL    HW213170   2.150   2.551   7.961
 4162SOL     OW13171   2.476   1.984   7.565
 4162SOL    HW113172   2.574   1.962   7.572
 4162SOL    HW213173   2.445   1.967   7.472
 4163SOL     OW13174   2.401   1.926   7.960
 4163SOL    HW113175   2.320   1.927   8.018
 4163SOL    HW213176   2.404   2.009   7.905
 4164SOL     OW13177   3.296   3.050   7.489
 4164SOL    HW113178   3.328   2.974   7.546
 4164SOL    HW213179   3.204   3.077   7.519
 4165SOL     OW13180   2.159   1.897   7.619
 4165SOL    HW113181   2.208   1.981   7.598
 4165SOL    HW213182   2.221   1.832   7.664
 4166SOL     OW13183   2.797   2.098   7.928
 4166SOL    HW113184   2.749   2.139   7.850
 4166SOL    HW213185   2.896   2.096   7.909
 4167SOL     OW13186   2.321   3.014   8.189
 4167SOL    HW113187   2.250   2.987   8.254
 4167SOL    HW213188   2.295   2.986   8.096
 4168SOL     OW13189   3.133   3.659   8.039
 4168SOL    HW113190   3.177   3.723   7.975
 4168SOL    HW213191   3.083   3.711   8.109
 4169SOL     OW13192   2.894   2.411   7.464
 4169SOL    HW113193   2.853   2.493   7.425
 4169SOL    HW213194   2.958   2.437   7.537
 4170SOL     OW13195   3.719   2.695   7.825
 4170SOL    HW113196   3.761   2.631   7.889
 4170SOL    HW213197   3.681   2.644   7.747
 4171SOL     OW13198   2.350   3.247   7.622
 4171SOL    HW113199   2.263   3.232   7.669
 4171SOL    HW213200   2.333   3.273   7.527
 4172SOL     OW13201   3.252   2.437   7.526
 4172SOL    HW113202   3.198   2.416   7.607
 4172SOL    HW213203   3.343   2.396   7.535
 4173SOL     OW13204   2.389   2.118   7.776
 4173SOL    HW113205   2.416   2.059   7.701
 4173SOL    HW213206   2.389   2.213   7.745
 4174SOL     OW13207   2.567   2.912   7.816
 4174SOL    HW113208   2.553   2.919   7.915
 4174SOL    HW213209   2.651   2.861   7.798
 4175SOL     OW13210   2.229   2.962   7.949
 4175SOL    HW113211   2.222   3.045   7.893
 4175SOL    HW213212   2.233   2.882   7.889
 4176SOL     OW13213   3.114   3.210   7.836
 4176SOL    HW113214   3.164   3.287   7.876
 4176SOL    HW213215   3.019   3.212   7.868
 4177SOL     OW13216   3.444   2.501   7.920
 4177SOL    HW113217   3.413   2.562   7.993
 4177SOL    HW213218   3.494   2.553   7.851
 4178SOL     OW13219   3.071   2.387   7.723
 4178SOL    HW113220   3.084   2.303   7.777
 4178SOL    HW213221   3.042   2.461   7.783
 4179SOL     OW13222   3.484   2.229   7.822
 4179SOL    HW113223   3.486   2.153   7.886
 4179SOL    HW213224   3.436   2.306   7.862
 4180SOL     OW13225   3.402   2.136   7.573
 4180SOL    HW113226   3.341   2.061   7.596
 4180SOL    HW213227   3.424   2.188   7.656
 4181SOL     OW13228   3.165   2.700   7.490
 4181SOL    HW113229   3.199   2.607   7.505
 4181SOL    HW213230   3.183   2.727   7.395
 4182SOL     OW13231   1.870   3.188   7.648
 4182SOL    HW113232   1.777   3.209   7.617
 4182SOL    HW213233   1.880   3.089   7.661
 4183SOL     OW13234   2.335   2.362   7.639
 4183SOL    HW113235   2.396   2.442   7.643
 4183SOL    HW213236   2.240   2.393   7.646
 4184SOL     OW13237   3.164   2.717   7.757
 4184SOL    HW113238   3.078   2.686   7.799
 4184SOL    HW213239   3.160   2.703   7.658
 4185SOL     OW13240   3.588   1.997   7.971
 4185SOL    HW113241   3.661   1.980   7.904
 4185SOL    HW213242   3.557   1.910   8.009
 4186SOL     OW13243   3.250   3.435   7.925
 4186SOL    HW113244   3.317   3.447   7.851
 4186SOL    HW213245   3.210   3.524   7.948
 4187SOL     OW13246   2.534   3.478   7.602
 4187SOL    HW113247   2.543   3.488   7.503
 4187SOL    HW213248   2.494   3.389   7.623
 4188SOL     OW13249   3.056   3.474   7.479
 4188SOL    HW113250   3.062   3.381   7.516
 4188SOL    HW213251   2.997   3.474   7.399
 4189SOL     OW13252   3.366   3.469   7.492
 4189SOL    HW113253   3.274   3.506   7.499
 4189SOL    HW213254   3.404   3.489   7.402
 4190SOL     OW13255   2.452   3.349   7.939
 4190SOL    HW113256   2.494   3.291   7.869
 4190SOL    HW213257   2.408   3.428   7.895
 4191SOL     OW13258   2.117   3.210   7.738
 4191SOL    HW113259   2.021   3.211   7.711
 4191SOL    HW213260   2.129   3.263   7.822
 4192SOL     OW13261   1.937   2.207   7.481
 4192SOL    HW113262   1.845   2.179   7.452
 4192SOL    HW213263   1.968   2.284   7.425
 4193SOL     OW13264   1.934   2.028   7.766
 4193SOL    HW113265   1.917   2.111   7.712
 4193SOL    HW213266   2.024   1.991   7.744
 4194SOL     OW13267   3.045   3.197   7.567
 4194SOL    HW113268   2.946   3.186   7.569
 4194SOL    HW213269   3.079   3.212   7.660
 4195SOL     OW13270   3.087   2.187   7.897
 4195SOL    HW113271   3.152   2.113   7.886
 4195SOL    HW213272   3.107   2.237   7.981
 4196SOL     OW13273   2.721   3.236   7.464
 4196SOL    HW113274   2.675   3.251   7.552
 4196SOL    HW213275   2.765   3.321   7.434
 4197SOL     OW13276   2.945   2.846   7.535
 4197SOL    HW113277   2.922   2.899   7.453
 4197SOL    HW213278   3.026   2.790   7.516
 4198SOL     OW13279   2.290   2.286   7.968
 4198SOL    HW113280   2.320   2.214   7.906
 4198SOL    HW213281   2.251   2.246   8.051
 4199SOL     OW13282   2.632   3.192   7.749
 4199SOL    HW113283   2.586   3.105   7.766
 4199SOL    HW213284   2.723   3.189   7.790
 4200SOL     OW13285   3.214   1.914   7.616
 4200SOL    HW113286   3.249   1.873   7.532
 4200SOL    HW213287   3.124   1.876   7.636
 4201SOL     OW13288   1.901   2.939   7.748
 4201SOL    HW113289   2.000   2.928   7.739
 4201SOL    HW213290   1.861   2.853   7.780
 4202SOL     OW13291   2.737   3.508   7.785
 4202SOL    HW113292   2.660   3.473   7.731
 4202SOL    HW213293   2.705   3.579   7.847
 4203SOL     OW13294   2.092   4.352   0.113
 4203SOL    HW113295   1.999   4.350   0.150
 4203SOL    HW213296   2.093   4.313   0.021
 4204SOL     OW13297   2.087   3.999   0.996
 4204SOL    HW113298   2.122   3.982   1.088
 4204SOL    HW213299   1.999   3.954   0.984
 4205SOL     OW13300   1.881   4.092   0.647
 4205SOL    HW113301   1.799   4.135   0.686
 4205SOL    HW213302   1.853   4.019   0.584
 4206SOL     OW13303   2.431   4.999   1.165
 4206SOL    HW113304   2.338   4.992   1.128
 4206SOL    HW213305   2.442   5.088   1.209
 4207SOL     OW13306   3.417   5.235   0.703
 4207SOL    HW113307   3.360   5.219   0.784
 4207SOL    HW213308   3.358   5.245   0.623
 4208SOL     OW13309   2.997   4.427   0.717
 4208SOL    HW113310   3.054   4.505   0.692
 4208SOL    HW213311   2.937   4.453   0.793
 4209SOL     OW13312   3.617   4.331   0.231
 4209SOL    HW113313   3.605   4.318   0.132
 4209SOL    HW213314   3.587   4.250   0.280
 4210SOL     OW13315   2.630   4.868   1.023
 4210SOL    HW113316   2.552   4.885   1.083
 4210SOL    HW213317   2.664   4.955   0.987
 4211SOL     OW13318   2.712   4.522   1.823
 4211SOL    HW113319   2.708   4.598   1.888
 4211SOL    HW213320   2.734   4.558   1.732
 4212SOL     OW13321   2.547   4.736   0.665
 4212SOL    HW113322   2.616   4.720   0.735
 4212SOL    HW213323   2.474   4.793   0.703
 4213SOL     OW13324   2.548   4.885   1.803
 4213SOL    HW113325   2.608   4.964   1.817
 4213SOL    HW213326   2.462   4.916   1.762
 4214SOL     OW13327   2.197   5.159   1.061
 4214SOL    HW113328   2.119   5.128   1.008
 4214SOL    HW213329   2.255   5.217   1.004
 4215SOL     OW13330   3.322   5.229   1.339
 4215SOL    HW113331   3.346   5.323   1.365
 4215SOL    HW213332   3.306   5.175   1.421
 4216SOL     OW13333   2.300   4.116   1.499
 4216SOL    HW113334   2.382   4.060   1.508
 4216SOL    HW213335   2.219   4.058   1.503
 4217SOL     OW13336   3.465   4.171   0.737
 4217SOL    HW113337   3.391   4.217   0.687
 4217SOL    HW213338   3.516   4.239   0.790
 4218SOL     OW13339   2.989   5.065   1.690
 4218SOL    HW113340   3.036   5.065   1.778
 4218SOL    HW213341   2.941   4.978   1.679
 4219SOL     OW13342   2.092   5.158   0.538
 4219SOL    HW113343   2.066   5.254   0.538
 4219SOL    HW213344   2.021   5.104   0.583
 4220SOL     OW13345   2.102   4.815   0.886
 4220SOL    HW113346   2.116   4.731   0.938
 4220SOL    HW213347   2.047   4.879   0.941
 4221SOL     OW13348   2.468   4.688   0.123
 4221SOL    HW113349   2.475   4.772   0.069
 4221SOL    HW213350   2.514   4.701   0.211
 4222SOL     OW13351   3.456   3.838   1.480
 4222SOL    HW113352   3.438   3.905   1.408
 4222SOL    HW213353   3.453   3.884   1.569
 4223SOL     OW13354   1.984   4.367   0.563
 4223SOL    HW113355   1.939   4.279   0.580
 4223SOL    HW213356   1.983   4.421   0.647
 4224SOL     OW13357   1.889   5.320   0.117
 4224SOL    HW113358   1.870   5.224   0.138
 4224SOL    HW213359   1.856   5.378   0.192
 4225SOL     OW13360   3.551   4.646   0.612
 4225SOL    HW113361   3.646   4.617   0.620
 4225SOL    HW213362   3.543   4.711   0.537
 4226SOL     OW13363   3.503   4.832   0.432
 4226SOL    HW113364   3.589   4.834   0.380
 4226SOL    HW213365   3.517   4.879   0.520
 4227SOL     OW13366   1.975   4.461   1.597
 4227SOL    HW113367   2.063   4.448   1.642
 4227SOL    HW213368   1.962   4.558   1.575
 4228SOL     OW13369   2.475   5.089   0.726
 4228SOL    HW113370   2.426   5.002   0.735
 4228SOL    HW213371   2.452   5.132   0.639
 4229SOL     OW13372   3.155   4.952   1.423
 4229SOL    HW113373   3.192   4.879   1.365
 4229SOL    HW213374   3.207   4.957   1.508
 4230SOL     OW13375   2.671   3.728   0.502
 4230SOL    HW113376   2.711   3.819   0.493
 4230SOL    HW213377   2.571   3.736   0.508
 4231SOL     OW13378   2.059   4.700   1.264
 4231SOL    HW113379   2.148   4.655   1.250
 4231SOL    HW213380   1.986   4.635   1.245
 4232SOL     OW13381   3.387   4.723   0.190
 4232SOL    HW113382   3.324   4.647   0.203
 4232SOL    HW213383   3.435   4.741   0.276
 4233SOL     OW13384   2.179   3.975   1.801
 4233SOL    HW113385   2.250   4.046   1.807
 4233SOL    HW213386   2.091   4.014   1.829
 4234SOL     OW13387   3.328   5.141   0.953
 4234SOL    HW113388   3.269   5.147   1.033
 4234SOL    HW213389   3.313   5.053   0.907
 4235SOL     OW13390   2.460   4.453   0.270
 4235SOL    HW113391   2.484   4.522   0.202
 4235SOL    HW213392   2.382   4.486   0.324
 4236SOL     OW13393   3.143   4.069   0.944
 4236SOL    HW113394   3.057   4.019   0.931
 4236SOL    HW213395   3.205   4.015   1.000
 4237SOL     OW13396   2.669   4.329   1.465
 4237SOL    HW113397   2.622   4.326   1.554
 4237SOL    HW213398   2.618   4.274   1.399
 4238SOL     OW13399   3.256   4.193   1.674
 4238SOL    HW113400   3.236   4.236   1.762
 4238SOL    HW213401   3.334   4.131   1.683
 4239SOL     OW13402   2.835   4.614   1.572
 4239SOL    HW113403   2.881   4.530   1.543
 4239SOL    HW213404   2.779   4.648   1.497
 4240SOL     OW13405   2.853   4.134   1.242
 4240SOL    HW113406   2.776   4.168   1.296
 4240SOL    HW213407   2.819   4.083   1.163
 4241SOL     OW13408   2.903   4.425   0.429
 4241SOL    HW113409   2.929   4.421   0.525
 4241SOL    HW213410   2.818   4.374   0.415
 4242SOL     OW13411   1.938   4.535   0.789
 4242SOL    HW113412   2.037   4.523   0.798
 4242SOL    HW213413   1.914   4.630   0.810
 4243SOL     OW13414   2.727   4.072   0.195
 4243SOL    HW113415   2.786   4.135   0.146
 4243SOL    HW213416   2.746   3.978   0.166
 4244SOL     OW13417   3.581   4.309   1.831
 4244SOL    HW113418   3.555   4.398   1.795
 4244SOL    HW213419   3.579   4.241   1.758
 4245SOL     OW13420   3.224   4.868   0.545
 4245SOL    HW113421   3.307   4.839   0.497
 4245SOL    HW213422   3.175   4.935   0.489
 4246SOL     OW13423   2.412   3.920   0.885
 4246SOL    HW113424   2.407   3.915   0.985
 4246SOL    HW213425   2.414   4.016   0.856
 4247SOL     OW13426   2.870   5.180   0.477
 4247SOL    HW113427   2.824   5.252   0.425
 4247SOL    HW213428   2.866   5.200   0.575
 4248SOL     OW13429   3.657   4.790   0.873
 4248SOL    HW113430   3.595   4.775   0.797
 4248SOL    HW213431   3.605   4.801   0.958
 4249SOL     OW13432   3.089   5.274   1.506
 4249SOL    HW113433   3.095   5.197   1.570
 4249SOL    HW213434   3.037   5.248   1.426
 4250SOL     OW13435   2.183   4.667   0.242
 4250SOL    HW113436   2.265   4.706   0.200
 4250SOL    HW213437   2.156   4.585   0.193
 4251SOL     OW13438   3.320   4.459   0.728
 4251SOL    HW113439   3.315   4.394   0.803
 4251SOL    HW213440   3.400   4.518   0.741
 4252SOL     OW13441   2.323   4.990   1.727
 4252SOL    HW113442   2.273   4.991   1.641
 4252SOL    HW213443   2.260   4.972   1.803
 4253SOL     OW13444   2.973   5.500   0.237
 4253SOL    HW113445   2.913   5.438   0.287
 4253SOL    HW213446   3.004   5.456   0.152
 4254SOL     OW13447   2.064   4.009   1.498
 4254SOL    HW113448   1.984   4.069   1.485
 4254SOL    HW213449   2.054   3.960   1.584
 4255SOL     OW13450   3.494   5.101   0.081
 4255SOL    HW113451   3.462   5.195   0.071
 4255SOL    HW213452   3.418   5.038   0.069
 4256SOL     OW13453   3.262   3.831   0.426
 4256SOL    HW113454   3.238   3.794   0.336
 4256SOL    HW213455   3.361   3.847   0.430
 4257SOL     OW13456   2.244   4.424   0.480
 4257SOL    HW113457   2.289   4.334   0.477
 4257SOL    HW213458   2.150   4.413   0.513
 4258SOL     OW13459   3.409   3.946   1.729
 4258SOL    HW113460   3.404   3.983   1.821
 4258SOL    HW213461   3.337   3.877   1.717
 4259SOL     OW13462   2.476   3.846   0.117
 4259SOL    HW113463   2.574   3.824   0.124
 4259SOL    HW213464   2.445   3.829   0.024
 4260SOL     OW13465   2.643   3.988   1.749
 4260SOL    HW113466   2.710   3.927   1.792
 4260SOL    HW213467   2.570   4.007   1.814
 4261SOL     OW13468   3.213   4.314   1.433
 4261SOL    HW113469   3.241   4.271   1.518
 4261SOL    HW213470   3.238   4.410   1.434
 4262SOL     OW13471   2.665   5.126   0.924
 4262SOL    HW113472   2.755   5.140   0.882
 4262SOL    HW213473   2.594   5.128   0.853
 4263SOL     OW13474   2.784   4.227   0.899
 4263SOL    HW113475   2.759   4.218   0.803
 4263SOL    HW213476   2.832   4.145   0.930
 4264SOL     OW13477   2.401   3.788   0.512
 4264SOL    HW113478   2.320   3.789   0.570
 4264SOL    HW213479   2.404   3.871   0.457
 4265SOL     OW13480   3.296   4.912   0.041
 4265SOL    HW113481   3.328   4.836   0.098
 4265SOL    HW213482   3.204   4.939   0.071
 4266SOL     OW13483   2.159   3.759   0.171
 4266SOL    HW113484   2.208   3.843   0.150
 4266SOL    HW213485   2.221   3.694   0.216
 4267SOL     OW13486   2.797   3.960   0.480
 4267SOL    HW113487   2.749   4.001   0.402
 4267SOL    HW213488   2.896   3.958   0.461
 4268SOL     OW13489   2.938   4.407   1.464
 4268SOL    HW113490   2.858   4.346   1.467
 4268SOL    HW213491   3.019   4.354   1.440
 4269SOL     OW13492   3.089   5.294   0.793
 4269SOL    HW113493   3.110   5.368   0.728
 4269SOL    HW213494   3.157   5.294   0.866
 4270SOL     OW13495   2.321   4.876   0.741
 4270SOL    HW113496   2.250   4.849   0.806
 4270SOL    HW213497   2.295   4.848   0.648
 4271SOL     OW13498   2.894   4.273   0.016
 4271SOL    HW113499   2.853   4.355  -0.023
 4271SOL    HW213500   2.958   4.299   0.089
 4272SOL     OW13501   1.940   4.280   1.386
 4272SOL    HW113502   2.032   4.279   1.345
 4272SOL    HW213503   1.934   4.354   1.453
 4273SOL     OW13504   2.423   3.946   1.147
 4273SOL    HW113505   2.461   3.862   1.184
 4273SOL    HW213506   2.335   3.965   1.191
 4274SOL     OW13507   2.728   4.178   0.642
 4274SOL    HW113508   2.696   4.250   0.580
 4274SOL    HW213509   2.752   4.097   0.589
 4275SOL     OW13510   2.879   3.763   0.753
 4275SOL    HW113511   2.807   3.768   0.684
 4275SOL    HW213512   2.855   3.694   0.822
 4276SOL     OW13513   3.291   4.897   0.867
 4276SOL    HW113514   3.236   4.813   0.860
 4276SOL    HW213515   3.317   4.926   0.775
 4277SOL     OW13516   3.328   4.314   0.992
 4277SOL    HW113517   3.298   4.219   0.999
 4277SOL    HW213518   3.401   4.330   1.058
 4278SOL     OW13519   3.719   4.557   0.377
 4278SOL    HW113520   3.761   4.493   0.441
 4278SOL    HW213521   3.681   4.506   0.299
 4279SOL     OW13522   2.350   5.109   0.174
 4279SOL    HW113523   2.263   5.094   0.221
 4279SOL    HW213524   2.333   5.135   0.079
 4280SOL     OW13525   3.526   5.004   0.657
 4280SOL    HW113526   3.625   5.012   0.671
 4280SOL    HW213527   3.481   5.088   0.688
 4281SOL     OW13528   3.252   4.299   0.078
 4281SOL    HW113529   3.198   4.278   0.159
 4281SOL    HW213530   3.343   4.258   0.087
 4282SOL     OW13531   2.389   3.980   0.328
 4282SOL    HW113532   2.416   3.921   0.253
 4282SOL    HW213533   2.389   4.075   0.297
 4283SOL     OW13534   3.616   4.947   1.588
 4283SOL    HW113535   3.707   4.908   1.575
 4283SOL    HW213536   3.624   5.043   1.612
 4284SOL     OW13537   2.926   5.071   1.340
 4284SOL    HW113538   2.846   5.048   1.395
 4284SOL    HW213539   3.009   5.045   1.389
 4285SOL     OW13540   2.973   4.919   1.100
 4285SOL    HW113541   2.933   4.963   1.181
 4285SOL    HW213542   2.932   4.956   1.017
 4286SOL     OW13543   3.500   4.823   1.079
 4286SOL    HW113544   3.505   4.904   1.138
 4286SOL    HW213545   3.414   4.825   1.028
 4287SOL     OW13546   2.777   3.813   1.402
 4287SOL    HW113547   2.802   3.793   1.307
 4287SOL    HW213548   2.849   3.869   1.444
 4288SOL     OW13549   2.842   4.840   1.719
 4288SOL    HW113550   2.743   4.846   1.729
 4288SOL    HW213551   2.865   4.760   1.663
 4289SOL     OW13552   2.567   4.774   0.368
 4289SOL    HW113553   2.553   4.781   0.467
 4289SOL    HW213554   2.651   4.723   0.350
 4290SOL     OW13555   2.272   4.537   1.251
 4290SOL    HW113556   2.358   4.549   1.301
 4290SOL    HW213557   2.230   4.450   1.278
 4291SOL     OW13558   3.136   4.110   1.262
 4291SOL    HW113559   3.157   4.184   1.326
 4291SOL    HW213560   3.047   4.127   1.219
 4292SOL     OW13561   2.229   4.824   0.501
 4292SOL    HW113562   2.222   4.907   0.445
 4292SOL    HW213563   2.233   4.744   0.441
 4293SOL     OW13564   2.428   4.261   0.865
 4293SOL    HW113565   2.440   4.327   0.791
 4293SOL    HW213566   2.474   4.295   0.948
 4294SOL     OW13567   3.114   5.072   0.388
 4294SOL    HW113568   3.164   5.149   0.428
 4294SOL    HW213569   3.019   5.074   0.420
 4295SOL     OW13570   3.134   5.169   1.142
 4295SOL    HW113571   3.181   5.182   1.229
 4295SOL    HW213572   3.068   5.095   1.151
 4296SOL     OW13573   3.444   4.363   0.472
 4296SOL    HW113574   3.413   4.424   0.545
 4296SOL    HW213575   3.494   4.415   0.403
 4297SOL     OW13576   2.216   5.234   1.329
 4297SOL    HW113577   2.195   5.190   1.242
 4297SOL    HW213578   2.313   5.260   1.332
 4298SOL     OW13579   2.264   4.475   1.598
 4298SOL    HW113580   2.332   4.530   1.551
 4298SOL    HW213581   2.304   4.387   1.625
 4299SOL     OW13582   3.449   4.503   1.670
 4299SOL    HW113583   3.357   4.541   1.665
 4299SOL    HW213584   3.509   4.550   1.605
 4300SOL     OW13585   2.875   3.829   1.770
 4300SOL    HW113586   2.881   3.914   1.718
 4300SOL    HW213587   2.907   3.753   1.713
 4301SOL     OW13588   2.366   3.774   1.740
 4301SOL    HW113589   2.324   3.717   1.670
 4301SOL    HW213590   2.300   3.843   1.772
 4302SOL     OW13591   2.435   4.594   1.029
 4302SOL    HW113592   2.479   4.683   1.020
 4302SOL    HW213593   2.372   4.594   1.106
 4303SOL     OW13594   3.222   4.586   1.045
 4303SOL    HW113595   3.147   4.586   0.979
 4303SOL    HW213596   3.259   4.494   1.054
 4304SOL     OW13597   3.071   4.249   0.275
 4304SOL    HW113598   3.084   4.165   0.329
 4304SOL    HW213599   3.042   4.323   0.335
 4305SOL     OW13600   2.169   3.937   1.231
 4305SOL    HW113601   2.146   3.974   1.321
 4305SOL    HW213602   2.139   3.842   1.225
 4306SOL     OW13603   1.899   5.034   1.282
 4306SOL    HW113604   1.952   4.985   1.350
 4306SOL    HW213605   1.921   5.132   1.287
 4307SOL     OW13606   2.594   4.358   1.064
 4307SOL    HW113607   2.653   4.332   0.988
 4307SOL    HW213608   2.566   4.454   1.053
 4308SOL     OW13609   3.590   4.659   1.854
 4308SOL    HW113610   3.544   4.652   1.765
 4308SOL    HW213611   3.528   4.703   1.920
 4309SOL     OW13612   2.169   3.787   0.618
 4309SOL    HW113613   2.158   3.881   0.651
 4309SOL    HW213614   2.164   3.724   0.695
 4310SOL     OW13615   3.484   4.091   0.374
 4310SOL    HW113616   3.486   4.015   0.438
 4310SOL    HW213617   3.436   4.168   0.414
 4311SOL     OW13618   2.885   4.490   0.966
 4311SOL    HW113619   2.900   4.511   1.062
 4311SOL    HW213620   2.855   4.395   0.957
 4312SOL     OW13621   3.721   5.242   1.605
 4312SOL    HW113622   3.735   5.269   1.510
 4312SOL    HW213623   3.804   5.264   1.658
 4313SOL     OW13624   2.212   4.622   1.804
 4313SOL    HW113625   2.288   4.666   1.852
 4313SOL    HW213626   2.247   4.575   1.722
 4314SOL     OW13627   3.402   3.998   0.125
 4314SOL    HW113628   3.341   3.923   0.148
 4314SOL    HW213629   3.424   4.050   0.208
 4315SOL     OW13630   3.165   4.562   0.042
 4315SOL    HW113631   3.199   4.469   0.057
 4315SOL    HW213632   3.183   4.589  -0.053
 4316SOL     OW13633   2.930   5.057   0.849
 4316SOL    HW113634   2.937   4.973   0.794
 4316SOL    HW213635   2.992   5.126   0.813
 4317SOL     OW13636   2.181   4.534   0.949
 4317SOL    HW113637   2.274   4.570   0.954
 4317SOL    HW213638   2.175   4.449   1.001
 4318SOL     OW13639   2.201   4.233   1.006
 4318SOL    HW113640   2.149   4.150   0.989
 4318SOL    HW213641   2.278   4.238   0.942
 4319SOL     OW13642   3.000   4.104   1.678
 4319SOL    HW113643   2.955   4.167   1.742
 4319SOL    HW213644   3.093   4.135   1.661
 4320SOL     OW13645   3.022   3.931   1.477
 4320SOL    HW113646   3.022   3.995   1.554
 4320SOL    HW213647   3.050   3.979   1.394
 4321SOL     OW13648   1.870   5.050   0.200
 4321SOL    HW113649   1.777   5.071   0.169
 4321SOL    HW213650   1.880   4.951   0.213
 4322SOL     OW13651   2.864   4.520   1.238
 4322SOL    HW113652   2.905   4.488   1.324
 4322SOL    HW213653   2.768   4.493   1.235
 4323SOL     OW13654   1.902   4.268   1.114
 4323SOL    HW113655   1.987   4.235   1.073
 4323SOL    HW213656   1.915   4.283   1.212
 4324SOL     OW13657   2.051   4.244   1.722
 4324SOL    HW113658   2.110   4.204   1.652
 4324SOL    HW213659   1.993   4.315   1.681
 4325SOL     OW13660   3.231   4.674   1.660
 4325SOL    HW113661   3.270   4.763   1.680
 4325SOL    HW213662   3.241   4.654   1.563
 4326SOL     OW13663   2.677   4.296   0.325
 4326SOL    HW113664   2.684   4.207   0.279
 4326SOL    HW213665   2.583   4.330   0.317
 4327SOL     OW13666   3.519   4.328   1.206
 4327SOL    HW113667   3.481   4.259   1.268
 4327SOL    HW213668   3.601   4.292   1.162
 4328SOL     OW13669   2.114   5.288   1.744
 4328SOL    HW113670   2.084   5.345   1.820
 4328SOL    HW213671   2.107   5.191   1.770
 4329SOL     OW13672   2.533   4.188   1.269
 4329SOL    HW113673   2.499   4.099   1.239
 4329SOL    HW213674   2.559   4.242   1.189
 4330SOL     OW13675   2.335   4.224   0.191
 4330SOL    HW113676   2.396   4.304   0.195
 4330SOL    HW213677   2.240   4.255   0.198
 4331SOL     OW13678   2.021   4.861   1.466
 4331SOL    HW113679   2.043   4.800   1.542
 4331SOL    HW213680   2.031   4.812   1.380
 4332SOL     OW13681   3.209   4.783   1.234
 4332SOL    HW113682   3.233   4.720   1.160
 4332SOL    HW213683   3.119   4.823   1.216
 4333SOL     OW13684   3.164   4.579   0.309
 4333SOL    HW113685   3.078   4.548   0.351
 4333SOL    HW213686   3.160   4.565   0.210
 4334SOL     OW13687   1.945   4.982   1.022
 4334SOL    HW113688   1.940   4.981   1.122
 4334SOL    HW213689   1.862   4.941   0.984
 4335SOL     OW13690   2.550   5.386   1.716
 4335SOL    HW113691   2.494   5.467   1.725
 4335SOL    HW213692   2.602   5.390   1.630
 4336SOL     OW13693   2.765   3.810   0.133
 4336SOL    HW113694   2.816   3.811   0.047
 4336SOL    HW213695   2.821   3.768   0.204
 4337SOL     OW13696   3.588   3.859   0.523
 4337SOL    HW113697   3.661   3.842   0.456
 4337SOL    HW213698   3.557   3.772   0.561
 4338SOL     OW13699   3.142   4.651   0.672
 4338SOL    HW113700   3.202   4.570   0.674
 4338SOL    HW213701   3.182   4.720   0.612
 4339SOL     OW13702   2.692   4.997   1.422
 4339SOL    HW113703   2.687   5.030   1.517
 4339SOL    HW213704   2.606   5.016   1.376
 4340SOL     OW13705   3.703   3.899   0.963
 4340SOL    HW113706   3.742   3.814   0.927
 4340SOL    HW213707   3.605   3.901   0.944
 4341SOL     OW13708   2.125   4.050   0.720
 4341SOL    HW113709   2.046   4.101   0.686
 4341SOL    HW213710   2.116   4.035   0.818
 4342SOL     OW13711   3.056   5.336   0.031
 4342SOL    HW113712   3.062   5.243   0.068
 4342SOL    HW213713   2.997   5.336  -0.049
 4343SOL     OW13714   2.684   4.726   1.372
 4343SOL    HW113715   2.724   4.725   1.280
 4343SOL    HW213716   2.694   4.818   1.412
 4344SOL     OW13717   2.778   4.634   0.291
 4344SOL    HW113718   2.841   4.672   0.223
 4344SOL    HW213719   2.818   4.551   0.330
 4345SOL     OW13720   2.234   5.012   1.490
 4345SOL    HW113721   2.221   5.105   1.456
 4345SOL    HW213722   2.150   4.960   1.477
 4346SOL     OW13723   3.476   5.016   1.289
 4346SOL    HW113724   3.536   5.019   1.369
 4346SOL    HW213725   3.401   5.080   1.302
 4347SOL     OW13726   2.901   4.822   0.696
 4347SOL    HW113727   2.831   4.775   0.750
 4347SOL    HW213728   2.960   4.754   0.653
 4348SOL     OW13729   2.876   3.960   0.971
 4348SOL    HW113730   2.868   3.924   0.878
 4348SOL    HW213731   2.874   3.884   1.036
 4349SOL     OW13732   3.571   4.109   1.381
 4349SOL    HW113733   3.644   4.178   1.385
 4349SOL    HW213734   3.599   4.034   1.322
 4350SOL     OW13735   2.117   5.072   0.290
 4350SOL    HW113736   2.021   5.073   0.263
 4350SOL    HW213737   2.129   5.125   0.374
 4351SOL     OW13738   1.967   4.737   1.726
 4351SOL    HW113739   1.890   4.704   1.780
 4351SOL    HW213740   2.052   4.707   1.768
 4352SOL     OW13741   2.534   3.927   1.489
 4352SOL    HW113742   2.624   3.911   1.449
 4352SOL    HW213743   2.542   3.932   1.588
 4353SOL     OW13744   1.937   4.069   0.033
 4353SOL    HW113745   1.845   4.041   0.004
 4353SOL    HW213746   1.968   4.146  -0.023
 4354SOL     OW13747   3.302   4.580   1.398
 4354SOL    HW113748   3.245   4.632   1.335
 4354SOL    HW213749   3.398   4.592   1.374
 4355SOL     OW13750   1.934   3.890   0.318
 4355SOL    HW113751   1.917   3.973   0.264
 4355SOL    HW213752   2.024   3.853   0.296
 4356SOL     OW13753   3.045   5.059   0.119
 4356SOL    HW113754   2.946   5.048   0.121
 4356SOL    HW213755   3.079   5.074   0.212
 4357SOL     OW13756   2.475   4.566   1.431
 4357SOL    HW113757   2.531   4.647   1.414
 4357SOL    HW213758   2.534   4.486   1.434
 4358SOL     OW13759   2.578   4.289   1.708
 4358SOL    HW113760   2.597   4.354   1.782
 4358SOL    HW213761   2.638   4.209   1.717
 4359SOL     OW13762   3.312   4.944   1.633
 4359SOL    HW113763   3.303   4.934   1.732
 4359SOL    HW213764   3.408   4.937   1.607
 4360SOL     OW13765   3.536   4.607   1.254
 4360SOL    HW113766   3.509   4.518   1.217
 4360SOL    HW213767   3.537   4.675   1.181
 4361SOL     OW13768   3.087   4.049   0.449
 4361SOL    HW113769   3.152   3.975   0.438
 4361SOL    HW213770   3.107   4.099   0.533
 4362SOL     OW13771   2.456   4.469   0.652
 4362SOL    HW113772   2.506   4.554   0.633
 4362SOL    HW213773   2.368   4.471   0.604
 4363SOL     OW13774   3.639   4.066   1.642
 4363SOL    HW113775   3.622   4.097   1.548
 4363SOL    HW213776   3.555   4.029   1.680
 4364SOL     OW13777   3.592   4.658   1.517
 4364SOL    HW113778   3.630   4.749   1.532
 4364SOL    HW213779   3.584   4.641   1.418
 4365SOL     OW13780   2.721   5.098   0.016
 4365SOL    HW113781   2.675   5.113   0.104
 4365SOL    HW213782   2.765   5.183  -0.014
 4366SOL     OW13783   2.721   4.680   0.861
 4366SOL    HW113784   2.775   4.611   0.909
 4366SOL    HW213785   2.689   4.749   0.927
 4367SOL     OW13786   2.945   4.708   0.087
 4367SOL    HW113787   2.922   4.761   0.005
 4367SOL    HW213788   3.026   4.652   0.068
 4368SOL     OW13789   2.083   5.038   1.844
 4368SOL    HW113790   2.018   4.965   1.823
 4368SOL    HW213791   2.087   5.052   1.942
 4369SOL     OW13792   1.941   4.964   0.653
 4369SOL    HW113793   1.940   4.917   0.741
 4369SOL    HW213794   2.023   4.936   0.602
 4370SOL     OW13795   2.534   5.115   1.624
 4370SOL    HW113796   2.456   5.065   1.662
 4370SOL    HW213797   2.531   5.210   1.655
 4371SOL     OW13798   3.686   3.916   1.227
 4371SOL    HW113799   3.682   3.826   1.271
 4371SOL    HW213800   3.689   3.905   1.128
 4372SOL     OW13801   2.290   4.148   0.520
 4372SOL    HW113802   2.320   4.076   0.458
 4372SOL    HW213803   2.251   4.108   0.603
 4373SOL     OW13804   3.567   5.211   1.104
 4373SOL    HW113805   3.474   5.186   1.077
 4373SOL    HW213806   3.593   5.161   1.186
 4374SOL     OW13807   2.179   4.271   1.280
 4374SOL    HW113808   2.217   4.212   1.352
 4374SOL    HW213809   2.219   4.245   1.192
 4375SOL     OW13810   3.286   3.938   1.112
 4375SOL    HW113811   3.338   3.873   1.167
 4375SOL    HW213812   3.237   4.001   1.173
 4376SOL     OW13813   2.863   3.758   1.154
 4376SOL    HW113814   2.800   3.686   1.123
 4376SOL    HW213815   2.956   3.722   1.154
 4377SOL     OW13816   2.632   5.054   0.301
 4377SOL    HW113817   2.586   4.967   0.318
 4377SOL    HW213818   2.723   5.051   0.342
 4378SOL     OW13819   2.480   5.291   1.284
 4378SOL    HW113820   2.475   5.373   1.341
 4378SOL    HW213821   2.569   5.288   1.239
 4379SOL     OW13822   3.214   3.776   0.168
 4379SOL    HW113823   3.249   3.735   0.084
 4379SOL    HW213824   3.124   3.738   0.188
 4380SOL     OW13825   3.162   4.177   0.691
 4380SOL    HW113826   3.103   4.257   0.695
 4380SOL    HW213827   3.177   4.142   0.784
 4381SOL     OW13828   3.455   3.945   0.882
 4381SOL    HW113829   3.371   3.944   0.936
 4381SOL    HW213830   3.457   4.028   0.826
 4382SOL     OW13831   1.901   4.801   0.300
 4382SOL    HW113832   2.000   4.790   0.291
 4382SOL    HW213833   1.861   4.715   0.332
 4383SOL     OW13834   2.092   4.352   1.975
 4383SOL    HW113835   1.999   4.350   2.012
 4383SOL    HW213836   2.093   4.313   1.883
 4384SOL     OW13837   2.087   3.999   2.858
 4384SOL    HW113838   2.122   3.982   2.950
 4384SOL    HW213839   1.999   3.954   2.846
 4385SOL     OW13840   1.881   4.092   2.509
 4385SOL    HW113841   1.799   4.135   2.548
 4385SOL    HW213842   1.853   4.019   2.446
 4386SOL     OW13843   2.431   4.999   3.027
 4386SOL    HW113844   2.338   4.992   2.990
 4386SOL    HW213845   2.442   5.088   3.071
 4387SOL     OW13846   3.417   5.235   2.565
 4387SOL    HW113847   3.360   5.219   2.646
 4387SOL    HW213848   3.358   5.245   2.485
 4388SOL     OW13849   2.997   4.427   2.579
 4388SOL    HW113850   3.054   4.505   2.554
 4388SOL    HW213851   2.937   4.453   2.655
 4389SOL     OW13852   3.617   4.331   2.093
 4389SOL    HW113853   3.605   4.318   1.994
 4389SOL    HW213854   3.587   4.250   2.142
 4390SOL     OW13855   2.630   4.868   2.885
 4390SOL    HW113856   2.552   4.885   2.945
 4390SOL    HW213857   2.664   4.955   2.849
 4391SOL     OW13858   2.712   4.522   3.685
 4391SOL    HW113859   2.708   4.598   3.750
 4391SOL    HW213860   2.734   4.558   3.594
 4392SOL     OW13861   2.547   4.736   2.527
 4392SOL    HW113862   2.616   4.720   2.597
 4392SOL    HW213863   2.474   4.793   2.565
 4393SOL     OW13864   2.548   4.885   3.665
 4393SOL    HW113865   2.608   4.964   3.679
 4393SOL    HW213866   2.462   4.916   3.624
 4394SOL     OW13867   2.197   5.159   2.923
 4394SOL    HW113868   2.119   5.128   2.870
 4394SOL    HW213869   2.255   5.217   2.866
 4395SOL     OW13870   3.322   5.229   3.201
 4395SOL    HW113871   3.346   5.323   3.227
 4395SOL    HW213872   3.306   5.175   3.283
 4396SOL     OW13873   2.300   4.116   3.361
 4396SOL    HW113874   2.382   4.060   3.370
 4396SOL    HW213875   2.219   4.058   3.365
 4397SOL     OW13876   3.465   4.171   2.599
 4397SOL    HW113877   3.391   4.217   2.549
 4397SOL    HW213878   3.516   4.239   2.652
 4398SOL     OW13879   2.989   5.065   3.552
 4398SOL    HW113880   3.036   5.065   3.640
 4398SOL    HW213881   2.941   4.978   3.541
 4399SOL     OW13882   2.092   5.158   2.400
 4399SOL    HW113883   2.066   5.254   2.400
 4399SOL    HW213884   2.021   5.104   2.445
 4400SOL     OW13885   2.102   4.815   2.748
 4400SOL    HW113886   2.116   4.731   2.800
 4400SOL    HW213887   2.047   4.879   2.803
 4401SOL     OW13888   2.468   4.688   1.985
 4401SOL    HW113889   2.475   4.772   1.931
 4401SOL    HW213890   2.514   4.701   2.073
 4402SOL     OW13891   3.456   3.838   3.342
 4402SOL    HW113892   3.438   3.905   3.270
 4402SOL    HW213893   3.453   3.884   3.431
 4403SOL     OW13894   1.984   4.367   2.425
 4403SOL    HW113895   1.939   4.279   2.442
 4403SOL    HW213896   1.983   4.421   2.509
 4404SOL     OW13897   1.889   5.320   1.979
 4404SOL    HW113898   1.870   5.224   2.000
 4404SOL    HW213899   1.856   5.378   2.054
 4405SOL     OW13900   3.551   4.646   2.474
 4405SOL    HW113901   3.646   4.617   2.482
 4405SOL    HW213902   3.543   4.711   2.399
 4406SOL     OW13903   3.503   4.832   2.294
 4406SOL    HW113904   3.589   4.834   2.242
 4406SOL    HW213905   3.517   4.879   2.382
 4407SOL     OW13906   1.975   4.461   3.459
 4407SOL    HW113907   2.063   4.448   3.504
 4407SOL    HW213908   1.962   4.558   3.437
 4408SOL     OW13909   2.475   5.089   2.588
 4408SOL    HW113910   2.426   5.002   2.597
 4408SOL    HW213911   2.452   5.132   2.501
 4409SOL     OW13912   3.155   4.952   3.285
 4409SOL    HW113913   3.192   4.879   3.227
 4409SOL    HW213914   3.207   4.957   3.370
 4410SOL     OW13915   2.671   3.728   2.364
 4410SOL    HW113916   2.711   3.819   2.355
 4410SOL    HW213917   2.571   3.736   2.370
 4411SOL     OW13918   2.059   4.700   3.126
 4411SOL    HW113919   2.148   4.655   3.112
 4411SOL    HW213920   1.986   4.635   3.107
 4412SOL     OW13921   3.387   4.723   2.052
 4412SOL    HW113922   3.324   4.647   2.065
 4412SOL    HW213923   3.435   4.741   2.138
 4413SOL     OW13924   2.179   3.975   3.663
 4413SOL    HW113925   2.250   4.046   3.669
 4413SOL    HW213926   2.091   4.014   3.691
 4414SOL     OW13927   3.328   5.141   2.815
 4414SOL    HW113928   3.269   5.147   2.895
 4414SOL    HW213929   3.313   5.053   2.769
 4415SOL     OW13930   2.460   4.453   2.132
 4415SOL    HW113931   2.484   4.522   2.064
 4415SOL    HW213932   2.382   4.486   2.186
 4416SOL     OW13933   3.143   4.069   2.806
 4416SOL    HW113934   3.057   4.019   2.793
 4416SOL    HW213935   3.205   4.015   2.862
 4417SOL     OW13936   2.669   4.329   3.327
 4417SOL    HW113937   2.622   4.326   3.416
 4417SOL    HW213938   2.618   4.274   3.261
 4418SOL     OW13939   3.256   4.193   3.536
 4418SOL    HW113940   3.236   4.236   3.624
 4418SOL    HW213941   3.334   4.131   3.545
 4419SOL     OW13942   2.835   4.614   3.434
 4419SOL    HW113943   2.881   4.530   3.405
 4419SOL    HW213944   2.779   4.648   3.359
 4420SOL     OW13945   2.853   4.134   3.104
 4420SOL    HW113946   2.776   4.168   3.158
 4420SOL    HW213947   2.819   4.083   3.025
 4421SOL     OW13948   2.903   4.425   2.291
 4421SOL    HW113949   2.929   4.421   2.387
 4421SOL    HW213950   2.818   4.374   2.277
 4422SOL     OW13951   1.938   4.535   2.651
 4422SOL    HW113952   2.037   4.523   2.660
 4422SOL    HW213953   1.914   4.630   2.672
 4423SOL     OW13954   2.727   4.072   2.057
 4423SOL    HW113955   2.786   4.135   2.008
 4423SOL    HW213956   2.746   3.978   2.028
 4424SOL     OW13957   3.581   4.309   3.693
 4424SOL    HW113958   3.555   4.398   3.657
 4424SOL    HW213959   3.579   4.241   3.620
 4425SOL     OW13960   3.224   4.868   2.407
 4425SOL    HW113961   3.307   4.839   2.359
 4425SOL    HW213962   3.175   4.935   2.351
 4426SOL     OW13963   2.412   3.920   2.747
 4426SOL    HW113964   2.407   3.915   2.847
 4426SOL    HW213965   2.414   4.016   2.718
 4427SOL     OW13966   2.870   5.180   2.339
 4427SOL    HW113967   2.824   5.252   2.287
 4427SOL    HW213968   2.866   5.200   2.437
 4428SOL     OW13969   3.657   4.790   2.735
 4428SOL    HW113970   3.595   4.775   2.659
 4428SOL    HW213971   3.605   4.801   2.820
 4429SOL     OW13972   3.089   5.274   3.368
 4429SOL    HW113973   3.095   5.197   3.432
 4429SOL    HW213974   3.037   5.248   3.288
 4430SOL     OW13975   2.183   4.667   2.104
 4430SOL    HW113976   2.265   4.706   2.062
 4430SOL    HW213977   2.156   4.585   2.055
 4431SOL     OW13978   3.320   4.459   2.590
 4431SOL    HW113979   3.315   4.394   2.665
 4431SOL    HW213980   3.400   4.518   2.603
 4432SOL     OW13981   2.323   4.990   3.589
 4432SOL    HW113982   2.273   4.991   3.503
 4432SOL    HW213983   2.260   4.972   3.665
 4433SOL     OW13984   2.973   5.500   2.099
 4433SOL    HW113985   2.913   5.438   2.149
 4433SOL    HW213986   3.004   5.456   2.014
 4434SOL     OW13987   2.064   4.009   3.360
 4434SOL    HW113988   1.984   4.069   3.347
 4434SOL    HW213989   2.054   3.960   3.446
 4435SOL     OW13990   3.494   5.101   1.943
 4435SOL    HW113991   3.462   5.195   1.933
 4435SOL    HW213992   3.418   5.038   1.931
 4436SOL     OW13993   3.262   3.831   2.288
 4436SOL    HW113994   3.238   3.794   2.198
 4436SOL    HW213995   3.361   3.847   2.292
 4437SOL     OW13996   2.244   4.424   2.342
 4437SOL    HW113997   2.289   4.334   2.339
 4437SOL    HW213998   2.150   4.413   2.375
 4438SOL     OW13999   3.409   3.946   3.591
 4438SOL    HW114000   3.404   3.983   3.683
 4438SOL    HW214001   3.337   3.877   3.579
 4439SOL     OW14002   2.476   3.846   1.979
 4439SOL    HW114003   2.574   3.824   1.986
 4439SOL    HW214004   2.445   3.829   1.886
 4440SOL     OW14005   2.643   3.988   3.611
 4440SOL    HW114006   2.710   3.927   3.654
 4440SOL    HW214007   2.570   4.007   3.676
 4441SOL     OW14008   3.213   4.314   3.295
 4441SOL    HW114009   3.241   4.271   3.380
 4441SOL    HW214010   3.238   4.410   3.296
 4442SOL     OW14011   2.665   5.126   2.786
 4442SOL    HW114012   2.755   5.140   2.744
 4442SOL    HW214013   2.594   5.128   2.715
 4443SOL     OW14014   2.784   4.227   2.761
 4443SOL    HW114015   2.759   4.218   2.665
 4443SOL    HW214016   2.832   4.145   2.792
 4444SOL     OW14017   2.401   3.788   2.374
 4444SOL    HW114018   2.320   3.789   2.432
 4444SOL    HW214019   2.404   3.871   2.319
 4445SOL     OW14020   3.296   4.912   1.903
 4445SOL    HW114021   3.328   4.836   1.960
 4445SOL    HW214022   3.204   4.939   1.933
 4446SOL     OW14023   2.159   3.759   2.033
 4446SOL    HW114024   2.208   3.843   2.012
 4446SOL    HW214025   2.221   3.694   2.078
 4447SOL     OW14026   2.797   3.960   2.342
 4447SOL    HW114027   2.749   4.001   2.264
 4447SOL    HW214028   2.896   3.958   2.323
 4448SOL     OW14029   2.938   4.407   3.326
 4448SOL    HW114030   2.858   4.346   3.329
 4448SOL    HW214031   3.019   4.354   3.302
 4449SOL     OW14032   3.089   5.294   2.655
 4449SOL    HW114033   3.110   5.368   2.590
 4449SOL    HW214034   3.157   5.294   2.728
 4450SOL     OW14035   2.321   4.876   2.603
 4450SOL    HW114036   2.250   4.849   2.668
 4450SOL    HW214037   2.295   4.848   2.510
 4451SOL     OW14038   2.894   4.273   1.878
 4451SOL    HW114039   2.853   4.355   1.839
 4451SOL    HW214040   2.958   4.299   1.951
 4452SOL     OW14041   1.940   4.280   3.248
 4452SOL    HW114042   2.032   4.279   3.207
 4452SOL    HW214043   1.934   4.354   3.315
 4453SOL     OW14044   2.423   3.946   3.009
 4453SOL    HW114045   2.461   3.862   3.046
 4453SOL    HW214046   2.335   3.965   3.053
 4454SOL     OW14047   2.728   4.178   2.504
 4454SOL    HW114048   2.696   4.250   2.442
 4454SOL    HW214049   2.752   4.097   2.451
 4455SOL     OW14050   2.879   3.763   2.615
 4455SOL    HW114051   2.807   3.768   2.546
 4455SOL    HW214052   2.855   3.694   2.684
 4456SOL     OW14053   3.291   4.897   2.729
 4456SOL    HW114054   3.236   4.813   2.722
 4456SOL    HW214055   3.317   4.926   2.637
 4457SOL     OW14056   3.328   4.314   2.854
 4457SOL    HW114057   3.298   4.219   2.861
 4457SOL    HW214058   3.401   4.330   2.920
 4458SOL     OW14059   3.719   4.557   2.239
 4458SOL    HW114060   3.761   4.493   2.303
 4458SOL    HW214061   3.681   4.506   2.161
 4459SOL     OW14062   2.350   5.109   2.036
 4459SOL    HW114063   2.263   5.094   2.083
 4459SOL    HW214064   2.333   5.135   1.941
 4460SOL     OW14065   3.526   5.004   2.519
 4460SOL    HW114066   3.625   5.012   2.533
 4460SOL    HW214067   3.481   5.088   2.550
 4461SOL     OW14068   3.252   4.299   1.940
 4461SOL    HW114069   3.198   4.278   2.021
 4461SOL    HW214070   3.343   4.258   1.949
 4462SOL     OW14071   2.389   3.980   2.190
 4462SOL    HW114072   2.416   3.921   2.115
 4462SOL    HW214073   2.389   4.075   2.159
 4463SOL     OW14074   3.616   4.947   3.450
 4463SOL    HW114075   3.707   4.908   3.437
 4463SOL    HW214076   3.624   5.043   3.474
 4464SOL     OW14077   2.926   5.071   3.202
 4464SOL    HW114078   2.846   5.048   3.257
 4464SOL    HW214079   3.009   5.045   3.251
 4465SOL     OW14080   2.973   4.919   2.962
 4465SOL    HW114081   2.933   4.963   3.043
 4465SOL    HW214082   2.932   4.956   2.879
 4466SOL     OW14083   3.500   4.823   2.941
 4466SOL    HW114084   3.505   4.904   3.000
 4466SOL    HW214085   3.414   4.825   2.890
 4467SOL     OW14086   2.777   3.813   3.264
 4467SOL    HW114087   2.802   3.793   3.169
 4467SOL    HW214088   2.849   3.869   3.306
 4468SOL     OW14089   2.842   4.840   3.581
 4468SOL    HW114090   2.743   4.846   3.591
 4468SOL    HW214091   2.865   4.760   3.525
 4469SOL     OW14092   2.567   4.774   2.230
 4469SOL    HW114093   2.553   4.781   2.329
 4469SOL    HW214094   2.651   4.723   2.212
 4470SOL     OW14095   2.272   4.537   3.113
 4470SOL    HW114096   2.358   4.549   3.163
 4470SOL    HW214097   2.230   4.450   3.140
 4471SOL     OW14098   3.136   4.110   3.124
 4471SOL    HW114099   3.157   4.184   3.188
 4471SOL    HW214100   3.047   4.127   3.081
 4472SOL     OW14101   2.229   4.824   2.363
 4472SOL    HW114102   2.222   4.907   2.307
 4472SOL    HW214103   2.233   4.744   2.303
 4473SOL     OW14104   2.428   4.261   2.727
 4473SOL    HW114105   2.440   4.327   2.653
 4473SOL    HW214106   2.474   4.295   2.810
 4474SOL     OW14107   3.114   5.072   2.250
 4474SOL    HW114108   3.164   5.149   2.290
 4474SOL    HW214109   3.019   5.074   2.282
 4475SOL     OW14110   3.134   5.169   3.004
 4475SOL    HW114111   3.181   5.182   3.091
 4475SOL    HW214112   3.068   5.095   3.013
 4476SOL     OW14113   3.444   4.363   2.334
 4476SOL    HW114114   3.413   4.424   2.407
 4476SOL    HW214115   3.494   4.415   2.265
 4477SOL     OW14116   2.216   5.234   3.191
 4477SOL    HW114117   2.195   5.190   3.104
 4477SOL    HW214118   2.313   5.260   3.194
 4478SOL     OW14119   2.264   4.475   3.460
 4478SOL    HW114120   2.332   4.530   3.413
 4478SOL    HW214121   2.304   4.387   3.487
 4479SOL     OW14122   3.449   4.503   3.532
 4479SOL    HW114123   3.357   4.541   3.527
 4479SOL    HW214124   3.509   4.550   3.467
 4480SOL     OW14125   2.875   3.829   3.632
 4480SOL    HW114126   2.881   3.914   3.580
 4480SOL    HW214127   2.907   3.753   3.575
 4481SOL     OW14128   2.366   3.774   3.602
 4481SOL    HW114129   2.324   3.717   3.532
 4481SOL    HW214130   2.300   3.843   3.634
 4482SOL     OW14131   2.435   4.594   2.891
 4482SOL    HW114132   2.479   4.683   2.882
 4482SOL    HW214133   2.372   4.594   2.968
 4483SOL     OW14134   3.222   4.586   2.907
 4483SOL    HW114135   3.147   4.586   2.841
 4483SOL    HW214136   3.259   4.494   2.916
 4484SOL     OW14137   3.071   4.249   2.137
 4484SOL    HW114138   3.084   4.165   2.191
 4484SOL    HW214139   3.042   4.323   2.197
 4485SOL     OW14140   2.169   3.937   3.093
 4485SOL    HW114141   2.146   3.974   3.183
 4485SOL    HW214142   2.139   3.842   3.087
 4486SOL     OW14143   1.899   5.034   3.144
 4486SOL    HW114144   1.952   4.985   3.212
 4486SOL    HW214145   1.921   5.132   3.149
 4487SOL     OW14146   2.594   4.358   2.926
 4487SOL    HW114147   2.653   4.332   2.850
 4487SOL    HW214148   2.566   4.454   2.915
 4488SOL     OW14149   3.590   4.659   3.716
 4488SOL    HW114150   3.544   4.652   3.627
 4488SOL    HW214151   3.528   4.703   3.782
 4489SOL     OW14152   2.169   3.787   2.480
 4489SOL    HW114153   2.158   3.881   2.513
 4489SOL    HW214154   2.164   3.724   2.557
 4490SOL     OW14155   3.484   4.091   2.236
 4490SOL    HW114156   3.486   4.015   2.300
 4490SOL    HW214157   3.436   4.168   2.276
 4491SOL     OW14158   2.885   4.490   2.828
 4491SOL    HW114159   2.900   4.511   2.924
 4491SOL    HW214160   2.855   4.395   2.819
 4492SOL     OW14161   3.721   5.242   3.467
 4492SOL    HW114162   3.735   5.269   3.372
 4492SOL    HW214163   3.804   5.264   3.520
 4493SOL     OW14164   2.212   4.622   3.666
 4493SOL    HW114165   2.288   4.666   3.714
 4493SOL    HW214166   2.247   4.575   3.584
 4494SOL     OW14167   3.402   3.998   1.987
 4494SOL    HW114168   3.341   3.923   2.010
 4494SOL    HW214169   3.424   4.050   2.070
 4495SOL     OW14170   3.165   4.562   1.904
 4495SOL    HW114171   3.199   4.469   1.919
 4495SOL    HW214172   3.183   4.589   1.809
 4496SOL     OW14173   2.930   5.057   2.711
 4496SOL    HW114174   2.937   4.973   2.656
 4496SOL    HW214175   2.992   5.126   2.675
 4497SOL     OW14176   2.181   4.534   2.811
 4497SOL    HW114177   2.274   4.570   2.816
 4497SOL    HW214178   2.175   4.449   2.863
 4498SOL     OW14179   2.201   4.233   2.868
 4498SOL    HW114180   2.149   4.150   2.851
 4498SOL    HW214181   2.278   4.238   2.804
 4499SOL     OW14182   3.000   4.104   3.540
 4499SOL    HW114183   2.955   4.167   3.604
 4499SOL    HW214184   3.093   4.135   3.523
 4500SOL     OW14185   3.022   3.931   3.339
 4500SOL    HW114186   3.022   3.995   3.416
 4500SOL    HW214187   3.050   3.979   3.256
 4501SOL     OW14188   1.870   5.050   2.062
 4501SOL    HW114189   1.777   5.071   2.031
 4501SOL    HW214190   1.880   4.951   2.075
 4502SOL     OW14191   2.864   4.520   3.100
 4502SOL    HW114192   2.905   4.488   3.186
 4502SOL    HW214193   2.768   4.493   3.097
 4503SOL     OW14194   1.902   4.268   2.976
 4503SOL    HW114195   1.987   4.235   2.935
 4503SOL    HW214196   1.915   4.283   3.074
 4504SOL     OW14197   2.051   4.244   3.584
 4504SOL    HW114198   2.110   4.204   3.514
 4504SOL    HW214199   1.993   4.315   3.543
 4505SOL     OW14200   3.231   4.674   3.522
 4505SOL    HW114201   3.270   4.763   3.542
 4505SOL    HW214202   3.241   4.654   3.425
 4506SOL     OW14203   2.677   4.296   2.187
 4506SOL    HW114204   2.684   4.207   2.141
 4506SOL    HW214205   2.583   4.330   2.179
 4507SOL     OW14206   3.519   4.328   3.068
 4507SOL    HW114207   3.481   4.259   3.130
 4507SOL    HW214208   3.601   4.292   3.024
 4508SOL     OW14209   2.114   5.288   3.606
 4508SOL    HW114210   2.084   5.345   3.682
 4508SOL    HW214211   2.107   5.191   3.632
 4509SOL     OW14212   2.533   4.188   3.131
 4509SOL    HW114213   2.499   4.099   3.101
 4509SOL    HW214214   2.559   4.242   3.051
 4510SOL     OW14215   2.335   4.224   2.053
 4510SOL    HW114216   2.396   4.304   2.057
 4510SOL    HW214217   2.240   4.255   2.060
 4511SOL     OW14218   2.021   4.861   3.328
 4511SOL    HW114219   2.043   4.800   3.404
 4511SOL    HW214220   2.031   4.812   3.242
 4512SOL     OW14221   3.209   4.783   3.096
 4512SOL    HW114222   3.233   4.720   3.022
 4512SOL    HW214223   3.119   4.823   3.078
 4513SOL     OW14224   3.164   4.579   2.171
 4513SOL    HW114225   3.078   4.548   2.213
 4513SOL    HW214226   3.160   4.565   2.072
 4514SOL     OW14227   1.945   4.982   2.884
 4514SOL    HW114228   1.940   4.981   2.984
 4514SOL    HW214229   1.862   4.941   2.846
 4515SOL     OW14230   2.550   5.386   3.578
 4515SOL    HW114231   2.494   5.467   3.587
 4515SOL    HW214232   2.602   5.390   3.492
 4516SOL     OW14233   3.588   3.859   2.385
 4516SOL    HW114234   3.661   3.842   2.318
 4516SOL    HW214235   3.557   3.772   2.423
 4517SOL     OW14236   3.142   4.651   2.534
 4517SOL    HW114237   3.202   4.570   2.536
 4517SOL    HW214238   3.182   4.720   2.474
 4518SOL     OW14239   2.692   4.997   3.284
 4518SOL    HW114240   2.687   5.030   3.379
 4518SOL    HW214241   2.606   5.016   3.238
 4519SOL     OW14242   3.703   3.899   2.825
 4519SOL    HW114243   3.742   3.814   2.789
 4519SOL    HW214244   3.605   3.901   2.806
 4520SOL     OW14245   2.125   4.050   2.582
 4520SOL    HW114246   2.046   4.101   2.548
 4520SOL    HW214247   2.116   4.035   2.680
 4521SOL     OW14248   2.684   4.726   3.234
 4521SOL    HW114249   2.724   4.725   3.142
 4521SOL    HW214250   2.694   4.818   3.274
 4522SOL     OW14251   2.778   4.634   2.153
 4522SOL    HW114252   2.841   4.672   2.085
 4522SOL    HW214253   2.818   4.551   2.192
 4523SOL     OW14254   2.234   5.012   3.352
 4523SOL    HW114255   2.221   5.105   3.318
 4523SOL    HW214256   2.150   4.960   3.339
 4524SOL     OW14257   3.476   5.016   3.151
 4524SOL    HW114258   3.536   5.019   3.231
 4524SOL    HW214259   3.401   5.080   3.164
 4525SOL     OW14260   2.901   4.822   2.558
 4525SOL    HW114261   2.831   4.775   2.612
 4525SOL    HW214262   2.960   4.754   2.515
 4526SOL     OW14263   2.876   3.960   2.833
 4526SOL    HW114264   2.868   3.924   2.740
 4526SOL    HW214265   2.874   3.884   2.898
 4527SOL     OW14266   3.571   4.109   3.243
 4527SOL    HW114267   3.644   4.178   3.247
 4527SOL    HW214268   3.599   4.034   3.184
 4528SOL     OW14269   2.117   5.072   2.152
 4528SOL    HW114270   2.021   5.073   2.125
 4528SOL    HW214271   2.129   5.125   2.236
 4529SOL     OW14272   1.967   4.737   3.588
 4529SOL    HW114273   1.890   4.704   3.642
 4529SOL    HW214274   2.052   4.707   3.630
 4530SOL     OW14275   2.534   3.927   3.351
 4530SOL    HW114276   2.624   3.911   3.311
 4530SOL    HW214277   2.542   3.932   3.450
 4531SOL     OW14278   1.937   4.069   1.895
 4531SOL    HW114279   1.845   4.041   1.866
 4531SOL    HW214280   1.968   4.146   1.839
 4532SOL     OW14281   3.302   4.580   3.260
 4532SOL    HW114282   3.245   4.632   3.197
 4532SOL    HW214283   3.398   4.592   3.236
 4533SOL     OW14284   1.934   3.890   2.180
 4533SOL    HW114285   1.917   3.973   2.126
 4533SOL    HW214286   2.024   3.853   2.158
 4534SOL     OW14287   3.045   5.059   1.981
 4534SOL    HW114288   2.946   5.048   1.983
 4534SOL    HW214289   3.079   5.074   2.074
 4535SOL     OW14290   2.475   4.566   3.293
 4535SOL    HW114291   2.531   4.647   3.276
 4535SOL    HW214292   2.534   4.486   3.296
 4536SOL     OW14293   2.578   4.289   3.570
 4536SOL    HW114294   2.597   4.354   3.644
 4536SOL    HW214295   2.638   4.209   3.579
 4537SOL     OW14296   3.312   4.944   3.495
 4537SOL    HW114297   3.303   4.934   3.594
 4537SOL    HW214298   3.408   4.937   3.469
 4538SOL     OW14299   3.536   4.607   3.116
 4538SOL    HW114300   3.509   4.518   3.079
 4538SOL    HW214301   3.537   4.675   3.043
 4539SOL     OW14302   3.087   4.049   2.311
 4539SOL    HW114303   3.152   3.975   2.300
 4539SOL    HW214304   3.107   4.099   2.395
 4540SOL     OW14305   2.456   4.469   2.514
 4540SOL    HW114306   2.506   4.554   2.495
 4540SOL    HW214307   2.368   4.471   2.466
 4541SOL     OW14308   3.639   4.066   3.504
 4541SOL    HW114309   3.622   4.097   3.410
 4541SOL    HW214310   3.555   4.029   3.542
 4542SOL     OW14311   3.592   4.658   3.379
 4542SOL    HW114312   3.630   4.749   3.394
 4542SOL    HW214313   3.584   4.641   3.280
 4543SOL     OW14314   2.721   5.098   1.878
 4543SOL    HW114315   2.675   5.113   1.966
 4543SOL    HW214316   2.765   5.183   1.848
 4544SOL     OW14317   2.721   4.680   2.723
 4544SOL    HW114318   2.775   4.611   2.771
 4544SOL    HW214319   2.689   4.749   2.789
 4545SOL     OW14320   2.945   4.708   1.949
 4545SOL    HW114321   2.922   4.761   1.867
 4545SOL    HW214322   3.026   4.652   1.930
 4546SOL     OW14323   2.083   5.038   3.706
 4546SOL    HW114324   2.018   4.965   3.685
 4546SOL    HW214325   2.087   5.052   3.804
 4547SOL     OW14326   1.941   4.964   2.515
 4547SOL    HW114327   1.940   4.917   2.603
 4547SOL    HW214328   2.023   4.936   2.464
 4548SOL     OW14329   2.534   5.115   3.486
 4548SOL    HW114330   2.456   5.065   3.524
 4548SOL    HW214331   2.531   5.210   3.517
 4549SOL     OW14332   3.686   3.916   3.089
 4549SOL    HW114333   3.682   3.826   3.133
 4549SOL    HW214334   3.689   3.905   2.990
 4550SOL     OW14335   2.290   4.148   2.382
 4550SOL    HW114336   2.320   4.076   2.320
 4550SOL    HW214337   2.251   4.108   2.465
 4551SOL     OW14338   3.567   5.211   2.966
 4551SOL    HW114339   3.474   5.186   2.939
 4551SOL    HW214340   3.593   5.161   3.048
 4552SOL     OW14341   2.179   4.271   3.142
 4552SOL    HW114342   2.217   4.212   3.214
 4552SOL    HW214343   2.219   4.245   3.054
 4553SOL     OW14344   3.286   3.938   2.974
 4553SOL    HW114345   3.338   3.873   3.029
 4553SOL    HW214346   3.237   4.001   3.035
 4554SOL     OW14347   2.863   3.758   3.016
 4554SOL    HW114348   2.800   3.686   2.985
 4554SOL    HW214349   2.956   3.722   3.016
 4555SOL     OW14350   2.632   5.054   2.163
 4555SOL    HW114351   2.586   4.967   2.180
 4555SOL    HW214352   2.723   5.051   2.204
 4556SOL     OW14353   2.480   5.291   3.146
 4556SOL    HW114354   2.475   5.373   3.203
 4556SOL    HW214355   2.569   5.288   3.101
 4557SOL     OW14356   3.214   3.776   2.030
 4557SOL    HW114357   3.249   3.735   1.946
 4557SOL    HW214358   3.124   3.738   2.050
 4558SOL     OW14359   3.162   4.177   2.553
 4558SOL    HW114360   3.103   4.257   2.557
 4558SOL    HW214361   3.177   4.142   2.646
 4559SOL     OW14362   3.455   3.945   2.744
 4559SOL    HW114363   3.371   3.944   2.798
 4559SOL    HW214364   3.457   4.028   2.688
 4560SOL     OW14365   1.901   4.801   2.162
 4560SOL    HW114366   2.000   4.790   2.153
 4560SOL    HW214367   1.861   4.715   2.194
 4561SOL     OW14368   2.092   4.352   3.837
 4561SOL    HW114369   1.999   4.350   3.874
 4561SOL    HW214370   2.093   4.313   3.745
 4562SOL     OW14371   2.087   3.999   4.720
 4562SOL    HW114372   2.122   3.982   4.812
 4562SOL    HW214373   1.999   3.954   4.708
 4563SOL     OW14374   1.881   4.092   4.371
 4563SOL    HW114375   1.799   4.135   4.410
 4563SOL    HW214376   1.853   4.019   4.308
 4564SOL     OW14377   2.431   4.999   4.889
 4564SOL    HW114378   2.338   4.992   4.852
 4564SOL    HW214379   2.442   5.088   4.933
 4565SOL     OW14380   3.417   5.235   4.427
 4565SOL    HW114381   3.360   5.219   4.508
 4565SOL    HW214382   3.358   5.245   4.347
 4566SOL     OW14383   2.997   4.427   4.441
 4566SOL    HW114384   3.054   4.505   4.416
 4566SOL    HW214385   2.937   4.453   4.517
 4567SOL     OW14386   3.617   4.331   3.955
 4567SOL    HW114387   3.605   4.318   3.856
 4567SOL    HW214388   3.587   4.250   4.004
 4568SOL     OW14389   2.630   4.868   4.747
 4568SOL    HW114390   2.552   4.885   4.807
 4568SOL    HW214391   2.664   4.955   4.711
 4569SOL     OW14392   2.712   4.522   5.547
 4569SOL    HW114393   2.708   4.598   5.612
 4569SOL    HW214394   2.734   4.558   5.456
 4570SOL     OW14395   2.547   4.736   4.389
 4570SOL    HW114396   2.616   4.720   4.459
 4570SOL    HW214397   2.474   4.793   4.427
 4571SOL     OW14398   2.548   4.885   5.527
 4571SOL    HW114399   2.608   4.964   5.541
 4571SOL    HW214400   2.462   4.916   5.486
 4572SOL     OW14401   2.197   5.159   4.785
 4572SOL    HW114402   2.119   5.128   4.732
 4572SOL    HW214403   2.255   5.217   4.728
 4573SOL     OW14404   3.322   5.229   5.063
 4573SOL    HW114405   3.346   5.323   5.089
 4573SOL    HW214406   3.306   5.175   5.145
 4574SOL     OW14407   2.300   4.116   5.223
 4574SOL    HW114408   2.382   4.060   5.232
 4574SOL    HW214409   2.219   4.058   5.227
 4575SOL     OW14410   3.465   4.171   4.461
 4575SOL    HW114411   3.391   4.217   4.411
 4575SOL    HW214412   3.516   4.239   4.514
 4576SOL     OW14413   2.989   5.065   5.414
 4576SOL    HW114414   3.036   5.065   5.502
 4576SOL    HW214415   2.941   4.978   5.403
 4577SOL     OW14416   2.092   5.158   4.262
 4577SOL    HW114417   2.066   5.254   4.262
 4577SOL    HW214418   2.021   5.104   4.307
 4578SOL     OW14419   2.102   4.815   4.610
 4578SOL    HW114420   2.116   4.731   4.662
 4578SOL    HW214421   2.047   4.879   4.665
 4579SOL     OW14422   2.468   4.688   3.847
 4579SOL    HW114423   2.475   4.772   3.793
 4579SOL    HW214424   2.514   4.701   3.935
 4580SOL     OW14425   3.456   3.838   5.204
 4580SOL    HW114426   3.438   3.905   5.132
 4580SOL    HW214427   3.453   3.884   5.293
 4581SOL     OW14428   1.984   4.367   4.287
 4581SOL    HW114429   1.939   4.279   4.304
 4581SOL    HW214430   1.983   4.421   4.371
 4582SOL     OW14431   1.889   5.320   3.841
 4582SOL    HW114432   1.870   5.224   3.862
 4582SOL    HW214433   1.856   5.378   3.916
 4583SOL     OW14434   3.551   4.646   4.336
 4583SOL    HW114435   3.646   4.617   4.344
 4583SOL    HW214436   3.543   4.711   4.261
 4584SOL     OW14437   3.503   4.832   4.156
 4584SOL    HW114438   3.589   4.834   4.104
 4584SOL    HW214439   3.517   4.879   4.244
 4585SOL     OW14440   1.975   4.461   5.321
 4585SOL    HW114441   2.063   4.448   5.366
 4585SOL    HW214442   1.962   4.558   5.299
 4586SOL     OW14443   2.475   5.089   4.450
 4586SOL    HW114444   2.426   5.002   4.459
 4586SOL    HW214445   2.452   5.132   4.363
 4587SOL     OW14446   3.155   4.952   5.147
 4587SOL    HW114447   3.192   4.879   5.089
 4587SOL    HW214448   3.207   4.957   5.232
 4588SOL     OW14449   2.671   3.728   4.226
 4588SOL    HW114450   2.711   3.819   4.217
 4588SOL    HW214451   2.571   3.736   4.232
 4589SOL     OW14452   2.059   4.700   4.988
 4589SOL    HW114453   2.148   4.655   4.974
 4589SOL    HW214454   1.986   4.635   4.969
 4590SOL     OW14455   3.387   4.723   3.914
 4590SOL    HW114456   3.324   4.647   3.927
 4590SOL    HW214457   3.435   4.741   4.000
 4591SOL     OW14458   2.179   3.975   5.525
 4591SOL    HW114459   2.250   4.046   5.531
 4591SOL    HW214460   2.091   4.014   5.553
 4592SOL     OW14461   3.328   5.141   4.677
 4592SOL    HW114462   3.269   5.147   4.757
 4592SOL    HW214463   3.313   5.053   4.631
 4593SOL     OW14464   2.460   4.453   3.994
 4593SOL    HW114465   2.484   4.522   3.926
 4593SOL    HW214466   2.382   4.486   4.048
 4594SOL     OW14467   3.143   4.069   4.668
 4594SOL    HW114468   3.057   4.019   4.655
 4594SOL    HW214469   3.205   4.015   4.724
 4595SOL     OW14470   2.669   4.329   5.189
 4595SOL    HW114471   2.622   4.326   5.278
 4595SOL    HW214472   2.618   4.274   5.123
 4596SOL     OW14473   3.256   4.193   5.398
 4596SOL    HW114474   3.236   4.236   5.486
 4596SOL    HW214475   3.334   4.131   5.407
 4597SOL     OW14476   2.835   4.614   5.296
 4597SOL    HW114477   2.881   4.530   5.267
 4597SOL    HW214478   2.779   4.648   5.221
 4598SOL     OW14479   2.853   4.134   4.966
 4598SOL    HW114480   2.776   4.168   5.020
 4598SOL    HW214481   2.819   4.083   4.887
 4599SOL     OW14482   2.903   4.425   4.153
 4599SOL    HW114483   2.929   4.421   4.249
 4599SOL    HW214484   2.818   4.374   4.139
 4600SOL     OW14485   1.938   4.535   4.513
 4600SOL    HW114486   2.037   4.523   4.522
 4600SOL    HW214487   1.914   4.630   4.534
 4601SOL     OW14488   2.727   4.072   3.919
 4601SOL    HW114489   2.786   4.135   3.870
 4601SOL    HW214490   2.746   3.978   3.890
 4602SOL     OW14491   3.581   4.309   5.555
 4602SOL    HW114492   3.555   4.398   5.519
 4602SOL    HW214493   3.579   4.241   5.482
 4603SOL     OW14494   3.224   4.868   4.269
 4603SOL    HW114495   3.307   4.839   4.221
 4603SOL    HW214496   3.175   4.935   4.213
 4604SOL     OW14497   2.412   3.920   4.609
 4604SOL    HW114498   2.407   3.915   4.709
 4604SOL    HW214499   2.414   4.016   4.580
 4605SOL     OW14500   2.870   5.180   4.201
 4605SOL    HW114501   2.824   5.252   4.149
 4605SOL    HW214502   2.866   5.200   4.299
 4606SOL     OW14503   3.657   4.790   4.597
 4606SOL    HW114504   3.595   4.775   4.521
 4606SOL    HW214505   3.605   4.801   4.682
 4607SOL     OW14506   3.089   5.274   5.230
 4607SOL    HW114507   3.095   5.197   5.294
 4607SOL    HW214508   3.037   5.248   5.150
 4608SOL     OW14509   2.183   4.667   3.966
 4608SOL    HW114510   2.265   4.706   3.924
 4608SOL    HW214511   2.156   4.585   3.917
 4609SOL     OW14512   3.320   4.459   4.452
 4609SOL    HW114513   3.315   4.394   4.527
 4609SOL    HW214514   3.400   4.518   4.465
 4610SOL     OW14515   2.323   4.990   5.451
 4610SOL    HW114516   2.273   4.991   5.365
 4610SOL    HW214517   2.260   4.972   5.527
 4611SOL     OW14518   2.973   5.500   3.961
 4611SOL    HW114519   2.913   5.438   4.011
 4611SOL    HW214520   3.004   5.456   3.876
 4612SOL     OW14521   2.064   4.009   5.222
 4612SOL    HW114522   1.984   4.069   5.209
 4612SOL    HW214523   2.054   3.960   5.308
 4613SOL     OW14524   3.494   5.101   3.805
 4613SOL    HW114525   3.462   5.195   3.795
 4613SOL    HW214526   3.418   5.038   3.793
 4614SOL     OW14527   3.262   3.831   4.150
 4614SOL    HW114528   3.238   3.794   4.060
 4614SOL    HW214529   3.361   3.847   4.154
 4615SOL     OW14530   2.244   4.424   4.204
 4615SOL    HW114531   2.289   4.334   4.201
 4615SOL    HW214532   2.150   4.413   4.237
 4616SOL     OW14533   3.409   3.946   5.453
 4616SOL    HW114534   3.404   3.983   5.545
 4616SOL    HW214535   3.337   3.877   5.441
 4617SOL     OW14536   2.476   3.846   3.841
 4617SOL    HW114537   2.574   3.824   3.848
 4617SOL    HW214538   2.445   3.829   3.748
 4618SOL     OW14539   2.643   3.988   5.473
 4618SOL    HW114540   2.710   3.927   5.516
 4618SOL    HW214541   2.570   4.007   5.538
 4619SOL     OW14542   3.213   4.314   5.157
 4619SOL    HW114543   3.241   4.271   5.242
 4619SOL    HW214544   3.238   4.410   5.158
 4620SOL     OW14545   2.665   5.126   4.648
 4620SOL    HW114546   2.755   5.140   4.606
 4620SOL    HW214547   2.594   5.128   4.577
 4621SOL     OW14548   2.784   4.227   4.623
 4621SOL    HW114549   2.759   4.218   4.527
 4621SOL    HW214550   2.832   4.145   4.654
 4622SOL     OW14551   2.401   3.788   4.236
 4622SOL    HW114552   2.320   3.789   4.294
 4622SOL    HW214553   2.404   3.871   4.181
 4623SOL     OW14554   3.296   4.912   3.765
 4623SOL    HW114555   3.328   4.836   3.822
 4623SOL    HW214556   3.204   4.939   3.795
 4624SOL     OW14557   2.159   3.759   3.895
 4624SOL    HW114558   2.208   3.843   3.874
 4624SOL    HW214559   2.221   3.694   3.940
 4625SOL     OW14560   2.797   3.960   4.204
 4625SOL    HW114561   2.749   4.001   4.126
 4625SOL    HW214562   2.896   3.958   4.185
 4626SOL     OW14563   2.938   4.407   5.188
 4626SOL    HW114564   2.858   4.346   5.191
 4626SOL    HW214565   3.019   4.354   5.164
 4627SOL     OW14566   3.089   5.294   4.517
 4627SOL    HW114567   3.110   5.368   4.452
 4627SOL    HW214568   3.157   5.294   4.590
 4628SOL     OW14569   2.321   4.876   4.465
 4628SOL    HW114570   2.250   4.849   4.530
 4628SOL    HW214571   2.295   4.848   4.372
 4629SOL     OW14572   2.894   4.273   3.740
 4629SOL    HW114573   2.853   4.355   3.701
 4629SOL    HW214574   2.958   4.299   3.813
 4630SOL     OW14575   1.940   4.280   5.110
 4630SOL    HW114576   2.032   4.279   5.069
 4630SOL    HW214577   1.934   4.354   5.177
 4631SOL     OW14578   2.423   3.946   4.871
 4631SOL    HW114579   2.461   3.862   4.908
 4631SOL    HW214580   2.335   3.965   4.915
 4632SOL     OW14581   2.728   4.178   4.366
 4632SOL    HW114582   2.696   4.250   4.304
 4632SOL    HW214583   2.752   4.097   4.313
 4633SOL     OW14584   2.879   3.763   4.477
 4633SOL    HW114585   2.807   3.768   4.408
 4633SOL    HW214586   2.855   3.694   4.546
 4634SOL     OW14587   3.291   4.897   4.591
 4634SOL    HW114588   3.236   4.813   4.584
 4634SOL    HW214589   3.317   4.926   4.499
 4635SOL     OW14590   3.328   4.314   4.716
 4635SOL    HW114591   3.298   4.219   4.723
 4635SOL    HW214592   3.401   4.330   4.782
 4636SOL     OW14593   3.719   4.557   4.101
 4636SOL    HW114594   3.761   4.493   4.165
 4636SOL    HW214595   3.681   4.506   4.023
 4637SOL     OW14596   2.350   5.109   3.898
 4637SOL    HW114597   2.263   5.094   3.945
 4637SOL    HW214598   2.333   5.135   3.803
 4638SOL     OW14599   3.526   5.004   4.381
 4638SOL    HW114600   3.625   5.012   4.395
 4638SOL    HW214601   3.481   5.088   4.412
 4639SOL     OW14602   3.252   4.299   3.802
 4639SOL    HW114603   3.198   4.278   3.883
 4639SOL    HW214604   3.343   4.258   3.811
 4640SOL     OW14605   2.389   3.980   4.052
 4640SOL    HW114606   2.416   3.921   3.977
 4640SOL    HW214607   2.389   4.075   4.021
 4641SOL     OW14608   3.616   4.947   5.312
 4641SOL    HW114609   3.707   4.908   5.299
 4641SOL    HW214610   3.624   5.043   5.336
 4642SOL     OW14611   2.926   5.071   5.064
 4642SOL    HW114612   2.846   5.048   5.119
 4642SOL    HW214613   3.009   5.045   5.113
 4643SOL     OW14614   2.973   4.919   4.824
 4643SOL    HW114615   2.933   4.963   4.905
 4643SOL    HW214616   2.932   4.956   4.741
 4644SOL     OW14617   3.500   4.823   4.803
 4644SOL    HW114618   3.505   4.904   4.862
 4644SOL    HW214619   3.414   4.825   4.752
 4645SOL     OW14620   2.777   3.813   5.126
 4645SOL    HW114621   2.802   3.793   5.031
 4645SOL    HW214622   2.849   3.869   5.168
 4646SOL     OW14623   2.842   4.840   5.443
 4646SOL    HW114624   2.743   4.846   5.453
 4646SOL    HW214625   2.865   4.760   5.387
 4647SOL     OW14626   2.567   4.774   4.092
 4647SOL    HW114627   2.553   4.781   4.191
 4647SOL    HW214628   2.651   4.723   4.074
 4648SOL     OW14629   2.272   4.537   4.975
 4648SOL    HW114630   2.358   4.549   5.025
 4648SOL    HW214631   2.230   4.450   5.002
 4649SOL     OW14632   3.136   4.110   4.986
 4649SOL    HW114633   3.157   4.184   5.050
 4649SOL    HW214634   3.047   4.127   4.943
 4650SOL     OW14635   2.229   4.824   4.225
 4650SOL    HW114636   2.222   4.907   4.169
 4650SOL    HW214637   2.233   4.744   4.165
 4651SOL     OW14638   2.428   4.261   4.589
 4651SOL    HW114639   2.440   4.327   4.515
 4651SOL    HW214640   2.474   4.295   4.672
 4652SOL     OW14641   3.114   5.072   4.112
 4652SOL    HW114642   3.164   5.149   4.152
 4652SOL    HW214643   3.019   5.074   4.144
 4653SOL     OW14644   3.134   5.169   4.866
 4653SOL    HW114645   3.181   5.182   4.953
 4653SOL    HW214646   3.068   5.095   4.875
 4654SOL     OW14647   3.444   4.363   4.196
 4654SOL    HW114648   3.413   4.424   4.269
 4654SOL    HW214649   3.494   4.415   4.127
 4655SOL     OW14650   2.216   5.234   5.053
 4655SOL    HW114651   2.195   5.190   4.966
 4655SOL    HW214652   2.313   5.260   5.056
 4656SOL     OW14653   2.264   4.475   5.322
 4656SOL    HW114654   2.332   4.530   5.275
 4656SOL    HW214655   2.304   4.387   5.349
 4657SOL     OW14656   3.449   4.503   5.394
 4657SOL    HW114657   3.357   4.541   5.389
 4657SOL    HW214658   3.509   4.550   5.329
 4658SOL     OW14659   2.875   3.829   5.494
 4658SOL    HW114660   2.881   3.914   5.442
 4658SOL    HW214661   2.907   3.753   5.437
 4659SOL     OW14662   2.366   3.774   5.464
 4659SOL    HW114663   2.324   3.717   5.394
 4659SOL    HW214664   2.300   3.843   5.496
 4660SOL     OW14665   2.435   4.594   4.753
 4660SOL    HW114666   2.479   4.683   4.744
 4660SOL    HW214667   2.372   4.594   4.830
 4661SOL     OW14668   3.222   4.586   4.769
 4661SOL    HW114669   3.147   4.586   4.703
 4661SOL    HW214670   3.259   4.494   4.778
 4662SOL     OW14671   3.071   4.249   3.999
 4662SOL    HW114672   3.084   4.165   4.053
 4662SOL    HW214673   3.042   4.323   4.059
 4663SOL     OW14674   2.169   3.937   4.955
 4663SOL    HW114675   2.146   3.974   5.045
 4663SOL    HW214676   2.139   3.842   4.949
 4664SOL     OW14677   1.899   5.034   5.006
 4664SOL    HW114678   1.952   4.985   5.074
 4664SOL    HW214679   1.921   5.132   5.011
 4665SOL     OW14680   2.594   4.358   4.788
 4665SOL    HW114681   2.653   4.332   4.712
 4665SOL    HW214682   2.566   4.454   4.777
 4666SOL     OW14683   3.590   4.659   5.578
 4666SOL    HW114684   3.544   4.652   5.489
 4666SOL    HW214685   3.528   4.703   5.644
 4667SOL     OW14686   2.169   3.787   4.342
 4667SOL    HW114687   2.158   3.881   4.375
 4667SOL    HW214688   2.164   3.724   4.419
 4668SOL     OW14689   3.484   4.091   4.098
 4668SOL    HW114690   3.486   4.015   4.162
 4668SOL    HW214691   3.436   4.168   4.138
 4669SOL     OW14692   2.885   4.490   4.690
 4669SOL    HW114693   2.900   4.511   4.786
 4669SOL    HW214694   2.855   4.395   4.681
 4670SOL     OW14695   3.721   5.242   5.329
 4670SOL    HW114696   3.735   5.269   5.234
 4670SOL    HW214697   3.804   5.264   5.382
 4671SOL     OW14698   2.212   4.622   5.528
 4671SOL    HW114699   2.288   4.666   5.576
 4671SOL    HW214700   2.247   4.575   5.446
 4672SOL     OW14701   3.402   3.998   3.849
 4672SOL    HW114702   3.341   3.923   3.872
 4672SOL    HW214703   3.424   4.050   3.932
 4673SOL     OW14704   3.165   4.562   3.766
 4673SOL    HW114705   3.199   4.469   3.781
 4673SOL    HW214706   3.183   4.589   3.671
 4674SOL     OW14707   2.930   5.057   4.573
 4674SOL    HW114708   2.937   4.973   4.518
 4674SOL    HW214709   2.992   5.126   4.537
 4675SOL     OW14710   2.181   4.534   4.673
 4675SOL    HW114711   2.274   4.570   4.678
 4675SOL    HW214712   2.175   4.449   4.725
 4676SOL     OW14713   2.201   4.233   4.730
 4676SOL    HW114714   2.149   4.150   4.713
 4676SOL    HW214715   2.278   4.238   4.666
 4677SOL     OW14716   3.000   4.104   5.402
 4677SOL    HW114717   2.955   4.167   5.466
 4677SOL    HW214718   3.093   4.135   5.385
 4678SOL     OW14719   3.022   3.931   5.201
 4678SOL    HW114720   3.022   3.995   5.278
 4678SOL    HW214721   3.050   3.979   5.118
 4679SOL     OW14722   1.870   5.050   3.924
 4679SOL    HW114723   1.777   5.071   3.893
 4679SOL    HW214724   1.880   4.951   3.937
 4680SOL     OW14725   2.864   4.520   4.962
 4680SOL    HW114726   2.905   4.488   5.048
 4680SOL    HW214727   2.768   4.493   4.959
 4681SOL     OW14728   1.902   4.268   4.838
 4681SOL    HW114729   1.987   4.235   4.797
 4681SOL    HW214730   1.915   4.283   4.936
 4682SOL     OW14731   2.051   4.244   5.446
 4682SOL    HW114732   2.110   4.204   5.376
 4682SOL    HW214733   1.993   4.315   5.405
 4683SOL     OW14734   3.231   4.674   5.384
 4683SOL    HW114735   3.270   4.763   5.404
 4683SOL    HW214736   3.241   4.654   5.287
 4684SOL     OW14737   2.677   4.296   4.049
 4684SOL    HW114738   2.684   4.207   4.003
 4684SOL    HW214739   2.583   4.330   4.041
 4685SOL     OW14740   3.519   4.328   4.930
 4685SOL    HW114741   3.481   4.259   4.992
 4685SOL    HW214742   3.601   4.292   4.886
 4686SOL     OW14743   2.114   5.288   5.468
 4686SOL    HW114744   2.084   5.345   5.544
 4686SOL    HW214745   2.107   5.191   5.494
 4687SOL     OW14746   2.533   4.188   4.993
 4687SOL    HW114747   2.499   4.099   4.963
 4687SOL    HW214748   2.559   4.242   4.913
 4688SOL     OW14749   2.335   4.224   3.915
 4688SOL    HW114750   2.396   4.304   3.919
 4688SOL    HW214751   2.240   4.255   3.922
 4689SOL     OW14752   2.021   4.861   5.190
 4689SOL    HW114753   2.043   4.800   5.266
 4689SOL    HW214754   2.031   4.812   5.104
 4690SOL     OW14755   3.209   4.783   4.958
 4690SOL    HW114756   3.233   4.720   4.884
 4690SOL    HW214757   3.119   4.823   4.940
 4691SOL     OW14758   3.164   4.579   4.033
 4691SOL    HW114759   3.078   4.548   4.075
 4691SOL    HW214760   3.160   4.565   3.934
 4692SOL     OW14761   1.945   4.982   4.746
 4692SOL    HW114762   1.940   4.981   4.846
 4692SOL    HW214763   1.862   4.941   4.708
 4693SOL     OW14764   2.550   5.386   5.440
 4693SOL    HW114765   2.494   5.467   5.449
 4693SOL    HW214766   2.602   5.390   5.354
 4694SOL     OW14767   3.588   3.859   4.247
 4694SOL    HW114768   3.661   3.842   4.180
 4694SOL    HW214769   3.557   3.772   4.285
 4695SOL     OW14770   3.142   4.651   4.396
 4695SOL    HW114771   3.202   4.570   4.398
 4695SOL    HW214772   3.182   4.720   4.336
 4696SOL     OW14773   2.692   4.997   5.146
 4696SOL    HW114774   2.687   5.030   5.241
 4696SOL    HW214775   2.606   5.016   5.100
 4697SOL     OW14776   3.703   3.899   4.687
 4697SOL    HW114777   3.742   3.814   4.651
 4697SOL    HW214778   3.605   3.901   4.668
 4698SOL     OW14779   2.125   4.050   4.444
 4698SOL    HW114780   2.046   4.101   4.410
 4698SOL    HW214781   2.116   4.035   4.542
 4699SOL     OW14782   2.684   4.726   5.096
 4699SOL    HW114783   2.724   4.725   5.004
 4699SOL    HW214784   2.694   4.818   5.136
 4700SOL     OW14785   2.778   4.634   4.015
 4700SOL    HW114786   2.841   4.672   3.947
 4700SOL    HW214787   2.818   4.551   4.054
 4701SOL     OW14788   2.234   5.012   5.214
 4701SOL    HW114789   2.221   5.105   5.180
 4701SOL    HW214790   2.150   4.960   5.201
 4702SOL     OW14791   3.476   5.016   5.013
 4702SOL    HW114792   3.536   5.019   5.093
 4702SOL    HW214793   3.401   5.080   5.026
 4703SOL     OW14794   2.901   4.822   4.420
 4703SOL    HW114795   2.831   4.775   4.474
 4703SOL    HW214796   2.960   4.754   4.377
 4704SOL     OW14797   2.876   3.960   4.695
 4704SOL    HW114798   2.868   3.924   4.602
 4704SOL    HW214799   2.874   3.884   4.760
 4705SOL     OW14800   3.571   4.109   5.105
 4705SOL    HW114801   3.644   4.178   5.109
 4705SOL    HW214802   3.599   4.034   5.046
 4706SOL     OW14803   2.117   5.072   4.014
 4706SOL    HW114804   2.021   5.073   3.987
 4706SOL    HW214805   2.129   5.125   4.098
 4707SOL     OW14806   1.967   4.737   5.450
 4707SOL    HW114807   1.890   4.704   5.504
 4707SOL    HW214808   2.052   4.707   5.492
 4708SOL     OW14809   2.534   3.927   5.213
 4708SOL    HW114810   2.624   3.911   5.173
 4708SOL    HW214811   2.542   3.932   5.312
 4709SOL     OW14812   1.937   4.069   3.757
 4709SOL    HW114813   1.845   4.041   3.728
 4709SOL    HW214814   1.968   4.146   3.701
 4710SOL     OW14815   3.302   4.580   5.122
 4710SOL    HW114816   3.245   4.632   5.059
 4710SOL    HW214817   3.398   4.592   5.098
 4711SOL     OW14818   1.934   3.890   4.042
 4711SOL    HW114819   1.917   3.973   3.988
 4711SOL    HW214820   2.024   3.853   4.020
 4712SOL     OW14821   3.045   5.059   3.843
 4712SOL    HW114822   2.946   5.048   3.845
 4712SOL    HW214823   3.079   5.074   3.936
 4713SOL     OW14824   2.475   4.566   5.155
 4713SOL    HW114825   2.531   4.647   5.138
 4713SOL    HW214826   2.534   4.486   5.158
 4714SOL     OW14827   2.578   4.289   5.432
 4714SOL    HW114828   2.597   4.354   5.506
 4714SOL    HW214829   2.638   4.209   5.441
 4715SOL     OW14830   3.312   4.944   5.357
 4715SOL    HW114831   3.303   4.934   5.456
 4715SOL    HW214832   3.408   4.937   5.331
 4716SOL     OW14833   3.536   4.607   4.978
 4716SOL    HW114834   3.509   4.518   4.941
 4716SOL    HW214835   3.537   4.675   4.905
 4717SOL     OW14836   3.087   4.049   4.173
 4717SOL    HW114837   3.152   3.975   4.162
 4717SOL    HW214838   3.107   4.099   4.257
 4718SOL     OW14839   2.456   4.469   4.376
 4718SOL    HW114840   2.506   4.554   4.357
 4718SOL    HW214841   2.368   4.471   4.328
 4719SOL     OW14842   3.639   4.066   5.366
 4719SOL    HW114843   3.622   4.097   5.272
 4719SOL    HW214844   3.555   4.029   5.404
 4720SOL     OW14845   3.592   4.658   5.241
 4720SOL    HW114846   3.630   4.749   5.256
 4720SOL    HW214847   3.584   4.641   5.142
 4721SOL     OW14848   2.721   5.098   3.740
 4721SOL    HW114849   2.675   5.113   3.828
 4721SOL    HW214850   2.765   5.183   3.710
 4722SOL     OW14851   2.721   4.680   4.585
 4722SOL    HW114852   2.775   4.611   4.633
 4722SOL    HW214853   2.689   4.749   4.651
 4723SOL     OW14854   2.945   4.708   3.811
 4723SOL    HW114855   2.922   4.761   3.729
 4723SOL    HW214856   3.026   4.652   3.792
 4724SOL     OW14857   2.083   5.038   5.568
 4724SOL    HW114858   2.018   4.965   5.547
 4724SOL    HW214859   2.087   5.052   5.666
 4725SOL     OW14860   1.941   4.964   4.377
 4725SOL    HW114861   1.940   4.917   4.465
 4725SOL    HW214862   2.023   4.936   4.326
 4726SOL     OW14863   2.534   5.115   5.348
 4726SOL    HW114864   2.456   5.065   5.386
 4726SOL    HW214865   2.531   5.210   5.379
 4727SOL     OW14866   3.686   3.916   4.951
 4727SOL    HW114867   3.682   3.826   4.995
 4727SOL    HW214868   3.689   3.905   4.852
 4728SOL     OW14869   2.290   4.148   4.244
 4728SOL    HW114870   2.320   4.076   4.182
 4728SOL    HW214871   2.251   4.108   4.327
 4729SOL     OW14872   3.567   5.211   4.828
 4729SOL    HW114873   3.474   5.186   4.801
 4729SOL    HW214874   3.593   5.161   4.910
 4730SOL     OW14875   2.179   4.271   5.004
 4730SOL    HW114876   2.217   4.212   5.076
 4730SOL    HW214877   2.219   4.245   4.916
 4731SOL     OW14878   3.286   3.938   4.836
 4731SOL    HW114879   3.338   3.873   4.891
 4731SOL    HW214880   3.237   4.001   4.897
 4732SOL     OW14881   2.863   3.758   4.878
 4732SOL    HW114882   2.800   3.686   4.847
 4732SOL    HW214883   2.956   3.722   4.878
 4733SOL     OW14884   2.632   5.054   4.025
 4733SOL    HW114885   2.586   4.967   4.042
 4733SOL    HW214886   2.723   5.051   4.066
 4734SOL     OW14887   2.480   5.291   5.008
 4734SOL    HW114888   2.475   5.373   5.065
 4734SOL    HW214889   2.569   5.288   4.963
 4735SOL     OW14890   3.214   3.776   3.892
 4735SOL    HW114891   3.249   3.735   3.808
 4735SOL    HW214892   3.124   3.738   3.912
 4736SOL     OW14893   3.162   4.177   4.415
 4736SOL    HW114894   3.103   4.257   4.419
 4736SOL    HW214895   3.177   4.142   4.508
 4737SOL     OW14896   3.455   3.945   4.606
 4737SOL    HW114897   3.371   3.944   4.660
 4737SOL    HW214898   3.457   4.028   4.550
 4738SOL     OW14899   1.901   4.801   4.024
 4738SOL    HW114900   2.000   4.790   4.015
 4738SOL    HW214901   1.861   4.715   4.056
 4739SOL     OW14902   2.092   4.352   5.699
 4739SOL    HW114903   1.999   4.350   5.736
 4739SOL    HW214904   2.093   4.313   5.607
 4740SOL     OW14905   2.087   3.999   6.582
 4740SOL    HW114906   2.122   3.982   6.674
 4740SOL    HW214907   1.999   3.954   6.570
 4741SOL     OW14908   1.881   4.092   6.233
 4741SOL    HW114909   1.799   4.135   6.272
 4741SOL    HW214910   1.853   4.019   6.170
 4742SOL     OW14911   2.431   4.999   6.751
 4742SOL    HW114912   2.338   4.992   6.714
 4742SOL    HW214913   2.442   5.088   6.795
 4743SOL     OW14914   3.417   5.235   6.289
 4743SOL    HW114915   3.360   5.219   6.370
 4743SOL    HW214916   3.358   5.245   6.209
 4744SOL     OW14917   2.997   4.427   6.303
 4744SOL    HW114918   3.054   4.505   6.278
 4744SOL    HW214919   2.937   4.453   6.379
 4745SOL     OW14920   3.617   4.331   5.817
 4745SOL    HW114921   3.605   4.318   5.718
 4745SOL    HW214922   3.587   4.250   5.866
 4746SOL     OW14923   2.630   4.868   6.609
 4746SOL    HW114924   2.552   4.885   6.669
 4746SOL    HW214925   2.664   4.955   6.573
 4747SOL     OW14926   2.712   4.522   7.409
 4747SOL    HW114927   2.708   4.598   7.474
 4747SOL    HW214928   2.734   4.558   7.318
 4748SOL     OW14929   2.547   4.736   6.251
 4748SOL    HW114930   2.616   4.720   6.321
 4748SOL    HW214931   2.474   4.793   6.289
 4749SOL     OW14932   2.548   4.885   7.389
 4749SOL    HW114933   2.608   4.964   7.403
 4749SOL    HW214934   2.462   4.916   7.348
 4750SOL     OW14935   2.197   5.159   6.647
 4750SOL    HW114936   2.119   5.128   6.594
 4750SOL    HW214937   2.255   5.217   6.590
 4751SOL     OW14938   3.322   5.229   6.925
 4751SOL    HW114939   3.346   5.323   6.951
 4751SOL    HW214940   3.306   5.175   7.007
 4752SOL     OW14941   2.300   4.116   7.085
 4752SOL    HW114942   2.382   4.060   7.094
 4752SOL    HW214943   2.219   4.058   7.089
 4753SOL     OW14944   3.465   4.171   6.323
 4753SOL    HW114945   3.391   4.217   6.273
 4753SOL    HW214946   3.516   4.239   6.376
 4754SOL     OW14947   2.989   5.065   7.276
 4754SOL    HW114948   3.036   5.065   7.364
 4754SOL    HW214949   2.941   4.978   7.265
 4755SOL     OW14950   2.092   5.158   6.124
 4755SOL    HW114951   2.066   5.254   6.124
 4755SOL    HW214952   2.021   5.104   6.169
 4756SOL     OW14953   2.102   4.815   6.472
 4756SOL    HW114954   2.116   4.731   6.524
 4756SOL    HW214955   2.047   4.879   6.527
 4757SOL     OW14956   2.468   4.688   5.709
 4757SOL    HW114957   2.475   4.772   5.655
 4757SOL    HW214958   2.514   4.701   5.797
 4758SOL     OW14959   3.456   3.838   7.066
 4758SOL    HW114960   3.438   3.905   6.994
 4758SOL    HW214961   3.453   3.884   7.155
 4759SOL     OW14962   1.984   4.367   6.149
 4759SOL    HW114963   1.939   4.279   6.166
 4759SOL    HW214964   1.983   4.421   6.233
 4760SOL     OW14965   1.889   5.320   5.703
 4760SOL    HW114966   1.870   5.224   5.724
 4760SOL    HW214967   1.856   5.378   5.778
 4761SOL     OW14968   3.551   4.646   6.198
 4761SOL    HW114969   3.646   4.617   6.206
 4761SOL    HW214970   3.543   4.711   6.123
 4762SOL     OW14971   3.503   4.832   6.018
 4762SOL    HW114972   3.589   4.834   5.966
 4762SOL    HW214973   3.517   4.879   6.106
 4763SOL     OW14974   1.975   4.461   7.183
 4763SOL    HW114975   2.063   4.448   7.228
 4763SOL    HW214976   1.962   4.558   7.161
 4764SOL     OW14977   2.475   5.089   6.312
 4764SOL    HW114978   2.426   5.002   6.321
 4764SOL    HW214979   2.452   5.132   6.225
 4765SOL     OW14980   3.155   4.952   7.009
 4765SOL    HW114981   3.192   4.879   6.951
 4765SOL    HW214982   3.207   4.957   7.094
 4766SOL     OW14983   2.671   3.728   6.088
 4766SOL    HW114984   2.711   3.819   6.079
 4766SOL    HW214985   2.571   3.736   6.094
 4767SOL     OW14986   2.059   4.700   6.850
 4767SOL    HW114987   2.148   4.655   6.836
 4767SOL    HW214988   1.986   4.635   6.831
 4768SOL     OW14989   3.387   4.723   5.776
 4768SOL    HW114990   3.324   4.647   5.789
 4768SOL    HW214991   3.435   4.741   5.862
 4769SOL     OW14992   2.179   3.975   7.387
 4769SOL    HW114993   2.250   4.046   7.393
 4769SOL    HW214994   2.091   4.014   7.415
 4770SOL     OW14995   3.328   5.141   6.539
 4770SOL    HW114996   3.269   5.147   6.619
 4770SOL    HW214997   3.313   5.053   6.493
 4771SOL     OW14998   2.460   4.453   5.856
 4771SOL    HW114999   2.484   4.522   5.788
 4771SOL    HW215000   2.382   4.486   5.910
 4772SOL     OW15001   3.143   4.069   6.530
 4772SOL    HW115002   3.057   4.019   6.517
 4772SOL    HW215003   3.205   4.015   6.586
 4773SOL     OW15004   2.669   4.329   7.051
 4773SOL    HW115005   2.622   4.326   7.140
 4773SOL    HW215006   2.618   4.274   6.985
 4774SOL     OW15007   3.256   4.193   7.260
 4774SOL    HW115008   3.236   4.236   7.348
 4774SOL    HW215009   3.334   4.131   7.269
 4775SOL     OW15010   2.835   4.614   7.158
 4775SOL    HW115011   2.881   4.530   7.129
 4775SOL    HW215012   2.779   4.648   7.083
 4776SOL     OW15013   2.853   4.134   6.828
 4776SOL    HW115014   2.776   4.168   6.882
 4776SOL    HW215015   2.819   4.083   6.749
 4777SOL     OW15016   2.903   4.425   6.015
 4777SOL    HW115017   2.929   4.421   6.111
 4777SOL    HW215018   2.818   4.374   6.001
 4778SOL     OW15019   1.938   4.535   6.375
 4778SOL    HW115020   2.037   4.523   6.384
 4778SOL    HW215021   1.914   4.630   6.396
 4779SOL     OW15022   2.727   4.072   5.781
 4779SOL    HW115023   2.786   4.135   5.732
 4779SOL    HW215024   2.746   3.978   5.752
 4780SOL     OW15025   3.581   4.309   7.417
 4780SOL    HW115026   3.555   4.398   7.381
 4780SOL    HW215027   3.579   4.241   7.344
 4781SOL     OW15028   3.224   4.868   6.131
 4781SOL    HW115029   3.307   4.839   6.083
 4781SOL    HW215030   3.175   4.935   6.075
 4782SOL     OW15031   2.412   3.920   6.471
 4782SOL    HW115032   2.407   3.915   6.571
 4782SOL    HW215033   2.414   4.016   6.442
 4783SOL     OW15034   2.870   5.180   6.063
 4783SOL    HW115035   2.824   5.252   6.011
 4783SOL    HW215036   2.866   5.200   6.161
 4784SOL     OW15037   3.657   4.790   6.459
 4784SOL    HW115038   3.595   4.775   6.383
 4784SOL    HW215039   3.605   4.801   6.544
 4785SOL     OW15040   3.089   5.274   7.092
 4785SOL    HW115041   3.095   5.197   7.156
 4785SOL    HW215042   3.037   5.248   7.012
 4786SOL     OW15043   2.183   4.667   5.828
 4786SOL    HW115044   2.265   4.706   5.786
 4786SOL    HW215045   2.156   4.585   5.779
 4787SOL     OW15046   3.320   4.459   6.314
 4787SOL    HW115047   3.315   4.394   6.389
 4787SOL    HW215048   3.400   4.518   6.327
 4788SOL     OW15049   2.323   4.990   7.313
 4788SOL    HW115050   2.273   4.991   7.227
 4788SOL    HW215051   2.260   4.972   7.389
 4789SOL     OW15052   2.973   5.500   5.823
 4789SOL    HW115053   2.913   5.438   5.873
 4789SOL    HW215054   3.004   5.456   5.738
 4790SOL     OW15055   2.064   4.009   7.084
 4790SOL    HW115056   1.984   4.069   7.071
 4790SOL    HW215057   2.054   3.960   7.170
 4791SOL     OW15058   3.494   5.101   5.667
 4791SOL    HW115059   3.462   5.195   5.657
 4791SOL    HW215060   3.418   5.038   5.655
 4792SOL     OW15061   3.262   3.831   6.012
 4792SOL    HW115062   3.238   3.794   5.922
 4792SOL    HW215063   3.361   3.847   6.016
 4793SOL     OW15064   2.244   4.424   6.066
 4793SOL    HW115065   2.289   4.334   6.063
 4793SOL    HW215066   2.150   4.413   6.099
 4794SOL     OW15067   3.409   3.946   7.315
 4794SOL    HW115068   3.404   3.983   7.407
 4794SOL    HW215069   3.337   3.877   7.303
 4795SOL     OW15070   2.476   3.846   5.703
 4795SOL    HW115071   2.574   3.824   5.710
 4795SOL    HW215072   2.445   3.829   5.610
 4796SOL     OW15073   2.643   3.988   7.335
 4796SOL    HW115074   2.710   3.927   7.378
 4796SOL    HW215075   2.570   4.007   7.400
 4797SOL     OW15076   3.213   4.314   7.019
 4797SOL    HW115077   3.241   4.271   7.104
 4797SOL    HW215078   3.238   4.410   7.020
 4798SOL     OW15079   2.665   5.126   6.510
 4798SOL    HW115080   2.755   5.140   6.468
 4798SOL    HW215081   2.594   5.128   6.439
 4799SOL     OW15082   2.784   4.227   6.485
 4799SOL    HW115083   2.759   4.218   6.389
 4799SOL    HW215084   2.832   4.145   6.516
 4800SOL     OW15085   2.401   3.788   6.098
 4800SOL    HW115086   2.320   3.789   6.156
 4800SOL    HW215087   2.404   3.871   6.043
 4801SOL     OW15088   3.296   4.912   5.627
 4801SOL    HW115089   3.328   4.836   5.684
 4801SOL    HW215090   3.204   4.939   5.657
 4802SOL     OW15091   2.159   3.759   5.757
 4802SOL    HW115092   2.208   3.843   5.736
 4802SOL    HW215093   2.221   3.694   5.802
 4803SOL     OW15094   2.797   3.960   6.066
 4803SOL    HW115095   2.749   4.001   5.988
 4803SOL    HW215096   2.896   3.958   6.047
 4804SOL     OW15097   2.938   4.407   7.050
 4804SOL    HW115098   2.858   4.346   7.053
 4804SOL    HW215099   3.019   4.354   7.026
 4805SOL     OW15100   3.089   5.294   6.379
 4805SOL    HW115101   3.110   5.368   6.314
 4805SOL    HW215102   3.157   5.294   6.452
 4806SOL     OW15103   2.321   4.876   6.327
 4806SOL    HW115104   2.250   4.849   6.392
 4806SOL    HW215105   2.295   4.848   6.234
 4807SOL     OW15106   2.894   4.273   5.602
 4807SOL    HW115107   2.853   4.355   5.563
 4807SOL    HW215108   2.958   4.299   5.675
 4808SOL     OW15109   1.940   4.280   6.972
 4808SOL    HW115110   2.032   4.279   6.931
 4808SOL    HW215111   1.934   4.354   7.039
 4809SOL     OW15112   2.423   3.946   6.733
 4809SOL    HW115113   2.461   3.862   6.770
 4809SOL    HW215114   2.335   3.965   6.777
 4810SOL     OW15115   2.728   4.178   6.228
 4810SOL    HW115116   2.696   4.250   6.166
 4810SOL    HW215117   2.752   4.097   6.175
 4811SOL     OW15118   2.879   3.763   6.339
 4811SOL    HW115119   2.807   3.768   6.270
 4811SOL    HW215120   2.855   3.694   6.408
 4812SOL     OW15121   3.291   4.897   6.453
 4812SOL    HW115122   3.236   4.813   6.446
 4812SOL    HW215123   3.317   4.926   6.361
 4813SOL     OW15124   3.328   4.314   6.578
 4813SOL    HW115125   3.298   4.219   6.585
 4813SOL    HW215126   3.401   4.330   6.644
 4814SOL     OW15127   3.719   4.557   5.963
 4814SOL    HW115128   3.761   4.493   6.027
 4814SOL    HW215129   3.681   4.506   5.885
 4815SOL     OW15130   2.350   5.109   5.760
 4815SOL    HW115131   2.263   5.094   5.807
 4815SOL    HW215132   2.333   5.135   5.665
 4816SOL     OW15133   3.526   5.004   6.243
 4816SOL    HW115134   3.625   5.012   6.257
 4816SOL    HW215135   3.481   5.088   6.274
 4817SOL     OW15136   3.252   4.299   5.664
 4817SOL    HW115137   3.198   4.278   5.745
 4817SOL    HW215138   3.343   4.258   5.673
 4818SOL     OW15139   2.389   3.980   5.914
 4818SOL    HW115140   2.416   3.921   5.839
 4818SOL    HW215141   2.389   4.075   5.883
 4819SOL     OW15142   3.616   4.947   7.174
 4819SOL    HW115143   3.707   4.908   7.161
 4819SOL    HW215144   3.624   5.043   7.198
 4820SOL     OW15145   2.926   5.071   6.926
 4820SOL    HW115146   2.846   5.048   6.981
 4820SOL    HW215147   3.009   5.045   6.975
 4821SOL     OW15148   2.973   4.919   6.686
 4821SOL    HW115149   2.933   4.963   6.767
 4821SOL    HW215150   2.932   4.956   6.603
 4822SOL     OW15151   3.500   4.823   6.665
 4822SOL    HW115152   3.505   4.904   6.724
 4822SOL    HW215153   3.414   4.825   6.614
 4823SOL     OW15154   2.777   3.813   6.988
 4823SOL    HW115155   2.802   3.793   6.893
 4823SOL    HW215156   2.849   3.869   7.030
 4824SOL     OW15157   2.842   4.840   7.305
 4824SOL    HW115158   2.743   4.846   7.315
 4824SOL    HW215159   2.865   4.760   7.249
 4825SOL     OW15160   2.567   4.774   5.954
 4825SOL    HW115161   2.553   4.781   6.053
 4825SOL    HW215162   2.651   4.723   5.936
 4826SOL     OW15163   2.272   4.537   6.837
 4826SOL    HW115164   2.358   4.549   6.887
 4826SOL    HW215165   2.230   4.450   6.864
 4827SOL     OW15166   3.136   4.110   6.848
 4827SOL    HW115167   3.157   4.184   6.912
 4827SOL    HW215168   3.047   4.127   6.805
 4828SOL     OW15169   2.229   4.824   6.087
 4828SOL    HW115170   2.222   4.907   6.031
 4828SOL    HW215171   2.233   4.744   6.027
 4829SOL     OW15172   2.428   4.261   6.451
 4829SOL    HW115173   2.440   4.327   6.377
 4829SOL    HW215174   2.474   4.295   6.534
 4830SOL     OW15175   3.114   5.072   5.974
 4830SOL    HW115176   3.164   5.149   6.014
 4830SOL    HW215177   3.019   5.074   6.006
 4831SOL     OW15178   3.134   5.169   6.728
 4831SOL    HW115179   3.181   5.182   6.815
 4831SOL    HW215180   3.068   5.095   6.737
 4832SOL     OW15181   3.444   4.363   6.058
 4832SOL    HW115182   3.413   4.424   6.131
 4832SOL    HW215183   3.494   4.415   5.989
 4833SOL     OW15184   2.216   5.234   6.915
 4833SOL    HW115185   2.195   5.190   6.828
 4833SOL    HW215186   2.313   5.260   6.918
 4834SOL     OW15187   2.264   4.475   7.184
 4834SOL    HW115188   2.332   4.530   7.137
 4834SOL    HW215189   2.304   4.387   7.211
 4835SOL     OW15190   3.449   4.503   7.256
 4835SOL    HW115191   3.357   4.541   7.251
 4835SOL    HW215192   3.509   4.550   7.191
 4836SOL     OW15193   2.875   3.829   7.356
 4836SOL    HW115194   2.881   3.914   7.304
 4836SOL    HW215195   2.907   3.753   7.299
 4837SOL     OW15196   2.366   3.774   7.326
 4837SOL    HW115197   2.324   3.717   7.256
 4837SOL    HW215198   2.300   3.843   7.358
 4838SOL     OW15199   2.435   4.594   6.615
 4838SOL    HW115200   2.479   4.683   6.606
 4838SOL    HW215201   2.372   4.594   6.692
 4839SOL     OW15202   3.222   4.586   6.631
 4839SOL    HW115203   3.147   4.586   6.565
 4839SOL    HW215204   3.259   4.494   6.640
 4840SOL     OW15205   3.071   4.249   5.861
 4840SOL    HW115206   3.084   4.165   5.915
 4840SOL    HW215207   3.042   4.323   5.921
 4841SOL     OW15208   2.169   3.937   6.817
 4841SOL    HW115209   2.146   3.974   6.907
 4841SOL    HW215210   2.139   3.842   6.811
 4842SOL     OW15211   1.899   5.034   6.868
 4842SOL    HW115212   1.952   4.985   6.936
 4842SOL    HW215213   1.921   5.132   6.873
 4843SOL     OW15214   2.594   4.358   6.650
 4843SOL    HW115215   2.653   4.332   6.574
 4843SOL    HW215216   2.566   4.454   6.639
 4844SOL     OW15217   3.590   4.659   7.440
 4844SOL    HW115218   3.544   4.652   7.351
 4844SOL    HW215219   3.528   4.703   7.506
 4845SOL     OW15220   2.169   3.787   6.204
 4845SOL    HW115221   2.158   3.881   6.237
 4845SOL    HW215222   2.164   3.724   6.281
 4846SOL     OW15223   3.484   4.091   5.960
 4846SOL    HW115224   3.486   4.015   6.024
 4846SOL    HW215225   3.436   4.168   6.000
 4847SOL     OW15226   2.885   4.490   6.552
 4847SOL    HW115227   2.900   4.511   6.648
 4847SOL    HW215228   2.855   4.395   6.543
 4848SOL     OW15229   3.721   5.242   7.191
 4848SOL    HW115230   3.735   5.269   7.096
 4848SOL    HW215231   3.804   5.264   7.244
 4849SOL     OW15232   2.212   4.622   7.390
 4849SOL    HW115233   2.288   4.666   7.438
 4849SOL    HW215234   2.247   4.575   7.308
 4850SOL     OW15235   3.402   3.998   5.711
 4850SOL    HW115236   3.341   3.923   5.734
 4850SOL    HW215237   3.424   4.050   5.794
 4851SOL     OW15238   3.165   4.562   5.628
 4851SOL    HW115239   3.199   4.469   5.643
 4851SOL    HW215240   3.183   4.589   5.533
 4852SOL     OW15241   2.930   5.057   6.435
 4852SOL    HW115242   2.937   4.973   6.380
 4852SOL    HW215243   2.992   5.126   6.399
 4853SOL     OW15244   2.181   4.534   6.535
 4853SOL    HW115245   2.274   4.570   6.540
 4853SOL    HW215246   2.175   4.449   6.587
 4854SOL     OW15247   2.201   4.233   6.592
 4854SOL    HW115248   2.149   4.150   6.575
 4854SOL    HW215249   2.278   4.238   6.528
 4855SOL     OW15250   3.000   4.104   7.264
 4855SOL    HW115251   2.955   4.167   7.328
 4855SOL    HW215252   3.093   4.135   7.247
 4856SOL     OW15253   3.022   3.931   7.063
 4856SOL    HW115254   3.022   3.995   7.140
 4856SOL    HW215255   3.050   3.979   6.980
 4857SOL     OW15256   1.870   5.050   5.786
 4857SOL    HW115257   1.777   5.071   5.755
 4857SOL    HW215258   1.880   4.951   5.799
 4858SOL     OW15259   2.864   4.520   6.824
 4858SOL    HW115260   2.905   4.488   6.910
 4858SOL    HW215261   2.768   4.493   6.821
 4859SOL     OW15262   1.902   4.268   6.700
 4859SOL    HW115263   1.987   4.235   6.659
 4859SOL    HW215264   1.915   4.283   6.798
 4860SOL     OW15265   2.051   4.244   7.308
 4860SOL    HW115266   2.110   4.204   7.238
 4860SOL    HW215267   1.993   4.315   7.267
 4861SOL     OW15268   3.231   4.674   7.246
 4861SOL    HW115269   3.270   4.763   7.266
 4861SOL    HW215270   3.241   4.654   7.149
 4862SOL     OW15271   2.677   4.296   5.911
 4862SOL    HW115272   2.684   4.207   5.865
 4862SOL    HW215273   2.583   4.330   5.903
 4863SOL     OW15274   3.519   4.328   6.792
 4863SOL    HW115275   3.481   4.259   6.854
 4863SOL    HW215276   3.601   4.292   6.748
 4864SOL     OW15277   2.114   5.288   7.330
 4864SOL    HW115278   2.084   5.345   7.406
 4864SOL    HW215279   2.107   5.191   7.356
 4865SOL     OW15280   2.533   4.188   6.855
 4865SOL    HW115281   2.499   4.099   6.825
 4865SOL    HW215282   2.559   4.242   6.775
 4866SOL     OW15283   2.335   4.224   5.777
 4866SOL    HW115284   2.396   4.304   5.781
 4866SOL    HW215285   2.240   4.255   5.784
 4867SOL     OW15286   2.021   4.861   7.052
 4867SOL    HW115287   2.043   4.800   7.128
 4867SOL    HW215288   2.031   4.812   6.966
 4868SOL     OW15289   3.209   4.783   6.820
 4868SOL    HW115290   3.233   4.720   6.746
 4868SOL    HW215291   3.119   4.823   6.802
 4869SOL     OW15292   3.164   4.579   5.895
 4869SOL    HW115293   3.078   4.548   5.937
 4869SOL    HW215294   3.160   4.565   5.796
 4870SOL     OW15295   1.945   4.982   6.608
 4870SOL    HW115296   1.940   4.981   6.708
 4870SOL    HW215297   1.862   4.941   6.570
 4871SOL     OW15298   2.550   5.386   7.302
 4871SOL    HW115299   2.494   5.467   7.311
 4871SOL    HW215300   2.602   5.390   7.216
 4872SOL     OW15301   3.588   3.859   6.109
 4872SOL    HW115302   3.661   3.842   6.042
 4872SOL    HW215303   3.557   3.772   6.147
 4873SOL     OW15304   3.142   4.651   6.258
 4873SOL    HW115305   3.202   4.570   6.260
 4873SOL    HW215306   3.182   4.720   6.198
 4874SOL     OW15307   2.692   4.997   7.008
 4874SOL    HW115308   2.687   5.030   7.103
 4874SOL    HW215309   2.606   5.016   6.962
 4875SOL     OW15310   3.703   3.899   6.549
 4875SOL    HW115311   3.742   3.814   6.513
 4875SOL    HW215312   3.605   3.901   6.530
 4876SOL     OW15313   2.125   4.050   6.306
 4876SOL    HW115314   2.046   4.101   6.272
 4876SOL    HW215315   2.116   4.035   6.404
 4877SOL     OW15316   2.684   4.726   6.958
 4877SOL    HW115317   2.724   4.725   6.866
 4877SOL    HW215318   2.694   4.818   6.998
 4878SOL     OW15319   2.778   4.634   5.877
 4878SOL    HW115320   2.841   4.672   5.809
 4878SOL    HW215321   2.818   4.551   5.916
 4879SOL     OW15322   2.234   5.012   7.076
 4879SOL    HW115323   2.221   5.105   7.042
 4879SOL    HW215324   2.150   4.960   7.063
 4880SOL     OW15325   3.476   5.016   6.875
 4880SOL    HW115326   3.536   5.019   6.955
 4880SOL    HW215327   3.401   5.080   6.888
 4881SOL     OW15328   2.901   4.822   6.282
 4881SOL    HW115329   2.831   4.775   6.336
 4881SOL    HW215330   2.960   4.754   6.239
 4882SOL     OW15331   2.876   3.960   6.557
 4882SOL    HW115332   2.868   3.924   6.464
 4882SOL    HW215333   2.874   3.884   6.622
 4883SOL     OW15334   3.571   4.109   6.967
 4883SOL    HW115335   3.644   4.178   6.971
 4883SOL    HW215336   3.599   4.034   6.908
 4884SOL     OW15337   2.117   5.072   5.876
 4884SOL    HW115338   2.021   5.073   5.849
 4884SOL    HW215339   2.129   5.125   5.960
 4885SOL     OW15340   1.967   4.737   7.312
 4885SOL    HW115341   1.890   4.704   7.366
 4885SOL    HW215342   2.052   4.707   7.354
 4886SOL     OW15343   2.534   3.927   7.075
 4886SOL    HW115344   2.624   3.911   7.035
 4886SOL    HW215345   2.542   3.932   7.174
 4887SOL     OW15346   1.937   4.069   5.619
 4887SOL    HW115347   1.845   4.041   5.590
 4887SOL    HW215348   1.968   4.146   5.563
 4888SOL     OW15349   3.302   4.580   6.984
 4888SOL    HW115350   3.245   4.632   6.921
 4888SOL    HW215351   3.398   4.592   6.960
 4889SOL     OW15352   1.934   3.890   5.904
 4889SOL    HW115353   1.917   3.973   5.850
 4889SOL    HW215354   2.024   3.853   5.882
 4890SOL     OW15355   3.045   5.059   5.705
 4890SOL    HW115356   2.946   5.048   5.707
 4890SOL    HW215357   3.079   5.074   5.798
 4891SOL     OW15358   2.475   4.566   7.017
 4891SOL    HW115359   2.531   4.647   7.000
 4891SOL    HW215360   2.534   4.486   7.020
 4892SOL     OW15361   2.578   4.289   7.294
 4892SOL    HW115362   2.597   4.354   7.368
 4892SOL    HW215363   2.638   4.209   7.303
 4893SOL     OW15364   3.312   4.944   7.219
 4893SOL    HW115365   3.303   4.934   7.318
 4893SOL    HW215366   3.408   4.937   7.193
 4894SOL     OW15367   3.536   4.607   6.840
 4894SOL    HW115368   3.509   4.518   6.803
 4894SOL    HW215369   3.537   4.675   6.767
 4895SOL     OW15370   3.087   4.049   6.035
 4895SOL    HW115371   3.152   3.975   6.024
 4895SOL    HW215372   3.107   4.099   6.119
 4896SOL     OW15373   2.456   4.469   6.238
 4896SOL    HW115374   2.506   4.554   6.219
 4896SOL    HW215375   2.368   4.471   6.190
 4897SOL     OW15376   3.639   4.066   7.228
 4897SOL    HW115377   3.622   4.097   7.134
 4897SOL    HW215378   3.555   4.029   7.266
 4898SOL     OW15379   3.592   4.658   7.103
 4898SOL    HW115380   3.630   4.749   7.118
 4898SOL    HW215381   3.584   4.641   7.004
 4899SOL     OW15382   2.721   5.098   5.602
 4899SOL    HW115383   2.675   5.113   5.690
 4899SOL    HW215384   2.765   5.183   5.572
 4900SOL     OW15385   2.721   4.680   6.447
 4900SOL    HW115386   2.775   4.611   6.495
 4900SOL    HW215387   2.689   4.749   6.513
 4901SOL     OW15388   2.945   4.708   5.673
 4901SOL    HW115389   2.922   4.761   5.591
 4901SOL    HW215390   3.026   4.652   5.654
 4902SOL     OW15391   2.083   5.038   7.430
 4902SOL    HW115392   2.018   4.965   7.409
 4902SOL    HW215393   2.087   5.052   7.528
 4903SOL     OW15394   1.941   4.964   6.239
 4903SOL    HW115395   1.940   4.917   6.327
 4903SOL    HW215396   2.023   4.936   6.188
 4904SOL     OW15397   2.534   5.115   7.210
 4904SOL    HW115398   2.456   5.065   7.248
 4904SOL    HW215399   2.531   5.210   7.241
 4905SOL     OW15400   3.686   3.916   6.813
 4905SOL    HW115401   3.682   3.826   6.857
 4905SOL    HW215402   3.689   3.905   6.714
 4906SOL     OW15403   2.290   4.148   6.106
 4906SOL    HW115404   2.320   4.076   6.044
 4906SOL    HW215405   2.251   4.108   6.189
 4907SOL     OW15406   3.567   5.211   6.690
 4907SOL    HW115407   3.474   5.186   6.663
 4907SOL    HW215408   3.593   5.161   6.772
 4908SOL     OW15409   2.179   4.271   6.866
 4908SOL    HW115410   2.217   4.212   6.938
 4908SOL    HW215411   2.219   4.245   6.778
 4909SOL     OW15412   3.286   3.938   6.698
 4909SOL    HW115413   3.338   3.873   6.753
 4909SOL    HW215414   3.237   4.001   6.759
 4910SOL     OW15415   2.863   3.758   6.740
 4910SOL    HW115416   2.800   3.686   6.709
 4910SOL    HW215417   2.956   3.722   6.740
 4911SOL     OW15418   2.632   5.054   5.887
 4911SOL    HW115419   2.586   4.967   5.904
 4911SOL    HW215420   2.723   5.051   5.928
 4912SOL     OW15421   2.480   5.291   6.870
 4912SOL    HW115422   2.475   5.373   6.927
 4912SOL    HW215423   2.569   5.288   6.825
 4913SOL     OW15424   3.214   3.776   5.754
 4913SOL    HW115425   3.249   3.735   5.670
 4913SOL    HW215426   3.124   3.738   5.774
 4914SOL     OW15427   3.162   4.177   6.277
 4914SOL    HW115428   3.103   4.257   6.281
 4914SOL    HW215429   3.177   4.142   6.370
 4915SOL     OW15430   3.455   3.945   6.468
 4915SOL    HW115431   3.371   3.944   6.522
 4915SOL    HW215432   3.457   4.028   6.412
 4916SOL     OW15433   1.901   4.801   5.886
 4916SOL    HW115434   2.000   4.790   5.877
 4916SOL    HW215435   1.861   4.715   5.918
 4917SOL     OW15436   2.092   4.352   7.561
 4917SOL    HW115437   1.999   4.350   7.598
 4917SOL    HW215438   2.093   4.313   7.469
 4918SOL     OW15439   3.617   4.331   7.679
 4918SOL    HW115440   3.605   4.318   7.580
 4918SOL    HW215441   3.587   4.250   7.728
 4919SOL     OW15442   2.093   5.437   7.931
 4919SOL    HW115443   2.127   5.514   7.985
 4919SOL    HW215444   2.137   5.437   7.841
 4920SOL     OW15445   2.092   5.158   7.986
 4920SOL    HW115446   2.066   5.254   7.986
 4920SOL    HW215447   2.021   5.104   8.031
 4921SOL     OW15448   2.468   4.688   7.571
 4921SOL    HW115449   2.475   4.772   7.517
 4921SOL    HW215450   2.514   4.701   7.659
 4922SOL     OW15451   1.889   5.320   7.565
 4922SOL    HW115452   1.870   5.224   7.586
 4922SOL    HW215453   1.856   5.378   7.640
 4923SOL     OW15454   3.551   4.646   8.060
 4923SOL    HW115455   3.646   4.617   8.068
 4923SOL    HW215456   3.543   4.711   7.985
 4924SOL     OW15457   3.503   4.832   7.880
 4924SOL    HW115458   3.589   4.834   7.828
 4924SOL    HW215459   3.517   4.879   7.968
 4925SOL     OW15460   2.671   3.728   7.950
 4925SOL    HW115461   2.711   3.819   7.941
 4925SOL    HW215462   2.571   3.736   7.956
 4926SOL     OW15463   3.387   4.723   7.638
 4926SOL    HW115464   3.324   4.647   7.651
 4926SOL    HW215465   3.435   4.741   7.724
 4927SOL     OW15466   2.460   4.453   7.718
 4927SOL    HW115467   2.484   4.522   7.650
 4927SOL    HW215468   2.382   4.486   7.772
 4928SOL     OW15469   1.938   4.535   8.237
 4928SOL    HW115470   2.037   4.523   8.246
 4928SOL    HW215471   1.914   4.630   8.258
 4929SOL     OW15472   2.727   4.072   7.643
 4929SOL    HW115473   2.786   4.135   7.594
 4929SOL    HW215474   2.746   3.978   7.614
 4930SOL     OW15475   2.183   4.667   7.690
 4930SOL    HW115476   2.265   4.706   7.648
 4930SOL    HW215477   2.156   4.585   7.641
 4931SOL     OW15478   2.973   5.500   7.685
 4931SOL    HW115479   2.913   5.438   7.735
 4931SOL    HW215480   3.004   5.456   7.600
 4932SOL     OW15481   3.494   5.101   7.529
 4932SOL    HW115482   3.462   5.195   7.519
 4932SOL    HW215483   3.418   5.038   7.517
 4933SOL     OW15484   3.262   3.831   7.874
 4933SOL    HW115485   3.238   3.794   7.784
 4933SOL    HW215486   3.361   3.847   7.878
 4934SOL     OW15487   2.244   4.424   7.928
 4934SOL    HW115488   2.289   4.334   7.925
 4934SOL    HW215489   2.150   4.413   7.961
 4935SOL     OW15490   2.476   3.846   7.565
 4935SOL    HW115491   2.574   3.824   7.572
 4935SOL    HW215492   2.445   3.829   7.472
 4936SOL     OW15493   2.401   3.788   7.960
 4936SOL    HW115494   2.320   3.789   8.018
 4936SOL    HW215495   2.404   3.871   7.905
 4937SOL     OW15496   3.296   4.912   7.489
 4937SOL    HW115497   3.328   4.836   7.546
 4937SOL    HW215498   3.204   4.939   7.519
 4938SOL     OW15499   2.159   3.759   7.619
 4938SOL    HW115500   2.208   3.843   7.598
 4938SOL    HW215501   2.221   3.694   7.664
 4939SOL     OW15502   2.797   3.960   7.928
 4939SOL    HW115503   2.749   4.001   7.850
 4939SOL    HW215504   2.896   3.958   7.909
 4940SOL     OW15505   2.321   4.876   8.189
 4940SOL    HW115506   2.250   4.849   8.254
 4940SOL    HW215507   2.295   4.848   8.096
 4941SOL     OW15508   2.894   4.273   7.464
 4941SOL    HW115509   2.853   4.355   7.425
 4941SOL    HW215510   2.958   4.299   7.537
 4942SOL     OW15511   3.719   4.557   7.825
 4942SOL    HW115512   3.761   4.493   7.889
 4942SOL    HW215513   3.681   4.506   7.747
 4943SOL     OW15514   2.350   5.109   7.622
 4943SOL    HW115515   2.263   5.094   7.669
 4943SOL    HW215516   2.333   5.135   7.527
 4944SOL     OW15517   3.252   4.299   7.526
 4944SOL    HW115518   3.198   4.278   7.607
 4944SOL    HW215519   3.343   4.258   7.535
 4945SOL     OW15520   2.389   3.980   7.776
 4945SOL    HW115521   2.416   3.921   7.701
 4945SOL    HW215522   2.389   4.075   7.745
 4946SOL     OW15523   2.567   4.774   7.816
 4946SOL    HW115524   2.553   4.781   7.915
 4946SOL    HW215525   2.651   4.723   7.798
 4947SOL     OW15526   2.229   4.824   7.949
 4947SOL    HW115527   2.222   4.907   7.893
 4947SOL    HW215528   2.233   4.744   7.889
 4948SOL     OW15529   3.114   5.072   7.836
 4948SOL    HW115530   3.164   5.149   7.876
 4948SOL    HW215531   3.019   5.074   7.868
 4949SOL     OW15532   3.444   4.363   7.920
 4949SOL    HW115533   3.413   4.424   7.993
 4949SOL    HW215534   3.494   4.415   7.851
 4950SOL     OW15535   3.071   4.249   7.723
 4950SOL    HW115536   3.084   4.165   7.777
 4950SOL    HW215537   3.042   4.323   7.783
 4951SOL     OW15538   3.484   4.091   7.822
 4951SOL    HW115539   3.486   4.015   7.886
 4951SOL    HW215540   3.436   4.168   7.862
 4952SOL     OW15541   3.402   3.998   7.573
 4952SOL    HW115542   3.341   3.923   7.596
 4952SOL    HW215543   3.424   4.050   7.656
 4953SOL     OW15544   3.165   4.562   7.490
 4953SOL    HW115545   3.199   4.469   7.505
 4953SOL    HW215546   3.183   4.589   7.395
 4954SOL     OW15547   1.870   5.050   7.648
 4954SOL    HW115548   1.777   5.071   7.617
 4954SOL    HW215549   1.880   4.951   7.661
 4955SOL     OW15550   2.677   4.296   7.773
 4955SOL    HW115551   2.684   4.207   7.727
 4955SOL    HW215552   2.583   4.330   7.765
 4956SOL     OW15553   2.335   4.224   7.639
 4956SOL    HW115554   2.396   4.304   7.643
 4956SOL    HW215555   2.240   4.255   7.646
 4957SOL     OW15556   3.164   4.579   7.757
 4957SOL    HW115557   3.078   4.548   7.799
 4957SOL    HW215558   3.160   4.565   7.658
 4958SOL     OW15559   3.588   3.859   7.971
 4958SOL    HW115560   3.661   3.842   7.904
 4958SOL    HW215561   3.557   3.772   8.009
 4959SOL     OW15562   2.778   4.634   7.739
 4959SOL    HW115563   2.841   4.672   7.671
 4959SOL    HW215564   2.818   4.551   7.778
 4960SOL     OW15565   2.117   5.072   7.738
 4960SOL    HW115566   2.021   5.073   7.711
 4960SOL    HW215567   2.129   5.125   7.822
 4961SOL     OW15568   1.937   4.069   7.481
 4961SOL    HW115569   1.845   4.041   7.452
 4961SOL    HW215570   1.968   4.146   7.425
 4962SOL     OW15571   1.934   3.890   7.766
 4962SOL    HW115572   1.917   3.973   7.712
 4962SOL    HW215573   2.024   3.853   7.744
 4963SOL     OW15574   3.045   5.059   7.567
 4963SOL    HW115575   2.946   5.048   7.569
 4963SOL    HW215576   3.079   5.074   7.660
 4964SOL     OW15577   3.087   4.049   7.897
 4964SOL    HW115578   3.152   3.975   7.886
 4964SOL    HW215579   3.107   4.099   7.981
 4965SOL     OW15580   2.456   4.469   8.100
 4965SOL    HW115581   2.506   4.554   8.081
 4965SOL    HW215582   2.368   4.471   8.052
 4966SOL     OW15583   2.721   5.098   7.464
 4966SOL    HW115584   2.675   5.113   7.552
 4966SOL    HW215585   2.765   5.183   7.434
 4967SOL     OW15586   2.945   4.708   7.535
 4967SOL    HW115587   2.922   4.761   7.453
 4967SOL    HW215588   3.026   4.652   7.516
 4968SOL     OW15589   2.290   4.148   7.968
 4968SOL    HW115590   2.320   4.076   7.906
 4968SOL    HW215591   2.251   4.108   8.051
 4969SOL     OW15592   2.632   5.054   7.749
 4969SOL    HW115593   2.586   4.967   7.766
 4969SOL    HW215594   2.723   5.051   7.790
 4970SOL     OW15595   3.214   3.776   7.616
 4970SOL    HW115596   3.249   3.735   7.532
 4970SOL    HW215597   3.124   3.738   7.636
 4971SOL     OW15598   1.901   4.801   7.748
 4971SOL    HW115599   2.000   4.790   7.739
 4971SOL    HW215600   1.861   4.715   7.780
 4972SOL     OW15601   3.954   0.628   0.113
 4972SOL    HW115602   3.861   0.626   0.150
 4972SOL    HW215603   3.955   0.589   0.021
 4973SOL     OW15604   3.949   0.275   0.996
 4973SOL    HW115605   3.984   0.258   1.088
 4973SOL    HW215606   3.861   0.230   0.984
 4974SOL     OW15607   3.743   0.368   0.647
 4974SOL    HW115608   3.661   0.411   0.686
 4974SOL    HW215609   3.715   0.295   0.584
 4975SOL     OW15610   4.293   1.275   1.165
 4975SOL    HW115611   4.200   1.268   1.128
 4975SOL    HW215612   4.304   1.364   1.209
 4976SOL     OW15613   5.279   1.511   0.703
 4976SOL    HW115614   5.222   1.495   0.784
 4976SOL    HW215615   5.220   1.521   0.623
 4977SOL     OW15616   4.859   0.703   0.717
 4977SOL    HW115617   4.916   0.781   0.692
 4977SOL    HW215618   4.799   0.729   0.793
 4978SOL     OW15619   4.492   1.144   1.023
 4978SOL    HW115620   4.414   1.161   1.083
 4978SOL    HW215621   4.526   1.231   0.987
 4979SOL     OW15622   4.574   0.798   1.823
 4979SOL    HW115623   4.570   0.874   1.888
 4979SOL    HW215624   4.596   0.834   1.732
 4980SOL     OW15625   4.409   1.012   0.665
 4980SOL    HW115626   4.478   0.996   0.735
 4980SOL    HW215627   4.336   1.069   0.703
 4981SOL     OW15628   4.410   1.161   1.803
 4981SOL    HW115629   4.470   1.240   1.817
 4981SOL    HW215630   4.324   1.192   1.762
 4982SOL     OW15631   4.059   1.435   1.061
 4982SOL    HW115632   3.981   1.404   1.008
 4982SOL    HW215633   4.117   1.493   1.004
 4983SOL     OW15634   5.184   1.505   1.339
 4983SOL    HW115635   5.208   1.599   1.365
 4983SOL    HW215636   5.168   1.451   1.421
 4984SOL     OW15637   4.162   0.392   1.499
 4984SOL    HW115638   4.244   0.336   1.508
 4984SOL    HW215639   4.081   0.334   1.503
 4985SOL     OW15640   3.955   1.713   0.483
 4985SOL    HW115641   3.989   1.790   0.537
 4985SOL    HW215642   3.999   1.713   0.393
 4986SOL     OW15643   4.851   1.341   1.690
 4986SOL    HW115644   4.898   1.341   1.778
 4986SOL    HW215645   4.803   1.254   1.679
 4987SOL     OW15646   3.954   1.434   0.538
 4987SOL    HW115647   3.928   1.530   0.538
 4987SOL    HW215648   3.883   1.380   0.583
 4988SOL     OW15649   3.964   1.091   0.886
 4988SOL    HW115650   3.978   1.007   0.938
 4988SOL    HW215651   3.909   1.155   0.941
 4989SOL     OW15652   4.344   1.786   1.439
 4989SOL    HW115653   4.252   1.769   1.474
 4989SOL    HW215654   4.372   1.878   1.465
 4990SOL     OW15655   4.330   0.964   0.123
 4990SOL    HW115656   4.337   1.048   0.069
 4990SOL    HW215657   4.376   0.977   0.211
 4991SOL     OW15658   5.318   0.114   1.480
 4991SOL    HW115659   5.300   0.181   1.408
 4991SOL    HW215660   5.315   0.160   1.569
 4992SOL     OW15661   3.846   0.643   0.563
 4992SOL    HW115662   3.801   0.555   0.580
 4992SOL    HW215663   3.845   0.697   0.647
 4993SOL     OW15664   3.751   1.596   0.117
 4993SOL    HW115665   3.732   1.500   0.138
 4993SOL    HW215666   3.718   1.654   0.192
 4994SOL     OW15667   5.413   0.922   0.612
 4994SOL    HW115668   5.508   0.893   0.620
 4994SOL    HW215669   5.405   0.987   0.537
 4995SOL     OW15670   3.837   0.737   1.597
 4995SOL    HW115671   3.925   0.724   1.642
 4995SOL    HW215672   3.824   0.834   1.575
 4996SOL     OW15673   4.337   1.365   0.726
 4996SOL    HW115674   4.288   1.278   0.735
 4996SOL    HW215675   4.314   1.408   0.639
 4997SOL     OW15676   5.017   1.228   1.423
 4997SOL    HW115677   5.054   1.155   1.365
 4997SOL    HW215678   5.069   1.233   1.508
 4998SOL     OW15679   4.533   0.004   0.502
 4998SOL    HW115680   4.573   0.095   0.493
 4998SOL    HW215681   4.433   0.012   0.508
 4999SOL     OW15682   3.921   0.976   1.264
 4999SOL    HW115683   4.010   0.931   1.250
 4999SOL    HW215684   3.848   0.911   1.245
 5000SOL     OW15685   4.911   1.792   1.616
 5000SOL    HW115686   4.935   1.852   1.540
 5000SOL    HW215687   4.918   1.697   1.586
 5001SOL     OW15688   4.041   0.251   1.801
 5001SOL    HW115689   4.112   0.322   1.807
 5001SOL    HW215690   3.953   0.290   1.829
 5002SOL     OW15691   5.190   1.417   0.953
 5002SOL    HW115692   5.131   1.423   1.033
 5002SOL    HW215693   5.175   1.329   0.907
 5003SOL     OW15694   4.322   0.729   0.270
 5003SOL    HW115695   4.346   0.798   0.202
 5003SOL    HW215696   4.244   0.762   0.324
 5004SOL     OW15697   5.005   0.345   0.944
 5004SOL    HW115698   4.919   0.295   0.931
 5004SOL    HW215699   5.067   0.291   1.000
 5005SOL     OW15700   4.531   0.605   1.465
 5005SOL    HW115701   4.484   0.602   1.554
 5005SOL    HW215702   4.480   0.550   1.399
 5006SOL     OW15703   5.118   0.469   1.674
 5006SOL    HW115704   5.098   0.512   1.762
 5006SOL    HW215705   5.196   0.407   1.683
 5007SOL     OW15706   4.697   0.890   1.572
 5007SOL    HW115707   4.743   0.806   1.543
 5007SOL    HW215708   4.641   0.924   1.497
 5008SOL     OW15709   4.715   0.410   1.242
 5008SOL    HW115710   4.638   0.444   1.296
 5008SOL    HW215711   4.681   0.359   1.163
 5009SOL     OW15712   4.765   0.701   0.429
 5009SOL    HW115713   4.791   0.697   0.525
 5009SOL    HW215714   4.680   0.650   0.415
 5010SOL     OW15715   3.800   0.811   0.789
 5010SOL    HW115716   3.899   0.799   0.798
 5010SOL    HW215717   3.776   0.906   0.810
 5011SOL     OW15718   3.854   1.821   1.571
 5011SOL    HW115719   3.844   1.806   1.670
 5011SOL    HW215720   3.768   1.857   1.535
 5012SOL     OW15721   4.589   0.348   0.195
 5012SOL    HW115722   4.648   0.411   0.146
 5012SOL    HW215723   4.608   0.254   0.166
 5013SOL     OW15724   5.086   1.144   0.545
 5013SOL    HW115725   5.169   1.115   0.497
 5013SOL    HW215726   5.037   1.211   0.489
 5014SOL     OW15727   4.274   0.196   0.885
 5014SOL    HW115728   4.269   0.191   0.985
 5014SOL    HW215729   4.276   0.292   0.856
 5015SOL     OW15730   4.732   1.456   0.477
 5015SOL    HW115731   4.686   1.528   0.425
 5015SOL    HW215732   4.728   1.476   0.575
 5016SOL     OW15733   4.075   1.801   0.853
 5016SOL    HW115734   4.125   1.715   0.859
 5016SOL    HW215735   4.140   1.878   0.850
 5017SOL     OW15736   4.951   1.550   1.506
 5017SOL    HW115737   4.957   1.473   1.570
 5017SOL    HW215738   4.899   1.524   1.426
 5018SOL     OW15739   4.045   0.943   0.242
 5018SOL    HW115740   4.127   0.982   0.200
 5018SOL    HW215741   4.018   0.861   0.193
 5019SOL     OW15742   4.185   1.266   1.727
 5019SOL    HW115743   4.135   1.267   1.641
 5019SOL    HW215744   4.122   1.248   1.803
 5020SOL     OW15745   4.835   1.776   0.237
 5020SOL    HW115746   4.775   1.714   0.287
 5020SOL    HW215747   4.866   1.732   0.152
 5021SOL     OW15748   3.926   0.285   1.498
 5021SOL    HW115749   3.846   0.345   1.485
 5021SOL    HW215750   3.916   0.236   1.584
 5022SOL     OW15751   4.188   1.743   0.323
 5022SOL    HW115752   4.221   1.782   0.409
 5022SOL    HW215753   4.264   1.736   0.258
 5023SOL     OW15754   5.124   0.107   0.426
 5023SOL    HW115755   5.100   0.070   0.336
 5023SOL    HW215756   5.223   0.123   0.430
 5024SOL     OW15757   3.973   1.785   1.241
 5024SOL    HW115758   4.030   1.720   1.291
 5024SOL    HW215759   3.957   1.752   1.148
 5025SOL     OW15760   4.664   1.698   0.904
 5025SOL    HW115761   4.744   1.641   0.925
 5025SOL    HW215762   4.615   1.658   0.827
 5026SOL     OW15763   4.106   0.700   0.480
 5026SOL    HW115764   4.151   0.610   0.477
 5026SOL    HW215765   4.012   0.689   0.513
 5027SOL     OW15766   4.338   0.122   0.117
 5027SOL    HW115767   4.436   0.100   0.124
 5027SOL    HW215768   4.307   0.105   0.024
 5028SOL     OW15769   4.505   0.264   1.749
 5028SOL    HW115770   4.572   0.203   1.792
 5028SOL    HW215771   4.432   0.283   1.814
 5029SOL     OW15772   4.612   1.514   1.195
 5029SOL    HW115773   4.589   1.489   1.101
 5029SOL    HW215774   4.673   1.445   1.234
 5030SOL     OW15775   5.075   0.590   1.433
 5030SOL    HW115776   5.103   0.547   1.518
 5030SOL    HW215777   5.100   0.686   1.434
 5031SOL     OW15778   4.527   1.402   0.924
 5031SOL    HW115779   4.617   1.416   0.882
 5031SOL    HW215780   4.456   1.404   0.853
 5032SOL     OW15781   4.646   0.503   0.899
 5032SOL    HW115782   4.621   0.494   0.803
 5032SOL    HW215783   4.694   0.421   0.930
 5033SOL     OW15784   4.263   0.064   0.512
 5033SOL    HW115785   4.182   0.065   0.570
 5033SOL    HW215786   4.266   0.147   0.457
 5034SOL     OW15787   5.158   1.188   0.041
 5034SOL    HW115788   5.190   1.112   0.098
 5034SOL    HW215789   5.066   1.215   0.071
 5035SOL     OW15790   4.021   0.035   0.171
 5035SOL    HW115791   4.070   0.119   0.150
 5035SOL    HW215792   4.083  -0.030   0.216
 5036SOL     OW15793   4.659   0.236   0.480
 5036SOL    HW115794   4.611   0.277   0.402
 5036SOL    HW215795   4.758   0.234   0.461
 5037SOL     OW15796   4.800   0.683   1.464
 5037SOL    HW115797   4.720   0.622   1.467
 5037SOL    HW215798   4.881   0.630   1.440
 5038SOL     OW15799   4.951   1.570   0.793
 5038SOL    HW115800   4.972   1.644   0.728
 5038SOL    HW215801   5.019   1.570   0.866
 5039SOL     OW15802   4.183   1.152   0.741
 5039SOL    HW115803   4.112   1.125   0.806
 5039SOL    HW215804   4.157   1.124   0.648
 5040SOL     OW15805   4.995   1.797   0.591
 5040SOL    HW115806   5.039   1.861   0.527
 5040SOL    HW215807   4.945   1.849   0.661
 5041SOL     OW15808   4.756   0.549   0.016
 5041SOL    HW115809   4.715   0.631  -0.023
 5041SOL    HW215810   4.820   0.575   0.089
 5042SOL     OW15811   3.802   0.556   1.386
 5042SOL    HW115812   3.894   0.555   1.345
 5042SOL    HW215813   3.796   0.630   1.453
 5043SOL     OW15814   4.285   0.222   1.147
 5043SOL    HW115815   4.323   0.138   1.184
 5043SOL    HW215816   4.197   0.241   1.191
 5044SOL     OW15817   4.590   0.454   0.642
 5044SOL    HW115818   4.558   0.526   0.580
 5044SOL    HW215819   4.614   0.373   0.589
 5045SOL     OW15820   4.741   0.039   0.753
 5045SOL    HW115821   4.669   0.044   0.684
 5045SOL    HW215822   4.717  -0.030   0.822
 5046SOL     OW15823   5.153   1.173   0.867
 5046SOL    HW115824   5.098   1.089   0.860
 5046SOL    HW215825   5.179   1.202   0.775
 5047SOL     OW15826   4.212   1.385   0.174
 5047SOL    HW115827   4.125   1.370   0.221
 5047SOL    HW215828   4.195   1.411   0.079
 5048SOL     OW15829   5.114   0.575   0.078
 5048SOL    HW115830   5.060   0.554   0.159
 5048SOL    HW215831   5.205   0.534   0.087
 5049SOL     OW15832   4.251   0.256   0.328
 5049SOL    HW115833   4.278   0.197   0.253
 5049SOL    HW215834   4.251   0.351   0.297
 5050SOL     OW15835   4.788   1.347   1.340
 5050SOL    HW115836   4.708   1.324   1.395
 5050SOL    HW215837   4.871   1.321   1.389
 5051SOL     OW15838   5.316   1.629   1.625
 5051SOL    HW115839   5.343   1.663   1.535
 5051SOL    HW215840   5.395   1.591   1.671
 5052SOL     OW15841   4.835   1.195   1.100
 5052SOL    HW115842   4.795   1.239   1.181
 5052SOL    HW215843   4.794   1.232   1.017
 5053SOL     OW15844   4.639   0.089   1.402
 5053SOL    HW115845   4.664   0.069   1.307
 5053SOL    HW215846   4.711   0.145   1.444
 5054SOL     OW15847   4.704   1.116   1.719
 5054SOL    HW115848   4.605   1.122   1.729
 5054SOL    HW215849   4.727   1.036   1.663
 5055SOL     OW15850   4.429   1.050   0.368
 5055SOL    HW115851   4.415   1.057   0.467
 5055SOL    HW215852   4.513   0.999   0.350
 5056SOL     OW15853   4.134   0.813   1.251
 5056SOL    HW115854   4.220   0.825   1.301
 5056SOL    HW215855   4.092   0.726   1.278
 5057SOL     OW15856   4.998   0.386   1.262
 5057SOL    HW115857   5.019   0.460   1.326
 5057SOL    HW215858   4.909   0.403   1.219
 5058SOL     OW15859   3.788   1.564   1.331
 5058SOL    HW115860   3.742   1.646   1.297
 5058SOL    HW215861   3.886   1.583   1.340
 5059SOL     OW15862   4.091   1.100   0.501
 5059SOL    HW115863   4.084   1.183   0.445
 5059SOL    HW215864   4.095   1.020   0.441
 5060SOL     OW15865   4.290   0.537   0.865
 5060SOL    HW115866   4.302   0.603   0.791
 5060SOL    HW215867   4.336   0.571   0.948
 5061SOL     OW15868   4.976   1.348   0.388
 5061SOL    HW115869   5.026   1.425   0.428
 5061SOL    HW215870   4.881   1.350   0.420
 5062SOL     OW15871   4.996   1.445   1.142
 5062SOL    HW115872   5.043   1.458   1.229
 5062SOL    HW215873   4.930   1.371   1.151
 5063SOL     OW15874   4.078   1.510   1.329
 5063SOL    HW115875   4.057   1.466   1.242
 5063SOL    HW215876   4.175   1.536   1.332
 5064SOL     OW15877   4.126   0.751   1.598
 5064SOL    HW115878   4.194   0.806   1.551
 5064SOL    HW215879   4.166   0.663   1.625
 5065SOL     OW15880   4.737   0.105   1.770
 5065SOL    HW115881   4.743   0.190   1.718
 5065SOL    HW215882   4.769   0.029   1.713
 5066SOL     OW15883   4.228   0.050   1.740
 5066SOL    HW115884   4.186  -0.007   1.670
 5066SOL    HW215885   4.162   0.119   1.772
 5067SOL     OW15886   4.297   0.870   1.029
 5067SOL    HW115887   4.341   0.959   1.020
 5067SOL    HW215888   4.234   0.870   1.106
 5068SOL     OW15889   5.084   0.862   1.045
 5068SOL    HW115890   5.009   0.862   0.979
 5068SOL    HW215891   5.121   0.770   1.054
 5069SOL     OW15892   4.933   0.525   0.275
 5069SOL    HW115893   4.946   0.441   0.329
 5069SOL    HW215894   4.904   0.599   0.335
 5070SOL     OW15895   4.031   0.213   1.231
 5070SOL    HW115896   4.008   0.250   1.321
 5070SOL    HW215897   4.001   0.118   1.225
 5071SOL     OW15898   3.761   1.310   1.282
 5071SOL    HW115899   3.814   1.261   1.350
 5071SOL    HW215900   3.783   1.408   1.287
 5072SOL     OW15901   4.456   0.634   1.064
 5072SOL    HW115902   4.515   0.608   0.988
 5072SOL    HW215903   4.428   0.730   1.053
 5073SOL     OW15904   4.031   0.063   0.618
 5073SOL    HW115905   4.020   0.157   0.651
 5073SOL    HW215906   4.026   0.000   0.695
 5074SOL     OW15907   5.346   0.367   0.374
 5074SOL    HW115908   5.348   0.291   0.438
 5074SOL    HW215909   5.298   0.444   0.414
 5075SOL     OW15910   4.747   0.766   0.966
 5075SOL    HW115911   4.762   0.787   1.062
 5075SOL    HW215912   4.717   0.671   0.957
 5076SOL     OW15913   4.704   1.573   1.700
 5076SOL    HW115914   4.684   1.617   1.612
 5076SOL    HW215915   4.743   1.482   1.684
 5077SOL     OW15916   4.074   0.898   1.804
 5077SOL    HW115917   4.150   0.942   1.852
 5077SOL    HW215918   4.109   0.851   1.722
 5078SOL     OW15919   5.027   0.838   0.042
 5078SOL    HW115920   5.061   0.745   0.057
 5078SOL    HW215921   5.045   0.865  -0.053
 5079SOL     OW15922   4.792   1.333   0.849
 5079SOL    HW115923   4.799   1.249   0.794
 5079SOL    HW215924   4.854   1.402   0.813
 5080SOL     OW15925   4.043   0.810   0.949
 5080SOL    HW115926   4.136   0.846   0.954
 5080SOL    HW215927   4.037   0.725   1.001
 5081SOL     OW15928   4.063   0.509   1.006
 5081SOL    HW115929   4.011   0.426   0.989
 5081SOL    HW215930   4.140   0.514   0.942
 5082SOL     OW15931   4.862   0.380   1.678
 5082SOL    HW115932   4.817   0.443   1.742
 5082SOL    HW215933   4.955   0.411   1.661
 5083SOL     OW15934   4.884   0.207   1.477
 5083SOL    HW115935   4.884   0.271   1.554
 5083SOL    HW215936   4.912   0.255   1.394
 5084SOL     OW15937   3.732   1.326   0.200
 5084SOL    HW115938   3.639   1.347   0.169
 5084SOL    HW215939   3.742   1.227   0.213
 5085SOL     OW15940   3.812   1.801   0.927
 5085SOL    HW115941   3.770   1.715   0.900
 5085SOL    HW215942   3.906   1.804   0.893
 5086SOL     OW15943   4.228   1.568   0.910
 5086SOL    HW115944   4.294   1.642   0.919
 5086SOL    HW215945   4.272   1.489   0.868
 5087SOL     OW15946   4.726   0.796   1.238
 5087SOL    HW115947   4.767   0.764   1.324
 5087SOL    HW215948   4.630   0.769   1.235
 5088SOL     OW15949   3.764   0.544   1.114
 5088SOL    HW115950   3.849   0.511   1.073
 5088SOL    HW215951   3.777   0.559   1.212
 5089SOL     OW15952   3.913   0.520   1.722
 5089SOL    HW115953   3.972   0.480   1.652
 5089SOL    HW215954   3.855   0.591   1.681
 5090SOL     OW15955   5.093   0.950   1.660
 5090SOL    HW115956   5.132   1.039   1.680
 5090SOL    HW215957   5.103   0.930   1.563
 5091SOL     OW15958   4.539   0.572   0.325
 5091SOL    HW115959   4.546   0.483   0.279
 5091SOL    HW215960   4.445   0.606   0.317
 5092SOL     OW15961   3.976   1.564   1.744
 5092SOL    HW115962   3.946   1.621   1.820
 5092SOL    HW215963   3.969   1.467   1.770
 5093SOL     OW15964   4.395   0.464   1.269
 5093SOL    HW115965   4.361   0.375   1.239
 5093SOL    HW215966   4.421   0.518   1.189
 5094SOL     OW15967   4.654   1.678   1.465
 5094SOL    HW115968   4.630   1.660   1.370
 5094SOL    HW215969   4.684   1.772   1.475
 5095SOL     OW15970   4.197   0.500   0.191
 5095SOL    HW115971   4.258   0.580   0.195
 5095SOL    HW215972   4.102   0.531   0.198
 5096SOL     OW15973   3.883   1.137   1.466
 5096SOL    HW115974   3.905   1.076   1.542
 5096SOL    HW215975   3.893   1.088   1.380
 5097SOL     OW15976   5.071   1.059   1.234
 5097SOL    HW115977   5.095   0.996   1.160
 5097SOL    HW215978   4.981   1.099   1.216
 5098SOL     OW15979   5.026   0.855   0.309
 5098SOL    HW115980   4.940   0.824   0.351
 5098SOL    HW215981   5.022   0.841   0.210
 5099SOL     OW15982   4.976   1.731   1.128
 5099SOL    HW115983   5.060   1.736   1.074
 5099SOL    HW215984   4.953   1.635   1.146
 5100SOL     OW15985   3.807   1.258   1.022
 5100SOL    HW115986   3.802   1.257   1.122
 5100SOL    HW215987   3.724   1.217   0.984
 5101SOL     OW15988   4.412   1.662   1.716
 5101SOL    HW115989   4.356   1.743   1.725
 5101SOL    HW215990   4.464   1.666   1.630
 5102SOL     OW15991   4.627   0.086   0.133
 5102SOL    HW115992   4.678   0.087   0.047
 5102SOL    HW215993   4.683   0.044   0.204
 5103SOL     OW15994   5.112   1.573   0.477
 5103SOL    HW115995   5.179   1.585   0.403
 5103SOL    HW215996   5.072   1.662   0.500
 5104SOL     OW15997   3.854   1.794   1.851
 5104SOL    HW115998   3.813   1.720   1.904
 5104SOL    HW215999   3.918   1.845   1.909
 5105SOL     OW16000   5.004   0.927   0.672
 5105SOL    HW116001   5.064   0.846   0.674
 5105SOL    HW216002   5.044   0.996   0.612
 5106SOL     OW16003   4.554   1.273   1.422
 5106SOL    HW116004   4.549   1.306   1.517
 5106SOL    HW216005   4.468   1.292   1.376
 5107SOL     OW16006   4.396   1.616   0.154
 5107SOL    HW116007   4.405   1.626   0.055
 5107SOL    HW216008   4.356   1.527   0.175
 5108SOL     OW16009   3.987   0.326   0.720
 5108SOL    HW116010   3.908   0.377   0.686
 5108SOL    HW216011   3.978   0.311   0.818
 5109SOL     OW16012   4.918   1.612   0.031
 5109SOL    HW116013   4.924   1.519   0.068
 5109SOL    HW216014   4.859   1.612  -0.049
 5110SOL     OW16015   4.546   1.002   1.372
 5110SOL    HW116016   4.586   1.001   1.280
 5110SOL    HW216017   4.556   1.094   1.412
 5111SOL     OW16018   4.640   0.910   0.291
 5111SOL    HW116019   4.703   0.948   0.223
 5111SOL    HW216020   4.680   0.827   0.330
 5112SOL     OW16021   4.096   1.288   1.490
 5112SOL    HW116022   4.083   1.381   1.456
 5112SOL    HW216023   4.012   1.236   1.477
 5113SOL     OW16024   4.763   1.098   0.696
 5113SOL    HW116025   4.693   1.051   0.750
 5113SOL    HW216026   4.822   1.030   0.653
 5114SOL     OW16027   4.738   0.236   0.971
 5114SOL    HW116028   4.730   0.200   0.878
 5114SOL    HW216029   4.736   0.160   1.036
 5115SOL     OW16030   4.314   1.487   0.491
 5115SOL    HW116031   4.356   1.429   0.421
 5115SOL    HW216032   4.270   1.566   0.447
 5116SOL     OW16033   3.979   1.348   0.290
 5116SOL    HW116034   3.883   1.349   0.263
 5116SOL    HW216035   3.991   1.401   0.374
 5117SOL     OW16036   3.829   1.013   1.726
 5117SOL    HW116037   3.752   0.980   1.780
 5117SOL    HW216038   3.914   0.983   1.768
 5118SOL     OW16039   4.396   0.203   1.489
 5118SOL    HW116040   4.486   0.187   1.449
 5118SOL    HW216041   4.404   0.208   1.588
 5119SOL     OW16042   3.799   0.345   0.033
 5119SOL    HW116043   3.707   0.317   0.004
 5119SOL    HW216044   3.830   0.422  -0.023
 5120SOL     OW16045   5.164   0.856   1.398
 5120SOL    HW116046   5.107   0.908   1.335
 5120SOL    HW216047   5.260   0.868   1.374
 5121SOL     OW16048   3.796   0.166   0.318
 5121SOL    HW116049   3.779   0.249   0.264
 5121SOL    HW216050   3.886   0.129   0.296
 5122SOL     OW16051   4.907   1.335   0.119
 5122SOL    HW116052   4.808   1.324   0.121
 5122SOL    HW216053   4.941   1.350   0.212
 5123SOL     OW16054   4.337   0.842   1.431
 5123SOL    HW116055   4.393   0.923   1.414
 5123SOL    HW216056   4.396   0.762   1.434
 5124SOL     OW16057   4.440   0.565   1.708
 5124SOL    HW116058   4.459   0.630   1.782
 5124SOL    HW216059   4.500   0.485   1.717
 5125SOL     OW16060   5.174   1.220   1.633
 5125SOL    HW116061   5.165   1.210   1.732
 5125SOL    HW216062   5.270   1.213   1.607
 5126SOL     OW16063   4.114   1.741   1.560
 5126SOL    HW116064   4.023   1.782   1.558
 5126SOL    HW216065   4.107   1.647   1.592
 5127SOL     OW16066   4.949   0.325   0.449
 5127SOL    HW116067   5.014   0.251   0.438
 5127SOL    HW216068   4.969   0.375   0.533
 5128SOL     OW16069   4.318   0.745   0.652
 5128SOL    HW116070   4.368   0.830   0.633
 5128SOL    HW216071   4.230   0.747   0.604
 5129SOL     OW16072   4.583   1.374   0.016
 5129SOL    HW116073   4.537   1.389   0.104
 5129SOL    HW216074   4.627   1.459  -0.014
 5130SOL     OW16075   4.385   1.790   0.953
 5130SOL    HW116076   4.339   1.878   0.940
 5130SOL    HW216077   4.484   1.802   0.946
 5131SOL     OW16078   4.583   0.956   0.861
 5131SOL    HW116079   4.637   0.887   0.909
 5131SOL    HW216080   4.551   1.025   0.927
 5132SOL     OW16081   4.807   0.984   0.087
 5132SOL    HW116082   4.784   1.037   0.005
 5132SOL    HW216083   4.888   0.928   0.068
 5133SOL     OW16084   3.945   1.314   1.844
 5133SOL    HW116085   3.880   1.241   1.823
 5133SOL    HW216086   3.949   1.328   1.942
 5134SOL     OW16087   3.803   1.240   0.653
 5134SOL    HW116088   3.802   1.193   0.741
 5134SOL    HW216089   3.885   1.212   0.602
 5135SOL     OW16090   4.396   1.391   1.624
 5135SOL    HW116091   4.318   1.341   1.662
 5135SOL    HW216092   4.393   1.486   1.655
 5136SOL     OW16093   4.152   0.424   0.520
 5136SOL    HW116094   4.182   0.352   0.458
 5136SOL    HW216095   4.113   0.384   0.603
 5137SOL     OW16096   5.429   1.487   1.104
 5137SOL    HW116097   5.336   1.462   1.077
 5137SOL    HW216098   5.455   1.437   1.186
 5138SOL     OW16099   4.041   0.547   1.280
 5138SOL    HW116100   4.079   0.488   1.352
 5138SOL    HW216101   4.081   0.521   1.192
 5139SOL     OW16102   4.536   1.586   0.687
 5139SOL    HW116103   4.568   1.596   0.593
 5139SOL    HW216104   4.457   1.524   0.689
 5140SOL     OW16105   5.148   0.214   1.112
 5140SOL    HW116106   5.200   0.149   1.167
 5140SOL    HW216107   5.099   0.277   1.173
 5141SOL     OW16108   4.725   0.034   1.154
 5141SOL    HW116109   4.662  -0.038   1.123
 5141SOL    HW216110   4.818  -0.002   1.154
 5142SOL     OW16111   4.494   1.330   0.301
 5142SOL    HW116112   4.448   1.243   0.318
 5142SOL    HW216113   4.585   1.327   0.342
 5143SOL     OW16114   4.342   1.567   1.284
 5143SOL    HW116115   4.337   1.649   1.341
 5143SOL    HW216116   4.431   1.564   1.239
 5144SOL     OW16117   5.076   0.052   0.168
 5144SOL    HW116118   5.111   0.011   0.084
 5144SOL    HW216119   4.986   0.014   0.188
 5145SOL     OW16120   5.024   0.453   0.691
 5145SOL    HW116121   4.965   0.533   0.695
 5145SOL    HW216122   5.039   0.418   0.784
 5146SOL     OW16123   5.317   0.221   0.882
 5146SOL    HW116124   5.233   0.220   0.936
 5146SOL    HW216125   5.319   0.304   0.826
 5147SOL     OW16126   3.763   1.077   0.300
 5147SOL    HW116127   3.862   1.066   0.291
 5147SOL    HW216128   3.723   0.991   0.332
 5148SOL     OW16129   4.599   1.646   0.337
 5148SOL    HW116130   4.522   1.611   0.283
 5148SOL    HW216131   4.567   1.717   0.399
 5149SOL     OW16132   3.954   0.628   1.975
 5149SOL    HW116133   3.861   0.626   2.012
 5149SOL    HW216134   3.955   0.589   1.883
 5150SOL     OW16135   3.949   0.275   2.858
 5150SOL    HW116136   3.984   0.258   2.950
 5150SOL    HW216137   3.861   0.230   2.846
 5151SOL     OW16138   3.743   0.368   2.509
 5151SOL    HW116139   3.661   0.411   2.548
 5151SOL    HW216140   3.715   0.295   2.446
 5152SOL     OW16141   4.293   1.275   3.027
 5152SOL    HW116142   4.200   1.268   2.990
 5152SOL    HW216143   4.304   1.364   3.071
 5153SOL     OW16144   5.279   1.511   2.565
 5153SOL    HW116145   5.222   1.495   2.646
 5153SOL    HW216146   5.220   1.521   2.485
 5154SOL     OW16147   4.859   0.703   2.579
 5154SOL    HW116148   4.916   0.781   2.554
 5154SOL    HW216149   4.799   0.729   2.655
 5155SOL     OW16150   4.492   1.144   2.885
 5155SOL    HW116151   4.414   1.161   2.945
 5155SOL    HW216152   4.526   1.231   2.849
 5156SOL     OW16153   4.574   0.798   3.685
 5156SOL    HW116154   4.570   0.874   3.750
 5156SOL    HW216155   4.596   0.834   3.594
 5157SOL     OW16156   4.409   1.012   2.527
 5157SOL    HW116157   4.478   0.996   2.597
 5157SOL    HW216158   4.336   1.069   2.565
 5158SOL     OW16159   4.410   1.161   3.665
 5158SOL    HW116160   4.470   1.240   3.679
 5158SOL    HW216161   4.324   1.192   3.624
 5159SOL     OW16162   4.059   1.435   2.923
 5159SOL    HW116163   3.981   1.404   2.870
 5159SOL    HW216164   4.117   1.493   2.866
 5160SOL     OW16165   5.184   1.505   3.201
 5160SOL    HW116166   5.208   1.599   3.227
 5160SOL    HW216167   5.168   1.451   3.283
 5161SOL     OW16168   4.162   0.392   3.361
 5161SOL    HW116169   4.244   0.336   3.370
 5161SOL    HW216170   4.081   0.334   3.365
 5162SOL     OW16171   3.955   1.713   2.345
 5162SOL    HW116172   3.989   1.790   2.399
 5162SOL    HW216173   3.999   1.713   2.255
 5163SOL     OW16174   4.851   1.341   3.552
 5163SOL    HW116175   4.898   1.341   3.640
 5163SOL    HW216176   4.803   1.254   3.541
 5164SOL     OW16177   3.954   1.434   2.400
 5164SOL    HW116178   3.928   1.530   2.400
 5164SOL    HW216179   3.883   1.380   2.445
 5165SOL     OW16180   3.964   1.091   2.748
 5165SOL    HW116181   3.978   1.007   2.800
 5165SOL    HW216182   3.909   1.155   2.803
 5166SOL     OW16183   4.344   1.786   3.301
 5166SOL    HW116184   4.252   1.769   3.336
 5166SOL    HW216185   4.372   1.878   3.327
 5167SOL     OW16186   4.330   0.964   1.985
 5167SOL    HW116187   4.337   1.048   1.931
 5167SOL    HW216188   4.376   0.977   2.073
 5168SOL     OW16189   5.318   0.114   3.342
 5168SOL    HW116190   5.300   0.181   3.270
 5168SOL    HW216191   5.315   0.160   3.431
 5169SOL     OW16192   3.846   0.643   2.425
 5169SOL    HW116193   3.801   0.555   2.442
 5169SOL    HW216194   3.845   0.697   2.509
 5170SOL     OW16195   3.751   1.596   1.979
 5170SOL    HW116196   3.732   1.500   2.000
 5170SOL    HW216197   3.718   1.654   2.054
 5171SOL     OW16198   5.413   0.922   2.474
 5171SOL    HW116199   5.508   0.893   2.482
 5171SOL    HW216200   5.405   0.987   2.399
 5172SOL     OW16201   3.837   0.737   3.459
 5172SOL    HW116202   3.925   0.724   3.504
 5172SOL    HW216203   3.824   0.834   3.437
 5173SOL     OW16204   4.337   1.365   2.588
 5173SOL    HW116205   4.288   1.278   2.597
 5173SOL    HW216206   4.314   1.408   2.501
 5174SOL     OW16207   5.017   1.228   3.285
 5174SOL    HW116208   5.054   1.155   3.227
 5174SOL    HW216209   5.069   1.233   3.370
 5175SOL     OW16210   4.533   0.004   2.364
 5175SOL    HW116211   4.573   0.095   2.355
 5175SOL    HW216212   4.433   0.012   2.370
 5176SOL     OW16213   3.921   0.976   3.126
 5176SOL    HW116214   4.010   0.931   3.112
 5176SOL    HW216215   3.848   0.911   3.107
 5177SOL     OW16216   4.911   1.792   3.478
 5177SOL    HW116217   4.935   1.852   3.402
 5177SOL    HW216218   4.918   1.697   3.448
 5178SOL     OW16219   4.041   0.251   3.663
 5178SOL    HW116220   4.112   0.322   3.669
 5178SOL    HW216221   3.953   0.290   3.691
 5179SOL     OW16222   5.190   1.417   2.815
 5179SOL    HW116223   5.131   1.423   2.895
 5179SOL    HW216224   5.175   1.329   2.769
 5180SOL     OW16225   4.322   0.729   2.132
 5180SOL    HW116226   4.346   0.798   2.064
 5180SOL    HW216227   4.244   0.762   2.186
 5181SOL     OW16228   5.005   0.345   2.806
 5181SOL    HW116229   4.919   0.295   2.793
 5181SOL    HW216230   5.067   0.291   2.862
 5182SOL     OW16231   4.531   0.605   3.327
 5182SOL    HW116232   4.484   0.602   3.416
 5182SOL    HW216233   4.480   0.550   3.261
 5183SOL     OW16234   5.118   0.469   3.536
 5183SOL    HW116235   5.098   0.512   3.624
 5183SOL    HW216236   5.196   0.407   3.545
 5184SOL     OW16237   4.697   0.890   3.434
 5184SOL    HW116238   4.743   0.806   3.405
 5184SOL    HW216239   4.641   0.924   3.359
 5185SOL     OW16240   4.715   0.410   3.104
 5185SOL    HW116241   4.638   0.444   3.158
 5185SOL    HW216242   4.681   0.359   3.025
 5186SOL     OW16243   4.765   0.701   2.291
 5186SOL    HW116244   4.791   0.697   2.387
 5186SOL    HW216245   4.680   0.650   2.277
 5187SOL     OW16246   3.800   0.811   2.651
 5187SOL    HW116247   3.899   0.799   2.660
 5187SOL    HW216248   3.776   0.906   2.672
 5188SOL     OW16249   3.854   1.821   3.433
 5188SOL    HW116250   3.844   1.806   3.532
 5188SOL    HW216251   3.768   1.857   3.397
 5189SOL     OW16252   4.589   0.348   2.057
 5189SOL    HW116253   4.648   0.411   2.008
 5189SOL    HW216254   4.608   0.254   2.028
 5190SOL     OW16255   5.086   1.144   2.407
 5190SOL    HW116256   5.169   1.115   2.359
 5190SOL    HW216257   5.037   1.211   2.351
 5191SOL     OW16258   4.274   0.196   2.747
 5191SOL    HW116259   4.269   0.191   2.847
 5191SOL    HW216260   4.276   0.292   2.718
 5192SOL     OW16261   4.732   1.456   2.339
 5192SOL    HW116262   4.686   1.528   2.287
 5192SOL    HW216263   4.728   1.476   2.437
 5193SOL     OW16264   4.075   1.801   2.715
 5193SOL    HW116265   4.125   1.715   2.721
 5193SOL    HW216266   4.140   1.878   2.712
 5194SOL     OW16267   4.951   1.550   3.368
 5194SOL    HW116268   4.957   1.473   3.432
 5194SOL    HW216269   4.899   1.524   3.288
 5195SOL     OW16270   4.045   0.943   2.104
 5195SOL    HW116271   4.127   0.982   2.062
 5195SOL    HW216272   4.018   0.861   2.055
 5196SOL     OW16273   4.185   1.266   3.589
 5196SOL    HW116274   4.135   1.267   3.503
 5196SOL    HW216275   4.122   1.248   3.665
 5197SOL     OW16276   4.835   1.776   2.099
 5197SOL    HW116277   4.775   1.714   2.149
 5197SOL    HW216278   4.866   1.732   2.014
 5198SOL     OW16279   3.926   0.285   3.360
 5198SOL    HW116280   3.846   0.345   3.347
 5198SOL    HW216281   3.916   0.236   3.446
 5199SOL     OW16282   4.188   1.743   2.185
 5199SOL    HW116283   4.221   1.782   2.271
 5199SOL    HW216284   4.264   1.736   2.120
 5200SOL     OW16285   5.124   0.107   2.288
 5200SOL    HW116286   5.100   0.070   2.198
 5200SOL    HW216287   5.223   0.123   2.292
 5201SOL     OW16288   3.973   1.785   3.103
 5201SOL    HW116289   4.030   1.720   3.153
 5201SOL    HW216290   3.957   1.752   3.010
 5202SOL     OW16291   4.664   1.698   2.766
 5202SOL    HW116292   4.744   1.641   2.787
 5202SOL    HW216293   4.615   1.658   2.689
 5203SOL     OW16294   4.106   0.700   2.342
 5203SOL    HW116295   4.151   0.610   2.339
 5203SOL    HW216296   4.012   0.689   2.375
 5204SOL     OW16297   4.338   0.122   1.979
 5204SOL    HW116298   4.436   0.100   1.986
 5204SOL    HW216299   4.307   0.105   1.886
 5205SOL     OW16300   4.505   0.264   3.611
 5205SOL    HW116301   4.572   0.203   3.654
 5205SOL    HW216302   4.432   0.283   3.676
 5206SOL     OW16303   4.612   1.514   3.057
 5206SOL    HW116304   4.589   1.489   2.963
 5206SOL    HW216305   4.673   1.445   3.096
 5207SOL     OW16306   5.075   0.590   3.295
 5207SOL    HW116307   5.103   0.547   3.380
 5207SOL    HW216308   5.100   0.686   3.296
 5208SOL     OW16309   4.527   1.402   2.786
 5208SOL    HW116310   4.617   1.416   2.744
 5208SOL    HW216311   4.456   1.404   2.715
 5209SOL     OW16312   4.646   0.503   2.761
 5209SOL    HW116313   4.621   0.494   2.665
 5209SOL    HW216314   4.694   0.421   2.792
 5210SOL     OW16315   4.263   0.064   2.374
 5210SOL    HW116316   4.182   0.065   2.432
 5210SOL    HW216317   4.266   0.147   2.319
 5211SOL     OW16318   5.158   1.188   1.903
 5211SOL    HW116319   5.190   1.112   1.960
 5211SOL    HW216320   5.066   1.215   1.933
 5212SOL     OW16321   4.021   0.035   2.033
 5212SOL    HW116322   4.070   0.119   2.012
 5212SOL    HW216323   4.083  -0.030   2.078
 5213SOL     OW16324   4.659   0.236   2.342
 5213SOL    HW116325   4.611   0.277   2.264
 5213SOL    HW216326   4.758   0.234   2.323
 5214SOL     OW16327   4.800   0.683   3.326
 5214SOL    HW116328   4.720   0.622   3.329
 5214SOL    HW216329   4.881   0.630   3.302
 5215SOL     OW16330   4.951   1.570   2.655
 5215SOL    HW116331   4.972   1.644   2.590
 5215SOL    HW216332   5.019   1.570   2.728
 5216SOL     OW16333   4.183   1.152   2.603
 5216SOL    HW116334   4.112   1.125   2.668
 5216SOL    HW216335   4.157   1.124   2.510
 5217SOL     OW16336   4.995   1.797   2.453
 5217SOL    HW116337   5.039   1.861   2.389
 5217SOL    HW216338   4.945   1.849   2.523
 5218SOL     OW16339   4.756   0.549   1.878
 5218SOL    HW116340   4.715   0.631   1.839
 5218SOL    HW216341   4.820   0.575   1.951
 5219SOL     OW16342   3.802   0.556   3.248
 5219SOL    HW116343   3.894   0.555   3.207
 5219SOL    HW216344   3.796   0.630   3.315
 5220SOL     OW16345   4.285   0.222   3.009
 5220SOL    HW116346   4.323   0.138   3.046
 5220SOL    HW216347   4.197   0.241   3.053
 5221SOL     OW16348   4.590   0.454   2.504
 5221SOL    HW116349   4.558   0.526   2.442
 5221SOL    HW216350   4.614   0.373   2.451
 5222SOL     OW16351   4.741   0.039   2.615
 5222SOL    HW116352   4.669   0.044   2.546
 5222SOL    HW216353   4.717  -0.030   2.684
 5223SOL     OW16354   5.153   1.173   2.729
 5223SOL    HW116355   5.098   1.089   2.722
 5223SOL    HW216356   5.179   1.202   2.637
 5224SOL     OW16357   4.212   1.385   2.036
 5224SOL    HW116358   4.125   1.370   2.083
 5224SOL    HW216359   4.195   1.411   1.941
 5225SOL     OW16360   5.114   0.575   1.940
 5225SOL    HW116361   5.060   0.554   2.021
 5225SOL    HW216362   5.205   0.534   1.949
 5226SOL     OW16363   4.251   0.256   2.190
 5226SOL    HW116364   4.278   0.197   2.115
 5226SOL    HW216365   4.251   0.351   2.159
 5227SOL     OW16366   4.788   1.347   3.202
 5227SOL    HW116367   4.708   1.324   3.257
 5227SOL    HW216368   4.871   1.321   3.251
 5228SOL     OW16369   5.316   1.629   3.487
 5228SOL    HW116370   5.343   1.663   3.397
 5228SOL    HW216371   5.395   1.591   3.533
 5229SOL     OW16372   4.835   1.195   2.962
 5229SOL    HW116373   4.795   1.239   3.043
 5229SOL    HW216374   4.794   1.232   2.879
 5230SOL     OW16375   4.639   0.089   3.264
 5230SOL    HW116376   4.664   0.069   3.169
 5230SOL    HW216377   4.711   0.145   3.306
 5231SOL     OW16378   4.704   1.116   3.581
 5231SOL    HW116379   4.605   1.122   3.591
 5231SOL    HW216380   4.727   1.036   3.525
 5232SOL     OW16381   4.429   1.050   2.230
 5232SOL    HW116382   4.415   1.057   2.329
 5232SOL    HW216383   4.513   0.999   2.212
 5233SOL     OW16384   4.134   0.813   3.113
 5233SOL    HW116385   4.220   0.825   3.163
 5233SOL    HW216386   4.092   0.726   3.140
 5234SOL     OW16387   4.998   0.386   3.124
 5234SOL    HW116388   5.019   0.460   3.188
 5234SOL    HW216389   4.909   0.403   3.081
 5235SOL     OW16390   3.788   1.564   3.193
 5235SOL    HW116391   3.742   1.646   3.159
 5235SOL    HW216392   3.886   1.583   3.202
 5236SOL     OW16393   4.091   1.100   2.363
 5236SOL    HW116394   4.084   1.183   2.307
 5236SOL    HW216395   4.095   1.020   2.303
 5237SOL     OW16396   4.290   0.537   2.727
 5237SOL    HW116397   4.302   0.603   2.653
 5237SOL    HW216398   4.336   0.571   2.810
 5238SOL     OW16399   4.976   1.348   2.250
 5238SOL    HW116400   5.026   1.425   2.290
 5238SOL    HW216401   4.881   1.350   2.282
 5239SOL     OW16402   4.996   1.445   3.004
 5239SOL    HW116403   5.043   1.458   3.091
 5239SOL    HW216404   4.930   1.371   3.013
 5240SOL     OW16405   4.078   1.510   3.191
 5240SOL    HW116406   4.057   1.466   3.104
 5240SOL    HW216407   4.175   1.536   3.194
 5241SOL     OW16408   4.126   0.751   3.460
 5241SOL    HW116409   4.194   0.806   3.413
 5241SOL    HW216410   4.166   0.663   3.487
 5242SOL     OW16411   4.737   0.105   3.632
 5242SOL    HW116412   4.743   0.190   3.580
 5242SOL    HW216413   4.769   0.029   3.575
 5243SOL     OW16414   4.228   0.050   3.602
 5243SOL    HW116415   4.186  -0.007   3.532
 5243SOL    HW216416   4.162   0.119   3.634
 5244SOL     OW16417   4.297   0.870   2.891
 5244SOL    HW116418   4.341   0.959   2.882
 5244SOL    HW216419   4.234   0.870   2.968
 5245SOL     OW16420   5.084   0.862   2.907
 5245SOL    HW116421   5.009   0.862   2.841
 5245SOL    HW216422   5.121   0.770   2.916
 5246SOL     OW16423   4.933   0.525   2.137
 5246SOL    HW116424   4.946   0.441   2.191
 5246SOL    HW216425   4.904   0.599   2.197
 5247SOL     OW16426   4.031   0.213   3.093
 5247SOL    HW116427   4.008   0.250   3.183
 5247SOL    HW216428   4.001   0.118   3.087
 5248SOL     OW16429   3.761   1.310   3.144
 5248SOL    HW116430   3.814   1.261   3.212
 5248SOL    HW216431   3.783   1.408   3.149
 5249SOL     OW16432   4.456   0.634   2.926
 5249SOL    HW116433   4.515   0.608   2.850
 5249SOL    HW216434   4.428   0.730   2.915
 5250SOL     OW16435   4.031   0.063   2.480
 5250SOL    HW116436   4.020   0.157   2.513
 5250SOL    HW216437   4.026   0.000   2.557
 5251SOL     OW16438   5.346   0.367   2.236
 5251SOL    HW116439   5.348   0.291   2.300
 5251SOL    HW216440   5.298   0.444   2.276
 5252SOL     OW16441   4.747   0.766   2.828
 5252SOL    HW116442   4.762   0.787   2.924
 5252SOL    HW216443   4.717   0.671   2.819
 5253SOL     OW16444   4.704   1.573   3.562
 5253SOL    HW116445   4.684   1.617   3.474
 5253SOL    HW216446   4.743   1.482   3.546
 5254SOL     OW16447   4.074   0.898   3.666
 5254SOL    HW116448   4.150   0.942   3.714
 5254SOL    HW216449   4.109   0.851   3.584
 5255SOL     OW16450   5.027   0.838   1.904
 5255SOL    HW116451   5.061   0.745   1.919
 5255SOL    HW216452   5.045   0.865   1.809
 5256SOL     OW16453   4.792   1.333   2.711
 5256SOL    HW116454   4.799   1.249   2.656
 5256SOL    HW216455   4.854   1.402   2.675
 5257SOL     OW16456   4.043   0.810   2.811
 5257SOL    HW116457   4.136   0.846   2.816
 5257SOL    HW216458   4.037   0.725   2.863
 5258SOL     OW16459   4.063   0.509   2.868
 5258SOL    HW116460   4.011   0.426   2.851
 5258SOL    HW216461   4.140   0.514   2.804
 5259SOL     OW16462   4.862   0.380   3.540
 5259SOL    HW116463   4.817   0.443   3.604
 5259SOL    HW216464   4.955   0.411   3.523
 5260SOL     OW16465   4.884   0.207   3.339
 5260SOL    HW116466   4.884   0.271   3.416
 5260SOL    HW216467   4.912   0.255   3.256
 5261SOL     OW16468   3.732   1.326   2.062
 5261SOL    HW116469   3.639   1.347   2.031
 5261SOL    HW216470   3.742   1.227   2.075
 5262SOL     OW16471   3.812   1.801   2.789
 5262SOL    HW116472   3.770   1.715   2.762
 5262SOL    HW216473   3.906   1.804   2.755
 5263SOL     OW16474   4.228   1.568   2.772
 5263SOL    HW116475   4.294   1.642   2.781
 5263SOL    HW216476   4.272   1.489   2.730
 5264SOL     OW16477   4.726   0.796   3.100
 5264SOL    HW116478   4.767   0.764   3.186
 5264SOL    HW216479   4.630   0.769   3.097
 5265SOL     OW16480   3.764   0.544   2.976
 5265SOL    HW116481   3.849   0.511   2.935
 5265SOL    HW216482   3.777   0.559   3.074
 5266SOL     OW16483   3.913   0.520   3.584
 5266SOL    HW116484   3.972   0.480   3.514
 5266SOL    HW216485   3.855   0.591   3.543
 5267SOL     OW16486   5.093   0.950   3.522
 5267SOL    HW116487   5.132   1.039   3.542
 5267SOL    HW216488   5.103   0.930   3.425
 5268SOL     OW16489   4.539   0.572   2.187
 5268SOL    HW116490   4.546   0.483   2.141
 5268SOL    HW216491   4.445   0.606   2.179
 5269SOL     OW16492   3.976   1.564   3.606
 5269SOL    HW116493   3.946   1.621   3.682
 5269SOL    HW216494   3.969   1.467   3.632
 5270SOL     OW16495   4.395   0.464   3.131
 5270SOL    HW116496   4.361   0.375   3.101
 5270SOL    HW216497   4.421   0.518   3.051
 5271SOL     OW16498   4.654   1.678   3.327
 5271SOL    HW116499   4.630   1.660   3.232
 5271SOL    HW216500   4.684   1.772   3.337
 5272SOL     OW16501   4.197   0.500   2.053
 5272SOL    HW116502   4.258   0.580   2.057
 5272SOL    HW216503   4.102   0.531   2.060
 5273SOL     OW16504   3.883   1.137   3.328
 5273SOL    HW116505   3.905   1.076   3.404
 5273SOL    HW216506   3.893   1.088   3.242
 5274SOL     OW16507   5.071   1.059   3.096
 5274SOL    HW116508   5.095   0.996   3.022
 5274SOL    HW216509   4.981   1.099   3.078
 5275SOL     OW16510   5.026   0.855   2.171
 5275SOL    HW116511   4.940   0.824   2.213
 5275SOL    HW216512   5.022   0.841   2.072
 5276SOL     OW16513   4.976   1.731   2.990
 5276SOL    HW116514   5.060   1.736   2.936
 5276SOL    HW216515   4.953   1.635   3.008
 5277SOL     OW16516   3.807   1.258   2.884
 5277SOL    HW116517   3.802   1.257   2.984
 5277SOL    HW216518   3.724   1.217   2.846
 5278SOL     OW16519   4.412   1.662   3.578
 5278SOL    HW116520   4.356   1.743   3.587
 5278SOL    HW216521   4.464   1.666   3.492
 5279SOL     OW16522   5.112   1.573   2.339
 5279SOL    HW116523   5.179   1.585   2.265
 5279SOL    HW216524   5.072   1.662   2.362
 5280SOL     OW16525   3.854   1.794   3.713
 5280SOL    HW116526   3.813   1.720   3.766
 5280SOL    HW216527   3.918   1.845   3.771
 5281SOL     OW16528   5.004   0.927   2.534
 5281SOL    HW116529   5.064   0.846   2.536
 5281SOL    HW216530   5.044   0.996   2.474
 5282SOL     OW16531   4.554   1.273   3.284
 5282SOL    HW116532   4.549   1.306   3.379
 5282SOL    HW216533   4.468   1.292   3.238
 5283SOL     OW16534   4.396   1.616   2.016
 5283SOL    HW116535   4.405   1.626   1.917
 5283SOL    HW216536   4.356   1.527   2.037
 5284SOL     OW16537   3.987   0.326   2.582
 5284SOL    HW116538   3.908   0.377   2.548
 5284SOL    HW216539   3.978   0.311   2.680
 5285SOL     OW16540   4.918   1.612   1.893
 5285SOL    HW116541   4.924   1.519   1.930
 5285SOL    HW216542   4.859   1.612   1.813
 5286SOL     OW16543   4.546   1.002   3.234
 5286SOL    HW116544   4.586   1.001   3.142
 5286SOL    HW216545   4.556   1.094   3.274
 5287SOL     OW16546   4.640   0.910   2.153
 5287SOL    HW116547   4.703   0.948   2.085
 5287SOL    HW216548   4.680   0.827   2.192
 5288SOL     OW16549   4.096   1.288   3.352
 5288SOL    HW116550   4.083   1.381   3.318
 5288SOL    HW216551   4.012   1.236   3.339
 5289SOL     OW16552   4.763   1.098   2.558
 5289SOL    HW116553   4.693   1.051   2.612
 5289SOL    HW216554   4.822   1.030   2.515
 5290SOL     OW16555   4.738   0.236   2.833
 5290SOL    HW116556   4.730   0.200   2.740
 5290SOL    HW216557   4.736   0.160   2.898
 5291SOL     OW16558   4.314   1.487   2.353
 5291SOL    HW116559   4.356   1.429   2.283
 5291SOL    HW216560   4.270   1.566   2.309
 5292SOL     OW16561   3.979   1.348   2.152
 5292SOL    HW116562   3.883   1.349   2.125
 5292SOL    HW216563   3.991   1.401   2.236
 5293SOL     OW16564   3.829   1.013   3.588
 5293SOL    HW116565   3.752   0.980   3.642
 5293SOL    HW216566   3.914   0.983   3.630
 5294SOL     OW16567   4.396   0.203   3.351
 5294SOL    HW116568   4.486   0.187   3.311
 5294SOL    HW216569   4.404   0.208   3.450
 5295SOL     OW16570   3.799   0.345   1.895
 5295SOL    HW116571   3.707   0.317   1.866
 5295SOL    HW216572   3.830   0.422   1.839
 5296SOL     OW16573   5.164   0.856   3.260
 5296SOL    HW116574   5.107   0.908   3.197
 5296SOL    HW216575   5.260   0.868   3.236
 5297SOL     OW16576   3.796   0.166   2.180
 5297SOL    HW116577   3.779   0.249   2.126
 5297SOL    HW216578   3.886   0.129   2.158
 5298SOL     OW16579   4.907   1.335   1.981
 5298SOL    HW116580   4.808   1.324   1.983
 5298SOL    HW216581   4.941   1.350   2.074
 5299SOL     OW16582   4.337   0.842   3.293
 5299SOL    HW116583   4.393   0.923   3.276
 5299SOL    HW216584   4.396   0.762   3.296
 5300SOL     OW16585   4.440   0.565   3.570
 5300SOL    HW116586   4.459   0.630   3.644
 5300SOL    HW216587   4.500   0.485   3.579
 5301SOL     OW16588   5.174   1.220   3.495
 5301SOL    HW116589   5.165   1.210   3.594
 5301SOL    HW216590   5.270   1.213   3.469
 5302SOL     OW16591   4.114   1.741   3.422
 5302SOL    HW116592   4.023   1.782   3.420
 5302SOL    HW216593   4.107   1.647   3.454
 5303SOL     OW16594   4.949   0.325   2.311
 5303SOL    HW116595   5.014   0.251   2.300
 5303SOL    HW216596   4.969   0.375   2.395
 5304SOL     OW16597   4.318   0.745   2.514
 5304SOL    HW116598   4.368   0.830   2.495
 5304SOL    HW216599   4.230   0.747   2.466
 5305SOL     OW16600   4.583   1.374   1.878
 5305SOL    HW116601   4.537   1.389   1.966
 5305SOL    HW216602   4.627   1.459   1.848
 5306SOL     OW16603   4.385   1.790   2.815
 5306SOL    HW116604   4.339   1.878   2.802
 5306SOL    HW216605   4.484   1.802   2.808
 5307SOL     OW16606   4.583   0.956   2.723
 5307SOL    HW116607   4.637   0.887   2.771
 5307SOL    HW216608   4.551   1.025   2.789
 5308SOL     OW16609   4.807   0.984   1.949
 5308SOL    HW116610   4.784   1.037   1.867
 5308SOL    HW216611   4.888   0.928   1.930
 5309SOL     OW16612   3.945   1.314   3.706
 5309SOL    HW116613   3.880   1.241   3.685
 5309SOL    HW216614   3.949   1.328   3.804
 5310SOL     OW16615   3.803   1.240   2.515
 5310SOL    HW116616   3.802   1.193   2.603
 5310SOL    HW216617   3.885   1.212   2.464
 5311SOL     OW16618   4.396   1.391   3.486
 5311SOL    HW116619   4.318   1.341   3.524
 5311SOL    HW216620   4.393   1.486   3.517
 5312SOL     OW16621   4.152   0.424   2.382
 5312SOL    HW116622   4.182   0.352   2.320
 5312SOL    HW216623   4.113   0.384   2.465
 5313SOL     OW16624   5.429   1.487   2.966
 5313SOL    HW116625   5.336   1.462   2.939
 5313SOL    HW216626   5.455   1.437   3.048
 5314SOL     OW16627   4.041   0.547   3.142
 5314SOL    HW116628   4.079   0.488   3.214
 5314SOL    HW216629   4.081   0.521   3.054
 5315SOL     OW16630   4.536   1.586   2.549
 5315SOL    HW116631   4.568   1.596   2.455
 5315SOL    HW216632   4.457   1.524   2.551
 5316SOL     OW16633   5.148   0.214   2.974
 5316SOL    HW116634   5.200   0.149   3.029
 5316SOL    HW216635   5.099   0.277   3.035
 5317SOL     OW16636   4.725   0.034   3.016
 5317SOL    HW116637   4.662  -0.038   2.985
 5317SOL    HW216638   4.818  -0.002   3.016
 5318SOL     OW16639   4.494   1.330   2.163
 5318SOL    HW116640   4.448   1.243   2.180
 5318SOL    HW216641   4.585   1.327   2.204
 5319SOL     OW16642   4.342   1.567   3.146
 5319SOL    HW116643   4.337   1.649   3.203
 5319SOL    HW216644   4.431   1.564   3.101
 5320SOL     OW16645   5.076   0.052   2.030
 5320SOL    HW116646   5.111   0.011   1.946
 5320SOL    HW216647   4.986   0.014   2.050
 5321SOL     OW16648   5.024   0.453   2.553
 5321SOL    HW116649   4.965   0.533   2.557
 5321SOL    HW216650   5.039   0.418   2.646
 5322SOL     OW16651   5.317   0.221   2.744
 5322SOL    HW116652   5.233   0.220   2.798
 5322SOL    HW216653   5.319   0.304   2.688
 5323SOL     OW16654   3.763   1.077   2.162
 5323SOL    HW116655   3.862   1.066   2.153
 5323SOL    HW216656   3.723   0.991   2.194
 5324SOL     OW16657   4.599   1.646   2.199
 5324SOL    HW116658   4.522   1.611   2.145
 5324SOL    HW216659   4.567   1.717   2.261
 5325SOL     OW16660   3.954   0.628   3.837
 5325SOL    HW116661   3.861   0.626   3.874
 5325SOL    HW216662   3.955   0.589   3.745
 5326SOL     OW16663   3.949   0.275   4.720
 5326SOL    HW116664   3.984   0.258   4.812
 5326SOL    HW216665   3.861   0.230   4.708
 5327SOL     OW16666   3.743   0.368   4.371
 5327SOL    HW116667   3.661   0.411   4.410
 5327SOL    HW216668   3.715   0.295   4.308
 5328SOL     OW16669   4.293   1.275   4.889
 5328SOL    HW116670   4.200   1.268   4.852
 5328SOL    HW216671   4.304   1.364   4.933
 5329SOL     OW16672   5.279   1.511   4.427
 5329SOL    HW116673   5.222   1.495   4.508
 5329SOL    HW216674   5.220   1.521   4.347
 5330SOL     OW16675   4.859   0.703   4.441
 5330SOL    HW116676   4.916   0.781   4.416
 5330SOL    HW216677   4.799   0.729   4.517
 5331SOL     OW16678   4.492   1.144   4.747
 5331SOL    HW116679   4.414   1.161   4.807
 5331SOL    HW216680   4.526   1.231   4.711
 5332SOL     OW16681   4.574   0.798   5.547
 5332SOL    HW116682   4.570   0.874   5.612
 5332SOL    HW216683   4.596   0.834   5.456
 5333SOL     OW16684   4.409   1.012   4.389
 5333SOL    HW116685   4.478   0.996   4.459
 5333SOL    HW216686   4.336   1.069   4.427
 5334SOL     OW16687   4.410   1.161   5.527
 5334SOL    HW116688   4.470   1.240   5.541
 5334SOL    HW216689   4.324   1.192   5.486
 5335SOL     OW16690   4.059   1.435   4.785
 5335SOL    HW116691   3.981   1.404   4.732
 5335SOL    HW216692   4.117   1.493   4.728
 5336SOL     OW16693   5.184   1.505   5.063
 5336SOL    HW116694   5.208   1.599   5.089
 5336SOL    HW216695   5.168   1.451   5.145
 5337SOL     OW16696   4.162   0.392   5.223
 5337SOL    HW116697   4.244   0.336   5.232
 5337SOL    HW216698   4.081   0.334   5.227
 5338SOL     OW16699   3.955   1.713   4.207
 5338SOL    HW116700   3.989   1.790   4.261
 5338SOL    HW216701   3.999   1.713   4.117
 5339SOL     OW16702   4.851   1.341   5.414
 5339SOL    HW116703   4.898   1.341   5.502
 5339SOL    HW216704   4.803   1.254   5.403
 5340SOL     OW16705   3.954   1.434   4.262
 5340SOL    HW116706   3.928   1.530   4.262
 5340SOL    HW216707   3.883   1.380   4.307
 5341SOL     OW16708   3.964   1.091   4.610
 5341SOL    HW116709   3.978   1.007   4.662
 5341SOL    HW216710   3.909   1.155   4.665
 5342SOL     OW16711   4.344   1.786   5.163
 5342SOL    HW116712   4.252   1.769   5.198
 5342SOL    HW216713   4.372   1.878   5.189
 5343SOL     OW16714   4.330   0.964   3.847
 5343SOL    HW116715   4.337   1.048   3.793
 5343SOL    HW216716   4.376   0.977   3.935
 5344SOL     OW16717   5.318   0.114   5.204
 5344SOL    HW116718   5.300   0.181   5.132
 5344SOL    HW216719   5.315   0.160   5.293
 5345SOL     OW16720   3.846   0.643   4.287
 5345SOL    HW116721   3.801   0.555   4.304
 5345SOL    HW216722   3.845   0.697   4.371
 5346SOL     OW16723   3.751   1.596   3.841
 5346SOL    HW116724   3.732   1.500   3.862
 5346SOL    HW216725   3.718   1.654   3.916
 5347SOL     OW16726   5.413   0.922   4.336
 5347SOL    HW116727   5.508   0.893   4.344
 5347SOL    HW216728   5.405   0.987   4.261
 5348SOL     OW16729   3.837   0.737   5.321
 5348SOL    HW116730   3.925   0.724   5.366
 5348SOL    HW216731   3.824   0.834   5.299
 5349SOL     OW16732   4.337   1.365   4.450
 5349SOL    HW116733   4.288   1.278   4.459
 5349SOL    HW216734   4.314   1.408   4.363
 5350SOL     OW16735   5.017   1.228   5.147
 5350SOL    HW116736   5.054   1.155   5.089
 5350SOL    HW216737   5.069   1.233   5.232
 5351SOL     OW16738   4.533   0.004   4.226
 5351SOL    HW116739   4.573   0.095   4.217
 5351SOL    HW216740   4.433   0.012   4.232
 5352SOL     OW16741   3.921   0.976   4.988
 5352SOL    HW116742   4.010   0.931   4.974
 5352SOL    HW216743   3.848   0.911   4.969
 5353SOL     OW16744   4.911   1.792   5.340
 5353SOL    HW116745   4.935   1.852   5.264
 5353SOL    HW216746   4.918   1.697   5.310
 5354SOL     OW16747   4.041   0.251   5.525
 5354SOL    HW116748   4.112   0.322   5.531
 5354SOL    HW216749   3.953   0.290   5.553
 5355SOL     OW16750   5.190   1.417   4.677
 5355SOL    HW116751   5.131   1.423   4.757
 5355SOL    HW216752   5.175   1.329   4.631
 5356SOL     OW16753   4.322   0.729   3.994
 5356SOL    HW116754   4.346   0.798   3.926
 5356SOL    HW216755   4.244   0.762   4.048
 5357SOL     OW16756   5.005   0.345   4.668
 5357SOL    HW116757   4.919   0.295   4.655
 5357SOL    HW216758   5.067   0.291   4.724
 5358SOL     OW16759   4.531   0.605   5.189
 5358SOL    HW116760   4.484   0.602   5.278
 5358SOL    HW216761   4.480   0.550   5.123
 5359SOL     OW16762   5.118   0.469   5.398
 5359SOL    HW116763   5.098   0.512   5.486
 5359SOL    HW216764   5.196   0.407   5.407
 5360SOL     OW16765   4.697   0.890   5.296
 5360SOL    HW116766   4.743   0.806   5.267
 5360SOL    HW216767   4.641   0.924   5.221
 5361SOL     OW16768   4.715   0.410   4.966
 5361SOL    HW116769   4.638   0.444   5.020
 5361SOL    HW216770   4.681   0.359   4.887
 5362SOL     OW16771   4.765   0.701   4.153
 5362SOL    HW116772   4.791   0.697   4.249
 5362SOL    HW216773   4.680   0.650   4.139
 5363SOL     OW16774   3.800   0.811   4.513
 5363SOL    HW116775   3.899   0.799   4.522
 5363SOL    HW216776   3.776   0.906   4.534
 5364SOL     OW16777   3.854   1.821   5.295
 5364SOL    HW116778   3.844   1.806   5.394
 5364SOL    HW216779   3.768   1.857   5.259
 5365SOL     OW16780   4.589   0.348   3.919
 5365SOL    HW116781   4.648   0.411   3.870
 5365SOL    HW216782   4.608   0.254   3.890
 5366SOL     OW16783   5.086   1.144   4.269
 5366SOL    HW116784   5.169   1.115   4.221
 5366SOL    HW216785   5.037   1.211   4.213
 5367SOL     OW16786   4.274   0.196   4.609
 5367SOL    HW116787   4.269   0.191   4.709
 5367SOL    HW216788   4.276   0.292   4.580
 5368SOL     OW16789   4.732   1.456   4.201
 5368SOL    HW116790   4.686   1.528   4.149
 5368SOL    HW216791   4.728   1.476   4.299
 5369SOL     OW16792   4.075   1.801   4.577
 5369SOL    HW116793   4.125   1.715   4.583
 5369SOL    HW216794   4.140   1.878   4.574
 5370SOL     OW16795   4.951   1.550   5.230
 5370SOL    HW116796   4.957   1.473   5.294
 5370SOL    HW216797   4.899   1.524   5.150
 5371SOL     OW16798   4.045   0.943   3.966
 5371SOL    HW116799   4.127   0.982   3.924
 5371SOL    HW216800   4.018   0.861   3.917
 5372SOL     OW16801   4.185   1.266   5.451
 5372SOL    HW116802   4.135   1.267   5.365
 5372SOL    HW216803   4.122   1.248   5.527
 5373SOL     OW16804   4.835   1.776   3.961
 5373SOL    HW116805   4.775   1.714   4.011
 5373SOL    HW216806   4.866   1.732   3.876
 5374SOL     OW16807   3.926   0.285   5.222
 5374SOL    HW116808   3.846   0.345   5.209
 5374SOL    HW216809   3.916   0.236   5.308
 5375SOL     OW16810   4.188   1.743   4.047
 5375SOL    HW116811   4.221   1.782   4.133
 5375SOL    HW216812   4.264   1.736   3.982
 5376SOL     OW16813   5.124   0.107   4.150
 5376SOL    HW116814   5.100   0.070   4.060
 5376SOL    HW216815   5.223   0.123   4.154
 5377SOL     OW16816   3.973   1.785   4.965
 5377SOL    HW116817   4.030   1.720   5.015
 5377SOL    HW216818   3.957   1.752   4.872
 5378SOL     OW16819   4.664   1.698   4.628
 5378SOL    HW116820   4.744   1.641   4.649
 5378SOL    HW216821   4.615   1.658   4.551
 5379SOL     OW16822   4.106   0.700   4.204
 5379SOL    HW116823   4.151   0.610   4.201
 5379SOL    HW216824   4.012   0.689   4.237
 5380SOL     OW16825   4.338   0.122   3.841
 5380SOL    HW116826   4.436   0.100   3.848
 5380SOL    HW216827   4.307   0.105   3.748
 5381SOL     OW16828   4.505   0.264   5.473
 5381SOL    HW116829   4.572   0.203   5.516
 5381SOL    HW216830   4.432   0.283   5.538
 5382SOL     OW16831   4.612   1.514   4.919
 5382SOL    HW116832   4.589   1.489   4.825
 5382SOL    HW216833   4.673   1.445   4.958
 5383SOL     OW16834   5.075   0.590   5.157
 5383SOL    HW116835   5.103   0.547   5.242
 5383SOL    HW216836   5.100   0.686   5.158
 5384SOL     OW16837   4.527   1.402   4.648
 5384SOL    HW116838   4.617   1.416   4.606
 5384SOL    HW216839   4.456   1.404   4.577
 5385SOL     OW16840   4.646   0.503   4.623
 5385SOL    HW116841   4.621   0.494   4.527
 5385SOL    HW216842   4.694   0.421   4.654
 5386SOL     OW16843   4.263   0.064   4.236
 5386SOL    HW116844   4.182   0.065   4.294
 5386SOL    HW216845   4.266   0.147   4.181
 5387SOL     OW16846   5.158   1.188   3.765
 5387SOL    HW116847   5.190   1.112   3.822
 5387SOL    HW216848   5.066   1.215   3.795
 5388SOL     OW16849   4.021   0.035   3.895
 5388SOL    HW116850   4.070   0.119   3.874
 5388SOL    HW216851   4.083  -0.030   3.940
 5389SOL     OW16852   4.659   0.236   4.204
 5389SOL    HW116853   4.611   0.277   4.126
 5389SOL    HW216854   4.758   0.234   4.185
 5390SOL     OW16855   4.800   0.683   5.188
 5390SOL    HW116856   4.720   0.622   5.191
 5390SOL    HW216857   4.881   0.630   5.164
 5391SOL     OW16858   4.951   1.570   4.517
 5391SOL    HW116859   4.972   1.644   4.452
 5391SOL    HW216860   5.019   1.570   4.590
 5392SOL     OW16861   4.183   1.152   4.465
 5392SOL    HW116862   4.112   1.125   4.530
 5392SOL    HW216863   4.157   1.124   4.372
 5393SOL     OW16864   4.995   1.797   4.315
 5393SOL    HW116865   5.039   1.861   4.251
 5393SOL    HW216866   4.945   1.849   4.385
 5394SOL     OW16867   4.756   0.549   3.740
 5394SOL    HW116868   4.715   0.631   3.701
 5394SOL    HW216869   4.820   0.575   3.813
 5395SOL     OW16870   3.802   0.556   5.110
 5395SOL    HW116871   3.894   0.555   5.069
 5395SOL    HW216872   3.796   0.630   5.177
 5396SOL     OW16873   4.285   0.222   4.871
 5396SOL    HW116874   4.323   0.138   4.908
 5396SOL    HW216875   4.197   0.241   4.915
 5397SOL     OW16876   4.590   0.454   4.366
 5397SOL    HW116877   4.558   0.526   4.304
 5397SOL    HW216878   4.614   0.373   4.313
 5398SOL     OW16879   4.741   0.039   4.477
 5398SOL    HW116880   4.669   0.044   4.408
 5398SOL    HW216881   4.717  -0.030   4.546
 5399SOL     OW16882   5.153   1.173   4.591
 5399SOL    HW116883   5.098   1.089   4.584
 5399SOL    HW216884   5.179   1.202   4.499
 5400SOL     OW16885   4.212   1.385   3.898
 5400SOL    HW116886   4.125   1.370   3.945
 5400SOL    HW216887   4.195   1.411   3.803
 5401SOL     OW16888   5.114   0.575   3.802
 5401SOL    HW116889   5.060   0.554   3.883
 5401SOL    HW216890   5.205   0.534   3.811
 5402SOL     OW16891   4.251   0.256   4.052
 5402SOL    HW116892   4.278   0.197   3.977
 5402SOL    HW216893   4.251   0.351   4.021
 5403SOL     OW16894   4.788   1.347   5.064
 5403SOL    HW116895   4.708   1.324   5.119
 5403SOL    HW216896   4.871   1.321   5.113
 5404SOL     OW16897   5.316   1.629   5.349
 5404SOL    HW116898   5.343   1.663   5.259
 5404SOL    HW216899   5.395   1.591   5.395
 5405SOL     OW16900   4.835   1.195   4.824
 5405SOL    HW116901   4.795   1.239   4.905
 5405SOL    HW216902   4.794   1.232   4.741
 5406SOL     OW16903   4.639   0.089   5.126
 5406SOL    HW116904   4.664   0.069   5.031
 5406SOL    HW216905   4.711   0.145   5.168
 5407SOL     OW16906   4.704   1.116   5.443
 5407SOL    HW116907   4.605   1.122   5.453
 5407SOL    HW216908   4.727   1.036   5.387
 5408SOL     OW16909   4.429   1.050   4.092
 5408SOL    HW116910   4.415   1.057   4.191
 5408SOL    HW216911   4.513   0.999   4.074
 5409SOL     OW16912   4.134   0.813   4.975
 5409SOL    HW116913   4.220   0.825   5.025
 5409SOL    HW216914   4.092   0.726   5.002
 5410SOL     OW16915   4.998   0.386   4.986
 5410SOL    HW116916   5.019   0.460   5.050
 5410SOL    HW216917   4.909   0.403   4.943
 5411SOL     OW16918   3.788   1.564   5.055
 5411SOL    HW116919   3.742   1.646   5.021
 5411SOL    HW216920   3.886   1.583   5.064
 5412SOL     OW16921   4.091   1.100   4.225
 5412SOL    HW116922   4.084   1.183   4.169
 5412SOL    HW216923   4.095   1.020   4.165
 5413SOL     OW16924   4.290   0.537   4.589
 5413SOL    HW116925   4.302   0.603   4.515
 5413SOL    HW216926   4.336   0.571   4.672
 5414SOL     OW16927   4.976   1.348   4.112
 5414SOL    HW116928   5.026   1.425   4.152
 5414SOL    HW216929   4.881   1.350   4.144
 5415SOL     OW16930   4.996   1.445   4.866
 5415SOL    HW116931   5.043   1.458   4.953
 5415SOL    HW216932   4.930   1.371   4.875
 5416SOL     OW16933   4.078   1.510   5.053
 5416SOL    HW116934   4.057   1.466   4.966
 5416SOL    HW216935   4.175   1.536   5.056
 5417SOL     OW16936   4.126   0.751   5.322
 5417SOL    HW116937   4.194   0.806   5.275
 5417SOL    HW216938   4.166   0.663   5.349
 5418SOL     OW16939   4.737   0.105   5.494
 5418SOL    HW116940   4.743   0.190   5.442
 5418SOL    HW216941   4.769   0.029   5.437
 5419SOL     OW16942   4.228   0.050   5.464
 5419SOL    HW116943   4.186  -0.007   5.394
 5419SOL    HW216944   4.162   0.119   5.496
 5420SOL     OW16945   4.297   0.870   4.753
 5420SOL    HW116946   4.341   0.959   4.744
 5420SOL    HW216947   4.234   0.870   4.830
 5421SOL     OW16948   5.084   0.862   4.769
 5421SOL    HW116949   5.009   0.862   4.703
 5421SOL    HW216950   5.121   0.770   4.778
 5422SOL     OW16951   4.933   0.525   3.999
 5422SOL    HW116952   4.946   0.441   4.053
 5422SOL    HW216953   4.904   0.599   4.059
 5423SOL     OW16954   4.031   0.213   4.955
 5423SOL    HW116955   4.008   0.250   5.045
 5423SOL    HW216956   4.001   0.118   4.949
 5424SOL     OW16957   3.761   1.310   5.006
 5424SOL    HW116958   3.814   1.261   5.074
 5424SOL    HW216959   3.783   1.408   5.011
 5425SOL     OW16960   4.456   0.634   4.788
 5425SOL    HW116961   4.515   0.608   4.712
 5425SOL    HW216962   4.428   0.730   4.777
 5426SOL     OW16963   4.031   0.063   4.342
 5426SOL    HW116964   4.020   0.157   4.375
 5426SOL    HW216965   4.026   0.000   4.419
 5427SOL     OW16966   5.346   0.367   4.098
 5427SOL    HW116967   5.348   0.291   4.162
 5427SOL    HW216968   5.298   0.444   4.138
 5428SOL     OW16969   4.747   0.766   4.690
 5428SOL    HW116970   4.762   0.787   4.786
 5428SOL    HW216971   4.717   0.671   4.681
 5429SOL     OW16972   4.704   1.573   5.424
 5429SOL    HW116973   4.684   1.617   5.336
 5429SOL    HW216974   4.743   1.482   5.408
 5430SOL     OW16975   4.074   0.898   5.528
 5430SOL    HW116976   4.150   0.942   5.576
 5430SOL    HW216977   4.109   0.851   5.446
 5431SOL     OW16978   5.027   0.838   3.766
 5431SOL    HW116979   5.061   0.745   3.781
 5431SOL    HW216980   5.045   0.865   3.671
 5432SOL     OW16981   4.792   1.333   4.573
 5432SOL    HW116982   4.799   1.249   4.518
 5432SOL    HW216983   4.854   1.402   4.537
 5433SOL     OW16984   4.043   0.810   4.673
 5433SOL    HW116985   4.136   0.846   4.678
 5433SOL    HW216986   4.037   0.725   4.725
 5434SOL     OW16987   4.063   0.509   4.730
 5434SOL    HW116988   4.011   0.426   4.713
 5434SOL    HW216989   4.140   0.514   4.666
 5435SOL     OW16990   4.862   0.380   5.402
 5435SOL    HW116991   4.817   0.443   5.466
 5435SOL    HW216992   4.955   0.411   5.385
 5436SOL     OW16993   4.884   0.207   5.201
 5436SOL    HW116994   4.884   0.271   5.278
 5436SOL    HW216995   4.912   0.255   5.118
 5437SOL     OW16996   3.732   1.326   3.924
 5437SOL    HW116997   3.639   1.347   3.893
 5437SOL    HW216998   3.742   1.227   3.937
 5438SOL     OW16999   3.812   1.801   4.651
 5438SOL    HW117000   3.770   1.715   4.624
 5438SOL    HW217001   3.906   1.804   4.617
 5439SOL     OW17002   4.228   1.568   4.634
 5439SOL    HW117003   4.294   1.642   4.643
 5439SOL    HW217004   4.272   1.489   4.592
 5440SOL     OW17005   4.726   0.796   4.962
 5440SOL    HW117006   4.767   0.764   5.048
 5440SOL    HW217007   4.630   0.769   4.959
 5441SOL     OW17008   3.764   0.544   4.838
 5441SOL    HW117009   3.849   0.511   4.797
 5441SOL    HW217010   3.777   0.559   4.936
 5442SOL     OW17011   3.913   0.520   5.446
 5442SOL    HW117012   3.972   0.480   5.376
 5442SOL    HW217013   3.855   0.591   5.405
 5443SOL     OW17014   5.093   0.950   5.384
 5443SOL    HW117015   5.132   1.039   5.404
 5443SOL    HW217016   5.103   0.930   5.287
 5444SOL     OW17017   4.539   0.572   4.049
 5444SOL    HW117018   4.546   0.483   4.003
 5444SOL    HW217019   4.445   0.606   4.041
 5445SOL     OW17020   3.976   1.564   5.468
 5445SOL    HW117021   3.946   1.621   5.544
 5445SOL    HW217022   3.969   1.467   5.494
 5446SOL     OW17023   4.395   0.464   4.993
 5446SOL    HW117024   4.361   0.375   4.963
 5446SOL    HW217025   4.421   0.518   4.913
 5447SOL     OW17026   4.654   1.678   5.189
 5447SOL    HW117027   4.630   1.660   5.094
 5447SOL    HW217028   4.684   1.772   5.199
 5448SOL     OW17029   4.197   0.500   3.915
 5448SOL    HW117030   4.258   0.580   3.919
 5448SOL    HW217031   4.102   0.531   3.922
 5449SOL     OW17032   3.883   1.137   5.190
 5449SOL    HW117033   3.905   1.076   5.266
 5449SOL    HW217034   3.893   1.088   5.104
 5450SOL     OW17035   5.071   1.059   4.958
 5450SOL    HW117036   5.095   0.996   4.884
 5450SOL    HW217037   4.981   1.099   4.940
 5451SOL     OW17038   5.026   0.855   4.033
 5451SOL    HW117039   4.940   0.824   4.075
 5451SOL    HW217040   5.022   0.841   3.934
 5452SOL     OW17041   4.976   1.731   4.852
 5452SOL    HW117042   5.060   1.736   4.798
 5452SOL    HW217043   4.953   1.635   4.870
 5453SOL     OW17044   3.807   1.258   4.746
 5453SOL    HW117045   3.802   1.257   4.846
 5453SOL    HW217046   3.724   1.217   4.708
 5454SOL     OW17047   4.412   1.662   5.440
 5454SOL    HW117048   4.356   1.743   5.449
 5454SOL    HW217049   4.464   1.666   5.354
 5455SOL     OW17050   5.112   1.573   4.201
 5455SOL    HW117051   5.179   1.585   4.127
 5455SOL    HW217052   5.072   1.662   4.224
 5456SOL     OW17053   3.854   1.794   5.575
 5456SOL    HW117054   3.813   1.720   5.628
 5456SOL    HW217055   3.918   1.845   5.633
 5457SOL     OW17056   5.004   0.927   4.396
 5457SOL    HW117057   5.064   0.846   4.398
 5457SOL    HW217058   5.044   0.996   4.336
 5458SOL     OW17059   4.554   1.273   5.146
 5458SOL    HW117060   4.549   1.306   5.241
 5458SOL    HW217061   4.468   1.292   5.100
 5459SOL     OW17062   4.396   1.616   3.878
 5459SOL    HW117063   4.405   1.626   3.779
 5459SOL    HW217064   4.356   1.527   3.899
 5460SOL     OW17065   3.987   0.326   4.444
 5460SOL    HW117066   3.908   0.377   4.410
 5460SOL    HW217067   3.978   0.311   4.542
 5461SOL     OW17068   4.918   1.612   3.755
 5461SOL    HW117069   4.924   1.519   3.792
 5461SOL    HW217070   4.859   1.612   3.675
 5462SOL     OW17071   4.546   1.002   5.096
 5462SOL    HW117072   4.586   1.001   5.004
 5462SOL    HW217073   4.556   1.094   5.136
 5463SOL     OW17074   4.640   0.910   4.015
 5463SOL    HW117075   4.703   0.948   3.947
 5463SOL    HW217076   4.680   0.827   4.054
 5464SOL     OW17077   4.096   1.288   5.214
 5464SOL    HW117078   4.083   1.381   5.180
 5464SOL    HW217079   4.012   1.236   5.201
 5465SOL     OW17080   4.763   1.098   4.420
 5465SOL    HW117081   4.693   1.051   4.474
 5465SOL    HW217082   4.822   1.030   4.377
 5466SOL     OW17083   4.738   0.236   4.695
 5466SOL    HW117084   4.730   0.200   4.602
 5466SOL    HW217085   4.736   0.160   4.760
 5467SOL     OW17086   4.314   1.487   4.215
 5467SOL    HW117087   4.356   1.429   4.145
 5467SOL    HW217088   4.270   1.566   4.171
 5468SOL     OW17089   3.979   1.348   4.014
 5468SOL    HW117090   3.883   1.349   3.987
 5468SOL    HW217091   3.991   1.401   4.098
 5469SOL     OW17092   3.829   1.013   5.450
 5469SOL    HW117093   3.752   0.980   5.504
 5469SOL    HW217094   3.914   0.983   5.492
 5470SOL     OW17095   4.396   0.203   5.213
 5470SOL    HW117096   4.486   0.187   5.173
 5470SOL    HW217097   4.404   0.208   5.312
 5471SOL     OW17098   3.799   0.345   3.757
 5471SOL    HW117099   3.707   0.317   3.728
 5471SOL    HW217100   3.830   0.422   3.701
 5472SOL     OW17101   5.164   0.856   5.122
 5472SOL    HW117102   5.107   0.908   5.059
 5472SOL    HW217103   5.260   0.868   5.098
 5473SOL     OW17104   3.796   0.166   4.042
 5473SOL    HW117105   3.779   0.249   3.988
 5473SOL    HW217106   3.886   0.129   4.020
 5474SOL     OW17107   4.907   1.335   3.843
 5474SOL    HW117108   4.808   1.324   3.845
 5474SOL    HW217109   4.941   1.350   3.936
 5475SOL     OW17110   4.337   0.842   5.155
 5475SOL    HW117111   4.393   0.923   5.138
 5475SOL    HW217112   4.396   0.762   5.158
 5476SOL     OW17113   4.440   0.565   5.432
 5476SOL    HW117114   4.459   0.630   5.506
 5476SOL    HW217115   4.500   0.485   5.441
 5477SOL     OW17116   5.174   1.220   5.357
 5477SOL    HW117117   5.165   1.210   5.456
 5477SOL    HW217118   5.270   1.213   5.331
 5478SOL     OW17119   4.114   1.741   5.284
 5478SOL    HW117120   4.023   1.782   5.282
 5478SOL    HW217121   4.107   1.647   5.316
 5479SOL     OW17122   4.949   0.325   4.173
 5479SOL    HW117123   5.014   0.251   4.162
 5479SOL    HW217124   4.969   0.375   4.257
 5480SOL     OW17125   4.318   0.745   4.376
 5480SOL    HW117126   4.368   0.830   4.357
 5480SOL    HW217127   4.230   0.747   4.328
 5481SOL     OW17128   4.583   1.374   3.740
 5481SOL    HW117129   4.537   1.389   3.828
 5481SOL    HW217130   4.627   1.459   3.710
 5482SOL     OW17131   4.385   1.790   4.677
 5482SOL    HW117132   4.339   1.878   4.664
 5482SOL    HW217133   4.484   1.802   4.670
 5483SOL     OW17134   4.583   0.956   4.585
 5483SOL    HW117135   4.637   0.887   4.633
 5483SOL    HW217136   4.551   1.025   4.651
 5484SOL     OW17137   4.807   0.984   3.811
 5484SOL    HW117138   4.784   1.037   3.729
 5484SOL    HW217139   4.888   0.928   3.792
 5485SOL     OW17140   3.945   1.314   5.568
 5485SOL    HW117141   3.880   1.241   5.547
 5485SOL    HW217142   3.949   1.328   5.666
 5486SOL     OW17143   3.803   1.240   4.377
 5486SOL    HW117144   3.802   1.193   4.465
 5486SOL    HW217145   3.885   1.212   4.326
 5487SOL     OW17146   4.396   1.391   5.348
 5487SOL    HW117147   4.318   1.341   5.386
 5487SOL    HW217148   4.393   1.486   5.379
 5488SOL     OW17149   4.152   0.424   4.244
 5488SOL    HW117150   4.182   0.352   4.182
 5488SOL    HW217151   4.113   0.384   4.327
 5489SOL     OW17152   5.429   1.487   4.828
 5489SOL    HW117153   5.336   1.462   4.801
 5489SOL    HW217154   5.455   1.437   4.910
 5490SOL     OW17155   4.041   0.547   5.004
 5490SOL    HW117156   4.079   0.488   5.076
 5490SOL    HW217157   4.081   0.521   4.916
 5491SOL     OW17158   4.536   1.586   4.411
 5491SOL    HW117159   4.568   1.596   4.317
 5491SOL    HW217160   4.457   1.524   4.413
 5492SOL     OW17161   5.148   0.214   4.836
 5492SOL    HW117162   5.200   0.149   4.891
 5492SOL    HW217163   5.099   0.277   4.897
 5493SOL     OW17164   4.725   0.034   4.878
 5493SOL    HW117165   4.662  -0.038   4.847
 5493SOL    HW217166   4.818  -0.002   4.878
 5494SOL     OW17167   4.494   1.330   4.025
 5494SOL    HW117168   4.448   1.243   4.042
 5494SOL    HW217169   4.585   1.327   4.066
 5495SOL     OW17170   4.342   1.567   5.008
 5495SOL    HW117171   4.337   1.649   5.065
 5495SOL    HW217172   4.431   1.564   4.963
 5496SOL     OW17173   5.076   0.052   3.892
 5496SOL    HW117174   5.111   0.011   3.808
 5496SOL    HW217175   4.986   0.014   3.912
 5497SOL     OW17176   5.024   0.453   4.415
 5497SOL    HW117177   4.965   0.533   4.419
 5497SOL    HW217178   5.039   0.418   4.508
 5498SOL     OW17179   5.317   0.221   4.606
 5498SOL    HW117180   5.233   0.220   4.660
 5498SOL    HW217181   5.319   0.304   4.550
 5499SOL     OW17182   3.763   1.077   4.024
 5499SOL    HW117183   3.862   1.066   4.015
 5499SOL    HW217184   3.723   0.991   4.056
 5500SOL     OW17185   4.599   1.646   4.061
 5500SOL    HW117186   4.522   1.611   4.007
 5500SOL    HW217187   4.567   1.717   4.123
 5501SOL     OW17188   3.954   0.628   5.699
 5501SOL    HW117189   3.861   0.626   5.736
 5501SOL    HW217190   3.955   0.589   5.607
 5502SOL     OW17191   3.949   0.275   6.582
 5502SOL    HW117192   3.984   0.258   6.674
 5502SOL    HW217193   3.861   0.230   6.570
 5503SOL     OW17194   3.743   0.368   6.233
 5503SOL    HW117195   3.661   0.411   6.272
 5503SOL    HW217196   3.715   0.295   6.170
 5504SOL     OW17197   4.293   1.275   6.751
 5504SOL    HW117198   4.200   1.268   6.714
 5504SOL    HW217199   4.304   1.364   6.795
 5505SOL     OW17200   5.279   1.511   6.289
 5505SOL    HW117201   5.222   1.495   6.370
 5505SOL    HW217202   5.220   1.521   6.209
 5506SOL     OW17203   4.859   0.703   6.303
 5506SOL    HW117204   4.916   0.781   6.278
 5506SOL    HW217205   4.799   0.729   6.379
 5507SOL     OW17206   4.492   1.144   6.609
 5507SOL    HW117207   4.414   1.161   6.669
 5507SOL    HW217208   4.526   1.231   6.573
 5508SOL     OW17209   4.574   0.798   7.409
 5508SOL    HW117210   4.570   0.874   7.474
 5508SOL    HW217211   4.596   0.834   7.318
 5509SOL     OW17212   4.409   1.012   6.251
 5509SOL    HW117213   4.478   0.996   6.321
 5509SOL    HW217214   4.336   1.069   6.289
 5510SOL     OW17215   4.410   1.161   7.389
 5510SOL    HW117216   4.470   1.240   7.403
 5510SOL    HW217217   4.324   1.192   7.348
 5511SOL     OW17218   4.059   1.435   6.647
 5511SOL    HW117219   3.981   1.404   6.594
 5511SOL    HW217220   4.117   1.493   6.590
 5512SOL     OW17221   5.184   1.505   6.925
 5512SOL    HW117222   5.208   1.599   6.951
 5512SOL    HW217223   5.168   1.451   7.007
 5513SOL     OW17224   4.162   0.392   7.085
 5513SOL    HW117225   4.244   0.336   7.094
 5513SOL    HW217226   4.081   0.334   7.089
 5514SOL     OW17227   3.955   1.713   6.069
 5514SOL    HW117228   3.989   1.790   6.123
 5514SOL    HW217229   3.999   1.713   5.979
 5515SOL     OW17230   4.851   1.341   7.276
 5515SOL    HW117231   4.898   1.341   7.364
 5515SOL    HW217232   4.803   1.254   7.265
 5516SOL     OW17233   3.954   1.434   6.124
 5516SOL    HW117234   3.928   1.530   6.124
 5516SOL    HW217235   3.883   1.380   6.169
 5517SOL     OW17236   3.964   1.091   6.472
 5517SOL    HW117237   3.978   1.007   6.524
 5517SOL    HW217238   3.909   1.155   6.527
 5518SOL     OW17239   4.344   1.786   7.025
 5518SOL    HW117240   4.252   1.769   7.060
 5518SOL    HW217241   4.372   1.878   7.051
 5519SOL     OW17242   4.330   0.964   5.709
 5519SOL    HW117243   4.337   1.048   5.655
 5519SOL    HW217244   4.376   0.977   5.797
 5520SOL     OW17245   5.318   0.114   7.066
 5520SOL    HW117246   5.300   0.181   6.994
 5520SOL    HW217247   5.315   0.160   7.155
 5521SOL     OW17248   3.846   0.643   6.149
 5521SOL    HW117249   3.801   0.555   6.166
 5521SOL    HW217250   3.845   0.697   6.233
 5522SOL     OW17251   3.751   1.596   5.703
 5522SOL    HW117252   3.732   1.500   5.724
 5522SOL    HW217253   3.718   1.654   5.778
 5523SOL     OW17254   5.413   0.922   6.198
 5523SOL    HW117255   5.508   0.893   6.206
 5523SOL    HW217256   5.405   0.987   6.123
 5524SOL     OW17257   3.837   0.737   7.183
 5524SOL    HW117258   3.925   0.724   7.228
 5524SOL    HW217259   3.824   0.834   7.161
 5525SOL     OW17260   4.337   1.365   6.312
 5525SOL    HW117261   4.288   1.278   6.321
 5525SOL    HW217262   4.314   1.408   6.225
 5526SOL     OW17263   5.017   1.228   7.009
 5526SOL    HW117264   5.054   1.155   6.951
 5526SOL    HW217265   5.069   1.233   7.094
 5527SOL     OW17266   4.533   0.004   6.088
 5527SOL    HW117267   4.573   0.095   6.079
 5527SOL    HW217268   4.433   0.012   6.094
 5528SOL     OW17269   3.921   0.976   6.850
 5528SOL    HW117270   4.010   0.931   6.836
 5528SOL    HW217271   3.848   0.911   6.831
 5529SOL     OW17272   4.911   1.792   7.202
 5529SOL    HW117273   4.935   1.852   7.126
 5529SOL    HW217274   4.918   1.697   7.172
 5530SOL     OW17275   4.041   0.251   7.387
 5530SOL    HW117276   4.112   0.322   7.393
 5530SOL    HW217277   3.953   0.290   7.415
 5531SOL     OW17278   5.190   1.417   6.539
 5531SOL    HW117279   5.131   1.423   6.619
 5531SOL    HW217280   5.175   1.329   6.493
 5532SOL     OW17281   4.322   0.729   5.856
 5532SOL    HW117282   4.346   0.798   5.788
 5532SOL    HW217283   4.244   0.762   5.910
 5533SOL     OW17284   5.005   0.345   6.530
 5533SOL    HW117285   4.919   0.295   6.517
 5533SOL    HW217286   5.067   0.291   6.586
 5534SOL     OW17287   4.531   0.605   7.051
 5534SOL    HW117288   4.484   0.602   7.140
 5534SOL    HW217289   4.480   0.550   6.985
 5535SOL     OW17290   5.118   0.469   7.260
 5535SOL    HW117291   5.098   0.512   7.348
 5535SOL    HW217292   5.196   0.407   7.269
 5536SOL     OW17293   4.697   0.890   7.158
 5536SOL    HW117294   4.743   0.806   7.129
 5536SOL    HW217295   4.641   0.924   7.083
 5537SOL     OW17296   4.715   0.410   6.828
 5537SOL    HW117297   4.638   0.444   6.882
 5537SOL    HW217298   4.681   0.359   6.749
 5538SOL     OW17299   4.765   0.701   6.015
 5538SOL    HW117300   4.791   0.697   6.111
 5538SOL    HW217301   4.680   0.650   6.001
 5539SOL     OW17302   3.800   0.811   6.375
 5539SOL    HW117303   3.899   0.799   6.384
 5539SOL    HW217304   3.776   0.906   6.396
 5540SOL     OW17305   3.854   1.821   7.157
 5540SOL    HW117306   3.844   1.806   7.256
 5540SOL    HW217307   3.768   1.857   7.121
 5541SOL     OW17308   4.589   0.348   5.781
 5541SOL    HW117309   4.648   0.411   5.732
 5541SOL    HW217310   4.608   0.254   5.752
 5542SOL     OW17311   5.086   1.144   6.131
 5542SOL    HW117312   5.169   1.115   6.083
 5542SOL    HW217313   5.037   1.211   6.075
 5543SOL     OW17314   4.274   0.196   6.471
 5543SOL    HW117315   4.269   0.191   6.571
 5543SOL    HW217316   4.276   0.292   6.442
 5544SOL     OW17317   4.732   1.456   6.063
 5544SOL    HW117318   4.686   1.528   6.011
 5544SOL    HW217319   4.728   1.476   6.161
 5545SOL     OW17320   4.075   1.801   6.439
 5545SOL    HW117321   4.125   1.715   6.445
 5545SOL    HW217322   4.140   1.878   6.436
 5546SOL     OW17323   4.951   1.550   7.092
 5546SOL    HW117324   4.957   1.473   7.156
 5546SOL    HW217325   4.899   1.524   7.012
 5547SOL     OW17326   4.045   0.943   5.828
 5547SOL    HW117327   4.127   0.982   5.786
 5547SOL    HW217328   4.018   0.861   5.779
 5548SOL     OW17329   4.185   1.266   7.313
 5548SOL    HW117330   4.135   1.267   7.227
 5548SOL    HW217331   4.122   1.248   7.389
 5549SOL     OW17332   4.835   1.776   5.823
 5549SOL    HW117333   4.775   1.714   5.873
 5549SOL    HW217334   4.866   1.732   5.738
 5550SOL     OW17335   3.926   0.285   7.084
 5550SOL    HW117336   3.846   0.345   7.071
 5550SOL    HW217337   3.916   0.236   7.170
 5551SOL     OW17338   4.188   1.743   5.909
 5551SOL    HW117339   4.221   1.782   5.995
 5551SOL    HW217340   4.264   1.736   5.844
 5552SOL     OW17341   5.124   0.107   6.012
 5552SOL    HW117342   5.100   0.070   5.922
 5552SOL    HW217343   5.223   0.123   6.016
 5553SOL     OW17344   3.973   1.785   6.827
 5553SOL    HW117345   4.030   1.720   6.877
 5553SOL    HW217346   3.957   1.752   6.734
 5554SOL     OW17347   4.664   1.698   6.490
 5554SOL    HW117348   4.744   1.641   6.511
 5554SOL    HW217349   4.615   1.658   6.413
 5555SOL     OW17350   4.106   0.700   6.066
 5555SOL    HW117351   4.151   0.610   6.063
 5555SOL    HW217352   4.012   0.689   6.099
 5556SOL     OW17353   4.338   0.122   5.703
 5556SOL    HW117354   4.436   0.100   5.710
 5556SOL    HW217355   4.307   0.105   5.610
 5557SOL     OW17356   4.505   0.264   7.335
 5557SOL    HW117357   4.572   0.203   7.378
 5557SOL    HW217358   4.432   0.283   7.400
 5558SOL     OW17359   4.612   1.514   6.781
 5558SOL    HW117360   4.589   1.489   6.687
 5558SOL    HW217361   4.673   1.445   6.820
 5559SOL     OW17362   5.075   0.590   7.019
 5559SOL    HW117363   5.103   0.547   7.104
 5559SOL    HW217364   5.100   0.686   7.020
 5560SOL     OW17365   4.527   1.402   6.510
 5560SOL    HW117366   4.617   1.416   6.468
 5560SOL    HW217367   4.456   1.404   6.439
 5561SOL     OW17368   4.646   0.503   6.485
 5561SOL    HW117369   4.621   0.494   6.389
 5561SOL    HW217370   4.694   0.421   6.516
 5562SOL     OW17371   4.263   0.064   6.098
 5562SOL    HW117372   4.182   0.065   6.156
 5562SOL    HW217373   4.266   0.147   6.043
 5563SOL     OW17374   5.158   1.188   5.627
 5563SOL    HW117375   5.190   1.112   5.684
 5563SOL    HW217376   5.066   1.215   5.657
 5564SOL     OW17377   4.021   0.035   5.757
 5564SOL    HW117378   4.070   0.119   5.736
 5564SOL    HW217379   4.083  -0.030   5.802
 5565SOL     OW17380   4.659   0.236   6.066
 5565SOL    HW117381   4.611   0.277   5.988
 5565SOL    HW217382   4.758   0.234   6.047
 5566SOL     OW17383   4.800   0.683   7.050
 5566SOL    HW117384   4.720   0.622   7.053
 5566SOL    HW217385   4.881   0.630   7.026
 5567SOL     OW17386   4.951   1.570   6.379
 5567SOL    HW117387   4.972   1.644   6.314
 5567SOL    HW217388   5.019   1.570   6.452
 5568SOL     OW17389   4.183   1.152   6.327
 5568SOL    HW117390   4.112   1.125   6.392
 5568SOL    HW217391   4.157   1.124   6.234
 5569SOL     OW17392   4.995   1.797   6.177
 5569SOL    HW117393   5.039   1.861   6.113
 5569SOL    HW217394   4.945   1.849   6.247
 5570SOL     OW17395   4.756   0.549   5.602
 5570SOL    HW117396   4.715   0.631   5.563
 5570SOL    HW217397   4.820   0.575   5.675
 5571SOL     OW17398   3.802   0.556   6.972
 5571SOL    HW117399   3.894   0.555   6.931
 5571SOL    HW217400   3.796   0.630   7.039
 5572SOL     OW17401   4.285   0.222   6.733
 5572SOL    HW117402   4.323   0.138   6.770
 5572SOL    HW217403   4.197   0.241   6.777
 5573SOL     OW17404   4.590   0.454   6.228
 5573SOL    HW117405   4.558   0.526   6.166
 5573SOL    HW217406   4.614   0.373   6.175
 5574SOL     OW17407   4.741   0.039   6.339
 5574SOL    HW117408   4.669   0.044   6.270
 5574SOL    HW217409   4.717  -0.030   6.408
 5575SOL     OW17410   5.153   1.173   6.453
 5575SOL    HW117411   5.098   1.089   6.446
 5575SOL    HW217412   5.179   1.202   6.361
 5576SOL     OW17413   4.212   1.385   5.760
 5576SOL    HW117414   4.125   1.370   5.807
 5576SOL    HW217415   4.195   1.411   5.665
 5577SOL     OW17416   5.114   0.575   5.664
 5577SOL    HW117417   5.060   0.554   5.745
 5577SOL    HW217418   5.205   0.534   5.673
 5578SOL     OW17419   4.251   0.256   5.914
 5578SOL    HW117420   4.278   0.197   5.839
 5578SOL    HW217421   4.251   0.351   5.883
 5579SOL     OW17422   4.788   1.347   6.926
 5579SOL    HW117423   4.708   1.324   6.981
 5579SOL    HW217424   4.871   1.321   6.975
 5580SOL     OW17425   5.316   1.629   7.211
 5580SOL    HW117426   5.343   1.663   7.121
 5580SOL    HW217427   5.395   1.591   7.257
 5581SOL     OW17428   4.835   1.195   6.686
 5581SOL    HW117429   4.795   1.239   6.767
 5581SOL    HW217430   4.794   1.232   6.603
 5582SOL     OW17431   4.639   0.089   6.988
 5582SOL    HW117432   4.664   0.069   6.893
 5582SOL    HW217433   4.711   0.145   7.030
 5583SOL     OW17434   4.704   1.116   7.305
 5583SOL    HW117435   4.605   1.122   7.315
 5583SOL    HW217436   4.727   1.036   7.249
 5584SOL     OW17437   4.429   1.050   5.954
 5584SOL    HW117438   4.415   1.057   6.053
 5584SOL    HW217439   4.513   0.999   5.936
 5585SOL     OW17440   4.134   0.813   6.837
 5585SOL    HW117441   4.220   0.825   6.887
 5585SOL    HW217442   4.092   0.726   6.864
 5586SOL     OW17443   4.998   0.386   6.848
 5586SOL    HW117444   5.019   0.460   6.912
 5586SOL    HW217445   4.909   0.403   6.805
 5587SOL     OW17446   3.788   1.564   6.917
 5587SOL    HW117447   3.742   1.646   6.883
 5587SOL    HW217448   3.886   1.583   6.926
 5588SOL     OW17449   4.091   1.100   6.087
 5588SOL    HW117450   4.084   1.183   6.031
 5588SOL    HW217451   4.095   1.020   6.027
 5589SOL     OW17452   4.290   0.537   6.451
 5589SOL    HW117453   4.302   0.603   6.377
 5589SOL    HW217454   4.336   0.571   6.534
 5590SOL     OW17455   4.976   1.348   5.974
 5590SOL    HW117456   5.026   1.425   6.014
 5590SOL    HW217457   4.881   1.350   6.006
 5591SOL     OW17458   4.996   1.445   6.728
 5591SOL    HW117459   5.043   1.458   6.815
 5591SOL    HW217460   4.930   1.371   6.737
 5592SOL     OW17461   4.078   1.510   6.915
 5592SOL    HW117462   4.057   1.466   6.828
 5592SOL    HW217463   4.175   1.536   6.918
 5593SOL     OW17464   4.126   0.751   7.184
 5593SOL    HW117465   4.194   0.806   7.137
 5593SOL    HW217466   4.166   0.663   7.211
 5594SOL     OW17467   4.737   0.105   7.356
 5594SOL    HW117468   4.743   0.190   7.304
 5594SOL    HW217469   4.769   0.029   7.299
 5595SOL     OW17470   4.228   0.050   7.326
 5595SOL    HW117471   4.186  -0.007   7.256
 5595SOL    HW217472   4.162   0.119   7.358
 5596SOL     OW17473   4.297   0.870   6.615
 5596SOL    HW117474   4.341   0.959   6.606
 5596SOL    HW217475   4.234   0.870   6.692
 5597SOL     OW17476   5.084   0.862   6.631
 5597SOL    HW117477   5.009   0.862   6.565
 5597SOL    HW217478   5.121   0.770   6.640
 5598SOL     OW17479   4.933   0.525   5.861
 5598SOL    HW117480   4.946   0.441   5.915
 5598SOL    HW217481   4.904   0.599   5.921
 5599SOL     OW17482   4.031   0.213   6.817
 5599SOL    HW117483   4.008   0.250   6.907
 5599SOL    HW217484   4.001   0.118   6.811
 5600SOL     OW17485   3.761   1.310   6.868
 5600SOL    HW117486   3.814   1.261   6.936
 5600SOL    HW217487   3.783   1.408   6.873
 5601SOL     OW17488   4.456   0.634   6.650
 5601SOL    HW117489   4.515   0.608   6.574
 5601SOL    HW217490   4.428   0.730   6.639
 5602SOL     OW17491   4.031   0.063   6.204
 5602SOL    HW117492   4.020   0.157   6.237
 5602SOL    HW217493   4.026   0.000   6.281
 5603SOL     OW17494   5.346   0.367   5.960
 5603SOL    HW117495   5.348   0.291   6.024
 5603SOL    HW217496   5.298   0.444   6.000
 5604SOL     OW17497   4.747   0.766   6.552
 5604SOL    HW117498   4.762   0.787   6.648
 5604SOL    HW217499   4.717   0.671   6.543
 5605SOL     OW17500   4.704   1.573   7.286
 5605SOL    HW117501   4.684   1.617   7.198
 5605SOL    HW217502   4.743   1.482   7.270
 5606SOL     OW17503   4.074   0.898   7.390
 5606SOL    HW117504   4.150   0.942   7.438
 5606SOL    HW217505   4.109   0.851   7.308
 5607SOL     OW17506   5.027   0.838   5.628
 5607SOL    HW117507   5.061   0.745   5.643
 5607SOL    HW217508   5.045   0.865   5.533
 5608SOL     OW17509   4.792   1.333   6.435
 5608SOL    HW117510   4.799   1.249   6.380
 5608SOL    HW217511   4.854   1.402   6.399
 5609SOL     OW17512   4.043   0.810   6.535
 5609SOL    HW117513   4.136   0.846   6.540
 5609SOL    HW217514   4.037   0.725   6.587
 5610SOL     OW17515   4.063   0.509   6.592
 5610SOL    HW117516   4.011   0.426   6.575
 5610SOL    HW217517   4.140   0.514   6.528
 5611SOL     OW17518   4.862   0.380   7.264
 5611SOL    HW117519   4.817   0.443   7.328
 5611SOL    HW217520   4.955   0.411   7.247
 5612SOL     OW17521   4.884   0.207   7.063
 5612SOL    HW117522   4.884   0.271   7.140
 5612SOL    HW217523   4.912   0.255   6.980
 5613SOL     OW17524   3.732   1.326   5.786
 5613SOL    HW117525   3.639   1.347   5.755
 5613SOL    HW217526   3.742   1.227   5.799
 5614SOL     OW17527   3.812   1.801   6.513
 5614SOL    HW117528   3.770   1.715   6.486
 5614SOL    HW217529   3.906   1.804   6.479
 5615SOL     OW17530   4.228   1.568   6.496
 5615SOL    HW117531   4.294   1.642   6.505
 5615SOL    HW217532   4.272   1.489   6.454
 5616SOL     OW17533   4.726   0.796   6.824
 5616SOL    HW117534   4.767   0.764   6.910
 5616SOL    HW217535   4.630   0.769   6.821
 5617SOL     OW17536   3.764   0.544   6.700
 5617SOL    HW117537   3.849   0.511   6.659
 5617SOL    HW217538   3.777   0.559   6.798
 5618SOL     OW17539   3.913   0.520   7.308
 5618SOL    HW117540   3.972   0.480   7.238
 5618SOL    HW217541   3.855   0.591   7.267
 5619SOL     OW17542   5.093   0.950   7.246
 5619SOL    HW117543   5.132   1.039   7.266
 5619SOL    HW217544   5.103   0.930   7.149
 5620SOL     OW17545   4.539   0.572   5.911
 5620SOL    HW117546   4.546   0.483   5.865
 5620SOL    HW217547   4.445   0.606   5.903
 5621SOL     OW17548   3.976   1.564   7.330
 5621SOL    HW117549   3.946   1.621   7.406
 5621SOL    HW217550   3.969   1.467   7.356
 5622SOL     OW17551   4.395   0.464   6.855
 5622SOL    HW117552   4.361   0.375   6.825
 5622SOL    HW217553   4.421   0.518   6.775
 5623SOL     OW17554   4.654   1.678   7.051
 5623SOL    HW117555   4.630   1.660   6.956
 5623SOL    HW217556   4.684   1.772   7.061
 5624SOL     OW17557   4.197   0.500   5.777
 5624SOL    HW117558   4.258   0.580   5.781
 5624SOL    HW217559   4.102   0.531   5.784
 5625SOL     OW17560   3.883   1.137   7.052
 5625SOL    HW117561   3.905   1.076   7.128
 5625SOL    HW217562   3.893   1.088   6.966
 5626SOL     OW17563   5.071   1.059   6.820
 5626SOL    HW117564   5.095   0.996   6.746
 5626SOL    HW217565   4.981   1.099   6.802
 5627SOL     OW17566   5.026   0.855   5.895
 5627SOL    HW117567   4.940   0.824   5.937
 5627SOL    HW217568   5.022   0.841   5.796
 5628SOL     OW17569   4.976   1.731   6.714
 5628SOL    HW117570   5.060   1.736   6.660
 5628SOL    HW217571   4.953   1.635   6.732
 5629SOL     OW17572   3.807   1.258   6.608
 5629SOL    HW117573   3.802   1.257   6.708
 5629SOL    HW217574   3.724   1.217   6.570
 5630SOL     OW17575   4.412   1.662   7.302
 5630SOL    HW117576   4.356   1.743   7.311
 5630SOL    HW217577   4.464   1.666   7.216
 5631SOL     OW17578   5.112   1.573   6.063
 5631SOL    HW117579   5.179   1.585   5.989
 5631SOL    HW217580   5.072   1.662   6.086
 5632SOL     OW17581   3.854   1.794   7.437
 5632SOL    HW117582   3.813   1.720   7.490
 5632SOL    HW217583   3.918   1.845   7.495
 5633SOL     OW17584   5.004   0.927   6.258
 5633SOL    HW117585   5.064   0.846   6.260
 5633SOL    HW217586   5.044   0.996   6.198
 5634SOL     OW17587   4.554   1.273   7.008
 5634SOL    HW117588   4.549   1.306   7.103
 5634SOL    HW217589   4.468   1.292   6.962
 5635SOL     OW17590   4.396   1.616   5.740
 5635SOL    HW117591   4.405   1.626   5.641
 5635SOL    HW217592   4.356   1.527   5.761
 5636SOL     OW17593   3.987   0.326   6.306
 5636SOL    HW117594   3.908   0.377   6.272
 5636SOL    HW217595   3.978   0.311   6.404
 5637SOL     OW17596   4.918   1.612   5.617
 5637SOL    HW117597   4.924   1.519   5.654
 5637SOL    HW217598   4.859   1.612   5.537
 5638SOL     OW17599   4.546   1.002   6.958
 5638SOL    HW117600   4.586   1.001   6.866
 5638SOL    HW217601   4.556   1.094   6.998
 5639SOL     OW17602   4.640   0.910   5.877
 5639SOL    HW117603   4.703   0.948   5.809
 5639SOL    HW217604   4.680   0.827   5.916
 5640SOL     OW17605   4.096   1.288   7.076
 5640SOL    HW117606   4.083   1.381   7.042
 5640SOL    HW217607   4.012   1.236   7.063
 5641SOL     OW17608   4.763   1.098   6.282
 5641SOL    HW117609   4.693   1.051   6.336
 5641SOL    HW217610   4.822   1.030   6.239
 5642SOL     OW17611   4.738   0.236   6.557
 5642SOL    HW117612   4.730   0.200   6.464
 5642SOL    HW217613   4.736   0.160   6.622
 5643SOL     OW17614   4.314   1.487   6.077
 5643SOL    HW117615   4.356   1.429   6.007
 5643SOL    HW217616   4.270   1.566   6.033
 5644SOL     OW17617   3.979   1.348   5.876
 5644SOL    HW117618   3.883   1.349   5.849
 5644SOL    HW217619   3.991   1.401   5.960
 5645SOL     OW17620   3.829   1.013   7.312
 5645SOL    HW117621   3.752   0.980   7.366
 5645SOL    HW217622   3.914   0.983   7.354
 5646SOL     OW17623   4.396   0.203   7.075
 5646SOL    HW117624   4.486   0.187   7.035
 5646SOL    HW217625   4.404   0.208   7.174
 5647SOL     OW17626   3.799   0.345   5.619
 5647SOL    HW117627   3.707   0.317   5.590
 5647SOL    HW217628   3.830   0.422   5.563
 5648SOL     OW17629   5.164   0.856   6.984
 5648SOL    HW117630   5.107   0.908   6.921
 5648SOL    HW217631   5.260   0.868   6.960
 5649SOL     OW17632   3.796   0.166   5.904
 5649SOL    HW117633   3.779   0.249   5.850
 5649SOL    HW217634   3.886   0.129   5.882
 5650SOL     OW17635   4.907   1.335   5.705
 5650SOL    HW117636   4.808   1.324   5.707
 5650SOL    HW217637   4.941   1.350   5.798
 5651SOL     OW17638   4.337   0.842   7.017
 5651SOL    HW117639   4.393   0.923   7.000
 5651SOL    HW217640   4.396   0.762   7.020
 5652SOL     OW17641   4.440   0.565   7.294
 5652SOL    HW117642   4.459   0.630   7.368
 5652SOL    HW217643   4.500   0.485   7.303
 5653SOL     OW17644   5.174   1.220   7.219
 5653SOL    HW117645   5.165   1.210   7.318
 5653SOL    HW217646   5.270   1.213   7.193
 5654SOL     OW17647   4.114   1.741   7.146
 5654SOL    HW117648   4.023   1.782   7.144
 5654SOL    HW217649   4.107   1.647   7.178
 5655SOL     OW17650   4.949   0.325   6.035
 5655SOL    HW117651   5.014   0.251   6.024
 5655SOL    HW217652   4.969   0.375   6.119
 5656SOL     OW17653   4.318   0.745   6.238
 5656SOL    HW117654   4.368   0.830   6.219
 5656SOL    HW217655   4.230   0.747   6.190
 5657SOL     OW17656   4.583   1.374   5.602
 5657SOL    HW117657   4.537   1.389   5.690
 5657SOL    HW217658   4.627   1.459   5.572
 5658SOL     OW17659   4.385   1.790   6.539
 5658SOL    HW117660   4.339   1.878   6.526
 5658SOL    HW217661   4.484   1.802   6.532
 5659SOL     OW17662   4.583   0.956   6.447
 5659SOL    HW117663   4.637   0.887   6.495
 5659SOL    HW217664   4.551   1.025   6.513
 5660SOL     OW17665   4.807   0.984   5.673
 5660SOL    HW117666   4.784   1.037   5.591
 5660SOL    HW217667   4.888   0.928   5.654
 5661SOL     OW17668   3.945   1.314   7.430
 5661SOL    HW117669   3.880   1.241   7.409
 5661SOL    HW217670   3.949   1.328   7.528
 5662SOL     OW17671   3.803   1.240   6.239
 5662SOL    HW117672   3.802   1.193   6.327
 5662SOL    HW217673   3.885   1.212   6.188
 5663SOL     OW17674   4.396   1.391   7.210
 5663SOL    HW117675   4.318   1.341   7.248
 5663SOL    HW217676   4.393   1.486   7.241
 5664SOL     OW17677   4.152   0.424   6.106
 5664SOL    HW117678   4.182   0.352   6.044
 5664SOL    HW217679   4.113   0.384   6.189
 5665SOL     OW17680   5.429   1.487   6.690
 5665SOL    HW117681   5.336   1.462   6.663
 5665SOL    HW217682   5.455   1.437   6.772
 5666SOL     OW17683   4.041   0.547   6.866
 5666SOL    HW117684   4.079   0.488   6.938
 5666SOL    HW217685   4.081   0.521   6.778
 5667SOL     OW17686   4.536   1.586   6.273
 5667SOL    HW117687   4.568   1.596   6.179
 5667SOL    HW217688   4.457   1.524   6.275
 5668SOL     OW17689   5.148   0.214   6.698
 5668SOL    HW117690   5.200   0.149   6.753
 5668SOL    HW217691   5.099   0.277   6.759
 5669SOL     OW17692   4.725   0.034   6.740
 5669SOL    HW117693   4.662  -0.038   6.709
 5669SOL    HW217694   4.818  -0.002   6.740
 5670SOL     OW17695   4.494   1.330   5.887
 5670SOL    HW117696   4.448   1.243   5.904
 5670SOL    HW217697   4.585   1.327   5.928
 5671SOL     OW17698   4.342   1.567   6.870
 5671SOL    HW117699   4.337   1.649   6.927
 5671SOL    HW217700   4.431   1.564   6.825
 5672SOL     OW17701   5.076   0.052   5.754
 5672SOL    HW117702   5.111   0.011   5.670
 5672SOL    HW217703   4.986   0.014   5.774
 5673SOL     OW17704   5.024   0.453   6.277
 5673SOL    HW117705   4.965   0.533   6.281
 5673SOL    HW217706   5.039   0.418   6.370
 5674SOL     OW17707   5.317   0.221   6.468
 5674SOL    HW117708   5.233   0.220   6.522
 5674SOL    HW217709   5.319   0.304   6.412
 5675SOL     OW17710   3.763   1.077   5.886
 5675SOL    HW117711   3.862   1.066   5.877
 5675SOL    HW217712   3.723   0.991   5.918
 5676SOL     OW17713   4.599   1.646   5.923
 5676SOL    HW117714   4.522   1.611   5.869
 5676SOL    HW217715   4.567   1.717   5.985
 5677SOL     OW17716   3.954   0.628   7.561
 5677SOL    HW117717   3.861   0.626   7.598
 5677SOL    HW217718   3.955   0.589   7.469
 5678SOL     OW17719   3.955   1.713   7.931
 5678SOL    HW117720   3.989   1.790   7.985
 5678SOL    HW217721   3.999   1.713   7.841
 5679SOL     OW17722   3.954   1.434   7.986
 5679SOL    HW117723   3.928   1.530   7.986
 5679SOL    HW217724   3.883   1.380   8.031
 5680SOL     OW17725   4.330   0.964   7.571
 5680SOL    HW117726   4.337   1.048   7.517
 5680SOL    HW217727   4.376   0.977   7.659
 5681SOL     OW17728   3.751   1.596   7.565
 5681SOL    HW117729   3.732   1.500   7.586
 5681SOL    HW217730   3.718   1.654   7.640
 5682SOL     OW17731   5.413   0.922   8.060
 5682SOL    HW117732   5.508   0.893   8.068
 5682SOL    HW217733   5.405   0.987   7.985
 5683SOL     OW17734   4.533   0.004   7.950
 5683SOL    HW117735   4.573   0.095   7.941
 5683SOL    HW217736   4.433   0.012   7.956
 5684SOL     OW17737   4.322   0.729   7.718
 5684SOL    HW117738   4.346   0.798   7.650
 5684SOL    HW217739   4.244   0.762   7.772
 5685SOL     OW17740   3.800   0.811   8.237
 5685SOL    HW117741   3.899   0.799   8.246
 5685SOL    HW217742   3.776   0.906   8.258
 5686SOL     OW17743   4.589   0.348   7.643
 5686SOL    HW117744   4.648   0.411   7.594
 5686SOL    HW217745   4.608   0.254   7.614
 5687SOL     OW17746   4.045   0.943   7.690
 5687SOL    HW117747   4.127   0.982   7.648
 5687SOL    HW217748   4.018   0.861   7.641
 5688SOL     OW17749   4.835   1.776   7.685
 5688SOL    HW117750   4.775   1.714   7.735
 5688SOL    HW217751   4.866   1.732   7.600
 5689SOL     OW17752   4.188   1.743   7.771
 5689SOL    HW117753   4.221   1.782   7.857
 5689SOL    HW217754   4.264   1.736   7.706
 5690SOL     OW17755   5.124   0.107   7.874
 5690SOL    HW117756   5.100   0.070   7.784
 5690SOL    HW217757   5.223   0.123   7.878
 5691SOL     OW17758   4.106   0.700   7.928
 5691SOL    HW117759   4.151   0.610   7.925
 5691SOL    HW217760   4.012   0.689   7.961
 5692SOL     OW17761   4.338   0.122   7.565
 5692SOL    HW117762   4.436   0.100   7.572
 5692SOL    HW217763   4.307   0.105   7.472
 5693SOL     OW17764   4.263   0.064   7.960
 5693SOL    HW117765   4.182   0.065   8.018
 5693SOL    HW217766   4.266   0.147   7.905
 5694SOL     OW17767   5.158   1.188   7.489
 5694SOL    HW117768   5.190   1.112   7.546
 5694SOL    HW217769   5.066   1.215   7.519
 5695SOL     OW17770   4.021   0.035   7.619
 5695SOL    HW117771   4.070   0.119   7.598
 5695SOL    HW217772   4.083  -0.030   7.664
 5696SOL     OW17773   4.659   0.236   7.928
 5696SOL    HW117774   4.611   0.277   7.850
 5696SOL    HW217775   4.758   0.234   7.909
 5697SOL     OW17776   4.183   1.152   8.189
 5697SOL    HW117777   4.112   1.125   8.254
 5697SOL    HW217778   4.157   1.124   8.096
 5698SOL     OW17779   4.995   1.797   8.039
 5698SOL    HW117780   5.039   1.861   7.975
 5698SOL    HW217781   4.945   1.849   8.109
 5699SOL     OW17782   4.756   0.549   7.464
 5699SOL    HW117783   4.715   0.631   7.425
 5699SOL    HW217784   4.820   0.575   7.537
 5700SOL     OW17785   4.212   1.385   7.622
 5700SOL    HW117786   4.125   1.370   7.669
 5700SOL    HW217787   4.195   1.411   7.527
 5701SOL     OW17788   5.114   0.575   7.526
 5701SOL    HW117789   5.060   0.554   7.607
 5701SOL    HW217790   5.205   0.534   7.535
 5702SOL     OW17791   4.251   0.256   7.776
 5702SOL    HW117792   4.278   0.197   7.701
 5702SOL    HW217793   4.251   0.351   7.745
 5703SOL     OW17794   4.429   1.050   7.816
 5703SOL    HW117795   4.415   1.057   7.915
 5703SOL    HW217796   4.513   0.999   7.798
 5704SOL     OW17797   4.091   1.100   7.949
 5704SOL    HW117798   4.084   1.183   7.893
 5704SOL    HW217799   4.095   1.020   7.889
 5705SOL     OW17800   4.976   1.348   7.836
 5705SOL    HW117801   5.026   1.425   7.876
 5705SOL    HW217802   4.881   1.350   7.868
 5706SOL     OW17803   5.306   0.639   7.920
 5706SOL    HW117804   5.275   0.700   7.993
 5706SOL    HW217805   5.356   0.691   7.851
 5707SOL     OW17806   4.933   0.525   7.723
 5707SOL    HW117807   4.946   0.441   7.777
 5707SOL    HW217808   4.904   0.599   7.783
 5708SOL     OW17809   5.346   0.367   7.822
 5708SOL    HW117810   5.348   0.291   7.886
 5708SOL    HW217811   5.298   0.444   7.862
 5709SOL     OW17812   5.027   0.838   7.490
 5709SOL    HW117813   5.061   0.745   7.505
 5709SOL    HW217814   5.045   0.865   7.395
 5710SOL     OW17815   3.732   1.326   7.648
 5710SOL    HW117816   3.639   1.347   7.617
 5710SOL    HW217817   3.742   1.227   7.661
 5711SOL     OW17818   4.539   0.572   7.773
 5711SOL    HW117819   4.546   0.483   7.727
 5711SOL    HW217820   4.445   0.606   7.765
 5712SOL     OW17821   4.197   0.500   7.639
 5712SOL    HW117822   4.258   0.580   7.643
 5712SOL    HW217823   4.102   0.531   7.646
 5713SOL     OW17824   5.026   0.855   7.757
 5713SOL    HW117825   4.940   0.824   7.799
 5713SOL    HW217826   5.022   0.841   7.658
 5714SOL     OW17827   5.112   1.573   7.925
 5714SOL    HW117828   5.179   1.585   7.851
 5714SOL    HW217829   5.072   1.662   7.948
 5715SOL     OW17830   4.396   1.616   7.602
 5715SOL    HW117831   4.405   1.626   7.503
 5715SOL    HW217832   4.356   1.527   7.623
 5716SOL     OW17833   4.918   1.612   7.479
 5716SOL    HW117834   4.924   1.519   7.516
 5716SOL    HW217835   4.859   1.612   7.399
 5717SOL     OW17836   4.640   0.910   7.739
 5717SOL    HW117837   4.703   0.948   7.671
 5717SOL    HW217838   4.680   0.827   7.778
 5718SOL     OW17839   4.314   1.487   7.939
 5718SOL    HW117840   4.356   1.429   7.869
 5718SOL    HW217841   4.270   1.566   7.895
 5719SOL     OW17842   3.979   1.348   7.738
 5719SOL    HW117843   3.883   1.349   7.711
 5719SOL    HW217844   3.991   1.401   7.822
 5720SOL     OW17845   3.799   0.345   7.481
 5720SOL    HW117846   3.707   0.317   7.452
 5720SOL    HW217847   3.830   0.422   7.425
 5721SOL     OW17848   3.796   0.166   7.766
 5721SOL    HW117849   3.779   0.249   7.712
 5721SOL    HW217850   3.886   0.129   7.744
 5722SOL     OW17851   4.907   1.335   7.567
 5722SOL    HW117852   4.808   1.324   7.569
 5722SOL    HW217853   4.941   1.350   7.660
 5723SOL     OW17854   5.217   1.767   8.407
 5723SOL    HW117855   5.250   1.831   8.338
 5723SOL    HW217856   5.283   1.761   8.482
 5724SOL     OW17857   4.949   0.325   7.897
 5724SOL    HW117858   5.014   0.251   7.886
 5724SOL    HW217859   4.969   0.375   7.981
 5725SOL     OW17860   4.318   0.745   8.100
 5725SOL    HW117861   4.368   0.830   8.081
 5725SOL    HW217862   4.230   0.747   8.052
 5726SOL     OW17863   4.583   1.374   7.464
 5726SOL    HW117864   4.537   1.389   7.552
 5726SOL    HW217865   4.627   1.459   7.434
 5727SOL     OW17866   4.807   0.984   7.535
 5727SOL    HW117867   4.784   1.037   7.453
 5727SOL    HW217868   4.888   0.928   7.516
 5728SOL     OW17869   4.152   0.424   7.968
 5728SOL    HW117870   4.182   0.352   7.906
 5728SOL    HW217871   4.113   0.384   8.051
 5729SOL     OW17872   4.494   1.330   7.749
 5729SOL    HW117873   4.448   1.243   7.766
 5729SOL    HW217874   4.585   1.327   7.790
 5730SOL     OW17875   5.076   0.052   7.616
 5730SOL    HW117876   5.111   0.011   7.532
 5730SOL    HW217877   4.986   0.014   7.636
 5731SOL     OW17878   3.763   1.077   7.748
 5731SOL    HW117879   3.862   1.066   7.739
 5731SOL    HW217880   3.723   0.991   7.780
 5732SOL     OW17881   4.599   1.646   7.785
 5732SOL    HW117882   4.522   1.611   7.731
 5732SOL    HW217883   4.567   1.717   7.847
 5733SOL     OW17884   3.954   2.490   0.113
 5733SOL    HW117885   3.861   2.488   0.150
 5733SOL    HW217886   3.955   2.451   0.021
 5734SOL     OW17887   3.949   2.137   0.996
 5734SOL    HW117888   3.984   2.120   1.088
 5734SOL    HW217889   3.861   2.092   0.984
 5735SOL     OW17890   3.743   2.230   0.647
 5735SOL    HW117891   3.661   2.273   0.686
 5735SOL    HW217892   3.715   2.157   0.584
 5736SOL     OW17893   4.293   3.137   1.165
 5736SOL    HW117894   4.200   3.130   1.128
 5736SOL    HW217895   4.304   3.226   1.209
 5737SOL     OW17896   5.279   3.373   0.703
 5737SOL    HW117897   5.222   3.357   0.784
 5737SOL    HW217898   5.220   3.383   0.623
 5738SOL     OW17899   4.859   2.565   0.717
 5738SOL    HW117900   4.916   2.643   0.692
 5738SOL    HW217901   4.799   2.591   0.793
 5739SOL     OW17902   4.492   3.006   1.023
 5739SOL    HW117903   4.414   3.023   1.083
 5739SOL    HW217904   4.526   3.093   0.987
 5740SOL     OW17905   4.574   2.660   1.823
 5740SOL    HW117906   4.570   2.736   1.888
 5740SOL    HW217907   4.596   2.696   1.732
 5741SOL     OW17908   4.409   2.874   0.665
 5741SOL    HW117909   4.478   2.858   0.735
 5741SOL    HW217910   4.336   2.931   0.703
 5742SOL     OW17911   4.410   3.023   1.803
 5742SOL    HW117912   4.470   3.102   1.817
 5742SOL    HW217913   4.324   3.054   1.762
 5743SOL     OW17914   4.059   3.297   1.061
 5743SOL    HW117915   3.981   3.266   1.008
 5743SOL    HW217916   4.117   3.355   1.004
 5744SOL     OW17917   5.184   3.367   1.339
 5744SOL    HW117918   5.208   3.461   1.365
 5744SOL    HW217919   5.168   3.313   1.421
 5745SOL     OW17920   4.162   2.254   1.499
 5745SOL    HW117921   4.244   2.198   1.508
 5745SOL    HW217922   4.081   2.196   1.503
 5746SOL     OW17923   3.955   3.575   0.483
 5746SOL    HW117924   3.989   3.652   0.537
 5746SOL    HW217925   3.999   3.575   0.393
 5747SOL     OW17926   4.851   3.203   1.690
 5747SOL    HW117927   4.898   3.203   1.778
 5747SOL    HW217928   4.803   3.116   1.679
 5748SOL     OW17929   3.954   3.296   0.538
 5748SOL    HW117930   3.928   3.392   0.538
 5748SOL    HW217931   3.883   3.242   0.583
 5749SOL     OW17932   3.964   2.953   0.886
 5749SOL    HW117933   3.978   2.869   0.938
 5749SOL    HW217934   3.909   3.017   0.941
 5750SOL     OW17935   4.344   3.648   1.439
 5750SOL    HW117936   4.252   3.631   1.474
 5750SOL    HW217937   4.372   3.740   1.465
 5751SOL     OW17938   4.330   2.826   0.123
 5751SOL    HW117939   4.337   2.910   0.069
 5751SOL    HW217940   4.376   2.839   0.211
 5752SOL     OW17941   3.846   2.505   0.563
 5752SOL    HW117942   3.801   2.417   0.580
 5752SOL    HW217943   3.845   2.559   0.647
 5753SOL     OW17944   3.751   3.458   0.117
 5753SOL    HW117945   3.732   3.362   0.138
 5753SOL    HW217946   3.718   3.516   0.192
 5754SOL     OW17947   5.413   2.784   0.612
 5754SOL    HW117948   5.508   2.755   0.620
 5754SOL    HW217949   5.405   2.849   0.537
 5755SOL     OW17950   3.837   2.599   1.597
 5755SOL    HW117951   3.925   2.586   1.642
 5755SOL    HW217952   3.824   2.696   1.575
 5756SOL     OW17953   4.337   3.227   0.726
 5756SOL    HW117954   4.288   3.140   0.735
 5756SOL    HW217955   4.314   3.270   0.639
 5757SOL     OW17956   5.017   3.090   1.423
 5757SOL    HW117957   5.054   3.017   1.365
 5757SOL    HW217958   5.069   3.095   1.508
 5758SOL     OW17959   4.533   1.866   0.502
 5758SOL    HW117960   4.573   1.957   0.493
 5758SOL    HW217961   4.433   1.874   0.508
 5759SOL     OW17962   3.921   2.838   1.264
 5759SOL    HW117963   4.010   2.793   1.250
 5759SOL    HW217964   3.848   2.773   1.245
 5760SOL     OW17965   4.911   3.654   1.616
 5760SOL    HW117966   4.935   3.714   1.540
 5760SOL    HW217967   4.918   3.559   1.586
 5761SOL     OW17968   4.041   2.113   1.801
 5761SOL    HW117969   4.112   2.184   1.807
 5761SOL    HW217970   3.953   2.152   1.829
 5762SOL     OW17971   5.190   3.279   0.953
 5762SOL    HW117972   5.131   3.285   1.033
 5762SOL    HW217973   5.175   3.191   0.907
 5763SOL     OW17974   4.322   2.591   0.270
 5763SOL    HW117975   4.346   2.660   0.202
 5763SOL    HW217976   4.244   2.624   0.324
 5764SOL     OW17977   5.005   2.207   0.944
 5764SOL    HW117978   4.919   2.157   0.931
 5764SOL    HW217979   5.067   2.153   1.000
 5765SOL     OW17980   4.531   2.467   1.465
 5765SOL    HW117981   4.484   2.464   1.554
 5765SOL    HW217982   4.480   2.412   1.399
 5766SOL     OW17983   5.118   2.331   1.674
 5766SOL    HW117984   5.098   2.374   1.762
 5766SOL    HW217985   5.196   2.269   1.683
 5767SOL     OW17986   4.697   2.752   1.572
 5767SOL    HW117987   4.743   2.668   1.543
 5767SOL    HW217988   4.641   2.786   1.497
 5768SOL     OW17989   4.715   2.272   1.242
 5768SOL    HW117990   4.638   2.306   1.296
 5768SOL    HW217991   4.681   2.221   1.163
 5769SOL     OW17992   4.765   2.563   0.429
 5769SOL    HW117993   4.791   2.559   0.525
 5769SOL    HW217994   4.680   2.512   0.415
 5770SOL     OW17995   3.800   2.673   0.789
 5770SOL    HW117996   3.899   2.661   0.798
 5770SOL    HW217997   3.776   2.768   0.810
 5771SOL     OW17998   3.854   3.683   1.571
 5771SOL    HW117999   3.844   3.668   1.670
 5771SOL    HW218000   3.768   3.719   1.535
 5772SOL     OW18001   4.589   2.210   0.195
 5772SOL    HW118002   4.648   2.273   0.146
 5772SOL    HW218003   4.608   2.116   0.166
 5773SOL     OW18004   5.086   3.006   0.545
 5773SOL    HW118005   5.169   2.977   0.497
 5773SOL    HW218006   5.037   3.073   0.489
 5774SOL     OW18007   4.274   2.058   0.885
 5774SOL    HW118008   4.269   2.053   0.985
 5774SOL    HW218009   4.276   2.154   0.856
 5775SOL     OW18010   4.732   3.318   0.477
 5775SOL    HW118011   4.686   3.390   0.425
 5775SOL    HW218012   4.728   3.338   0.575
 5776SOL     OW18013   4.075   3.663   0.853
 5776SOL    HW118014   4.125   3.577   0.859
 5776SOL    HW218015   4.140   3.740   0.850
 5777SOL     OW18016   4.951   3.412   1.506
 5777SOL    HW118017   4.957   3.335   1.570
 5777SOL    HW218018   4.899   3.386   1.426
 5778SOL     OW18019   4.045   2.805   0.242
 5778SOL    HW118020   4.127   2.844   0.200
 5778SOL    HW218021   4.018   2.723   0.193
 5779SOL     OW18022   4.185   3.128   1.727
 5779SOL    HW118023   4.135   3.129   1.641
 5779SOL    HW218024   4.122   3.110   1.803
 5780SOL     OW18025   4.835   3.638   0.237
 5780SOL    HW118026   4.775   3.576   0.287
 5780SOL    HW218027   4.866   3.594   0.152
 5781SOL     OW18028   3.926   2.147   1.498
 5781SOL    HW118029   3.846   2.207   1.485
 5781SOL    HW218030   3.916   2.098   1.584
 5782SOL     OW18031   4.188   3.605   0.323
 5782SOL    HW118032   4.221   3.644   0.409
 5782SOL    HW218033   4.264   3.598   0.258
 5783SOL     OW18034   5.124   1.969   0.426
 5783SOL    HW118035   5.100   1.932   0.336
 5783SOL    HW218036   5.223   1.985   0.430
 5784SOL     OW18037   3.973   3.647   1.241
 5784SOL    HW118038   4.030   3.582   1.291
 5784SOL    HW218039   3.957   3.614   1.148
 5785SOL     OW18040   4.664   3.560   0.904
 5785SOL    HW118041   4.744   3.503   0.925
 5785SOL    HW218042   4.615   3.520   0.827
 5786SOL     OW18043   4.106   2.562   0.480
 5786SOL    HW118044   4.151   2.472   0.477
 5786SOL    HW218045   4.012   2.551   0.513
 5787SOL     OW18046   4.338   1.984   0.117
 5787SOL    HW118047   4.436   1.962   0.124
 5787SOL    HW218048   4.307   1.967   0.024
 5788SOL     OW18049   4.505   2.126   1.749
 5788SOL    HW118050   4.572   2.065   1.792
 5788SOL    HW218051   4.432   2.145   1.814
 5789SOL     OW18052   4.612   3.376   1.195
 5789SOL    HW118053   4.589   3.351   1.101
 5789SOL    HW218054   4.673   3.307   1.234
 5790SOL     OW18055   5.075   2.452   1.433
 5790SOL    HW118056   5.103   2.409   1.518
 5790SOL    HW218057   5.100   2.548   1.434
 5791SOL     OW18058   4.527   3.264   0.924
 5791SOL    HW118059   4.617   3.278   0.882
 5791SOL    HW218060   4.456   3.266   0.853
 5792SOL     OW18061   4.646   2.365   0.899
 5792SOL    HW118062   4.621   2.356   0.803
 5792SOL    HW218063   4.694   2.283   0.930
 5793SOL     OW18064   4.263   1.926   0.512
 5793SOL    HW118065   4.182   1.927   0.570
 5793SOL    HW218066   4.266   2.009   0.457
 5794SOL     OW18067   5.158   3.050   0.041
 5794SOL    HW118068   5.190   2.974   0.098
 5794SOL    HW218069   5.066   3.077   0.071
 5795SOL     OW18070   4.021   1.897   0.171
 5795SOL    HW118071   4.070   1.981   0.150
 5795SOL    HW218072   4.083   1.832   0.216
 5796SOL     OW18073   4.659   2.098   0.480
 5796SOL    HW118074   4.611   2.139   0.402
 5796SOL    HW218075   4.758   2.096   0.461
 5797SOL     OW18076   4.800   2.545   1.464
 5797SOL    HW118077   4.720   2.484   1.467
 5797SOL    HW218078   4.881   2.492   1.440
 5798SOL     OW18079   4.951   3.432   0.793
 5798SOL    HW118080   4.972   3.506   0.728
 5798SOL    HW218081   5.019   3.432   0.866
 5799SOL     OW18082   4.183   3.014   0.741
 5799SOL    HW118083   4.112   2.987   0.806
 5799SOL    HW218084   4.157   2.986   0.648
 5800SOL     OW18085   4.995   3.659   0.591
 5800SOL    HW118086   5.039   3.723   0.527
 5800SOL    HW218087   4.945   3.711   0.661
 5801SOL     OW18088   4.756   2.411   0.016
 5801SOL    HW118089   4.715   2.493  -0.023
 5801SOL    HW218090   4.820   2.437   0.089
 5802SOL     OW18091   3.802   2.418   1.386
 5802SOL    HW118092   3.894   2.417   1.345
 5802SOL    HW218093   3.796   2.492   1.453
 5803SOL     OW18094   4.285   2.084   1.147
 5803SOL    HW118095   4.323   2.000   1.184
 5803SOL    HW218096   4.197   2.103   1.191
 5804SOL     OW18097   4.590   2.316   0.642
 5804SOL    HW118098   4.558   2.388   0.580
 5804SOL    HW218099   4.614   2.235   0.589
 5805SOL     OW18100   4.741   1.901   0.753
 5805SOL    HW118101   4.669   1.906   0.684
 5805SOL    HW218102   4.717   1.832   0.822
 5806SOL     OW18103   5.153   3.035   0.867
 5806SOL    HW118104   5.098   2.951   0.860
 5806SOL    HW218105   5.179   3.064   0.775
 5807SOL     OW18106   4.212   3.247   0.174
 5807SOL    HW118107   4.125   3.232   0.221
 5807SOL    HW218108   4.195   3.273   0.079
 5808SOL     OW18109   5.114   2.437   0.078
 5808SOL    HW118110   5.060   2.416   0.159
 5808SOL    HW218111   5.205   2.396   0.087
 5809SOL     OW18112   4.251   2.118   0.328
 5809SOL    HW118113   4.278   2.059   0.253
 5809SOL    HW218114   4.251   2.213   0.297
 5810SOL     OW18115   4.788   3.209   1.340
 5810SOL    HW118116   4.708   3.186   1.395
 5810SOL    HW218117   4.871   3.183   1.389
 5811SOL     OW18118   5.316   3.491   1.625
 5811SOL    HW118119   5.343   3.525   1.535
 5811SOL    HW218120   5.395   3.453   1.671
 5812SOL     OW18121   4.835   3.057   1.100
 5812SOL    HW118122   4.795   3.101   1.181
 5812SOL    HW218123   4.794   3.094   1.017
 5813SOL     OW18124   4.639   1.951   1.402
 5813SOL    HW118125   4.664   1.931   1.307
 5813SOL    HW218126   4.711   2.007   1.444
 5814SOL     OW18127   4.704   2.978   1.719
 5814SOL    HW118128   4.605   2.984   1.729
 5814SOL    HW218129   4.727   2.898   1.663
 5815SOL     OW18130   4.429   2.912   0.368
 5815SOL    HW118131   4.415   2.919   0.467
 5815SOL    HW218132   4.513   2.861   0.350
 5816SOL     OW18133   4.134   2.675   1.251
 5816SOL    HW118134   4.220   2.687   1.301
 5816SOL    HW218135   4.092   2.588   1.278
 5817SOL     OW18136   4.998   2.248   1.262
 5817SOL    HW118137   5.019   2.322   1.326
 5817SOL    HW218138   4.909   2.265   1.219
 5818SOL     OW18139   3.788   3.426   1.331
 5818SOL    HW118140   3.742   3.508   1.297
 5818SOL    HW218141   3.886   3.445   1.340
 5819SOL     OW18142   4.091   2.962   0.501
 5819SOL    HW118143   4.084   3.045   0.445
 5819SOL    HW218144   4.095   2.882   0.441
 5820SOL     OW18145   4.290   2.399   0.865
 5820SOL    HW118146   4.302   2.465   0.791
 5820SOL    HW218147   4.336   2.433   0.948
 5821SOL     OW18148   4.976   3.210   0.388
 5821SOL    HW118149   5.026   3.287   0.428
 5821SOL    HW218150   4.881   3.212   0.420
 5822SOL     OW18151   4.996   3.307   1.142
 5822SOL    HW118152   5.043   3.320   1.229
 5822SOL    HW218153   4.930   3.233   1.151
 5823SOL     OW18154   4.078   3.372   1.329
 5823SOL    HW118155   4.057   3.328   1.242
 5823SOL    HW218156   4.175   3.398   1.332
 5824SOL     OW18157   4.126   2.613   1.598
 5824SOL    HW118158   4.194   2.668   1.551
 5824SOL    HW218159   4.166   2.525   1.625
 5825SOL     OW18160   4.737   1.967   1.770
 5825SOL    HW118161   4.743   2.052   1.718
 5825SOL    HW218162   4.769   1.891   1.713
 5826SOL     OW18163   4.228   1.912   1.740
 5826SOL    HW118164   4.186   1.855   1.670
 5826SOL    HW218165   4.162   1.981   1.772
 5827SOL     OW18166   4.297   2.732   1.029
 5827SOL    HW118167   4.341   2.821   1.020
 5827SOL    HW218168   4.234   2.732   1.106
 5828SOL     OW18169   5.084   2.724   1.045
 5828SOL    HW118170   5.009   2.724   0.979
 5828SOL    HW218171   5.121   2.632   1.054
 5829SOL     OW18172   4.933   2.387   0.275
 5829SOL    HW118173   4.946   2.303   0.329
 5829SOL    HW218174   4.904   2.461   0.335
 5830SOL     OW18175   4.031   2.075   1.231
 5830SOL    HW118176   4.008   2.112   1.321
 5830SOL    HW218177   4.001   1.980   1.225
 5831SOL     OW18178   3.761   3.172   1.282
 5831SOL    HW118179   3.814   3.123   1.350
 5831SOL    HW218180   3.783   3.270   1.287
 5832SOL     OW18181   4.456   2.496   1.064
 5832SOL    HW118182   4.515   2.470   0.988
 5832SOL    HW218183   4.428   2.592   1.053
 5833SOL     OW18184   4.031   1.925   0.618
 5833SOL    HW118185   4.020   2.019   0.651
 5833SOL    HW218186   4.026   1.862   0.695
 5834SOL     OW18187   5.346   2.229   0.374
 5834SOL    HW118188   5.348   2.153   0.438
 5834SOL    HW218189   5.298   2.306   0.414
 5835SOL     OW18190   4.747   2.628   0.966
 5835SOL    HW118191   4.762   2.649   1.062
 5835SOL    HW218192   4.717   2.533   0.957
 5836SOL     OW18193   4.704   3.435   1.700
 5836SOL    HW118194   4.684   3.479   1.612
 5836SOL    HW218195   4.743   3.344   1.684
 5837SOL     OW18196   4.074   2.760   1.804
 5837SOL    HW118197   4.150   2.804   1.852
 5837SOL    HW218198   4.109   2.713   1.722
 5838SOL     OW18199   5.027   2.700   0.042
 5838SOL    HW118200   5.061   2.607   0.057
 5838SOL    HW218201   5.045   2.727  -0.053
 5839SOL     OW18202   4.792   3.195   0.849
 5839SOL    HW118203   4.799   3.111   0.794
 5839SOL    HW218204   4.854   3.264   0.813
 5840SOL     OW18205   4.043   2.672   0.949
 5840SOL    HW118206   4.136   2.708   0.954
 5840SOL    HW218207   4.037   2.587   1.001
 5841SOL     OW18208   4.063   2.371   1.006
 5841SOL    HW118209   4.011   2.288   0.989
 5841SOL    HW218210   4.140   2.376   0.942
 5842SOL     OW18211   4.862   2.242   1.678
 5842SOL    HW118212   4.817   2.305   1.742
 5842SOL    HW218213   4.955   2.273   1.661
 5843SOL     OW18214   4.884   2.069   1.477
 5843SOL    HW118215   4.884   2.133   1.554
 5843SOL    HW218216   4.912   2.117   1.394
 5844SOL     OW18217   3.732   3.188   0.200
 5844SOL    HW118218   3.639   3.209   0.169
 5844SOL    HW218219   3.742   3.089   0.213
 5845SOL     OW18220   3.812   3.663   0.927
 5845SOL    HW118221   3.770   3.577   0.900
 5845SOL    HW218222   3.906   3.666   0.893
 5846SOL     OW18223   4.228   3.430   0.910
 5846SOL    HW118224   4.294   3.504   0.919
 5846SOL    HW218225   4.272   3.351   0.868
 5847SOL     OW18226   4.726   2.658   1.238
 5847SOL    HW118227   4.767   2.626   1.324
 5847SOL    HW218228   4.630   2.631   1.235
 5848SOL     OW18229   3.764   2.406   1.114
 5848SOL    HW118230   3.849   2.373   1.073
 5848SOL    HW218231   3.777   2.421   1.212
 5849SOL     OW18232   3.913   2.382   1.722
 5849SOL    HW118233   3.972   2.342   1.652
 5849SOL    HW218234   3.855   2.453   1.681
 5850SOL     OW18235   5.093   2.812   1.660
 5850SOL    HW118236   5.132   2.901   1.680
 5850SOL    HW218237   5.103   2.792   1.563
 5851SOL     OW18238   4.539   2.434   0.325
 5851SOL    HW118239   4.546   2.345   0.279
 5851SOL    HW218240   4.445   2.468   0.317
 5852SOL     OW18241   3.976   3.426   1.744
 5852SOL    HW118242   3.946   3.483   1.820
 5852SOL    HW218243   3.969   3.329   1.770
 5853SOL     OW18244   4.395   2.326   1.269
 5853SOL    HW118245   4.361   2.237   1.239
 5853SOL    HW218246   4.421   2.380   1.189
 5854SOL     OW18247   4.654   3.540   1.465
 5854SOL    HW118248   4.630   3.522   1.370
 5854SOL    HW218249   4.684   3.634   1.475
 5855SOL     OW18250   4.197   2.362   0.191
 5855SOL    HW118251   4.258   2.442   0.195
 5855SOL    HW218252   4.102   2.393   0.198
 5856SOL     OW18253   3.883   2.999   1.466
 5856SOL    HW118254   3.905   2.938   1.542
 5856SOL    HW218255   3.893   2.950   1.380
 5857SOL     OW18256   5.071   2.921   1.234
 5857SOL    HW118257   5.095   2.858   1.160
 5857SOL    HW218258   4.981   2.961   1.216
 5858SOL     OW18259   5.026   2.717   0.309
 5858SOL    HW118260   4.940   2.686   0.351
 5858SOL    HW218261   5.022   2.703   0.210
 5859SOL     OW18262   4.976   3.593   1.128
 5859SOL    HW118263   5.060   3.598   1.074
 5859SOL    HW218264   4.953   3.497   1.146
 5860SOL     OW18265   3.807   3.120   1.022
 5860SOL    HW118266   3.802   3.119   1.122
 5860SOL    HW218267   3.724   3.079   0.984
 5861SOL     OW18268   4.412   3.524   1.716
 5861SOL    HW118269   4.356   3.605   1.725
 5861SOL    HW218270   4.464   3.528   1.630
 5862SOL     OW18271   4.627   1.948   0.133
 5862SOL    HW118272   4.678   1.949   0.047
 5862SOL    HW218273   4.683   1.906   0.204
 5863SOL     OW18274   5.450   1.997   0.523
 5863SOL    HW118275   5.523   1.980   0.456
 5863SOL    HW218276   5.419   1.910   0.561
 5864SOL     OW18277   5.112   3.435   0.477
 5864SOL    HW118278   5.179   3.447   0.403
 5864SOL    HW218279   5.072   3.524   0.500
 5865SOL     OW18280   3.854   3.656   1.851
 5865SOL    HW118281   3.813   3.582   1.904
 5865SOL    HW218282   3.918   3.707   1.909
 5866SOL     OW18283   5.004   2.789   0.672
 5866SOL    HW118284   5.064   2.708   0.674
 5866SOL    HW218285   5.044   2.858   0.612
 5867SOL     OW18286   4.554   3.135   1.422
 5867SOL    HW118287   4.549   3.168   1.517
 5867SOL    HW218288   4.468   3.154   1.376
 5868SOL     OW18289   4.396   3.478   0.154
 5868SOL    HW118290   4.405   3.488   0.055
 5868SOL    HW218291   4.356   3.389   0.175
 5869SOL     OW18292   3.987   2.188   0.720
 5869SOL    HW118293   3.908   2.239   0.686
 5869SOL    HW218294   3.978   2.173   0.818
 5870SOL     OW18295   4.918   3.474   0.031
 5870SOL    HW118296   4.924   3.381   0.068
 5870SOL    HW218297   4.859   3.474  -0.049
 5871SOL     OW18298   4.546   2.864   1.372
 5871SOL    HW118299   4.586   2.863   1.280
 5871SOL    HW218300   4.556   2.956   1.412
 5872SOL     OW18301   4.640   2.772   0.291
 5872SOL    HW118302   4.703   2.810   0.223
 5872SOL    HW218303   4.680   2.689   0.330
 5873SOL     OW18304   4.096   3.150   1.490
 5873SOL    HW118305   4.083   3.243   1.456
 5873SOL    HW218306   4.012   3.098   1.477
 5874SOL     OW18307   4.763   2.960   0.696
 5874SOL    HW118308   4.693   2.913   0.750
 5874SOL    HW218309   4.822   2.892   0.653
 5875SOL     OW18310   4.738   2.098   0.971
 5875SOL    HW118311   4.730   2.062   0.878
 5875SOL    HW218312   4.736   2.022   1.036
 5876SOL     OW18313   4.314   3.349   0.491
 5876SOL    HW118314   4.356   3.291   0.421
 5876SOL    HW218315   4.270   3.428   0.447
 5877SOL     OW18316   3.979   3.210   0.290
 5877SOL    HW118317   3.883   3.211   0.263
 5877SOL    HW218318   3.991   3.263   0.374
 5878SOL     OW18319   3.829   2.875   1.726
 5878SOL    HW118320   3.752   2.842   1.780
 5878SOL    HW218321   3.914   2.845   1.768
 5879SOL     OW18322   4.396   2.065   1.489
 5879SOL    HW118323   4.486   2.049   1.449
 5879SOL    HW218324   4.404   2.070   1.588
 5880SOL     OW18325   3.799   2.207   0.033
 5880SOL    HW118326   3.707   2.179   0.004
 5880SOL    HW218327   3.830   2.284  -0.023
 5881SOL     OW18328   5.164   2.718   1.398
 5881SOL    HW118329   5.107   2.770   1.335
 5881SOL    HW218330   5.260   2.730   1.374
 5882SOL     OW18331   3.796   2.028   0.318
 5882SOL    HW118332   3.779   2.111   0.264
 5882SOL    HW218333   3.886   1.991   0.296
 5883SOL     OW18334   4.907   3.197   0.119
 5883SOL    HW118335   4.808   3.186   0.121
 5883SOL    HW218336   4.941   3.212   0.212
 5884SOL     OW18337   4.337   2.704   1.431
 5884SOL    HW118338   4.393   2.785   1.414
 5884SOL    HW218339   4.396   2.624   1.434
 5885SOL     OW18340   4.440   2.427   1.708
 5885SOL    HW118341   4.459   2.492   1.782
 5885SOL    HW218342   4.500   2.347   1.717
 5886SOL     OW18343   5.174   3.082   1.633
 5886SOL    HW118344   5.165   3.072   1.732
 5886SOL    HW218345   5.270   3.075   1.607
 5887SOL     OW18346   4.114   3.603   1.560
 5887SOL    HW118347   4.023   3.644   1.558
 5887SOL    HW218348   4.107   3.509   1.592
 5888SOL     OW18349   4.949   2.187   0.449
 5888SOL    HW118350   5.014   2.113   0.438
 5888SOL    HW218351   4.969   2.237   0.533
 5889SOL     OW18352   4.318   2.607   0.652
 5889SOL    HW118353   4.368   2.692   0.633
 5889SOL    HW218354   4.230   2.609   0.604
 5890SOL     OW18355   4.583   3.236   0.016
 5890SOL    HW118356   4.537   3.251   0.104
 5890SOL    HW218357   4.627   3.321  -0.014
 5891SOL     OW18358   4.385   3.652   0.953
 5891SOL    HW118359   4.339   3.740   0.940
 5891SOL    HW218360   4.484   3.664   0.946
 5892SOL     OW18361   4.583   2.818   0.861
 5892SOL    HW118362   4.637   2.749   0.909
 5892SOL    HW218363   4.551   2.887   0.927
 5893SOL     OW18364   4.807   2.846   0.087
 5893SOL    HW118365   4.784   2.899   0.005
 5893SOL    HW218366   4.888   2.790   0.068
 5894SOL     OW18367   3.945   3.176   1.844
 5894SOL    HW118368   3.880   3.103   1.823
 5894SOL    HW218369   3.949   3.190   1.942
 5895SOL     OW18370   3.803   3.102   0.653
 5895SOL    HW118371   3.802   3.055   0.741
 5895SOL    HW218372   3.885   3.074   0.602
 5896SOL     OW18373   4.396   3.253   1.624
 5896SOL    HW118374   4.318   3.203   1.662
 5896SOL    HW218375   4.393   3.348   1.655
 5897SOL     OW18376   4.152   2.286   0.520
 5897SOL    HW118377   4.182   2.214   0.458
 5897SOL    HW218378   4.113   2.246   0.603
 5898SOL     OW18379   5.429   3.349   1.104
 5898SOL    HW118380   5.336   3.324   1.077
 5898SOL    HW218381   5.455   3.299   1.186
 5899SOL     OW18382   4.041   2.409   1.280
 5899SOL    HW118383   4.079   2.350   1.352
 5899SOL    HW218384   4.081   2.383   1.192
 5900SOL     OW18385   4.536   3.448   0.687
 5900SOL    HW118386   4.568   3.458   0.593
 5900SOL    HW218387   4.457   3.386   0.689
 5901SOL     OW18388   5.148   2.076   1.112
 5901SOL    HW118389   5.200   2.011   1.167
 5901SOL    HW218390   5.099   2.139   1.173
 5902SOL     OW18391   4.725   1.896   1.154
 5902SOL    HW118392   4.662   1.824   1.123
 5902SOL    HW218393   4.818   1.860   1.154
 5903SOL     OW18394   4.494   3.192   0.301
 5903SOL    HW118395   4.448   3.105   0.318
 5903SOL    HW218396   4.585   3.189   0.342
 5904SOL     OW18397   4.342   3.429   1.284
 5904SOL    HW118398   4.337   3.511   1.341
 5904SOL    HW218399   4.431   3.426   1.239
 5905SOL     OW18400   5.076   1.914   0.168
 5905SOL    HW118401   5.111   1.873   0.084
 5905SOL    HW218402   4.986   1.876   0.188
 5906SOL     OW18403   5.024   2.315   0.691
 5906SOL    HW118404   4.965   2.395   0.695
 5906SOL    HW218405   5.039   2.280   0.784
 5907SOL     OW18406   5.317   2.083   0.882
 5907SOL    HW118407   5.233   2.082   0.936
 5907SOL    HW218408   5.319   2.166   0.826
 5908SOL     OW18409   3.763   2.939   0.300
 5908SOL    HW118410   3.862   2.928   0.291
 5908SOL    HW218411   3.723   2.853   0.332
 5909SOL     OW18412   4.599   3.508   0.337
 5909SOL    HW118413   4.522   3.473   0.283
 5909SOL    HW218414   4.567   3.579   0.399
 5910SOL     OW18415   3.954   2.490   1.975
 5910SOL    HW118416   3.861   2.488   2.012
 5910SOL    HW218417   3.955   2.451   1.883
 5911SOL     OW18418   3.949   2.137   2.858
 5911SOL    HW118419   3.984   2.120   2.950
 5911SOL    HW218420   3.861   2.092   2.846
 5912SOL     OW18421   3.743   2.230   2.509
 5912SOL    HW118422   3.661   2.273   2.548
 5912SOL    HW218423   3.715   2.157   2.446
 5913SOL     OW18424   4.293   3.137   3.027
 5913SOL    HW118425   4.200   3.130   2.990
 5913SOL    HW218426   4.304   3.226   3.071
 5914SOL     OW18427   5.279   3.373   2.565
 5914SOL    HW118428   5.222   3.357   2.646
 5914SOL    HW218429   5.220   3.383   2.485
 5915SOL     OW18430   4.859   2.565   2.579
 5915SOL    HW118431   4.916   2.643   2.554
 5915SOL    HW218432   4.799   2.591   2.655
 5916SOL     OW18433   4.492   3.006   2.885
 5916SOL    HW118434   4.414   3.023   2.945
 5916SOL    HW218435   4.526   3.093   2.849
 5917SOL     OW18436   4.574   2.660   3.685
 5917SOL    HW118437   4.570   2.736   3.750
 5917SOL    HW218438   4.596   2.696   3.594
 5918SOL     OW18439   4.409   2.874   2.527
 5918SOL    HW118440   4.478   2.858   2.597
 5918SOL    HW218441   4.336   2.931   2.565
 5919SOL     OW18442   4.410   3.023   3.665
 5919SOL    HW118443   4.470   3.102   3.679
 5919SOL    HW218444   4.324   3.054   3.624
 5920SOL     OW18445   4.059   3.297   2.923
 5920SOL    HW118446   3.981   3.266   2.870
 5920SOL    HW218447   4.117   3.355   2.866
 5921SOL     OW18448   5.184   3.367   3.201
 5921SOL    HW118449   5.208   3.461   3.227
 5921SOL    HW218450   5.168   3.313   3.283
 5922SOL     OW18451   4.162   2.254   3.361
 5922SOL    HW118452   4.244   2.198   3.370
 5922SOL    HW218453   4.081   2.196   3.365
 5923SOL     OW18454   3.955   3.575   2.345
 5923SOL    HW118455   3.989   3.652   2.399
 5923SOL    HW218456   3.999   3.575   2.255
 5924SOL     OW18457   4.851   3.203   3.552
 5924SOL    HW118458   4.898   3.203   3.640
 5924SOL    HW218459   4.803   3.116   3.541
 5925SOL     OW18460   3.954   3.296   2.400
 5925SOL    HW118461   3.928   3.392   2.400
 5925SOL    HW218462   3.883   3.242   2.445
 5926SOL     OW18463   3.964   2.953   2.748
 5926SOL    HW118464   3.978   2.869   2.800
 5926SOL    HW218465   3.909   3.017   2.803
 5927SOL     OW18466   4.344   3.648   3.301
 5927SOL    HW118467   4.252   3.631   3.336
 5927SOL    HW218468   4.372   3.740   3.327
 5928SOL     OW18469   4.330   2.826   1.985
 5928SOL    HW118470   4.337   2.910   1.931
 5928SOL    HW218471   4.376   2.839   2.073
 5929SOL     OW18472   3.846   2.505   2.425
 5929SOL    HW118473   3.801   2.417   2.442
 5929SOL    HW218474   3.845   2.559   2.509
 5930SOL     OW18475   3.751   3.458   1.979
 5930SOL    HW118476   3.732   3.362   2.000
 5930SOL    HW218477   3.718   3.516   2.054
 5931SOL     OW18478   5.413   2.784   2.474
 5931SOL    HW118479   5.508   2.755   2.482
 5931SOL    HW218480   5.405   2.849   2.399
 5932SOL     OW18481   3.837   2.599   3.459
 5932SOL    HW118482   3.925   2.586   3.504
 5932SOL    HW218483   3.824   2.696   3.437
 5933SOL     OW18484   4.337   3.227   2.588
 5933SOL    HW118485   4.288   3.140   2.597
 5933SOL    HW218486   4.314   3.270   2.501
 5934SOL     OW18487   5.017   3.090   3.285
 5934SOL    HW118488   5.054   3.017   3.227
 5934SOL    HW218489   5.069   3.095   3.370
 5935SOL     OW18490   4.533   1.866   2.364
 5935SOL    HW118491   4.573   1.957   2.355
 5935SOL    HW218492   4.433   1.874   2.370
 5936SOL     OW18493   3.921   2.838   3.126
 5936SOL    HW118494   4.010   2.793   3.112
 5936SOL    HW218495   3.848   2.773   3.107
 5937SOL     OW18496   4.911   3.654   3.478
 5937SOL    HW118497   4.935   3.714   3.402
 5937SOL    HW218498   4.918   3.559   3.448
 5938SOL     OW18499   4.041   2.113   3.663
 5938SOL    HW118500   4.112   2.184   3.669
 5938SOL    HW218501   3.953   2.152   3.691
 5939SOL     OW18502   5.190   3.279   2.815
 5939SOL    HW118503   5.131   3.285   2.895
 5939SOL    HW218504   5.175   3.191   2.769
 5940SOL     OW18505   4.322   2.591   2.132
 5940SOL    HW118506   4.346   2.660   2.064
 5940SOL    HW218507   4.244   2.624   2.186
 5941SOL     OW18508   5.005   2.207   2.806
 5941SOL    HW118509   4.919   2.157   2.793
 5941SOL    HW218510   5.067   2.153   2.862
 5942SOL     OW18511   4.531   2.467   3.327
 5942SOL    HW118512   4.484   2.464   3.416
 5942SOL    HW218513   4.480   2.412   3.261
 5943SOL     OW18514   5.118   2.331   3.536
 5943SOL    HW118515   5.098   2.374   3.624
 5943SOL    HW218516   5.196   2.269   3.545
 5944SOL     OW18517   4.697   2.752   3.434
 5944SOL    HW118518   4.743   2.668   3.405
 5944SOL    HW218519   4.641   2.786   3.359
 5945SOL     OW18520   4.715   2.272   3.104
 5945SOL    HW118521   4.638   2.306   3.158
 5945SOL    HW218522   4.681   2.221   3.025
 5946SOL     OW18523   4.765   2.563   2.291
 5946SOL    HW118524   4.791   2.559   2.387
 5946SOL    HW218525   4.680   2.512   2.277
 5947SOL     OW18526   3.800   2.673   2.651
 5947SOL    HW118527   3.899   2.661   2.660
 5947SOL    HW218528   3.776   2.768   2.672
 5948SOL     OW18529   3.854   3.683   3.433
 5948SOL    HW118530   3.844   3.668   3.532
 5948SOL    HW218531   3.768   3.719   3.397
 5949SOL     OW18532   4.589   2.210   2.057
 5949SOL    HW118533   4.648   2.273   2.008
 5949SOL    HW218534   4.608   2.116   2.028
 5950SOL     OW18535   5.086   3.006   2.407
 5950SOL    HW118536   5.169   2.977   2.359
 5950SOL    HW218537   5.037   3.073   2.351
 5951SOL     OW18538   4.274   2.058   2.747
 5951SOL    HW118539   4.269   2.053   2.847
 5951SOL    HW218540   4.276   2.154   2.718
 5952SOL     OW18541   4.732   3.318   2.339
 5952SOL    HW118542   4.686   3.390   2.287
 5952SOL    HW218543   4.728   3.338   2.437
 5953SOL     OW18544   4.075   3.663   2.715
 5953SOL    HW118545   4.125   3.577   2.721
 5953SOL    HW218546   4.140   3.740   2.712
 5954SOL     OW18547   4.951   3.412   3.368
 5954SOL    HW118548   4.957   3.335   3.432
 5954SOL    HW218549   4.899   3.386   3.288
 5955SOL     OW18550   4.045   2.805   2.104
 5955SOL    HW118551   4.127   2.844   2.062
 5955SOL    HW218552   4.018   2.723   2.055
 5956SOL     OW18553   4.185   3.128   3.589
 5956SOL    HW118554   4.135   3.129   3.503
 5956SOL    HW218555   4.122   3.110   3.665
 5957SOL     OW18556   4.835   3.638   2.099
 5957SOL    HW118557   4.775   3.576   2.149
 5957SOL    HW218558   4.866   3.594   2.014
 5958SOL     OW18559   3.926   2.147   3.360
 5958SOL    HW118560   3.846   2.207   3.347
 5958SOL    HW218561   3.916   2.098   3.446
 5959SOL     OW18562   4.188   3.605   2.185
 5959SOL    HW118563   4.221   3.644   2.271
 5959SOL    HW218564   4.264   3.598   2.120
 5960SOL     OW18565   5.124   1.969   2.288
 5960SOL    HW118566   5.100   1.932   2.198
 5960SOL    HW218567   5.223   1.985   2.292
 5961SOL     OW18568   3.973   3.647   3.103
 5961SOL    HW118569   4.030   3.582   3.153
 5961SOL    HW218570   3.957   3.614   3.010
 5962SOL     OW18571   4.664   3.560   2.766
 5962SOL    HW118572   4.744   3.503   2.787
 5962SOL    HW218573   4.615   3.520   2.689
 5963SOL     OW18574   4.106   2.562   2.342
 5963SOL    HW118575   4.151   2.472   2.339
 5963SOL    HW218576   4.012   2.551   2.375
 5964SOL     OW18577   4.338   1.984   1.979
 5964SOL    HW118578   4.436   1.962   1.986
 5964SOL    HW218579   4.307   1.967   1.886
 5965SOL     OW18580   4.505   2.126   3.611
 5965SOL    HW118581   4.572   2.065   3.654
 5965SOL    HW218582   4.432   2.145   3.676
 5966SOL     OW18583   4.612   3.376   3.057
 5966SOL    HW118584   4.589   3.351   2.963
 5966SOL    HW218585   4.673   3.307   3.096
 5967SOL     OW18586   5.075   2.452   3.295
 5967SOL    HW118587   5.103   2.409   3.380
 5967SOL    HW218588   5.100   2.548   3.296
 5968SOL     OW18589   4.527   3.264   2.786
 5968SOL    HW118590   4.617   3.278   2.744
 5968SOL    HW218591   4.456   3.266   2.715
 5969SOL     OW18592   4.646   2.365   2.761
 5969SOL    HW118593   4.621   2.356   2.665
 5969SOL    HW218594   4.694   2.283   2.792
 5970SOL     OW18595   4.263   1.926   2.374
 5970SOL    HW118596   4.182   1.927   2.432
 5970SOL    HW218597   4.266   2.009   2.319
 5971SOL     OW18598   5.158   3.050   1.903
 5971SOL    HW118599   5.190   2.974   1.960
 5971SOL    HW218600   5.066   3.077   1.933
 5972SOL     OW18601   4.021   1.897   2.033
 5972SOL    HW118602   4.070   1.981   2.012
 5972SOL    HW218603   4.083   1.832   2.078
 5973SOL     OW18604   4.659   2.098   2.342
 5973SOL    HW118605   4.611   2.139   2.264
 5973SOL    HW218606   4.758   2.096   2.323
 5974SOL     OW18607   4.800   2.545   3.326
 5974SOL    HW118608   4.720   2.484   3.329
 5974SOL    HW218609   4.881   2.492   3.302
 5975SOL     OW18610   4.951   3.432   2.655
 5975SOL    HW118611   4.972   3.506   2.590
 5975SOL    HW218612   5.019   3.432   2.728
 5976SOL     OW18613   4.183   3.014   2.603
 5976SOL    HW118614   4.112   2.987   2.668
 5976SOL    HW218615   4.157   2.986   2.510
 5977SOL     OW18616   4.995   3.659   2.453
 5977SOL    HW118617   5.039   3.723   2.389
 5977SOL    HW218618   4.945   3.711   2.523
 5978SOL     OW18619   4.756   2.411   1.878
 5978SOL    HW118620   4.715   2.493   1.839
 5978SOL    HW218621   4.820   2.437   1.951
 5979SOL     OW18622   3.802   2.418   3.248
 5979SOL    HW118623   3.894   2.417   3.207
 5979SOL    HW218624   3.796   2.492   3.315
 5980SOL     OW18625   4.285   2.084   3.009
 5980SOL    HW118626   4.323   2.000   3.046
 5980SOL    HW218627   4.197   2.103   3.053
 5981SOL     OW18628   4.590   2.316   2.504
 5981SOL    HW118629   4.558   2.388   2.442
 5981SOL    HW218630   4.614   2.235   2.451
 5982SOL     OW18631   4.741   1.901   2.615
 5982SOL    HW118632   4.669   1.906   2.546
 5982SOL    HW218633   4.717   1.832   2.684
 5983SOL     OW18634   5.153   3.035   2.729
 5983SOL    HW118635   5.098   2.951   2.722
 5983SOL    HW218636   5.179   3.064   2.637
 5984SOL     OW18637   4.212   3.247   2.036
 5984SOL    HW118638   4.125   3.232   2.083
 5984SOL    HW218639   4.195   3.273   1.941
 5985SOL     OW18640   5.114   2.437   1.940
 5985SOL    HW118641   5.060   2.416   2.021
 5985SOL    HW218642   5.205   2.396   1.949
 5986SOL     OW18643   4.251   2.118   2.190
 5986SOL    HW118644   4.278   2.059   2.115
 5986SOL    HW218645   4.251   2.213   2.159
 5987SOL     OW18646   4.788   3.209   3.202
 5987SOL    HW118647   4.708   3.186   3.257
 5987SOL    HW218648   4.871   3.183   3.251
 5988SOL     OW18649   5.316   3.491   3.487
 5988SOL    HW118650   5.343   3.525   3.397
 5988SOL    HW218651   5.395   3.453   3.533
 5989SOL     OW18652   4.835   3.057   2.962
 5989SOL    HW118653   4.795   3.101   3.043
 5989SOL    HW218654   4.794   3.094   2.879
 5990SOL     OW18655   4.639   1.951   3.264
 5990SOL    HW118656   4.664   1.931   3.169
 5990SOL    HW218657   4.711   2.007   3.306
 5991SOL     OW18658   4.704   2.978   3.581
 5991SOL    HW118659   4.605   2.984   3.591
 5991SOL    HW218660   4.727   2.898   3.525
 5992SOL     OW18661   4.429   2.912   2.230
 5992SOL    HW118662   4.415   2.919   2.329
 5992SOL    HW218663   4.513   2.861   2.212
 5993SOL     OW18664   4.134   2.675   3.113
 5993SOL    HW118665   4.220   2.687   3.163
 5993SOL    HW218666   4.092   2.588   3.140
 5994SOL     OW18667   4.998   2.248   3.124
 5994SOL    HW118668   5.019   2.322   3.188
 5994SOL    HW218669   4.909   2.265   3.081
 5995SOL     OW18670   3.788   3.426   3.193
 5995SOL    HW118671   3.742   3.508   3.159
 5995SOL    HW218672   3.886   3.445   3.202
 5996SOL     OW18673   4.091   2.962   2.363
 5996SOL    HW118674   4.084   3.045   2.307
 5996SOL    HW218675   4.095   2.882   2.303
 5997SOL     OW18676   4.290   2.399   2.727
 5997SOL    HW118677   4.302   2.465   2.653
 5997SOL    HW218678   4.336   2.433   2.810
 5998SOL     OW18679   4.976   3.210   2.250
 5998SOL    HW118680   5.026   3.287   2.290
 5998SOL    HW218681   4.881   3.212   2.282
 5999SOL     OW18682   4.996   3.307   3.004
 5999SOL    HW118683   5.043   3.320   3.091
 5999SOL    HW218684   4.930   3.233   3.013
 6000SOL     OW18685   4.078   3.372   3.191
 6000SOL    HW118686   4.057   3.328   3.104
 6000SOL    HW218687   4.175   3.398   3.194
 6001SOL     OW18688   4.126   2.613   3.460
 6001SOL    HW118689   4.194   2.668   3.413
 6001SOL    HW218690   4.166   2.525   3.487
 6002SOL     OW18691   4.737   1.967   3.632
 6002SOL    HW118692   4.743   2.052   3.580
 6002SOL    HW218693   4.769   1.891   3.575
 6003SOL     OW18694   4.228   1.912   3.602
 6003SOL    HW118695   4.186   1.855   3.532
 6003SOL    HW218696   4.162   1.981   3.634
 6004SOL     OW18697   4.297   2.732   2.891
 6004SOL    HW118698   4.341   2.821   2.882
 6004SOL    HW218699   4.234   2.732   2.968
 6005SOL     OW18700   5.084   2.724   2.907
 6005SOL    HW118701   5.009   2.724   2.841
 6005SOL    HW218702   5.121   2.632   2.916
 6006SOL     OW18703   4.933   2.387   2.137
 6006SOL    HW118704   4.946   2.303   2.191
 6006SOL    HW218705   4.904   2.461   2.197
 6007SOL     OW18706   4.031   2.075   3.093
 6007SOL    HW118707   4.008   2.112   3.183
 6007SOL    HW218708   4.001   1.980   3.087
 6008SOL     OW18709   3.761   3.172   3.144
 6008SOL    HW118710   3.814   3.123   3.212
 6008SOL    HW218711   3.783   3.270   3.149
 6009SOL     OW18712   4.456   2.496   2.926
 6009SOL    HW118713   4.515   2.470   2.850
 6009SOL    HW218714   4.428   2.592   2.915
 6010SOL     OW18715   4.031   1.925   2.480
 6010SOL    HW118716   4.020   2.019   2.513
 6010SOL    HW218717   4.026   1.862   2.557
 6011SOL     OW18718   5.346   2.229   2.236
 6011SOL    HW118719   5.348   2.153   2.300
 6011SOL    HW218720   5.298   2.306   2.276
 6012SOL     OW18721   4.747   2.628   2.828
 6012SOL    HW118722   4.762   2.649   2.924
 6012SOL    HW218723   4.717   2.533   2.819
 6013SOL     OW18724   4.704   3.435   3.562
 6013SOL    HW118725   4.684   3.479   3.474
 6013SOL    HW218726   4.743   3.344   3.546
 6014SOL     OW18727   4.074   2.760   3.666
 6014SOL    HW118728   4.150   2.804   3.714
 6014SOL    HW218729   4.109   2.713   3.584
 6015SOL     OW18730   5.027   2.700   1.904
 6015SOL    HW118731   5.061   2.607   1.919
 6015SOL    HW218732   5.045   2.727   1.809
 6016SOL     OW18733   4.792   3.195   2.711
 6016SOL    HW118734   4.799   3.111   2.656
 6016SOL    HW218735   4.854   3.264   2.675
 6017SOL     OW18736   4.043   2.672   2.811
 6017SOL    HW118737   4.136   2.708   2.816
 6017SOL    HW218738   4.037   2.587   2.863
 6018SOL     OW18739   4.063   2.371   2.868
 6018SOL    HW118740   4.011   2.288   2.851
 6018SOL    HW218741   4.140   2.376   2.804
 6019SOL     OW18742   4.862   2.242   3.540
 6019SOL    HW118743   4.817   2.305   3.604
 6019SOL    HW218744   4.955   2.273   3.523
 6020SOL     OW18745   4.884   2.069   3.339
 6020SOL    HW118746   4.884   2.133   3.416
 6020SOL    HW218747   4.912   2.117   3.256
 6021SOL     OW18748   3.732   3.188   2.062
 6021SOL    HW118749   3.639   3.209   2.031
 6021SOL    HW218750   3.742   3.089   2.075
 6022SOL     OW18751   3.812   3.663   2.789
 6022SOL    HW118752   3.770   3.577   2.762
 6022SOL    HW218753   3.906   3.666   2.755
 6023SOL     OW18754   4.228   3.430   2.772
 6023SOL    HW118755   4.294   3.504   2.781
 6023SOL    HW218756   4.272   3.351   2.730
 6024SOL     OW18757   4.726   2.658   3.100
 6024SOL    HW118758   4.767   2.626   3.186
 6024SOL    HW218759   4.630   2.631   3.097
 6025SOL     OW18760   3.764   2.406   2.976
 6025SOL    HW118761   3.849   2.373   2.935
 6025SOL    HW218762   3.777   2.421   3.074
 6026SOL     OW18763   3.913   2.382   3.584
 6026SOL    HW118764   3.972   2.342   3.514
 6026SOL    HW218765   3.855   2.453   3.543
 6027SOL     OW18766   5.093   2.812   3.522
 6027SOL    HW118767   5.132   2.901   3.542
 6027SOL    HW218768   5.103   2.792   3.425
 6028SOL     OW18769   4.539   2.434   2.187
 6028SOL    HW118770   4.546   2.345   2.141
 6028SOL    HW218771   4.445   2.468   2.179
 6029SOL     OW18772   3.976   3.426   3.606
 6029SOL    HW118773   3.946   3.483   3.682
 6029SOL    HW218774   3.969   3.329   3.632
 6030SOL     OW18775   4.395   2.326   3.131
 6030SOL    HW118776   4.361   2.237   3.101
 6030SOL    HW218777   4.421   2.380   3.051
 6031SOL     OW18778   4.654   3.540   3.327
 6031SOL    HW118779   4.630   3.522   3.232
 6031SOL    HW218780   4.684   3.634   3.337
 6032SOL     OW18781   4.197   2.362   2.053
 6032SOL    HW118782   4.258   2.442   2.057
 6032SOL    HW218783   4.102   2.393   2.060
 6033SOL     OW18784   3.883   2.999   3.328
 6033SOL    HW118785   3.905   2.938   3.404
 6033SOL    HW218786   3.893   2.950   3.242
 6034SOL     OW18787   5.071   2.921   3.096
 6034SOL    HW118788   5.095   2.858   3.022
 6034SOL    HW218789   4.981   2.961   3.078
 6035SOL     OW18790   5.026   2.717   2.171
 6035SOL    HW118791   4.940   2.686   2.213
 6035SOL    HW218792   5.022   2.703   2.072
 6036SOL     OW18793   4.976   3.593   2.990
 6036SOL    HW118794   5.060   3.598   2.936
 6036SOL    HW218795   4.953   3.497   3.008
 6037SOL     OW18796   3.807   3.120   2.884
 6037SOL    HW118797   3.802   3.119   2.984
 6037SOL    HW218798   3.724   3.079   2.846
 6038SOL     OW18799   4.412   3.524   3.578
 6038SOL    HW118800   4.356   3.605   3.587
 6038SOL    HW218801   4.464   3.528   3.492
 6039SOL     OW18802   5.450   1.997   2.385
 6039SOL    HW118803   5.523   1.980   2.318
 6039SOL    HW218804   5.419   1.910   2.423
 6040SOL     OW18805   5.112   3.435   2.339
 6040SOL    HW118806   5.179   3.447   2.265
 6040SOL    HW218807   5.072   3.524   2.362
 6041SOL     OW18808   3.854   3.656   3.713
 6041SOL    HW118809   3.813   3.582   3.766
 6041SOL    HW218810   3.918   3.707   3.771
 6042SOL     OW18811   5.004   2.789   2.534
 6042SOL    HW118812   5.064   2.708   2.536
 6042SOL    HW218813   5.044   2.858   2.474
 6043SOL     OW18814   4.554   3.135   3.284
 6043SOL    HW118815   4.549   3.168   3.379
 6043SOL    HW218816   4.468   3.154   3.238
 6044SOL     OW18817   4.396   3.478   2.016
 6044SOL    HW118818   4.405   3.488   1.917
 6044SOL    HW218819   4.356   3.389   2.037
 6045SOL     OW18820   3.987   2.188   2.582
 6045SOL    HW118821   3.908   2.239   2.548
 6045SOL    HW218822   3.978   2.173   2.680
 6046SOL     OW18823   4.918   3.474   1.893
 6046SOL    HW118824   4.924   3.381   1.930
 6046SOL    HW218825   4.859   3.474   1.813
 6047SOL     OW18826   4.546   2.864   3.234
 6047SOL    HW118827   4.586   2.863   3.142
 6047SOL    HW218828   4.556   2.956   3.274
 6048SOL     OW18829   4.640   2.772   2.153
 6048SOL    HW118830   4.703   2.810   2.085
 6048SOL    HW218831   4.680   2.689   2.192
 6049SOL     OW18832   4.096   3.150   3.352
 6049SOL    HW118833   4.083   3.243   3.318
 6049SOL    HW218834   4.012   3.098   3.339
 6050SOL     OW18835   4.763   2.960   2.558
 6050SOL    HW118836   4.693   2.913   2.612
 6050SOL    HW218837   4.822   2.892   2.515
 6051SOL     OW18838   4.738   2.098   2.833
 6051SOL    HW118839   4.730   2.062   2.740
 6051SOL    HW218840   4.736   2.022   2.898
 6052SOL     OW18841   4.314   3.349   2.353
 6052SOL    HW118842   4.356   3.291   2.283
 6052SOL    HW218843   4.270   3.428   2.309
 6053SOL     OW18844   3.979   3.210   2.152
 6053SOL    HW118845   3.883   3.211   2.125
 6053SOL    HW218846   3.991   3.263   2.236
 6054SOL     OW18847   3.829   2.875   3.588
 6054SOL    HW118848   3.752   2.842   3.642
 6054SOL    HW218849   3.914   2.845   3.630
 6055SOL     OW18850   4.396   2.065   3.351
 6055SOL    HW118851   4.486   2.049   3.311
 6055SOL    HW218852   4.404   2.070   3.450
 6056SOL     OW18853   3.799   2.207   1.895
 6056SOL    HW118854   3.707   2.179   1.866
 6056SOL    HW218855   3.830   2.284   1.839
 6057SOL     OW18856   5.164   2.718   3.260
 6057SOL    HW118857   5.107   2.770   3.197
 6057SOL    HW218858   5.260   2.730   3.236
 6058SOL     OW18859   3.796   2.028   2.180
 6058SOL    HW118860   3.779   2.111   2.126
 6058SOL    HW218861   3.886   1.991   2.158
 6059SOL     OW18862   4.907   3.197   1.981
 6059SOL    HW118863   4.808   3.186   1.983
 6059SOL    HW218864   4.941   3.212   2.074
 6060SOL     OW18865   4.337   2.704   3.293
 6060SOL    HW118866   4.393   2.785   3.276
 6060SOL    HW218867   4.396   2.624   3.296
 6061SOL     OW18868   4.440   2.427   3.570
 6061SOL    HW118869   4.459   2.492   3.644
 6061SOL    HW218870   4.500   2.347   3.579
 6062SOL     OW18871   5.174   3.082   3.495
 6062SOL    HW118872   5.165   3.072   3.594
 6062SOL    HW218873   5.270   3.075   3.469
 6063SOL     OW18874   4.114   3.603   3.422
 6063SOL    HW118875   4.023   3.644   3.420
 6063SOL    HW218876   4.107   3.509   3.454
 6064SOL     OW18877   4.949   2.187   2.311
 6064SOL    HW118878   5.014   2.113   2.300
 6064SOL    HW218879   4.969   2.237   2.395
 6065SOL     OW18880   4.318   2.607   2.514
 6065SOL    HW118881   4.368   2.692   2.495
 6065SOL    HW218882   4.230   2.609   2.466
 6066SOL     OW18883   4.583   3.236   1.878
 6066SOL    HW118884   4.537   3.251   1.966
 6066SOL    HW218885   4.627   3.321   1.848
 6067SOL     OW18886   4.385   3.652   2.815
 6067SOL    HW118887   4.339   3.740   2.802
 6067SOL    HW218888   4.484   3.664   2.808
 6068SOL     OW18889   4.583   2.818   2.723
 6068SOL    HW118890   4.637   2.749   2.771
 6068SOL    HW218891   4.551   2.887   2.789
 6069SOL     OW18892   4.807   2.846   1.949
 6069SOL    HW118893   4.784   2.899   1.867
 6069SOL    HW218894   4.888   2.790   1.930
 6070SOL     OW18895   3.945   3.176   3.706
 6070SOL    HW118896   3.880   3.103   3.685
 6070SOL    HW218897   3.949   3.190   3.804
 6071SOL     OW18898   3.803   3.102   2.515
 6071SOL    HW118899   3.802   3.055   2.603
 6071SOL    HW218900   3.885   3.074   2.464
 6072SOL     OW18901   4.396   3.253   3.486
 6072SOL    HW118902   4.318   3.203   3.524
 6072SOL    HW218903   4.393   3.348   3.517
 6073SOL     OW18904   4.152   2.286   2.382
 6073SOL    HW118905   4.182   2.214   2.320
 6073SOL    HW218906   4.113   2.246   2.465
 6074SOL     OW18907   5.429   3.349   2.966
 6074SOL    HW118908   5.336   3.324   2.939
 6074SOL    HW218909   5.455   3.299   3.048
 6075SOL     OW18910   4.041   2.409   3.142
 6075SOL    HW118911   4.079   2.350   3.214
 6075SOL    HW218912   4.081   2.383   3.054
 6076SOL     OW18913   4.536   3.448   2.549
 6076SOL    HW118914   4.568   3.458   2.455
 6076SOL    HW218915   4.457   3.386   2.551
 6077SOL     OW18916   5.148   2.076   2.974
 6077SOL    HW118917   5.200   2.011   3.029
 6077SOL    HW218918   5.099   2.139   3.035
 6078SOL     OW18919   4.725   1.896   3.016
 6078SOL    HW118920   4.662   1.824   2.985
 6078SOL    HW218921   4.818   1.860   3.016
 6079SOL     OW18922   4.494   3.192   2.163
 6079SOL    HW118923   4.448   3.105   2.180
 6079SOL    HW218924   4.585   3.189   2.204
 6080SOL     OW18925   4.342   3.429   3.146
 6080SOL    HW118926   4.337   3.511   3.203
 6080SOL    HW218927   4.431   3.426   3.101
 6081SOL     OW18928   5.076   1.914   2.030
 6081SOL    HW118929   5.111   1.873   1.946
 6081SOL    HW218930   4.986   1.876   2.050
 6082SOL     OW18931   5.024   2.315   2.553
 6082SOL    HW118932   4.965   2.395   2.557
 6082SOL    HW218933   5.039   2.280   2.646
 6083SOL     OW18934   5.317   2.083   2.744
 6083SOL    HW118935   5.233   2.082   2.798
 6083SOL    HW218936   5.319   2.166   2.688
 6084SOL     OW18937   3.763   2.939   2.162
 6084SOL    HW118938   3.862   2.928   2.153
 6084SOL    HW218939   3.723   2.853   2.194
 6085SOL     OW18940   4.599   3.508   2.199
 6085SOL    HW118941   4.522   3.473   2.145
 6085SOL    HW218942   4.567   3.579   2.261
 6086SOL     OW18943   3.954   2.490   3.837
 6086SOL    HW118944   3.861   2.488   3.874
 6086SOL    HW218945   3.955   2.451   3.745
 6087SOL     OW18946   3.949   2.137   4.720
 6087SOL    HW118947   3.984   2.120   4.812
 6087SOL    HW218948   3.861   2.092   4.708
 6088SOL     OW18949   3.743   2.230   4.371
 6088SOL    HW118950   3.661   2.273   4.410
 6088SOL    HW218951   3.715   2.157   4.308
 6089SOL     OW18952   4.293   3.137   4.889
 6089SOL    HW118953   4.200   3.130   4.852
 6089SOL    HW218954   4.304   3.226   4.933
 6090SOL     OW18955   5.279   3.373   4.427
 6090SOL    HW118956   5.222   3.357   4.508
 6090SOL    HW218957   5.220   3.383   4.347
 6091SOL     OW18958   4.859   2.565   4.441
 6091SOL    HW118959   4.916   2.643   4.416
 6091SOL    HW218960   4.799   2.591   4.517
 6092SOL     OW18961   4.492   3.006   4.747
 6092SOL    HW118962   4.414   3.023   4.807
 6092SOL    HW218963   4.526   3.093   4.711
 6093SOL     OW18964   4.574   2.660   5.547
 6093SOL    HW118965   4.570   2.736   5.612
 6093SOL    HW218966   4.596   2.696   5.456
 6094SOL     OW18967   4.409   2.874   4.389
 6094SOL    HW118968   4.478   2.858   4.459
 6094SOL    HW218969   4.336   2.931   4.427
 6095SOL     OW18970   4.410   3.023   5.527
 6095SOL    HW118971   4.470   3.102   5.541
 6095SOL    HW218972   4.324   3.054   5.486
 6096SOL     OW18973   4.059   3.297   4.785
 6096SOL    HW118974   3.981   3.266   4.732
 6096SOL    HW218975   4.117   3.355   4.728
 6097SOL     OW18976   5.184   3.367   5.063
 6097SOL    HW118977   5.208   3.461   5.089
 6097SOL    HW218978   5.168   3.313   5.145
 6098SOL     OW18979   4.162   2.254   5.223
 6098SOL    HW118980   4.244   2.198   5.232
 6098SOL    HW218981   4.081   2.196   5.227
 6099SOL     OW18982   3.955   3.575   4.207
 6099SOL    HW118983   3.989   3.652   4.261
 6099SOL    HW218984   3.999   3.575   4.117
 6100SOL     OW18985   4.851   3.203   5.414
 6100SOL    HW118986   4.898   3.203   5.502
 6100SOL    HW218987   4.803   3.116   5.403
 6101SOL     OW18988   3.954   3.296   4.262
 6101SOL    HW118989   3.928   3.392   4.262
 6101SOL    HW218990   3.883   3.242   4.307
 6102SOL     OW18991   3.964   2.953   4.610
 6102SOL    HW118992   3.978   2.869   4.662
 6102SOL    HW218993   3.909   3.017   4.665
 6103SOL     OW18994   4.344   3.648   5.163
 6103SOL    HW118995   4.252   3.631   5.198
 6103SOL    HW218996   4.372   3.740   5.189
 6104SOL     OW18997   4.330   2.826   3.847
 6104SOL    HW118998   4.337   2.910   3.793
 6104SOL    HW218999   4.376   2.839   3.935
 6105SOL     OW19000   3.846   2.505   4.287
 6105SOL    HW119001   3.801   2.417   4.304
 6105SOL    HW219002   3.845   2.559   4.371
 6106SOL     OW19003   3.751   3.458   3.841
 6106SOL    HW119004   3.732   3.362   3.862
 6106SOL    HW219005   3.718   3.516   3.916
 6107SOL     OW19006   5.413   2.784   4.336
 6107SOL    HW119007   5.508   2.755   4.344
 6107SOL    HW219008   5.405   2.849   4.261
 6108SOL     OW19009   3.837   2.599   5.321
 6108SOL    HW119010   3.925   2.586   5.366
 6108SOL    HW219011   3.824   2.696   5.299
 6109SOL     OW19012   4.337   3.227   4.450
 6109SOL    HW119013   4.288   3.140   4.459
 6109SOL    HW219014   4.314   3.270   4.363
 6110SOL     OW19015   5.017   3.090   5.147
 6110SOL    HW119016   5.054   3.017   5.089
 6110SOL    HW219017   5.069   3.095   5.232
 6111SOL     OW19018   4.533   1.866   4.226
 6111SOL    HW119019   4.573   1.957   4.217
 6111SOL    HW219020   4.433   1.874   4.232
 6112SOL     OW19021   3.921   2.838   4.988
 6112SOL    HW119022   4.010   2.793   4.974
 6112SOL    HW219023   3.848   2.773   4.969
 6113SOL     OW19024   4.911   3.654   5.340
 6113SOL    HW119025   4.935   3.714   5.264
 6113SOL    HW219026   4.918   3.559   5.310
 6114SOL     OW19027   4.041   2.113   5.525
 6114SOL    HW119028   4.112   2.184   5.531
 6114SOL    HW219029   3.953   2.152   5.553
 6115SOL     OW19030   5.190   3.279   4.677
 6115SOL    HW119031   5.131   3.285   4.757
 6115SOL    HW219032   5.175   3.191   4.631
 6116SOL     OW19033   4.322   2.591   3.994
 6116SOL    HW119034   4.346   2.660   3.926
 6116SOL    HW219035   4.244   2.624   4.048
 6117SOL     OW19036   5.005   2.207   4.668
 6117SOL    HW119037   4.919   2.157   4.655
 6117SOL    HW219038   5.067   2.153   4.724
 6118SOL     OW19039   4.531   2.467   5.189
 6118SOL    HW119040   4.484   2.464   5.278
 6118SOL    HW219041   4.480   2.412   5.123
 6119SOL     OW19042   5.118   2.331   5.398
 6119SOL    HW119043   5.098   2.374   5.486
 6119SOL    HW219044   5.196   2.269   5.407
 6120SOL     OW19045   4.697   2.752   5.296
 6120SOL    HW119046   4.743   2.668   5.267
 6120SOL    HW219047   4.641   2.786   5.221
 6121SOL     OW19048   4.715   2.272   4.966
 6121SOL    HW119049   4.638   2.306   5.020
 6121SOL    HW219050   4.681   2.221   4.887
 6122SOL     OW19051   4.765   2.563   4.153
 6122SOL    HW119052   4.791   2.559   4.249
 6122SOL    HW219053   4.680   2.512   4.139
 6123SOL     OW19054   3.800   2.673   4.513
 6123SOL    HW119055   3.899   2.661   4.522
 6123SOL    HW219056   3.776   2.768   4.534
 6124SOL     OW19057   3.854   3.683   5.295
 6124SOL    HW119058   3.844   3.668   5.394
 6124SOL    HW219059   3.768   3.719   5.259
 6125SOL     OW19060   4.589   2.210   3.919
 6125SOL    HW119061   4.648   2.273   3.870
 6125SOL    HW219062   4.608   2.116   3.890
 6126SOL     OW19063   5.086   3.006   4.269
 6126SOL    HW119064   5.169   2.977   4.221
 6126SOL    HW219065   5.037   3.073   4.213
 6127SOL     OW19066   4.274   2.058   4.609
 6127SOL    HW119067   4.269   2.053   4.709
 6127SOL    HW219068   4.276   2.154   4.580
 6128SOL     OW19069   4.732   3.318   4.201
 6128SOL    HW119070   4.686   3.390   4.149
 6128SOL    HW219071   4.728   3.338   4.299
 6129SOL     OW19072   4.075   3.663   4.577
 6129SOL    HW119073   4.125   3.577   4.583
 6129SOL    HW219074   4.140   3.740   4.574
 6130SOL     OW19075   4.951   3.412   5.230
 6130SOL    HW119076   4.957   3.335   5.294
 6130SOL    HW219077   4.899   3.386   5.150
 6131SOL     OW19078   4.045   2.805   3.966
 6131SOL    HW119079   4.127   2.844   3.924
 6131SOL    HW219080   4.018   2.723   3.917
 6132SOL     OW19081   4.185   3.128   5.451
 6132SOL    HW119082   4.135   3.129   5.365
 6132SOL    HW219083   4.122   3.110   5.527
 6133SOL     OW19084   4.835   3.638   3.961
 6133SOL    HW119085   4.775   3.576   4.011
 6133SOL    HW219086   4.866   3.594   3.876
 6134SOL     OW19087   3.926   2.147   5.222
 6134SOL    HW119088   3.846   2.207   5.209
 6134SOL    HW219089   3.916   2.098   5.308
 6135SOL     OW19090   4.188   3.605   4.047
 6135SOL    HW119091   4.221   3.644   4.133
 6135SOL    HW219092   4.264   3.598   3.982
 6136SOL     OW19093   5.124   1.969   4.150
 6136SOL    HW119094   5.100   1.932   4.060
 6136SOL    HW219095   5.223   1.985   4.154
 6137SOL     OW19096   3.973   3.647   4.965
 6137SOL    HW119097   4.030   3.582   5.015
 6137SOL    HW219098   3.957   3.614   4.872
 6138SOL     OW19099   4.664   3.560   4.628
 6138SOL    HW119100   4.744   3.503   4.649
 6138SOL    HW219101   4.615   3.520   4.551
 6139SOL     OW19102   4.106   2.562   4.204
 6139SOL    HW119103   4.151   2.472   4.201
 6139SOL    HW219104   4.012   2.551   4.237
 6140SOL     OW19105   4.338   1.984   3.841
 6140SOL    HW119106   4.436   1.962   3.848
 6140SOL    HW219107   4.307   1.967   3.748
 6141SOL     OW19108   4.505   2.126   5.473
 6141SOL    HW119109   4.572   2.065   5.516
 6141SOL    HW219110   4.432   2.145   5.538
 6142SOL     OW19111   4.612   3.376   4.919
 6142SOL    HW119112   4.589   3.351   4.825
 6142SOL    HW219113   4.673   3.307   4.958
 6143SOL     OW19114   5.075   2.452   5.157
 6143SOL    HW119115   5.103   2.409   5.242
 6143SOL    HW219116   5.100   2.548   5.158
 6144SOL     OW19117   4.527   3.264   4.648
 6144SOL    HW119118   4.617   3.278   4.606
 6144SOL    HW219119   4.456   3.266   4.577
 6145SOL     OW19120   4.646   2.365   4.623
 6145SOL    HW119121   4.621   2.356   4.527
 6145SOL    HW219122   4.694   2.283   4.654
 6146SOL     OW19123   4.263   1.926   4.236
 6146SOL    HW119124   4.182   1.927   4.294
 6146SOL    HW219125   4.266   2.009   4.181
 6147SOL     OW19126   5.158   3.050   3.765
 6147SOL    HW119127   5.190   2.974   3.822
 6147SOL    HW219128   5.066   3.077   3.795
 6148SOL     OW19129   4.021   1.897   3.895
 6148SOL    HW119130   4.070   1.981   3.874
 6148SOL    HW219131   4.083   1.832   3.940
 6149SOL     OW19132   4.659   2.098   4.204
 6149SOL    HW119133   4.611   2.139   4.126
 6149SOL    HW219134   4.758   2.096   4.185
 6150SOL     OW19135   4.800   2.545   5.188
 6150SOL    HW119136   4.720   2.484   5.191
 6150SOL    HW219137   4.881   2.492   5.164
 6151SOL     OW19138   4.951   3.432   4.517
 6151SOL    HW119139   4.972   3.506   4.452
 6151SOL    HW219140   5.019   3.432   4.590
 6152SOL     OW19141   4.183   3.014   4.465
 6152SOL    HW119142   4.112   2.987   4.530
 6152SOL    HW219143   4.157   2.986   4.372
 6153SOL     OW19144   4.995   3.659   4.315
 6153SOL    HW119145   5.039   3.723   4.251
 6153SOL    HW219146   4.945   3.711   4.385
 6154SOL     OW19147   4.756   2.411   3.740
 6154SOL    HW119148   4.715   2.493   3.701
 6154SOL    HW219149   4.820   2.437   3.813
 6155SOL     OW19150   3.802   2.418   5.110
 6155SOL    HW119151   3.894   2.417   5.069
 6155SOL    HW219152   3.796   2.492   5.177
 6156SOL     OW19153   4.285   2.084   4.871
 6156SOL    HW119154   4.323   2.000   4.908
 6156SOL    HW219155   4.197   2.103   4.915
 6157SOL     OW19156   4.590   2.316   4.366
 6157SOL    HW119157   4.558   2.388   4.304
 6157SOL    HW219158   4.614   2.235   4.313
 6158SOL     OW19159   4.741   1.901   4.477
 6158SOL    HW119160   4.669   1.906   4.408
 6158SOL    HW219161   4.717   1.832   4.546
 6159SOL     OW19162   5.153   3.035   4.591
 6159SOL    HW119163   5.098   2.951   4.584
 6159SOL    HW219164   5.179   3.064   4.499
 6160SOL     OW19165   4.212   3.247   3.898
 6160SOL    HW119166   4.125   3.232   3.945
 6160SOL    HW219167   4.195   3.273   3.803
 6161SOL     OW19168   5.114   2.437   3.802
 6161SOL    HW119169   5.060   2.416   3.883
 6161SOL    HW219170   5.205   2.396   3.811
 6162SOL     OW19171   4.251   2.118   4.052
 6162SOL    HW119172   4.278   2.059   3.977
 6162SOL    HW219173   4.251   2.213   4.021
 6163SOL     OW19174   4.788   3.209   5.064
 6163SOL    HW119175   4.708   3.186   5.119
 6163SOL    HW219176   4.871   3.183   5.113
 6164SOL     OW19177   5.316   3.491   5.349
 6164SOL    HW119178   5.343   3.525   5.259
 6164SOL    HW219179   5.395   3.453   5.395
 6165SOL     OW19180   4.835   3.057   4.824
 6165SOL    HW119181   4.795   3.101   4.905
 6165SOL    HW219182   4.794   3.094   4.741
 6166SOL     OW19183   4.639   1.951   5.126
 6166SOL    HW119184   4.664   1.931   5.031
 6166SOL    HW219185   4.711   2.007   5.168
 6167SOL     OW19186   4.704   2.978   5.443
 6167SOL    HW119187   4.605   2.984   5.453
 6167SOL    HW219188   4.727   2.898   5.387
 6168SOL     OW19189   4.429   2.912   4.092
 6168SOL    HW119190   4.415   2.919   4.191
 6168SOL    HW219191   4.513   2.861   4.074
 6169SOL     OW19192   4.134   2.675   4.975
 6169SOL    HW119193   4.220   2.687   5.025
 6169SOL    HW219194   4.092   2.588   5.002
 6170SOL     OW19195   4.998   2.248   4.986
 6170SOL    HW119196   5.019   2.322   5.050
 6170SOL    HW219197   4.909   2.265   4.943
 6171SOL     OW19198   3.788   3.426   5.055
 6171SOL    HW119199   3.742   3.508   5.021
 6171SOL    HW219200   3.886   3.445   5.064
 6172SOL     OW19201   4.091   2.962   4.225
 6172SOL    HW119202   4.084   3.045   4.169
 6172SOL    HW219203   4.095   2.882   4.165
 6173SOL     OW19204   4.290   2.399   4.589
 6173SOL    HW119205   4.302   2.465   4.515
 6173SOL    HW219206   4.336   2.433   4.672
 6174SOL     OW19207   4.976   3.210   4.112
 6174SOL    HW119208   5.026   3.287   4.152
 6174SOL    HW219209   4.881   3.212   4.144
 6175SOL     OW19210   4.996   3.307   4.866
 6175SOL    HW119211   5.043   3.320   4.953
 6175SOL    HW219212   4.930   3.233   4.875
 6176SOL     OW19213   4.078   3.372   5.053
 6176SOL    HW119214   4.057   3.328   4.966
 6176SOL    HW219215   4.175   3.398   5.056
 6177SOL     OW19216   4.126   2.613   5.322
 6177SOL    HW119217   4.194   2.668   5.275
 6177SOL    HW219218   4.166   2.525   5.349
 6178SOL     OW19219   4.737   1.967   5.494
 6178SOL    HW119220   4.743   2.052   5.442
 6178SOL    HW219221   4.769   1.891   5.437
 6179SOL     OW19222   4.228   1.912   5.464
 6179SOL    HW119223   4.186   1.855   5.394
 6179SOL    HW219224   4.162   1.981   5.496
 6180SOL     OW19225   4.297   2.732   4.753
 6180SOL    HW119226   4.341   2.821   4.744
 6180SOL    HW219227   4.234   2.732   4.830
 6181SOL     OW19228   5.084   2.724   4.769
 6181SOL    HW119229   5.009   2.724   4.703
 6181SOL    HW219230   5.121   2.632   4.778
 6182SOL     OW19231   4.933   2.387   3.999
 6182SOL    HW119232   4.946   2.303   4.053
 6182SOL    HW219233   4.904   2.461   4.059
 6183SOL     OW19234   4.031   2.075   4.955
 6183SOL    HW119235   4.008   2.112   5.045
 6183SOL    HW219236   4.001   1.980   4.949
 6184SOL     OW19237   3.761   3.172   5.006
 6184SOL    HW119238   3.814   3.123   5.074
 6184SOL    HW219239   3.783   3.270   5.011
 6185SOL     OW19240   4.456   2.496   4.788
 6185SOL    HW119241   4.515   2.470   4.712
 6185SOL    HW219242   4.428   2.592   4.777
 6186SOL     OW19243   4.031   1.925   4.342
 6186SOL    HW119244   4.020   2.019   4.375
 6186SOL    HW219245   4.026   1.862   4.419
 6187SOL     OW19246   5.346   2.229   4.098
 6187SOL    HW119247   5.348   2.153   4.162
 6187SOL    HW219248   5.298   2.306   4.138
 6188SOL     OW19249   4.747   2.628   4.690
 6188SOL    HW119250   4.762   2.649   4.786
 6188SOL    HW219251   4.717   2.533   4.681
 6189SOL     OW19252   4.704   3.435   5.424
 6189SOL    HW119253   4.684   3.479   5.336
 6189SOL    HW219254   4.743   3.344   5.408
 6190SOL     OW19255   4.074   2.760   5.528
 6190SOL    HW119256   4.150   2.804   5.576
 6190SOL    HW219257   4.109   2.713   5.446
 6191SOL     OW19258   5.027   2.700   3.766
 6191SOL    HW119259   5.061   2.607   3.781
 6191SOL    HW219260   5.045   2.727   3.671
 6192SOL     OW19261   4.792   3.195   4.573
 6192SOL    HW119262   4.799   3.111   4.518
 6192SOL    HW219263   4.854   3.264   4.537
 6193SOL     OW19264   4.043   2.672   4.673
 6193SOL    HW119265   4.136   2.708   4.678
 6193SOL    HW219266   4.037   2.587   4.725
 6194SOL     OW19267   4.063   2.371   4.730
 6194SOL    HW119268   4.011   2.288   4.713
 6194SOL    HW219269   4.140   2.376   4.666
 6195SOL     OW19270   4.862   2.242   5.402
 6195SOL    HW119271   4.817   2.305   5.466
 6195SOL    HW219272   4.955   2.273   5.385
 6196SOL     OW19273   4.884   2.069   5.201
 6196SOL    HW119274   4.884   2.133   5.278
 6196SOL    HW219275   4.912   2.117   5.118
 6197SOL     OW19276   3.732   3.188   3.924
 6197SOL    HW119277   3.639   3.209   3.893
 6197SOL    HW219278   3.742   3.089   3.937
 6198SOL     OW19279   3.812   3.663   4.651
 6198SOL    HW119280   3.770   3.577   4.624
 6198SOL    HW219281   3.906   3.666   4.617
 6199SOL     OW19282   4.228   3.430   4.634
 6199SOL    HW119283   4.294   3.504   4.643
 6199SOL    HW219284   4.272   3.351   4.592
 6200SOL     OW19285   4.726   2.658   4.962
 6200SOL    HW119286   4.767   2.626   5.048
 6200SOL    HW219287   4.630   2.631   4.959
 6201SOL     OW19288   3.764   2.406   4.838
 6201SOL    HW119289   3.849   2.373   4.797
 6201SOL    HW219290   3.777   2.421   4.936
 6202SOL     OW19291   3.913   2.382   5.446
 6202SOL    HW119292   3.972   2.342   5.376
 6202SOL    HW219293   3.855   2.453   5.405
 6203SOL     OW19294   5.093   2.812   5.384
 6203SOL    HW119295   5.132   2.901   5.404
 6203SOL    HW219296   5.103   2.792   5.287
 6204SOL     OW19297   4.539   2.434   4.049
 6204SOL    HW119298   4.546   2.345   4.003
 6204SOL    HW219299   4.445   2.468   4.041
 6205SOL     OW19300   3.976   3.426   5.468
 6205SOL    HW119301   3.946   3.483   5.544
 6205SOL    HW219302   3.969   3.329   5.494
 6206SOL     OW19303   4.395   2.326   4.993
 6206SOL    HW119304   4.361   2.237   4.963
 6206SOL    HW219305   4.421   2.380   4.913
 6207SOL     OW19306   4.654   3.540   5.189
 6207SOL    HW119307   4.630   3.522   5.094
 6207SOL    HW219308   4.684   3.634   5.199
 6208SOL     OW19309   4.197   2.362   3.915
 6208SOL    HW119310   4.258   2.442   3.919
 6208SOL    HW219311   4.102   2.393   3.922
 6209SOL     OW19312   3.883   2.999   5.190
 6209SOL    HW119313   3.905   2.938   5.266
 6209SOL    HW219314   3.893   2.950   5.104
 6210SOL     OW19315   5.071   2.921   4.958
 6210SOL    HW119316   5.095   2.858   4.884
 6210SOL    HW219317   4.981   2.961   4.940
 6211SOL     OW19318   5.026   2.717   4.033
 6211SOL    HW119319   4.940   2.686   4.075
 6211SOL    HW219320   5.022   2.703   3.934
 6212SOL     OW19321   4.976   3.593   4.852
 6212SOL    HW119322   5.060   3.598   4.798
 6212SOL    HW219323   4.953   3.497   4.870
 6213SOL     OW19324   3.807   3.120   4.746
 6213SOL    HW119325   3.802   3.119   4.846
 6213SOL    HW219326   3.724   3.079   4.708
 6214SOL     OW19327   4.412   3.524   5.440
 6214SOL    HW119328   4.356   3.605   5.449
 6214SOL    HW219329   4.464   3.528   5.354
 6215SOL     OW19330   5.450   1.997   4.247
 6215SOL    HW119331   5.523   1.980   4.180
 6215SOL    HW219332   5.419   1.910   4.285
 6216SOL     OW19333   5.112   3.435   4.201
 6216SOL    HW119334   5.179   3.447   4.127
 6216SOL    HW219335   5.072   3.524   4.224
 6217SOL     OW19336   3.854   3.656   5.575
 6217SOL    HW119337   3.813   3.582   5.628
 6217SOL    HW219338   3.918   3.707   5.633
 6218SOL     OW19339   5.004   2.789   4.396
 6218SOL    HW119340   5.064   2.708   4.398
 6218SOL    HW219341   5.044   2.858   4.336
 6219SOL     OW19342   4.554   3.135   5.146
 6219SOL    HW119343   4.549   3.168   5.241
 6219SOL    HW219344   4.468   3.154   5.100
 6220SOL     OW19345   4.396   3.478   3.878
 6220SOL    HW119346   4.405   3.488   3.779
 6220SOL    HW219347   4.356   3.389   3.899
 6221SOL     OW19348   3.987   2.188   4.444
 6221SOL    HW119349   3.908   2.239   4.410
 6221SOL    HW219350   3.978   2.173   4.542
 6222SOL     OW19351   4.918   3.474   3.755
 6222SOL    HW119352   4.924   3.381   3.792
 6222SOL    HW219353   4.859   3.474   3.675
 6223SOL     OW19354   4.546   2.864   5.096
 6223SOL    HW119355   4.586   2.863   5.004
 6223SOL    HW219356   4.556   2.956   5.136
 6224SOL     OW19357   4.640   2.772   4.015
 6224SOL    HW119358   4.703   2.810   3.947
 6224SOL    HW219359   4.680   2.689   4.054
 6225SOL     OW19360   4.096   3.150   5.214
 6225SOL    HW119361   4.083   3.243   5.180
 6225SOL    HW219362   4.012   3.098   5.201
 6226SOL     OW19363   4.763   2.960   4.420
 6226SOL    HW119364   4.693   2.913   4.474
 6226SOL    HW219365   4.822   2.892   4.377
 6227SOL     OW19366   4.738   2.098   4.695
 6227SOL    HW119367   4.730   2.062   4.602
 6227SOL    HW219368   4.736   2.022   4.760
 6228SOL     OW19369   4.314   3.349   4.215
 6228SOL    HW119370   4.356   3.291   4.145
 6228SOL    HW219371   4.270   3.428   4.171
 6229SOL     OW19372   3.979   3.210   4.014
 6229SOL    HW119373   3.883   3.211   3.987
 6229SOL    HW219374   3.991   3.263   4.098
 6230SOL     OW19375   3.829   2.875   5.450
 6230SOL    HW119376   3.752   2.842   5.504
 6230SOL    HW219377   3.914   2.845   5.492
 6231SOL     OW19378   4.396   2.065   5.213
 6231SOL    HW119379   4.486   2.049   5.173
 6231SOL    HW219380   4.404   2.070   5.312
 6232SOL     OW19381   3.799   2.207   3.757
 6232SOL    HW119382   3.707   2.179   3.728
 6232SOL    HW219383   3.830   2.284   3.701
 6233SOL     OW19384   5.164   2.718   5.122
 6233SOL    HW119385   5.107   2.770   5.059
 6233SOL    HW219386   5.260   2.730   5.098
 6234SOL     OW19387   3.796   2.028   4.042
 6234SOL    HW119388   3.779   2.111   3.988
 6234SOL    HW219389   3.886   1.991   4.020
 6235SOL     OW19390   4.907   3.197   3.843
 6235SOL    HW119391   4.808   3.186   3.845
 6235SOL    HW219392   4.941   3.212   3.936
 6236SOL     OW19393   4.337   2.704   5.155
 6236SOL    HW119394   4.393   2.785   5.138
 6236SOL    HW219395   4.396   2.624   5.158
 6237SOL     OW19396   4.440   2.427   5.432
 6237SOL    HW119397   4.459   2.492   5.506
 6237SOL    HW219398   4.500   2.347   5.441
 6238SOL     OW19399   5.174   3.082   5.357
 6238SOL    HW119400   5.165   3.072   5.456
 6238SOL    HW219401   5.270   3.075   5.331
 6239SOL     OW19402   4.114   3.603   5.284
 6239SOL    HW119403   4.023   3.644   5.282
 6239SOL    HW219404   4.107   3.509   5.316
 6240SOL     OW19405   4.949   2.187   4.173
 6240SOL    HW119406   5.014   2.113   4.162
 6240SOL    HW219407   4.969   2.237   4.257
 6241SOL     OW19408   4.318   2.607   4.376
 6241SOL    HW119409   4.368   2.692   4.357
 6241SOL    HW219410   4.230   2.609   4.328
 6242SOL     OW19411   4.583   3.236   3.740
 6242SOL    HW119412   4.537   3.251   3.828
 6242SOL    HW219413   4.627   3.321   3.710
 6243SOL     OW19414   4.385   3.652   4.677
 6243SOL    HW119415   4.339   3.740   4.664
 6243SOL    HW219416   4.484   3.664   4.670
 6244SOL     OW19417   4.583   2.818   4.585
 6244SOL    HW119418   4.637   2.749   4.633
 6244SOL    HW219419   4.551   2.887   4.651
 6245SOL     OW19420   4.807   2.846   3.811
 6245SOL    HW119421   4.784   2.899   3.729
 6245SOL    HW219422   4.888   2.790   3.792
 6246SOL     OW19423   3.945   3.176   5.568
 6246SOL    HW119424   3.880   3.103   5.547
 6246SOL    HW219425   3.949   3.190   5.666
 6247SOL     OW19426   3.803   3.102   4.377
 6247SOL    HW119427   3.802   3.055   4.465
 6247SOL    HW219428   3.885   3.074   4.326
 6248SOL     OW19429   4.396   3.253   5.348
 6248SOL    HW119430   4.318   3.203   5.386
 6248SOL    HW219431   4.393   3.348   5.379
 6249SOL     OW19432   4.152   2.286   4.244
 6249SOL    HW119433   4.182   2.214   4.182
 6249SOL    HW219434   4.113   2.246   4.327
 6250SOL     OW19435   5.429   3.349   4.828
 6250SOL    HW119436   5.336   3.324   4.801
 6250SOL    HW219437   5.455   3.299   4.910
 6251SOL     OW19438   4.041   2.409   5.004
 6251SOL    HW119439   4.079   2.350   5.076
 6251SOL    HW219440   4.081   2.383   4.916
 6252SOL     OW19441   4.536   3.448   4.411
 6252SOL    HW119442   4.568   3.458   4.317
 6252SOL    HW219443   4.457   3.386   4.413
 6253SOL     OW19444   5.148   2.076   4.836
 6253SOL    HW119445   5.200   2.011   4.891
 6253SOL    HW219446   5.099   2.139   4.897
 6254SOL     OW19447   4.725   1.896   4.878
 6254SOL    HW119448   4.662   1.824   4.847
 6254SOL    HW219449   4.818   1.860   4.878
 6255SOL     OW19450   4.494   3.192   4.025
 6255SOL    HW119451   4.448   3.105   4.042
 6255SOL    HW219452   4.585   3.189   4.066
 6256SOL     OW19453   4.342   3.429   5.008
 6256SOL    HW119454   4.337   3.511   5.065
 6256SOL    HW219455   4.431   3.426   4.963
 6257SOL     OW19456   5.076   1.914   3.892
 6257SOL    HW119457   5.111   1.873   3.808
 6257SOL    HW219458   4.986   1.876   3.912
 6258SOL     OW19459   5.024   2.315   4.415
 6258SOL    HW119460   4.965   2.395   4.419
 6258SOL    HW219461   5.039   2.280   4.508
 6259SOL     OW19462   5.317   2.083   4.606
 6259SOL    HW119463   5.233   2.082   4.660
 6259SOL    HW219464   5.319   2.166   4.550
 6260SOL     OW19465   3.763   2.939   4.024
 6260SOL    HW119466   3.862   2.928   4.015
 6260SOL    HW219467   3.723   2.853   4.056
 6261SOL     OW19468   4.599   3.508   4.061
 6261SOL    HW119469   4.522   3.473   4.007
 6261SOL    HW219470   4.567   3.579   4.123
 6262SOL     OW19471   3.954   2.490   5.699
 6262SOL    HW119472   3.861   2.488   5.736
 6262SOL    HW219473   3.955   2.451   5.607
 6263SOL     OW19474   3.949   2.137   6.582
 6263SOL    HW119475   3.984   2.120   6.674
 6263SOL    HW219476   3.861   2.092   6.570
 6264SOL     OW19477   3.743   2.230   6.233
 6264SOL    HW119478   3.661   2.273   6.272
 6264SOL    HW219479   3.715   2.157   6.170
 6265SOL     OW19480   4.293   3.137   6.751
 6265SOL    HW119481   4.200   3.130   6.714
 6265SOL    HW219482   4.304   3.226   6.795
 6266SOL     OW19483   5.279   3.373   6.289
 6266SOL    HW119484   5.222   3.357   6.370
 6266SOL    HW219485   5.220   3.383   6.209
 6267SOL     OW19486   4.859   2.565   6.303
 6267SOL    HW119487   4.916   2.643   6.278
 6267SOL    HW219488   4.799   2.591   6.379
 6268SOL     OW19489   4.492   3.006   6.609
 6268SOL    HW119490   4.414   3.023   6.669
 6268SOL    HW219491   4.526   3.093   6.573
 6269SOL     OW19492   4.574   2.660   7.409
 6269SOL    HW119493   4.570   2.736   7.474
 6269SOL    HW219494   4.596   2.696   7.318
 6270SOL     OW19495   4.409   2.874   6.251
 6270SOL    HW119496   4.478   2.858   6.321
 6270SOL    HW219497   4.336   2.931   6.289
 6271SOL     OW19498   4.410   3.023   7.389
 6271SOL    HW119499   4.470   3.102   7.403
 6271SOL    HW219500   4.324   3.054   7.348
 6272SOL     OW19501   4.059   3.297   6.647
 6272SOL    HW119502   3.981   3.266   6.594
 6272SOL    HW219503   4.117   3.355   6.590
 6273SOL     OW19504   5.184   3.367   6.925
 6273SOL    HW119505   5.208   3.461   6.951
 6273SOL    HW219506   5.168   3.313   7.007
 6274SOL     OW19507   4.162   2.254   7.085
 6274SOL    HW119508   4.244   2.198   7.094
 6274SOL    HW219509   4.081   2.196   7.089
 6275SOL     OW19510   3.955   3.575   6.069
 6275SOL    HW119511   3.989   3.652   6.123
 6275SOL    HW219512   3.999   3.575   5.979
 6276SOL     OW19513   4.851   3.203   7.276
 6276SOL    HW119514   4.898   3.203   7.364
 6276SOL    HW219515   4.803   3.116   7.265
 6277SOL     OW19516   3.954   3.296   6.124
 6277SOL    HW119517   3.928   3.392   6.124
 6277SOL    HW219518   3.883   3.242   6.169
 6278SOL     OW19519   3.964   2.953   6.472
 6278SOL    HW119520   3.978   2.869   6.524
 6278SOL    HW219521   3.909   3.017   6.527
 6279SOL     OW19522   4.344   3.648   7.025
 6279SOL    HW119523   4.252   3.631   7.060
 6279SOL    HW219524   4.372   3.740   7.051
 6280SOL     OW19525   4.330   2.826   5.709
 6280SOL    HW119526   4.337   2.910   5.655
 6280SOL    HW219527   4.376   2.839   5.797
 6281SOL     OW19528   3.846   2.505   6.149
 6281SOL    HW119529   3.801   2.417   6.166
 6281SOL    HW219530   3.845   2.559   6.233
 6282SOL     OW19531   3.751   3.458   5.703
 6282SOL    HW119532   3.732   3.362   5.724
 6282SOL    HW219533   3.718   3.516   5.778
 6283SOL     OW19534   5.413   2.784   6.198
 6283SOL    HW119535   5.508   2.755   6.206
 6283SOL    HW219536   5.405   2.849   6.123
 6284SOL     OW19537   3.837   2.599   7.183
 6284SOL    HW119538   3.925   2.586   7.228
 6284SOL    HW219539   3.824   2.696   7.161
 6285SOL     OW19540   4.337   3.227   6.312
 6285SOL    HW119541   4.288   3.140   6.321
 6285SOL    HW219542   4.314   3.270   6.225
 6286SOL     OW19543   5.017   3.090   7.009
 6286SOL    HW119544   5.054   3.017   6.951
 6286SOL    HW219545   5.069   3.095   7.094
 6287SOL     OW19546   4.533   1.866   6.088
 6287SOL    HW119547   4.573   1.957   6.079
 6287SOL    HW219548   4.433   1.874   6.094
 6288SOL     OW19549   3.921   2.838   6.850
 6288SOL    HW119550   4.010   2.793   6.836
 6288SOL    HW219551   3.848   2.773   6.831
 6289SOL     OW19552   4.911   3.654   7.202
 6289SOL    HW119553   4.935   3.714   7.126
 6289SOL    HW219554   4.918   3.559   7.172
 6290SOL     OW19555   4.041   2.113   7.387
 6290SOL    HW119556   4.112   2.184   7.393
 6290SOL    HW219557   3.953   2.152   7.415
 6291SOL     OW19558   5.190   3.279   6.539
 6291SOL    HW119559   5.131   3.285   6.619
 6291SOL    HW219560   5.175   3.191   6.493
 6292SOL     OW19561   4.322   2.591   5.856
 6292SOL    HW119562   4.346   2.660   5.788
 6292SOL    HW219563   4.244   2.624   5.910
 6293SOL     OW19564   5.005   2.207   6.530
 6293SOL    HW119565   4.919   2.157   6.517
 6293SOL    HW219566   5.067   2.153   6.586
 6294SOL     OW19567   4.531   2.467   7.051
 6294SOL    HW119568   4.484   2.464   7.140
 6294SOL    HW219569   4.480   2.412   6.985
 6295SOL     OW19570   5.118   2.331   7.260
 6295SOL    HW119571   5.098   2.374   7.348
 6295SOL    HW219572   5.196   2.269   7.269
 6296SOL     OW19573   4.697   2.752   7.158
 6296SOL    HW119574   4.743   2.668   7.129
 6296SOL    HW219575   4.641   2.786   7.083
 6297SOL     OW19576   4.715   2.272   6.828
 6297SOL    HW119577   4.638   2.306   6.882
 6297SOL    HW219578   4.681   2.221   6.749
 6298SOL     OW19579   4.765   2.563   6.015
 6298SOL    HW119580   4.791   2.559   6.111
 6298SOL    HW219581   4.680   2.512   6.001
 6299SOL     OW19582   3.800   2.673   6.375
 6299SOL    HW119583   3.899   2.661   6.384
 6299SOL    HW219584   3.776   2.768   6.396
 6300SOL     OW19585   3.854   3.683   7.157
 6300SOL    HW119586   3.844   3.668   7.256
 6300SOL    HW219587   3.768   3.719   7.121
 6301SOL     OW19588   4.589   2.210   5.781
 6301SOL    HW119589   4.648   2.273   5.732
 6301SOL    HW219590   4.608   2.116   5.752
 6302SOL     OW19591   5.086   3.006   6.131
 6302SOL    HW119592   5.169   2.977   6.083
 6302SOL    HW219593   5.037   3.073   6.075
 6303SOL     OW19594   4.274   2.058   6.471
 6303SOL    HW119595   4.269   2.053   6.571
 6303SOL    HW219596   4.276   2.154   6.442
 6304SOL     OW19597   4.732   3.318   6.063
 6304SOL    HW119598   4.686   3.390   6.011
 6304SOL    HW219599   4.728   3.338   6.161
 6305SOL     OW19600   4.075   3.663   6.439
 6305SOL    HW119601   4.125   3.577   6.445
 6305SOL    HW219602   4.140   3.740   6.436
 6306SOL     OW19603   4.951   3.412   7.092
 6306SOL    HW119604   4.957   3.335   7.156
 6306SOL    HW219605   4.899   3.386   7.012
 6307SOL     OW19606   4.045   2.805   5.828
 6307SOL    HW119607   4.127   2.844   5.786
 6307SOL    HW219608   4.018   2.723   5.779
 6308SOL     OW19609   4.185   3.128   7.313
 6308SOL    HW119610   4.135   3.129   7.227
 6308SOL    HW219611   4.122   3.110   7.389
 6309SOL     OW19612   4.835   3.638   5.823
 6309SOL    HW119613   4.775   3.576   5.873
 6309SOL    HW219614   4.866   3.594   5.738
 6310SOL     OW19615   3.926   2.147   7.084
 6310SOL    HW119616   3.846   2.207   7.071
 6310SOL    HW219617   3.916   2.098   7.170
 6311SOL     OW19618   4.188   3.605   5.909
 6311SOL    HW119619   4.221   3.644   5.995
 6311SOL    HW219620   4.264   3.598   5.844
 6312SOL     OW19621   5.124   1.969   6.012
 6312SOL    HW119622   5.100   1.932   5.922
 6312SOL    HW219623   5.223   1.985   6.016
 6313SOL     OW19624   3.973   3.647   6.827
 6313SOL    HW119625   4.030   3.582   6.877
 6313SOL    HW219626   3.957   3.614   6.734
 6314SOL     OW19627   4.664   3.560   6.490
 6314SOL    HW119628   4.744   3.503   6.511
 6314SOL    HW219629   4.615   3.520   6.413
 6315SOL     OW19630   4.106   2.562   6.066
 6315SOL    HW119631   4.151   2.472   6.063
 6315SOL    HW219632   4.012   2.551   6.099
 6316SOL     OW19633   4.338   1.984   5.703
 6316SOL    HW119634   4.436   1.962   5.710
 6316SOL    HW219635   4.307   1.967   5.610
 6317SOL     OW19636   4.505   2.126   7.335
 6317SOL    HW119637   4.572   2.065   7.378
 6317SOL    HW219638   4.432   2.145   7.400
 6318SOL     OW19639   4.612   3.376   6.781
 6318SOL    HW119640   4.589   3.351   6.687
 6318SOL    HW219641   4.673   3.307   6.820
 6319SOL     OW19642   5.075   2.452   7.019
 6319SOL    HW119643   5.103   2.409   7.104
 6319SOL    HW219644   5.100   2.548   7.020
 6320SOL     OW19645   4.527   3.264   6.510
 6320SOL    HW119646   4.617   3.278   6.468
 6320SOL    HW219647   4.456   3.266   6.439
 6321SOL     OW19648   4.646   2.365   6.485
 6321SOL    HW119649   4.621   2.356   6.389
 6321SOL    HW219650   4.694   2.283   6.516
 6322SOL     OW19651   4.263   1.926   6.098
 6322SOL    HW119652   4.182   1.927   6.156
 6322SOL    HW219653   4.266   2.009   6.043
 6323SOL     OW19654   5.158   3.050   5.627
 6323SOL    HW119655   5.190   2.974   5.684
 6323SOL    HW219656   5.066   3.077   5.657
 6324SOL     OW19657   4.021   1.897   5.757
 6324SOL    HW119658   4.070   1.981   5.736
 6324SOL    HW219659   4.083   1.832   5.802
 6325SOL     OW19660   4.659   2.098   6.066
 6325SOL    HW119661   4.611   2.139   5.988
 6325SOL    HW219662   4.758   2.096   6.047
 6326SOL     OW19663   4.800   2.545   7.050
 6326SOL    HW119664   4.720   2.484   7.053
 6326SOL    HW219665   4.881   2.492   7.026
 6327SOL     OW19666   4.951   3.432   6.379
 6327SOL    HW119667   4.972   3.506   6.314
 6327SOL    HW219668   5.019   3.432   6.452
 6328SOL     OW19669   4.183   3.014   6.327
 6328SOL    HW119670   4.112   2.987   6.392
 6328SOL    HW219671   4.157   2.986   6.234
 6329SOL     OW19672   4.995   3.659   6.177
 6329SOL    HW119673   5.039   3.723   6.113
 6329SOL    HW219674   4.945   3.711   6.247
 6330SOL     OW19675   4.756   2.411   5.602
 6330SOL    HW119676   4.715   2.493   5.563
 6330SOL    HW219677   4.820   2.437   5.675
 6331SOL     OW19678   3.802   2.418   6.972
 6331SOL    HW119679   3.894   2.417   6.931
 6331SOL    HW219680   3.796   2.492   7.039
 6332SOL     OW19681   4.285   2.084   6.733
 6332SOL    HW119682   4.323   2.000   6.770
 6332SOL    HW219683   4.197   2.103   6.777
 6333SOL     OW19684   4.590   2.316   6.228
 6333SOL    HW119685   4.558   2.388   6.166
 6333SOL    HW219686   4.614   2.235   6.175
 6334SOL     OW19687   4.741   1.901   6.339
 6334SOL    HW119688   4.669   1.906   6.270
 6334SOL    HW219689   4.717   1.832   6.408
 6335SOL     OW19690   5.153   3.035   6.453
 6335SOL    HW119691   5.098   2.951   6.446
 6335SOL    HW219692   5.179   3.064   6.361
 6336SOL     OW19693   4.212   3.247   5.760
 6336SOL    HW119694   4.125   3.232   5.807
 6336SOL    HW219695   4.195   3.273   5.665
 6337SOL     OW19696   5.114   2.437   5.664
 6337SOL    HW119697   5.060   2.416   5.745
 6337SOL    HW219698   5.205   2.396   5.673
 6338SOL     OW19699   4.251   2.118   5.914
 6338SOL    HW119700   4.278   2.059   5.839
 6338SOL    HW219701   4.251   2.213   5.883
 6339SOL     OW19702   4.788   3.209   6.926
 6339SOL    HW119703   4.708   3.186   6.981
 6339SOL    HW219704   4.871   3.183   6.975
 6340SOL     OW19705   5.316   3.491   7.211
 6340SOL    HW119706   5.343   3.525   7.121
 6340SOL    HW219707   5.395   3.453   7.257
 6341SOL     OW19708   4.835   3.057   6.686
 6341SOL    HW119709   4.795   3.101   6.767
 6341SOL    HW219710   4.794   3.094   6.603
 6342SOL     OW19711   4.639   1.951   6.988
 6342SOL    HW119712   4.664   1.931   6.893
 6342SOL    HW219713   4.711   2.007   7.030
 6343SOL     OW19714   4.704   2.978   7.305
 6343SOL    HW119715   4.605   2.984   7.315
 6343SOL    HW219716   4.727   2.898   7.249
 6344SOL     OW19717   4.429   2.912   5.954
 6344SOL    HW119718   4.415   2.919   6.053
 6344SOL    HW219719   4.513   2.861   5.936
 6345SOL     OW19720   4.134   2.675   6.837
 6345SOL    HW119721   4.220   2.687   6.887
 6345SOL    HW219722   4.092   2.588   6.864
 6346SOL     OW19723   4.998   2.248   6.848
 6346SOL    HW119724   5.019   2.322   6.912
 6346SOL    HW219725   4.909   2.265   6.805
 6347SOL     OW19726   3.788   3.426   6.917
 6347SOL    HW119727   3.742   3.508   6.883
 6347SOL    HW219728   3.886   3.445   6.926
 6348SOL     OW19729   4.091   2.962   6.087
 6348SOL    HW119730   4.084   3.045   6.031
 6348SOL    HW219731   4.095   2.882   6.027
 6349SOL     OW19732   4.290   2.399   6.451
 6349SOL    HW119733   4.302   2.465   6.377
 6349SOL    HW219734   4.336   2.433   6.534
 6350SOL     OW19735   4.976   3.210   5.974
 6350SOL    HW119736   5.026   3.287   6.014
 6350SOL    HW219737   4.881   3.212   6.006
 6351SOL     OW19738   4.996   3.307   6.728
 6351SOL    HW119739   5.043   3.320   6.815
 6351SOL    HW219740   4.930   3.233   6.737
 6352SOL     OW19741   4.078   3.372   6.915
 6352SOL    HW119742   4.057   3.328   6.828
 6352SOL    HW219743   4.175   3.398   6.918
 6353SOL     OW19744   4.126   2.613   7.184
 6353SOL    HW119745   4.194   2.668   7.137
 6353SOL    HW219746   4.166   2.525   7.211
 6354SOL     OW19747   4.737   1.967   7.356
 6354SOL    HW119748   4.743   2.052   7.304
 6354SOL    HW219749   4.769   1.891   7.299
 6355SOL     OW19750   4.228   1.912   7.326
 6355SOL    HW119751   4.186   1.855   7.256
 6355SOL    HW219752   4.162   1.981   7.358
 6356SOL     OW19753   4.297   2.732   6.615
 6356SOL    HW119754   4.341   2.821   6.606
 6356SOL    HW219755   4.234   2.732   6.692
 6357SOL     OW19756   5.084   2.724   6.631
 6357SOL    HW119757   5.009   2.724   6.565
 6357SOL    HW219758   5.121   2.632   6.640
 6358SOL     OW19759   4.933   2.387   5.861
 6358SOL    HW119760   4.946   2.303   5.915
 6358SOL    HW219761   4.904   2.461   5.921
 6359SOL     OW19762   4.031   2.075   6.817
 6359SOL    HW119763   4.008   2.112   6.907
 6359SOL    HW219764   4.001   1.980   6.811
 6360SOL     OW19765   3.761   3.172   6.868
 6360SOL    HW119766   3.814   3.123   6.936
 6360SOL    HW219767   3.783   3.270   6.873
 6361SOL     OW19768   4.456   2.496   6.650
 6361SOL    HW119769   4.515   2.470   6.574
 6361SOL    HW219770   4.428   2.592   6.639
 6362SOL     OW19771   4.031   1.925   6.204
 6362SOL    HW119772   4.020   2.019   6.237
 6362SOL    HW219773   4.026   1.862   6.281
 6363SOL     OW19774   5.346   2.229   5.960
 6363SOL    HW119775   5.348   2.153   6.024
 6363SOL    HW219776   5.298   2.306   6.000
 6364SOL     OW19777   4.747   2.628   6.552
 6364SOL    HW119778   4.762   2.649   6.648
 6364SOL    HW219779   4.717   2.533   6.543
 6365SOL     OW19780   4.704   3.435   7.286
 6365SOL    HW119781   4.684   3.479   7.198
 6365SOL    HW219782   4.743   3.344   7.270
 6366SOL     OW19783   4.074   2.760   7.390
 6366SOL    HW119784   4.150   2.804   7.438
 6366SOL    HW219785   4.109   2.713   7.308
 6367SOL     OW19786   5.027   2.700   5.628
 6367SOL    HW119787   5.061   2.607   5.643
 6367SOL    HW219788   5.045   2.727   5.533
 6368SOL     OW19789   4.792   3.195   6.435
 6368SOL    HW119790   4.799   3.111   6.380
 6368SOL    HW219791   4.854   3.264   6.399
 6369SOL     OW19792   4.043   2.672   6.535
 6369SOL    HW119793   4.136   2.708   6.540
 6369SOL    HW219794   4.037   2.587   6.587
 6370SOL     OW19795   4.063   2.371   6.592
 6370SOL    HW119796   4.011   2.288   6.575
 6370SOL    HW219797   4.140   2.376   6.528
 6371SOL     OW19798   4.862   2.242   7.264
 6371SOL    HW119799   4.817   2.305   7.328
 6371SOL    HW219800   4.955   2.273   7.247
 6372SOL     OW19801   4.884   2.069   7.063
 6372SOL    HW119802   4.884   2.133   7.140
 6372SOL    HW219803   4.912   2.117   6.980
 6373SOL     OW19804   3.732   3.188   5.786
 6373SOL    HW119805   3.639   3.209   5.755
 6373SOL    HW219806   3.742   3.089   5.799
 6374SOL     OW19807   3.812   3.663   6.513
 6374SOL    HW119808   3.770   3.577   6.486
 6374SOL    HW219809   3.906   3.666   6.479
 6375SOL     OW19810   4.228   3.430   6.496
 6375SOL    HW119811   4.294   3.504   6.505
 6375SOL    HW219812   4.272   3.351   6.454
 6376SOL     OW19813   4.726   2.658   6.824
 6376SOL    HW119814   4.767   2.626   6.910
 6376SOL    HW219815   4.630   2.631   6.821
 6377SOL     OW19816   3.764   2.406   6.700
 6377SOL    HW119817   3.849   2.373   6.659
 6377SOL    HW219818   3.777   2.421   6.798
 6378SOL     OW19819   3.913   2.382   7.308
 6378SOL    HW119820   3.972   2.342   7.238
 6378SOL    HW219821   3.855   2.453   7.267
 6379SOL     OW19822   5.093   2.812   7.246
 6379SOL    HW119823   5.132   2.901   7.266
 6379SOL    HW219824   5.103   2.792   7.149
 6380SOL     OW19825   4.539   2.434   5.911
 6380SOL    HW119826   4.546   2.345   5.865
 6380SOL    HW219827   4.445   2.468   5.903
 6381SOL     OW19828   3.976   3.426   7.330
 6381SOL    HW119829   3.946   3.483   7.406
 6381SOL    HW219830   3.969   3.329   7.356
 6382SOL     OW19831   4.395   2.326   6.855
 6382SOL    HW119832   4.361   2.237   6.825
 6382SOL    HW219833   4.421   2.380   6.775
 6383SOL     OW19834   4.654   3.540   7.051
 6383SOL    HW119835   4.630   3.522   6.956
 6383SOL    HW219836   4.684   3.634   7.061
 6384SOL     OW19837   4.197   2.362   5.777
 6384SOL    HW119838   4.258   2.442   5.781
 6384SOL    HW219839   4.102   2.393   5.784
 6385SOL     OW19840   3.883   2.999   7.052
 6385SOL    HW119841   3.905   2.938   7.128
 6385SOL    HW219842   3.893   2.950   6.966
 6386SOL     OW19843   5.071   2.921   6.820
 6386SOL    HW119844   5.095   2.858   6.746
 6386SOL    HW219845   4.981   2.961   6.802
 6387SOL     OW19846   5.026   2.717   5.895
 6387SOL    HW119847   4.940   2.686   5.937
 6387SOL    HW219848   5.022   2.703   5.796
 6388SOL     OW19849   4.976   3.593   6.714
 6388SOL    HW119850   5.060   3.598   6.660
 6388SOL    HW219851   4.953   3.497   6.732
 6389SOL     OW19852   3.807   3.120   6.608
 6389SOL    HW119853   3.802   3.119   6.708
 6389SOL    HW219854   3.724   3.079   6.570
 6390SOL     OW19855   4.412   3.524   7.302
 6390SOL    HW119856   4.356   3.605   7.311
 6390SOL    HW219857   4.464   3.528   7.216
 6391SOL     OW19858   5.450   1.997   6.109
 6391SOL    HW119859   5.523   1.980   6.042
 6391SOL    HW219860   5.419   1.910   6.147
 6392SOL     OW19861   5.112   3.435   6.063
 6392SOL    HW119862   5.179   3.447   5.989
 6392SOL    HW219863   5.072   3.524   6.086
 6393SOL     OW19864   3.854   3.656   7.437
 6393SOL    HW119865   3.813   3.582   7.490
 6393SOL    HW219866   3.918   3.707   7.495
 6394SOL     OW19867   5.004   2.789   6.258
 6394SOL    HW119868   5.064   2.708   6.260
 6394SOL    HW219869   5.044   2.858   6.198
 6395SOL     OW19870   4.554   3.135   7.008
 6395SOL    HW119871   4.549   3.168   7.103
 6395SOL    HW219872   4.468   3.154   6.962
 6396SOL     OW19873   4.396   3.478   5.740
 6396SOL    HW119874   4.405   3.488   5.641
 6396SOL    HW219875   4.356   3.389   5.761
 6397SOL     OW19876   3.987   2.188   6.306
 6397SOL    HW119877   3.908   2.239   6.272
 6397SOL    HW219878   3.978   2.173   6.404
 6398SOL     OW19879   4.918   3.474   5.617
 6398SOL    HW119880   4.924   3.381   5.654
 6398SOL    HW219881   4.859   3.474   5.537
 6399SOL     OW19882   4.546   2.864   6.958
 6399SOL    HW119883   4.586   2.863   6.866
 6399SOL    HW219884   4.556   2.956   6.998
 6400SOL     OW19885   4.640   2.772   5.877
 6400SOL    HW119886   4.703   2.810   5.809
 6400SOL    HW219887   4.680   2.689   5.916
 6401SOL     OW19888   4.096   3.150   7.076
 6401SOL    HW119889   4.083   3.243   7.042
 6401SOL    HW219890   4.012   3.098   7.063
 6402SOL     OW19891   4.763   2.960   6.282
 6402SOL    HW119892   4.693   2.913   6.336
 6402SOL    HW219893   4.822   2.892   6.239
 6403SOL     OW19894   4.738   2.098   6.557
 6403SOL    HW119895   4.730   2.062   6.464
 6403SOL    HW219896   4.736   2.022   6.622
 6404SOL     OW19897   4.314   3.349   6.077
 6404SOL    HW119898   4.356   3.291   6.007
 6404SOL    HW219899   4.270   3.428   6.033
 6405SOL     OW19900   3.979   3.210   5.876
 6405SOL    HW119901   3.883   3.211   5.849
 6405SOL    HW219902   3.991   3.263   5.960
 6406SOL     OW19903   3.829   2.875   7.312
 6406SOL    HW119904   3.752   2.842   7.366
 6406SOL    HW219905   3.914   2.845   7.354
 6407SOL     OW19906   4.396   2.065   7.075
 6407SOL    HW119907   4.486   2.049   7.035
 6407SOL    HW219908   4.404   2.070   7.174
 6408SOL     OW19909   3.799   2.207   5.619
 6408SOL    HW119910   3.707   2.179   5.590
 6408SOL    HW219911   3.830   2.284   5.563
 6409SOL     OW19912   5.164   2.718   6.984
 6409SOL    HW119913   5.107   2.770   6.921
 6409SOL    HW219914   5.260   2.730   6.960
 6410SOL     OW19915   3.796   2.028   5.904
 6410SOL    HW119916   3.779   2.111   5.850
 6410SOL    HW219917   3.886   1.991   5.882
 6411SOL     OW19918   4.907   3.197   5.705
 6411SOL    HW119919   4.808   3.186   5.707
 6411SOL    HW219920   4.941   3.212   5.798
 6412SOL     OW19921   4.337   2.704   7.017
 6412SOL    HW119922   4.393   2.785   7.000
 6412SOL    HW219923   4.396   2.624   7.020
 6413SOL     OW19924   4.440   2.427   7.294
 6413SOL    HW119925   4.459   2.492   7.368
 6413SOL    HW219926   4.500   2.347   7.303
 6414SOL     OW19927   5.174   3.082   7.219
 6414SOL    HW119928   5.165   3.072   7.318
 6414SOL    HW219929   5.270   3.075   7.193
 6415SOL     OW19930   4.114   3.603   7.146
 6415SOL    HW119931   4.023   3.644   7.144
 6415SOL    HW219932   4.107   3.509   7.178
 6416SOL     OW19933   4.949   2.187   6.035
 6416SOL    HW119934   5.014   2.113   6.024
 6416SOL    HW219935   4.969   2.237   6.119
 6417SOL     OW19936   4.318   2.607   6.238
 6417SOL    HW119937   4.368   2.692   6.219
 6417SOL    HW219938   4.230   2.609   6.190
 6418SOL     OW19939   4.583   3.236   5.602
 6418SOL    HW119940   4.537   3.251   5.690
 6418SOL    HW219941   4.627   3.321   5.572
 6419SOL     OW19942   4.385   3.652   6.539
 6419SOL    HW119943   4.339   3.740   6.526
 6419SOL    HW219944   4.484   3.664   6.532
 6420SOL     OW19945   4.583   2.818   6.447
 6420SOL    HW119946   4.637   2.749   6.495
 6420SOL    HW219947   4.551   2.887   6.513
 6421SOL     OW19948   4.807   2.846   5.673
 6421SOL    HW119949   4.784   2.899   5.591
 6421SOL    HW219950   4.888   2.790   5.654
 6422SOL     OW19951   3.945   3.176   7.430
 6422SOL    HW119952   3.880   3.103   7.409
 6422SOL    HW219953   3.949   3.190   7.528
 6423SOL     OW19954   3.803   3.102   6.239
 6423SOL    HW119955   3.802   3.055   6.327
 6423SOL    HW219956   3.885   3.074   6.188
 6424SOL     OW19957   4.396   3.253   7.210
 6424SOL    HW119958   4.318   3.203   7.248
 6424SOL    HW219959   4.393   3.348   7.241
 6425SOL     OW19960   4.152   2.286   6.106
 6425SOL    HW119961   4.182   2.214   6.044
 6425SOL    HW219962   4.113   2.246   6.189
 6426SOL     OW19963   5.429   3.349   6.690
 6426SOL    HW119964   5.336   3.324   6.663
 6426SOL    HW219965   5.455   3.299   6.772
 6427SOL     OW19966   4.041   2.409   6.866
 6427SOL    HW119967   4.079   2.350   6.938
 6427SOL    HW219968   4.081   2.383   6.778
 6428SOL     OW19969   4.536   3.448   6.273
 6428SOL    HW119970   4.568   3.458   6.179
 6428SOL    HW219971   4.457   3.386   6.275
 6429SOL     OW19972   5.148   2.076   6.698
 6429SOL    HW119973   5.200   2.011   6.753
 6429SOL    HW219974   5.099   2.139   6.759
 6430SOL     OW19975   4.725   1.896   6.740
 6430SOL    HW119976   4.662   1.824   6.709
 6430SOL    HW219977   4.818   1.860   6.740
 6431SOL     OW19978   4.494   3.192   5.887
 6431SOL    HW119979   4.448   3.105   5.904
 6431SOL    HW219980   4.585   3.189   5.928
 6432SOL     OW19981   4.342   3.429   6.870
 6432SOL    HW119982   4.337   3.511   6.927
 6432SOL    HW219983   4.431   3.426   6.825
 6433SOL     OW19984   5.076   1.914   5.754
 6433SOL    HW119985   5.111   1.873   5.670
 6433SOL    HW219986   4.986   1.876   5.774
 6434SOL     OW19987   5.024   2.315   6.277
 6434SOL    HW119988   4.965   2.395   6.281
 6434SOL    HW219989   5.039   2.280   6.370
 6435SOL     OW19990   5.317   2.083   6.468
 6435SOL    HW119991   5.233   2.082   6.522
 6435SOL    HW219992   5.319   2.166   6.412
 6436SOL     OW19993   3.763   2.939   5.886
 6436SOL    HW119994   3.862   2.928   5.877
 6436SOL    HW219995   3.723   2.853   5.918
 6437SOL     OW19996   4.599   3.508   5.923
 6437SOL    HW119997   4.522   3.473   5.869
 6437SOL    HW219998   4.567   3.579   5.985
 6438SOL     OW19999   3.954   2.490   7.561
 6438SOL    HW120000   3.861   2.488   7.598
 6438SOL    HW220001   3.955   2.451   7.469
 6439SOL     OW20002   3.955   3.575   7.931
 6439SOL    HW120003   3.989   3.652   7.985
 6439SOL    HW220004   3.999   3.575   7.841
 6440SOL     OW20005   3.954   3.296   7.986
 6440SOL    HW120006   3.928   3.392   7.986
 6440SOL    HW220007   3.883   3.242   8.031
 6441SOL     OW20008   4.330   2.826   7.571
 6441SOL    HW120009   4.337   2.910   7.517
 6441SOL    HW220010   4.376   2.839   7.659
 6442SOL     OW20011   3.751   3.458   7.565
 6442SOL    HW120012   3.732   3.362   7.586
 6442SOL    HW220013   3.718   3.516   7.640
 6443SOL     OW20014   5.413   2.784   8.060
 6443SOL    HW120015   5.508   2.755   8.068
 6443SOL    HW220016   5.405   2.849   7.985
 6444SOL     OW20017   4.533   1.866   7.950
 6444SOL    HW120018   4.573   1.957   7.941
 6444SOL    HW220019   4.433   1.874   7.956
 6445SOL     OW20020   4.322   2.591   7.718
 6445SOL    HW120021   4.346   2.660   7.650
 6445SOL    HW220022   4.244   2.624   7.772
 6446SOL     OW20023   3.800   2.673   8.237
 6446SOL    HW120024   3.899   2.661   8.246
 6446SOL    HW220025   3.776   2.768   8.258
 6447SOL     OW20026   4.589   2.210   7.643
 6447SOL    HW120027   4.648   2.273   7.594
 6447SOL    HW220028   4.608   2.116   7.614
 6448SOL     OW20029   4.045   2.805   7.690
 6448SOL    HW120030   4.127   2.844   7.648
 6448SOL    HW220031   4.018   2.723   7.641
 6449SOL     OW20032   4.835   3.638   7.685
 6449SOL    HW120033   4.775   3.576   7.735
 6449SOL    HW220034   4.866   3.594   7.600
 6450SOL     OW20035   4.188   3.605   7.771
 6450SOL    HW120036   4.221   3.644   7.857
 6450SOL    HW220037   4.264   3.598   7.706
 6451SOL     OW20038   5.124   1.969   7.874
 6451SOL    HW120039   5.100   1.932   7.784
 6451SOL    HW220040   5.223   1.985   7.878
 6452SOL     OW20041   4.106   2.562   7.928
 6452SOL    HW120042   4.151   2.472   7.925
 6452SOL    HW220043   4.012   2.551   7.961
 6453SOL     OW20044   4.338   1.984   7.565
 6453SOL    HW120045   4.436   1.962   7.572
 6453SOL    HW220046   4.307   1.967   7.472
 6454SOL     OW20047   4.263   1.926   7.960
 6454SOL    HW120048   4.182   1.927   8.018
 6454SOL    HW220049   4.266   2.009   7.905
 6455SOL     OW20050   5.158   3.050   7.489
 6455SOL    HW120051   5.190   2.974   7.546
 6455SOL    HW220052   5.066   3.077   7.519
 6456SOL     OW20053   4.021   1.897   7.619
 6456SOL    HW120054   4.070   1.981   7.598
 6456SOL    HW220055   4.083   1.832   7.664
 6457SOL     OW20056   4.659   2.098   7.928
 6457SOL    HW120057   4.611   2.139   7.850
 6457SOL    HW220058   4.758   2.096   7.909
 6458SOL     OW20059   4.183   3.014   8.189
 6458SOL    HW120060   4.112   2.987   8.254
 6458SOL    HW220061   4.157   2.986   8.096
 6459SOL     OW20062   4.995   3.659   8.039
 6459SOL    HW120063   5.039   3.723   7.975
 6459SOL    HW220064   4.945   3.711   8.109
 6460SOL     OW20065   4.756   2.411   7.464
 6460SOL    HW120066   4.715   2.493   7.425
 6460SOL    HW220067   4.820   2.437   7.537
 6461SOL     OW20068   4.212   3.247   7.622
 6461SOL    HW120069   4.125   3.232   7.669
 6461SOL    HW220070   4.195   3.273   7.527
 6462SOL     OW20071   5.114   2.437   7.526
 6462SOL    HW120072   5.060   2.416   7.607
 6462SOL    HW220073   5.205   2.396   7.535
 6463SOL     OW20074   4.251   2.118   7.776
 6463SOL    HW120075   4.278   2.059   7.701
 6463SOL    HW220076   4.251   2.213   7.745
 6464SOL     OW20077   4.429   2.912   7.816
 6464SOL    HW120078   4.415   2.919   7.915
 6464SOL    HW220079   4.513   2.861   7.798
 6465SOL     OW20080   4.091   2.962   7.949
 6465SOL    HW120081   4.084   3.045   7.893
 6465SOL    HW220082   4.095   2.882   7.889
 6466SOL     OW20083   4.976   3.210   7.836
 6466SOL    HW120084   5.026   3.287   7.876
 6466SOL    HW220085   4.881   3.212   7.868
 6467SOL     OW20086   5.306   2.501   7.920
 6467SOL    HW120087   5.275   2.562   7.993
 6467SOL    HW220088   5.356   2.553   7.851
 6468SOL     OW20089   4.933   2.387   7.723
 6468SOL    HW120090   4.946   2.303   7.777
 6468SOL    HW220091   4.904   2.461   7.783
 6469SOL     OW20092   5.346   2.229   7.822
 6469SOL    HW120093   5.348   2.153   7.886
 6469SOL    HW220094   5.298   2.306   7.862
 6470SOL     OW20095   5.027   2.700   7.490
 6470SOL    HW120096   5.061   2.607   7.505
 6470SOL    HW220097   5.045   2.727   7.395
 6471SOL     OW20098   3.732   3.188   7.648
 6471SOL    HW120099   3.639   3.209   7.617
 6471SOL    HW220100   3.742   3.089   7.661
 6472SOL     OW20101   4.539   2.434   7.773
 6472SOL    HW120102   4.546   2.345   7.727
 6472SOL    HW220103   4.445   2.468   7.765
 6473SOL     OW20104   4.197   2.362   7.639
 6473SOL    HW120105   4.258   2.442   7.643
 6473SOL    HW220106   4.102   2.393   7.646
 6474SOL     OW20107   5.026   2.717   7.757
 6474SOL    HW120108   4.940   2.686   7.799
 6474SOL    HW220109   5.022   2.703   7.658
 6475SOL     OW20110   5.450   1.997   7.971
 6475SOL    HW120111   5.523   1.980   7.904
 6475SOL    HW220112   5.419   1.910   8.009
 6476SOL     OW20113   5.112   3.435   7.925
 6476SOL    HW120114   5.179   3.447   7.851
 6476SOL    HW220115   5.072   3.524   7.948
 6477SOL     OW20116   4.396   3.478   7.602
 6477SOL    HW120117   4.405   3.488   7.503
 6477SOL    HW220118   4.356   3.389   7.623
 6478SOL     OW20119   4.918   3.474   7.479
 6478SOL    HW120120   4.924   3.381   7.516
 6478SOL    HW220121   4.859   3.474   7.399
 6479SOL     OW20122   4.640   2.772   7.739
 6479SOL    HW120123   4.703   2.810   7.671
 6479SOL    HW220124   4.680   2.689   7.778
 6480SOL     OW20125   4.314   3.349   7.939
 6480SOL    HW120126   4.356   3.291   7.869
 6480SOL    HW220127   4.270   3.428   7.895
 6481SOL     OW20128   3.979   3.210   7.738
 6481SOL    HW120129   3.883   3.211   7.711
 6481SOL    HW220130   3.991   3.263   7.822
 6482SOL     OW20131   3.799   2.207   7.481
 6482SOL    HW120132   3.707   2.179   7.452
 6482SOL    HW220133   3.830   2.284   7.425
 6483SOL     OW20134   3.796   2.028   7.766
 6483SOL    HW120135   3.779   2.111   7.712
 6483SOL    HW220136   3.886   1.991   7.744
 6484SOL     OW20137   4.907   3.197   7.567
 6484SOL    HW120138   4.808   3.186   7.569
 6484SOL    HW220139   4.941   3.212   7.660
 6485SOL     OW20140   5.217   3.629   8.407
 6485SOL    HW120141   5.250   3.693   8.338
 6485SOL    HW220142   5.283   3.623   8.482
 6486SOL     OW20143   4.949   2.187   7.897
 6486SOL    HW120144   5.014   2.113   7.886
 6486SOL    HW220145   4.969   2.237   7.981
 6487SOL     OW20146   4.318   2.607   8.100
 6487SOL    HW120147   4.368   2.692   8.081
 6487SOL    HW220148   4.230   2.609   8.052
 6488SOL     OW20149   4.583   3.236   7.464
 6488SOL    HW120150   4.537   3.251   7.552
 6488SOL    HW220151   4.627   3.321   7.434
 6489SOL     OW20152   4.807   2.846   7.535
 6489SOL    HW120153   4.784   2.899   7.453
 6489SOL    HW220154   4.888   2.790   7.516
 6490SOL     OW20155   4.152   2.286   7.968
 6490SOL    HW120156   4.182   2.214   7.906
 6490SOL    HW220157   4.113   2.246   8.051
 6491SOL     OW20158   4.494   3.192   7.749
 6491SOL    HW120159   4.448   3.105   7.766
 6491SOL    HW220160   4.585   3.189   7.790
 6492SOL     OW20161   5.076   1.914   7.616
 6492SOL    HW120162   5.111   1.873   7.532
 6492SOL    HW220163   4.986   1.876   7.636
 6493SOL     OW20164   3.763   2.939   7.748
 6493SOL    HW120165   3.862   2.928   7.739
 6493SOL    HW220166   3.723   2.853   7.780
 6494SOL     OW20167   4.599   3.508   7.785
 6494SOL    HW120168   4.522   3.473   7.731
 6494SOL    HW220169   4.567   3.579   7.847
 6495SOL     OW20170   3.954   4.352   0.113
 6495SOL    HW120171   3.861   4.350   0.150
 6495SOL    HW220172   3.955   4.313   0.021
 6496SOL     OW20173   3.949   3.999   0.996
 6496SOL    HW120174   3.984   3.982   1.088
 6496SOL    HW220175   3.861   3.954   0.984
 6497SOL     OW20176   3.743   4.092   0.647
 6497SOL    HW120177   3.661   4.135   0.686
 6497SOL    HW220178   3.715   4.019   0.584
 6498SOL     OW20179   4.293   4.999   1.165
 6498SOL    HW120180   4.200   4.992   1.128
 6498SOL    HW220181   4.304   5.088   1.209
 6499SOL     OW20182   5.279   5.235   0.703
 6499SOL    HW120183   5.222   5.219   0.784
 6499SOL    HW220184   5.220   5.245   0.623
 6500SOL     OW20185   4.859   4.427   0.717
 6500SOL    HW120186   4.916   4.505   0.692
 6500SOL    HW220187   4.799   4.453   0.793
 6501SOL     OW20188   4.492   4.868   1.023
 6501SOL    HW120189   4.414   4.885   1.083
 6501SOL    HW220190   4.526   4.955   0.987
 6502SOL     OW20191   4.574   4.522   1.823
 6502SOL    HW120192   4.570   4.598   1.888
 6502SOL    HW220193   4.596   4.558   1.732
 6503SOL     OW20194   4.409   4.736   0.665
 6503SOL    HW120195   4.478   4.720   0.735
 6503SOL    HW220196   4.336   4.793   0.703
 6504SOL     OW20197   4.410   4.885   1.803
 6504SOL    HW120198   4.470   4.964   1.817
 6504SOL    HW220199   4.324   4.916   1.762
 6505SOL     OW20200   4.059   5.159   1.061
 6505SOL    HW120201   3.981   5.128   1.008
 6505SOL    HW220202   4.117   5.217   1.004
 6506SOL     OW20203   5.184   5.229   1.339
 6506SOL    HW120204   5.208   5.323   1.365
 6506SOL    HW220205   5.168   5.175   1.421
 6507SOL     OW20206   4.162   4.116   1.499
 6507SOL    HW120207   4.244   4.060   1.508
 6507SOL    HW220208   4.081   4.058   1.503
 6508SOL     OW20209   4.851   5.065   1.690
 6508SOL    HW120210   4.898   5.065   1.778
 6508SOL    HW220211   4.803   4.978   1.679
 6509SOL     OW20212   3.954   5.158   0.538
 6509SOL    HW120213   3.928   5.254   0.538
 6509SOL    HW220214   3.883   5.104   0.583
 6510SOL     OW20215   3.964   4.815   0.886
 6510SOL    HW120216   3.978   4.731   0.938
 6510SOL    HW220217   3.909   4.879   0.941
 6511SOL     OW20218   4.330   4.688   0.123
 6511SOL    HW120219   4.337   4.772   0.069
 6511SOL    HW220220   4.376   4.701   0.211
 6512SOL     OW20221   3.846   4.367   0.563
 6512SOL    HW120222   3.801   4.279   0.580
 6512SOL    HW220223   3.845   4.421   0.647
 6513SOL     OW20224   3.751   5.320   0.117
 6513SOL    HW120225   3.732   5.224   0.138
 6513SOL    HW220226   3.718   5.378   0.192
 6514SOL     OW20227   5.413   4.646   0.612
 6514SOL    HW120228   5.508   4.617   0.620
 6514SOL    HW220229   5.405   4.711   0.537
 6515SOL     OW20230   3.837   4.461   1.597
 6515SOL    HW120231   3.925   4.448   1.642
 6515SOL    HW220232   3.824   4.558   1.575
 6516SOL     OW20233   4.337   5.089   0.726
 6516SOL    HW120234   4.288   5.002   0.735
 6516SOL    HW220235   4.314   5.132   0.639
 6517SOL     OW20236   5.017   4.952   1.423
 6517SOL    HW120237   5.054   4.879   1.365
 6517SOL    HW220238   5.069   4.957   1.508
 6518SOL     OW20239   4.533   3.728   0.502
 6518SOL    HW120240   4.573   3.819   0.493
 6518SOL    HW220241   4.433   3.736   0.508
 6519SOL     OW20242   3.921   4.700   1.264
 6519SOL    HW120243   4.010   4.655   1.250
 6519SOL    HW220244   3.848   4.635   1.245
 6520SOL     OW20245   4.041   3.975   1.801
 6520SOL    HW120246   4.112   4.046   1.807
 6520SOL    HW220247   3.953   4.014   1.829
 6521SOL     OW20248   5.190   5.141   0.953
 6521SOL    HW120249   5.131   5.147   1.033
 6521SOL    HW220250   5.175   5.053   0.907
 6522SOL     OW20251   5.391   5.438   0.572
 6522SOL    HW120252   5.350   5.415   0.484
 6522SOL    HW220253   5.373   5.364   0.637
 6523SOL     OW20254   4.322   4.453   0.270
 6523SOL    HW120255   4.346   4.522   0.202
 6523SOL    HW220256   4.244   4.486   0.324
 6524SOL     OW20257   5.005   4.069   0.944
 6524SOL    HW120258   4.919   4.019   0.931
 6524SOL    HW220259   5.067   4.015   1.000
 6525SOL     OW20260   4.531   4.329   1.465
 6525SOL    HW120261   4.484   4.326   1.554
 6525SOL    HW220262   4.480   4.274   1.399
 6526SOL     OW20263   5.118   4.193   1.674
 6526SOL    HW120264   5.098   4.236   1.762
 6526SOL    HW220265   5.196   4.131   1.683
 6527SOL     OW20266   4.697   4.614   1.572
 6527SOL    HW120267   4.743   4.530   1.543
 6527SOL    HW220268   4.641   4.648   1.497
 6528SOL     OW20269   4.715   4.134   1.242
 6528SOL    HW120270   4.638   4.168   1.296
 6528SOL    HW220271   4.681   4.083   1.163
 6529SOL     OW20272   4.765   4.425   0.429
 6529SOL    HW120273   4.791   4.421   0.525
 6529SOL    HW220274   4.680   4.374   0.415
 6530SOL     OW20275   3.800   4.535   0.789
 6530SOL    HW120276   3.899   4.523   0.798
 6530SOL    HW220277   3.776   4.630   0.810
 6531SOL     OW20278   4.589   4.072   0.195
 6531SOL    HW120279   4.648   4.135   0.146
 6531SOL    HW220280   4.608   3.978   0.166
 6532SOL     OW20281   5.086   4.868   0.545
 6532SOL    HW120282   5.169   4.839   0.497
 6532SOL    HW220283   5.037   4.935   0.489
 6533SOL     OW20284   4.274   3.920   0.885
 6533SOL    HW120285   4.269   3.915   0.985
 6533SOL    HW220286   4.276   4.016   0.856
 6534SOL     OW20287   4.732   5.180   0.477
 6534SOL    HW120288   4.686   5.252   0.425
 6534SOL    HW220289   4.728   5.200   0.575
 6535SOL     OW20290   4.951   5.274   1.506
 6535SOL    HW120291   4.957   5.197   1.570
 6535SOL    HW220292   4.899   5.248   1.426
 6536SOL     OW20293   4.045   4.667   0.242
 6536SOL    HW120294   4.127   4.706   0.200
 6536SOL    HW220295   4.018   4.585   0.193
 6537SOL     OW20296   4.185   4.990   1.727
 6537SOL    HW120297   4.135   4.991   1.641
 6537SOL    HW220298   4.122   4.972   1.803
 6538SOL     OW20299   4.835   5.500   0.237
 6538SOL    HW120300   4.775   5.438   0.287
 6538SOL    HW220301   4.866   5.456   0.152
 6539SOL     OW20302   3.926   4.009   1.498
 6539SOL    HW120303   3.846   4.069   1.485
 6539SOL    HW220304   3.916   3.960   1.584
 6540SOL     OW20305   5.124   3.831   0.426
 6540SOL    HW120306   5.100   3.794   0.336
 6540SOL    HW220307   5.223   3.847   0.430
 6541SOL     OW20308   4.106   4.424   0.480
 6541SOL    HW120309   4.151   4.334   0.477
 6541SOL    HW220310   4.012   4.413   0.513
 6542SOL     OW20311   4.338   3.846   0.117
 6542SOL    HW120312   4.436   3.824   0.124
 6542SOL    HW220313   4.307   3.829   0.024
 6543SOL     OW20314   4.505   3.988   1.749
 6543SOL    HW120315   4.572   3.927   1.792
 6543SOL    HW220316   4.432   4.007   1.814
 6544SOL     OW20317   5.075   4.314   1.433
 6544SOL    HW120318   5.103   4.271   1.518
 6544SOL    HW220319   5.100   4.410   1.434
 6545SOL     OW20320   4.527   5.126   0.924
 6545SOL    HW120321   4.617   5.140   0.882
 6545SOL    HW220322   4.456   5.128   0.853
 6546SOL     OW20323   4.646   4.227   0.899
 6546SOL    HW120324   4.621   4.218   0.803
 6546SOL    HW220325   4.694   4.145   0.930
 6547SOL     OW20326   4.263   3.788   0.512
 6547SOL    HW120327   4.182   3.789   0.570
 6547SOL    HW220328   4.266   3.871   0.457
 6548SOL     OW20329   5.158   4.912   0.041
 6548SOL    HW120330   5.190   4.836   0.098
 6548SOL    HW220331   5.066   4.939   0.071
 6549SOL     OW20332   4.021   3.759   0.171
 6549SOL    HW120333   4.070   3.843   0.150
 6549SOL    HW220334   4.083   3.694   0.216
 6550SOL     OW20335   4.659   3.960   0.480
 6550SOL    HW120336   4.611   4.001   0.402
 6550SOL    HW220337   4.758   3.958   0.461
 6551SOL     OW20338   4.800   4.407   1.464
 6551SOL    HW120339   4.720   4.346   1.467
 6551SOL    HW220340   4.881   4.354   1.440
 6552SOL     OW20341   4.951   5.294   0.793
 6552SOL    HW120342   4.972   5.368   0.728
 6552SOL    HW220343   5.019   5.294   0.866
 6553SOL     OW20344   4.183   4.876   0.741
 6553SOL    HW120345   4.112   4.849   0.806
 6553SOL    HW220346   4.157   4.848   0.648
 6554SOL     OW20347   4.756   4.273   0.016
 6554SOL    HW120348   4.715   4.355  -0.023
 6554SOL    HW220349   4.820   4.299   0.089
 6555SOL     OW20350   3.802   4.280   1.386
 6555SOL    HW120351   3.894   4.279   1.345
 6555SOL    HW220352   3.796   4.354   1.453
 6556SOL     OW20353   4.285   3.946   1.147
 6556SOL    HW120354   4.323   3.862   1.184
 6556SOL    HW220355   4.197   3.965   1.191
 6557SOL     OW20356   4.590   4.178   0.642
 6557SOL    HW120357   4.558   4.250   0.580
 6557SOL    HW220358   4.614   4.097   0.589
 6558SOL     OW20359   4.741   3.763   0.753
 6558SOL    HW120360   4.669   3.768   0.684
 6558SOL    HW220361   4.717   3.694   0.822
 6559SOL     OW20362   5.153   4.897   0.867
 6559SOL    HW120363   5.098   4.813   0.860
 6559SOL    HW220364   5.179   4.926   0.775
 6560SOL     OW20365   4.212   5.109   0.174
 6560SOL    HW120366   4.125   5.094   0.221
 6560SOL    HW220367   4.195   5.135   0.079
 6561SOL     OW20368   5.114   4.299   0.078
 6561SOL    HW120369   5.060   4.278   0.159
 6561SOL    HW220370   5.205   4.258   0.087
 6562SOL     OW20371   4.251   3.980   0.328
 6562SOL    HW120372   4.278   3.921   0.253
 6562SOL    HW220373   4.251   4.075   0.297
 6563SOL     OW20374   4.788   5.071   1.340
 6563SOL    HW120375   4.708   5.048   1.395
 6563SOL    HW220376   4.871   5.045   1.389
 6564SOL     OW20377   4.835   4.919   1.100
 6564SOL    HW120378   4.795   4.963   1.181
 6564SOL    HW220379   4.794   4.956   1.017
 6565SOL     OW20380   4.639   3.813   1.402
 6565SOL    HW120381   4.664   3.793   1.307
 6565SOL    HW220382   4.711   3.869   1.444
 6566SOL     OW20383   4.704   4.840   1.719
 6566SOL    HW120384   4.605   4.846   1.729
 6566SOL    HW220385   4.727   4.760   1.663
 6567SOL     OW20386   4.429   4.774   0.368
 6567SOL    HW120387   4.415   4.781   0.467
 6567SOL    HW220388   4.513   4.723   0.350
 6568SOL     OW20389   4.134   4.537   1.251
 6568SOL    HW120390   4.220   4.549   1.301
 6568SOL    HW220391   4.092   4.450   1.278
 6569SOL     OW20392   4.998   4.110   1.262
 6569SOL    HW120393   5.019   4.184   1.326
 6569SOL    HW220394   4.909   4.127   1.219
 6570SOL     OW20395   4.091   4.824   0.501
 6570SOL    HW120396   4.084   4.907   0.445
 6570SOL    HW220397   4.095   4.744   0.441
 6571SOL     OW20398   4.290   4.261   0.865
 6571SOL    HW120399   4.302   4.327   0.791
 6571SOL    HW220400   4.336   4.295   0.948
 6572SOL     OW20401   4.976   5.072   0.388
 6572SOL    HW120402   5.026   5.149   0.428
 6572SOL    HW220403   4.881   5.074   0.420
 6573SOL     OW20404   4.996   5.169   1.142
 6573SOL    HW120405   5.043   5.182   1.229
 6573SOL    HW220406   4.930   5.095   1.151
 6574SOL     OW20407   4.078   5.234   1.329
 6574SOL    HW120408   4.057   5.190   1.242
 6574SOL    HW220409   4.175   5.260   1.332
 6575SOL     OW20410   4.126   4.475   1.598
 6575SOL    HW120411   4.194   4.530   1.551
 6575SOL    HW220412   4.166   4.387   1.625
 6576SOL     OW20413   4.737   3.829   1.770
 6576SOL    HW120414   4.743   3.914   1.718
 6576SOL    HW220415   4.769   3.753   1.713
 6577SOL     OW20416   4.228   3.774   1.740
 6577SOL    HW120417   4.186   3.717   1.670
 6577SOL    HW220418   4.162   3.843   1.772
 6578SOL     OW20419   4.297   4.594   1.029
 6578SOL    HW120420   4.341   4.683   1.020
 6578SOL    HW220421   4.234   4.594   1.106
 6579SOL     OW20422   5.084   4.586   1.045
 6579SOL    HW120423   5.009   4.586   0.979
 6579SOL    HW220424   5.121   4.494   1.054
 6580SOL     OW20425   4.933   4.249   0.275
 6580SOL    HW120426   4.946   4.165   0.329
 6580SOL    HW220427   4.904   4.323   0.335
 6581SOL     OW20428   4.031   3.937   1.231
 6581SOL    HW120429   4.008   3.974   1.321
 6581SOL    HW220430   4.001   3.842   1.225
 6582SOL     OW20431   3.761   5.034   1.282
 6582SOL    HW120432   3.814   4.985   1.350
 6582SOL    HW220433   3.783   5.132   1.287
 6583SOL     OW20434   4.456   4.358   1.064
 6583SOL    HW120435   4.515   4.332   0.988
 6583SOL    HW220436   4.428   4.454   1.053
 6584SOL     OW20437   4.031   3.787   0.618
 6584SOL    HW120438   4.020   3.881   0.651
 6584SOL    HW220439   4.026   3.724   0.695
 6585SOL     OW20440   5.346   4.091   0.374
 6585SOL    HW120441   5.348   4.015   0.438
 6585SOL    HW220442   5.298   4.168   0.414
 6586SOL     OW20443   4.747   4.490   0.966
 6586SOL    HW120444   4.762   4.511   1.062
 6586SOL    HW220445   4.717   4.395   0.957
 6587SOL     OW20446   4.074   4.622   1.804
 6587SOL    HW120447   4.150   4.666   1.852
 6587SOL    HW220448   4.109   4.575   1.722
 6588SOL     OW20449   5.027   4.562   0.042
 6588SOL    HW120450   5.061   4.469   0.057
 6588SOL    HW220451   5.045   4.589  -0.053
 6589SOL     OW20452   4.792   5.057   0.849
 6589SOL    HW120453   4.799   4.973   0.794
 6589SOL    HW220454   4.854   5.126   0.813
 6590SOL     OW20455   4.043   4.534   0.949
 6590SOL    HW120456   4.136   4.570   0.954
 6590SOL    HW220457   4.037   4.449   1.001
 6591SOL     OW20458   4.063   4.233   1.006
 6591SOL    HW120459   4.011   4.150   0.989
 6591SOL    HW220460   4.140   4.238   0.942
 6592SOL     OW20461   4.862   4.104   1.678
 6592SOL    HW120462   4.817   4.167   1.742
 6592SOL    HW220463   4.955   4.135   1.661
 6593SOL     OW20464   4.884   3.931   1.477
 6593SOL    HW120465   4.884   3.995   1.554
 6593SOL    HW220466   4.912   3.979   1.394
 6594SOL     OW20467   3.732   5.050   0.200
 6594SOL    HW120468   3.639   5.071   0.169
 6594SOL    HW220469   3.742   4.951   0.213
 6595SOL     OW20470   4.726   4.520   1.238
 6595SOL    HW120471   4.767   4.488   1.324
 6595SOL    HW220472   4.630   4.493   1.235
 6596SOL     OW20473   3.764   4.268   1.114
 6596SOL    HW120474   3.849   4.235   1.073
 6596SOL    HW220475   3.777   4.283   1.212
 6597SOL     OW20476   3.913   4.244   1.722
 6597SOL    HW120477   3.972   4.204   1.652
 6597SOL    HW220478   3.855   4.315   1.681
 6598SOL     OW20479   5.093   4.674   1.660
 6598SOL    HW120480   5.132   4.763   1.680
 6598SOL    HW220481   5.103   4.654   1.563
 6599SOL     OW20482   4.539   4.296   0.325
 6599SOL    HW120483   4.546   4.207   0.279
 6599SOL    HW220484   4.445   4.330   0.317
 6600SOL     OW20485   3.976   5.288   1.744
 6600SOL    HW120486   3.946   5.345   1.820
 6600SOL    HW220487   3.969   5.191   1.770
 6601SOL     OW20488   4.395   4.188   1.269
 6601SOL    HW120489   4.361   4.099   1.239
 6601SOL    HW220490   4.421   4.242   1.189
 6602SOL     OW20491   4.197   4.224   0.191
 6602SOL    HW120492   4.258   4.304   0.195
 6602SOL    HW220493   4.102   4.255   0.198
 6603SOL     OW20494   3.883   4.861   1.466
 6603SOL    HW120495   3.905   4.800   1.542
 6603SOL    HW220496   3.893   4.812   1.380
 6604SOL     OW20497   5.071   4.783   1.234
 6604SOL    HW120498   5.095   4.720   1.160
 6604SOL    HW220499   4.981   4.823   1.216
 6605SOL     OW20500   5.026   4.579   0.309
 6605SOL    HW120501   4.940   4.548   0.351
 6605SOL    HW220502   5.022   4.565   0.210
 6606SOL     OW20503   3.807   4.982   1.022
 6606SOL    HW120504   3.802   4.981   1.122
 6606SOL    HW220505   3.724   4.941   0.984
 6607SOL     OW20506   4.412   5.386   1.716
 6607SOL    HW120507   4.356   5.467   1.725
 6607SOL    HW220508   4.464   5.390   1.630
 6608SOL     OW20509   4.627   3.810   0.133
 6608SOL    HW120510   4.678   3.811   0.047
 6608SOL    HW220511   4.683   3.768   0.204
 6609SOL     OW20512   5.450   3.859   0.523
 6609SOL    HW120513   5.523   3.842   0.456
 6609SOL    HW220514   5.419   3.772   0.561
 6610SOL     OW20515   5.004   4.651   0.672
 6610SOL    HW120516   5.064   4.570   0.674
 6610SOL    HW220517   5.044   4.720   0.612
 6611SOL     OW20518   4.554   4.997   1.422
 6611SOL    HW120519   4.549   5.030   1.517
 6611SOL    HW220520   4.468   5.016   1.376
 6612SOL     OW20521   3.987   4.050   0.720
 6612SOL    HW120522   3.908   4.101   0.686
 6612SOL    HW220523   3.978   4.035   0.818
 6613SOL     OW20524   4.918   5.336   0.031
 6613SOL    HW120525   4.924   5.243   0.068
 6613SOL    HW220526   4.859   5.336  -0.049
 6614SOL     OW20527   4.546   4.726   1.372
 6614SOL    HW120528   4.586   4.725   1.280
 6614SOL    HW220529   4.556   4.818   1.412
 6615SOL     OW20530   4.640   4.634   0.291
 6615SOL    HW120531   4.703   4.672   0.223
 6615SOL    HW220532   4.680   4.551   0.330
 6616SOL     OW20533   4.096   5.012   1.490
 6616SOL    HW120534   4.083   5.105   1.456
 6616SOL    HW220535   4.012   4.960   1.477
 6617SOL     OW20536   4.763   4.822   0.696
 6617SOL    HW120537   4.693   4.775   0.750
 6617SOL    HW220538   4.822   4.754   0.653
 6618SOL     OW20539   4.738   3.960   0.971
 6618SOL    HW120540   4.730   3.924   0.878
 6618SOL    HW220541   4.736   3.884   1.036
 6619SOL     OW20542   3.979   5.072   0.290
 6619SOL    HW120543   3.883   5.073   0.263
 6619SOL    HW220544   3.991   5.125   0.374
 6620SOL     OW20545   3.829   4.737   1.726
 6620SOL    HW120546   3.752   4.704   1.780
 6620SOL    HW220547   3.914   4.707   1.768
 6621SOL     OW20548   4.396   3.927   1.489
 6621SOL    HW120549   4.486   3.911   1.449
 6621SOL    HW220550   4.404   3.932   1.588
 6622SOL     OW20551   3.799   4.069   0.033
 6622SOL    HW120552   3.707   4.041   0.004
 6622SOL    HW220553   3.830   4.146  -0.023
 6623SOL     OW20554   5.164   4.580   1.398
 6623SOL    HW120555   5.107   4.632   1.335
 6623SOL    HW220556   5.260   4.592   1.374
 6624SOL     OW20557   3.796   3.890   0.318
 6624SOL    HW120558   3.779   3.973   0.264
 6624SOL    HW220559   3.886   3.853   0.296
 6625SOL     OW20560   4.907   5.059   0.119
 6625SOL    HW120561   4.808   5.048   0.121
 6625SOL    HW220562   4.941   5.074   0.212
 6626SOL     OW20563   4.337   4.566   1.431
 6626SOL    HW120564   4.393   4.647   1.414
 6626SOL    HW220565   4.396   4.486   1.434
 6627SOL     OW20566   4.440   4.289   1.708
 6627SOL    HW120567   4.459   4.354   1.782
 6627SOL    HW220568   4.500   4.209   1.717
 6628SOL     OW20569   5.174   4.944   1.633
 6628SOL    HW120570   5.165   4.934   1.732
 6628SOL    HW220571   5.270   4.937   1.607
 6629SOL     OW20572   4.949   4.049   0.449
 6629SOL    HW120573   5.014   3.975   0.438
 6629SOL    HW220574   4.969   4.099   0.533
 6630SOL     OW20575   4.318   4.469   0.652
 6630SOL    HW120576   4.368   4.554   0.633
 6630SOL    HW220577   4.230   4.471   0.604
 6631SOL     OW20578   4.583   5.098   0.016
 6631SOL    HW120579   4.537   5.113   0.104
 6631SOL    HW220580   4.627   5.183  -0.014
 6632SOL     OW20581   4.583   4.680   0.861
 6632SOL    HW120582   4.637   4.611   0.909
 6632SOL    HW220583   4.551   4.749   0.927
 6633SOL     OW20584   4.807   4.708   0.087
 6633SOL    HW120585   4.784   4.761   0.005
 6633SOL    HW220586   4.888   4.652   0.068
 6634SOL     OW20587   3.945   5.038   1.844
 6634SOL    HW120588   3.880   4.965   1.823
 6634SOL    HW220589   3.949   5.052   1.942
 6635SOL     OW20590   3.803   4.964   0.653
 6635SOL    HW120591   3.802   4.917   0.741
 6635SOL    HW220592   3.885   4.936   0.602
 6636SOL     OW20593   4.396   5.115   1.624
 6636SOL    HW120594   4.318   5.065   1.662
 6636SOL    HW220595   4.393   5.210   1.655
 6637SOL     OW20596   4.152   4.148   0.520
 6637SOL    HW120597   4.182   4.076   0.458
 6637SOL    HW220598   4.113   4.108   0.603
 6638SOL     OW20599   5.429   5.211   1.104
 6638SOL    HW120600   5.336   5.186   1.077
 6638SOL    HW220601   5.455   5.161   1.186
 6639SOL     OW20602   4.041   4.271   1.280
 6639SOL    HW120603   4.079   4.212   1.352
 6639SOL    HW220604   4.081   4.245   1.192
 6640SOL     OW20605   5.148   3.938   1.112
 6640SOL    HW120606   5.200   3.873   1.167
 6640SOL    HW220607   5.099   4.001   1.173
 6641SOL     OW20608   4.725   3.758   1.154
 6641SOL    HW120609   4.662   3.686   1.123
 6641SOL    HW220610   4.818   3.722   1.154
 6642SOL     OW20611   4.494   5.054   0.301
 6642SOL    HW120612   4.448   4.967   0.318
 6642SOL    HW220613   4.585   5.051   0.342
 6643SOL     OW20614   4.342   5.291   1.284
 6643SOL    HW120615   4.337   5.373   1.341
 6643SOL    HW220616   4.431   5.288   1.239
 6644SOL     OW20617   5.076   3.776   0.168
 6644SOL    HW120618   5.111   3.735   0.084
 6644SOL    HW220619   4.986   3.738   0.188
 6645SOL     OW20620   5.024   4.177   0.691
 6645SOL    HW120621   4.965   4.257   0.695
 6645SOL    HW220622   5.039   4.142   0.784
 6646SOL     OW20623   5.317   3.945   0.882
 6646SOL    HW120624   5.233   3.944   0.936
 6646SOL    HW220625   5.319   4.028   0.826
 6647SOL     OW20626   3.763   4.801   0.300
 6647SOL    HW120627   3.862   4.790   0.291
 6647SOL    HW220628   3.723   4.715   0.332
 6648SOL     OW20629   3.954   4.352   1.975
 6648SOL    HW120630   3.861   4.350   2.012
 6648SOL    HW220631   3.955   4.313   1.883
 6649SOL     OW20632   3.949   3.999   2.858
 6649SOL    HW120633   3.984   3.982   2.950
 6649SOL    HW220634   3.861   3.954   2.846
 6650SOL     OW20635   3.743   4.092   2.509
 6650SOL    HW120636   3.661   4.135   2.548
 6650SOL    HW220637   3.715   4.019   2.446
 6651SOL     OW20638   4.293   4.999   3.027
 6651SOL    HW120639   4.200   4.992   2.990
 6651SOL    HW220640   4.304   5.088   3.071
 6652SOL     OW20641   5.279   5.235   2.565
 6652SOL    HW120642   5.222   5.219   2.646
 6652SOL    HW220643   5.220   5.245   2.485
 6653SOL     OW20644   4.859   4.427   2.579
 6653SOL    HW120645   4.916   4.505   2.554
 6653SOL    HW220646   4.799   4.453   2.655
 6654SOL     OW20647   4.492   4.868   2.885
 6654SOL    HW120648   4.414   4.885   2.945
 6654SOL    HW220649   4.526   4.955   2.849
 6655SOL     OW20650   4.574   4.522   3.685
 6655SOL    HW120651   4.570   4.598   3.750
 6655SOL    HW220652   4.596   4.558   3.594
 6656SOL     OW20653   4.409   4.736   2.527
 6656SOL    HW120654   4.478   4.720   2.597
 6656SOL    HW220655   4.336   4.793   2.565
 6657SOL     OW20656   4.410   4.885   3.665
 6657SOL    HW120657   4.470   4.964   3.679
 6657SOL    HW220658   4.324   4.916   3.624
 6658SOL     OW20659   4.059   5.159   2.923
 6658SOL    HW120660   3.981   5.128   2.870
 6658SOL    HW220661   4.117   5.217   2.866
 6659SOL     OW20662   5.184   5.229   3.201
 6659SOL    HW120663   5.208   5.323   3.227
 6659SOL    HW220664   5.168   5.175   3.283
 6660SOL     OW20665   4.162   4.116   3.361
 6660SOL    HW120666   4.244   4.060   3.370
 6660SOL    HW220667   4.081   4.058   3.365
 6661SOL     OW20668   4.851   5.065   3.552
 6661SOL    HW120669   4.898   5.065   3.640
 6661SOL    HW220670   4.803   4.978   3.541
 6662SOL     OW20671   3.954   5.158   2.400
 6662SOL    HW120672   3.928   5.254   2.400
 6662SOL    HW220673   3.883   5.104   2.445
 6663SOL     OW20674   3.964   4.815   2.748
 6663SOL    HW120675   3.978   4.731   2.800
 6663SOL    HW220676   3.909   4.879   2.803
 6664SOL     OW20677   4.330   4.688   1.985
 6664SOL    HW120678   4.337   4.772   1.931
 6664SOL    HW220679   4.376   4.701   2.073
 6665SOL     OW20680   3.846   4.367   2.425
 6665SOL    HW120681   3.801   4.279   2.442
 6665SOL    HW220682   3.845   4.421   2.509
 6666SOL     OW20683   3.751   5.320   1.979
 6666SOL    HW120684   3.732   5.224   2.000
 6666SOL    HW220685   3.718   5.378   2.054
 6667SOL     OW20686   5.413   4.646   2.474
 6667SOL    HW120687   5.508   4.617   2.482
 6667SOL    HW220688   5.405   4.711   2.399
 6668SOL     OW20689   3.837   4.461   3.459
 6668SOL    HW120690   3.925   4.448   3.504
 6668SOL    HW220691   3.824   4.558   3.437
 6669SOL     OW20692   4.337   5.089   2.588
 6669SOL    HW120693   4.288   5.002   2.597
 6669SOL    HW220694   4.314   5.132   2.501
 6670SOL     OW20695   5.017   4.952   3.285
 6670SOL    HW120696   5.054   4.879   3.227
 6670SOL    HW220697   5.069   4.957   3.370
 6671SOL     OW20698   4.533   3.728   2.364
 6671SOL    HW120699   4.573   3.819   2.355
 6671SOL    HW220700   4.433   3.736   2.370
 6672SOL     OW20701   3.921   4.700   3.126
 6672SOL    HW120702   4.010   4.655   3.112
 6672SOL    HW220703   3.848   4.635   3.107
 6673SOL     OW20704   4.041   3.975   3.663
 6673SOL    HW120705   4.112   4.046   3.669
 6673SOL    HW220706   3.953   4.014   3.691
 6674SOL     OW20707   5.190   5.141   2.815
 6674SOL    HW120708   5.131   5.147   2.895
 6674SOL    HW220709   5.175   5.053   2.769
 6675SOL     OW20710   5.391   5.438   2.434
 6675SOL    HW120711   5.350   5.415   2.346
 6675SOL    HW220712   5.373   5.364   2.499
 6676SOL     OW20713   4.322   4.453   2.132
 6676SOL    HW120714   4.346   4.522   2.064
 6676SOL    HW220715   4.244   4.486   2.186
 6677SOL     OW20716   5.005   4.069   2.806
 6677SOL    HW120717   4.919   4.019   2.793
 6677SOL    HW220718   5.067   4.015   2.862
 6678SOL     OW20719   4.531   4.329   3.327
 6678SOL    HW120720   4.484   4.326   3.416
 6678SOL    HW220721   4.480   4.274   3.261
 6679SOL     OW20722   5.118   4.193   3.536
 6679SOL    HW120723   5.098   4.236   3.624
 6679SOL    HW220724   5.196   4.131   3.545
 6680SOL     OW20725   4.697   4.614   3.434
 6680SOL    HW120726   4.743   4.530   3.405
 6680SOL    HW220727   4.641   4.648   3.359
 6681SOL     OW20728   4.715   4.134   3.104
 6681SOL    HW120729   4.638   4.168   3.158
 6681SOL    HW220730   4.681   4.083   3.025
 6682SOL     OW20731   4.765   4.425   2.291
 6682SOL    HW120732   4.791   4.421   2.387
 6682SOL    HW220733   4.680   4.374   2.277
 6683SOL     OW20734   3.800   4.535   2.651
 6683SOL    HW120735   3.899   4.523   2.660
 6683SOL    HW220736   3.776   4.630   2.672
 6684SOL     OW20737   4.589   4.072   2.057
 6684SOL    HW120738   4.648   4.135   2.008
 6684SOL    HW220739   4.608   3.978   2.028
 6685SOL     OW20740   5.086   4.868   2.407
 6685SOL    HW120741   5.169   4.839   2.359
 6685SOL    HW220742   5.037   4.935   2.351
 6686SOL     OW20743   4.274   3.920   2.747
 6686SOL    HW120744   4.269   3.915   2.847
 6686SOL    HW220745   4.276   4.016   2.718
 6687SOL     OW20746   4.732   5.180   2.339
 6687SOL    HW120747   4.686   5.252   2.287
 6687SOL    HW220748   4.728   5.200   2.437
 6688SOL     OW20749   4.951   5.274   3.368
 6688SOL    HW120750   4.957   5.197   3.432
 6688SOL    HW220751   4.899   5.248   3.288
 6689SOL     OW20752   4.045   4.667   2.104
 6689SOL    HW120753   4.127   4.706   2.062
 6689SOL    HW220754   4.018   4.585   2.055
 6690SOL     OW20755   4.185   4.990   3.589
 6690SOL    HW120756   4.135   4.991   3.503
 6690SOL    HW220757   4.122   4.972   3.665
 6691SOL     OW20758   4.835   5.500   2.099
 6691SOL    HW120759   4.775   5.438   2.149
 6691SOL    HW220760   4.866   5.456   2.014
 6692SOL     OW20761   3.926   4.009   3.360
 6692SOL    HW120762   3.846   4.069   3.347
 6692SOL    HW220763   3.916   3.960   3.446
 6693SOL     OW20764   5.124   3.831   2.288
 6693SOL    HW120765   5.100   3.794   2.198
 6693SOL    HW220766   5.223   3.847   2.292
 6694SOL     OW20767   4.106   4.424   2.342
 6694SOL    HW120768   4.151   4.334   2.339
 6694SOL    HW220769   4.012   4.413   2.375
 6695SOL     OW20770   4.338   3.846   1.979
 6695SOL    HW120771   4.436   3.824   1.986
 6695SOL    HW220772   4.307   3.829   1.886
 6696SOL     OW20773   4.505   3.988   3.611
 6696SOL    HW120774   4.572   3.927   3.654
 6696SOL    HW220775   4.432   4.007   3.676
 6697SOL     OW20776   5.075   4.314   3.295
 6697SOL    HW120777   5.103   4.271   3.380
 6697SOL    HW220778   5.100   4.410   3.296
 6698SOL     OW20779   4.527   5.126   2.786
 6698SOL    HW120780   4.617   5.140   2.744
 6698SOL    HW220781   4.456   5.128   2.715
 6699SOL     OW20782   4.646   4.227   2.761
 6699SOL    HW120783   4.621   4.218   2.665
 6699SOL    HW220784   4.694   4.145   2.792
 6700SOL     OW20785   4.263   3.788   2.374
 6700SOL    HW120786   4.182   3.789   2.432
 6700SOL    HW220787   4.266   3.871   2.319
 6701SOL     OW20788   5.158   4.912   1.903
 6701SOL    HW120789   5.190   4.836   1.960
 6701SOL    HW220790   5.066   4.939   1.933
 6702SOL     OW20791   4.021   3.759   2.033
 6702SOL    HW120792   4.070   3.843   2.012
 6702SOL    HW220793   4.083   3.694   2.078
 6703SOL     OW20794   4.659   3.960   2.342
 6703SOL    HW120795   4.611   4.001   2.264
 6703SOL    HW220796   4.758   3.958   2.323
 6704SOL     OW20797   4.800   4.407   3.326
 6704SOL    HW120798   4.720   4.346   3.329
 6704SOL    HW220799   4.881   4.354   3.302
 6705SOL     OW20800   4.951   5.294   2.655
 6705SOL    HW120801   4.972   5.368   2.590
 6705SOL    HW220802   5.019   5.294   2.728
 6706SOL     OW20803   4.183   4.876   2.603
 6706SOL    HW120804   4.112   4.849   2.668
 6706SOL    HW220805   4.157   4.848   2.510
 6707SOL     OW20806   4.756   4.273   1.878
 6707SOL    HW120807   4.715   4.355   1.839
 6707SOL    HW220808   4.820   4.299   1.951
 6708SOL     OW20809   3.802   4.280   3.248
 6708SOL    HW120810   3.894   4.279   3.207
 6708SOL    HW220811   3.796   4.354   3.315
 6709SOL     OW20812   4.285   3.946   3.009
 6709SOL    HW120813   4.323   3.862   3.046
 6709SOL    HW220814   4.197   3.965   3.053
 6710SOL     OW20815   4.590   4.178   2.504
 6710SOL    HW120816   4.558   4.250   2.442
 6710SOL    HW220817   4.614   4.097   2.451
 6711SOL     OW20818   4.741   3.763   2.615
 6711SOL    HW120819   4.669   3.768   2.546
 6711SOL    HW220820   4.717   3.694   2.684
 6712SOL     OW20821   5.153   4.897   2.729
 6712SOL    HW120822   5.098   4.813   2.722
 6712SOL    HW220823   5.179   4.926   2.637
 6713SOL     OW20824   4.212   5.109   2.036
 6713SOL    HW120825   4.125   5.094   2.083
 6713SOL    HW220826   4.195   5.135   1.941
 6714SOL     OW20827   5.114   4.299   1.940
 6714SOL    HW120828   5.060   4.278   2.021
 6714SOL    HW220829   5.205   4.258   1.949
 6715SOL     OW20830   4.251   3.980   2.190
 6715SOL    HW120831   4.278   3.921   2.115
 6715SOL    HW220832   4.251   4.075   2.159
 6716SOL     OW20833   4.788   5.071   3.202
 6716SOL    HW120834   4.708   5.048   3.257
 6716SOL    HW220835   4.871   5.045   3.251
 6717SOL     OW20836   4.835   4.919   2.962
 6717SOL    HW120837   4.795   4.963   3.043
 6717SOL    HW220838   4.794   4.956   2.879
 6718SOL     OW20839   4.639   3.813   3.264
 6718SOL    HW120840   4.664   3.793   3.169
 6718SOL    HW220841   4.711   3.869   3.306
 6719SOL     OW20842   4.704   4.840   3.581
 6719SOL    HW120843   4.605   4.846   3.591
 6719SOL    HW220844   4.727   4.760   3.525
 6720SOL     OW20845   4.429   4.774   2.230
 6720SOL    HW120846   4.415   4.781   2.329
 6720SOL    HW220847   4.513   4.723   2.212
 6721SOL     OW20848   4.134   4.537   3.113
 6721SOL    HW120849   4.220   4.549   3.163
 6721SOL    HW220850   4.092   4.450   3.140
 6722SOL     OW20851   4.998   4.110   3.124
 6722SOL    HW120852   5.019   4.184   3.188
 6722SOL    HW220853   4.909   4.127   3.081
 6723SOL     OW20854   4.091   4.824   2.363
 6723SOL    HW120855   4.084   4.907   2.307
 6723SOL    HW220856   4.095   4.744   2.303
 6724SOL     OW20857   4.290   4.261   2.727
 6724SOL    HW120858   4.302   4.327   2.653
 6724SOL    HW220859   4.336   4.295   2.810
 6725SOL     OW20860   4.976   5.072   2.250
 6725SOL    HW120861   5.026   5.149   2.290
 6725SOL    HW220862   4.881   5.074   2.282
 6726SOL     OW20863   4.996   5.169   3.004
 6726SOL    HW120864   5.043   5.182   3.091
 6726SOL    HW220865   4.930   5.095   3.013
 6727SOL     OW20866   4.078   5.234   3.191
 6727SOL    HW120867   4.057   5.190   3.104
 6727SOL    HW220868   4.175   5.260   3.194
 6728SOL     OW20869   4.126   4.475   3.460
 6728SOL    HW120870   4.194   4.530   3.413
 6728SOL    HW220871   4.166   4.387   3.487
 6729SOL     OW20872   4.737   3.829   3.632
 6729SOL    HW120873   4.743   3.914   3.580
 6729SOL    HW220874   4.769   3.753   3.575
 6730SOL     OW20875   4.228   3.774   3.602
 6730SOL    HW120876   4.186   3.717   3.532
 6730SOL    HW220877   4.162   3.843   3.634
 6731SOL     OW20878   4.297   4.594   2.891
 6731SOL    HW120879   4.341   4.683   2.882
 6731SOL    HW220880   4.234   4.594   2.968
 6732SOL     OW20881   5.084   4.586   2.907
 6732SOL    HW120882   5.009   4.586   2.841
 6732SOL    HW220883   5.121   4.494   2.916
 6733SOL     OW20884   4.933   4.249   2.137
 6733SOL    HW120885   4.946   4.165   2.191
 6733SOL    HW220886   4.904   4.323   2.197
 6734SOL     OW20887   4.031   3.937   3.093
 6734SOL    HW120888   4.008   3.974   3.183
 6734SOL    HW220889   4.001   3.842   3.087
 6735SOL     OW20890   3.761   5.034   3.144
 6735SOL    HW120891   3.814   4.985   3.212
 6735SOL    HW220892   3.783   5.132   3.149
 6736SOL     OW20893   4.456   4.358   2.926
 6736SOL    HW120894   4.515   4.332   2.850
 6736SOL    HW220895   4.428   4.454   2.915
 6737SOL     OW20896   4.031   3.787   2.480
 6737SOL    HW120897   4.020   3.881   2.513
 6737SOL    HW220898   4.026   3.724   2.557
 6738SOL     OW20899   5.346   4.091   2.236
 6738SOL    HW120900   5.348   4.015   2.300
 6738SOL    HW220901   5.298   4.168   2.276
 6739SOL     OW20902   4.747   4.490   2.828
 6739SOL    HW120903   4.762   4.511   2.924
 6739SOL    HW220904   4.717   4.395   2.819
 6740SOL     OW20905   4.074   4.622   3.666
 6740SOL    HW120906   4.150   4.666   3.714
 6740SOL    HW220907   4.109   4.575   3.584
 6741SOL     OW20908   5.027   4.562   1.904
 6741SOL    HW120909   5.061   4.469   1.919
 6741SOL    HW220910   5.045   4.589   1.809
 6742SOL     OW20911   4.792   5.057   2.711
 6742SOL    HW120912   4.799   4.973   2.656
 6742SOL    HW220913   4.854   5.126   2.675
 6743SOL     OW20914   4.043   4.534   2.811
 6743SOL    HW120915   4.136   4.570   2.816
 6743SOL    HW220916   4.037   4.449   2.863
 6744SOL     OW20917   4.063   4.233   2.868
 6744SOL    HW120918   4.011   4.150   2.851
 6744SOL    HW220919   4.140   4.238   2.804
 6745SOL     OW20920   4.862   4.104   3.540
 6745SOL    HW120921   4.817   4.167   3.604
 6745SOL    HW220922   4.955   4.135   3.523
 6746SOL     OW20923   4.884   3.931   3.339
 6746SOL    HW120924   4.884   3.995   3.416
 6746SOL    HW220925   4.912   3.979   3.256
 6747SOL     OW20926   3.732   5.050   2.062
 6747SOL    HW120927   3.639   5.071   2.031
 6747SOL    HW220928   3.742   4.951   2.075
 6748SOL     OW20929   4.726   4.520   3.100
 6748SOL    HW120930   4.767   4.488   3.186
 6748SOL    HW220931   4.630   4.493   3.097
 6749SOL     OW20932   3.764   4.268   2.976
 6749SOL    HW120933   3.849   4.235   2.935
 6749SOL    HW220934   3.777   4.283   3.074
 6750SOL     OW20935   3.913   4.244   3.584
 6750SOL    HW120936   3.972   4.204   3.514
 6750SOL    HW220937   3.855   4.315   3.543
 6751SOL     OW20938   5.093   4.674   3.522
 6751SOL    HW120939   5.132   4.763   3.542
 6751SOL    HW220940   5.103   4.654   3.425
 6752SOL     OW20941   4.539   4.296   2.187
 6752SOL    HW120942   4.546   4.207   2.141
 6752SOL    HW220943   4.445   4.330   2.179
 6753SOL     OW20944   3.976   5.288   3.606
 6753SOL    HW120945   3.946   5.345   3.682
 6753SOL    HW220946   3.969   5.191   3.632
 6754SOL     OW20947   4.395   4.188   3.131
 6754SOL    HW120948   4.361   4.099   3.101
 6754SOL    HW220949   4.421   4.242   3.051
 6755SOL     OW20950   4.197   4.224   2.053
 6755SOL    HW120951   4.258   4.304   2.057
 6755SOL    HW220952   4.102   4.255   2.060
 6756SOL     OW20953   3.883   4.861   3.328
 6756SOL    HW120954   3.905   4.800   3.404
 6756SOL    HW220955   3.893   4.812   3.242
 6757SOL     OW20956   5.071   4.783   3.096
 6757SOL    HW120957   5.095   4.720   3.022
 6757SOL    HW220958   4.981   4.823   3.078
 6758SOL     OW20959   5.026   4.579   2.171
 6758SOL    HW120960   4.940   4.548   2.213
 6758SOL    HW220961   5.022   4.565   2.072
 6759SOL     OW20962   3.807   4.982   2.884
 6759SOL    HW120963   3.802   4.981   2.984
 6759SOL    HW220964   3.724   4.941   2.846
 6760SOL     OW20965   4.412   5.386   3.578
 6760SOL    HW120966   4.356   5.467   3.587
 6760SOL    HW220967   4.464   5.390   3.492
 6761SOL     OW20968   5.450   3.859   2.385
 6761SOL    HW120969   5.523   3.842   2.318
 6761SOL    HW220970   5.419   3.772   2.423
 6762SOL     OW20971   5.004   4.651   2.534
 6762SOL    HW120972   5.064   4.570   2.536
 6762SOL    HW220973   5.044   4.720   2.474
 6763SOL     OW20974   4.554   4.997   3.284
 6763SOL    HW120975   4.549   5.030   3.379
 6763SOL    HW220976   4.468   5.016   3.238
 6764SOL     OW20977   3.987   4.050   2.582
 6764SOL    HW120978   3.908   4.101   2.548
 6764SOL    HW220979   3.978   4.035   2.680
 6765SOL     OW20980   4.546   4.726   3.234
 6765SOL    HW120981   4.586   4.725   3.142
 6765SOL    HW220982   4.556   4.818   3.274
 6766SOL     OW20983   4.640   4.634   2.153
 6766SOL    HW120984   4.703   4.672   2.085
 6766SOL    HW220985   4.680   4.551   2.192
 6767SOL     OW20986   4.096   5.012   3.352
 6767SOL    HW120987   4.083   5.105   3.318
 6767SOL    HW220988   4.012   4.960   3.339
 6768SOL     OW20989   4.763   4.822   2.558
 6768SOL    HW120990   4.693   4.775   2.612
 6768SOL    HW220991   4.822   4.754   2.515
 6769SOL     OW20992   4.738   3.960   2.833
 6769SOL    HW120993   4.730   3.924   2.740
 6769SOL    HW220994   4.736   3.884   2.898
 6770SOL     OW20995   3.979   5.072   2.152
 6770SOL    HW120996   3.883   5.073   2.125
 6770SOL    HW220997   3.991   5.125   2.236
 6771SOL     OW20998   3.829   4.737   3.588
 6771SOL    HW120999   3.752   4.704   3.642
 6771SOL    HW221000   3.914   4.707   3.630
 6772SOL     OW21001   4.396   3.927   3.351
 6772SOL    HW121002   4.486   3.911   3.311
 6772SOL    HW221003   4.404   3.932   3.450
 6773SOL     OW21004   3.799   4.069   1.895
 6773SOL    HW121005   3.707   4.041   1.866
 6773SOL    HW221006   3.830   4.146   1.839
 6774SOL     OW21007   5.164   4.580   3.260
 6774SOL    HW121008   5.107   4.632   3.197
 6774SOL    HW221009   5.260   4.592   3.236
 6775SOL     OW21010   3.796   3.890   2.180
 6775SOL    HW121011   3.779   3.973   2.126
 6775SOL    HW221012   3.886   3.853   2.158
 6776SOL     OW21013   4.907   5.059   1.981
 6776SOL    HW121014   4.808   5.048   1.983
 6776SOL    HW221015   4.941   5.074   2.074
 6777SOL     OW21016   4.337   4.566   3.293
 6777SOL    HW121017   4.393   4.647   3.276
 6777SOL    HW221018   4.396   4.486   3.296
 6778SOL     OW21019   4.440   4.289   3.570
 6778SOL    HW121020   4.459   4.354   3.644
 6778SOL    HW221021   4.500   4.209   3.579
 6779SOL     OW21022   5.174   4.944   3.495
 6779SOL    HW121023   5.165   4.934   3.594
 6779SOL    HW221024   5.270   4.937   3.469
 6780SOL     OW21025   4.949   4.049   2.311
 6780SOL    HW121026   5.014   3.975   2.300
 6780SOL    HW221027   4.969   4.099   2.395
 6781SOL     OW21028   4.318   4.469   2.514
 6781SOL    HW121029   4.368   4.554   2.495
 6781SOL    HW221030   4.230   4.471   2.466
 6782SOL     OW21031   4.583   5.098   1.878
 6782SOL    HW121032   4.537   5.113   1.966
 6782SOL    HW221033   4.627   5.183   1.848
 6783SOL     OW21034   4.583   4.680   2.723
 6783SOL    HW121035   4.637   4.611   2.771
 6783SOL    HW221036   4.551   4.749   2.789
 6784SOL     OW21037   4.807   4.708   1.949
 6784SOL    HW121038   4.784   4.761   1.867
 6784SOL    HW221039   4.888   4.652   1.930
 6785SOL     OW21040   3.945   5.038   3.706
 6785SOL    HW121041   3.880   4.965   3.685
 6785SOL    HW221042   3.949   5.052   3.804
 6786SOL     OW21043   3.803   4.964   2.515
 6786SOL    HW121044   3.802   4.917   2.603
 6786SOL    HW221045   3.885   4.936   2.464
 6787SOL     OW21046   4.396   5.115   3.486
 6787SOL    HW121047   4.318   5.065   3.524
 6787SOL    HW221048   4.393   5.210   3.517
 6788SOL     OW21049   4.152   4.148   2.382
 6788SOL    HW121050   4.182   4.076   2.320
 6788SOL    HW221051   4.113   4.108   2.465
 6789SOL     OW21052   5.429   5.211   2.966
 6789SOL    HW121053   5.336   5.186   2.939
 6789SOL    HW221054   5.455   5.161   3.048
 6790SOL     OW21055   4.041   4.271   3.142
 6790SOL    HW121056   4.079   4.212   3.214
 6790SOL    HW221057   4.081   4.245   3.054
 6791SOL     OW21058   5.148   3.938   2.974
 6791SOL    HW121059   5.200   3.873   3.029
 6791SOL    HW221060   5.099   4.001   3.035
 6792SOL     OW21061   4.725   3.758   3.016
 6792SOL    HW121062   4.662   3.686   2.985
 6792SOL    HW221063   4.818   3.722   3.016
 6793SOL     OW21064   4.494   5.054   2.163
 6793SOL    HW121065   4.448   4.967   2.180
 6793SOL    HW221066   4.585   5.051   2.204
 6794SOL     OW21067   4.342   5.291   3.146
 6794SOL    HW121068   4.337   5.373   3.203
 6794SOL    HW221069   4.431   5.288   3.101
 6795SOL     OW21070   5.076   3.776   2.030
 6795SOL    HW121071   5.111   3.735   1.946
 6795SOL    HW221072   4.986   3.738   2.050
 6796SOL     OW21073   5.024   4.177   2.553
 6796SOL    HW121074   4.965   4.257   2.557
 6796SOL    HW221075   5.039   4.142   2.646
 6797SOL     OW21076   5.317   3.945   2.744
 6797SOL    HW121077   5.233   3.944   2.798
 6797SOL    HW221078   5.319   4.028   2.688
 6798SOL     OW21079   3.763   4.801   2.162
 6798SOL    HW121080   3.862   4.790   2.153
 6798SOL    HW221081   3.723   4.715   2.194
 6799SOL     OW21082   3.954   4.352   3.837
 6799SOL    HW121083   3.861   4.350   3.874
 6799SOL    HW221084   3.955   4.313   3.745
 6800SOL     OW21085   3.949   3.999   4.720
 6800SOL    HW121086   3.984   3.982   4.812
 6800SOL    HW221087   3.861   3.954   4.708
 6801SOL     OW21088   3.743   4.092   4.371
 6801SOL    HW121089   3.661   4.135   4.410
 6801SOL    HW221090   3.715   4.019   4.308
 6802SOL     OW21091   4.293   4.999   4.889
 6802SOL    HW121092   4.200   4.992   4.852
 6802SOL    HW221093   4.304   5.088   4.933
 6803SOL     OW21094   5.279   5.235   4.427
 6803SOL    HW121095   5.222   5.219   4.508
 6803SOL    HW221096   5.220   5.245   4.347
 6804SOL     OW21097   4.859   4.427   4.441
 6804SOL    HW121098   4.916   4.505   4.416
 6804SOL    HW221099   4.799   4.453   4.517
 6805SOL     OW21100   4.492   4.868   4.747
 6805SOL    HW121101   4.414   4.885   4.807
 6805SOL    HW221102   4.526   4.955   4.711
 6806SOL     OW21103   4.574   4.522   5.547
 6806SOL    HW121104   4.570   4.598   5.612
 6806SOL    HW221105   4.596   4.558   5.456
 6807SOL     OW21106   4.409   4.736   4.389
 6807SOL    HW121107   4.478   4.720   4.459
 6807SOL    HW221108   4.336   4.793   4.427
 6808SOL     OW21109   4.410   4.885   5.527
 6808SOL    HW121110   4.470   4.964   5.541
 6808SOL    HW221111   4.324   4.916   5.486
 6809SOL     OW21112   4.059   5.159   4.785
 6809SOL    HW121113   3.981   5.128   4.732
 6809SOL    HW221114   4.117   5.217   4.728
 6810SOL     OW21115   5.184   5.229   5.063
 6810SOL    HW121116   5.208   5.323   5.089
 6810SOL    HW221117   5.168   5.175   5.145
 6811SOL     OW21118   4.162   4.116   5.223
 6811SOL    HW121119   4.244   4.060   5.232
 6811SOL    HW221120   4.081   4.058   5.227
 6812SOL     OW21121   4.851   5.065   5.414
 6812SOL    HW121122   4.898   5.065   5.502
 6812SOL    HW221123   4.803   4.978   5.403
 6813SOL     OW21124   3.954   5.158   4.262
 6813SOL    HW121125   3.928   5.254   4.262
 6813SOL    HW221126   3.883   5.104   4.307
 6814SOL     OW21127   3.964   4.815   4.610
 6814SOL    HW121128   3.978   4.731   4.662
 6814SOL    HW221129   3.909   4.879   4.665
 6815SOL     OW21130   4.330   4.688   3.847
 6815SOL    HW121131   4.337   4.772   3.793
 6815SOL    HW221132   4.376   4.701   3.935
 6816SOL     OW21133   3.846   4.367   4.287
 6816SOL    HW121134   3.801   4.279   4.304
 6816SOL    HW221135   3.845   4.421   4.371
 6817SOL     OW21136   3.751   5.320   3.841
 6817SOL    HW121137   3.732   5.224   3.862
 6817SOL    HW221138   3.718   5.378   3.916
 6818SOL     OW21139   5.413   4.646   4.336
 6818SOL    HW121140   5.508   4.617   4.344
 6818SOL    HW221141   5.405   4.711   4.261
 6819SOL     OW21142   3.837   4.461   5.321
 6819SOL    HW121143   3.925   4.448   5.366
 6819SOL    HW221144   3.824   4.558   5.299
 6820SOL     OW21145   4.337   5.089   4.450
 6820SOL    HW121146   4.288   5.002   4.459
 6820SOL    HW221147   4.314   5.132   4.363
 6821SOL     OW21148   5.017   4.952   5.147
 6821SOL    HW121149   5.054   4.879   5.089
 6821SOL    HW221150   5.069   4.957   5.232
 6822SOL     OW21151   4.533   3.728   4.226
 6822SOL    HW121152   4.573   3.819   4.217
 6822SOL    HW221153   4.433   3.736   4.232
 6823SOL     OW21154   3.921   4.700   4.988
 6823SOL    HW121155   4.010   4.655   4.974
 6823SOL    HW221156   3.848   4.635   4.969
 6824SOL     OW21157   4.041   3.975   5.525
 6824SOL    HW121158   4.112   4.046   5.531
 6824SOL    HW221159   3.953   4.014   5.553
 6825SOL     OW21160   5.190   5.141   4.677
 6825SOL    HW121161   5.131   5.147   4.757
 6825SOL    HW221162   5.175   5.053   4.631
 6826SOL     OW21163   5.391   5.438   4.296
 6826SOL    HW121164   5.350   5.415   4.208
 6826SOL    HW221165   5.373   5.364   4.361
 6827SOL     OW21166   4.322   4.453   3.994
 6827SOL    HW121167   4.346   4.522   3.926
 6827SOL    HW221168   4.244   4.486   4.048
 6828SOL     OW21169   5.005   4.069   4.668
 6828SOL    HW121170   4.919   4.019   4.655
 6828SOL    HW221171   5.067   4.015   4.724
 6829SOL     OW21172   4.531   4.329   5.189
 6829SOL    HW121173   4.484   4.326   5.278
 6829SOL    HW221174   4.480   4.274   5.123
 6830SOL     OW21175   5.118   4.193   5.398
 6830SOL    HW121176   5.098   4.236   5.486
 6830SOL    HW221177   5.196   4.131   5.407
 6831SOL     OW21178   4.697   4.614   5.296
 6831SOL    HW121179   4.743   4.530   5.267
 6831SOL    HW221180   4.641   4.648   5.221
 6832SOL     OW21181   4.715   4.134   4.966
 6832SOL    HW121182   4.638   4.168   5.020
 6832SOL    HW221183   4.681   4.083   4.887
 6833SOL     OW21184   4.765   4.425   4.153
 6833SOL    HW121185   4.791   4.421   4.249
 6833SOL    HW221186   4.680   4.374   4.139
 6834SOL     OW21187   3.800   4.535   4.513
 6834SOL    HW121188   3.899   4.523   4.522
 6834SOL    HW221189   3.776   4.630   4.534
 6835SOL     OW21190   4.589   4.072   3.919
 6835SOL    HW121191   4.648   4.135   3.870
 6835SOL    HW221192   4.608   3.978   3.890
 6836SOL     OW21193   5.086   4.868   4.269
 6836SOL    HW121194   5.169   4.839   4.221
 6836SOL    HW221195   5.037   4.935   4.213
 6837SOL     OW21196   4.274   3.920   4.609
 6837SOL    HW121197   4.269   3.915   4.709
 6837SOL    HW221198   4.276   4.016   4.580
 6838SOL     OW21199   4.732   5.180   4.201
 6838SOL    HW121200   4.686   5.252   4.149
 6838SOL    HW221201   4.728   5.200   4.299
 6839SOL     OW21202   4.951   5.274   5.230
 6839SOL    HW121203   4.957   5.197   5.294
 6839SOL    HW221204   4.899   5.248   5.150
 6840SOL     OW21205   4.045   4.667   3.966
 6840SOL    HW121206   4.127   4.706   3.924
 6840SOL    HW221207   4.018   4.585   3.917
 6841SOL     OW21208   4.185   4.990   5.451
 6841SOL    HW121209   4.135   4.991   5.365
 6841SOL    HW221210   4.122   4.972   5.527
 6842SOL     OW21211   4.835   5.500   3.961
 6842SOL    HW121212   4.775   5.438   4.011
 6842SOL    HW221213   4.866   5.456   3.876
 6843SOL     OW21214   3.926   4.009   5.222
 6843SOL    HW121215   3.846   4.069   5.209
 6843SOL    HW221216   3.916   3.960   5.308
 6844SOL     OW21217   5.124   3.831   4.150
 6844SOL    HW121218   5.100   3.794   4.060
 6844SOL    HW221219   5.223   3.847   4.154
 6845SOL     OW21220   4.106   4.424   4.204
 6845SOL    HW121221   4.151   4.334   4.201
 6845SOL    HW221222   4.012   4.413   4.237
 6846SOL     OW21223   4.338   3.846   3.841
 6846SOL    HW121224   4.436   3.824   3.848
 6846SOL    HW221225   4.307   3.829   3.748
 6847SOL     OW21226   4.505   3.988   5.473
 6847SOL    HW121227   4.572   3.927   5.516
 6847SOL    HW221228   4.432   4.007   5.538
 6848SOL     OW21229   5.075   4.314   5.157
 6848SOL    HW121230   5.103   4.271   5.242
 6848SOL    HW221231   5.100   4.410   5.158
 6849SOL     OW21232   4.527   5.126   4.648
 6849SOL    HW121233   4.617   5.140   4.606
 6849SOL    HW221234   4.456   5.128   4.577
 6850SOL     OW21235   4.646   4.227   4.623
 6850SOL    HW121236   4.621   4.218   4.527
 6850SOL    HW221237   4.694   4.145   4.654
 6851SOL     OW21238   4.263   3.788   4.236
 6851SOL    HW121239   4.182   3.789   4.294
 6851SOL    HW221240   4.266   3.871   4.181
 6852SOL     OW21241   5.158   4.912   3.765
 6852SOL    HW121242   5.190   4.836   3.822
 6852SOL    HW221243   5.066   4.939   3.795
 6853SOL     OW21244   4.021   3.759   3.895
 6853SOL    HW121245   4.070   3.843   3.874
 6853SOL    HW221246   4.083   3.694   3.940
 6854SOL     OW21247   4.659   3.960   4.204
 6854SOL    HW121248   4.611   4.001   4.126
 6854SOL    HW221249   4.758   3.958   4.185
 6855SOL     OW21250   4.800   4.407   5.188
 6855SOL    HW121251   4.720   4.346   5.191
 6855SOL    HW221252   4.881   4.354   5.164
 6856SOL     OW21253   4.951   5.294   4.517
 6856SOL    HW121254   4.972   5.368   4.452
 6856SOL    HW221255   5.019   5.294   4.590
 6857SOL     OW21256   4.183   4.876   4.465
 6857SOL    HW121257   4.112   4.849   4.530
 6857SOL    HW221258   4.157   4.848   4.372
 6858SOL     OW21259   4.756   4.273   3.740
 6858SOL    HW121260   4.715   4.355   3.701
 6858SOL    HW221261   4.820   4.299   3.813
 6859SOL     OW21262   3.802   4.280   5.110
 6859SOL    HW121263   3.894   4.279   5.069
 6859SOL    HW221264   3.796   4.354   5.177
 6860SOL     OW21265   4.285   3.946   4.871
 6860SOL    HW121266   4.323   3.862   4.908
 6860SOL    HW221267   4.197   3.965   4.915
 6861SOL     OW21268   4.590   4.178   4.366
 6861SOL    HW121269   4.558   4.250   4.304
 6861SOL    HW221270   4.614   4.097   4.313
 6862SOL     OW21271   4.741   3.763   4.477
 6862SOL    HW121272   4.669   3.768   4.408
 6862SOL    HW221273   4.717   3.694   4.546
 6863SOL     OW21274   5.153   4.897   4.591
 6863SOL    HW121275   5.098   4.813   4.584
 6863SOL    HW221276   5.179   4.926   4.499
 6864SOL     OW21277   4.212   5.109   3.898
 6864SOL    HW121278   4.125   5.094   3.945
 6864SOL    HW221279   4.195   5.135   3.803
 6865SOL     OW21280   5.114   4.299   3.802
 6865SOL    HW121281   5.060   4.278   3.883
 6865SOL    HW221282   5.205   4.258   3.811
 6866SOL     OW21283   4.251   3.980   4.052
 6866SOL    HW121284   4.278   3.921   3.977
 6866SOL    HW221285   4.251   4.075   4.021
 6867SOL     OW21286   4.788   5.071   5.064
 6867SOL    HW121287   4.708   5.048   5.119
 6867SOL    HW221288   4.871   5.045   5.113
 6868SOL     OW21289   4.835   4.919   4.824
 6868SOL    HW121290   4.795   4.963   4.905
 6868SOL    HW221291   4.794   4.956   4.741
 6869SOL     OW21292   4.639   3.813   5.126
 6869SOL    HW121293   4.664   3.793   5.031
 6869SOL    HW221294   4.711   3.869   5.168
 6870SOL     OW21295   4.704   4.840   5.443
 6870SOL    HW121296   4.605   4.846   5.453
 6870SOL    HW221297   4.727   4.760   5.387
 6871SOL     OW21298   4.429   4.774   4.092
 6871SOL    HW121299   4.415   4.781   4.191
 6871SOL    HW221300   4.513   4.723   4.074
 6872SOL     OW21301   4.134   4.537   4.975
 6872SOL    HW121302   4.220   4.549   5.025
 6872SOL    HW221303   4.092   4.450   5.002
 6873SOL     OW21304   4.998   4.110   4.986
 6873SOL    HW121305   5.019   4.184   5.050
 6873SOL    HW221306   4.909   4.127   4.943
 6874SOL     OW21307   4.091   4.824   4.225
 6874SOL    HW121308   4.084   4.907   4.169
 6874SOL    HW221309   4.095   4.744   4.165
 6875SOL     OW21310   4.290   4.261   4.589
 6875SOL    HW121311   4.302   4.327   4.515
 6875SOL    HW221312   4.336   4.295   4.672
 6876SOL     OW21313   4.976   5.072   4.112
 6876SOL    HW121314   5.026   5.149   4.152
 6876SOL    HW221315   4.881   5.074   4.144
 6877SOL     OW21316   4.996   5.169   4.866
 6877SOL    HW121317   5.043   5.182   4.953
 6877SOL    HW221318   4.930   5.095   4.875
 6878SOL     OW21319   4.078   5.234   5.053
 6878SOL    HW121320   4.057   5.190   4.966
 6878SOL    HW221321   4.175   5.260   5.056
 6879SOL     OW21322   4.126   4.475   5.322
 6879SOL    HW121323   4.194   4.530   5.275
 6879SOL    HW221324   4.166   4.387   5.349
 6880SOL     OW21325   4.737   3.829   5.494
 6880SOL    HW121326   4.743   3.914   5.442
 6880SOL    HW221327   4.769   3.753   5.437
 6881SOL     OW21328   4.228   3.774   5.464
 6881SOL    HW121329   4.186   3.717   5.394
 6881SOL    HW221330   4.162   3.843   5.496
 6882SOL     OW21331   4.297   4.594   4.753
 6882SOL    HW121332   4.341   4.683   4.744
 6882SOL    HW221333   4.234   4.594   4.830
 6883SOL     OW21334   5.084   4.586   4.769
 6883SOL    HW121335   5.009   4.586   4.703
 6883SOL    HW221336   5.121   4.494   4.778
 6884SOL     OW21337   4.933   4.249   3.999
 6884SOL    HW121338   4.946   4.165   4.053
 6884SOL    HW221339   4.904   4.323   4.059
 6885SOL     OW21340   4.031   3.937   4.955
 6885SOL    HW121341   4.008   3.974   5.045
 6885SOL    HW221342   4.001   3.842   4.949
 6886SOL     OW21343   3.761   5.034   5.006
 6886SOL    HW121344   3.814   4.985   5.074
 6886SOL    HW221345   3.783   5.132   5.011
 6887SOL     OW21346   4.456   4.358   4.788
 6887SOL    HW121347   4.515   4.332   4.712
 6887SOL    HW221348   4.428   4.454   4.777
 6888SOL     OW21349   4.031   3.787   4.342
 6888SOL    HW121350   4.020   3.881   4.375
 6888SOL    HW221351   4.026   3.724   4.419
 6889SOL     OW21352   5.346   4.091   4.098
 6889SOL    HW121353   5.348   4.015   4.162
 6889SOL    HW221354   5.298   4.168   4.138
 6890SOL     OW21355   4.747   4.490   4.690
 6890SOL    HW121356   4.762   4.511   4.786
 6890SOL    HW221357   4.717   4.395   4.681
 6891SOL     OW21358   4.074   4.622   5.528
 6891SOL    HW121359   4.150   4.666   5.576
 6891SOL    HW221360   4.109   4.575   5.446
 6892SOL     OW21361   5.027   4.562   3.766
 6892SOL    HW121362   5.061   4.469   3.781
 6892SOL    HW221363   5.045   4.589   3.671
 6893SOL     OW21364   4.792   5.057   4.573
 6893SOL    HW121365   4.799   4.973   4.518
 6893SOL    HW221366   4.854   5.126   4.537
 6894SOL     OW21367   4.043   4.534   4.673
 6894SOL    HW121368   4.136   4.570   4.678
 6894SOL    HW221369   4.037   4.449   4.725
 6895SOL     OW21370   4.063   4.233   4.730
 6895SOL    HW121371   4.011   4.150   4.713
 6895SOL    HW221372   4.140   4.238   4.666
 6896SOL     OW21373   4.862   4.104   5.402
 6896SOL    HW121374   4.817   4.167   5.466
 6896SOL    HW221375   4.955   4.135   5.385
 6897SOL     OW21376   4.884   3.931   5.201
 6897SOL    HW121377   4.884   3.995   5.278
 6897SOL    HW221378   4.912   3.979   5.118
 6898SOL     OW21379   3.732   5.050   3.924
 6898SOL    HW121380   3.639   5.071   3.893
 6898SOL    HW221381   3.742   4.951   3.937
 6899SOL     OW21382   4.726   4.520   4.962
 6899SOL    HW121383   4.767   4.488   5.048
 6899SOL    HW221384   4.630   4.493   4.959
 6900SOL     OW21385   3.764   4.268   4.838
 6900SOL    HW121386   3.849   4.235   4.797
 6900SOL    HW221387   3.777   4.283   4.936
 6901SOL     OW21388   3.913   4.244   5.446
 6901SOL    HW121389   3.972   4.204   5.376
 6901SOL    HW221390   3.855   4.315   5.405
 6902SOL     OW21391   5.093   4.674   5.384
 6902SOL    HW121392   5.132   4.763   5.404
 6902SOL    HW221393   5.103   4.654   5.287
 6903SOL     OW21394   4.539   4.296   4.049
 6903SOL    HW121395   4.546   4.207   4.003
 6903SOL    HW221396   4.445   4.330   4.041
 6904SOL     OW21397   3.976   5.288   5.468
 6904SOL    HW121398   3.946   5.345   5.544
 6904SOL    HW221399   3.969   5.191   5.494
 6905SOL     OW21400   4.395   4.188   4.993
 6905SOL    HW121401   4.361   4.099   4.963
 6905SOL    HW221402   4.421   4.242   4.913
 6906SOL     OW21403   4.197   4.224   3.915
 6906SOL    HW121404   4.258   4.304   3.919
 6906SOL    HW221405   4.102   4.255   3.922
 6907SOL     OW21406   3.883   4.861   5.190
 6907SOL    HW121407   3.905   4.800   5.266
 6907SOL    HW221408   3.893   4.812   5.104
 6908SOL     OW21409   5.071   4.783   4.958
 6908SOL    HW121410   5.095   4.720   4.884
 6908SOL    HW221411   4.981   4.823   4.940
 6909SOL     OW21412   5.026   4.579   4.033
 6909SOL    HW121413   4.940   4.548   4.075
 6909SOL    HW221414   5.022   4.565   3.934
 6910SOL     OW21415   3.807   4.982   4.746
 6910SOL    HW121416   3.802   4.981   4.846
 6910SOL    HW221417   3.724   4.941   4.708
 6911SOL     OW21418   4.412   5.386   5.440
 6911SOL    HW121419   4.356   5.467   5.449
 6911SOL    HW221420   4.464   5.390   5.354
 6912SOL     OW21421   5.450   3.859   4.247
 6912SOL    HW121422   5.523   3.842   4.180
 6912SOL    HW221423   5.419   3.772   4.285
 6913SOL     OW21424   5.004   4.651   4.396
 6913SOL    HW121425   5.064   4.570   4.398
 6913SOL    HW221426   5.044   4.720   4.336
 6914SOL     OW21427   4.554   4.997   5.146
 6914SOL    HW121428   4.549   5.030   5.241
 6914SOL    HW221429   4.468   5.016   5.100
 6915SOL     OW21430   3.987   4.050   4.444
 6915SOL    HW121431   3.908   4.101   4.410
 6915SOL    HW221432   3.978   4.035   4.542
 6916SOL     OW21433   4.546   4.726   5.096
 6916SOL    HW121434   4.586   4.725   5.004
 6916SOL    HW221435   4.556   4.818   5.136
 6917SOL     OW21436   4.640   4.634   4.015
 6917SOL    HW121437   4.703   4.672   3.947
 6917SOL    HW221438   4.680   4.551   4.054
 6918SOL     OW21439   4.096   5.012   5.214
 6918SOL    HW121440   4.083   5.105   5.180
 6918SOL    HW221441   4.012   4.960   5.201
 6919SOL     OW21442   4.763   4.822   4.420
 6919SOL    HW121443   4.693   4.775   4.474
 6919SOL    HW221444   4.822   4.754   4.377
 6920SOL     OW21445   4.738   3.960   4.695
 6920SOL    HW121446   4.730   3.924   4.602
 6920SOL    HW221447   4.736   3.884   4.760
 6921SOL     OW21448   3.979   5.072   4.014
 6921SOL    HW121449   3.883   5.073   3.987
 6921SOL    HW221450   3.991   5.125   4.098
 6922SOL     OW21451   3.829   4.737   5.450
 6922SOL    HW121452   3.752   4.704   5.504
 6922SOL    HW221453   3.914   4.707   5.492
 6923SOL     OW21454   4.396   3.927   5.213
 6923SOL    HW121455   4.486   3.911   5.173
 6923SOL    HW221456   4.404   3.932   5.312
 6924SOL     OW21457   3.799   4.069   3.757
 6924SOL    HW121458   3.707   4.041   3.728
 6924SOL    HW221459   3.830   4.146   3.701
 6925SOL     OW21460   5.164   4.580   5.122
 6925SOL    HW121461   5.107   4.632   5.059
 6925SOL    HW221462   5.260   4.592   5.098
 6926SOL     OW21463   3.796   3.890   4.042
 6926SOL    HW121464   3.779   3.973   3.988
 6926SOL    HW221465   3.886   3.853   4.020
 6927SOL     OW21466   4.907   5.059   3.843
 6927SOL    HW121467   4.808   5.048   3.845
 6927SOL    HW221468   4.941   5.074   3.936
 6928SOL     OW21469   4.337   4.566   5.155
 6928SOL    HW121470   4.393   4.647   5.138
 6928SOL    HW221471   4.396   4.486   5.158
 6929SOL     OW21472   4.440   4.289   5.432
 6929SOL    HW121473   4.459   4.354   5.506
 6929SOL    HW221474   4.500   4.209   5.441
 6930SOL     OW21475   5.174   4.944   5.357
 6930SOL    HW121476   5.165   4.934   5.456
 6930SOL    HW221477   5.270   4.937   5.331
 6931SOL     OW21478   4.949   4.049   4.173
 6931SOL    HW121479   5.014   3.975   4.162
 6931SOL    HW221480   4.969   4.099   4.257
 6932SOL     OW21481   4.318   4.469   4.376
 6932SOL    HW121482   4.368   4.554   4.357
 6932SOL    HW221483   4.230   4.471   4.328
 6933SOL     OW21484   4.583   5.098   3.740
 6933SOL    HW121485   4.537   5.113   3.828
 6933SOL    HW221486   4.627   5.183   3.710
 6934SOL     OW21487   4.583   4.680   4.585
 6934SOL    HW121488   4.637   4.611   4.633
 6934SOL    HW221489   4.551   4.749   4.651
 6935SOL     OW21490   4.807   4.708   3.811
 6935SOL    HW121491   4.784   4.761   3.729
 6935SOL    HW221492   4.888   4.652   3.792
 6936SOL     OW21493   3.945   5.038   5.568
 6936SOL    HW121494   3.880   4.965   5.547
 6936SOL    HW221495   3.949   5.052   5.666
 6937SOL     OW21496   3.803   4.964   4.377
 6937SOL    HW121497   3.802   4.917   4.465
 6937SOL    HW221498   3.885   4.936   4.326
 6938SOL     OW21499   4.396   5.115   5.348
 6938SOL    HW121500   4.318   5.065   5.386
 6938SOL    HW221501   4.393   5.210   5.379
 6939SOL     OW21502   4.152   4.148   4.244
 6939SOL    HW121503   4.182   4.076   4.182
 6939SOL    HW221504   4.113   4.108   4.327
 6940SOL     OW21505   5.429   5.211   4.828
 6940SOL    HW121506   5.336   5.186   4.801
 6940SOL    HW221507   5.455   5.161   4.910
 6941SOL     OW21508   4.041   4.271   5.004
 6941SOL    HW121509   4.079   4.212   5.076
 6941SOL    HW221510   4.081   4.245   4.916
 6942SOL     OW21511   5.148   3.938   4.836
 6942SOL    HW121512   5.200   3.873   4.891
 6942SOL    HW221513   5.099   4.001   4.897
 6943SOL     OW21514   4.725   3.758   4.878
 6943SOL    HW121515   4.662   3.686   4.847
 6943SOL    HW221516   4.818   3.722   4.878
 6944SOL     OW21517   4.494   5.054   4.025
 6944SOL    HW121518   4.448   4.967   4.042
 6944SOL    HW221519   4.585   5.051   4.066
 6945SOL     OW21520   4.342   5.291   5.008
 6945SOL    HW121521   4.337   5.373   5.065
 6945SOL    HW221522   4.431   5.288   4.963
 6946SOL     OW21523   5.076   3.776   3.892
 6946SOL    HW121524   5.111   3.735   3.808
 6946SOL    HW221525   4.986   3.738   3.912
 6947SOL     OW21526   5.024   4.177   4.415
 6947SOL    HW121527   4.965   4.257   4.419
 6947SOL    HW221528   5.039   4.142   4.508
 6948SOL     OW21529   5.317   3.945   4.606
 6948SOL    HW121530   5.233   3.944   4.660
 6948SOL    HW221531   5.319   4.028   4.550
 6949SOL     OW21532   3.763   4.801   4.024
 6949SOL    HW121533   3.862   4.790   4.015
 6949SOL    HW221534   3.723   4.715   4.056
 6950SOL     OW21535   3.954   4.352   5.699
 6950SOL    HW121536   3.861   4.350   5.736
 6950SOL    HW221537   3.955   4.313   5.607
 6951SOL     OW21538   3.949   3.999   6.582
 6951SOL    HW121539   3.984   3.982   6.674
 6951SOL    HW221540   3.861   3.954   6.570
 6952SOL     OW21541   3.743   4.092   6.233
 6952SOL    HW121542   3.661   4.135   6.272
 6952SOL    HW221543   3.715   4.019   6.170
 6953SOL     OW21544   4.293   4.999   6.751
 6953SOL    HW121545   4.200   4.992   6.714
 6953SOL    HW221546   4.304   5.088   6.795
 6954SOL     OW21547   5.279   5.235   6.289
 6954SOL    HW121548   5.222   5.219   6.370
 6954SOL    HW221549   5.220   5.245   6.209
 6955SOL     OW21550   4.859   4.427   6.303
 6955SOL    HW121551   4.916   4.505   6.278
 6955SOL    HW221552   4.799   4.453   6.379
 6956SOL     OW21553   4.492   4.868   6.609
 6956SOL    HW121554   4.414   4.885   6.669
 6956SOL    HW221555   4.526   4.955   6.573
 6957SOL     OW21556   4.574   4.522   7.409
 6957SOL    HW121557   4.570   4.598   7.474
 6957SOL    HW221558   4.596   4.558   7.318
 6958SOL     OW21559   4.409   4.736   6.251
 6958SOL    HW121560   4.478   4.720   6.321
 6958SOL    HW221561   4.336   4.793   6.289
 6959SOL     OW21562   4.410   4.885   7.389
 6959SOL    HW121563   4.470   4.964   7.403
 6959SOL    HW221564   4.324   4.916   7.348
 6960SOL     OW21565   4.059   5.159   6.647
 6960SOL    HW121566   3.981   5.128   6.594
 6960SOL    HW221567   4.117   5.217   6.590
 6961SOL     OW21568   5.184   5.229   6.925
 6961SOL    HW121569   5.208   5.323   6.951
 6961SOL    HW221570   5.168   5.175   7.007
 6962SOL     OW21571   4.162   4.116   7.085
 6962SOL    HW121572   4.244   4.060   7.094
 6962SOL    HW221573   4.081   4.058   7.089
 6963SOL     OW21574   4.851   5.065   7.276
 6963SOL    HW121575   4.898   5.065   7.364
 6963SOL    HW221576   4.803   4.978   7.265
 6964SOL     OW21577   3.954   5.158   6.124
 6964SOL    HW121578   3.928   5.254   6.124
 6964SOL    HW221579   3.883   5.104   6.169
 6965SOL     OW21580   3.964   4.815   6.472
 6965SOL    HW121581   3.978   4.731   6.524
 6965SOL    HW221582   3.909   4.879   6.527
 6966SOL     OW21583   4.330   4.688   5.709
 6966SOL    HW121584   4.337   4.772   5.655
 6966SOL    HW221585   4.376   4.701   5.797
 6967SOL     OW21586   3.846   4.367   6.149
 6967SOL    HW121587   3.801   4.279   6.166
 6967SOL    HW221588   3.845   4.421   6.233
 6968SOL     OW21589   3.751   5.320   5.703
 6968SOL    HW121590   3.732   5.224   5.724
 6968SOL    HW221591   3.718   5.378   5.778
 6969SOL     OW21592   5.413   4.646   6.198
 6969SOL    HW121593   5.508   4.617   6.206
 6969SOL    HW221594   5.405   4.711   6.123
 6970SOL     OW21595   3.837   4.461   7.183
 6970SOL    HW121596   3.925   4.448   7.228
 6970SOL    HW221597   3.824   4.558   7.161
 6971SOL     OW21598   4.337   5.089   6.312
 6971SOL    HW121599   4.288   5.002   6.321
 6971SOL    HW221600   4.314   5.132   6.225
 6972SOL     OW21601   5.017   4.952   7.009
 6972SOL    HW121602   5.054   4.879   6.951
 6972SOL    HW221603   5.069   4.957   7.094
 6973SOL     OW21604   4.533   3.728   6.088
 6973SOL    HW121605   4.573   3.819   6.079
 6973SOL    HW221606   4.433   3.736   6.094
 6974SOL     OW21607   3.921   4.700   6.850
 6974SOL    HW121608   4.010   4.655   6.836
 6974SOL    HW221609   3.848   4.635   6.831
 6975SOL     OW21610   4.041   3.975   7.387
 6975SOL    HW121611   4.112   4.046   7.393
 6975SOL    HW221612   3.953   4.014   7.415
 6976SOL     OW21613   5.190   5.141   6.539
 6976SOL    HW121614   5.131   5.147   6.619
 6976SOL    HW221615   5.175   5.053   6.493
 6977SOL     OW21616   5.391   5.438   6.158
 6977SOL    HW121617   5.350   5.415   6.070
 6977SOL    HW221618   5.373   5.364   6.223
 6978SOL     OW21619   4.322   4.453   5.856
 6978SOL    HW121620   4.346   4.522   5.788
 6978SOL    HW221621   4.244   4.486   5.910
 6979SOL     OW21622   5.005   4.069   6.530
 6979SOL    HW121623   4.919   4.019   6.517
 6979SOL    HW221624   5.067   4.015   6.586
 6980SOL     OW21625   4.531   4.329   7.051
 6980SOL    HW121626   4.484   4.326   7.140
 6980SOL    HW221627   4.480   4.274   6.985
 6981SOL     OW21628   5.118   4.193   7.260
 6981SOL    HW121629   5.098   4.236   7.348
 6981SOL    HW221630   5.196   4.131   7.269
 6982SOL     OW21631   4.697   4.614   7.158
 6982SOL    HW121632   4.743   4.530   7.129
 6982SOL    HW221633   4.641   4.648   7.083
 6983SOL     OW21634   4.715   4.134   6.828
 6983SOL    HW121635   4.638   4.168   6.882
 6983SOL    HW221636   4.681   4.083   6.749
 6984SOL     OW21637   4.765   4.425   6.015
 6984SOL    HW121638   4.791   4.421   6.111
 6984SOL    HW221639   4.680   4.374   6.001
 6985SOL     OW21640   3.800   4.535   6.375
 6985SOL    HW121641   3.899   4.523   6.384
 6985SOL    HW221642   3.776   4.630   6.396
 6986SOL     OW21643   4.589   4.072   5.781
 6986SOL    HW121644   4.648   4.135   5.732
 6986SOL    HW221645   4.608   3.978   5.752
 6987SOL     OW21646   5.086   4.868   6.131
 6987SOL    HW121647   5.169   4.839   6.083
 6987SOL    HW221648   5.037   4.935   6.075
 6988SOL     OW21649   4.274   3.920   6.471
 6988SOL    HW121650   4.269   3.915   6.571
 6988SOL    HW221651   4.276   4.016   6.442
 6989SOL     OW21652   4.732   5.180   6.063
 6989SOL    HW121653   4.686   5.252   6.011
 6989SOL    HW221654   4.728   5.200   6.161
 6990SOL     OW21655   4.951   5.274   7.092
 6990SOL    HW121656   4.957   5.197   7.156
 6990SOL    HW221657   4.899   5.248   7.012
 6991SOL     OW21658   4.045   4.667   5.828
 6991SOL    HW121659   4.127   4.706   5.786
 6991SOL    HW221660   4.018   4.585   5.779
 6992SOL     OW21661   4.185   4.990   7.313
 6992SOL    HW121662   4.135   4.991   7.227
 6992SOL    HW221663   4.122   4.972   7.389
 6993SOL     OW21664   4.835   5.500   5.823
 6993SOL    HW121665   4.775   5.438   5.873
 6993SOL    HW221666   4.866   5.456   5.738
 6994SOL     OW21667   3.926   4.009   7.084
 6994SOL    HW121668   3.846   4.069   7.071
 6994SOL    HW221669   3.916   3.960   7.170
 6995SOL     OW21670   5.124   3.831   6.012
 6995SOL    HW121671   5.100   3.794   5.922
 6995SOL    HW221672   5.223   3.847   6.016
 6996SOL     OW21673   4.106   4.424   6.066
 6996SOL    HW121674   4.151   4.334   6.063
 6996SOL    HW221675   4.012   4.413   6.099
 6997SOL     OW21676   4.338   3.846   5.703
 6997SOL    HW121677   4.436   3.824   5.710
 6997SOL    HW221678   4.307   3.829   5.610
 6998SOL     OW21679   4.505   3.988   7.335
 6998SOL    HW121680   4.572   3.927   7.378
 6998SOL    HW221681   4.432   4.007   7.400
 6999SOL     OW21682   5.075   4.314   7.019
 6999SOL    HW121683   5.103   4.271   7.104
 6999SOL    HW221684   5.100   4.410   7.020
 7000SOL     OW21685   4.527   5.126   6.510
 7000SOL    HW121686   4.617   5.140   6.468
 7000SOL    HW221687   4.456   5.128   6.439
 7001SOL     OW21688   4.646   4.227   6.485
 7001SOL    HW121689   4.621   4.218   6.389
 7001SOL    HW221690   4.694   4.145   6.516
 7002SOL     OW21691   4.263   3.788   6.098
 7002SOL    HW121692   4.182   3.789   6.156
 7002SOL    HW221693   4.266   3.871   6.043
 7003SOL     OW21694   5.158   4.912   5.627
 7003SOL    HW121695   5.190   4.836   5.684
 7003SOL    HW221696   5.066   4.939   5.657
 7004SOL     OW21697   4.021   3.759   5.757
 7004SOL    HW121698   4.070   3.843   5.736
 7004SOL    HW221699   4.083   3.694   5.802
 7005SOL     OW21700   4.659   3.960   6.066
 7005SOL    HW121701   4.611   4.001   5.988
 7005SOL    HW221702   4.758   3.958   6.047
 7006SOL     OW21703   4.800   4.407   7.050
 7006SOL    HW121704   4.720   4.346   7.053
 7006SOL    HW221705   4.881   4.354   7.026
 7007SOL     OW21706   4.951   5.294   6.379
 7007SOL    HW121707   4.972   5.368   6.314
 7007SOL    HW221708   5.019   5.294   6.452
 7008SOL     OW21709   4.183   4.876   6.327
 7008SOL    HW121710   4.112   4.849   6.392
 7008SOL    HW221711   4.157   4.848   6.234
 7009SOL     OW21712   4.756   4.273   5.602
 7009SOL    HW121713   4.715   4.355   5.563
 7009SOL    HW221714   4.820   4.299   5.675
 7010SOL     OW21715   3.802   4.280   6.972
 7010SOL    HW121716   3.894   4.279   6.931
 7010SOL    HW221717   3.796   4.354   7.039
 7011SOL     OW21718   4.285   3.946   6.733
 7011SOL    HW121719   4.323   3.862   6.770
 7011SOL    HW221720   4.197   3.965   6.777
 7012SOL     OW21721   4.590   4.178   6.228
 7012SOL    HW121722   4.558   4.250   6.166
 7012SOL    HW221723   4.614   4.097   6.175
 7013SOL     OW21724   4.741   3.763   6.339
 7013SOL    HW121725   4.669   3.768   6.270
 7013SOL    HW221726   4.717   3.694   6.408
 7014SOL     OW21727   5.153   4.897   6.453
 7014SOL    HW121728   5.098   4.813   6.446
 7014SOL    HW221729   5.179   4.926   6.361
 7015SOL     OW21730   4.212   5.109   5.760
 7015SOL    HW121731   4.125   5.094   5.807
 7015SOL    HW221732   4.195   5.135   5.665
 7016SOL     OW21733   5.114   4.299   5.664
 7016SOL    HW121734   5.060   4.278   5.745
 7016SOL    HW221735   5.205   4.258   5.673
 7017SOL     OW21736   4.251   3.980   5.914
 7017SOL    HW121737   4.278   3.921   5.839
 7017SOL    HW221738   4.251   4.075   5.883
 7018SOL     OW21739   4.788   5.071   6.926
 7018SOL    HW121740   4.708   5.048   6.981
 7018SOL    HW221741   4.871   5.045   6.975
 7019SOL     OW21742   4.835   4.919   6.686
 7019SOL    HW121743   4.795   4.963   6.767
 7019SOL    HW221744   4.794   4.956   6.603
 7020SOL     OW21745   4.639   3.813   6.988
 7020SOL    HW121746   4.664   3.793   6.893
 7020SOL    HW221747   4.711   3.869   7.030
 7021SOL     OW21748   4.704   4.840   7.305
 7021SOL    HW121749   4.605   4.846   7.315
 7021SOL    HW221750   4.727   4.760   7.249
 7022SOL     OW21751   4.429   4.774   5.954
 7022SOL    HW121752   4.415   4.781   6.053
 7022SOL    HW221753   4.513   4.723   5.936
 7023SOL     OW21754   4.134   4.537   6.837
 7023SOL    HW121755   4.220   4.549   6.887
 7023SOL    HW221756   4.092   4.450   6.864
 7024SOL     OW21757   4.998   4.110   6.848
 7024SOL    HW121758   5.019   4.184   6.912
 7024SOL    HW221759   4.909   4.127   6.805
 7025SOL     OW21760   4.091   4.824   6.087
 7025SOL    HW121761   4.084   4.907   6.031
 7025SOL    HW221762   4.095   4.744   6.027
 7026SOL     OW21763   4.290   4.261   6.451
 7026SOL    HW121764   4.302   4.327   6.377
 7026SOL    HW221765   4.336   4.295   6.534
 7027SOL     OW21766   4.976   5.072   5.974
 7027SOL    HW121767   5.026   5.149   6.014
 7027SOL    HW221768   4.881   5.074   6.006
 7028SOL     OW21769   4.996   5.169   6.728
 7028SOL    HW121770   5.043   5.182   6.815
 7028SOL    HW221771   4.930   5.095   6.737
 7029SOL     OW21772   4.078   5.234   6.915
 7029SOL    HW121773   4.057   5.190   6.828
 7029SOL    HW221774   4.175   5.260   6.918
 7030SOL     OW21775   4.126   4.475   7.184
 7030SOL    HW121776   4.194   4.530   7.137
 7030SOL    HW221777   4.166   4.387   7.211
 7031SOL     OW21778   4.737   3.829   7.356
 7031SOL    HW121779   4.743   3.914   7.304
 7031SOL    HW221780   4.769   3.753   7.299
 7032SOL     OW21781   4.228   3.774   7.326
 7032SOL    HW121782   4.186   3.717   7.256
 7032SOL    HW221783   4.162   3.843   7.358
 7033SOL     OW21784   4.297   4.594   6.615
 7033SOL    HW121785   4.341   4.683   6.606
 7033SOL    HW221786   4.234   4.594   6.692
 7034SOL     OW21787   5.084   4.586   6.631
 7034SOL    HW121788   5.009   4.586   6.565
 7034SOL    HW221789   5.121   4.494   6.640
 7035SOL     OW21790   4.933   4.249   5.861
 7035SOL    HW121791   4.946   4.165   5.915
 7035SOL    HW221792   4.904   4.323   5.921
 7036SOL     OW21793   4.031   3.937   6.817
 7036SOL    HW121794   4.008   3.974   6.907
 7036SOL    HW221795   4.001   3.842   6.811
 7037SOL     OW21796   3.761   5.034   6.868
 7037SOL    HW121797   3.814   4.985   6.936
 7037SOL    HW221798   3.783   5.132   6.873
 7038SOL     OW21799   4.456   4.358   6.650
 7038SOL    HW121800   4.515   4.332   6.574
 7038SOL    HW221801   4.428   4.454   6.639
 7039SOL     OW21802   4.031   3.787   6.204
 7039SOL    HW121803   4.020   3.881   6.237
 7039SOL    HW221804   4.026   3.724   6.281
 7040SOL     OW21805   5.346   4.091   5.960
 7040SOL    HW121806   5.348   4.015   6.024
 7040SOL    HW221807   5.298   4.168   6.000
 7041SOL     OW21808   4.747   4.490   6.552
 7041SOL    HW121809   4.762   4.511   6.648
 7041SOL    HW221810   4.717   4.395   6.543
 7042SOL     OW21811   4.074   4.622   7.390
 7042SOL    HW121812   4.150   4.666   7.438
 7042SOL    HW221813   4.109   4.575   7.308
 7043SOL     OW21814   5.027   4.562   5.628
 7043SOL    HW121815   5.061   4.469   5.643
 7043SOL    HW221816   5.045   4.589   5.533
 7044SOL     OW21817   4.792   5.057   6.435
 7044SOL    HW121818   4.799   4.973   6.380
 7044SOL    HW221819   4.854   5.126   6.399
 7045SOL     OW21820   4.043   4.534   6.535
 7045SOL    HW121821   4.136   4.570   6.540
 7045SOL    HW221822   4.037   4.449   6.587
 7046SOL     OW21823   4.063   4.233   6.592
 7046SOL    HW121824   4.011   4.150   6.575
 7046SOL    HW221825   4.140   4.238   6.528
 7047SOL     OW21826   4.862   4.104   7.264
 7047SOL    HW121827   4.817   4.167   7.328
 7047SOL    HW221828   4.955   4.135   7.247
 7048SOL     OW21829   4.884   3.931   7.063
 7048SOL    HW121830   4.884   3.995   7.140
 7048SOL    HW221831   4.912   3.979   6.980
 7049SOL     OW21832   3.732   5.050   5.786
 7049SOL    HW121833   3.639   5.071   5.755
 7049SOL    HW221834   3.742   4.951   5.799
 7050SOL     OW21835   4.726   4.520   6.824
 7050SOL    HW121836   4.767   4.488   6.910
 7050SOL    HW221837   4.630   4.493   6.821
 7051SOL     OW21838   3.764   4.268   6.700
 7051SOL    HW121839   3.849   4.235   6.659
 7051SOL    HW221840   3.777   4.283   6.798
 7052SOL     OW21841   3.913   4.244   7.308
 7052SOL    HW121842   3.972   4.204   7.238
 7052SOL    HW221843   3.855   4.315   7.267
 7053SOL     OW21844   5.093   4.674   7.246
 7053SOL    HW121845   5.132   4.763   7.266
 7053SOL    HW221846   5.103   4.654   7.149
 7054SOL     OW21847   4.539   4.296   5.911
 7054SOL    HW121848   4.546   4.207   5.865
 7054SOL    HW221849   4.445   4.330   5.903
 7055SOL     OW21850   3.976   5.288   7.330
 7055SOL    HW121851   3.946   5.345   7.406
 7055SOL    HW221852   3.969   5.191   7.356
 7056SOL     OW21853   4.395   4.188   6.855
 7056SOL    HW121854   4.361   4.099   6.825
 7056SOL    HW221855   4.421   4.242   6.775
 7057SOL     OW21856   4.197   4.224   5.777
 7057SOL    HW121857   4.258   4.304   5.781
 7057SOL    HW221858   4.102   4.255   5.784
 7058SOL     OW21859   3.883   4.861   7.052
 7058SOL    HW121860   3.905   4.800   7.128
 7058SOL    HW221861   3.893   4.812   6.966
 7059SOL     OW21862   5.071   4.783   6.820
 7059SOL    HW121863   5.095   4.720   6.746
 7059SOL    HW221864   4.981   4.823   6.802
 7060SOL     OW21865   5.026   4.579   5.895
 7060SOL    HW121866   4.940   4.548   5.937
 7060SOL    HW221867   5.022   4.565   5.796
 7061SOL     OW21868   3.807   4.982   6.608
 7061SOL    HW121869   3.802   4.981   6.708
 7061SOL    HW221870   3.724   4.941   6.570
 7062SOL     OW21871   4.412   5.386   7.302
 7062SOL    HW121872   4.356   5.467   7.311
 7062SOL    HW221873   4.464   5.390   7.216
 7063SOL     OW21874   5.450   3.859   6.109
 7063SOL    HW121875   5.523   3.842   6.042
 7063SOL    HW221876   5.419   3.772   6.147
 7064SOL     OW21877   5.004   4.651   6.258
 7064SOL    HW121878   5.064   4.570   6.260
 7064SOL    HW221879   5.044   4.720   6.198
 7065SOL     OW21880   4.554   4.997   7.008
 7065SOL    HW121881   4.549   5.030   7.103
 7065SOL    HW221882   4.468   5.016   6.962
 7066SOL     OW21883   3.987   4.050   6.306
 7066SOL    HW121884   3.908   4.101   6.272
 7066SOL    HW221885   3.978   4.035   6.404
 7067SOL     OW21886   4.546   4.726   6.958
 7067SOL    HW121887   4.586   4.725   6.866
 7067SOL    HW221888   4.556   4.818   6.998
 7068SOL     OW21889   4.640   4.634   5.877
 7068SOL    HW121890   4.703   4.672   5.809
 7068SOL    HW221891   4.680   4.551   5.916
 7069SOL     OW21892   4.096   5.012   7.076
 7069SOL    HW121893   4.083   5.105   7.042
 7069SOL    HW221894   4.012   4.960   7.063
 7070SOL     OW21895   4.763   4.822   6.282
 7070SOL    HW121896   4.693   4.775   6.336
 7070SOL    HW221897   4.822   4.754   6.239
 7071SOL     OW21898   4.738   3.960   6.557
 7071SOL    HW121899   4.730   3.924   6.464
 7071SOL    HW221900   4.736   3.884   6.622
 7072SOL     OW21901   3.979   5.072   5.876
 7072SOL    HW121902   3.883   5.073   5.849
 7072SOL    HW221903   3.991   5.125   5.960
 7073SOL     OW21904   3.829   4.737   7.312
 7073SOL    HW121905   3.752   4.704   7.366
 7073SOL    HW221906   3.914   4.707   7.354
 7074SOL     OW21907   4.396   3.927   7.075
 7074SOL    HW121908   4.486   3.911   7.035
 7074SOL    HW221909   4.404   3.932   7.174
 7075SOL     OW21910   3.799   4.069   5.619
 7075SOL    HW121911   3.707   4.041   5.590
 7075SOL    HW221912   3.830   4.146   5.563
 7076SOL     OW21913   5.164   4.580   6.984
 7076SOL    HW121914   5.107   4.632   6.921
 7076SOL    HW221915   5.260   4.592   6.960
 7077SOL     OW21916   3.796   3.890   5.904
 7077SOL    HW121917   3.779   3.973   5.850
 7077SOL    HW221918   3.886   3.853   5.882
 7078SOL     OW21919   4.907   5.059   5.705
 7078SOL    HW121920   4.808   5.048   5.707
 7078SOL    HW221921   4.941   5.074   5.798
 7079SOL     OW21922   4.337   4.566   7.017
 7079SOL    HW121923   4.393   4.647   7.000
 7079SOL    HW221924   4.396   4.486   7.020
 7080SOL     OW21925   4.440   4.289   7.294
 7080SOL    HW121926   4.459   4.354   7.368
 7080SOL    HW221927   4.500   4.209   7.303
 7081SOL     OW21928   5.174   4.944   7.219
 7081SOL    HW121929   5.165   4.934   7.318
 7081SOL    HW221930   5.270   4.937   7.193
 7082SOL     OW21931   4.949   4.049   6.035
 7082SOL    HW121932   5.014   3.975   6.024
 7082SOL    HW221933   4.969   4.099   6.119
 7083SOL     OW21934   4.318   4.469   6.238
 7083SOL    HW121935   4.368   4.554   6.219
 7083SOL    HW221936   4.230   4.471   6.190
 7084SOL     OW21937   4.583   5.098   5.602
 7084SOL    HW121938   4.537   5.113   5.690
 7084SOL    HW221939   4.627   5.183   5.572
 7085SOL     OW21940   4.583   4.680   6.447
 7085SOL    HW121941   4.637   4.611   6.495
 7085SOL    HW221942   4.551   4.749   6.513
 7086SOL     OW21943   4.807   4.708   5.673
 7086SOL    HW121944   4.784   4.761   5.591
 7086SOL    HW221945   4.888   4.652   5.654
 7087SOL     OW21946   3.945   5.038   7.430
 7087SOL    HW121947   3.880   4.965   7.409
 7087SOL    HW221948   3.949   5.052   7.528
 7088SOL     OW21949   3.803   4.964   6.239
 7088SOL    HW121950   3.802   4.917   6.327
 7088SOL    HW221951   3.885   4.936   6.188
 7089SOL     OW21952   4.396   5.115   7.210
 7089SOL    HW121953   4.318   5.065   7.248
 7089SOL    HW221954   4.393   5.210   7.241
 7090SOL     OW21955   4.152   4.148   6.106
 7090SOL    HW121956   4.182   4.076   6.044
 7090SOL    HW221957   4.113   4.108   6.189
 7091SOL     OW21958   5.429   5.211   6.690
 7091SOL    HW121959   5.336   5.186   6.663
 7091SOL    HW221960   5.455   5.161   6.772
 7092SOL     OW21961   4.041   4.271   6.866
 7092SOL    HW121962   4.079   4.212   6.938
 7092SOL    HW221963   4.081   4.245   6.778
 7093SOL     OW21964   5.148   3.938   6.698
 7093SOL    HW121965   5.200   3.873   6.753
 7093SOL    HW221966   5.099   4.001   6.759
 7094SOL     OW21967   4.725   3.758   6.740
 7094SOL    HW121968   4.662   3.686   6.709
 7094SOL    HW221969   4.818   3.722   6.740
 7095SOL     OW21970   4.494   5.054   5.887
 7095SOL    HW121971   4.448   4.967   5.904
 7095SOL    HW221972   4.585   5.051   5.928
 7096SOL     OW21973   4.342   5.291   6.870
 7096SOL    HW121974   4.337   5.373   6.927
 7096SOL    HW221975   4.431   5.288   6.825
 7097SOL     OW21976   5.076   3.776   5.754
 7097SOL    HW121977   5.111   3.735   5.670
 7097SOL    HW221978   4.986   3.738   5.774
 7098SOL     OW21979   5.024   4.177   6.277
 7098SOL    HW121980   4.965   4.257   6.281
 7098SOL    HW221981   5.039   4.142   6.370
 7099SOL     OW21982   5.317   3.945   6.468
 7099SOL    HW121983   5.233   3.944   6.522
 7099SOL    HW221984   5.319   4.028   6.412
 7100SOL     OW21985   3.763   4.801   5.886
 7100SOL    HW121986   3.862   4.790   5.877
 7100SOL    HW221987   3.723   4.715   5.918
 7101SOL     OW21988   3.954   4.352   7.561
 7101SOL    HW121989   3.861   4.350   7.598
 7101SOL    HW221990   3.955   4.313   7.469
 7102SOL     OW21991   3.955   5.437   7.931
 7102SOL    HW121992   3.989   5.514   7.985
 7102SOL    HW221993   3.999   5.437   7.841
 7103SOL     OW21994   3.954   5.158   7.986
 7103SOL    HW121995   3.928   5.254   7.986
 7103SOL    HW221996   3.883   5.104   8.031
 7104SOL     OW21997   4.330   4.688   7.571
 7104SOL    HW121998   4.337   4.772   7.517
 7104SOL    HW221999   4.376   4.701   7.659
 7105SOL     OW22000   3.751   5.320   7.565
 7105SOL    HW122001   3.732   5.224   7.586
 7105SOL    HW222002   3.718   5.378   7.640
 7106SOL     OW22003   5.413   4.646   8.060
 7106SOL    HW122004   5.508   4.617   8.068
 7106SOL    HW222005   5.405   4.711   7.985
 7107SOL     OW22006   4.533   3.728   7.950
 7107SOL    HW122007   4.573   3.819   7.941
 7107SOL    HW222008   4.433   3.736   7.956
 7108SOL     OW22009   4.322   4.453   7.718
 7108SOL    HW122010   4.346   4.522   7.650
 7108SOL    HW222011   4.244   4.486   7.772
 7109SOL     OW22012   3.800   4.535   8.237
 7109SOL    HW122013   3.899   4.523   8.246
 7109SOL    HW222014   3.776   4.630   8.258
 7110SOL     OW22015   4.589   4.072   7.643
 7110SOL    HW122016   4.648   4.135   7.594
 7110SOL    HW222017   4.608   3.978   7.614
 7111SOL     OW22018   4.045   4.667   7.690
 7111SOL    HW122019   4.127   4.706   7.648
 7111SOL    HW222020   4.018   4.585   7.641
 7112SOL     OW22021   4.835   5.500   7.685
 7112SOL    HW122022   4.775   5.438   7.735
 7112SOL    HW222023   4.866   5.456   7.600
 7113SOL     OW22024   5.124   3.831   7.874
 7113SOL    HW122025   5.100   3.794   7.784
 7113SOL    HW222026   5.223   3.847   7.878
 7114SOL     OW22027   4.106   4.424   7.928
 7114SOL    HW122028   4.151   4.334   7.925
 7114SOL    HW222029   4.012   4.413   7.961
 7115SOL     OW22030   4.338   3.846   7.565
 7115SOL    HW122031   4.436   3.824   7.572
 7115SOL    HW222032   4.307   3.829   7.472
 7116SOL     OW22033   4.263   3.788   7.960
 7116SOL    HW122034   4.182   3.789   8.018
 7116SOL    HW222035   4.266   3.871   7.905
 7117SOL     OW22036   5.158   4.912   7.489
 7117SOL    HW122037   5.190   4.836   7.546
 7117SOL    HW222038   5.066   4.939   7.519
 7118SOL     OW22039   4.021   3.759   7.619
 7118SOL    HW122040   4.070   3.843   7.598
 7118SOL    HW222041   4.083   3.694   7.664
 7119SOL     OW22042   4.659   3.960   7.928
 7119SOL    HW122043   4.611   4.001   7.850
 7119SOL    HW222044   4.758   3.958   7.909
 7120SOL     OW22045   4.183   4.876   8.189
 7120SOL    HW122046   4.112   4.849   8.254
 7120SOL    HW222047   4.157   4.848   8.096
 7121SOL     OW22048   4.756   4.273   7.464
 7121SOL    HW122049   4.715   4.355   7.425
 7121SOL    HW222050   4.820   4.299   7.537
 7122SOL     OW22051   4.212   5.109   7.622
 7122SOL    HW122052   4.125   5.094   7.669
 7122SOL    HW222053   4.195   5.135   7.527
 7123SOL     OW22054   5.114   4.299   7.526
 7123SOL    HW122055   5.060   4.278   7.607
 7123SOL    HW222056   5.205   4.258   7.535
 7124SOL     OW22057   4.251   3.980   7.776
 7124SOL    HW122058   4.278   3.921   7.701
 7124SOL    HW222059   4.251   4.075   7.745
 7125SOL     OW22060   4.429   4.774   7.816
 7125SOL    HW122061   4.415   4.781   7.915
 7125SOL    HW222062   4.513   4.723   7.798
 7126SOL     OW22063   4.091   4.824   7.949
 7126SOL    HW122064   4.084   4.907   7.893
 7126SOL    HW222065   4.095   4.744   7.889
 7127SOL     OW22066   4.976   5.072   7.836
 7127SOL    HW122067   5.026   5.149   7.876
 7127SOL    HW222068   4.881   5.074   7.868
 7128SOL     OW22069   5.306   4.363   7.920
 7128SOL    HW122070   5.275   4.424   7.993
 7128SOL    HW222071   5.356   4.415   7.851
 7129SOL     OW22072   4.933   4.249   7.723
 7129SOL    HW122073   4.946   4.165   7.777
 7129SOL    HW222074   4.904   4.323   7.783
 7130SOL     OW22075   5.346   4.091   7.822
 7130SOL    HW122076   5.348   4.015   7.886
 7130SOL    HW222077   5.298   4.168   7.862
 7131SOL     OW22078   5.027   4.562   7.490
 7131SOL    HW122079   5.061   4.469   7.505
 7131SOL    HW222080   5.045   4.589   7.395
 7132SOL     OW22081   3.732   5.050   7.648
 7132SOL    HW122082   3.639   5.071   7.617
 7132SOL    HW222083   3.742   4.951   7.661
 7133SOL     OW22084   4.539   4.296   7.773
 7133SOL    HW122085   4.546   4.207   7.727
 7133SOL    HW222086   4.445   4.330   7.765
 7134SOL     OW22087   4.197   4.224   7.639
 7134SOL    HW122088   4.258   4.304   7.643
 7134SOL    HW222089   4.102   4.255   7.646
 7135SOL     OW22090   5.026   4.579   7.757
 7135SOL    HW122091   4.940   4.548   7.799
 7135SOL    HW222092   5.022   4.565   7.658
 7136SOL     OW22093   5.450   3.859   7.971
 7136SOL    HW122094   5.523   3.842   7.904
 7136SOL    HW222095   5.419   3.772   8.009
 7137SOL     OW22096   4.640   4.634   7.739
 7137SOL    HW122097   4.703   4.672   7.671
 7137SOL    HW222098   4.680   4.551   7.778
 7138SOL     OW22099   3.979   5.072   7.738
 7138SOL    HW122100   3.883   5.073   7.711
 7138SOL    HW222101   3.991   5.125   7.822
 7139SOL     OW22102   3.799   4.069   7.481
 7139SOL    HW122103   3.707   4.041   7.452
 7139SOL    HW222104   3.830   4.146   7.425
 7140SOL     OW22105   3.796   3.890   7.766
 7140SOL    HW122106   3.779   3.973   7.712
 7140SOL    HW222107   3.886   3.853   7.744
 7141SOL     OW22108   4.907   5.059   7.567
 7141SOL    HW122109   4.808   5.048   7.569
 7141SOL    HW222110   4.941   5.074   7.660
 7142SOL     OW22111   4.949   4.049   7.897
 7142SOL    HW122112   5.014   3.975   7.886
 7142SOL    HW222113   4.969   4.099   7.981
 7143SOL     OW22114   4.318   4.469   8.100
 7143SOL    HW122115   4.368   4.554   8.081
 7143SOL    HW222116   4.230   4.471   8.052
 7144SOL     OW22117   4.583   5.098   7.464
 7144SOL    HW122118   4.537   5.113   7.552
 7144SOL    HW222119   4.627   5.183   7.434
 7145SOL     OW22120   4.807   4.708   7.535
 7145SOL    HW122121   4.784   4.761   7.453
 7145SOL    HW222122   4.888   4.652   7.516
 7146SOL     OW22123   4.152   4.148   7.968
 7146SOL    HW122124   4.182   4.076   7.906
 7146SOL    HW222125   4.113   4.108   8.051
 7147SOL     OW22126   4.494   5.054   7.749
 7147SOL    HW122127   4.448   4.967   7.766
 7147SOL    HW222128   4.585   5.051   7.790
 7148SOL     OW22129   5.076   3.776   7.616
 7148SOL    HW122130   5.111   3.735   7.532
 7148SOL    HW222131   4.986   3.738   7.636
 7149SOL     OW22132   3.763   4.801   7.748
 7149SOL    HW122133   3.862   4.790   7.739
 7149SOL    HW222134   3.723   4.715   7.780
   5.30000   5.30000   8.08000
