2gCDOH_1PEG_l14
22203
    1LIG      O    1   1.946   2.003   0.045
    1LIG      C    2   2.017   2.016   0.198
    1LIG     C1    3   1.941   1.985   0.364
    1LIG     O1    4   2.000   2.028   0.518
    1LIG     C2    5   1.943   1.989   0.672
    1LIG     C3    6   2.011   2.047   0.833
    1LIG     O2    7   1.961   2.004   0.987
    1LIG     C4    8   2.024   2.043   1.137
    1LIG     C5    9   1.957   1.995   1.301
    1LIG     O3   10   2.020   2.032   1.452
    1LIG     C6   11   1.963   1.985   1.602
    1LIG     C7   12   2.030   2.035   1.765
    1LIG     O4   13   1.970   1.996   1.917
    1LIG     C8   14   2.029   2.032   2.070
    1LIG     C9   15   1.951   1.991   2.231
    1LIG     O5   16   2.005   2.034   2.384
    1LIG    C10   17   1.945   1.993   2.534
    1LIG    C11   18   2.012   2.051   2.694
    1LIG     O6   19   1.960   2.007   2.845
    1LIG    C12   20   2.023   2.044   2.994
    1LIG    C13   21   1.954   1.997   3.155
    1LIG     O7   22   2.017   2.034   3.305
    1LIG    C14   23   1.960   1.986   3.454
    1LIG    C15   24   2.028   2.036   3.616
    1LIG     O8   25   1.968   1.997   3.766
    1LIG    C16   26   2.029   2.032   3.919
    1LIG    C17   27   1.951   1.991   4.079
    1LIG     O9   28   2.006   2.033   4.231
    1LIG    C18   29   1.944   1.993   4.381
    1LIG    C19   30   2.011   2.050   4.539
    1LIG    O10   31   1.959   2.006   4.690
    1LIG    C20   32   2.023   2.044   4.837
    1LIG    C21   33   1.953   1.998   4.999
    1LIG    O11   34   2.018   2.035   5.147
    1LIG    C22   35   1.963   1.988   5.296
    1LIG    C23   36   2.034   2.038   5.455
    1LIG    O12   37   1.978   1.998   5.606
    1LIG    C24   38   2.044   2.032   5.755
    1LIG    C25   39   1.970   1.992   5.915
    1LIG    O13   40   2.024   2.038   6.066
    1LIG    C26   41   1.972   1.992   6.216
    1LIG    C27   42   2.032   2.053   6.374
    1LIG    O14   43   1.972   2.011   6.522
    1LIG    C28   44   2.028   2.047   6.673
    1LIG    C29   45   1.954   1.998   6.832
    1LIG    O15   46   2.011   2.036   6.984
    1LIG    C30   47   1.960   1.979   7.132
    1LIG    C31   48   2.018   2.038   7.296
    1LIG    O16   49   1.964   1.995   7.448
    1LIG    C32   50   2.032   2.027   7.598
    1LIG    C33   51   1.960   1.986   7.760
    1LIG    O17   52   2.019   2.026   7.910
    1LIG    C34   53   1.960   1.985   8.060
    1LIG    C35   54   2.022   2.042   8.220
    1LIG    O18   55   1.961   1.999   8.368
    1LIG    C36   56   2.015   2.039   8.519
    1LIG    C37   57   1.937   1.993   8.678
    1LIG    O19   58   1.993   2.033   8.830
    1LIG    C38   59   1.938   1.984   8.979
    1LIG    C39   60   2.010   2.032   9.140
    1LIG    O20   61   1.956   1.991   9.292
    1LIG    C40   62   2.017   2.034   9.442
    1LIG    C41   63   1.951   1.984   9.604
    1LIG    O21   64   2.009   2.030   9.754
    1LIG    C42   65   1.955   1.985   9.905
    1LIG    C43   66   2.024   2.040  10.064
    1LIG    O22   67   1.968   1.999  10.215
    1LIG    C44   68   2.027   2.038  10.366
    1LIG    C45   69   1.951   1.995  10.525
    1LIG    O23   70   2.009   2.032  10.677
    1LIG    C46   71   1.951   1.985  10.825
    1LIG    C47   72   2.020   2.032  10.987
    1LIG    O24   73   1.964   1.990  11.138
    1LIG    C48   74   2.022   2.034  11.289
    1LIG    C49   75   1.956   1.983  11.451
    1LIG    O25   76   2.013   2.028  11.602
    1LIG    C50   77   1.956   1.986  11.754
    1LIG    C51   78   2.027   2.037  11.914
    1LIG    O26   79   1.969   1.998  12.066
    1LIG    C52   80   2.028   2.037  12.218
    1LIG    C53   81   1.952   1.994  12.379
    1LIG    O27   82   2.010   2.031  12.533
    1LIG    C54   83   1.952   1.983  12.683
    1LIG    C55   84   2.019   2.029  12.847
    1LIG    O28   85   1.963   1.985  13.000
    1LIG    C56   86   2.018   2.026  13.155
    1LIG    C57   87   1.948   1.972  13.318
    1LIG    O29   88   2.005   2.005  13.474
    1LIG    C58   89   1.935   1.973  13.625
    1LIG    C59   90   2.015   1.978  13.792
    1LIG      H   91   2.055   2.120   0.203
    1LIG     H1   92   2.108   1.955   0.195
    1LIG     H2   93   1.927   1.877   0.367
    1LIG     H3   94   1.840   2.026   0.358
    1LIG     H4   95   1.946   1.879   0.678
    1LIG     H5   96   1.837   2.015   0.674
    1LIG     H6   97   2.006   2.157   0.829
    1LIG     H7   98   2.119   2.026   0.829
    1LIG     H8   99   2.032   2.152   1.140
    1LIG     H9  100   2.129   2.009   1.136
    1LIG    H10  101   1.945   1.886   1.298
    1LIG    H11  102   1.854   2.033   1.301
    1LIG    H12  103   1.967   1.876   1.603
    1LIG    H13  104   1.857   2.009   1.605
    1LIG    H14  105   2.037   2.144   1.761
    1LIG    H15  106   2.135   2.002   1.764
    1LIG    H16  107   2.046   2.141   2.073
    1LIG    H17  108   2.130   1.989   2.075
    1LIG    H18  109   1.942   1.882   2.230
    1LIG    H19  110   1.848   2.028   2.224
    1LIG    H20  111   1.947   1.883   2.540
    1LIG    H21  112   1.839   2.020   2.534
    1LIG    H22  113   2.006   2.160   2.690
    1LIG    H23  114   2.119   2.029   2.690
    1LIG    H24  115   2.031   2.154   2.997
    1LIG    H25  116   2.127   2.009   2.993
    1LIG    H26  117   1.941   1.888   3.153
    1LIG    H27  118   1.852   2.036   3.155
    1LIG    H28  119   1.964   1.877   3.454
    1LIG    H29  120   1.854   2.011   3.457
    1LIG    H30  121   2.034   2.145   3.612
    1LIG    H31  122   2.132   2.003   3.614
    1LIG    H32  123   2.048   2.140   3.922
    1LIG    H33  124   2.128   1.986   3.923
    1LIG    H34  125   1.941   1.882   4.078
    1LIG    H35  126   1.848   2.029   4.072
    1LIG    H36  127   1.945   1.883   4.386
    1LIG    H37  128   1.838   2.021   4.380
    1LIG    H38  129   2.006   2.160   4.536
    1LIG    H39  130   2.118   2.029   4.536
    1LIG    H40  131   2.032   2.153   4.840
    1LIG    H41  132   2.126   2.007   4.837
    1LIG    H42  133   1.939   1.889   4.996
    1LIG    H43  134   1.852   2.039   4.998
    1LIG    H44  135   1.966   1.878   5.296
    1LIG    H45  136   1.857   2.013   5.300
    1LIG    H46  137   2.039   2.147   5.451
    1LIG    H47  138   2.139   2.005   5.451
    1LIG    H48  139   2.065   2.140   5.758
    1LIG    H49  140   2.143   1.985   5.756
    1LIG    H50  141   1.963   1.882   5.917
    1LIG    H51  142   1.866   2.026   5.909
    1LIG    H52  143   1.981   1.883   6.221
    1LIG    H53  144   1.864   2.012   6.218
    1LIG    H54  145   2.027   2.163   6.369
    1LIG    H55  146   2.140   2.031   6.376
    1LIG    H56  147   2.040   2.156   6.677
    1LIG    H57  148   2.130   2.006   6.673
    1LIG    H58  149   1.944   1.889   6.827
    1LIG    H59  150   1.851   2.036   6.828
    1LIG    H60  151   1.981   1.871   7.132
    1LIG    H61  152   1.851   1.984   7.132
    1LIG    H62  153   2.018   2.147   7.291
    1LIG    H63  154   2.123   2.011   7.298
    1LIG    H64  155   2.057   2.133   7.602
    1LIG    H65  156   2.130   1.978   7.597
    1LIG    H66  157   1.950   1.876   7.759
    1LIG    H67  158   1.857   2.023   7.756
    1LIG    H68  159   1.964   1.876   8.065
    1LIG    H69  160   1.854   2.011   8.060
    1LIG    H70  161   2.022   2.152   8.217
    1LIG    H71  162   2.129   2.018   8.221
    1LIG    H72  163   2.024   2.148   8.521
    1LIG    H73  164   2.118   2.002   8.524
    1LIG    H74  165   1.928   1.884   8.676
    1LIG    H75  166   1.834   2.031   8.672
    1LIG    H76  167   1.940   1.875   8.978
    1LIG    H77  168   1.833   2.011   8.985
    1LIG    H78  169   2.017   2.141   9.137
    1LIG    H79  170   2.114   1.996   9.134
    1LIG    H80  171   2.020   2.144   9.443
    1LIG    H81  172   2.121   2.002   9.442
    1LIG    H82  173   1.952   1.875   9.603
    1LIG    H83  174   1.845   2.012   9.603
    1LIG    H84  175   1.958   1.876   9.908
    1LIG    H85  176   1.849   2.012   9.909
    1LIG    H86  177   2.026   2.149  10.061
    1LIG    H87  178   2.130   2.013  10.061
    1LIG    H88  179   2.037   2.147  10.367
    1LIG    H89  180   2.129   2.000  10.370
    1LIG    H90  181   1.937   1.887  10.523
    1LIG    H91  182   1.850   2.036  10.521
    1LIG    H92  183   1.950   1.876  10.824
    1LIG    H93  184   1.846   2.015  10.828
    1LIG    H94  185   2.027   2.141  10.984
    1LIG    H95  186   2.124   1.997  10.982
    1LIG    H96  187   2.025   2.144  11.291
    1LIG    H97  188   2.128   2.003  11.291
    1LIG    H98  189   1.956   1.874  11.449
    1LIG    H99  190   1.850   2.011  11.449
    1LIG   H100  191   1.954   1.876  11.756
    1LIG   H101  192   1.851   2.016  11.756
    1LIG   H102  193   2.033   2.147  11.910
    1LIG   H103  194   2.132   2.006  11.910
    1LIG   H104  195   2.039   2.147  12.219
    1LIG   H105  196   2.131   1.999  12.222
    1LIG   H106  197   1.938   1.886  12.377
    1LIG   H107  198   1.851   2.035  12.374
    1LIG   H108  199   1.951   1.874  12.681
    1LIG   H109  200   1.846   2.012  12.685
    1LIG   H110  201   2.025   2.138  12.846
    1LIG   H111  202   2.124   1.995  12.843
    1LIG   H112  203   2.021   2.135  13.159
    1LIG   H113  204   2.124   1.995  13.158
    1LIG   H114  205   1.942   1.863  13.311
    1LIG   H115  206   1.844   2.006  13.316
    1LIG   H116  207   1.899   1.870  13.617
    1LIG   H117  208   1.843   2.032  13.631
    1LIG   H118  209   2.103   2.042  13.784
    1LIG   H119  210   2.056   1.876  13.798
    2MOL     C1  211   1.307   2.202   6.424
    2MOL     H1  212   1.202   2.168   6.425
    2MOL     O1  213   1.340   2.264   6.552
    2MOL     C2  214   1.474   2.319   6.565
    2MOL     H2  215   1.547   2.238   6.553
    2MOL     C3  216   1.495   2.378   6.708
    2MOL     H3  217   1.599   2.411   6.718
    2MOL     H4  218   1.483   2.297   6.781
    2MOL     O2  219   1.407   2.487   6.740
    2MOL     H5  220   1.435   2.525   6.826
    2MOL     C4  221   1.324   2.305   6.309
    2MOL     H6  222   1.253   2.387   6.325
    2MOL     O3  223   1.299   2.245   6.181
    2MOL     H7  224   1.315   2.148   6.192
    2MOL     C5  225   1.468   2.361   6.310
    2MOL     H8  226   1.537   2.278   6.294
    2MOL     O4  227   1.486   2.458   6.205
    2MOL     H9  228   1.416   2.440   6.138
    2MOL     C6  229   1.497   2.421   6.450
    2MOL    H10  230   1.432   2.508   6.464
    2MOL     O5  231   1.636   2.460   6.448
    2MOL     C7  232   1.664   2.588   6.506
    2MOL    H11  233   1.575   2.632   6.553
    2MOL     O6  234   1.766   2.569   6.607
    2MOL     C8  235   1.891   2.516   6.556
    2MOL    H12  236   1.874   2.422   6.502
    2MOL     C9  237   1.981   2.484   6.675
    2MOL    H13  238   2.067   2.424   6.643
    2MOL    H14  239   1.921   2.423   6.743
    2MOL     O7  240   2.027   2.603   6.741
    2MOL    H15  241   2.116   2.621   6.703
    2MOL    C10  242   1.714   2.685   6.396
    2MOL    H16  243   1.722   2.783   6.443
    2MOL     O8  244   1.617   2.691   6.292
    2MOL    H17  245   1.597   2.597   6.268
    2MOL    C11  246   1.854   2.644   6.341
    2MOL    H18  247   1.840   2.547   6.290
    2MOL     O9  248   1.907   2.742   6.250
    2MOL    H19  249   1.853   2.739   6.167
    2MOL    C12  250   1.950   2.621   6.460
    2MOL    H20  251   1.962   2.716   6.514
    2MOL    O10  252   2.078   2.575   6.409
    2MOL    C13  253   2.193   2.655   6.448
    2MOL    H21  254   2.162   2.756   6.475
    2MOL    O11  255   2.260   2.592   6.561
    2MOL    C14  256   2.328   2.465   6.538
    2MOL    H22  257   2.254   2.390   6.510
    2MOL    C15  258   2.396   2.417   6.671
    2MOL    H23  259   2.384   2.308   6.679
    2MOL    H24  260   2.344   2.462   6.755
    2MOL    O12  261   2.536   2.448   6.683
    2MOL    H25  262   2.581   2.395   6.613
    2MOL    C16  263   2.290   2.667   6.328
    2MOL    H26  264   2.369   2.740   6.354
    2MOL    O13  265   2.216   2.715   6.216
    2MOL    H27  266   2.122   2.709   6.242
    2MOL    C17  267   2.357   2.532   6.295
    2MOL    H28  268   2.278   2.460   6.268
    2MOL    O14  269   2.450   2.545   6.186
    2MOL    H29  270   2.404   2.600   6.118
    2MOL    C18  271   2.429   2.481   6.421
    2MOL    H30  272   2.507   2.552   6.449
    2MOL    O15  273   2.484   2.351   6.390
    2MOL    C19  274   2.627   2.336   6.400
    2MOL    H31  275   2.676   2.435   6.404
    2MOL    O16  276   2.654   2.259   6.520
    2MOL    C20  277   2.593   2.126   6.521
    2MOL    H32  278   2.484   2.136   6.507
    2MOL    C21  279   2.614   2.058   6.659
    2MOL    H33  280   2.546   1.973   6.669
    2MOL    H34  281   2.588   2.130   6.738
    2MOL    O17  282   2.749   2.011   6.679
    2MOL    H35  283   2.751   1.922   6.637
    2MOL    C22  284   2.678   2.262   6.274
    2MOL    H36  285   2.788   2.257   6.279
    2MOL    O18  286   2.639   2.332   6.158
    2MOL    H37  287   2.560   2.385   6.183
    2MOL    C23  288   2.623   2.118   6.268
    2MOL    H38  289   2.514   2.124   6.255
    2MOL    O19  290   2.681   2.048   6.156
    2MOL    H39  291   2.678   2.111   6.081
    2MOL    C24  292   2.652   2.046   6.401
    2MOL    H40  293   2.761   2.039   6.414
    2MOL    O20  294   2.592   1.915   6.395
    2MOL    C25  295   2.683   1.803   6.406
    2MOL    H41  296   2.787   1.835   6.397
    2MOL    O21  297   2.661   1.742   6.536
    2MOL    C26  298   2.526   1.691   6.559
    2MOL    H42  299   2.455   1.774   6.552
    2MOL    C27  300   2.517   1.634   6.703
    2MOL    H43  301   2.411   1.619   6.727
    2MOL    H44  302   2.556   1.708   6.773
    2MOL    O22  303   2.587   1.509   6.718
    2MOL    H45  304   2.650   1.520   6.792
    2MOL    C28  305   2.654   1.701   6.293
    2MOL    H46  306   2.726   1.618   6.302
    2MOL    O23  307   2.669   1.764   6.165
    2MOL    H47  308   2.646   1.859   6.179
    2MOL    C29  309   2.511   1.645   6.305
    2MOL    H48  310   2.442   1.729   6.292
    2MOL    O24  311   2.485   1.544   6.206
    2MOL    H49  312   2.504   1.585   6.118
    2MOL    C30  313   2.491   1.587   6.447
    2MOL    H50  314   2.556   1.499   6.458
    2MOL    O25  315   2.352   1.550   6.456
    2MOL    C31  316   2.324   1.418   6.509
    2MOL    H51  317   2.414   1.375   6.553
    2MOL    O26  318   2.223   1.433   6.611
    2MOL    C32  319   2.096   1.485   6.563
    2MOL    H52  320   2.112   1.582   6.516
    2MOL    C33  321   1.999   1.506   6.681
    2MOL    H53  322   1.903   1.540   6.645
    2MOL    H54  323   2.041   1.586   6.742
    2MOL    O27  324   1.979   1.389   6.761
    2MOL    H55  325   1.887   1.361   6.742
    2MOL    C34  326   2.273   1.321   6.397
    2MOL    H56  327   2.257   1.223   6.443
    2MOL    O28  328   2.373   1.310   6.297
    2MOL    H57  329   2.397   1.402   6.270
    2MOL    C35  330   2.139   1.372   6.338
    2MOL    H58  331   2.156   1.470   6.293
    2MOL    O29  332   2.082   1.282   6.239
    2MOL    H59  333   2.152   1.221   6.203
    2MOL    C36  334   2.040   1.389   6.456
    2MOL    H60  335   2.024   1.292   6.505
    2MOL    O30  336   1.916   1.442   6.403
    2MOL    C37  337   1.806   1.348   6.412
    2MOL    H61  338   1.845   1.246   6.423
    2MOL    O31  339   1.726   1.382   6.526
    2MOL    C38  340   1.659   1.512   6.523
    2MOL    H62  341   1.733   1.593   6.519
    2MOL    C39  342   1.579   1.527   6.655
    2MOL    H63  343   1.506   1.446   6.660
    2MOL    H64  344   1.524   1.622   6.654
    2MOL    O32  345   1.664   1.522   6.769
    2MOL    H65  346   1.635   1.597   6.828
    2MOL    C40  347   1.721   1.352   6.284
    2MOL    H66  348   1.644   1.275   6.293
    2MOL    O33  349   1.803   1.323   6.170
    2MOL    H67  350   1.897   1.326   6.203
    2MOL    C41  351   1.651   1.489   6.268
    2MOL    H68  352   1.729   1.566   6.258
    2MOL    O34  353   1.566   1.491   6.152
    2MOL    H69  354   1.626   1.484   6.074
    2MOL    C42  355   1.570   1.520   6.397
    2MOL    H70  356   1.489   1.447   6.406
    2MOL    O35  357   1.518   1.655   6.382
    2MOL    C43  358   1.374   1.669   6.387
    2MOL    H71  359   1.325   1.571   6.389
    2MOL    O36  360   1.340   1.743   6.508
    2MOL    C44  361   1.394   1.878   6.517
    2MOL    H72  362   1.503   1.874   6.512
    2MOL    C45  363   1.355   1.939   6.655
    2MOL    H73  364   1.246   1.937   6.666
    2MOL    H74  365   1.388   2.043   6.659
    2MOL    O37  366   1.418   1.865   6.760
    2MOL    H75  367   1.360   1.868   6.839
    2MOL    C46  368   1.325   1.748   6.262
    2MOL    H76  369   1.215   1.752   6.266
    2MOL    O38  370   1.366   1.684   6.141
    2MOL    H77  371   1.444   1.627   6.163
    2MOL    C47  372   1.378   1.893   6.265
    2MOL    H78  373   1.488   1.888   6.260
    2MOL    O39  374   1.328   1.966   6.153
    2MOL    H79  375   1.327   1.902   6.078
    2MOL    C48  376   1.339   1.960   6.398
    2MOL    H80  377   1.229   1.965   6.405
    2MOL    O40  378   1.398   2.092   6.401
    3MOL     C1  379   2.682   2.194   7.476
    3MOL     H1  380   2.786   2.161   7.475
    3MOL     O1  381   2.650   2.255   7.348
    3MOL     C2  382   2.519   2.316   7.332
    3MOL     H2  383   2.442   2.238   7.339
    3MOL     C3  384   2.511   2.380   7.191
    3MOL     H3  385   2.412   2.424   7.176
    3MOL     H4  386   2.521   2.300   7.116
    3MOL     O2  387   2.611   2.479   7.168
    3MOL     H5  388   2.568   2.555   7.125
    3MOL     C4  389   2.662   2.298   7.590
    3MOL     H6  390   2.732   2.381   7.577
    3MOL     O3  391   2.683   2.236   7.717
    3MOL     H7  392   2.667   2.140   7.701
    3MOL     C5  393   2.518   2.352   7.585
    3MOL     H8  394   2.449   2.268   7.589
    3MOL     O4  395   2.493   2.442   7.694
    3MOL     H9  396   2.559   2.422   7.763
    3MOL     C6  397   2.495   2.419   7.448
    3MOL    H10  398   2.563   2.504   7.436
    3MOL     O5  399   2.357   2.461   7.449
    3MOL     C7  400   2.331   2.597   7.406
    3MOL    H11  401   2.424   2.646   7.373
    3MOL     O6  402   2.237   2.589   7.296
    3MOL     C8  403   2.109   2.532   7.333
    3MOL    H12  404   2.124   2.435   7.381
    3MOL     C9  405   2.026   2.506   7.207
    3MOL    H13  406   1.940   2.442   7.232
    3MOL    H14  407   2.090   2.449   7.139
    3MOL     O7  408   1.979   2.625   7.141
    3MOL    H15  409   1.894   2.653   7.181
    3MOL    C10  410   2.270   2.681   7.522
    3MOL    H16  411   2.263   2.785   7.488
    3MOL     O8  412   2.350   2.676   7.639
    3MOL    H17  413   2.394   2.587   7.639
    3MOL    C11  414   2.128   2.634   7.561
    3MOL    H18  415   2.136   2.532   7.600
    3MOL     O9  416   2.074   2.720   7.662
    3MOL    H19  417   2.142   2.717   7.733
    3MOL    C12  418   2.041   2.628   7.433
    3MOL    H20  419   2.033   2.728   7.388
    3MOL    O10  420   1.911   2.575   7.468
    3MOL    C13  421   1.798   2.662   7.444
    3MOL    H21  422   1.831   2.765   7.422
    3MOL    O11  423   1.721   2.610   7.333
    3MOL    C14  424   1.661   2.479   7.351
    3MOL    H22  425   1.741   2.406   7.366
    3MOL    C15  426   1.582   2.438   7.223
    3MOL    H23  427   1.572   2.328   7.221
    3MOL    H24  428   1.640   2.467   7.134
    3MOL    O12  429   1.450   2.492   7.217
    3MOL    H25  430   1.393   2.428   7.264
    3MOL    C16  431   1.712   2.666   7.572
    3MOL    H26  432   1.632   2.739   7.556
    3MOL    O13  433   1.794   2.706   7.681
    3MOL    H27  434   1.882   2.666   7.659
    3MOL    C17  435   1.649   2.528   7.602
    3MOL    H28  436   1.729   2.456   7.623
    3MOL    O14  437   1.561   2.537   7.715
    3MOL    H29  438   1.611   2.583   7.785
    3MOL    C18  439   1.572   2.481   7.478
    3MOL    H30  440   1.490   2.552   7.460
    3MOL    O15  441   1.520   2.349   7.506
    3MOL    C19  442   1.378   2.333   7.498
    3MOL    H31  443   1.326   2.429   7.490
    3MOL    O16  444   1.351   2.251   7.381
    3MOL    C20  445   1.412   2.119   7.386
    3MOL    H32  446   1.521   2.129   7.396
    3MOL    C21  447   1.385   2.043   7.253
    3MOL    H33  448   1.462   1.967   7.241
    3MOL    H34  449   1.392   2.113   7.169
    3MOL    O17  450   1.257   1.979   7.253
    3MOL    H35  451   1.277   1.884   7.268
    3MOL    C22  452   1.327   2.261   7.627
    3MOL    H36  453   1.218   2.253   7.621
    3MOL    O18  454   1.363   2.337   7.741
    3MOL    H37  455   1.441   2.392   7.715
    3MOL    C23  456   1.386   2.119   7.640
    3MOL    H38  457   1.495   2.128   7.650
    3MOL    O19  458   1.330   2.052   7.754
    3MOL    H39  459   1.339   2.116   7.828
    3MOL    C24  460   1.356   2.043   7.509
    3MOL    H40  461   1.247   2.034   7.499
    3MOL    O20  462   1.418   1.913   7.518
    3MOL    C25  463   1.329   1.801   7.501
    3MOL    H41  464   1.224   1.833   7.508
    3MOL    O21  465   1.354   1.741   7.371
    3MOL    C26  466   1.488   1.689   7.350
    3MOL    H42  467   1.561   1.771   7.359
    3MOL    C27  468   1.501   1.632   7.206
    3MOL    H43  469   1.607   1.623   7.181
    3MOL    H44  470   1.456   1.703   7.136
    3MOL    O22  471   1.437   1.504   7.192
    3MOL    H45  472   1.357   1.519   7.136
    3MOL    C28  473   1.357   1.699   7.614
    3MOL    H46  474   1.286   1.615   7.604
    3MOL    O23  475   1.343   1.761   7.742
    3MOL    H47  476   1.348   1.858   7.724
    3MOL    C29  477   1.500   1.644   7.602
    3MOL    H48  478   1.570   1.729   7.611
    3MOL    O24  479   1.525   1.548   7.706
    3MOL    H49  480   1.477   1.586   7.783
    3MOL    C30  481   1.519   1.584   7.461
    3MOL    H50  482   1.452   1.497   7.450
    3MOL    O25  483   1.656   1.545   7.454
    3MOL    C31  484   1.682   1.419   7.389
    3MOL    H51  485   1.590   1.377   7.346
    3MOL    O26  486   1.778   1.444   7.283
    3MOL    C32  487   1.904   1.499   7.331
    3MOL    H52  488   1.883   1.588   7.392
    3MOL    C33  489   1.994   1.546   7.215
    3MOL    H53  490   2.078   1.603   7.255
    3MOL    H54  491   1.935   1.615   7.154
    3MOL    O27  492   2.045   1.439   7.137
    3MOL    H55  493   2.104   1.389   7.196
    3MOL    C34  494   1.739   1.320   7.494
    3MOL    H56  495   1.751   1.221   7.447
    3MOL    O28  496   1.651   1.311   7.605
    3MOL    H57  497   1.617   1.402   7.619
    3MOL    C35  498   1.876   1.369   7.544
    3MOL    H58  499   1.860   1.467   7.593
    3MOL    O29  500   1.937   1.279   7.637
    3MOL    H59  501   1.865   1.223   7.679
    3MOL    C36  502   1.966   1.391   7.421
    3MOL    H60  503   1.976   1.297   7.364
    3MOL    O30  504   2.094   1.436   7.468
    3MOL    C37  505   2.199   1.338   7.463
    3MOL    H61  506   2.160   1.237   7.447
    3MOL    O31  507   2.288   1.377   7.355
    3MOL    C38  508   2.349   1.510   7.367
    3MOL    H62  509   2.271   1.587   7.365
    3MOL    C39  510   2.444   1.533   7.247
    3MOL    H63  511   2.520   1.454   7.245
    3MOL    H64  512   2.495   1.629   7.259
    3MOL    O32  513   2.373   1.533   7.124
    3MOL    H65  514   2.391   1.619   7.081
    3MOL    C40  515   2.277   1.342   7.597
    3MOL    H66  516   2.361   1.272   7.591
    3MOL    O33  517   2.193   1.307   7.708
    3MOL    H67  518   2.101   1.313   7.676
    3MOL    C41  519   2.330   1.484   7.618
    3MOL    H68  520   2.246   1.555   7.617
    3MOL    O34  521   2.395   1.489   7.745
    3MOL    H69  522   2.332   1.434   7.798
    3MOL    C42  523   2.424   1.518   7.502
    3MOL    H70  524   2.505   1.444   7.502
    3MOL    O35  525   2.474   1.651   7.525
    3MOL    C43  526   2.618   1.664   7.525
    3MOL    H71  527   2.667   1.566   7.530
    3MOL    O36  528   2.658   1.732   7.405
    3MOL    C44  529   2.607   1.866   7.387
    3MOL    H72  530   2.498   1.863   7.388
    3MOL    C45  531   2.654   1.919   7.248
    3MOL    H73  532   2.762   1.903   7.240
    3MOL    H74  533   2.635   2.026   7.242
    3MOL    O37  534   2.587   1.853   7.140
    3MOL    H75  535   2.639   1.879   7.060
    3MOL    C46  536   2.661   1.745   7.649
    3MOL    H76  537   2.771   1.752   7.648
    3MOL    O38  538   2.617   1.681   7.769
    3MOL    H77  539   2.551   1.613   7.740
    3MOL    C47  540   2.605   1.889   7.639
    3MOL    H78  541   2.495   1.882   7.635
    3MOL    O39  542   2.645   1.967   7.752
    3MOL    H79  543   2.635   1.908   7.830
    3MOL    C48  544   2.653   1.953   7.507
    3MOL    H80  545   2.762   1.959   7.508
    3MOL    O40  546   2.591   2.083   7.498
    4SOL     OW  547   0.229   0.659   0.119
    4SOL    HW1  548   0.135   0.647   0.131
    4SOL    HW2  549   0.249   0.611   0.039
    5SOL     OW  550   0.224   0.290   0.983
    5SOL    HW1  551   0.246   0.250   1.067
    5SOL    HW2  552   0.129   0.280   0.976
    6SOL     OW  553   0.019   0.384   0.633
    6SOL    HW1  554   3.929   0.399   0.661
    6SOL    HW2  555   0.025   0.290   0.620
    7SOL     OW  556   0.582   1.291   1.193
    7SOL    HW1  557   0.495   1.292   1.152
    7SOL    HW2  558   0.595   1.380   1.225
    8SOL     OW  559   1.567   1.512   0.708
    8SOL    HW1  560   1.524   1.492   0.791
    8SOL    HW2  561   1.496   1.518   0.644
    9SOL     OW  562   1.134   0.698   0.697
    9SOL    HW1  563   1.180   0.781   0.685
    9SOL    HW2  564   1.085   0.709   0.778
   10SOL     OW  565   1.766   0.623   0.214
   10SOL    HW1  566   1.782   0.597   0.124
   10SOL    HW2  567   1.768   0.542   0.264
   11SOL     OW  568   0.752   1.138   1.043
   11SOL    HW1  569   0.689   1.175   1.106
   11SOL    HW2  570   0.788   1.215   0.998
   12SOL     OW  571   0.873   0.768   1.824
   12SOL    HW1  572   0.861   0.840   1.887
   12SOL    HW2  573   0.894   0.812   1.742
   13SOL     OW  574   0.684   1.001   0.646
   13SOL    HW1  575   0.750   0.990   0.715
   13SOL    HW2  576   0.616   1.053   0.688
   14SOL     OW  577   0.712   1.149   1.817
   14SOL    HW1  578   0.760   1.226   1.846
   14SOL    HW2  579   0.631   1.183   1.779
   15SOL     OW  580   0.352   1.400   1.078
   15SOL    HW1  581   0.270   1.380   1.033
   15SOL    HW2  582   0.399   1.458   1.019
   16SOL     OW  583   1.460   1.502   1.358
   16SOL    HW1  584   1.514   1.581   1.367
   16SOL    HW2  585   1.394   1.510   1.427
   17SOL     OW  586   0.458   0.408   1.494
   17SOL    HW1  587   0.540   0.359   1.494
   17SOL    HW2  588   0.390   0.341   1.498
   18SOL     OW  589   1.611   0.450   0.735
   18SOL    HW1  590   1.542   0.485   0.678
   18SOL    HW2  591   1.631   0.522   0.795
   19SOL     OW  592   0.223   1.710   0.472
   19SOL    HW1  593   0.242   1.789   0.523
   19SOL    HW2  594   0.287   1.711   0.401
   20SOL     OW  595   1.137   1.342   1.694
   20SOL    HW1  596   1.178   1.336   1.780
   20SOL    HW2  597   1.085   1.262   1.686
   21SOL     OW  598   0.246   1.447   0.543
   21SOL    HW1  599   0.224   1.539   0.528
   21SOL    HW2  600   0.172   1.412   0.593
   22SOL     OW  601   0.248   1.065   0.883
   22SOL    HW1  602   0.268   0.980   0.922
   22SOL    HW2  603   0.196   1.109   0.950
   23SOL     OW  604   0.610   1.793   1.426
   23SOL    HW1  605   0.527   1.775   1.471
   23SOL    HW2  606   0.633   1.882   1.453
   24SOL     OW  607   0.560   0.981   0.167
   24SOL    HW1  608   0.587   1.023   0.085
   24SOL    HW2  609   0.616   1.021   0.234
   25SOL     OW  610   1.582   0.141   1.455
   25SOL    HW1  611   1.612   0.213   1.401
   25SOL    HW2  612   1.547   0.183   1.534
   26SOL     OW  613   0.139   0.654   0.568
   26SOL    HW1  614   0.098   0.568   0.575
   26SOL    HW2  615   0.103   0.704   0.641
   27SOL     OW  616   0.027   1.597   0.138
   27SOL    HW1  617   0.028   1.502   0.148
   27SOL    HW2  618   3.974   1.629   0.211
   28SOL     OW  619   1.687   0.917   0.645
   28SOL    HW1  620   1.771   0.875   0.625
   28SOL    HW2  621   1.667   0.969   0.567
   29SOL     OW  622   1.649   1.105   0.430
   29SOL    HW1  623   1.738   1.105   0.393
   29SOL    HW2  624   1.654   1.167   0.503
   30SOL     OW  625   0.142   0.756   1.588
   30SOL    HW1  626   0.238   0.751   1.583
   30SOL    HW2  627   0.124   0.843   1.623
   31SOL     OW  628   0.613   1.387   0.737
   31SOL    HW1  629   0.567   1.304   0.745
   31SOL    HW2  630   0.598   1.414   0.646
   32SOL     OW  631   1.287   1.237   1.422
   32SOL    HW1  632   1.318   1.169   1.362
   32SOL    HW2  633   1.346   1.232   1.497
   33SOL     OW  634   0.824   0.004   0.522
   33SOL    HW1  635   0.868   0.084   0.494
   33SOL    HW2  636   0.731   0.025   0.520
   34SOL     OW  637   0.184   0.949   1.279
   34SOL    HW1  638   0.272   0.914   1.267
   34SOL    HW2  639   0.132   0.907   1.210
   35SOL     OW  640   1.529   0.999   0.206
   35SOL    HW1  641   1.462   0.941   0.240
   35SOL    HW2  642   1.572   1.035   0.283
   36SOL     OW  643   1.184   1.810   1.625
   36SOL    HW1  644   1.192   1.870   1.551
   36SOL    HW2  645   1.202   1.724   1.587
   37SOL     OW  646   0.346   0.250   1.844
   37SOL    HW1  647   0.388   0.333   1.824
   37SOL    HW2  648   0.254   0.273   1.860
   38SOL     OW  649   1.465   1.419   0.948
   38SOL    HW1  650   1.399   1.435   1.015
   38SOL    HW2  651   1.452   1.328   0.922
   39SOL     OW  652   1.666   1.745   0.579
   39SOL    HW1  653   1.631   1.730   0.491
   39SOL    HW2  654   1.645   1.664   0.627
   40SOL     OW  655   0.594   0.714   0.266
   40SOL    HW1  656   0.595   0.798   0.220
   40SOL    HW2  657   0.534   0.727   0.339
   41SOL     OW  658   1.274   0.370   0.940
   41SOL    HW1  659   1.187   0.331   0.948
   41SOL    HW2  660   1.332   0.309   0.986
   42SOL     OW  661   1.560   1.721   0.318
   42SOL    HW1  662   1.627   1.653   0.321
   42SOL    HW2  663   1.527   1.719   0.229
   43SOL     OW  664   0.794   0.616   1.453
   43SOL    HW1  665   0.765   0.589   1.540
   43SOL    HW2  666   0.757   0.550   1.394
   44SOL     OW  667   1.392   0.476   1.677
   44SOL    HW1  668   1.399   0.521   1.761
   44SOL    HW2  669   1.449   0.399   1.687
   45SOL     OW  670   0.951   0.887   1.585
   45SOL    HW1  671   1.006   0.818   1.548
   45SOL    HW2  672   0.902   0.922   1.511
   46SOL     OW  673   0.993   0.403   1.237
   46SOL    HW1  674   0.907   0.422   1.274
   46SOL    HW2  675   0.974   0.374   1.147
   47SOL     OW  676   1.052   0.703   0.428
   47SOL    HW1  677   1.070   0.694   0.522
   47SOL    HW2  678   0.969   0.657   0.415
   48SOL     OW  679   0.082   0.829   0.790
   48SOL    HW1  680   0.153   0.795   0.844
   48SOL    HW2  681   0.103   0.922   0.778
   49SOL     OW  682   0.130   1.865   1.578
   49SOL    HW1  683   0.138   1.829   1.667
   49SOL    HW2  684   0.038   1.853   1.556
   50SOL     OW  685   0.875   0.361   0.222
   50SOL    HW1  686   0.910   0.419   0.155
   50SOL    HW2  687   0.879   0.274   0.183
   51SOL     OW  688   1.707   0.575   1.830
   51SOL    HW1  689   1.670   0.649   1.781
   51SOL    HW2  690   1.732   0.511   1.762
   52SOL     OW  691   1.380   1.142   0.543
   52SOL    HW1  692   1.458   1.130   0.488
   52SOL    HW2  693   1.326   1.204   0.494
   53SOL     OW  694   0.563   0.196   0.881
   53SOL    HW1  695   0.567   0.220   0.974
   53SOL    HW2  696   0.549   0.279   0.835
   54SOL     OW  697   1.003   1.442   0.475
   54SOL    HW1  698   0.971   1.516   0.424
   54SOL    HW2  699   0.979   1.463   0.565
   55SOL     OW  700   0.365   1.821   0.874
   55SOL    HW1  701   0.427   1.749   0.883
   55SOL    HW2  702   0.416   1.900   0.888
   56SOL     OW  703   1.800   1.049   0.872
   56SOL    HW1  704   1.746   1.034   0.795
   56SOL    HW2  705   1.736   1.058   0.944
   57SOL     OW  706   1.227   1.539   1.513
   57SOL    HW1  707   1.215   1.467   1.575
   57SOL    HW2  708   1.162   1.525   1.445
   58SOL     OW  709   0.307   0.930   0.242
   58SOL    HW1  710   0.398   0.943   0.216
   58SOL    HW2  711   0.294   0.835   0.234
   59SOL     OW  712   1.479   0.749   0.730
   59SOL    HW1  713   1.474   0.707   0.816
   59SOL    HW2  714   1.557   0.804   0.734
   60SOL     OW  715   0.469   1.261   1.737
   60SOL    HW1  716   0.443   1.269   1.646
   60SOL    HW2  717   0.387   1.264   1.786
   61SOL     OW  718   1.120   1.779   0.228
   61SOL    HW1  719   1.056   1.732   0.283
   61SOL    HW2  720   1.149   1.713   0.165
   62SOL     OW  721   0.201   0.293   1.501
   62SOL    HW1  722   0.108   0.313   1.500
   62SOL    HW2  723   0.210   0.219   1.560
   63SOL     OW  724   1.632   1.375   0.092
   63SOL    HW1  725   1.600   1.456   0.052
   63SOL    HW2  726   1.565   1.310   0.072
   64SOL     OW  727   0.475   1.731   0.323
   64SOL    HW1  728   0.516   1.791   0.386
   64SOL    HW2  729   0.548   1.695   0.273
   65SOL     OW  730   1.442   0.139   0.394
   65SOL    HW1  731   1.394   0.057   0.402
   65SOL    HW2  732   1.523   0.124   0.442
   66SOL     OW  733   0.253   1.790   1.230
   66SOL    HW1  734   0.298   1.724   1.283
   66SOL    HW2  735   0.251   1.754   1.142
   67SOL     OW  736   0.938   1.699   0.897
   67SOL    HW1  737   1.017   1.650   0.919
   67SOL    HW2  738   0.896   1.648   0.828
   68SOL     OW  739   0.397   0.694   0.470
   68SOL    HW1  740   0.421   0.603   0.484
   68SOL    HW2  741   0.305   0.699   0.497
   69SOL     OW  742   1.529   0.228   1.727
   69SOL    HW1  743   1.523   0.253   1.819
   69SOL    HW2  744   1.513   0.134   1.726
   70SOL     OW  745   0.629   0.110   0.122
   70SOL    HW1  746   0.724   0.108   0.126
   70SOL    HW2  747   0.609   0.132   0.031
   71SOL     OW  748   0.776   0.284   1.769
   71SOL    HW1  749   0.852   0.226   1.770
   71SOL    HW2  750   0.720   0.253   1.840
   72SOL     OW  751   0.876   1.522   1.194
   72SOL    HW1  752   0.859   1.485   1.107
   72SOL    HW2  753   0.945   1.468   1.231
   73SOL     OW  754   1.339   0.587   1.431
   73SOL    HW1  755   1.370   0.558   1.517
   73SOL    HW2  756   1.374   0.676   1.421
   74SOL     OW  757   0.817   1.392   0.943
   74SOL    HW1  758   0.902   1.380   0.901
   74SOL    HW2  759   0.755   1.395   0.870
   75SOL     OW  760   0.930   0.512   0.899
   75SOL    HW1  761   0.905   0.504   0.807
   75SOL    HW2  762   0.955   0.424   0.925
   76SOL     OW  763   0.551   0.051   0.498
   76SOL    HW1  764   0.477   0.058   0.558
   76SOL    HW2  765   0.545   0.129   0.443
   77SOL     OW  766   1.430   1.207   0.044
   77SOL    HW1  767   1.449   1.126   0.092
   77SOL    HW2  768   1.339   1.226   0.064
   78SOL     OW  769   0.359   3.988   0.175
   78SOL    HW1  770   0.322   0.072   0.150
   78SOL    HW2  771   0.438   0.010   0.225
   79SOL     OW  772   0.944   0.250   0.466
   79SOL    HW1  773   0.911   0.288   0.385
   79SOL    HW2  774   1.039   0.251   0.457
   80SOL     OW  775   1.079   0.684   1.458
   80SOL    HW1  776   1.010   0.618   1.464
   80SOL    HW2  777   1.160   0.634   1.453
   81SOL     OW  778   1.221   1.571   0.795
   81SOL    HW1  779   1.236   1.638   0.728
   81SOL    HW2  780   1.291   1.585   0.859
   82SOL     OW  781   0.465   1.152   0.732
   82SOL    HW1  782   0.395   1.126   0.792
   82SOL    HW2  783   0.429   1.138   0.645
   83SOL     OW  784   1.262   1.794   0.609
   83SOL    HW1  785   1.309   1.858   0.555
   83SOL    HW2  786   1.196   1.845   0.655
   84SOL     OW  787   0.998   0.532   0.051
   84SOL    HW1  788   0.997   0.527  13.856
   84SOL    HW2  789   1.090   0.549   0.073
   85SOL     OW  790   0.081   0.574   1.393
   85SOL    HW1  791   0.170   0.556   1.363
   85SOL    HW2  792   0.091   0.645   1.456
   86SOL     OW  793   0.572   0.231   1.160
   86SOL    HW1  794   0.593   0.138   1.168
   86SOL    HW2  795   0.481   0.237   1.189
   87SOL     OW  796   0.871   0.463   0.638
   87SOL    HW1  797   0.824   0.516   0.573
   87SOL    HW2  798   0.891   0.381   0.592
   88SOL     OW  799   0.997   0.040   0.779
   88SOL    HW1  800   0.953   0.068   0.699
   88SOL    HW2  801   1.008   3.945   0.768
   89SOL     OW  802   1.438   1.161   0.856
   89SOL    HW1  803   1.368   1.096   0.857
   89SOL    HW2  804   1.461   1.171   0.764
   90SOL     OW  805   1.464   0.608   0.973
   90SOL    HW1  806   1.409   0.530   0.978
   90SOL    HW2  807   1.524   0.600   1.048
   91SOL     OW  808   1.844   0.818   0.385
   91SOL    HW1  809   1.898   0.763   0.442
   91SOL    HW2  810   1.812   0.758   0.317
   92SOL     OW  811   0.493   1.382   0.166
   92SOL    HW1  812   0.422   1.350   0.222
   92SOL    HW2  813   0.449   1.423   0.092
   93SOL     OW  814   1.674   1.265   0.641
   93SOL    HW1  815   1.768   1.263   0.659
   93SOL    HW2  816   1.647   1.354   0.665
   94SOL     OW  817   1.421   0.590   0.086
   94SOL    HW1  818   1.352   0.577   0.151
   94SOL    HW2  819   1.472   0.510   0.089
   95SOL     OW  820   0.529   0.259   0.328
   95SOL    HW1  821   0.566   0.210   0.254
   95SOL    HW2  822   0.504   0.344   0.291
   96SOL     OW  823   1.750   1.241   1.568
   96SOL    HW1  824   1.837   1.202   1.562
   96SOL    HW2  825   1.766   1.331   1.595
   97SOL     OW  826   1.056   1.353   1.332
   97SOL    HW1  827   0.980   1.322   1.383
   97SOL    HW2  828   1.131   1.312   1.374
   98SOL     OW  829   1.609   1.626   1.655
   98SOL    HW1  830   1.602   1.663   1.567
   98SOL    HW2  831   1.692   1.579   1.655
   99SOL     OW  832   1.133   1.207   1.103
   99SOL    HW1  833   1.073   1.245   1.168
   99SOL    HW2  834   1.102   1.241   1.019
  100SOL     OW  835   1.624   1.096   1.076
  100SOL    HW1  836   1.618   1.159   1.149
  100SOL    HW2  837   1.547   1.115   1.022
  101SOL     OW  838   0.912   0.117   1.401
  101SOL    HW1  839   0.932   0.089   1.311
  101SOL    HW2  840   0.993   0.158   1.432
  102SOL     OW  841   0.984   1.115   1.723
  102SOL    HW1  842   0.893   1.132   1.746
  102SOL    HW2  843   0.981   1.037   1.668
  103SOL     OW  844   0.716   1.061   0.377
  103SOL    HW1  845   0.701   1.042   0.470
  103SOL    HW2  846   0.790   1.005   0.353
  104SOL     OW  847   0.423   0.817   1.253
  104SOL    HW1  848   0.491   0.824   1.319
  104SOL    HW2  849   0.388   0.729   1.262
  105SOL     OW  850   1.265   0.375   1.277
  105SOL    HW1  851   1.299   0.453   1.321
  105SOL    HW2  852   1.178   0.400   1.248
  106SOL     OW  853   0.065   1.580   1.346
  106SOL    HW1  854   0.071   1.630   1.265
  106SOL    HW2  855   0.156   1.568   1.373
  107SOL     OW  856   0.363   1.103   0.480
  107SOL    HW1  857   0.352   1.180   0.424
  107SOL    HW2  858   0.379   1.031   0.420
  108SOL     OW  859   0.555   0.532   0.857
  108SOL    HW1  860   0.568   0.591   0.783
  108SOL    HW2  861   0.620   0.559   0.921
  109SOL     OW  862   1.248   1.347   0.399
  109SOL    HW1  863   1.303   1.420   0.427
  109SOL    HW2  864   1.161   1.369   0.431
  110SOL     OW  865   1.286   1.460   1.148
  110SOL    HW1  866   1.342   1.464   1.226
  110SOL    HW2  867   1.231   1.383   1.163
  111SOL     OW  868   1.578   0.637   0.491
  111SOL    HW1  869   1.534   0.693   0.555
  111SOL    HW2  870   1.610   0.699   0.425
  112SOL     OW  871   0.345   1.527   1.318
  112SOL    HW1  872   0.336   1.476   1.237
  112SOL    HW2  873   0.440   1.542   1.326
  113SOL     OW  874   0.418   0.737   1.601
  113SOL    HW1  875   0.481   0.782   1.545
  113SOL    HW2  876   0.455   0.649   1.613
  114SOL     OW  877   1.605   0.781   1.686
  114SOL    HW1  878   1.519   0.823   1.679
  114SOL    HW2  879   1.657   0.822   1.617
  115SOL     OW  880   1.009   0.137   1.779
  115SOL    HW1  881   1.065   0.207   1.745
  115SOL    HW2  882   0.999   0.076   1.706
  116SOL     OW  883   0.484   0.037   1.764
  116SOL    HW1  884   0.490   0.048   1.669
  116SOL    HW2  885   0.422   0.104   1.792
  117SOL     OW  886   0.585   0.875   1.031
  117SOL    HW1  887   0.618   0.965   1.035
  117SOL    HW2  888   0.529   0.867   1.109
  118SOL     OW  889   1.351   0.859   1.025
  118SOL    HW1  890   1.266   0.845   0.984
  118SOL    HW2  891   1.396   0.774   1.017
  119SOL     OW  892   1.217   0.552   0.267
  119SOL    HW1  893   1.224   0.472   0.318
  119SOL    HW2  894   1.159   0.609   0.318
  120SOL     OW  895   0.311   0.212   1.240
  120SOL    HW1  896   0.268   0.248   1.317
  120SOL    HW2  897   0.297   0.117   1.246
  121SOL     OW  898   0.062   1.306   1.280
  121SOL    HW1  899   0.091   1.263   1.361
  121SOL    HW2  900   0.053   1.398   1.304
  122SOL     OW  901   0.724   0.633   1.052
  122SOL    HW1  902   0.799   0.619   0.994
  122SOL    HW2  903   0.694   0.722   1.031
  123SOL     OW  904   1.738   0.959   1.856
  123SOL    HW1  905   1.693   0.895   1.802
  123SOL    HW2  906   1.677   0.975   1.929
  124SOL     OW  907   0.333   0.056   0.658
  124SOL    HW1  908   0.308   0.148   0.665
  124SOL    HW2  909   0.284   0.013   0.728
  125SOL     OW  910   1.576   0.391   0.391
  125SOL    HW1  911   1.546   0.330   0.459
  125SOL    HW2  912   1.568   0.478   0.431
  126SOL     OW  913   1.030   0.759   0.958
  126SOL    HW1  914   1.022   0.776   1.052
  126SOL    HW2  915   1.002   0.668   0.948
  127SOL     OW  916   0.982   1.566   1.720
  127SOL    HW1  917   0.966   1.610   1.636
  127SOL    HW2  918   1.025   1.484   1.696
  128SOL     OW  919   1.854   1.501   1.603
  128SOL    HW1  920   1.870   1.532   1.514
  128SOL    HW2  921   1.937   1.513   1.648
  129SOL     OW  922   0.354   0.922   1.798
  129SOL    HW1  923   0.431   0.942   1.850
  129SOL    HW2  924   0.383   0.854   1.737
  130SOL     OW  925   1.534   0.271   0.145
  130SOL    HW1  926   1.468   0.201   0.146
  130SOL    HW2  927   1.536   0.302   0.236
  131SOL     OW  928   1.288   0.832   0.056
  131SOL    HW1  929   1.335   0.749   0.061
  131SOL    HW2  930   1.306   0.864  13.868
  132SOL     OW  931   1.067   1.337   0.855
  132SOL    HW1  932   1.071   1.265   0.792
  132SOL    HW2  933   1.127   1.403   0.820
  133SOL     OW  934   0.313   0.802   0.950
  133SOL    HW1  935   0.408   0.818   0.945
  133SOL    HW2  936   0.306   0.712   0.982
  134SOL     OW  937   0.339   0.529   1.016
  134SOL    HW1  938   0.297   0.445   0.998
  134SOL    HW2  939   0.414   0.531   0.956
  135SOL     OW  940   1.133   0.380   1.698
  135SOL    HW1  941   1.085   0.435   1.760
  135SOL    HW2  942   1.220   0.420   1.693
  136SOL     OW  943   1.151   0.226   1.482
  136SOL    HW1  944   1.142   0.280   1.560
  136SOL    HW2  945   1.177   0.287   1.413
  137SOL     OW  946   0.015   1.324   0.193
  137SOL    HW1  947   3.920   1.338   0.184
  137SOL    HW2  948   0.024   1.232   0.214
  138SOL     OW  949   0.078   1.799   0.887
  138SOL    HW1  950   0.085   1.704   0.890
  138SOL    HW2  951   0.169   1.830   0.893
  139SOL     OW  952   0.499   1.571   0.910
  139SOL    HW1  953   0.569   1.632   0.936
  139SOL    HW2  954   0.542   1.508   0.852
  140SOL     OW  955   0.976   0.788   1.224
  140SOL    HW1  956   1.033   0.769   1.298
  140SOL    HW2  957   0.892   0.749   1.247
  141SOL     OW  958   0.035   0.577   1.112
  141SOL    HW1  959   0.092   0.520   1.061
  141SOL    HW2  960   0.061   0.563   1.203
  142SOL     OW  961   0.211   0.516   1.722
  142SOL    HW1  962   0.256   0.475   1.648
  142SOL    HW2  963   0.165   0.591   1.684
  143SOL     OW  964   1.379   0.936   1.657
  143SOL    HW1  965   1.401   1.029   1.653
  143SOL    HW2  966   1.375   0.908   1.565
  144SOL     OW  967   0.815   0.581   0.375
  144SOL    HW1  968   0.826   0.503   0.321
  144SOL    HW2  969   0.741   0.628   0.336
  145SOL     OW  970   1.640   0.602   1.182
  145SOL    HW1  971   1.630   0.542   1.256
  145SOL    HW2  972   1.728   0.585   1.148
  146SOL     OW  973   0.300   1.544   1.723
  146SOL    HW1  974   0.253   1.613   1.770
  146SOL    HW2  975   0.271   1.463   1.765
  147SOL     OW  976   0.713   0.453   1.254
  147SOL    HW1  977   0.661   0.375   1.231
  147SOL    HW2  978   0.701   0.513   1.180
  148SOL     OW  979   0.924   1.679   1.470
  148SOL    HW1  980   0.899   1.641   1.386
  148SOL    HW2  981   0.918   1.774   1.456
  149SOL     OW  982   0.427   0.491   0.228
  149SOL    HW1  983   0.502   0.549   0.238
  149SOL    HW2  984   0.355   0.548   0.203
  150SOL     OW  985   0.155   1.134   1.475
  150SOL    HW1  986   0.156   1.084   1.556
  150SOL    HW2  987   0.170   1.069   1.406
  151SOL     OW  988   1.322   1.044   1.221
  151SOL    HW1  989   1.345   0.981   1.153
  151SOL    HW2  990   1.255   1.100   1.181
  152SOL     OW  991   1.316   0.859   0.328
  152SOL    HW1  992   1.242   0.824   0.379
  152SOL    HW2  993   1.291   0.844   0.237
  153SOL     OW  994   1.761   1.735   1.150
  153SOL    HW1  995   1.831   1.762   1.090
  153SOL    HW2  996   1.742   1.644   1.125
  154SOL     OW  997   1.243   1.734   1.106
  154SOL    HW1  998   1.326   1.757   1.065
  154SOL    HW2  999   1.251   1.641   1.127
  155SOL     OW 1000   0.078   1.216   1.027
  155SOL    HW1 1001   0.085   1.242   1.119
  155SOL    HW2 1002   3.985   1.227   1.006
  156SOL     OW 1003   0.680   1.669   1.736
  156SOL    HW1 1004   0.620   1.743   1.727
  156SOL    HW2 1005   0.747   1.683   1.669
  157SOL     OW 1006   0.902   0.104   0.134
  157SOL    HW1 1007   0.941   0.091   0.047
  157SOL    HW2 1008   0.910   0.019   0.177
  158SOL     OW 1009   1.701   0.123   0.496
  158SOL    HW1 1010   1.782   0.133   0.446
  158SOL    HW2 1011   1.692   0.029   0.509
  159SOL     OW 1012   1.388   1.574   0.488
  159SOL    HW1 1013   1.442   1.614   0.420
  159SOL    HW2 1014   1.336   1.646   0.523
  160SOL     OW 1015   0.176   1.762   1.831
  160SOL    HW1 1016   0.119   1.711   1.888
  160SOL    HW2 1017   0.216   1.828   1.888
  161SOL     OW 1018   1.276   0.928   0.672
  161SOL    HW1 1019   1.350   0.869   0.683
  161SOL    HW2 1020   1.311   0.999   0.618
  162SOL     OW 1021   0.808   1.274   1.427
  162SOL    HW1 1022   0.780   1.316   1.508
  162SOL    HW2 1023   0.737   1.291   1.365
  163SOL     OW 1024   0.673   1.586   0.188
  163SOL    HW1 1025   0.664   1.618   0.098
  163SOL    HW2 1026   0.628   1.502   0.188
  164SOL     OW 1027   1.619   1.730   1.391
  164SOL    HW1 1028   1.670   1.733   1.310
  164SOL    HW2 1029   1.610   1.821   1.417
  165SOL     OW 1030   1.839   0.178   0.965
  165SOL    HW1 1031   1.873   0.113   0.904
  165SOL    HW2 1032   1.750   0.196   0.935
  166SOL     OW 1033   0.274   0.320   0.715
  166SOL    HW1 1034   0.188   0.356   0.690
  166SOL    HW2 1035   0.267   0.305   0.809
  167SOL     OW 1036   1.217   1.600   0.036
  167SOL    HW1 1037   1.207   1.508   0.061
  167SOL    HW2 1038   1.180   1.605  13.848
  168SOL     OW 1039   0.823   1.005   1.374
  168SOL    HW1 1040   0.867   1.000   1.289
  168SOL    HW2 1041   0.821   1.099   1.394
  169SOL     OW 1042   0.921   0.911   0.288
  169SOL    HW1 1043   0.992   0.952   0.236
  169SOL    HW2 1044   0.965   0.841   0.336
  170SOL     OW 1045   1.482   1.654   0.063
  170SOL    HW1 1046   1.389   1.631   0.057
  170SOL    HW2 1047   1.516   1.637  13.875
  171SOL     OW 1048   0.374   1.303   1.491
  171SOL    HW1 1049   0.358   1.383   1.442
  171SOL    HW2 1050   0.297   1.248   1.474
  172SOL     OW 1051   1.608   1.284   1.279
  172SOL    HW1 1052   1.670   1.271   1.351
  172SOL    HW2 1053   1.549   1.352   1.310
  173SOL     OW 1054   1.057   1.109   0.708
  173SOL    HW1 1055   0.985   1.058   0.747
  173SOL    HW2 1056   1.121   1.044   0.682
  174SOL     OW 1057   1.015   0.249   0.970
  174SOL    HW1 1058   1.005   0.199   0.889
  174SOL    HW2 1059   1.011   0.184   1.039
  175SOL     OW 1060   0.608   1.486   0.483
  175SOL    HW1 1061   0.653   1.437   0.414
  175SOL    HW2 1062   0.536   1.531   0.438
  176SOL     OW 1063   1.721   0.394   1.371
  176SOL    HW1 1064   1.794   0.456   1.376
  176SOL    HW2 1065   1.754   0.322   1.317
  177SOL     OW 1066   0.266   1.314   0.311
  177SOL    HW1 1067   0.188   1.340   0.264
  177SOL    HW2 1068   0.264   1.364   0.392
  178SOL     OW 1069   0.108   0.999   1.718
  178SOL    HW1 1070   0.048   0.991   1.792
  178SOL    HW2 1071   0.195   0.981   1.755
  179SOL     OW 1072   0.694   0.256   1.502
  179SOL    HW1 1073   0.762   0.202   1.461
  179SOL    HW2 1074   0.723   0.264   1.593
  180SOL     OW 1075   0.069   0.365   0.036
  180SOL    HW1 1076   3.979   0.373   0.068
  180SOL    HW2 1077   0.062   0.381  13.842
  181SOL     OW 1078   1.426   0.856   1.398
  181SOL    HW1 1079   1.377   0.918   1.343
  181SOL    HW2 1080   1.515   0.859   1.363
  182SOL     OW 1081   0.052   0.202   0.320
  182SOL    HW1 1082   0.080   0.275   0.266
  182SOL    HW2 1083   0.133   0.158   0.345
  183SOL     OW 1084   1.186   1.345   0.122
  183SOL    HW1 1085   1.092   1.335   0.111
  183SOL    HW2 1086   1.201   1.332   0.216
  184SOL     OW 1087   0.621   0.828   1.437
  184SOL    HW1 1088   0.678   0.904   1.421
  184SOL    HW2 1089   0.681   0.754   1.445
  185SOL     OW 1090   1.488   1.787   0.984
  185SOL    HW1 1091   1.510   1.853   0.918
  185SOL    HW2 1092   1.572   1.765   1.025
  186SOL     OW 1093   0.718   0.561   1.706
  186SOL    HW1 1094   0.763   0.622   1.765
  186SOL    HW2 1095   0.743   0.474   1.739
  187SOL     OW 1096   1.473   1.196   1.630
  187SOL    HW1 1097   1.461   1.211   1.724
  187SOL    HW2 1098   1.566   1.214   1.615
  188SOL     OW 1099   0.378   1.743   1.556
  188SOL    HW1 1100   0.291   1.781   1.544
  188SOL    HW2 1101   0.362   1.661   1.602
  189SOL     OW 1102   1.666   0.880   1.256
  189SOL    HW1 1103   1.662   0.795   1.213
  189SOL    HW2 1104   1.656   0.944   1.184
  190SOL     OW 1105   1.232   0.335   0.433
  190SOL    HW1 1106   1.294   0.262   0.430
  190SOL    HW2 1107   1.247   0.376   0.519
  191SOL     OW 1108   0.588   0.737   0.673
  191SOL    HW1 1109   0.626   0.823   0.656
  191SOL    HW2 1110   0.522   0.726   0.604
  192SOL     OW 1111   1.750   0.384   1.643
  192SOL    HW1 1112   1.732   0.390   1.549
  192SOL    HW2 1113   1.694   0.313   1.674
  193SOL     OW 1114   1.747   0.934   1.512
  193SOL    HW1 1115   1.738   1.028   1.525
  193SOL    HW2 1116   1.730   0.921   1.419
  194SOL     OW 1117   0.908   1.400   0.067
  194SOL    HW1 1118   0.843   1.379   0.134
  194SOL    HW2 1119   0.859   1.397  13.885
  195SOL     OW 1120   0.663   1.787   0.940
  195SOL    HW1 1121   0.644   1.878   0.920
  195SOL    HW2 1122   0.759   1.781   0.934
  196SOL     OW 1123   0.869   0.968   0.853
  196SOL    HW1 1124   0.919   0.896   0.891
  196SOL    HW2 1125   0.832   1.014   0.928
  197SOL     OW 1126   1.098   1.015   0.112
  197SOL    HW1 1127   1.087   1.060   0.028
  197SOL    HW2 1128   1.171   0.955   0.098
  198SOL     OW 1129   1.843   1.528   0.825
  198SOL    HW1 1130   1.758   1.534   0.783
  198SOL    HW2 1131   1.828   1.477   0.904
  199SOL     OW 1132   0.227   1.304   1.856
  199SOL    HW1 1133   0.154   1.249   1.829
  199SOL    HW2 1134   0.213   1.317   1.950
  200SOL     OW 1135   0.113   1.284   0.730
  200SOL    HW1 1136   0.131   1.235   0.811
  200SOL    HW2 1137   0.103   1.217   0.663
  201SOL     OW 1138   0.682   1.406   1.630
  201SOL    HW1 1139   0.603   1.363   1.661
  201SOL    HW2 1140   0.678   1.494   1.667
  202SOL     OW 1141   1.810   0.183   1.237
  202SOL    HW1 1142   1.814   0.089   1.253
  202SOL    HW2 1143   1.826   0.192   1.143
  203SOL     OW 1144   0.443   0.437   0.533
  203SOL    HW1 1145   0.471   0.363   0.480
  203SOL    HW2 1146   0.389   0.398   0.602
  204SOL     OW 1147   1.702   1.479   1.084
  204SOL    HW1 1148   1.618   1.461   1.041
  204SOL    HW2 1149   1.708   1.412   1.153
  205SOL     OW 1150   0.334   0.558   1.293
  205SOL    HW1 1151   0.390   0.502   1.347
  205SOL    HW2 1152   0.349   0.529   1.203
  206SOL     OW 1153   0.830   1.578   0.675
  206SOL    HW1 1154   0.813   1.642   0.606
  206SOL    HW2 1155   0.754   1.520   0.673
  207SOL     OW 1156   1.460   0.254   1.110
  207SOL    HW1 1157   1.478   0.168   1.146
  207SOL    HW2 1158   1.405   0.297   1.176
  208SOL     OW 1159   1.003   0.027   1.146
  208SOL    HW1 1160   0.921   3.995   1.108
  208SOL    HW2 1161   1.058   3.949   1.155
  209SOL     OW 1162   0.780   1.324   0.320
  209SOL    HW1 1163   0.748   1.235   0.336
  209SOL    HW2 1164   0.860   1.331   0.371
  210SOL     OW 1165   0.621   1.557   1.286
  210SOL    HW1 1166   0.622   1.639   1.335
  210SOL    HW2 1167   0.708   1.549   1.249
  211SOL     OW 1168   1.319   0.069   0.127
  211SOL    HW1 1169   1.336   3.981   0.095
  211SOL    HW2 1170   1.256   0.058   0.197
  212SOL     OW 1171   1.281   0.455   0.683
  212SOL    HW1 1172   1.234   0.538   0.676
  212SOL    HW2 1173   1.284   0.436   0.776
  213SOL     OW 1174   1.587   0.210   0.868
  213SOL    HW1 1175   1.538   0.234   0.946
  213SOL    HW2 1176   1.587   0.289   0.814
  214SOL     OW 1177   0.044   1.029   0.256
  214SOL    HW1 1178   0.138   1.009   0.252
  214SOL    HW2 1179   0.007   0.955   0.304
  215SOL     OW 1180   0.895   1.656   0.343
  215SOL    HW1 1181   0.818   1.627   0.292
  215SOL    HW2 1182   0.863   1.729   0.396
  216SOL     OW 1183   0.232   0.629   1.978
  216SOL    HW1 1184   0.139   0.633   2.000
  216SOL    HW2 1185   0.235   0.599   1.887
  217SOL     OW 1186   0.224   0.290   2.844
  217SOL    HW1 1187   0.246   0.250   2.929
  217SOL    HW2 1188   0.129   0.280   2.838
  218SOL     OW 1189   0.019   0.385   2.498
  218SOL    HW1 1190   3.928   0.399   2.524
  218SOL    HW2 1191   0.025   0.290   2.484
  219SOL     OW 1192   0.582   1.291   3.055
  219SOL    HW1 1193   0.495   1.292   3.014
  219SOL    HW2 1194   0.595   1.380   3.087
  220SOL     OW 1195   1.569   1.514   2.571
  220SOL    HW1 1196   1.525   1.493   2.654
  220SOL    HW2 1197   1.497   1.519   2.508
  221SOL     OW 1198   1.133   0.698   2.558
  221SOL    HW1 1199   1.180   0.781   2.546
  221SOL    HW2 1200   1.085   0.710   2.640
  222SOL     OW 1201   1.769   0.619   2.086
  222SOL    HW1 1202   1.746   0.612   1.993
  222SOL    HW2 1203   1.752   0.532   2.122
  223SOL     OW 1204   0.752   1.138   2.905
  223SOL    HW1 1205   0.689   1.175   2.968
  223SOL    HW2 1206   0.788   1.215   2.861
  224SOL     OW 1207   0.872   0.768   3.686
  224SOL    HW1 1208   0.861   0.840   3.749
  224SOL    HW2 1209   0.894   0.812   3.604
  225SOL     OW 1210   0.685   1.002   2.507
  225SOL    HW1 1211   0.751   0.991   2.575
  225SOL    HW2 1212   0.616   1.053   2.549
  226SOL     OW 1213   0.712   1.149   3.679
  226SOL    HW1 1214   0.760   1.226   3.708
  226SOL    HW2 1215   0.631   1.183   3.641
  227SOL     OW 1216   0.351   1.400   2.941
  227SOL    HW1 1217   0.270   1.379   2.895
  227SOL    HW2 1218   0.398   1.458   2.881
  228SOL     OW 1219   1.460   1.502   3.220
  228SOL    HW1 1220   1.514   1.581   3.229
  228SOL    HW2 1221   1.394   1.510   3.289
  229SOL     OW 1222   0.458   0.408   3.356
  229SOL    HW1 1223   0.540   0.359   3.356
  229SOL    HW2 1224   0.390   0.341   3.360
  230SOL     OW 1225   1.612   0.451   2.597
  230SOL    HW1 1226   1.543   0.482   2.538
  230SOL    HW2 1227   1.627   0.524   2.657
  231SOL     OW 1228   0.220   1.719   2.319
  231SOL    HW1 1229   0.240   1.793   2.376
  231SOL    HW2 1230   0.297   1.711   2.262
  232SOL     OW 1231   1.137   1.342   3.556
  232SOL    HW1 1232   1.178   1.336   3.642
  232SOL    HW2 1233   1.085   1.262   3.548
  233SOL     OW 1234   0.251   1.451   2.401
  233SOL    HW1 1235   0.215   1.539   2.387
  233SOL    HW2 1236   0.184   1.406   2.453
  234SOL     OW 1237   0.248   1.065   2.746
  234SOL    HW1 1238   0.268   0.980   2.785
  234SOL    HW2 1239   0.195   1.110   2.812
  235SOL     OW 1240   0.610   1.793   3.288
  235SOL    HW1 1241   0.527   1.775   3.333
  235SOL    HW2 1242   0.633   1.882   3.315
  236SOL     OW 1243   0.576   0.986   2.001
  236SOL    HW1 1244   0.625   1.030   1.932
  236SOL    HW2 1245   0.617   1.016   2.082
  237SOL     OW 1246   1.582   0.141   3.317
  237SOL    HW1 1247   1.612   0.214   3.263
  237SOL    HW2 1248   1.547   0.183   3.396
  238SOL     OW 1249   0.141   0.652   2.431
  238SOL    HW1 1250   0.099   0.567   2.436
  238SOL    HW2 1251   0.103   0.702   2.504
  239SOL     OW 1252   0.044   1.589   2.000
  239SOL    HW1 1253   0.038   1.497   2.026
  239SOL    HW2 1254   3.960   1.627   2.025
  240SOL     OW 1255   1.687   0.917   2.505
  240SOL    HW1 1256   1.771   0.876   2.485
  240SOL    HW2 1257   1.667   0.969   2.427
  241SOL     OW 1258   1.649   1.105   2.291
  241SOL    HW1 1259   1.736   1.108   2.251
  241SOL    HW2 1260   1.655   1.167   2.364
  242SOL     OW 1261   0.142   0.756   3.450
  242SOL    HW1 1262   0.238   0.752   3.445
  242SOL    HW2 1263   0.124   0.843   3.485
  243SOL     OW 1264   0.613   1.387   2.599
  243SOL    HW1 1265   0.567   1.304   2.607
  243SOL    HW2 1266   0.598   1.414   2.508
  244SOL     OW 1267   1.286   1.237   3.284
  244SOL    HW1 1268   1.318   1.169   3.224
  244SOL    HW2 1269   1.346   1.232   3.359
  245SOL     OW 1270   0.821   0.004   2.379
  245SOL    HW1 1271   0.866   0.085   2.354
  245SOL    HW2 1272   0.728   0.028   2.378
  246SOL     OW 1273   0.184   0.949   3.141
  246SOL    HW1 1274   0.272   0.914   3.129
  246SOL    HW2 1275   0.132   0.908   3.072
  247SOL     OW 1276   1.531   0.997   2.062
  247SOL    HW1 1277   1.462   0.940   2.095
  247SOL    HW2 1278   1.574   1.031   2.141
  248SOL     OW 1279   1.184   1.810   3.487
  248SOL    HW1 1280   1.192   1.870   3.413
  248SOL    HW2 1281   1.202   1.724   3.449
  249SOL     OW 1282   0.346   0.250   3.706
  249SOL    HW1 1283   0.388   0.333   3.686
  249SOL    HW2 1284   0.254   0.273   3.722
  250SOL     OW 1285   1.465   1.420   2.810
  250SOL    HW1 1286   1.399   1.435   2.877
  250SOL    HW2 1287   1.452   1.328   2.784
  251SOL     OW 1288   1.665   1.736   2.418
  251SOL    HW1 1289   1.630   1.699   2.337
  251SOL    HW2 1290   1.647   1.669   2.484
  252SOL     OW 1291   0.595   0.716   2.129
  252SOL    HW1 1292   0.600   0.801   2.084
  252SOL    HW2 1293   0.533   0.730   2.200
  253SOL     OW 1294   1.274   0.370   2.803
  253SOL    HW1 1295   1.187   0.331   2.810
  253SOL    HW2 1296   1.332   0.309   2.849
  254SOL     OW 1297   1.575   1.672   2.159
  254SOL    HW1 1298   1.662   1.703   2.136
  254SOL    HW2 1299   1.535   1.647   2.076
  255SOL     OW 1300   0.794   0.616   3.315
  255SOL    HW1 1301   0.765   0.589   3.402
  255SOL    HW2 1302   0.757   0.549   3.256
  256SOL     OW 1303   1.392   0.476   3.539
  256SOL    HW1 1304   1.399   0.521   3.623
  256SOL    HW2 1305   1.449   0.399   3.549
  257SOL     OW 1306   0.951   0.887   3.447
  257SOL    HW1 1307   1.006   0.818   3.410
  257SOL    HW2 1308   0.903   0.922   3.372
  258SOL     OW 1309   0.993   0.403   3.099
  258SOL    HW1 1310   0.907   0.422   3.136
  258SOL    HW2 1311   0.974   0.374   3.010
  259SOL     OW 1312   1.053   0.700   2.287
  259SOL    HW1 1313   1.070   0.693   2.381
  259SOL    HW2 1314   0.970   0.654   2.274
  260SOL     OW 1315   0.082   0.830   2.652
  260SOL    HW1 1316   0.153   0.795   2.706
  260SOL    HW2 1317   0.105   0.922   2.638
  261SOL     OW 1318   0.130   1.865   3.440
  261SOL    HW1 1319   0.138   1.829   3.529
  261SOL    HW2 1320   0.038   1.853   3.418
  262SOL     OW 1321   0.895   0.352   2.061
  262SOL    HW1 1322   0.937   0.412   1.999
  262SOL    HW2 1323   0.892   0.268   2.014
  263SOL     OW 1324   1.707   0.575   3.692
  263SOL    HW1 1325   1.670   0.649   3.643
  263SOL    HW2 1326   1.732   0.512   3.624
  264SOL     OW 1327   1.379   1.141   2.401
  264SOL    HW1 1328   1.459   1.131   2.350
  264SOL    HW2 1329   1.326   1.204   2.351
  265SOL     OW 1330   0.562   0.195   2.742
  265SOL    HW1 1331   0.566   0.219   2.834
  265SOL    HW2 1332   0.547   0.278   2.696
  266SOL     OW 1333   1.001   1.443   2.331
  266SOL    HW1 1334   0.968   1.518   2.282
  266SOL    HW2 1335   0.981   1.464   2.422
  267SOL     OW 1336   0.365   1.822   2.733
  267SOL    HW1 1337   0.427   1.750   2.743
  267SOL    HW2 1338   0.416   1.901   2.749
  268SOL     OW 1339   1.800   1.050   2.734
  268SOL    HW1 1340   1.746   1.036   2.656
  268SOL    HW2 1341   1.737   1.058   2.805
  269SOL     OW 1342   1.227   1.539   3.375
  269SOL    HW1 1343   1.215   1.467   3.436
  269SOL    HW2 1344   1.162   1.525   3.307
  270SOL     OW 1345   0.310   0.953   2.104
  270SOL    HW1 1346   0.394   0.975   2.063
  270SOL    HW2 1347   0.298   0.860   2.085
  271SOL     OW 1348   1.480   0.749   2.591
  271SOL    HW1 1349   1.475   0.708   2.677
  271SOL    HW2 1350   1.558   0.804   2.595
  272SOL     OW 1351   0.469   1.261   3.599
  272SOL    HW1 1352   0.443   1.269   3.508
  272SOL    HW2 1353   0.387   1.264   3.648
  273SOL     OW 1354   1.123   1.776   2.092
  273SOL    HW1 1355   1.047   1.737   2.136
  273SOL    HW2 1356   1.146   1.713   2.023
  274SOL     OW 1357   0.201   0.293   3.362
  274SOL    HW1 1358   0.107   0.313   3.362
  274SOL    HW2 1359   0.210   0.219   3.423
  275SOL     OW 1360   1.628   1.380   1.950
  275SOL    HW1 1361   1.586   1.465   1.934
  275SOL    HW2 1362   1.559   1.316   1.930
  276SOL     OW 1363   0.466   1.739   2.178
  276SOL    HW1 1364   0.509   1.795   2.242
  276SOL    HW2 1365   0.537   1.702   2.125
  277SOL     OW 1366   1.443   0.168   2.267
  277SOL    HW1 1367   1.393   0.100   2.222
  277SOL    HW2 1368   1.511   0.120   2.314
  278SOL     OW 1369   0.252   1.790   3.093
  278SOL    HW1 1370   0.298   1.724   3.145
  278SOL    HW2 1371   0.251   1.754   3.004
  279SOL     OW 1372   0.938   1.699   2.759
  279SOL    HW1 1373   1.018   1.650   2.780
  279SOL    HW2 1374   0.896   1.649   2.690
  280SOL     OW 1375   0.398   0.694   2.332
  280SOL    HW1 1376   0.423   0.603   2.348
  280SOL    HW2 1377   0.306   0.699   2.358
  281SOL     OW 1378   1.529   0.228   3.589
  281SOL    HW1 1379   1.523   0.253   3.681
  281SOL    HW2 1380   1.513   0.134   3.588
  282SOL     OW 1381   0.646   0.129   1.965
  282SOL    HW1 1382   0.667   0.044   2.005
  282SOL    HW2 1383   0.585   0.107   1.895
  283SOL     OW 1384   0.776   0.284   3.631
  283SOL    HW1 1385   0.852   0.226   3.632
  283SOL    HW2 1386   0.720   0.253   3.702
  284SOL     OW 1387   0.875   1.522   3.056
  284SOL    HW1 1388   0.859   1.485   2.969
  284SOL    HW2 1389   0.945   1.468   3.093
  285SOL     OW 1390   1.339   0.587   3.293
  285SOL    HW1 1391   1.370   0.558   3.379
  285SOL    HW2 1392   1.374   0.676   3.283
  286SOL     OW 1393   0.817   1.392   2.805
  286SOL    HW1 1394   0.902   1.380   2.763
  286SOL    HW2 1395   0.755   1.395   2.732
  287SOL     OW 1396   0.930   0.512   2.761
  287SOL    HW1 1397   0.906   0.504   2.669
  287SOL    HW2 1398   0.955   0.424   2.788
  288SOL     OW 1399   0.546   0.056   2.349
  288SOL    HW1 1400   0.473   0.063   2.410
  288SOL    HW2 1401   0.548   0.140   2.303
  289SOL     OW 1402   1.427   1.199   1.902
  289SOL    HW1 1403   1.457   1.123   1.953
  289SOL    HW2 1404   1.342   1.221   1.939
  290SOL     OW 1405   0.349   0.035   2.061
  290SOL    HW1 1406   0.359   0.087   1.981
  290SOL    HW2 1407   0.435   0.038   2.103
  291SOL     OW 1408   0.943   0.250   2.322
  291SOL    HW1 1409   0.917   0.290   2.239
  291SOL    HW2 1410   1.039   0.255   2.322
  292SOL     OW 1411   1.079   0.684   3.320
  292SOL    HW1 1412   1.010   0.618   3.326
  292SOL    HW2 1413   1.160   0.634   3.315
  293SOL     OW 1414   1.220   1.571   2.657
  293SOL    HW1 1415   1.235   1.637   2.589
  293SOL    HW2 1416   1.290   1.586   2.721
  294SOL     OW 1417   0.466   1.151   2.596
  294SOL    HW1 1418   0.396   1.126   2.656
  294SOL    HW2 1419   0.431   1.136   2.509
  295SOL     OW 1420   1.263   1.792   2.472
  295SOL    HW1 1421   1.309   1.854   2.416
  295SOL    HW2 1422   1.197   1.844   2.517
  296SOL     OW 1423   1.022   0.541   1.892
  296SOL    HW1 1424   0.978   0.625   1.872
  296SOL    HW2 1425   1.085   0.563   1.960
  297SOL     OW 1426   0.081   0.574   3.255
  297SOL    HW1 1427   0.170   0.556   3.225
  297SOL    HW2 1428   0.091   0.645   3.318
  298SOL     OW 1429   0.572   0.231   3.021
  298SOL    HW1 1430   0.593   0.138   3.030
  298SOL    HW2 1431   0.481   0.237   3.051
  299SOL     OW 1432   0.871   0.461   2.500
  299SOL    HW1 1433   0.820   0.514   2.438
  299SOL    HW2 1434   0.891   0.381   2.452
  300SOL     OW 1435   0.997   0.039   2.643
  300SOL    HW1 1436   0.959   0.069   2.560
  300SOL    HW2 1437   1.008   3.945   2.631
  301SOL     OW 1438   1.439   1.161   2.719
  301SOL    HW1 1439   1.368   1.097   2.718
  301SOL    HW2 1440   1.464   1.171   2.627
  302SOL     OW 1441   1.465   0.608   2.834
  302SOL    HW1 1442   1.409   0.530   2.840
  302SOL    HW2 1443   1.524   0.600   2.909
  303SOL     OW 1444   1.843   0.818   2.250
  303SOL    HW1 1445   1.900   0.766   2.306
  303SOL    HW2 1446   1.815   0.758   2.182
  304SOL     OW 1447   0.487   1.422   2.021
  304SOL    HW1 1448   0.411   1.391   2.071
  304SOL    HW2 1449   0.474   1.387   1.933
  305SOL     OW 1450   1.672   1.264   2.506
  305SOL    HW1 1451   1.767   1.262   2.520
  305SOL    HW2 1452   1.646   1.353   2.528
  306SOL     OW 1453   1.395   0.577   1.931
  306SOL    HW1 1454   1.332   0.557   2.000
  306SOL    HW2 1455   1.480   0.557   1.970
  307SOL     OW 1456   0.557   0.271   2.179
  307SOL    HW1 1457   0.605   0.231   2.107
  307SOL    HW2 1458   0.528   0.355   2.145
  308SOL     OW 1459   1.750   1.241   3.430
  308SOL    HW1 1460   1.837   1.202   3.424
  308SOL    HW2 1461   1.766   1.331   3.457
  309SOL     OW 1462   1.056   1.354   3.195
  309SOL    HW1 1463   0.981   1.322   3.245
  309SOL    HW2 1464   1.131   1.312   3.236
  310SOL     OW 1465   1.609   1.626   3.517
  310SOL    HW1 1466   1.602   1.663   3.429
  310SOL    HW2 1467   1.692   1.579   3.517
  311SOL     OW 1468   1.133   1.207   2.966
  311SOL    HW1 1469   1.073   1.245   3.030
  311SOL    HW2 1470   1.102   1.241   2.881
  312SOL     OW 1471   1.624   1.096   2.938
  312SOL    HW1 1472   1.618   1.159   3.011
  312SOL    HW2 1473   1.548   1.115   2.884
  313SOL     OW 1474   0.912   0.117   3.263
  313SOL    HW1 1475   0.932   0.089   3.173
  313SOL    HW2 1476   0.993   0.158   3.294
  314SOL     OW 1477   0.984   1.115   3.585
  314SOL    HW1 1478   0.893   1.132   3.608
  314SOL    HW2 1479   0.981   1.037   3.530
  315SOL     OW 1480   0.708   1.062   2.232
  315SOL    HW1 1481   0.694   1.044   2.325
  315SOL    HW2 1482   0.784   1.008   2.209
  316SOL     OW 1483   0.423   0.817   3.115
  316SOL    HW1 1484   0.491   0.824   3.182
  316SOL    HW2 1485   0.388   0.729   3.124
  317SOL     OW 1486   1.265   0.375   3.139
  317SOL    HW1 1487   1.299   0.453   3.183
  317SOL    HW2 1488   1.178   0.400   3.110
  318SOL     OW 1489   0.065   1.580   3.208
  318SOL    HW1 1490   0.071   1.632   3.128
  318SOL    HW2 1491   0.156   1.568   3.236
  319SOL     OW 1492   0.370   1.103   2.344
  319SOL    HW1 1493   0.364   1.182   2.290
  319SOL    HW2 1494   0.368   1.031   2.281
  320SOL     OW 1495   0.554   0.533   2.719
  320SOL    HW1 1496   0.568   0.592   2.645
  320SOL    HW2 1497   0.620   0.560   2.783
  321SOL     OW 1498   1.247   1.349   2.252
  321SOL    HW1 1499   1.303   1.420   2.284
  321SOL    HW2 1500   1.160   1.370   2.285
  322SOL     OW 1501   1.286   1.460   3.010
  322SOL    HW1 1502   1.342   1.464   3.088
  322SOL    HW2 1503   1.231   1.383   3.025
  323SOL     OW 1504   1.574   0.634   2.350
  323SOL    HW1 1505   1.531   0.689   2.415
  323SOL    HW2 1506   1.621   0.696   2.294
  324SOL     OW 1507   0.345   1.527   3.180
  324SOL    HW1 1508   0.336   1.477   3.099
  324SOL    HW2 1509   0.440   1.542   3.188
  325SOL     OW 1510   0.418   0.737   3.463
  325SOL    HW1 1511   0.481   0.782   3.407
  325SOL    HW2 1512   0.455   0.650   3.476
  326SOL     OW 1513   1.605   0.781   3.548
  326SOL    HW1 1514   1.519   0.823   3.541
  326SOL    HW2 1515   1.657   0.822   3.479
  327SOL     OW 1516   1.009   0.137   3.641
  327SOL    HW1 1517   1.065   0.207   3.607
  327SOL    HW2 1518   1.000   0.076   3.568
  328SOL     OW 1519   0.484   0.037   3.626
  328SOL    HW1 1520   0.490   0.048   3.531
  328SOL    HW2 1521   0.422   0.104   3.654
  329SOL     OW 1522   0.585   0.875   2.894
  329SOL    HW1 1523   0.618   0.965   2.896
  329SOL    HW2 1524   0.529   0.867   2.971
  330SOL     OW 1525   1.351   0.858   2.887
  330SOL    HW1 1526   1.266   0.845   2.845
  330SOL    HW2 1527   1.396   0.774   2.879
  331SOL     OW 1528   1.199   0.537   2.119
  331SOL    HW1 1529   1.208   0.458   2.172
  331SOL    HW2 1530   1.156   0.600   2.177
  332SOL     OW 1531   0.311   0.212   3.102
  332SOL    HW1 1532   0.268   0.248   3.179
  332SOL    HW2 1533   0.296   0.117   3.108
  333SOL     OW 1534   0.062   1.306   3.142
  333SOL    HW1 1535   0.091   1.263   3.222
  333SOL    HW2 1536   0.053   1.398   3.166
  334SOL     OW 1537   0.724   0.633   2.914
  334SOL    HW1 1538   0.799   0.619   2.856
  334SOL    HW2 1539   0.694   0.722   2.894
  335SOL     OW 1540   1.738   0.959   3.718
  335SOL    HW1 1541   1.693   0.895   3.664
  335SOL    HW2 1542   1.677   0.975   3.791
  336SOL     OW 1543   0.331   0.054   2.518
  336SOL    HW1 1544   0.302   0.146   2.519
  336SOL    HW2 1545   0.296   0.017   2.599
  337SOL     OW 1546   1.608   0.393   2.241
  337SOL    HW1 1547   1.566   0.325   2.293
  337SOL    HW2 1548   1.588   0.474   2.288
  338SOL     OW 1549   1.030   0.759   2.820
  338SOL    HW1 1550   1.022   0.776   2.914
  338SOL    HW2 1551   1.003   0.668   2.810
  339SOL     OW 1552   0.982   1.566   3.582
  339SOL    HW1 1553   0.966   1.610   3.498
  339SOL    HW2 1554   1.025   1.484   3.558
  340SOL     OW 1555   1.854   1.501   3.465
  340SOL    HW1 1556   1.870   1.532   3.376
  340SOL    HW2 1557   1.937   1.513   3.510
  341SOL     OW 1558   0.354   0.922   3.660
  341SOL    HW1 1559   0.431   0.942   3.712
  341SOL    HW2 1560   0.383   0.854   3.599
  342SOL     OW 1561   1.503   0.274   1.996
  342SOL    HW1 1562   1.430   0.213   2.008
  342SOL    HW2 1563   1.516   0.313   2.083
  343SOL     OW 1564   1.288   0.827   1.890
  343SOL    HW1 1565   1.330   0.741   1.894
  343SOL    HW2 1566   1.320   0.866   1.809
  344SOL     OW 1567   1.067   1.337   2.718
  344SOL    HW1 1568   1.072   1.265   2.655
  344SOL    HW2 1569   1.127   1.404   2.683
  345SOL     OW 1570   0.313   0.802   2.812
  345SOL    HW1 1571   0.407   0.818   2.806
  345SOL    HW2 1572   0.306   0.712   2.844
  346SOL     OW 1573   0.339   0.529   2.877
  346SOL    HW1 1574   0.297   0.444   2.859
  346SOL    HW2 1575   0.414   0.532   2.818
  347SOL     OW 1576   1.133   0.380   3.560
  347SOL    HW1 1577   1.085   0.435   3.622
  347SOL    HW2 1578   1.220   0.420   3.555
  348SOL     OW 1579   1.151   0.225   3.344
  348SOL    HW1 1580   1.142   0.280   3.422
  348SOL    HW2 1581   1.177   0.287   3.275
  349SOL     OW 1582   0.001   1.316   2.044
  349SOL    HW1 1583   3.907   1.333   2.048
  349SOL    HW2 1584   0.009   1.223   2.063
  350SOL     OW 1585   0.078   1.800   2.750
  350SOL    HW1 1586   0.085   1.704   2.752
  350SOL    HW2 1587   0.169   1.830   2.755
  351SOL     OW 1588   0.499   1.571   2.772
  351SOL    HW1 1589   0.568   1.632   2.798
  351SOL    HW2 1590   0.542   1.508   2.714
  352SOL     OW 1591   0.976   0.788   3.086
  352SOL    HW1 1592   1.033   0.769   3.160
  352SOL    HW2 1593   0.892   0.749   3.109
  353SOL     OW 1594   0.035   0.576   2.974
  353SOL    HW1 1595   0.095   0.522   2.923
  353SOL    HW2 1596   0.061   0.562   3.065
  354SOL     OW 1597   0.211   0.516   3.584
  354SOL    HW1 1598   0.257   0.475   3.510
  354SOL    HW2 1599   0.165   0.591   3.546
  355SOL     OW 1600   1.379   0.936   3.519
  355SOL    HW1 1601   1.401   1.029   3.515
  355SOL    HW2 1602   1.375   0.908   3.427
  356SOL     OW 1603   0.819   0.572   2.225
  356SOL    HW1 1604   0.825   0.496   2.167
  356SOL    HW2 1605   0.744   0.621   2.192
  357SOL     OW 1606   1.640   0.602   3.044
  357SOL    HW1 1607   1.630   0.542   3.118
  357SOL    HW2 1608   1.727   0.585   3.010
  358SOL     OW 1609   0.300   1.544   3.585
  358SOL    HW1 1610   0.253   1.613   3.632
  358SOL    HW2 1611   0.271   1.463   3.627
  359SOL     OW 1612   0.712   0.453   3.116
  359SOL    HW1 1613   0.661   0.375   3.092
  359SOL    HW2 1614   0.701   0.513   3.042
  360SOL     OW 1615   0.924   1.679   3.332
  360SOL    HW1 1616   0.899   1.641   3.248
  360SOL    HW2 1617   0.918   1.774   3.318
  361SOL     OW 1618   0.452   0.492   2.060
  361SOL    HW1 1619   0.517   0.561   2.077
  361SOL    HW2 1620   0.373   0.539   2.036
  362SOL     OW 1621   0.155   1.134   3.337
  362SOL    HW1 1622   0.156   1.084   3.418
  362SOL    HW2 1623   0.170   1.069   3.268
  363SOL     OW 1624   1.322   1.044   3.083
  363SOL    HW1 1625   1.345   0.981   3.015
  363SOL    HW2 1626   1.255   1.100   3.044
  364SOL     OW 1627   1.315   0.856   2.166
  364SOL    HW1 1628   1.240   0.827   2.218
  364SOL    HW2 1629   1.287   0.843   2.076
  365SOL     OW 1630   1.757   1.735   3.009
  365SOL    HW1 1631   1.829   1.761   2.952
  365SOL    HW2 1632   1.739   1.644   2.986
  366SOL     OW 1633   1.243   1.734   2.969
  366SOL    HW1 1634   1.326   1.757   2.927
  366SOL    HW2 1635   1.251   1.641   2.989
  367SOL     OW 1636   0.078   1.217   2.889
  367SOL    HW1 1637   0.084   1.243   2.981
  367SOL    HW2 1638   3.985   1.227   2.868
  368SOL     OW 1639   0.680   1.669   3.598
  368SOL    HW1 1640   0.620   1.743   3.589
  368SOL    HW2 1641   0.747   1.683   3.531
  369SOL     OW 1642   1.715   0.124   2.351
  369SOL    HW1 1643   1.793   0.134   2.297
  369SOL    HW2 1644   1.706   0.029   2.361
  370SOL     OW 1645   1.392   1.568   2.350
  370SOL    HW1 1646   1.446   1.602   2.280
  370SOL    HW2 1647   1.341   1.644   2.380
  371SOL     OW 1648   0.176   1.762   3.693
  371SOL    HW1 1649   0.119   1.711   3.750
  371SOL    HW2 1650   0.216   1.828   3.750
  372SOL     OW 1651   1.277   0.928   2.533
  372SOL    HW1 1652   1.351   0.869   2.545
  372SOL    HW2 1653   1.312   1.000   2.480
  373SOL     OW 1654   0.808   1.274   3.289
  373SOL    HW1 1655   0.780   1.316   3.370
  373SOL    HW2 1656   0.737   1.291   3.227
  374SOL     OW 1657   0.670   1.623   2.017
  374SOL    HW1 1658   0.681   1.636   1.923
  374SOL    HW2 1659   0.614   1.546   2.025
  375SOL     OW 1660   1.620   1.730   3.253
  375SOL    HW1 1661   1.669   1.734   3.171
  375SOL    HW2 1662   1.610   1.821   3.279
  376SOL     OW 1663   1.839   0.178   2.828
  376SOL    HW1 1664   1.872   0.113   2.766
  376SOL    HW2 1665   1.750   0.197   2.798
  377SOL     OW 1666   0.275   0.322   2.576
  377SOL    HW1 1667   0.190   0.357   2.550
  377SOL    HW2 1668   0.267   0.307   2.670
  378SOL     OW 1669   1.206   1.603   1.894
  378SOL    HW1 1670   1.196   1.512   1.920
  378SOL    HW2 1671   1.140   1.616   1.826
  379SOL     OW 1672   0.823   1.005   3.236
  379SOL    HW1 1673   0.867   1.000   3.151
  379SOL    HW2 1674   0.821   1.099   3.256
  380SOL     OW 1675   0.915   0.911   2.152
  380SOL    HW1 1676   0.976   0.943   2.086
  380SOL    HW2 1677   0.964   0.842   2.198
  381SOL     OW 1678   1.486   1.622   1.902
  381SOL    HW1 1679   1.391   1.617   1.886
  381SOL    HW2 1680   1.525   1.630   1.815
  382SOL     OW 1681   0.374   1.303   3.354
  382SOL    HW1 1682   0.359   1.383   3.304
  382SOL    HW2 1683   0.297   1.248   3.336
  383SOL     OW 1684   1.608   1.284   3.141
  383SOL    HW1 1685   1.669   1.270   3.214
  383SOL    HW2 1686   1.549   1.352   3.172
  384SOL     OW 1687   1.057   1.109   2.571
  384SOL    HW1 1688   0.986   1.059   2.608
  384SOL    HW2 1689   1.121   1.044   2.543
  385SOL     OW 1690   1.014   0.250   2.832
  385SOL    HW1 1691   1.005   0.199   2.752
  385SOL    HW2 1692   1.011   0.184   2.902
  386SOL     OW 1693   0.607   1.488   2.344
  386SOL    HW1 1694   0.653   1.439   2.276
  386SOL    HW2 1695   0.531   1.526   2.298
  387SOL     OW 1696   1.721   0.394   3.233
  387SOL    HW1 1697   1.794   0.456   3.238
  387SOL    HW2 1698   1.754   0.322   3.180
  388SOL     OW 1699   0.254   1.341   2.156
  388SOL    HW1 1700   0.160   1.347   2.137
  388SOL    HW2 1701   0.264   1.380   2.242
  389SOL     OW 1702   0.108   0.999   3.580
  389SOL    HW1 1703   0.048   0.992   3.654
  389SOL    HW2 1704   0.195   0.981   3.617
  390SOL     OW 1705   0.694   0.256   3.364
  390SOL    HW1 1706   0.762   0.202   3.323
  390SOL    HW2 1707   0.723   0.264   3.455
  391SOL     OW 1708   0.088   0.320   1.888
  391SOL    HW1 1709   3.993   0.318   1.880
  391SOL    HW2 1710   0.114   0.402   1.847
  392SOL     OW 1711   1.426   0.856   3.260
  392SOL    HW1 1712   1.377   0.918   3.205
  392SOL    HW2 1713   1.515   0.859   3.225
  393SOL     OW 1714   0.036   0.171   2.146
  393SOL    HW1 1715   0.037   0.229   2.070
  393SOL    HW2 1716   0.112   0.198   2.198
  394SOL     OW 1717   1.178   1.337   1.979
  394SOL    HW1 1718   1.087   1.306   1.981
  394SOL    HW2 1719   1.205   1.337   2.071
  395SOL     OW 1720   0.621   0.828   3.299
  395SOL    HW1 1721   0.678   0.904   3.283
  395SOL    HW2 1722   0.681   0.754   3.307
  396SOL     OW 1723   1.489   1.788   2.847
  396SOL    HW1 1724   1.510   1.854   2.781
  396SOL    HW2 1725   1.572   1.766   2.888
  397SOL     OW 1726   0.718   0.561   3.568
  397SOL    HW1 1727   0.763   0.622   3.626
  397SOL    HW2 1728   0.743   0.475   3.601
  398SOL     OW 1729   1.473   1.196   3.492
  398SOL    HW1 1730   1.461   1.211   3.586
  398SOL    HW2 1731   1.566   1.214   3.477
  399SOL     OW 1732   0.378   1.744   3.418
  399SOL    HW1 1733   0.291   1.781   3.406
  399SOL    HW2 1734   0.362   1.661   3.464
  400SOL     OW 1735   1.666   0.880   3.118
  400SOL    HW1 1736   1.662   0.795   3.075
  400SOL    HW2 1737   1.656   0.944   3.046
  401SOL     OW 1738   1.223   0.337   2.303
  401SOL    HW1 1739   1.291   0.270   2.296
  401SOL    HW2 1740   1.241   0.381   2.386
  402SOL     OW 1741   0.590   0.737   2.534
  402SOL    HW1 1742   0.627   0.824   2.518
  402SOL    HW2 1743   0.523   0.728   2.466
  403SOL     OW 1744   1.750   0.384   3.505
  403SOL    HW1 1745   1.732   0.390   3.411
  403SOL    HW2 1746   1.693   0.313   3.536
  404SOL     OW 1747   1.747   0.934   3.374
  404SOL    HW1 1748   1.738   1.028   3.387
  404SOL    HW2 1749   1.730   0.921   3.281
  405SOL     OW 1750   0.863   1.366   1.901
  405SOL    HW1 1751   0.825   1.394   1.985
  405SOL    HW2 1752   0.879   1.447   1.854
  406SOL     OW 1753   0.663   1.787   2.803
  406SOL    HW1 1754   0.643   1.878   2.782
  406SOL    HW2 1755   0.758   1.781   2.796
  407SOL     OW 1756   0.869   0.969   2.715
  407SOL    HW1 1757   0.919   0.897   2.753
  407SOL    HW2 1758   0.832   1.015   2.790
  408SOL     OW 1759   1.078   0.989   1.951
  408SOL    HW1 1760   1.056   1.040   1.873
  408SOL    HW2 1761   1.152   0.935   1.924
  409SOL     OW 1762   1.842   1.536   2.691
  409SOL    HW1 1763   1.758   1.535   2.646
  409SOL    HW2 1764   1.831   1.479   2.766
  410SOL     OW 1765   0.227   1.304   3.718
  410SOL    HW1 1766   0.154   1.249   3.691
  410SOL    HW2 1767   0.213   1.317   3.812
  411SOL     OW 1768   0.124   1.282   2.584
  411SOL    HW1 1769   0.137   1.230   2.664
  411SOL    HW2 1770   0.106   1.217   2.516
  412SOL     OW 1771   0.682   1.406   3.492
  412SOL    HW1 1772   0.602   1.363   3.523
  412SOL    HW2 1773   0.678   1.494   3.529
  413SOL     OW 1774   1.810   0.183   3.100
  413SOL    HW1 1775   1.814   0.089   3.116
  413SOL    HW2 1776   1.826   0.192   3.006
  414SOL     OW 1777   0.445   0.438   2.393
  414SOL    HW1 1778   0.464   0.362   2.338
  414SOL    HW2 1779   0.390   0.404   2.463
  415SOL     OW 1780   1.701   1.478   2.948
  415SOL    HW1 1781   1.618   1.461   2.903
  415SOL    HW2 1782   1.707   1.411   3.016
  416SOL     OW 1783   0.334   0.558   3.155
  416SOL    HW1 1784   0.390   0.502   3.209
  416SOL    HW2 1785   0.349   0.529   3.065
  417SOL     OW 1786   0.830   1.579   2.537
  417SOL    HW1 1787   0.813   1.642   2.467
  417SOL    HW2 1788   0.754   1.520   2.535
  418SOL     OW 1789   1.460   0.255   2.972
  418SOL    HW1 1790   1.478   0.168   3.008
  418SOL    HW2 1791   1.405   0.297   3.038
  419SOL     OW 1792   1.003   0.027   3.008
  419SOL    HW1 1793   0.922   3.994   2.970
  419SOL    HW2 1794   1.059   3.950   3.017
  420SOL     OW 1795   0.773   1.333   2.181
  420SOL    HW1 1796   0.745   1.242   2.187
  420SOL    HW2 1797   0.855   1.337   2.230
  421SOL     OW 1798   0.620   1.557   3.148
  421SOL    HW1 1799   0.622   1.639   3.197
  421SOL    HW2 1800   0.708   1.549   3.111
  422SOL     OW 1801   1.309   0.074   2.027
  422SOL    HW1 1802   1.321   3.992   1.979
  422SOL    HW2 1803   1.224   0.064   2.070
  423SOL     OW 1804   1.281   0.457   2.547
  423SOL    HW1 1805   1.234   0.540   2.541
  423SOL    HW2 1806   1.283   0.437   2.640
  424SOL     OW 1807   1.588   0.210   2.730
  424SOL    HW1 1808   1.539   0.234   2.808
  424SOL    HW2 1809   1.588   0.289   2.676
  425SOL     OW 1810   0.047   1.048   2.104
  425SOL    HW1 1811   0.141   1.032   2.095
  425SOL    HW2 1812   0.011   0.963   2.130
  426SOL     OW 1813   0.888   1.657   2.201
  426SOL    HW1 1814   0.813   1.641   2.143
  426SOL    HW2 1815   0.860   1.730   2.256
  427SOL     OW 1816   0.232   0.629   3.840
  427SOL    HW1 1817   0.139   0.633   3.862
  427SOL    HW2 1818   0.235   0.599   3.749
  428SOL     OW 1819   0.224   0.290   4.706
  428SOL    HW1 1820   0.246   0.250   4.791
  428SOL    HW2 1821   0.129   0.280   4.700
  429SOL     OW 1822   0.019   0.384   4.360
  429SOL    HW1 1823   3.928   0.399   4.386
  429SOL    HW2 1824   0.025   0.290   4.346
  430SOL     OW 1825   0.582   1.291   4.918
  430SOL    HW1 1826   0.495   1.292   4.876
  430SOL    HW2 1827   0.595   1.380   4.949
  431SOL     OW 1828   1.569   1.514   4.433
  431SOL    HW1 1829   1.526   1.493   4.516
  431SOL    HW2 1830   1.497   1.519   4.370
  432SOL     OW 1831   1.133   0.699   4.420
  432SOL    HW1 1832   1.180   0.781   4.408
  432SOL    HW2 1833   1.085   0.710   4.502
  433SOL     OW 1834   1.769   0.619   3.948
  433SOL    HW1 1835   1.746   0.612   3.855
  433SOL    HW2 1836   1.752   0.532   3.984
  434SOL     OW 1837   0.752   1.138   4.767
  434SOL    HW1 1838   0.689   1.175   4.830
  434SOL    HW2 1839   0.788   1.215   4.723
  435SOL     OW 1840   0.873   0.769   5.548
  435SOL    HW1 1841   0.860   0.840   5.610
  435SOL    HW2 1842   0.894   0.812   5.466
  436SOL     OW 1843   0.685   1.002   4.369
  436SOL    HW1 1844   0.751   0.991   4.437
  436SOL    HW2 1845   0.616   1.053   4.411
  437SOL     OW 1846   0.712   1.149   5.542
  437SOL    HW1 1847   0.760   1.227   5.570
  437SOL    HW2 1848   0.632   1.183   5.503
  438SOL     OW 1849   0.351   1.400   4.803
  438SOL    HW1 1850   0.270   1.379   4.757
  438SOL    HW2 1851   0.398   1.458   4.743
  439SOL     OW 1852   1.460   1.502   5.082
  439SOL    HW1 1853   1.514   1.581   5.091
  439SOL    HW2 1854   1.395   1.510   5.151
  440SOL     OW 1855   0.458   0.408   5.219
  440SOL    HW1 1856   0.540   0.359   5.218
  440SOL    HW2 1857   0.390   0.341   5.222
  441SOL     OW 1858   1.612   0.451   4.459
  441SOL    HW1 1859   1.543   0.482   4.400
  441SOL    HW2 1860   1.628   0.524   4.519
  442SOL     OW 1861   0.220   1.719   4.181
  442SOL    HW1 1862   0.240   1.793   4.238
  442SOL    HW2 1863   0.297   1.711   4.124
  443SOL     OW 1864   1.137   1.342   5.418
  443SOL    HW1 1865   1.179   1.336   5.503
  443SOL    HW2 1866   1.085   1.262   5.410
  444SOL     OW 1867   0.251   1.451   4.263
  444SOL    HW1 1868   0.215   1.539   4.249
  444SOL    HW2 1869   0.184   1.406   4.315
  445SOL     OW 1870   0.248   1.065   4.608
  445SOL    HW1 1871   0.268   0.980   4.647
  445SOL    HW2 1872   0.195   1.110   4.674
  446SOL     OW 1873   0.610   1.793   5.150
  446SOL    HW1 1874   0.527   1.775   5.195
  446SOL    HW2 1875   0.632   1.882   5.177
  447SOL     OW 1876   0.576   0.986   3.863
  447SOL    HW1 1877   0.625   1.030   3.794
  447SOL    HW2 1878   0.617   1.016   3.944
  448SOL     OW 1879   1.581   0.141   5.179
  448SOL    HW1 1880   1.613   0.213   5.125
  448SOL    HW2 1881   1.547   0.183   5.258
  449SOL     OW 1882   0.141   0.652   4.293
  449SOL    HW1 1883   0.099   0.567   4.298
  449SOL    HW2 1884   0.103   0.702   4.366
  450SOL     OW 1885   0.044   1.589   3.862
  450SOL    HW1 1886   0.038   1.497   3.888
  450SOL    HW2 1887   3.960   1.627   3.887
  451SOL     OW 1888   1.687   0.917   4.367
  451SOL    HW1 1889   1.771   0.876   4.347
  451SOL    HW2 1890   1.667   0.969   4.289
  452SOL     OW 1891   1.649   1.105   4.153
  452SOL    HW1 1892   1.736   1.108   4.113
  452SOL    HW2 1893   1.655   1.167   4.226
  453SOL     OW 1894   0.142   0.756   5.312
  453SOL    HW1 1895   0.238   0.751   5.307
  453SOL    HW2 1896   0.124   0.843   5.347
  454SOL     OW 1897   0.613   1.387   4.461
  454SOL    HW1 1898   0.567   1.304   4.469
  454SOL    HW2 1899   0.598   1.414   4.370
  455SOL     OW 1900   1.286   1.237   5.146
  455SOL    HW1 1901   1.317   1.169   5.086
  455SOL    HW2 1902   1.346   1.232   5.221
  456SOL     OW 1903   0.821   0.004   4.241
  456SOL    HW1 1904   0.866   0.085   4.216
  456SOL    HW2 1905   0.728   0.028   4.240
  457SOL     OW 1906   0.184   0.949   5.003
  457SOL    HW1 1907   0.272   0.914   4.991
  457SOL    HW2 1908   0.132   0.908   4.934
  458SOL     OW 1909   1.531   0.997   3.924
  458SOL    HW1 1910   1.462   0.940   3.957
  458SOL    HW2 1911   1.574   1.031   4.003
  459SOL     OW 1912   1.182   1.809   5.348
  459SOL    HW1 1913   1.192   1.870   5.275
  459SOL    HW2 1914   1.201   1.723   5.311
  460SOL     OW 1915   0.346   0.250   5.568
  460SOL    HW1 1916   0.388   0.333   5.547
  460SOL    HW2 1917   0.254   0.273   5.584
  461SOL     OW 1918   1.465   1.420   4.672
  461SOL    HW1 1919   1.399   1.435   4.739
  461SOL    HW2 1920   1.452   1.328   4.646
  462SOL     OW 1921   1.664   1.736   4.280
  462SOL    HW1 1922   1.630   1.699   4.199
  462SOL    HW2 1923   1.646   1.669   4.346
  463SOL     OW 1924   0.595   0.716   3.991
  463SOL    HW1 1925   0.600   0.801   3.946
  463SOL    HW2 1926   0.533   0.730   4.062
  464SOL     OW 1927   1.274   0.370   4.665
  464SOL    HW1 1928   1.187   0.331   4.672
  464SOL    HW2 1929   1.332   0.309   4.711
  465SOL     OW 1930   1.575   1.672   4.022
  465SOL    HW1 1931   1.663   1.702   3.998
  465SOL    HW2 1932   1.535   1.647   3.938
  466SOL     OW 1933   0.794   0.616   5.177
  466SOL    HW1 1934   0.765   0.589   5.264
  466SOL    HW2 1935   0.757   0.550   5.118
  467SOL     OW 1936   1.392   0.476   5.401
  467SOL    HW1 1937   1.399   0.521   5.485
  467SOL    HW2 1938   1.449   0.399   5.411
  468SOL     OW 1939   0.951   0.887   5.309
  468SOL    HW1 1940   1.006   0.818   5.271
  468SOL    HW2 1941   0.903   0.922   5.234
  469SOL     OW 1942   0.993   0.403   4.961
  469SOL    HW1 1943   0.907   0.422   4.998
  469SOL    HW2 1944   0.974   0.374   4.871
  470SOL     OW 1945   1.053   0.700   4.149
  470SOL    HW1 1946   1.070   0.693   4.243
  470SOL    HW2 1947   0.970   0.653   4.136
  471SOL     OW 1948   0.082   0.830   4.514
  471SOL    HW1 1949   0.153   0.795   4.568
  471SOL    HW2 1950   0.104   0.922   4.499
  472SOL     OW 1951   0.130   1.865   5.302
  472SOL    HW1 1952   0.138   1.829   5.391
  472SOL    HW2 1953   0.038   1.854   5.280
  473SOL     OW 1954   0.895   0.352   3.923
  473SOL    HW1 1955   0.937   0.412   3.861
  473SOL    HW2 1956   0.892   0.268   3.876
  474SOL     OW 1957   1.707   0.575   5.553
  474SOL    HW1 1958   1.670   0.649   5.504
  474SOL    HW2 1959   1.731   0.512   5.486
  475SOL     OW 1960   1.379   1.141   4.263
  475SOL    HW1 1961   1.459   1.131   4.212
  475SOL    HW2 1962   1.326   1.204   4.213
  476SOL     OW 1963   0.562   0.195   4.604
  476SOL    HW1 1964   0.567   0.219   4.696
  476SOL    HW2 1965   0.547   0.277   4.558
  477SOL     OW 1966   1.002   1.443   4.193
  477SOL    HW1 1967   0.968   1.518   4.144
  477SOL    HW2 1968   0.981   1.464   4.284
  478SOL     OW 1969   0.365   1.822   4.596
  478SOL    HW1 1970   0.427   1.750   4.605
  478SOL    HW2 1971   0.416   1.901   4.611
  479SOL     OW 1972   1.800   1.050   4.596
  479SOL    HW1 1973   1.746   1.036   4.518
  479SOL    HW2 1974   1.736   1.058   4.667
  480SOL     OW 1975   1.227   1.540   5.237
  480SOL    HW1 1976   1.215   1.467   5.298
  480SOL    HW2 1977   1.163   1.524   5.168
  481SOL     OW 1978   0.310   0.953   3.966
  481SOL    HW1 1979   0.394   0.975   3.925
  481SOL    HW2 1980   0.298   0.860   3.947
  482SOL     OW 1981   1.480   0.749   4.453
  482SOL    HW1 1982   1.475   0.708   4.539
  482SOL    HW2 1983   1.558   0.804   4.457
  483SOL     OW 1984   0.469   1.261   5.462
  483SOL    HW1 1985   0.443   1.269   5.370
  483SOL    HW2 1986   0.387   1.263   5.510
  484SOL     OW 1987   1.123   1.776   3.954
  484SOL    HW1 1988   1.047   1.737   3.998
  484SOL    HW2 1989   1.146   1.713   3.885
  485SOL     OW 1990   0.201   0.294   5.225
  485SOL    HW1 1991   0.108   0.313   5.224
  485SOL    HW2 1992   0.210   0.219   5.284
  486SOL     OW 1993   1.628   1.380   3.812
  486SOL    HW1 1994   1.586   1.465   3.796
  486SOL    HW2 1995   1.559   1.316   3.792
  487SOL     OW 1996   0.466   1.739   4.040
  487SOL    HW1 1997   0.510   1.795   4.104
  487SOL    HW2 1998   0.537   1.702   3.987
  488SOL     OW 1999   1.442   0.168   4.129
  488SOL    HW1 2000   1.393   0.100   4.083
  488SOL    HW2 2001   1.511   0.120   4.176
  489SOL     OW 2002   0.253   1.790   4.955
  489SOL    HW1 2003   0.298   1.724   5.006
  489SOL    HW2 2004   0.250   1.754   4.866
  490SOL     OW 2005   0.938   1.699   4.621
  490SOL    HW1 2006   1.018   1.650   4.642
  490SOL    HW2 2007   0.896   1.648   4.552
  491SOL     OW 2008   0.398   0.694   4.194
  491SOL    HW1 2009   0.423   0.603   4.210
  491SOL    HW2 2010   0.306   0.699   4.220
  492SOL     OW 2011   1.528   0.228   5.451
  492SOL    HW1 2012   1.523   0.253   5.543
  492SOL    HW2 2013   1.513   0.133   5.450
  493SOL     OW 2014   0.646   0.129   3.827
  493SOL    HW1 2015   0.667   0.044   3.867
  493SOL    HW2 2016   0.585   0.107   3.756
  494SOL     OW 2017   0.776   0.285   5.493
  494SOL    HW1 2018   0.852   0.227   5.494
  494SOL    HW2 2019   0.720   0.253   5.564
  495SOL     OW 2020   0.875   1.522   4.918
  495SOL    HW1 2021   0.859   1.485   4.831
  495SOL    HW2 2022   0.945   1.468   4.955
  496SOL     OW 2023   1.339   0.587   5.155
  496SOL    HW1 2024   1.370   0.558   5.241
  496SOL    HW2 2025   1.374   0.676   5.145
  497SOL     OW 2026   0.817   1.391   4.667
  497SOL    HW1 2027   0.902   1.380   4.625
  497SOL    HW2 2028   0.755   1.395   4.594
  498SOL     OW 2029   0.930   0.512   4.624
  498SOL    HW1 2030   0.906   0.504   4.531
  498SOL    HW2 2031   0.955   0.424   4.650
  499SOL     OW 2032   0.546   0.056   4.211
  499SOL    HW1 2033   0.473   0.063   4.272
  499SOL    HW2 2034   0.548   0.140   4.165
  500SOL     OW 2035   1.427   1.199   3.764
  500SOL    HW1 2036   1.457   1.124   3.815
  500SOL    HW2 2037   1.342   1.221   3.801
  501SOL     OW 2038   0.349   0.035   3.923
  501SOL    HW1 2039   0.359   0.086   3.843
  501SOL    HW2 2040   0.435   0.038   3.965
  502SOL     OW 2041   0.943   0.250   4.184
  502SOL    HW1 2042   0.917   0.290   4.101
  502SOL    HW2 2043   1.039   0.255   4.184
  503SOL     OW 2044   1.079   0.684   5.182
  503SOL    HW1 2045   1.010   0.618   5.188
  503SOL    HW2 2046   1.160   0.634   5.177
  504SOL     OW 2047   1.220   1.572   4.519
  504SOL    HW1 2048   1.235   1.637   4.451
  504SOL    HW2 2049   1.290   1.586   4.583
  505SOL     OW 2050   0.466   1.151   4.458
  505SOL    HW1 2051   0.396   1.126   4.518
  505SOL    HW2 2052   0.431   1.136   4.371
  506SOL     OW 2053   1.263   1.792   4.334
  506SOL    HW1 2054   1.309   1.854   4.278
  506SOL    HW2 2055   1.197   1.844   4.379
  507SOL     OW 2056   1.022   0.541   3.754
  507SOL    HW1 2057   0.978   0.624   3.734
  507SOL    HW2 2058   1.085   0.563   3.822
  508SOL     OW 2059   0.081   0.574   5.117
  508SOL    HW1 2060   0.170   0.556   5.087
  508SOL    HW2 2061   0.091   0.645   5.180
  509SOL     OW 2062   0.572   0.231   4.883
  509SOL    HW1 2063   0.593   0.138   4.891
  509SOL    HW2 2064   0.481   0.237   4.913
  510SOL     OW 2065   0.871   0.461   4.362
  510SOL    HW1 2066   0.820   0.514   4.300
  510SOL    HW2 2067   0.891   0.381   4.314
  511SOL     OW 2068   0.997   0.039   4.505
  511SOL    HW1 2069   0.959   0.069   4.422
  511SOL    HW2 2070   1.008   3.945   4.493
  512SOL     OW 2071   1.439   1.161   4.581
  512SOL    HW1 2072   1.368   1.097   4.579
  512SOL    HW2 2073   1.465   1.171   4.490
  513SOL     OW 2074   1.465   0.608   4.697
  513SOL    HW1 2075   1.409   0.530   4.702
  513SOL    HW2 2076   1.524   0.600   4.771
  514SOL     OW 2077   1.843   0.819   4.112
  514SOL    HW1 2078   1.900   0.766   4.168
  514SOL    HW2 2079   1.815   0.758   4.044
  515SOL     OW 2080   0.487   1.422   3.883
  515SOL    HW1 2081   0.411   1.391   3.933
  515SOL    HW2 2082   0.474   1.387   3.795
  516SOL     OW 2083   1.672   1.263   4.368
  516SOL    HW1 2084   1.767   1.262   4.382
  516SOL    HW2 2085   1.646   1.353   4.390
  517SOL     OW 2086   1.395   0.577   3.793
  517SOL    HW1 2087   1.332   0.557   3.862
  517SOL    HW2 2088   1.480   0.557   3.832
  518SOL     OW 2089   0.557   0.271   4.041
  518SOL    HW1 2090   0.606   0.231   3.969
  518SOL    HW2 2091   0.528   0.355   4.007
  519SOL     OW 2092   1.750   1.241   5.292
  519SOL    HW1 2093   1.837   1.202   5.285
  519SOL    HW2 2094   1.766   1.332   5.319
  520SOL     OW 2095   1.056   1.354   5.057
  520SOL    HW1 2096   0.981   1.322   5.107
  520SOL    HW2 2097   1.131   1.312   5.098
  521SOL     OW 2098   1.608   1.626   5.380
  521SOL    HW1 2099   1.602   1.662   5.291
  521SOL    HW2 2100   1.692   1.579   5.380
  522SOL     OW 2101   1.133   1.208   4.828
  522SOL    HW1 2102   1.072   1.245   4.892
  522SOL    HW2 2103   1.102   1.241   4.743
  523SOL     OW 2104   1.624   1.096   4.800
  523SOL    HW1 2105   1.618   1.159   4.873
  523SOL    HW2 2106   1.548   1.115   4.746
  524SOL     OW 2107   0.912   0.117   5.125
  524SOL    HW1 2108   0.932   0.089   5.035
  524SOL    HW2 2109   0.993   0.158   5.156
  525SOL     OW 2110   0.984   1.115   5.448
  525SOL    HW1 2111   0.893   1.131   5.470
  525SOL    HW2 2112   0.982   1.037   5.392
  526SOL     OW 2113   0.708   1.062   4.094
  526SOL    HW1 2114   0.694   1.044   4.187
  526SOL    HW2 2115   0.784   1.008   4.071
  527SOL     OW 2116   0.423   0.818   4.977
  527SOL    HW1 2117   0.491   0.824   5.044
  527SOL    HW2 2118   0.388   0.729   4.986
  528SOL     OW 2119   1.265   0.375   5.001
  528SOL    HW1 2120   1.299   0.453   5.045
  528SOL    HW2 2121   1.178   0.400   4.972
  529SOL     OW 2122   0.065   1.580   5.070
  529SOL    HW1 2123   0.071   1.630   4.989
  529SOL    HW2 2124   0.156   1.568   5.097
  530SOL     OW 2125   0.370   1.103   4.206
  530SOL    HW1 2126   0.364   1.182   4.152
  530SOL    HW2 2127   0.368   1.031   4.143
  531SOL     OW 2128   0.554   0.533   4.581
  531SOL    HW1 2129   0.568   0.592   4.507
  531SOL    HW2 2130   0.620   0.560   4.645
  532SOL     OW 2131   1.247   1.349   4.114
  532SOL    HW1 2132   1.303   1.420   4.146
  532SOL    HW2 2133   1.160   1.370   4.147
  533SOL     OW 2134   1.286   1.460   4.872
  533SOL    HW1 2135   1.342   1.464   4.950
  533SOL    HW2 2136   1.231   1.383   4.887
  534SOL     OW 2137   1.574   0.634   4.212
  534SOL    HW1 2138   1.531   0.689   4.277
  534SOL    HW2 2139   1.621   0.696   4.156
  535SOL     OW 2140   0.345   1.528   5.042
  535SOL    HW1 2141   0.335   1.477   4.961
  535SOL    HW2 2142   0.440   1.542   5.049
  536SOL     OW 2143   0.418   0.737   5.325
  536SOL    HW1 2144   0.481   0.782   5.269
  536SOL    HW2 2145   0.455   0.649   5.337
  537SOL     OW 2146   1.604   0.781   5.410
  537SOL    HW1 2147   1.519   0.823   5.402
  537SOL    HW2 2148   1.657   0.822   5.341
  538SOL     OW 2149   1.009   0.137   5.503
  538SOL    HW1 2150   1.065   0.207   5.469
  538SOL    HW2 2151   1.000   0.076   5.430
  539SOL     OW 2152   0.484   0.037   5.488
  539SOL    HW1 2153   0.490   0.048   5.394
  539SOL    HW2 2154   0.422   0.104   5.516
  540SOL     OW 2155   0.585   0.875   4.756
  540SOL    HW1 2156   0.617   0.965   4.758
  540SOL    HW2 2157   0.529   0.868   4.833
  541SOL     OW 2158   1.351   0.858   4.749
  541SOL    HW1 2159   1.266   0.845   4.707
  541SOL    HW2 2160   1.396   0.774   4.741
  542SOL     OW 2161   1.199   0.537   3.981
  542SOL    HW1 2162   1.208   0.458   4.034
  542SOL    HW2 2163   1.156   0.600   4.039
  543SOL     OW 2164   0.311   0.212   4.964
  543SOL    HW1 2165   0.267   0.248   5.041
  543SOL    HW2 2166   0.296   0.117   4.970
  544SOL     OW 2167   0.063   1.306   5.004
  544SOL    HW1 2168   0.092   1.263   5.085
  544SOL    HW2 2169   0.053   1.398   5.028
  545SOL     OW 2170   0.724   0.633   4.776
  545SOL    HW1 2171   0.799   0.619   4.718
  545SOL    HW2 2172   0.694   0.722   4.756
  546SOL     OW 2173   1.738   0.959   5.580
  546SOL    HW1 2174   1.693   0.894   5.525
  546SOL    HW2 2175   1.677   0.976   5.652
  547SOL     OW 2176   0.331   0.055   4.380
  547SOL    HW1 2177   0.302   0.146   4.381
  547SOL    HW2 2178   0.296   0.017   4.461
  548SOL     OW 2179   1.608   0.393   4.103
  548SOL    HW1 2180   1.565   0.325   4.155
  548SOL    HW2 2181   1.588   0.474   4.150
  549SOL     OW 2182   1.030   0.759   4.682
  549SOL    HW1 2183   1.022   0.776   4.776
  549SOL    HW2 2184   1.003   0.668   4.672
  550SOL     OW 2185   0.981   1.565   5.444
  550SOL    HW1 2186   0.966   1.610   5.360
  550SOL    HW2 2187   1.026   1.484   5.420
  551SOL     OW 2188   1.853   1.501   5.326
  551SOL    HW1 2189   1.870   1.532   5.238
  551SOL    HW2 2190   1.936   1.512   5.373
  552SOL     OW 2191   0.354   0.922   5.522
  552SOL    HW1 2192   0.432   0.942   5.574
  552SOL    HW2 2193   0.383   0.854   5.461
  553SOL     OW 2194   1.503   0.274   3.858
  553SOL    HW1 2195   1.430   0.214   3.870
  553SOL    HW2 2196   1.516   0.313   3.945
  554SOL     OW 2197   1.288   0.827   3.752
  554SOL    HW1 2198   1.330   0.741   3.756
  554SOL    HW2 2199   1.320   0.866   3.671
  555SOL     OW 2200   1.067   1.337   4.580
  555SOL    HW1 2201   1.072   1.265   4.517
  555SOL    HW2 2202   1.127   1.404   4.545
  556SOL     OW 2203   0.313   0.802   4.674
  556SOL    HW1 2204   0.407   0.818   4.668
  556SOL    HW2 2205   0.306   0.712   4.706
  557SOL     OW 2206   0.339   0.529   4.740
  557SOL    HW1 2207   0.297   0.444   4.722
  557SOL    HW2 2208   0.414   0.532   4.680
  558SOL     OW 2209   1.133   0.380   5.422
  558SOL    HW1 2210   1.085   0.435   5.484
  558SOL    HW2 2211   1.220   0.420   5.417
  559SOL     OW 2212   1.151   0.225   5.206
  559SOL    HW1 2213   1.142   0.280   5.284
  559SOL    HW2 2214   1.178   0.287   5.137
  560SOL     OW 2215   0.001   1.316   3.906
  560SOL    HW1 2216   3.907   1.333   3.910
  560SOL    HW2 2217   0.009   1.223   3.925
  561SOL     OW 2218   0.078   1.800   4.612
  561SOL    HW1 2219   0.085   1.704   4.614
  561SOL    HW2 2220   0.169   1.830   4.616
  562SOL     OW 2221   0.499   1.571   4.634
  562SOL    HW1 2222   0.568   1.632   4.660
  562SOL    HW2 2223   0.542   1.509   4.576
  563SOL     OW 2224   0.976   0.788   4.948
  563SOL    HW1 2225   1.033   0.769   5.022
  563SOL    HW2 2226   0.892   0.749   4.971
  564SOL     OW 2227   0.034   0.576   4.836
  564SOL    HW1 2228   0.095   0.522   4.785
  564SOL    HW2 2229   0.061   0.562   4.927
  565SOL     OW 2230   0.212   0.516   5.446
  565SOL    HW1 2231   0.256   0.475   5.372
  565SOL    HW2 2232   0.165   0.590   5.408
  566SOL     OW 2233   1.378   0.936   5.381
  566SOL    HW1 2234   1.401   1.029   5.377
  566SOL    HW2 2235   1.375   0.908   5.289
  567SOL     OW 2236   0.819   0.572   4.087
  567SOL    HW1 2237   0.825   0.496   4.029
  567SOL    HW2 2238   0.744   0.621   4.054
  568SOL     OW 2239   1.640   0.602   4.906
  568SOL    HW1 2240   1.631   0.542   4.980
  568SOL    HW2 2241   1.728   0.585   4.872
  569SOL     OW 2242   0.302   1.544   5.448
  569SOL    HW1 2243   0.253   1.613   5.494
  569SOL    HW2 2244   0.271   1.463   5.488
  570SOL     OW 2245   0.712   0.453   4.978
  570SOL    HW1 2246   0.661   0.375   4.954
  570SOL    HW2 2247   0.701   0.513   4.905
  571SOL     OW 2248   0.923   1.679   5.195
  571SOL    HW1 2249   0.899   1.641   5.110
  571SOL    HW2 2250   0.918   1.774   5.180
  572SOL     OW 2251   0.452   0.492   3.922
  572SOL    HW1 2252   0.517   0.561   3.939
  572SOL    HW2 2253   0.373   0.539   3.898
  573SOL     OW 2254   0.155   1.134   5.199
  573SOL    HW1 2255   0.156   1.084   5.280
  573SOL    HW2 2256   0.170   1.069   5.130
  574SOL     OW 2257   1.322   1.044   4.945
  574SOL    HW1 2258   1.345   0.981   4.877
  574SOL    HW2 2259   1.255   1.100   4.905
  575SOL     OW 2260   1.315   0.856   4.028
  575SOL    HW1 2261   1.240   0.827   4.080
  575SOL    HW2 2262   1.287   0.843   3.937
  576SOL     OW 2263   1.752   1.735   4.868
  576SOL    HW1 2264   1.826   1.760   4.813
  576SOL    HW2 2265   1.736   1.644   4.846
  577SOL     OW 2266   1.243   1.734   4.831
  577SOL    HW1 2267   1.326   1.757   4.789
  577SOL    HW2 2268   1.251   1.641   4.851
  578SOL     OW 2269   0.078   1.217   4.751
  578SOL    HW1 2270   0.084   1.242   4.843
  578SOL    HW2 2271   3.985   1.227   4.730
  579SOL     OW 2272   0.680   1.669   5.460
  579SOL    HW1 2273   0.620   1.742   5.450
  579SOL    HW2 2274   0.747   1.682   5.394
  580SOL     OW 2275   1.715   0.124   4.213
  580SOL    HW1 2276   1.793   0.134   4.159
  580SOL    HW2 2277   1.706   0.029   4.223
  581SOL     OW 2278   1.392   1.568   4.212
  581SOL    HW1 2279   1.446   1.602   4.142
  581SOL    HW2 2280   1.341   1.644   4.242
  582SOL     OW 2281   0.176   1.762   5.555
  582SOL    HW1 2282   0.119   1.710   5.612
  582SOL    HW2 2283   0.215   1.828   5.612
  583SOL     OW 2284   1.277   0.928   4.395
  583SOL    HW1 2285   1.351   0.869   4.407
  583SOL    HW2 2286   1.312   1.000   4.342
  584SOL     OW 2287   0.808   1.274   5.151
  584SOL    HW1 2288   0.780   1.316   5.232
  584SOL    HW2 2289   0.737   1.291   5.089
  585SOL     OW 2290   0.670   1.623   3.879
  585SOL    HW1 2291   0.682   1.636   3.785
  585SOL    HW2 2292   0.614   1.546   3.887
  586SOL     OW 2293   1.619   1.730   5.114
  586SOL    HW1 2294   1.668   1.734   5.032
  586SOL    HW2 2295   1.610   1.821   5.141
  587SOL     OW 2296   1.839   0.178   4.690
  587SOL    HW1 2297   1.872   0.113   4.628
  587SOL    HW2 2298   1.750   0.197   4.660
  588SOL     OW 2299   0.275   0.322   4.438
  588SOL    HW1 2300   0.190   0.357   4.412
  588SOL    HW2 2301   0.267   0.307   4.532
  589SOL     OW 2302   1.206   1.603   3.756
  589SOL    HW1 2303   1.196   1.512   3.782
  589SOL    HW2 2304   1.141   1.616   3.687
  590SOL     OW 2305   0.823   1.005   5.098
  590SOL    HW1 2306   0.867   1.000   5.013
  590SOL    HW2 2307   0.821   1.099   5.118
  591SOL     OW 2308   0.915   0.911   4.014
  591SOL    HW1 2309   0.976   0.943   3.948
  591SOL    HW2 2310   0.964   0.842   4.060
  592SOL     OW 2311   1.486   1.622   3.764
  592SOL    HW1 2312   1.391   1.617   3.748
  592SOL    HW2 2313   1.525   1.630   3.677
  593SOL     OW 2314   0.374   1.303   5.216
  593SOL    HW1 2315   0.359   1.383   5.165
  593SOL    HW2 2316   0.298   1.248   5.198
  594SOL     OW 2317   1.607   1.283   5.003
  594SOL    HW1 2318   1.670   1.271   5.075
  594SOL    HW2 2319   1.549   1.352   5.035
  595SOL     OW 2320   1.057   1.109   4.433
  595SOL    HW1 2321   0.986   1.059   4.470
  595SOL    HW2 2322   1.121   1.044   4.405
  596SOL     OW 2323   1.014   0.250   4.694
  596SOL    HW1 2324   1.005   0.199   4.614
  596SOL    HW2 2325   1.011   0.184   4.764
  597SOL     OW 2326   0.607   1.488   4.206
  597SOL    HW1 2327   0.653   1.439   4.139
  597SOL    HW2 2328   0.531   1.526   4.160
  598SOL     OW 2329   1.721   0.394   5.096
  598SOL    HW1 2330   1.794   0.456   5.100
  598SOL    HW2 2331   1.754   0.322   5.042
  599SOL     OW 2332   0.254   1.341   4.018
  599SOL    HW1 2333   0.160   1.347   3.999
  599SOL    HW2 2334   0.264   1.380   4.104
  600SOL     OW 2335   0.108   0.999   5.442
  600SOL    HW1 2336   0.048   0.991   5.516
  600SOL    HW2 2337   0.195   0.981   5.479
  601SOL     OW 2338   0.694   0.255   5.226
  601SOL    HW1 2339   0.762   0.202   5.185
  601SOL    HW2 2340   0.723   0.264   5.317
  602SOL     OW 2341   0.088   0.320   3.750
  602SOL    HW1 2342   3.993   0.318   3.742
  602SOL    HW2 2343   0.114   0.402   3.709
  603SOL     OW 2344   1.426   0.856   5.122
  603SOL    HW1 2345   1.377   0.918   5.067
  603SOL    HW2 2346   1.515   0.859   5.087
  604SOL     OW 2347   0.036   0.171   4.008
  604SOL    HW1 2348   0.037   0.229   3.932
  604SOL    HW2 2349   0.112   0.198   4.060
  605SOL     OW 2350   1.178   1.336   3.841
  605SOL    HW1 2351   1.087   1.306   3.843
  605SOL    HW2 2352   1.205   1.337   3.933
  606SOL     OW 2353   0.621   0.829   5.161
  606SOL    HW1 2354   0.678   0.904   5.145
  606SOL    HW2 2355   0.681   0.754   5.169
  607SOL     OW 2356   1.489   1.788   4.709
  607SOL    HW1 2357   1.510   1.854   4.644
  607SOL    HW2 2358   1.573   1.767   4.751
  608SOL     OW 2359   0.718   0.561   5.430
  608SOL    HW1 2360   0.763   0.622   5.489
  608SOL    HW2 2361   0.743   0.474   5.463
  609SOL     OW 2362   1.474   1.196   5.353
  609SOL    HW1 2363   1.462   1.211   5.447
  609SOL    HW2 2364   1.566   1.214   5.337
  610SOL     OW 2365   0.378   1.744   5.281
  610SOL    HW1 2366   0.291   1.781   5.268
  610SOL    HW2 2367   0.362   1.661   5.327
  611SOL     OW 2368   1.666   0.880   4.980
  611SOL    HW1 2369   1.662   0.795   4.936
  611SOL    HW2 2370   1.656   0.944   4.908
  612SOL     OW 2371   1.223   0.337   4.165
  612SOL    HW1 2372   1.291   0.270   4.158
  612SOL    HW2 2373   1.241   0.381   4.248
  613SOL     OW 2374   0.590   0.737   4.396
  613SOL    HW1 2375   0.627   0.824   4.380
  613SOL    HW2 2376   0.523   0.728   4.328
  614SOL     OW 2377   1.750   0.384   5.367
  614SOL    HW1 2378   1.732   0.390   5.273
  614SOL    HW2 2379   1.693   0.313   5.398
  615SOL     OW 2380   1.746   0.934   5.236
  615SOL    HW1 2381   1.739   1.028   5.249
  615SOL    HW2 2382   1.729   0.921   5.143
  616SOL     OW 2383   0.863   1.366   3.763
  616SOL    HW1 2384   0.825   1.394   3.846
  616SOL    HW2 2385   0.879   1.447   3.715
  617SOL     OW 2386   0.663   1.787   4.665
  617SOL    HW1 2387   0.643   1.878   4.644
  617SOL    HW2 2388   0.759   1.781   4.658
  618SOL     OW 2389   0.869   0.969   4.577
  618SOL    HW1 2390   0.919   0.897   4.615
  618SOL    HW2 2391   0.832   1.015   4.652
  619SOL     OW 2392   1.077   0.989   3.813
  619SOL    HW1 2393   1.056   1.040   3.735
  619SOL    HW2 2394   1.152   0.935   3.786
  620SOL     OW 2395   1.843   1.539   4.555
  620SOL    HW1 2396   1.759   1.538   4.509
  620SOL    HW2 2397   1.831   1.481   4.630
  621SOL     OW 2398   0.227   1.303   5.580
  621SOL    HW1 2399   0.154   1.248   5.551
  621SOL    HW2 2400   0.211   1.317   5.674
  622SOL     OW 2401   0.124   1.282   4.447
  622SOL    HW1 2402   0.137   1.230   4.526
  622SOL    HW2 2403   0.106   1.217   4.378
  623SOL     OW 2404   0.683   1.405   5.355
  623SOL    HW1 2405   0.602   1.363   5.385
  623SOL    HW2 2406   0.678   1.494   5.392
  624SOL     OW 2407   1.810   0.183   4.962
  624SOL    HW1 2408   1.813   0.089   4.978
  624SOL    HW2 2409   1.826   0.192   4.868
  625SOL     OW 2410   0.445   0.438   4.255
  625SOL    HW1 2411   0.464   0.362   4.200
  625SOL    HW2 2412   0.389   0.404   4.325
  626SOL     OW 2413   1.701   1.477   4.810
  626SOL    HW1 2414   1.618   1.459   4.766
  626SOL    HW2 2415   1.707   1.410   4.878
  627SOL     OW 2416   0.334   0.558   5.017
  627SOL    HW1 2417   0.390   0.502   5.070
  627SOL    HW2 2418   0.349   0.529   4.927
  628SOL     OW 2419   0.830   1.579   4.399
  628SOL    HW1 2420   0.813   1.642   4.329
  628SOL    HW2 2421   0.754   1.520   4.397
  629SOL     OW 2422   1.460   0.255   4.834
  629SOL    HW1 2423   1.479   0.168   4.870
  629SOL    HW2 2424   1.405   0.297   4.900
  630SOL     OW 2425   1.003   0.027   4.870
  630SOL    HW1 2426   0.922   3.994   4.832
  630SOL    HW2 2427   1.059   3.950   4.879
  631SOL     OW 2428   0.773   1.333   4.043
  631SOL    HW1 2429   0.745   1.242   4.049
  631SOL    HW2 2430   0.855   1.337   4.092
  632SOL     OW 2431   0.621   1.556   5.011
  632SOL    HW1 2432   0.622   1.639   5.060
  632SOL    HW2 2433   0.708   1.549   4.973
  633SOL     OW 2434   1.309   0.074   3.889
  633SOL    HW1 2435   1.321   3.992   3.841
  633SOL    HW2 2436   1.224   0.064   3.932
  634SOL     OW 2437   1.281   0.457   4.409
  634SOL    HW1 2438   1.234   0.540   4.403
  634SOL    HW2 2439   1.283   0.437   4.502
  635SOL     OW 2440   1.587   0.210   4.592
  635SOL    HW1 2441   1.539   0.234   4.670
  635SOL    HW2 2442   1.588   0.289   4.538
  636SOL     OW 2443   0.047   1.048   3.966
  636SOL    HW1 2444   0.141   1.032   3.957
  636SOL    HW2 2445   0.011   0.963   3.992
  637SOL     OW 2446   0.887   1.657   4.063
  637SOL    HW1 2447   0.813   1.641   4.005
  637SOL    HW2 2448   0.859   1.730   4.118
  638SOL     OW 2449   0.232   0.629   5.702
  638SOL    HW1 2450   0.139   0.633   5.724
  638SOL    HW2 2451   0.235   0.599   5.611
  639SOL     OW 2452   0.224   0.290   6.568
  639SOL    HW1 2453   0.246   0.250   6.652
  639SOL    HW2 2454   0.129   0.280   6.562
  640SOL     OW 2455   0.019   0.384   6.222
  640SOL    HW1 2456   3.928   0.399   6.248
  640SOL    HW2 2457   0.025   0.290   6.208
  641SOL     OW 2458   0.582   1.291   6.779
  641SOL    HW1 2459   0.495   1.293   6.738
  641SOL    HW2 2460   0.594   1.381   6.812
  642SOL     OW 2461   1.133   0.699   6.282
  642SOL    HW1 2462   1.180   0.781   6.269
  642SOL    HW2 2463   1.086   0.710   6.364
  643SOL     OW 2464   1.767   0.619   5.810
  643SOL    HW1 2465   1.745   0.612   5.717
  643SOL    HW2 2466   1.754   0.531   5.845
  644SOL     OW 2467   0.753   1.140   6.629
  644SOL    HW1 2468   0.690   1.175   6.692
  644SOL    HW2 2469   0.787   1.217   6.584
  645SOL     OW 2470   0.872   0.769   7.410
  645SOL    HW1 2471   0.867   0.840   7.473
  645SOL    HW2 2472   0.894   0.812   7.327
  646SOL     OW 2473   0.686   1.002   6.231
  646SOL    HW1 2474   0.751   0.990   6.300
  646SOL    HW2 2475   0.616   1.054   6.272
  647SOL     OW 2476   0.712   1.149   7.404
  647SOL    HW1 2477   0.760   1.227   7.432
  647SOL    HW2 2478   0.631   1.184   7.365
  648SOL     OW 2479   0.351   1.400   6.665
  648SOL    HW1 2480   0.270   1.379   6.619
  648SOL    HW2 2481   0.397   1.459   6.605
  649SOL     OW 2482   0.458   0.408   7.081
  649SOL    HW1 2483   0.540   0.359   7.080
  649SOL    HW2 2484   0.390   0.341   7.084
  650SOL     OW 2485   1.612   0.450   6.321
  650SOL    HW1 2486   1.544   0.483   6.262
  650SOL    HW2 2487   1.627   0.523   6.382
  651SOL     OW 2488   0.220   1.719   6.043
  651SOL    HW1 2489   0.240   1.793   6.100
  651SOL    HW2 2490   0.296   1.712   5.986
  652SOL     OW 2491   1.130   1.354   7.276
  652SOL    HW1 2492   1.185   1.350   7.354
  652SOL    HW2 2493   1.082   1.272   7.276
  653SOL     OW 2494   0.252   1.452   6.126
  653SOL    HW1 2495   0.216   1.539   6.111
  653SOL    HW2 2496   0.185   1.406   6.177
  654SOL     OW 2497   0.249   1.066   6.471
  654SOL    HW1 2498   0.268   0.980   6.509
  654SOL    HW2 2499   0.195   1.110   6.537
  655SOL     OW 2500   0.605   1.794   7.008
  655SOL    HW1 2501   0.524   1.776   7.055
  655SOL    HW2 2502   0.630   1.882   7.037
  656SOL     OW 2503   0.575   0.986   5.725
  656SOL    HW1 2504   0.624   1.030   5.656
  656SOL    HW2 2505   0.617   1.016   5.806
  657SOL     OW 2506   1.582   0.141   7.042
  657SOL    HW1 2507   1.613   0.213   6.987
  657SOL    HW2 2508   1.547   0.183   7.120
  658SOL     OW 2509   0.141   0.653   6.155
  658SOL    HW1 2510   0.099   0.567   6.159
  658SOL    HW2 2511   0.102   0.702   6.228
  659SOL     OW 2512   0.044   1.589   5.724
  659SOL    HW1 2513   0.038   1.497   5.751
  659SOL    HW2 2514   3.959   1.626   5.748
  660SOL     OW 2515   1.690   0.921   6.230
  660SOL    HW1 2516   1.773   0.877   6.212
  660SOL    HW2 2517   1.674   0.975   6.152
  661SOL     OW 2518   1.664   1.119   6.020
  661SOL    HW1 2519   1.741   1.100   5.967
  661SOL    HW2 2520   1.690   1.195   6.073
  662SOL     OW 2521   0.142   0.756   7.175
  662SOL    HW1 2522   0.238   0.752   7.169
  662SOL    HW2 2523   0.125   0.844   7.209
  663SOL     OW 2524   0.614   1.388   6.323
  663SOL    HW1 2525   0.568   1.304   6.332
  663SOL    HW2 2526   0.598   1.415   6.233
  664SOL     OW 2527   1.294   1.248   6.990
  664SOL    HW1 2528   1.321   1.173   6.938
  664SOL    HW2 2529   1.342   1.240   7.072
  665SOL     OW 2530   0.821   0.004   6.103
  665SOL    HW1 2531   0.866   0.085   6.078
  665SOL    HW2 2532   0.728   0.028   6.102
  666SOL     OW 2533   0.184   0.949   6.865
  666SOL    HW1 2534   0.272   0.914   6.853
  666SOL    HW2 2535   0.132   0.908   6.796
  667SOL     OW 2536   1.532   0.999   5.788
  667SOL    HW1 2537   1.462   0.942   5.820
  667SOL    HW2 2538   1.575   1.032   5.866
  668SOL     OW 2539   0.346   0.250   7.430
  668SOL    HW1 2540   0.388   0.333   7.410
  668SOL    HW2 2541   0.254   0.273   7.446
  669SOL     OW 2542   0.595   0.717   5.853
  669SOL    HW1 2543   0.599   0.801   5.808
  669SOL    HW2 2544   0.532   0.730   5.924
  670SOL     OW 2545   1.274   0.370   6.527
  670SOL    HW1 2546   1.187   0.331   6.534
  670SOL    HW2 2547   1.332   0.309   6.573
  671SOL     OW 2548   1.622   1.650   5.880
  671SOL    HW1 2549   1.622   1.745   5.876
  671SOL    HW2 2550   1.570   1.622   5.805
  672SOL     OW 2551   0.793   0.616   7.039
  672SOL    HW1 2552   0.764   0.589   7.126
  672SOL    HW2 2553   0.757   0.549   6.980
  673SOL     OW 2554   1.391   0.475   7.263
  673SOL    HW1 2555   1.398   0.521   7.347
  673SOL    HW2 2556   1.449   0.399   7.272
  674SOL     OW 2557   0.952   0.888   7.172
  674SOL    HW1 2558   1.008   0.819   7.134
  674SOL    HW2 2559   0.902   0.922   7.097
  675SOL     OW 2560   0.993   0.403   6.823
  675SOL    HW1 2561   0.907   0.422   6.860
  675SOL    HW2 2562   0.974   0.374   6.734
  676SOL     OW 2563   1.053   0.700   6.011
  676SOL    HW1 2564   1.070   0.692   6.105
  676SOL    HW2 2565   0.970   0.653   5.998
  677SOL     OW 2566   0.081   0.830   6.376
  677SOL    HW1 2567   0.153   0.795   6.430
  677SOL    HW2 2568   0.105   0.922   6.362
  678SOL     OW 2569   0.130   1.865   7.164
  678SOL    HW1 2570   0.138   1.829   7.253
  678SOL    HW2 2571   0.037   1.854   7.142
  679SOL     OW 2572   0.895   0.352   5.785
  679SOL    HW1 2573   0.937   0.412   5.723
  679SOL    HW2 2574   0.891   0.269   5.738
  680SOL     OW 2575   1.707   0.575   7.414
  680SOL    HW1 2576   1.670   0.649   7.365
  680SOL    HW2 2577   1.731   0.512   7.346
  681SOL     OW 2578   1.390   1.150   6.135
  681SOL    HW1 2579   1.468   1.135   6.081
  681SOL    HW2 2580   1.334   1.206   6.082
  682SOL     OW 2581   0.562   0.195   6.466
  682SOL    HW1 2582   0.567   0.219   6.558
  682SOL    HW2 2583   0.547   0.277   6.420
  683SOL     OW 2584   1.006   1.448   6.060
  683SOL    HW1 2585   0.972   1.520   6.006
  683SOL    HW2 2586   0.970   1.464   6.147
  684SOL     OW 2587   0.364   1.822   6.458
  684SOL    HW1 2588   0.427   1.750   6.468
  684SOL    HW2 2589   0.415   1.901   6.473
  685SOL     OW 2590   1.803   1.014   6.472
  685SOL    HW1 2591   1.745   1.002   6.397
  685SOL    HW2 2592   1.746   1.045   6.543
  686SOL     OW 2593   1.203   1.532   7.072
  686SOL    HW1 2594   1.177   1.468   7.139
  686SOL    HW2 2595   1.136   1.524   7.004
  687SOL     OW 2596   0.310   0.953   5.828
  687SOL    HW1 2597   0.393   0.975   5.787
  687SOL    HW2 2598   0.298   0.860   5.809
  688SOL     OW 2599   1.479   0.751   6.315
  688SOL    HW1 2600   1.473   0.708   6.400
  688SOL    HW2 2601   1.558   0.805   6.321
  689SOL     OW 2602   0.468   1.262   7.324
  689SOL    HW1 2603   0.443   1.269   7.232
  689SOL    HW2 2604   0.385   1.264   7.372
  690SOL     OW 2605   1.123   1.779   5.821
  690SOL    HW1 2606   1.047   1.737   5.861
  690SOL    HW2 2607   1.149   1.720   5.750
  691SOL     OW 2608   0.201   0.293   7.086
  691SOL    HW1 2609   0.108   0.313   7.086
  691SOL    HW2 2610   0.210   0.219   7.146
  692SOL     OW 2611   1.628   1.378   5.677
  692SOL    HW1 2612   1.590   1.464   5.658
  692SOL    HW2 2613   1.560   1.315   5.654
  693SOL     OW 2614   0.465   1.739   5.901
  693SOL    HW1 2615   0.509   1.795   5.965
  693SOL    HW2 2616   0.537   1.702   5.849
  694SOL     OW 2617   1.442   0.168   5.992
  694SOL    HW1 2618   1.393   0.100   5.945
  694SOL    HW2 2619   1.511   0.120   6.038
  695SOL     OW 2620   0.252   1.790   6.817
  695SOL    HW1 2621   0.298   1.724   6.869
  695SOL    HW2 2622   0.250   1.754   6.728
  696SOL     OW 2623   0.932   1.699   6.486
  696SOL    HW1 2624   0.990   1.642   6.537
  696SOL    HW2 2625   0.899   1.644   6.416
  697SOL     OW 2626   0.398   0.694   6.057
  697SOL    HW1 2627   0.423   0.603   6.072
  697SOL    HW2 2628   0.306   0.699   6.082
  698SOL     OW 2629   1.529   0.228   7.313
  698SOL    HW1 2630   1.524   0.253   7.405
  698SOL    HW2 2631   1.513   0.134   7.312
  699SOL     OW 2632   0.646   0.129   5.689
  699SOL    HW1 2633   0.667   0.044   5.729
  699SOL    HW2 2634   0.585   0.107   5.619
  700SOL     OW 2635   0.776   0.284   7.355
  700SOL    HW1 2636   0.852   0.226   7.356
  700SOL    HW2 2637   0.721   0.253   7.426
  701SOL     OW 2638   0.874   1.519   6.777
  701SOL    HW1 2639   0.855   1.478   6.692
  701SOL    HW2 2640   0.941   1.463   6.816
  702SOL     OW 2641   1.338   0.587   7.017
  702SOL    HW1 2642   1.370   0.559   7.102
  702SOL    HW2 2643   1.374   0.675   7.006
  703SOL     OW 2644   0.818   1.393   6.526
  703SOL    HW1 2645   0.901   1.380   6.480
  703SOL    HW2 2646   0.753   1.395   6.457
  704SOL     OW 2647   0.930   0.512   6.485
  704SOL    HW1 2648   0.906   0.504   6.393
  704SOL    HW2 2649   0.955   0.424   6.512
  705SOL     OW 2650   0.547   0.056   6.073
  705SOL    HW1 2651   0.473   0.063   6.134
  705SOL    HW2 2652   0.548   0.140   6.027
  706SOL     OW 2653   1.427   1.199   5.625
  706SOL    HW1 2654   1.457   1.124   5.676
  706SOL    HW2 2655   1.341   1.220   5.661
  707SOL     OW 2656   0.349   0.035   5.785
  707SOL    HW1 2657   0.359   0.087   5.705
  707SOL    HW2 2658   0.435   0.038   5.826
  708SOL     OW 2659   0.943   0.250   6.046
  708SOL    HW1 2660   0.917   0.290   5.963
  708SOL    HW2 2661   1.039   0.254   6.046
  709SOL     OW 2662   1.079   0.685   7.043
  709SOL    HW1 2663   1.011   0.618   7.050
  709SOL    HW2 2664   1.161   0.636   7.039
  710SOL     OW 2665   0.467   1.152   6.321
  710SOL    HW1 2666   0.396   1.126   6.379
  710SOL    HW2 2667   0.432   1.137   6.233
  711SOL     OW 2668   1.022   0.541   5.616
  711SOL    HW1 2669   0.978   0.625   5.596
  711SOL    HW2 2670   1.086   0.563   5.684
  712SOL     OW 2671   0.081   0.574   6.979
  712SOL    HW1 2672   0.170   0.556   6.949
  712SOL    HW2 2673   0.091   0.645   7.042
  713SOL     OW 2674   0.572   0.231   6.745
  713SOL    HW1 2675   0.593   0.138   6.753
  713SOL    HW2 2676   0.481   0.237   6.775
  714SOL     OW 2677   0.871   0.461   6.224
  714SOL    HW1 2678   0.820   0.514   6.162
  714SOL    HW2 2679   0.891   0.381   6.176
  715SOL     OW 2680   0.996   0.039   6.367
  715SOL    HW1 2681   0.959   0.069   6.284
  715SOL    HW2 2682   1.008   3.945   6.355
  716SOL     OW 2683   1.437   1.159   6.435
  716SOL    HW1 2684   1.380   1.086   6.459
  716SOL    HW2 2685   1.427   1.167   6.340
  717SOL     OW 2686   1.464   0.608   6.558
  717SOL    HW1 2687   1.409   0.530   6.563
  717SOL    HW2 2688   1.523   0.601   6.632
  718SOL     OW 2689   1.839   0.817   5.975
  718SOL    HW1 2690   1.898   0.767   6.030
  718SOL    HW2 2691   1.812   0.757   5.906
  719SOL     OW 2692   0.487   1.422   5.745
  719SOL    HW1 2693   0.411   1.391   5.795
  719SOL    HW2 2694   0.473   1.388   5.656
  720SOL     OW 2695   1.396   0.577   5.655
  720SOL    HW1 2696   1.333   0.557   5.724
  720SOL    HW2 2697   1.481   0.556   5.693
  721SOL     OW 2698   0.557   0.271   5.903
  721SOL    HW1 2699   0.606   0.231   5.831
  721SOL    HW2 2700   0.528   0.355   5.869
  722SOL     OW 2701   1.043   1.342   6.915
  722SOL    HW1 2702   0.971   1.312   6.971
  722SOL    HW2 2703   1.122   1.309   6.957
  723SOL     OW 2704   1.127   1.203   6.688
  723SOL    HW1 2705   1.075   1.243   6.758
  723SOL    HW2 2706   1.083   1.229   6.607
  724SOL     OW 2707   1.623   1.095   6.663
  724SOL    HW1 2708   1.622   1.151   6.740
  724SOL    HW2 2709   1.557   1.133   6.604
  725SOL     OW 2710   0.912   0.117   6.987
  725SOL    HW1 2711   0.932   0.089   6.897
  725SOL    HW2 2712   0.993   0.158   7.018
  726SOL     OW 2713   0.986   1.120   7.307
  726SOL    HW1 2714   0.894   1.134   7.331
  726SOL    HW2 2715   0.984   1.040   7.254
  727SOL     OW 2716   0.708   1.062   5.956
  727SOL    HW1 2717   0.694   1.044   6.049
  727SOL    HW2 2718   0.784   1.008   5.933
  728SOL     OW 2719   0.423   0.817   6.839
  728SOL    HW1 2720   0.491   0.824   6.905
  728SOL    HW2 2721   0.388   0.729   6.848
  729SOL     OW 2722   1.265   0.374   6.864
  729SOL    HW1 2723   1.299   0.452   6.908
  729SOL    HW2 2724   1.178   0.400   6.834
  730SOL     OW 2725   0.065   1.579   6.932
  730SOL    HW1 2726   0.071   1.631   6.852
  730SOL    HW2 2727   0.156   1.568   6.960
  731SOL     OW 2728   0.372   1.104   6.067
  731SOL    HW1 2729   0.362   1.182   6.013
  731SOL    HW2 2730   0.369   1.031   6.005
  732SOL     OW 2731   0.554   0.533   6.443
  732SOL    HW1 2732   0.568   0.592   6.369
  732SOL    HW2 2733   0.620   0.559   6.507
  733SOL     OW 2734   1.250   1.352   5.978
  733SOL    HW1 2735   1.304   1.428   5.997
  733SOL    HW2 2736   1.163   1.375   6.012
  734SOL     OW 2737   1.276   1.430   6.755
  734SOL    HW1 2738   1.300   1.409   6.845
  734SOL    HW2 2739   1.242   1.348   6.719
  735SOL     OW 2740   1.573   0.634   6.074
  735SOL    HW1 2741   1.531   0.690   6.139
  735SOL    HW2 2742   1.624   0.694   6.020
  736SOL     OW 2743   0.345   1.527   6.904
  736SOL    HW1 2744   0.336   1.477   6.824
  736SOL    HW2 2745   0.440   1.542   6.912
  737SOL     OW 2746   0.418   0.737   7.187
  737SOL    HW1 2747   0.481   0.782   7.131
  737SOL    HW2 2748   0.455   0.650   7.200
  738SOL     OW 2749   1.605   0.782   7.272
  738SOL    HW1 2750   1.518   0.820   7.266
  738SOL    HW2 2751   1.656   0.825   7.203
  739SOL     OW 2752   1.010   0.136   7.365
  739SOL    HW1 2753   1.065   0.207   7.332
  739SOL    HW2 2754   1.000   0.076   7.291
  740SOL     OW 2755   0.484   0.037   7.350
  740SOL    HW1 2756   0.490   0.048   7.255
  740SOL    HW2 2757   0.422   0.104   7.378
  741SOL     OW 2758   0.585   0.875   6.618
  741SOL    HW1 2759   0.616   0.966   6.621
  741SOL    HW2 2760   0.529   0.866   6.695
  742SOL     OW 2761   1.349   0.860   6.605
  742SOL    HW1 2762   1.262   0.840   6.570
  742SOL    HW2 2763   1.396   0.777   6.602
  743SOL     OW 2764   1.200   0.538   5.843
  743SOL    HW1 2765   1.209   0.458   5.896
  743SOL    HW2 2766   1.156   0.600   5.901
  744SOL     OW 2767   0.311   0.212   6.826
  744SOL    HW1 2768   0.268   0.248   6.903
  744SOL    HW2 2769   0.296   0.117   6.832
  745SOL     OW 2770   0.060   1.306   6.866
  745SOL    HW1 2771   0.091   1.263   6.947
  745SOL    HW2 2772   0.052   1.398   6.890
  746SOL     OW 2773   0.724   0.633   6.638
  746SOL    HW1 2774   0.799   0.619   6.580
  746SOL    HW2 2775   0.694   0.722   6.618
  747SOL     OW 2776   1.734   0.961   7.445
  747SOL    HW1 2777   1.689   0.899   7.388
  747SOL    HW2 2778   1.673   0.977   7.516
  748SOL     OW 2779   0.332   0.055   6.242
  748SOL    HW1 2780   0.302   0.146   6.243
  748SOL    HW2 2781   0.296   0.017   6.323
  749SOL     OW 2782   1.608   0.392   5.966
  749SOL    HW1 2783   1.565   0.324   6.018
  749SOL    HW2 2784   1.588   0.474   6.012
  750SOL     OW 2785   1.031   0.759   6.545
  750SOL    HW1 2786   1.022   0.776   6.638
  750SOL    HW2 2787   1.003   0.668   6.534
  751SOL     OW 2788   0.968   1.572   7.305
  751SOL    HW1 2789   0.958   1.609   7.218
  751SOL    HW2 2790   1.027   1.498   7.294
  752SOL     OW 2791   0.354   0.922   7.384
  752SOL    HW1 2792   0.432   0.942   7.436
  752SOL    HW2 2793   0.383   0.854   7.323
  753SOL     OW 2794   1.503   0.275   5.720
  753SOL    HW1 2795   1.430   0.214   5.732
  753SOL    HW2 2796   1.516   0.313   5.807
  754SOL     OW 2797   1.289   0.827   5.615
  754SOL    HW1 2798   1.331   0.741   5.619
  754SOL    HW2 2799   1.320   0.866   5.534
  755SOL     OW 2800   1.064   1.333   6.428
  755SOL    HW1 2801   1.056   1.255   6.375
  755SOL    HW2 2802   1.151   1.367   6.409
  756SOL     OW 2803   0.313   0.802   6.536
  756SOL    HW1 2804   0.407   0.818   6.530
  756SOL    HW2 2805   0.306   0.712   6.568
  757SOL     OW 2806   0.339   0.529   6.601
  757SOL    HW1 2807   0.297   0.444   6.584
  757SOL    HW2 2808   0.414   0.531   6.542
  758SOL     OW 2809   1.133   0.379   7.285
  758SOL    HW1 2810   1.085   0.435   7.346
  758SOL    HW2 2811   1.220   0.420   7.279
  759SOL     OW 2812   1.151   0.225   7.068
  759SOL    HW1 2813   1.142   0.280   7.146
  759SOL    HW2 2814   1.178   0.287   7.000
  760SOL     OW 2815   0.001   1.316   5.769
  760SOL    HW1 2816   3.907   1.333   5.772
  760SOL    HW2 2817   0.010   1.222   5.787
  761SOL     OW 2818   0.078   1.800   6.474
  761SOL    HW1 2819   0.085   1.704   6.476
  761SOL    HW2 2820   0.169   1.831   6.479
  762SOL     OW 2821   0.499   1.571   6.496
  762SOL    HW1 2822   0.568   1.633   6.522
  762SOL    HW2 2823   0.542   1.509   6.438
  763SOL     OW 2824   0.976   0.789   6.809
  763SOL    HW1 2825   1.034   0.770   6.883
  763SOL    HW2 2826   0.892   0.750   6.834
  764SOL     OW 2827   0.035   0.576   6.698
  764SOL    HW1 2828   0.094   0.521   6.647
  764SOL    HW2 2829   0.061   0.562   6.789
  765SOL     OW 2830   0.211   0.516   7.308
  765SOL    HW1 2831   0.257   0.475   7.234
  765SOL    HW2 2832   0.165   0.591   7.270
  766SOL     OW 2833   1.373   0.924   7.241
  766SOL    HW1 2834   1.394   1.018   7.240
  766SOL    HW2 2835   1.374   0.898   7.149
  767SOL     OW 2836   0.819   0.572   5.949
  767SOL    HW1 2837   0.825   0.496   5.891
  767SOL    HW2 2838   0.744   0.621   5.915
  768SOL     OW 2839   1.639   0.600   6.766
  768SOL    HW1 2840   1.630   0.542   6.841
  768SOL    HW2 2841   1.727   0.584   6.733
  769SOL     OW 2842   0.299   1.543   7.309
  769SOL    HW1 2843   0.252   1.613   7.355
  769SOL    HW2 2844   0.270   1.462   7.351
  770SOL     OW 2845   0.712   0.453   6.840
  770SOL    HW1 2846   0.661   0.375   6.816
  770SOL    HW2 2847   0.701   0.512   6.767
  771SOL     OW 2848   0.916   1.681   7.056
  771SOL    HW1 2849   0.900   1.640   6.971
  771SOL    HW2 2850   0.911   1.775   7.039
  772SOL     OW 2851   0.452   0.492   5.785
  772SOL    HW1 2852   0.517   0.561   5.801
  772SOL    HW2 2853   0.373   0.539   5.760
  773SOL     OW 2854   0.155   1.134   7.061
  773SOL    HW1 2855   0.156   1.084   7.142
  773SOL    HW2 2856   0.170   1.069   6.992
  774SOL     OW 2857   1.319   1.041   6.807
  774SOL    HW1 2858   1.346   0.981   6.738
  774SOL    HW2 2859   1.250   1.094   6.766
  775SOL     OW 2860   1.314   0.860   5.892
  775SOL    HW1 2861   1.240   0.826   5.943
  775SOL    HW2 2862   1.288   0.845   5.800
  776SOL     OW 2863   1.183   1.683   6.730
  776SOL    HW1 2864   1.258   1.716   6.681
  776SOL    HW2 2865   1.206   1.592   6.750
  777SOL     OW 2866   0.078   1.216   6.613
  777SOL    HW1 2867   0.084   1.242   6.706
  777SOL    HW2 2868   3.985   1.227   6.591
  778SOL     OW 2869   0.678   1.668   7.325
  778SOL    HW1 2870   0.622   1.743   7.309
  778SOL    HW2 2871   0.750   1.678   7.262
  779SOL     OW 2872   1.715   0.124   6.075
  779SOL    HW1 2873   1.793   0.134   6.020
  779SOL    HW2 2874   1.706   0.029   6.085
  780SOL     OW 2875   0.175   1.762   7.417
  780SOL    HW1 2876   0.119   1.710   7.474
  780SOL    HW2 2877   0.215   1.827   7.474
  781SOL     OW 2878   1.277   0.929   6.253
  781SOL    HW1 2879   1.350   0.869   6.269
  781SOL    HW2 2880   1.315   1.001   6.203
  782SOL     OW 2881   0.801   1.270   7.017
  782SOL    HW1 2882   0.775   1.313   7.098
  782SOL    HW2 2883   0.730   1.288   6.955
  783SOL     OW 2884   0.670   1.623   5.741
  783SOL    HW1 2885   0.681   1.635   5.647
  783SOL    HW2 2886   0.614   1.545   5.748
  784SOL     OW 2887   1.634   1.726   6.935
  784SOL    HW1 2888   1.728   1.720   6.949
  784SOL    HW2 2889   1.612   1.816   6.961
  785SOL     OW 2890   1.839   0.178   6.552
  785SOL    HW1 2891   1.872   0.113   6.490
  785SOL    HW2 2892   1.750   0.197   6.522
  786SOL     OW 2893   0.275   0.322   6.300
  786SOL    HW1 2894   0.190   0.357   6.274
  786SOL    HW2 2895   0.267   0.307   6.394
  787SOL     OW 2896   1.205   1.606   5.621
  787SOL    HW1 2897   1.196   1.514   5.645
  787SOL    HW2 2898   1.141   1.619   5.551
  788SOL     OW 2899   0.823   1.004   6.960
  788SOL    HW1 2900   0.869   0.999   6.876
  788SOL    HW2 2901   0.819   1.097   6.981
  789SOL     OW 2902   0.917   0.912   5.877
  789SOL    HW1 2903   0.977   0.944   5.811
  789SOL    HW2 2904   0.965   0.842   5.923
  790SOL     OW 2905   1.488   1.621   5.629
  790SOL    HW1 2906   1.394   1.618   5.614
  790SOL    HW2 2907   1.526   1.630   5.542
  791SOL     OW 2908   0.374   1.302   7.078
  791SOL    HW1 2909   0.359   1.383   7.028
  791SOL    HW2 2910   0.297   1.248   7.060
  792SOL     OW 2911   1.619   1.256   6.891
  792SOL    HW1 2912   1.697   1.288   6.937
  792SOL    HW2 2913   1.565   1.334   6.878
  793SOL     OW 2914   1.055   1.103   6.294
  793SOL    HW1 2915   0.984   1.051   6.332
  793SOL    HW2 2916   1.120   1.039   6.267
  794SOL     OW 2917   1.014   0.250   6.556
  794SOL    HW1 2918   1.005   0.199   6.476
  794SOL    HW2 2919   1.011   0.184   6.626
  795SOL     OW 2920   0.607   1.490   6.069
  795SOL    HW1 2921   0.653   1.439   6.002
  795SOL    HW2 2922   0.530   1.525   6.024
  796SOL     OW 2923   1.721   0.394   6.958
  796SOL    HW1 2924   1.793   0.456   6.962
  796SOL    HW2 2925   1.754   0.322   6.903
  797SOL     OW 2926   0.254   1.341   5.881
  797SOL    HW1 2927   0.161   1.347   5.862
  797SOL    HW2 2928   0.264   1.381   5.967
  798SOL     OW 2929   0.109   0.999   7.304
  798SOL    HW1 2930   0.049   0.991   7.379
  798SOL    HW2 2931   0.195   0.981   7.341
  799SOL     OW 2932   0.694   0.255   7.088
  799SOL    HW1 2933   0.762   0.202   7.047
  799SOL    HW2 2934   0.723   0.264   7.179
  800SOL     OW 2935   0.088   0.320   5.612
  800SOL    HW1 2936   3.993   0.318   5.604
  800SOL    HW2 2937   0.114   0.402   5.571
  801SOL     OW 2938   1.426   0.853   6.981
  801SOL    HW1 2939   1.378   0.918   6.929
  801SOL    HW2 2940   1.516   0.860   6.952
  802SOL     OW 2941   0.036   0.171   5.870
  802SOL    HW1 2942   0.037   0.229   5.794
  802SOL    HW2 2943   0.112   0.198   5.922
  803SOL     OW 2944   1.177   1.336   5.703
  803SOL    HW1 2945   1.086   1.307   5.702
  803SOL    HW2 2946   1.203   1.335   5.795
  804SOL     OW 2947   0.621   0.828   7.023
  804SOL    HW1 2948   0.678   0.903   7.007
  804SOL    HW2 2949   0.681   0.754   7.031
  805SOL     OW 2950   0.717   0.562   7.293
  805SOL    HW1 2951   0.762   0.624   7.350
  805SOL    HW2 2952   0.743   0.476   7.325
  806SOL     OW 2953   1.456   1.185   7.207
  806SOL    HW1 2954   1.439   1.194   7.301
  806SOL    HW2 2955   1.537   1.233   7.193
  807SOL     OW 2956   0.377   1.744   7.144
  807SOL    HW1 2957   0.290   1.782   7.131
  807SOL    HW2 2958   0.362   1.661   7.189
  808SOL     OW 2959   1.666   0.880   6.840
  808SOL    HW1 2960   1.662   0.795   6.795
  808SOL    HW2 2961   1.655   0.945   6.770
  809SOL     OW 2962   1.223   0.337   6.027
  809SOL    HW1 2963   1.291   0.270   6.020
  809SOL    HW2 2964   1.242   0.381   6.110
  810SOL     OW 2965   0.590   0.738   6.258
  810SOL    HW1 2966   0.627   0.824   6.241
  810SOL    HW2 2967   0.523   0.727   6.190
  811SOL     OW 2968   1.751   0.382   7.229
  811SOL    HW1 2969   1.733   0.389   7.135
  811SOL    HW2 2970   1.692   0.313   7.259
  812SOL     OW 2971   1.742   0.933   7.096
  812SOL    HW1 2972   1.787   1.018   7.102
  812SOL    HW2 2973   1.726   0.921   7.003
  813SOL     OW 2974   0.865   1.366   5.626
  813SOL    HW1 2975   0.824   1.397   5.707
  813SOL    HW2 2976   0.881   1.445   5.575
  814SOL     OW 2977   0.662   1.788   6.525
  814SOL    HW1 2978   0.641   1.879   6.506
  814SOL    HW2 2979   0.757   1.782   6.515
  815SOL     OW 2980   0.868   0.967   6.440
  815SOL    HW1 2981   0.918   0.895   6.479
  815SOL    HW2 2982   0.830   1.013   6.516
  816SOL     OW 2983   1.078   0.990   5.676
  816SOL    HW1 2984   1.056   1.040   5.597
  816SOL    HW2 2985   1.152   0.935   5.649
  817SOL     OW 2986   0.226   1.304   7.442
  817SOL    HW1 2987   0.154   1.248   7.415
  817SOL    HW2 2988   0.212   1.317   7.536
  818SOL     OW 2989   0.125   1.282   6.309
  818SOL    HW1 2990   0.138   1.230   6.388
  818SOL    HW2 2991   0.107   1.218   6.240
  819SOL     OW 2992   0.679   1.407   7.216
  819SOL    HW1 2993   0.600   1.364   7.248
  819SOL    HW2 2994   0.677   1.494   7.255
  820SOL     OW 2995   1.811   0.183   6.824
  820SOL    HW1 2996   1.814   0.088   6.839
  820SOL    HW2 2997   1.826   0.192   6.730
  821SOL     OW 2998   0.445   0.438   6.118
  821SOL    HW1 2999   0.464   0.362   6.062
  821SOL    HW2 3000   0.390   0.403   6.187
  822SOL     OW 3001   0.334   0.558   6.879
  822SOL    HW1 3002   0.390   0.502   6.933
  822SOL    HW2 3003   0.349   0.529   6.789
  823SOL     OW 3004   0.834   1.575   6.259
  823SOL    HW1 3005   0.815   1.642   6.194
  823SOL    HW2 3006   0.757   1.518   6.259
  824SOL     OW 3007   1.460   0.255   6.696
  824SOL    HW1 3008   1.478   0.168   6.732
  824SOL    HW2 3009   1.405   0.297   6.762
  825SOL     OW 3010   1.003   0.027   6.732
  825SOL    HW1 3011   0.922   3.993   6.694
  825SOL    HW2 3012   1.059   3.951   6.741
  826SOL     OW 3013   0.771   1.333   5.907
  826SOL    HW1 3014   0.741   1.242   5.911
  826SOL    HW2 3015   0.856   1.332   5.952
  827SOL     OW 3016   0.621   1.556   6.872
  827SOL    HW1 3017   0.621   1.639   6.920
  827SOL    HW2 3018   0.709   1.549   6.836
  828SOL     OW 3019   1.309   0.074   5.751
  828SOL    HW1 3020   1.322   3.992   5.703
  828SOL    HW2 3021   1.224   0.064   5.793
  829SOL     OW 3022   1.281   0.457   6.271
  829SOL    HW1 3023   1.234   0.540   6.265
  829SOL    HW2 3024   1.284   0.437   6.364
  830SOL     OW 3025   1.587   0.210   6.454
  830SOL    HW1 3026   1.539   0.235   6.532
  830SOL    HW2 3027   1.588   0.289   6.400
  831SOL     OW 3028   0.047   1.047   5.828
  831SOL    HW1 3029   0.141   1.032   5.820
  831SOL    HW2 3030   0.011   0.962   5.852
  832SOL     OW 3031   0.887   1.657   5.924
  832SOL    HW1 3032   0.813   1.639   5.866
  832SOL    HW2 3033   0.857   1.728   5.980
  833SOL     OW 3034   0.232   0.629   7.564
  833SOL    HW1 3035   0.139   0.633   7.585
  833SOL    HW2 3036   0.235   0.599   7.473
  834SOL     OW 3037   0.224   0.290   8.430
  834SOL    HW1 3038   0.246   0.250   8.514
  834SOL    HW2 3039   0.129   0.280   8.424
  835SOL     OW 3040   0.019   0.385   8.084
  835SOL    HW1 3041   3.928   0.399   8.110
  835SOL    HW2 3042   0.025   0.290   8.070
  836SOL     OW 3043   0.582   1.291   8.642
  836SOL    HW1 3044   0.496   1.292   8.600
  836SOL    HW2 3045   0.595   1.380   8.673
  837SOL     OW 3046   1.559   1.515   8.166
  837SOL    HW1 3047   1.536   1.491   8.256
  837SOL    HW2 3048   1.475   1.528   8.122
  838SOL     OW 3049   1.133   0.699   8.144
  838SOL    HW1 3050   1.181   0.781   8.132
  838SOL    HW2 3051   1.085   0.710   8.226
  839SOL     OW 3052   1.772   0.613   7.669
  839SOL    HW1 3053   1.747   0.610   7.577
  839SOL    HW2 3054   1.753   0.526   7.702
  840SOL     OW 3055   0.752   1.139   8.492
  840SOL    HW1 3056   0.689   1.175   8.554
  840SOL    HW2 3057   0.788   1.215   8.446
  841SOL     OW 3058   0.873   0.768   9.272
  841SOL    HW1 3059   0.861   0.840   9.335
  841SOL    HW2 3060   0.894   0.812   9.190
  842SOL     OW 3061   0.685   1.002   8.093
  842SOL    HW1 3062   0.751   0.991   8.162
  842SOL    HW2 3063   0.616   1.053   8.135
  843SOL     OW 3064   0.712   1.149   9.265
  843SOL    HW1 3065   0.760   1.226   9.294
  843SOL    HW2 3066   0.631   1.183   9.227
  844SOL     OW 3067   0.351   1.400   8.527
  844SOL    HW1 3068   0.270   1.379   8.480
  844SOL    HW2 3069   0.398   1.458   8.467
  845SOL     OW 3070   1.460   1.502   8.806
  845SOL    HW1 3071   1.514   1.580   8.815
  845SOL    HW2 3072   1.394   1.510   8.875
  846SOL     OW 3073   0.458   0.408   8.943
  846SOL    HW1 3074   0.540   0.359   8.942
  846SOL    HW2 3075   0.390   0.341   8.946
  847SOL     OW 3076   1.612   0.451   8.183
  847SOL    HW1 3077   1.543   0.482   8.124
  847SOL    HW2 3078   1.628   0.524   8.242
  848SOL     OW 3079   0.220   1.719   7.905
  848SOL    HW1 3080   0.240   1.793   7.962
  848SOL    HW2 3081   0.296   1.711   7.848
  849SOL     OW 3082   1.137   1.342   9.142
  849SOL    HW1 3083   1.178   1.336   9.228
  849SOL    HW2 3084   1.085   1.262   9.134
  850SOL     OW 3085   0.251   1.451   7.988
  850SOL    HW1 3086   0.215   1.539   7.973
  850SOL    HW2 3087   0.183   1.406   8.039
  851SOL     OW 3088   0.248   1.065   8.332
  851SOL    HW1 3089   0.267   0.980   8.370
  851SOL    HW2 3090   0.195   1.110   8.398
  852SOL     OW 3091   0.610   1.793   8.874
  852SOL    HW1 3092   0.527   1.775   8.919
  852SOL    HW2 3093   0.633   1.882   8.901
  853SOL     OW 3094   0.575   0.986   7.587
  853SOL    HW1 3095   0.625   1.030   7.518
  853SOL    HW2 3096   0.617   1.016   7.668
  854SOL     OW 3097   1.582   0.141   8.904
  854SOL    HW1 3098   1.612   0.213   8.849
  854SOL    HW2 3099   1.547   0.183   8.982
  855SOL     OW 3100   0.141   0.652   8.017
  855SOL    HW1 3101   0.099   0.566   8.022
  855SOL    HW2 3102   0.102   0.702   8.090
  856SOL     OW 3103   0.044   1.589   7.585
  856SOL    HW1 3104   0.037   1.497   7.612
  856SOL    HW2 3105   3.960   1.627   7.611
  857SOL     OW 3106   1.688   0.918   8.093
  857SOL    HW1 3107   1.769   0.874   8.066
  857SOL    HW2 3108   1.663   0.971   8.017
  858SOL     OW 3109   1.637   1.102   7.884
  858SOL    HW1 3110   1.723   1.098   7.841
  858SOL    HW2 3111   1.648   1.168   7.953
  859SOL     OW 3112   0.142   0.756   9.036
  859SOL    HW1 3113   0.238   0.752   9.031
  859SOL    HW2 3114   0.124   0.843   9.071
  860SOL     OW 3115   0.613   1.387   8.185
  860SOL    HW1 3116   0.567   1.303   8.194
  860SOL    HW2 3117   0.597   1.414   8.095
  861SOL     OW 3118   1.287   1.237   8.870
  861SOL    HW1 3119   1.318   1.169   8.810
  861SOL    HW2 3120   1.345   1.232   8.945
  862SOL     OW 3121   0.821   0.005   7.965
  862SOL    HW1 3122   0.866   0.085   7.940
  862SOL    HW2 3123   0.728   0.028   7.964
  863SOL     OW 3124   0.184   0.949   8.727
  863SOL    HW1 3125   0.272   0.914   8.715
  863SOL    HW2 3126   0.132   0.908   8.658
  864SOL     OW 3127   1.533   0.996   7.646
  864SOL    HW1 3128   1.463   0.941   7.681
  864SOL    HW2 3129   1.572   1.037   7.723
  865SOL     OW 3130   1.184   1.810   9.073
  865SOL    HW1 3131   1.192   1.871   8.999
  865SOL    HW2 3132   1.202   1.724   9.035
  866SOL     OW 3133   0.346   0.250   9.292
  866SOL    HW1 3134   0.388   0.333   9.272
  866SOL    HW2 3135   0.254   0.273   9.308
  867SOL     OW 3136   1.472   1.415   8.402
  867SOL    HW1 3137   1.402   1.433   8.465
  867SOL    HW2 3138   1.454   1.325   8.373
  868SOL     OW 3139   1.655   1.726   8.008
  868SOL    HW1 3140   1.676   1.670   7.933
  868SOL    HW2 3141   1.636   1.665   8.079
  869SOL     OW 3142   0.596   0.716   7.715
  869SOL    HW1 3143   0.601   0.800   7.670
  869SOL    HW2 3144   0.533   0.731   7.785
  870SOL     OW 3145   1.274   0.370   8.389
  870SOL    HW1 3146   1.187   0.331   8.396
  870SOL    HW2 3147   1.332   0.309   8.435
  871SOL     OW 3148   0.794   0.616   8.901
  871SOL    HW1 3149   0.765   0.589   8.988
  871SOL    HW2 3150   0.757   0.550   8.842
  872SOL     OW 3151   1.392   0.476   9.125
  872SOL    HW1 3152   1.399   0.521   9.209
  872SOL    HW2 3153   1.449   0.399   9.135
  873SOL     OW 3154   0.951   0.887   9.033
  873SOL    HW1 3155   1.006   0.818   8.996
  873SOL    HW2 3156   0.902   0.922   8.959
  874SOL     OW 3157   0.993   0.403   8.685
  874SOL    HW1 3158   0.907   0.422   8.722
  874SOL    HW2 3159   0.974   0.374   8.595
  875SOL     OW 3160   1.053   0.699   7.873
  875SOL    HW1 3161   1.070   0.692   7.967
  875SOL    HW2 3162   0.970   0.653   7.860
  876SOL     OW 3163   0.081   0.830   8.238
  876SOL    HW1 3164   0.153   0.795   8.292
  876SOL    HW2 3165   0.105   0.921   8.223
  877SOL     OW 3166   0.130   1.865   9.026
  877SOL    HW1 3167   0.138   1.829   9.115
  877SOL    HW2 3168   0.038   1.853   9.004
  878SOL     OW 3169   0.895   0.353   7.647
  878SOL    HW1 3170   0.937   0.413   7.585
  878SOL    HW2 3171   0.892   0.269   7.600
  879SOL     OW 3172   1.707   0.575   9.278
  879SOL    HW1 3173   1.670   0.649   9.229
  879SOL    HW2 3174   1.732   0.511   9.210
  880SOL     OW 3175   1.378   1.141   7.989
  880SOL    HW1 3176   1.458   1.127   7.938
  880SOL    HW2 3177   1.324   1.197   7.933
  881SOL     OW 3178   0.562   0.195   8.328
  881SOL    HW1 3179   0.566   0.220   8.421
  881SOL    HW2 3180   0.547   0.277   8.282
  882SOL     OW 3181   1.004   1.444   7.925
  882SOL    HW1 3182   0.961   1.514   7.876
  882SOL    HW2 3183   0.982   1.460   8.016
  883SOL     OW 3184   0.365   1.822   8.320
  883SOL    HW1 3185   0.427   1.750   8.329
  883SOL    HW2 3186   0.416   1.901   8.335
  884SOL     OW 3187   1.800   1.052   8.319
  884SOL    HW1 3188   1.748   1.033   8.242
  884SOL    HW2 3189   1.736   1.059   8.390
  885SOL     OW 3190   1.227   1.539   8.961
  885SOL    HW1 3191   1.215   1.467   9.022
  885SOL    HW2 3192   1.162   1.525   8.893
  886SOL     OW 3193   0.310   0.953   7.690
  886SOL    HW1 3194   0.394   0.975   7.648
  886SOL    HW2 3195   0.298   0.860   7.671
  887SOL     OW 3196   1.480   0.749   8.177
  887SOL    HW1 3197   1.476   0.708   8.263
  887SOL    HW2 3198   1.558   0.804   8.181
  888SOL     OW 3199   0.469   1.261   9.186
  888SOL    HW1 3200   0.443   1.269   9.094
  888SOL    HW2 3201   0.387   1.264   9.234
  889SOL     OW 3202   1.041   1.793   7.661
  889SOL    HW1 3203   0.986   1.748   7.726
  889SOL    HW2 3204   1.091   1.723   7.619
  890SOL     OW 3205   0.201   0.293   8.948
  890SOL    HW1 3206   0.107   0.313   8.948
  890SOL    HW2 3207   0.210   0.219   9.008
  891SOL     OW 3208   0.465   1.739   7.763
  891SOL    HW1 3209   0.508   1.795   7.827
  891SOL    HW2 3210   0.536   1.702   7.710
  892SOL     OW 3211   1.442   0.168   7.854
  892SOL    HW1 3212   1.394   0.101   7.806
  892SOL    HW2 3213   1.511   0.120   7.900
  893SOL     OW 3214   0.252   1.790   8.679
  893SOL    HW1 3215   0.298   1.724   8.731
  893SOL    HW2 3216   0.251   1.754   8.590
  894SOL     OW 3217   0.937   1.701   8.345
  894SOL    HW1 3218   1.011   1.647   8.373
  894SOL    HW2 3219   0.896   1.650   8.275
  895SOL     OW 3220   0.398   0.695   7.919
  895SOL    HW1 3221   0.423   0.604   7.934
  895SOL    HW2 3222   0.306   0.699   7.944
  896SOL     OW 3223   1.529   0.228   9.175
  896SOL    HW1 3224   1.523   0.253   9.267
  896SOL    HW2 3225   1.513   0.134   9.174
  897SOL     OW 3226   0.646   0.129   7.551
  897SOL    HW1 3227   0.667   0.044   7.591
  897SOL    HW2 3228   0.585   0.107   7.481
  898SOL     OW 3229   0.776   0.284   9.217
  898SOL    HW1 3230   0.852   0.226   9.218
  898SOL    HW2 3231   0.720   0.253   9.288
  899SOL     OW 3232   0.876   1.522   8.641
  899SOL    HW1 3233   0.859   1.483   8.555
  899SOL    HW2 3234   0.945   1.468   8.679
  900SOL     OW 3235   1.339   0.587   8.879
  900SOL    HW1 3236   1.370   0.558   8.965
  900SOL    HW2 3237   1.374   0.676   8.869
  901SOL     OW 3238   0.818   1.391   8.390
  901SOL    HW1 3239   0.903   1.380   8.347
  901SOL    HW2 3240   0.755   1.395   8.319
  902SOL     OW 3241   0.930   0.512   8.347
  902SOL    HW1 3242   0.906   0.504   8.255
  902SOL    HW2 3243   0.955   0.424   8.374
  903SOL     OW 3244   0.547   0.056   7.935
  903SOL    HW1 3245   0.473   0.063   7.996
  903SOL    HW2 3246   0.548   0.140   7.889
  904SOL     OW 3247   1.407   1.182   7.468
  904SOL    HW1 3248   1.453   1.129   7.533
  904SOL    HW2 3249   1.337   1.224   7.518
  905SOL     OW 3250   0.349   0.036   7.647
  905SOL    HW1 3251   0.358   0.087   7.567
  905SOL    HW2 3252   0.435   0.038   7.688
  906SOL     OW 3253   0.943   0.250   7.908
  906SOL    HW1 3254   0.917   0.290   7.825
  906SOL    HW2 3255   1.039   0.255   7.908
  907SOL     OW 3256   1.079   0.684   8.906
  907SOL    HW1 3257   1.010   0.618   8.912
  907SOL    HW2 3258   1.160   0.634   8.901
  908SOL     OW 3259   1.237   1.560   8.233
  908SOL    HW1 3260   1.238   1.635   8.173
  908SOL    HW2 3261   1.291   1.588   8.307
  909SOL     OW 3262   0.466   1.151   8.182
  909SOL    HW1 3263   0.395   1.126   8.242
  909SOL    HW2 3264   0.431   1.136   8.095
  910SOL     OW 3265   1.259   1.781   8.075
  910SOL    HW1 3266   1.297   1.815   7.995
  910SOL    HW2 3267   1.205   1.853   8.108
  911SOL     OW 3268   1.021   0.542   7.478
  911SOL    HW1 3269   0.978   0.625   7.458
  911SOL    HW2 3270   1.086   0.564   7.545
  912SOL     OW 3271   0.081   0.574   8.841
  912SOL    HW1 3272   0.170   0.556   8.811
  912SOL    HW2 3273   0.091   0.645   8.904
  913SOL     OW 3274   0.572   0.231   8.607
  913SOL    HW1 3275   0.593   0.138   8.615
  913SOL    HW2 3276   0.481   0.237   8.637
  914SOL     OW 3277   0.871   0.461   8.086
  914SOL    HW1 3278   0.821   0.514   8.024
  914SOL    HW2 3279   0.891   0.381   8.038
  915SOL     OW 3280   0.997   0.039   8.229
  915SOL    HW1 3281   0.959   0.069   8.146
  915SOL    HW2 3282   1.008   3.945   8.217
  916SOL     OW 3283   1.438   1.161   8.304
  916SOL    HW1 3284   1.368   1.096   8.303
  916SOL    HW2 3285   1.464   1.170   8.213
  917SOL     OW 3286   1.465   0.608   8.421
  917SOL    HW1 3287   1.409   0.530   8.426
  917SOL    HW2 3288   1.524   0.600   8.496
  918SOL     OW 3289   1.837   0.801   7.846
  918SOL    HW1 3290   1.898   0.749   7.899
  918SOL    HW2 3291   1.814   0.743   7.774
  919SOL     OW 3292   0.487   1.422   7.607
  919SOL    HW1 3293   0.411   1.391   7.656
  919SOL    HW2 3294   0.475   1.385   7.519
  920SOL     OW 3295   1.671   1.267   8.094
  920SOL    HW1 3296   1.766   1.265   8.105
  920SOL    HW2 3297   1.645   1.356   8.118
  921SOL     OW 3298   1.395   0.575   7.517
  921SOL    HW1 3299   1.333   0.556   7.586
  921SOL    HW2 3300   1.481   0.559   7.556
  922SOL     OW 3301   0.557   0.271   7.766
  922SOL    HW1 3302   0.605   0.231   7.693
  922SOL    HW2 3303   0.528   0.355   7.731
  923SOL     OW 3304   1.750   1.241   9.015
  923SOL    HW1 3305   1.837   1.202   9.010
  923SOL    HW2 3306   1.765   1.331   9.043
  924SOL     OW 3307   1.055   1.354   8.781
  924SOL    HW1 3308   0.980   1.322   8.831
  924SOL    HW2 3309   1.131   1.312   8.822
  925SOL     OW 3310   1.609   1.626   9.103
  925SOL    HW1 3311   1.603   1.663   9.015
  925SOL    HW2 3312   1.692   1.579   9.103
  926SOL     OW 3313   1.133   1.209   8.551
  926SOL    HW1 3314   1.073   1.245   8.616
  926SOL    HW2 3315   1.101   1.241   8.467
  927SOL     OW 3316   1.624   1.096   8.525
  927SOL    HW1 3317   1.618   1.158   8.597
  927SOL    HW2 3318   1.547   1.115   8.471
  928SOL     OW 3319   0.912   0.117   8.849
  928SOL    HW1 3320   0.932   0.089   8.760
  928SOL    HW2 3321   0.993   0.158   8.880
  929SOL     OW 3322   0.984   1.115   9.171
  929SOL    HW1 3323   0.893   1.132   9.194
  929SOL    HW2 3324   0.981   1.037   9.116
  930SOL     OW 3325   0.707   1.061   7.819
  930SOL    HW1 3326   0.693   1.043   7.912
  930SOL    HW2 3327   0.783   1.008   7.795
  931SOL     OW 3328   0.423   0.818   8.701
  931SOL    HW1 3329   0.491   0.824   8.768
  931SOL    HW2 3330   0.388   0.729   8.710
  932SOL     OW 3331   1.265   0.375   8.725
  932SOL    HW1 3332   1.299   0.453   8.769
  932SOL    HW2 3333   1.178   0.400   8.696
  933SOL     OW 3334   0.065   1.580   8.794
  933SOL    HW1 3335   0.071   1.632   8.714
  933SOL    HW2 3336   0.156   1.568   8.822
  934SOL     OW 3337   0.369   1.103   7.930
  934SOL    HW1 3338   0.365   1.182   7.876
  934SOL    HW2 3339   0.369   1.031   7.867
  935SOL     OW 3340   0.554   0.533   8.305
  935SOL    HW1 3341   0.567   0.592   8.231
  935SOL    HW2 3342   0.620   0.560   8.369
  936SOL     OW 3343   1.241   1.344   7.839
  936SOL    HW1 3344   1.296   1.417   7.868
  936SOL    HW2 3345   1.154   1.365   7.873
  937SOL     OW 3346   1.286   1.460   8.596
  937SOL    HW1 3347   1.342   1.464   8.673
  937SOL    HW2 3348   1.232   1.382   8.609
  938SOL     OW 3349   1.574   0.635   7.935
  938SOL    HW1 3350   1.530   0.689   8.000
  938SOL    HW2 3351   1.623   0.697   7.881
  939SOL     OW 3352   0.345   1.527   8.766
  939SOL    HW1 3353   0.336   1.477   8.685
  939SOL    HW2 3354   0.440   1.542   8.774
  940SOL     OW 3355   0.418   0.737   9.049
  940SOL    HW1 3356   0.481   0.782   8.993
  940SOL    HW2 3357   0.455   0.649   9.061
  941SOL     OW 3358   1.605   0.781   9.134
  941SOL    HW1 3359   1.519   0.822   9.127
  941SOL    HW2 3360   1.657   0.822   9.065
  942SOL     OW 3361   1.009   0.137   9.227
  942SOL    HW1 3362   1.065   0.207   9.193
  942SOL    HW2 3363   1.000   0.076   9.154
  943SOL     OW 3364   0.484   0.037   9.212
  943SOL    HW1 3365   0.490   0.048   9.117
  943SOL    HW2 3366   0.422   0.104   9.240
  944SOL     OW 3367   0.585   0.875   8.480
  944SOL    HW1 3368   0.617   0.965   8.483
  944SOL    HW2 3369   0.529   0.867   8.557
  945SOL     OW 3370   1.351   0.858   8.473
  945SOL    HW1 3371   1.267   0.845   8.431
  945SOL    HW2 3372   1.396   0.774   8.465
  946SOL     OW 3373   1.200   0.537   7.705
  946SOL    HW1 3374   1.209   0.458   7.759
  946SOL    HW2 3375   1.157   0.600   7.763
  947SOL     OW 3376   0.311   0.212   8.688
  947SOL    HW1 3377   0.268   0.248   8.765
  947SOL    HW2 3378   0.296   0.117   8.694
  948SOL     OW 3379   0.061   1.306   8.728
  948SOL    HW1 3380   0.091   1.263   8.809
  948SOL    HW2 3381   0.053   1.398   8.752
  949SOL     OW 3382   0.724   0.633   8.500
  949SOL    HW1 3383   0.799   0.619   8.442
  949SOL    HW2 3384   0.694   0.722   8.479
  950SOL     OW 3385   1.738   0.959   9.304
  950SOL    HW1 3386   1.693   0.895   9.250
  950SOL    HW2 3387   1.678   0.975   9.377
  951SOL     OW 3388   0.331   0.054   8.104
  951SOL    HW1 3389   0.302   0.146   8.105
  951SOL    HW2 3390   0.296   0.017   8.185
  952SOL     OW 3391   1.608   0.393   7.828
  952SOL    HW1 3392   1.564   0.325   7.880
  952SOL    HW2 3393   1.589   0.475   7.873
  953SOL     OW 3394   1.030   0.760   8.406
  953SOL    HW1 3395   1.022   0.776   8.500
  953SOL    HW2 3396   1.003   0.668   8.396
  954SOL     OW 3397   0.982   1.566   9.168
  954SOL    HW1 3398   0.966   1.610   9.084
  954SOL    HW2 3399   1.025   1.484   9.144
  955SOL     OW 3400   1.854   1.501   9.051
  955SOL    HW1 3401   1.871   1.533   8.963
  955SOL    HW2 3402   1.937   1.512   9.097
  956SOL     OW 3403   0.354   0.922   9.246
  956SOL    HW1 3404   0.431   0.942   9.298
  956SOL    HW2 3405   0.383   0.854   9.185
  957SOL     OW 3406   1.504   0.273   7.582
  957SOL    HW1 3407   1.430   0.213   7.594
  957SOL    HW2 3408   1.516   0.313   7.668
  958SOL     OW 3409   1.287   0.825   7.480
  958SOL    HW1 3410   1.330   0.740   7.482
  958SOL    HW2 3411   1.317   0.865   7.399
  959SOL     OW 3412   1.068   1.340   8.301
  959SOL    HW1 3413   1.071   1.266   8.241
  959SOL    HW2 3414   1.132   1.402   8.266
  960SOL     OW 3415   0.313   0.802   8.398
  960SOL    HW1 3416   0.407   0.818   8.392
  960SOL    HW2 3417   0.306   0.712   8.430
  961SOL     OW 3418   0.338   0.529   8.463
  961SOL    HW1 3419   0.297   0.444   8.446
  961SOL    HW2 3420   0.414   0.532   8.404
  962SOL     OW 3421   1.133   0.380   9.146
  962SOL    HW1 3422   1.085   0.435   9.208
  962SOL    HW2 3423   1.220   0.420   9.141
  963SOL     OW 3424   1.151   0.225   8.930
  963SOL    HW1 3425   1.142   0.280   9.008
  963SOL    HW2 3426   1.177   0.287   8.861
  964SOL     OW 3427   0.001   1.316   7.631
  964SOL    HW1 3428   3.907   1.333   7.634
  964SOL    HW2 3429   0.010   1.223   7.649
  965SOL     OW 3430   0.078   1.800   8.336
  965SOL    HW1 3431   0.085   1.704   8.338
  965SOL    HW2 3432   0.169   1.831   8.341
  966SOL     OW 3433   0.499   1.571   8.358
  966SOL    HW1 3434   0.568   1.632   8.384
  966SOL    HW2 3435   0.542   1.509   8.300
  967SOL     OW 3436   0.976   0.789   8.672
  967SOL    HW1 3437   1.033   0.769   8.746
  967SOL    HW2 3438   0.892   0.749   8.695
  968SOL     OW 3439   0.035   0.576   8.560
  968SOL    HW1 3440   0.094   0.522   8.509
  968SOL    HW2 3441   0.061   0.562   8.651
  969SOL     OW 3442   0.211   0.516   9.170
  969SOL    HW1 3443   0.257   0.475   9.096
  969SOL    HW2 3444   0.165   0.591   9.132
  970SOL     OW 3445   1.379   0.936   9.105
  970SOL    HW1 3446   1.401   1.029   9.101
  970SOL    HW2 3447   1.375   0.908   9.013
  971SOL     OW 3448   0.818   0.572   7.812
  971SOL    HW1 3449   0.825   0.496   7.754
  971SOL    HW2 3450   0.744   0.621   7.778
  972SOL     OW 3451   1.640   0.602   8.630
  972SOL    HW1 3452   1.630   0.541   8.704
  972SOL    HW2 3453   1.727   0.585   8.596
  973SOL     OW 3454   0.300   1.544   9.171
  973SOL    HW1 3455   0.253   1.613   9.218
  973SOL    HW2 3456   0.271   1.463   9.213
  974SOL     OW 3457   0.712   0.453   8.702
  974SOL    HW1 3458   0.661   0.375   8.678
  974SOL    HW2 3459   0.702   0.513   8.629
  975SOL     OW 3460   0.924   1.679   8.918
  975SOL    HW1 3461   0.899   1.641   8.834
  975SOL    HW2 3462   0.918   1.774   8.905
  976SOL     OW 3463   0.452   0.492   7.647
  976SOL    HW1 3464   0.517   0.561   7.663
  976SOL    HW2 3465   0.373   0.539   7.622
  977SOL     OW 3466   0.155   1.134   8.923
  977SOL    HW1 3467   0.156   1.084   9.004
  977SOL    HW2 3468   0.170   1.069   8.854
  978SOL     OW 3469   1.322   1.045   8.669
  978SOL    HW1 3470   1.344   0.981   8.601
  978SOL    HW2 3471   1.255   1.100   8.629
  979SOL     OW 3472   1.314   0.858   7.754
  979SOL    HW1 3473   1.238   0.826   7.803
  979SOL    HW2 3474   1.290   0.846   7.662
  980SOL     OW 3475   1.741   1.733   8.583
  980SOL    HW1 3476   1.817   1.755   8.530
  980SOL    HW2 3477   1.727   1.640   8.566
  981SOL     OW 3478   1.242   1.733   8.551
  981SOL    HW1 3479   1.326   1.756   8.512
  981SOL    HW2 3480   1.251   1.640   8.574
  982SOL     OW 3481   0.078   1.217   8.476
  982SOL    HW1 3482   0.084   1.243   8.568
  982SOL    HW2 3483   3.985   1.227   8.454
  983SOL     OW 3484   0.680   1.669   9.184
  983SOL    HW1 3485   0.620   1.743   9.175
  983SOL    HW2 3486   0.747   1.683   9.117
  984SOL     OW 3487   1.715   0.124   7.937
  984SOL    HW1 3488   1.793   0.134   7.882
  984SOL    HW2 3489   1.706   0.029   7.947
  985SOL     OW 3490   0.176   1.762   9.279
  985SOL    HW1 3491   0.119   1.711   9.336
  985SOL    HW2 3492   0.216   1.828   9.336
  986SOL     OW 3493   1.277   0.928   8.121
  986SOL    HW1 3494   1.351   0.868   8.131
  986SOL    HW2 3495   1.312   0.999   8.067
  987SOL     OW 3496   0.808   1.274   8.875
  987SOL    HW1 3497   0.780   1.316   8.956
  987SOL    HW2 3498   0.737   1.291   8.813
  988SOL     OW 3499   0.668   1.623   7.604
  988SOL    HW1 3500   0.681   1.636   7.510
  988SOL    HW2 3501   0.612   1.545   7.610
  989SOL     OW 3502   1.620   1.730   8.838
  989SOL    HW1 3503   1.664   1.734   8.753
  989SOL    HW2 3504   1.606   1.821   8.863
  990SOL     OW 3505   1.839   0.178   8.414
  990SOL    HW1 3506   1.872   0.113   8.352
  990SOL    HW2 3507   1.750   0.197   8.384
  991SOL     OW 3508   0.275   0.322   8.162
  991SOL    HW1 3509   0.190   0.357   8.136
  991SOL    HW2 3510   0.267   0.307   8.256
  992SOL     OW 3511   0.823   1.005   8.822
  992SOL    HW1 3512   0.867   0.999   8.737
  992SOL    HW2 3513   0.821   1.099   8.842
  993SOL     OW 3514   0.915   0.911   7.741
  993SOL    HW1 3515   0.974   0.942   7.672
  993SOL    HW2 3516   0.965   0.842   7.786
  994SOL     OW 3517   0.374   1.303   8.940
  994SOL    HW1 3518   0.359   1.383   8.890
  994SOL    HW2 3519   0.297   1.248   8.922
  995SOL     OW 3520   1.608   1.281   8.730
  995SOL    HW1 3521   1.668   1.268   8.804
  995SOL    HW2 3522   1.548   1.350   8.760
  996SOL     OW 3523   1.058   1.110   8.158
  996SOL    HW1 3524   0.985   1.059   8.195
  996SOL    HW2 3525   1.121   1.045   8.129
  997SOL     OW 3526   1.014   0.250   8.418
  997SOL    HW1 3527   1.005   0.199   8.338
  997SOL    HW2 3528   1.011   0.184   8.488
  998SOL     OW 3529   0.604   1.487   7.931
  998SOL    HW1 3530   0.653   1.438   7.865
  998SOL    HW2 3531   0.529   1.523   7.884
  999SOL     OW 3532   1.721   0.394   8.819
  999SOL    HW1 3533   1.794   0.456   8.824
  999SOL    HW2 3534   1.754   0.322   8.766
 1000SOL     OW 3535   0.254   1.341   7.742
 1000SOL    HW1 3536   0.161   1.347   7.723
 1000SOL    HW2 3537   0.264   1.380   7.828
 1001SOL     OW 3538   0.108   0.999   9.166
 1001SOL    HW1 3539   0.049   0.991   9.240
 1001SOL    HW2 3540   0.195   0.981   9.202
 1002SOL     OW 3541   0.694   0.256   8.950
 1002SOL    HW1 3542   0.762   0.202   8.909
 1002SOL    HW2 3543   0.723   0.264   9.041
 1003SOL     OW 3544   0.088   0.320   7.474
 1003SOL    HW1 3545   3.993   0.318   7.466
 1003SOL    HW2 3546   0.114   0.402   7.433
 1004SOL     OW 3547   1.426   0.856   8.846
 1004SOL    HW1 3548   1.377   0.918   8.791
 1004SOL    HW2 3549   1.515   0.859   8.811
 1005SOL     OW 3550   0.036   0.170   7.732
 1005SOL    HW1 3551   0.037   0.228   7.656
 1005SOL    HW2 3552   0.112   0.198   7.784
 1006SOL     OW 3553   1.188   1.331   7.565
 1006SOL    HW1 3554   1.094   1.313   7.559
 1006SOL    HW2 3555   1.207   1.330   7.659
 1007SOL     OW 3556   0.621   0.828   8.885
 1007SOL    HW1 3557   0.678   0.904   8.869
 1007SOL    HW2 3558   0.681   0.754   8.893
 1008SOL     OW 3559   1.489   1.786   8.432
 1008SOL    HW1 3560   1.509   1.856   8.370
 1008SOL    HW2 3561   1.573   1.768   8.476
 1009SOL     OW 3562   0.718   0.561   9.154
 1009SOL    HW1 3563   0.763   0.622   9.212
 1009SOL    HW2 3564   0.743   0.475   9.187
 1010SOL     OW 3565   1.473   1.196   9.078
 1010SOL    HW1 3566   1.461   1.211   9.172
 1010SOL    HW2 3567   1.566   1.214   9.063
 1011SOL     OW 3568   0.378   1.744   9.004
 1011SOL    HW1 3569   0.291   1.781   8.992
 1011SOL    HW2 3570   0.362   1.661   9.050
 1012SOL     OW 3571   1.666   0.880   8.704
 1012SOL    HW1 3572   1.662   0.795   8.661
 1012SOL    HW2 3573   1.656   0.943   8.632
 1013SOL     OW 3574   1.222   0.337   7.890
 1013SOL    HW1 3575   1.290   0.270   7.883
 1013SOL    HW2 3576   1.241   0.381   7.973
 1014SOL     OW 3577   0.589   0.738   8.120
 1014SOL    HW1 3578   0.627   0.824   8.104
 1014SOL    HW2 3579   0.523   0.728   8.052
 1015SOL     OW 3580   1.750   0.384   9.091
 1015SOL    HW1 3581   1.732   0.390   8.997
 1015SOL    HW2 3582   1.693   0.313   9.122
 1016SOL     OW 3583   1.747   0.934   8.960
 1016SOL    HW1 3584   1.738   1.028   8.972
 1016SOL    HW2 3585   1.730   0.920   8.867
 1017SOL     OW 3586   0.861   1.367   7.485
 1017SOL    HW1 3587   0.823   1.400   7.567
 1017SOL    HW2 3588   0.879   1.446   7.434
 1018SOL     OW 3589   0.663   1.787   8.389
 1018SOL    HW1 3590   0.643   1.878   8.368
 1018SOL    HW2 3591   0.758   1.781   8.381
 1019SOL     OW 3592   0.869   0.969   8.301
 1019SOL    HW1 3593   0.919   0.897   8.339
 1019SOL    HW2 3594   0.832   1.014   8.377
 1020SOL     OW 3595   1.072   0.984   7.535
 1020SOL    HW1 3596   1.057   1.042   7.460
 1020SOL    HW2 3597   1.150   0.934   7.512
 1021SOL     OW 3598   1.846   1.546   8.291
 1021SOL    HW1 3599   1.765   1.541   8.240
 1021SOL    HW2 3600   1.837   1.479   8.358
 1022SOL     OW 3601   0.227   1.304   9.304
 1022SOL    HW1 3602   0.154   1.249   9.277
 1022SOL    HW2 3603   0.213   1.317   9.398
 1023SOL     OW 3604   0.122   1.281   8.171
 1023SOL    HW1 3605   0.138   1.229   8.249
 1023SOL    HW2 3606   0.105   1.217   8.102
 1024SOL     OW 3607   0.682   1.406   9.078
 1024SOL    HW1 3608   0.603   1.363   9.109
 1024SOL    HW2 3609   0.678   1.494   9.115
 1025SOL     OW 3610   1.811   0.183   8.686
 1025SOL    HW1 3611   1.814   0.089   8.702
 1025SOL    HW2 3612   1.826   0.192   8.592
 1026SOL     OW 3613   0.445   0.438   7.980
 1026SOL    HW1 3614   0.465   0.362   7.924
 1026SOL    HW2 3615   0.389   0.403   8.049
 1027SOL     OW 3616   1.702   1.471   8.539
 1027SOL    HW1 3617   1.620   1.454   8.494
 1027SOL    HW2 3618   1.707   1.404   8.607
 1028SOL     OW 3619   0.334   0.558   8.741
 1028SOL    HW1 3620   0.390   0.502   8.794
 1028SOL    HW2 3621   0.349   0.529   8.651
 1029SOL     OW 3622   0.829   1.577   8.125
 1029SOL    HW1 3623   0.816   1.637   8.051
 1029SOL    HW2 3624   0.753   1.519   8.123
 1030SOL     OW 3625   1.460   0.255   8.558
 1030SOL    HW1 3626   1.478   0.167   8.594
 1030SOL    HW2 3627   1.405   0.297   8.624
 1031SOL     OW 3628   1.003   0.027   8.594
 1031SOL    HW1 3629   0.921   3.994   8.556
 1031SOL    HW2 3630   1.059   3.950   8.602
 1032SOL     OW 3631   0.770   1.332   7.770
 1032SOL    HW1 3632   0.740   1.241   7.773
 1032SOL    HW2 3633   0.855   1.331   7.814
 1033SOL     OW 3634   0.621   1.557   8.734
 1033SOL    HW1 3635   0.622   1.639   8.783
 1033SOL    HW2 3636   0.709   1.550   8.697
 1034SOL     OW 3637   1.310   0.073   7.615
 1034SOL    HW1 3638   1.319   3.992   7.564
 1034SOL    HW2 3639   1.225   0.065   7.658
 1035SOL     OW 3640   1.281   0.457   8.133
 1035SOL    HW1 3641   1.234   0.540   8.127
 1035SOL    HW2 3642   1.283   0.437   8.226
 1036SOL     OW 3643   1.588   0.210   8.316
 1036SOL    HW1 3644   1.539   0.235   8.394
 1036SOL    HW2 3645   1.588   0.289   8.262
 1037SOL     OW 3646   0.048   1.048   7.689
 1037SOL    HW1 3647   0.142   1.032   7.680
 1037SOL    HW2 3648   0.012   0.963   7.717
 1038SOL     OW 3649   0.865   1.645   7.806
 1038SOL    HW1 3650   0.795   1.632   7.742
 1038SOL    HW2 3651   0.837   1.723   7.855
 1039SOL     OW 3652   0.232   0.629   9.426
 1039SOL    HW1 3653   0.139   0.633   9.448
 1039SOL    HW2 3654   0.235   0.599   9.335
 1040SOL     OW 3655   0.224   0.290  10.292
 1040SOL    HW1 3656   0.246   0.250  10.377
 1040SOL    HW2 3657   0.129   0.280  10.286
 1041SOL     OW 3658   0.019   0.385   9.946
 1041SOL    HW1 3659   3.928   0.399   9.972
 1041SOL    HW2 3660   0.025   0.290   9.932
 1042SOL     OW 3661   0.582   1.291  10.503
 1042SOL    HW1 3662   0.495   1.292  10.462
 1042SOL    HW2 3663   0.595   1.380  10.535
 1043SOL     OW 3664   1.569   1.514  10.019
 1043SOL    HW1 3665   1.526   1.494  10.102
 1043SOL    HW2 3666   1.497   1.519   9.956
 1044SOL     OW 3667   1.133   0.698  10.006
 1044SOL    HW1 3668   1.180   0.781   9.994
 1044SOL    HW2 3669   1.085   0.710  10.088
 1045SOL     OW 3670   1.769   0.619   9.534
 1045SOL    HW1 3671   1.746   0.612   9.441
 1045SOL    HW2 3672   1.752   0.532   9.570
 1046SOL     OW 3673   0.752   1.138  10.353
 1046SOL    HW1 3674   0.689   1.175  10.416
 1046SOL    HW2 3675   0.788   1.215  10.308
 1047SOL     OW 3676   0.872   0.768  11.134
 1047SOL    HW1 3677   0.861   0.840  11.197
 1047SOL    HW2 3678   0.894   0.812  11.052
 1048SOL     OW 3679   0.685   1.002   9.955
 1048SOL    HW1 3680   0.751   0.991  10.023
 1048SOL    HW2 3681   0.616   1.053   9.997
 1049SOL     OW 3682   0.712   1.149  11.127
 1049SOL    HW1 3683   0.760   1.226  11.156
 1049SOL    HW2 3684   0.631   1.183  11.089
 1050SOL     OW 3685   0.351   1.400  10.389
 1050SOL    HW1 3686   0.270   1.379  10.343
 1050SOL    HW2 3687   0.398   1.458  10.329
 1051SOL     OW 3688   1.460   1.502  10.668
 1051SOL    HW1 3689   1.514   1.581  10.677
 1051SOL    HW2 3690   1.394   1.510  10.737
 1052SOL     OW 3691   0.458   0.408  10.804
 1052SOL    HW1 3692   0.540   0.359  10.804
 1052SOL    HW2 3693   0.390   0.341  10.808
 1053SOL     OW 3694   1.612   0.451  10.045
 1053SOL    HW1 3695   1.543   0.482   9.986
 1053SOL    HW2 3696   1.627   0.524  10.105
 1054SOL     OW 3697   0.220   1.719   9.767
 1054SOL    HW1 3698   0.240   1.793   9.824
 1054SOL    HW2 3699   0.297   1.711   9.710
 1055SOL     OW 3700   1.137   1.342  11.004
 1055SOL    HW1 3701   1.179   1.336  11.090
 1055SOL    HW2 3702   1.085   1.262  10.996
 1056SOL     OW 3703   0.251   1.451   9.849
 1056SOL    HW1 3704   0.215   1.539   9.835
 1056SOL    HW2 3705   0.184   1.406   9.901
 1057SOL     OW 3706   0.248   1.065  10.194
 1057SOL    HW1 3707   0.268   0.980  10.233
 1057SOL    HW2 3708   0.195   1.110  10.260
 1058SOL     OW 3709   0.609   1.793  10.736
 1058SOL    HW1 3710   0.527   1.775  10.781
 1058SOL    HW2 3711   0.632   1.882  10.763
 1059SOL     OW 3712   0.576   0.986   9.449
 1059SOL    HW1 3713   0.625   1.030   9.380
 1059SOL    HW2 3714   0.617   1.016   9.530
 1060SOL     OW 3715   1.582   0.141  10.765
 1060SOL    HW1 3716   1.613   0.213  10.711
 1060SOL    HW2 3717   1.547   0.183  10.844
 1061SOL     OW 3718   0.141   0.652   9.879
 1061SOL    HW1 3719   0.099   0.567   9.884
 1061SOL    HW2 3720   0.103   0.702   9.952
 1062SOL     OW 3721   0.044   1.589   9.448
 1062SOL    HW1 3722   0.038   1.497   9.474
 1062SOL    HW2 3723   3.960   1.627   9.473
 1063SOL     OW 3724   1.687   0.917   9.953
 1063SOL    HW1 3725   1.771   0.876   9.933
 1063SOL    HW2 3726   1.667   0.969   9.875
 1064SOL     OW 3727   1.649   1.105   9.739
 1064SOL    HW1 3728   1.735   1.108   9.699
 1064SOL    HW2 3729   1.654   1.167   9.812
 1065SOL     OW 3730   0.142   0.756  10.898
 1065SOL    HW1 3731   0.238   0.752  10.893
 1065SOL    HW2 3732   0.124   0.843  10.933
 1066SOL     OW 3733   0.613   1.388  10.046
 1066SOL    HW1 3734   0.567   1.304  10.055
 1066SOL    HW2 3735   0.598   1.414   9.956
 1067SOL     OW 3736   1.287   1.237  10.732
 1067SOL    HW1 3737   1.318   1.169  10.672
 1067SOL    HW2 3738   1.346   1.232  10.807
 1068SOL     OW 3739   0.821   0.004   9.827
 1068SOL    HW1 3740   0.866   0.085   9.802
 1068SOL    HW2 3741   0.728   0.028   9.826
 1069SOL     OW 3742   0.184   0.949  10.589
 1069SOL    HW1 3743   0.272   0.914  10.577
 1069SOL    HW2 3744   0.132   0.908  10.520
 1070SOL     OW 3745   1.531   0.997   9.510
 1070SOL    HW1 3746   1.462   0.940   9.543
 1070SOL    HW2 3747   1.574   1.031   9.589
 1071SOL     OW 3748   1.184   1.810  10.935
 1071SOL    HW1 3749   1.192   1.870  10.861
 1071SOL    HW2 3750   1.202   1.724  10.897
 1072SOL     OW 3751   0.346   0.250  11.154
 1072SOL    HW1 3752   0.388   0.333  11.134
 1072SOL    HW2 3753   0.254   0.273  11.170
 1073SOL     OW 3754   1.465   1.419  10.258
 1073SOL    HW1 3755   1.398   1.435  10.325
 1073SOL    HW2 3756   1.452   1.328  10.232
 1074SOL     OW 3757   1.662   1.738   9.866
 1074SOL    HW1 3758   1.630   1.699   9.784
 1074SOL    HW2 3759   1.645   1.671   9.932
 1075SOL     OW 3760   0.595   0.716   9.577
 1075SOL    HW1 3761   0.600   0.801   9.532
 1075SOL    HW2 3762   0.533   0.730   9.648
 1076SOL     OW 3763   1.274   0.370  10.251
 1076SOL    HW1 3764   1.187   0.331  10.258
 1076SOL    HW2 3765   1.332   0.309  10.297
 1077SOL     OW 3766   1.575   1.672   9.607
 1077SOL    HW1 3767   1.665   1.696   9.584
 1077SOL    HW2 3768   1.534   1.648   9.523
 1078SOL     OW 3769   0.794   0.616  10.763
 1078SOL    HW1 3770   0.765   0.589  10.850
 1078SOL    HW2 3771   0.757   0.549  10.704
 1079SOL     OW 3772   1.392   0.476  10.987
 1079SOL    HW1 3773   1.399   0.521  11.071
 1079SOL    HW2 3774   1.449   0.399  10.997
 1080SOL     OW 3775   0.951   0.887  10.895
 1080SOL    HW1 3776   1.006   0.818  10.858
 1080SOL    HW2 3777   0.903   0.922  10.820
 1081SOL     OW 3778   0.993   0.403  10.547
 1081SOL    HW1 3779   0.907   0.422  10.584
 1081SOL    HW2 3780   0.974   0.374  10.458
 1082SOL     OW 3781   1.053   0.700   9.735
 1082SOL    HW1 3782   1.070   0.693   9.829
 1082SOL    HW2 3783   0.970   0.653   9.722
 1083SOL     OW 3784   0.082   0.830  10.100
 1083SOL    HW1 3785   0.153   0.795  10.154
 1083SOL    HW2 3786   0.104   0.922  10.086
 1084SOL     OW 3787   0.130   1.865  10.888
 1084SOL    HW1 3788   0.138   1.829  10.977
 1084SOL    HW2 3789   0.038   1.854  10.866
 1085SOL     OW 3790   0.895   0.352   9.508
 1085SOL    HW1 3791   0.937   0.412   9.447
 1085SOL    HW2 3792   0.892   0.269   9.462
 1086SOL     OW 3793   1.707   0.575  11.140
 1086SOL    HW1 3794   1.670   0.649  11.091
 1086SOL    HW2 3795   1.732   0.512  11.072
 1087SOL     OW 3796   1.379   1.141   9.849
 1087SOL    HW1 3797   1.459   1.131   9.798
 1087SOL    HW2 3798   1.326   1.204   9.799
 1088SOL     OW 3799   0.562   0.195  10.190
 1088SOL    HW1 3800   0.567   0.219  10.283
 1088SOL    HW2 3801   0.547   0.277  10.144
 1089SOL     OW 3802   1.002   1.443   9.779
 1089SOL    HW1 3803   0.968   1.518   9.730
 1089SOL    HW2 3804   0.981   1.464   9.870
 1090SOL     OW 3805   0.365   1.822  10.181
 1090SOL    HW1 3806   0.427   1.750  10.191
 1090SOL    HW2 3807   0.416   1.901  10.197
 1091SOL     OW 3808   1.800   1.050  10.182
 1091SOL    HW1 3809   1.746   1.036  10.104
 1091SOL    HW2 3810   1.736   1.058  10.253
 1092SOL     OW 3811   1.227   1.539  10.823
 1092SOL    HW1 3812   1.215   1.467  10.884
 1092SOL    HW2 3813   1.162   1.524  10.755
 1093SOL     OW 3814   0.310   0.953   9.552
 1093SOL    HW1 3815   0.394   0.975   9.511
 1093SOL    HW2 3816   0.298   0.860   9.533
 1094SOL     OW 3817   1.480   0.749  10.039
 1094SOL    HW1 3818   1.475   0.708  10.125
 1094SOL    HW2 3819   1.558   0.804  10.042
 1095SOL     OW 3820   0.469   1.261  11.048
 1095SOL    HW1 3821   0.443   1.269  10.956
 1095SOL    HW2 3822   0.387   1.264  11.096
 1096SOL     OW 3823   1.123   1.776   9.540
 1096SOL    HW1 3824   1.048   1.737   9.584
 1096SOL    HW2 3825   1.146   1.714   9.472
 1097SOL     OW 3826   0.201   0.293  10.810
 1097SOL    HW1 3827   0.107   0.313  10.810
 1097SOL    HW2 3828   0.210   0.219  10.871
 1098SOL     OW 3829   1.628   1.381   9.398
 1098SOL    HW1 3830   1.586   1.465   9.382
 1098SOL    HW2 3831   1.560   1.316   9.378
 1099SOL     OW 3832   0.466   1.739   9.626
 1099SOL    HW1 3833   0.510   1.795   9.690
 1099SOL    HW2 3834   0.537   1.702   9.573
 1100SOL     OW 3835   1.442   0.168   9.716
 1100SOL    HW1 3836   1.393   0.101   9.669
 1100SOL    HW2 3837   1.511   0.120   9.762
 1101SOL     OW 3838   0.252   1.790  10.541
 1101SOL    HW1 3839   0.298   1.724  10.593
 1101SOL    HW2 3840   0.250   1.754  10.452
 1102SOL     OW 3841   0.938   1.699  10.207
 1102SOL    HW1 3842   1.018   1.650  10.228
 1102SOL    HW2 3843   0.896   1.649  10.138
 1103SOL     OW 3844   0.398   0.694   9.780
 1103SOL    HW1 3845   0.423   0.603   9.796
 1103SOL    HW2 3846   0.306   0.699   9.806
 1104SOL     OW 3847   1.529   0.228  11.037
 1104SOL    HW1 3848   1.524   0.253  11.129
 1104SOL    HW2 3849   1.513   0.134  11.036
 1105SOL     OW 3850   0.646   0.129   9.413
 1105SOL    HW1 3851   0.667   0.044   9.453
 1105SOL    HW2 3852   0.585   0.107   9.342
 1106SOL     OW 3853   0.776   0.284  11.079
 1106SOL    HW1 3854   0.852   0.226  11.080
 1106SOL    HW2 3855   0.720   0.253  11.150
 1107SOL     OW 3856   0.875   1.522  10.504
 1107SOL    HW1 3857   0.859   1.485  10.417
 1107SOL    HW2 3858   0.945   1.468  10.541
 1108SOL     OW 3859   1.339   0.587  10.741
 1108SOL    HW1 3860   1.370   0.558  10.827
 1108SOL    HW2 3861   1.374   0.676  10.731
 1109SOL     OW 3862   0.817   1.392  10.253
 1109SOL    HW1 3863   0.902   1.380  10.211
 1109SOL    HW2 3864   0.755   1.395  10.180
 1110SOL     OW 3865   0.930   0.512  10.209
 1110SOL    HW1 3866   0.906   0.504  10.117
 1110SOL    HW2 3867   0.955   0.424  10.236
 1111SOL     OW 3868   0.547   0.056   9.797
 1111SOL    HW1 3869   0.473   0.063   9.858
 1111SOL    HW2 3870   0.548   0.140   9.751
 1112SOL     OW 3871   1.427   1.199   9.350
 1112SOL    HW1 3872   1.457   1.124   9.401
 1112SOL    HW2 3873   1.342   1.221   9.387
 1113SOL     OW 3874   0.349   0.035   9.509
 1113SOL    HW1 3875   0.359   0.087   9.429
 1113SOL    HW2 3876   0.435   0.038   9.551
 1114SOL     OW 3877   0.943   0.250   9.770
 1114SOL    HW1 3878   0.917   0.290   9.686
 1114SOL    HW2 3879   1.039   0.255   9.770
 1115SOL     OW 3880   1.079   0.684  10.768
 1115SOL    HW1 3881   1.010   0.618  10.774
 1115SOL    HW2 3882   1.160   0.634  10.763
 1116SOL     OW 3883   1.220   1.572  10.105
 1116SOL    HW1 3884   1.236   1.637  10.037
 1116SOL    HW2 3885   1.290   1.585  10.169
 1117SOL     OW 3886   0.466   1.151  10.044
 1117SOL    HW1 3887   0.396   1.126  10.103
 1117SOL    HW2 3888   0.431   1.136   9.957
 1118SOL     OW 3889   1.263   1.792   9.920
 1118SOL    HW1 3890   1.309   1.856   9.864
 1118SOL    HW2 3891   1.196   1.844   9.965
 1119SOL     OW 3892   1.022   0.541   9.340
 1119SOL    HW1 3893   0.978   0.625   9.320
 1119SOL    HW2 3894   1.085   0.563   9.408
 1120SOL     OW 3895   0.081   0.574  10.703
 1120SOL    HW1 3896   0.170   0.556  10.673
 1120SOL    HW2 3897   0.091   0.645  10.766
 1121SOL     OW 3898   0.572   0.231  10.469
 1121SOL    HW1 3899   0.593   0.138  10.477
 1121SOL    HW2 3900   0.481   0.237  10.499
 1122SOL     OW 3901   0.871   0.461   9.948
 1122SOL    HW1 3902   0.820   0.514   9.886
 1122SOL    HW2 3903   0.891   0.381   9.900
 1123SOL     OW 3904   0.997   0.039  10.091
 1123SOL    HW1 3905   0.959   0.069  10.009
 1123SOL    HW2 3906   1.008   3.945  10.079
 1124SOL     OW 3907   1.439   1.161  10.167
 1124SOL    HW1 3908   1.368   1.096  10.165
 1124SOL    HW2 3909   1.465   1.171  10.076
 1125SOL     OW 3910   1.465   0.608  10.283
 1125SOL    HW1 3911   1.409   0.530  10.288
 1125SOL    HW2 3912   1.524   0.600  10.357
 1126SOL     OW 3913   1.843   0.819   9.698
 1126SOL    HW1 3914   1.900   0.767   9.754
 1126SOL    HW2 3915   1.815   0.758   9.630
 1127SOL     OW 3916   0.487   1.422   9.469
 1127SOL    HW1 3917   0.411   1.391   9.519
 1127SOL    HW2 3918   0.474   1.387   9.381
 1128SOL     OW 3919   1.672   1.263   9.954
 1128SOL    HW1 3920   1.766   1.262   9.969
 1128SOL    HW2 3921   1.646   1.353   9.976
 1129SOL     OW 3922   1.395   0.577   9.379
 1129SOL    HW1 3923   1.332   0.557   9.448
 1129SOL    HW2 3924   1.480   0.557   9.418
 1130SOL     OW 3925   0.557   0.271   9.627
 1130SOL    HW1 3926   0.605   0.231   9.555
 1130SOL    HW2 3927   0.528   0.355   9.593
 1131SOL     OW 3928   1.750   1.241  10.878
 1131SOL    HW1 3929   1.837   1.202  10.871
 1131SOL    HW2 3930   1.766   1.331  10.906
 1132SOL     OW 3931   1.056   1.354  10.643
 1132SOL    HW1 3932   0.981   1.322  10.693
 1132SOL    HW2 3933   1.131   1.312  10.684
 1133SOL     OW 3934   1.609   1.626  10.965
 1133SOL    HW1 3935   1.602   1.663  10.877
 1133SOL    HW2 3936   1.692   1.579  10.965
 1134SOL     OW 3937   1.133   1.207  10.414
 1134SOL    HW1 3938   1.073   1.245  10.478
 1134SOL    HW2 3939   1.102   1.241  10.329
 1135SOL     OW 3940   1.624   1.096  10.386
 1135SOL    HW1 3941   1.618   1.158  10.459
 1135SOL    HW2 3942   1.547   1.115  10.332
 1136SOL     OW 3943   0.912   0.116  10.711
 1136SOL    HW1 3944   0.932   0.089  10.621
 1136SOL    HW2 3945   0.993   0.158  10.742
 1137SOL     OW 3946   0.984   1.115  11.033
 1137SOL    HW1 3947   0.893   1.132  11.056
 1137SOL    HW2 3948   0.982   1.037  10.978
 1138SOL     OW 3949   0.708   1.062   9.680
 1138SOL    HW1 3950   0.694   1.044   9.774
 1138SOL    HW2 3951   0.784   1.008   9.657
 1139SOL     OW 3952   0.423   0.817  10.563
 1139SOL    HW1 3953   0.491   0.824  10.630
 1139SOL    HW2 3954   0.388   0.729  10.572
 1140SOL     OW 3955   1.265   0.375  10.587
 1140SOL    HW1 3956   1.299   0.453  10.631
 1140SOL    HW2 3957   1.178   0.400  10.558
 1141SOL     OW 3958   0.065   1.580  10.656
 1141SOL    HW1 3959   0.071   1.631  10.575
 1141SOL    HW2 3960   0.156   1.568  10.683
 1142SOL     OW 3961   0.370   1.103   9.792
 1142SOL    HW1 3962   0.364   1.182   9.738
 1142SOL    HW2 3963   0.368   1.031   9.729
 1143SOL     OW 3964   0.554   0.533  10.167
 1143SOL    HW1 3965   0.568   0.592  10.093
 1143SOL    HW2 3966   0.620   0.560  10.231
 1144SOL     OW 3967   1.247   1.349   9.700
 1144SOL    HW1 3968   1.303   1.420   9.732
 1144SOL    HW2 3969   1.160   1.370   9.733
 1145SOL     OW 3970   1.286   1.460  10.458
 1145SOL    HW1 3971   1.342   1.464  10.536
 1145SOL    HW2 3972   1.231   1.383  10.473
 1146SOL     OW 3973   1.574   0.634   9.798
 1146SOL    HW1 3974   1.531   0.689   9.863
 1146SOL    HW2 3975   1.621   0.696   9.742
 1147SOL     OW 3976   0.345   1.527  10.628
 1147SOL    HW1 3977   0.336   1.477  10.547
 1147SOL    HW2 3978   0.440   1.542  10.636
 1148SOL     OW 3979   0.418   0.737  10.911
 1148SOL    HW1 3980   0.481   0.782  10.855
 1148SOL    HW2 3981   0.455   0.650  10.923
 1149SOL     OW 3982   1.605   0.781  10.996
 1149SOL    HW1 3983   1.519   0.823  10.989
 1149SOL    HW2 3984   1.657   0.822  10.927
 1150SOL     OW 3985   1.009   0.137  11.089
 1150SOL    HW1 3986   1.065   0.207  11.055
 1150SOL    HW2 3987   1.000   0.076  11.016
 1151SOL     OW 3988   0.484   0.037  11.074
 1151SOL    HW1 3989   0.490   0.048  10.979
 1151SOL    HW2 3990   0.422   0.104  11.102
 1152SOL     OW 3991   0.585   0.875  10.342
 1152SOL    HW1 3992   0.618   0.965  10.344
 1152SOL    HW2 3993   0.529   0.868  10.419
 1153SOL     OW 3994   1.351   0.858  10.335
 1153SOL    HW1 3995   1.266   0.845  10.293
 1153SOL    HW2 3996   1.396   0.774  10.327
 1154SOL     OW 3997   1.199   0.537   9.567
 1154SOL    HW1 3998   1.208   0.458   9.620
 1154SOL    HW2 3999   1.156   0.600   9.625
 1155SOL     OW 4000   0.311   0.212  10.550
 1155SOL    HW1 4001   0.268   0.248  10.627
 1155SOL    HW2 4002   0.296   0.117  10.556
 1156SOL     OW 4003   0.062   1.306  10.590
 1156SOL    HW1 4004   0.092   1.263  10.671
 1156SOL    HW2 4005   0.053   1.398  10.614
 1157SOL     OW 4006   0.724   0.633  10.362
 1157SOL    HW1 4007   0.799   0.619  10.304
 1157SOL    HW2 4008   0.694   0.722  10.342
 1158SOL     OW 4009   1.738   0.959  11.167
 1158SOL    HW1 4010   1.693   0.895  11.112
 1158SOL    HW2 4011   1.677   0.975  11.239
 1159SOL     OW 4012   0.331   0.054   9.966
 1159SOL    HW1 4013   0.302   0.146   9.967
 1159SOL    HW2 4014   0.296   0.017  10.047
 1160SOL     OW 4015   1.608   0.393   9.690
 1160SOL    HW1 4016   1.565   0.325   9.741
 1160SOL    HW2 4017   1.588   0.474   9.736
 1161SOL     OW 4018   1.030   0.759  10.268
 1161SOL    HW1 4019   1.022   0.776  10.362
 1161SOL    HW2 4020   1.003   0.668  10.258
 1162SOL     OW 4021   0.981   1.566  11.030
 1162SOL    HW1 4022   0.966   1.610  10.946
 1162SOL    HW2 4023   1.025   1.484  11.006
 1163SOL     OW 4024   1.854   1.501  10.913
 1163SOL    HW1 4025   1.871   1.532  10.824
 1163SOL    HW2 4026   1.937   1.512  10.958
 1164SOL     OW 4027   0.354   0.922  11.108
 1164SOL    HW1 4028   0.432   0.942  11.160
 1164SOL    HW2 4029   0.383   0.854  11.047
 1165SOL     OW 4030   1.503   0.274   9.444
 1165SOL    HW1 4031   1.430   0.213   9.456
 1165SOL    HW2 4032   1.516   0.313   9.531
 1166SOL     OW 4033   1.288   0.827   9.338
 1166SOL    HW1 4034   1.330   0.741   9.342
 1166SOL    HW2 4035   1.320   0.866   9.257
 1167SOL     OW 4036   1.067   1.337  10.166
 1167SOL    HW1 4037   1.072   1.265  10.103
 1167SOL    HW2 4038   1.127   1.404  10.131
 1168SOL     OW 4039   0.313   0.802  10.260
 1168SOL    HW1 4040   0.407   0.818  10.254
 1168SOL    HW2 4041   0.306   0.712  10.292
 1169SOL     OW 4042   0.339   0.529  10.325
 1169SOL    HW1 4043   0.297   0.444  10.307
 1169SOL    HW2 4044   0.414   0.532  10.266
 1170SOL     OW 4045   1.133   0.380  11.008
 1170SOL    HW1 4046   1.085   0.435  11.070
 1170SOL    HW2 4047   1.220   0.420  11.003
 1171SOL     OW 4048   1.151   0.225  10.792
 1171SOL    HW1 4049   1.142   0.280  10.870
 1171SOL    HW2 4050   1.177   0.287  10.723
 1172SOL     OW 4051   0.001   1.316   9.492
 1172SOL    HW1 4052   3.907   1.333   9.496
 1172SOL    HW2 4053   0.009   1.223   9.511
 1173SOL     OW 4054   0.078   1.800  10.198
 1173SOL    HW1 4055   0.085   1.704  10.200
 1173SOL    HW2 4056   0.169   1.830  10.202
 1174SOL     OW 4057   0.499   1.571  10.220
 1174SOL    HW1 4058   0.568   1.632  10.246
 1174SOL    HW2 4059   0.542   1.509  10.162
 1175SOL     OW 4060   0.976   0.788  10.534
 1175SOL    HW1 4061   1.033   0.769  10.608
 1175SOL    HW2 4062   0.892   0.749  10.557
 1176SOL     OW 4063   0.035   0.576  10.422
 1176SOL    HW1 4064   0.095   0.522  10.371
 1176SOL    HW2 4065   0.061   0.562  10.513
 1177SOL     OW 4066   0.211   0.516  11.032
 1177SOL    HW1 4067   0.257   0.475  10.958
 1177SOL    HW2 4068   0.166   0.591  10.994
 1178SOL     OW 4069   1.379   0.936  10.967
 1178SOL    HW1 4070   1.401   1.029  10.963
 1178SOL    HW2 4071   1.375   0.908  10.875
 1179SOL     OW 4072   0.819   0.572   9.673
 1179SOL    HW1 4073   0.825   0.496   9.615
 1179SOL    HW2 4074   0.744   0.621   9.640
 1180SOL     OW 4075   1.640   0.602  10.492
 1180SOL    HW1 4076   1.630   0.542  10.566
 1180SOL    HW2 4077   1.727   0.585  10.458
 1181SOL     OW 4078   0.301   1.544  11.033
 1181SOL    HW1 4079   0.253   1.613  11.080
 1181SOL    HW2 4080   0.271   1.463  11.075
 1182SOL     OW 4081   0.712   0.453  10.564
 1182SOL    HW1 4082   0.661   0.375  10.540
 1182SOL    HW2 4083   0.701   0.513  10.490
 1183SOL     OW 4084   0.923   1.679  10.780
 1183SOL    HW1 4085   0.899   1.641  10.696
 1183SOL    HW2 4086   0.918   1.774  10.766
 1184SOL     OW 4087   0.452   0.492   9.508
 1184SOL    HW1 4088   0.517   0.561   9.525
 1184SOL    HW2 4089   0.373   0.539   9.484
 1185SOL     OW 4090   0.155   1.134  10.785
 1185SOL    HW1 4091   0.156   1.084  10.866
 1185SOL    HW2 4092   0.170   1.069  10.716
 1186SOL     OW 4093   1.322   1.044  10.531
 1186SOL    HW1 4094   1.345   0.981  10.463
 1186SOL    HW2 4095   1.255   1.100  10.492
 1187SOL     OW 4096   1.315   0.856   9.614
 1187SOL    HW1 4097   1.240   0.827   9.666
 1187SOL    HW2 4098   1.287   0.843   9.523
 1188SOL     OW 4099   1.742   1.732  10.447
 1188SOL    HW1 4100   1.819   1.755  10.395
 1188SOL    HW2 4101   1.728   1.639  10.429
 1189SOL     OW 4102   1.243   1.734  10.417
 1189SOL    HW1 4103   1.326   1.757  10.375
 1189SOL    HW2 4104   1.251   1.641  10.437
 1190SOL     OW 4105   0.078   1.217  10.337
 1190SOL    HW1 4106   0.084   1.243  10.429
 1190SOL    HW2 4107   3.985   1.227  10.316
 1191SOL     OW 4108   0.680   1.669  11.046
 1191SOL    HW1 4109   0.620   1.743  11.036
 1191SOL    HW2 4110   0.747   1.683  10.979
 1192SOL     OW 4111   1.715   0.124   9.799
 1192SOL    HW1 4112   1.793   0.134   9.745
 1192SOL    HW2 4113   1.706   0.029   9.809
 1193SOL     OW 4114   1.391   1.568   9.798
 1193SOL    HW1 4115   1.446   1.602   9.727
 1193SOL    HW2 4116   1.341   1.644   9.828
 1194SOL     OW 4117   0.176   1.762  11.141
 1194SOL    HW1 4118   0.119   1.711  11.198
 1194SOL    HW2 4119   0.216   1.828  11.198
 1195SOL     OW 4120   1.277   0.928   9.981
 1195SOL    HW1 4121   1.351   0.869   9.993
 1195SOL    HW2 4122   1.312   1.000   9.928
 1196SOL     OW 4123   0.808   1.274  10.737
 1196SOL    HW1 4124   0.780   1.316  10.818
 1196SOL    HW2 4125   0.737   1.291  10.675
 1197SOL     OW 4126   0.670   1.623   9.465
 1197SOL    HW1 4127   0.682   1.636   9.371
 1197SOL    HW2 4128   0.614   1.546   9.473
 1198SOL     OW 4129   1.619   1.730  10.700
 1198SOL    HW1 4130   1.665   1.734  10.616
 1198SOL    HW2 4131   1.607   1.821  10.726
 1199SOL     OW 4132   1.839   0.178  10.276
 1199SOL    HW1 4133   1.872   0.113  10.214
 1199SOL    HW2 4134   1.750   0.197  10.246
 1200SOL     OW 4135   0.275   0.322  10.024
 1200SOL    HW1 4136   0.190   0.357   9.998
 1200SOL    HW2 4137   0.267   0.307  10.118
 1201SOL     OW 4138   1.206   1.603   9.342
 1201SOL    HW1 4139   1.196   1.512   9.368
 1201SOL    HW2 4140   1.140   1.616   9.274
 1202SOL     OW 4141   0.823   1.005  10.684
 1202SOL    HW1 4142   0.867   1.000  10.599
 1202SOL    HW2 4143   0.821   1.099  10.704
 1203SOL     OW 4144   0.915   0.911   9.600
 1203SOL    HW1 4145   0.976   0.943   9.534
 1203SOL    HW2 4146   0.964   0.842   9.646
 1204SOL     OW 4147   1.485   1.623   9.350
 1204SOL    HW1 4148   1.391   1.617   9.333
 1204SOL    HW2 4149   1.524   1.631   9.263
 1205SOL     OW 4150   0.374   1.303  10.802
 1205SOL    HW1 4151   0.359   1.383  10.752
 1205SOL    HW2 4152   0.297   1.248  10.784
 1206SOL     OW 4153   1.607   1.282  10.591
 1206SOL    HW1 4154   1.669   1.270  10.663
 1206SOL    HW2 4155   1.548   1.351  10.622
 1207SOL     OW 4156   1.057   1.109  10.019
 1207SOL    HW1 4157   0.986   1.059  10.056
 1207SOL    HW2 4158   1.121   1.044   9.991
 1208SOL     OW 4159   1.014   0.250  10.280
 1208SOL    HW1 4160   1.005   0.199  10.200
 1208SOL    HW2 4161   1.011   0.184  10.350
 1209SOL     OW 4162   0.607   1.488   9.792
 1209SOL    HW1 4163   0.653   1.439   9.724
 1209SOL    HW2 4164   0.531   1.525   9.746
 1210SOL     OW 4165   1.721   0.394  10.681
 1210SOL    HW1 4166   1.794   0.456  10.686
 1210SOL    HW2 4167   1.754   0.322  10.628
 1211SOL     OW 4168   0.254   1.341   9.604
 1211SOL    HW1 4169   0.160   1.347   9.585
 1211SOL    HW2 4170   0.264   1.380   9.690
 1212SOL     OW 4171   0.108   0.999  11.028
 1212SOL    HW1 4172   0.048   0.992  11.102
 1212SOL    HW2 4173   0.195   0.981  11.065
 1213SOL     OW 4174   0.694   0.255  10.812
 1213SOL    HW1 4175   0.762   0.202  10.771
 1213SOL    HW2 4176   0.723   0.264  10.903
 1214SOL     OW 4177   0.088   0.320   9.336
 1214SOL    HW1 4178   3.993   0.318   9.328
 1214SOL    HW2 4179   0.114   0.402   9.295
 1215SOL     OW 4180   1.426   0.856  10.708
 1215SOL    HW1 4181   1.377   0.918  10.653
 1215SOL    HW2 4182   1.515   0.859  10.673
 1216SOL     OW 4183   0.036   0.171   9.594
 1216SOL    HW1 4184   0.037   0.229   9.518
 1216SOL    HW2 4185   0.112   0.198   9.646
 1217SOL     OW 4186   1.178   1.337   9.427
 1217SOL    HW1 4187   1.087   1.306   9.429
 1217SOL    HW2 4188   1.205   1.337   9.519
 1218SOL     OW 4189   0.621   0.828  10.747
 1218SOL    HW1 4190   0.678   0.904  10.731
 1218SOL    HW2 4191   0.681   0.754  10.755
 1219SOL     OW 4192   1.489   1.788  10.296
 1219SOL    HW1 4193   1.511   1.854  10.230
 1219SOL    HW2 4194   1.572   1.767  10.338
 1220SOL     OW 4195   0.718   0.561  11.016
 1220SOL    HW1 4196   0.763   0.623  11.074
 1220SOL    HW2 4197   0.743   0.475  11.049
 1221SOL     OW 4198   1.473   1.196  10.940
 1221SOL    HW1 4199   1.461   1.211  11.034
 1221SOL    HW2 4200   1.566   1.214  10.924
 1222SOL     OW 4201   0.378   1.744  10.866
 1222SOL    HW1 4202   0.291   1.781  10.854
 1222SOL    HW2 4203   0.362   1.661  10.912
 1223SOL     OW 4204   1.666   0.880  10.566
 1223SOL    HW1 4205   1.662   0.795  10.522
 1223SOL    HW2 4206   1.656   0.944  10.494
 1224SOL     OW 4207   1.223   0.337   9.751
 1224SOL    HW1 4208   1.291   0.270   9.745
 1224SOL    HW2 4209   1.241   0.381   9.834
 1225SOL     OW 4210   0.590   0.737   9.982
 1225SOL    HW1 4211   0.627   0.824   9.966
 1225SOL    HW2 4212   0.523   0.728   9.914
 1226SOL     OW 4213   1.750   0.384  10.953
 1226SOL    HW1 4214   1.732   0.390  10.859
 1226SOL    HW2 4215   1.693   0.313  10.984
 1227SOL     OW 4216   1.746   0.934  10.822
 1227SOL    HW1 4217   1.739   1.028  10.835
 1227SOL    HW2 4218   1.730   0.921  10.729
 1228SOL     OW 4219   0.863   1.366   9.349
 1228SOL    HW1 4220   0.825   1.394   9.432
 1228SOL    HW2 4221   0.879   1.447   9.301
 1229SOL     OW 4222   0.663   1.787  10.251
 1229SOL    HW1 4223   0.643   1.878  10.230
 1229SOL    HW2 4224   0.759   1.781  10.244
 1230SOL     OW 4225   0.869   0.969  10.163
 1230SOL    HW1 4226   0.919   0.897  10.201
 1230SOL    HW2 4227   0.832   1.015  10.238
 1231SOL     OW 4228   1.077   0.989   9.399
 1231SOL    HW1 4229   1.056   1.040   9.321
 1231SOL    HW2 4230   1.152   0.935   9.372
 1232SOL     OW 4231   1.845   1.542  10.148
 1232SOL    HW1 4232   1.763   1.541  10.099
 1232SOL    HW2 4233   1.830   1.482  10.221
 1233SOL     OW 4234   0.227   1.304  11.166
 1233SOL    HW1 4235   0.154   1.249  11.139
 1233SOL    HW2 4236   0.213   1.317  11.260
 1234SOL     OW 4237   0.124   1.282  10.033
 1234SOL    HW1 4238   0.137   1.230  10.112
 1234SOL    HW2 4239   0.106   1.217   9.964
 1235SOL     OW 4240   0.682   1.406  10.940
 1235SOL    HW1 4241   0.602   1.363  10.971
 1235SOL    HW2 4242   0.678   1.494  10.977
 1236SOL     OW 4243   1.810   0.183  10.548
 1236SOL    HW1 4244   1.814   0.089  10.564
 1236SOL    HW2 4245   1.826   0.192  10.454
 1237SOL     OW 4246   0.445   0.438   9.841
 1237SOL    HW1 4247   0.464   0.362   9.786
 1237SOL    HW2 4248   0.390   0.404   9.911
 1238SOL     OW 4249   1.701   1.472  10.396
 1238SOL    HW1 4250   1.618   1.455  10.351
 1238SOL    HW2 4251   1.705   1.405  10.465
 1239SOL     OW 4252   0.334   0.558  10.603
 1239SOL    HW1 4253   0.390   0.502  10.657
 1239SOL    HW2 4254   0.349   0.529  10.513
 1240SOL     OW 4255   0.830   1.579   9.985
 1240SOL    HW1 4256   0.813   1.642   9.915
 1240SOL    HW2 4257   0.754   1.520   9.983
 1241SOL     OW 4258   1.460   0.255  10.420
 1241SOL    HW1 4259   1.478   0.168  10.457
 1241SOL    HW2 4260   1.405   0.297  10.486
 1242SOL     OW 4261   1.003   0.027  10.456
 1242SOL    HW1 4262   0.922   3.994  10.418
 1242SOL    HW2 4263   1.059   3.950  10.465
 1243SOL     OW 4264   0.773   1.333   9.629
 1243SOL    HW1 4265   0.745   1.242   9.635
 1243SOL    HW2 4266   0.855   1.337   9.678
 1244SOL     OW 4267   0.620   1.557  10.596
 1244SOL    HW1 4268   0.622   1.639  10.645
 1244SOL    HW2 4269   0.708   1.549  10.559
 1245SOL     OW 4270   1.309   0.074   9.475
 1245SOL    HW1 4271   1.321   3.992   9.427
 1245SOL    HW2 4272   1.224   0.064   9.518
 1246SOL     OW 4273   1.281   0.457   9.995
 1246SOL    HW1 4274   1.234   0.540   9.989
 1246SOL    HW2 4275   1.283   0.437  10.088
 1247SOL     OW 4276   1.588   0.210  10.178
 1247SOL    HW1 4277   1.539   0.234  10.256
 1247SOL    HW2 4278   1.588   0.289  10.124
 1248SOL     OW 4279   0.047   1.048   9.552
 1248SOL    HW1 4280   0.141   1.032   9.543
 1248SOL    HW2 4281   0.011   0.963   9.578
 1249SOL     OW 4282   0.888   1.657   9.649
 1249SOL    HW1 4283   0.813   1.641   9.591
 1249SOL    HW2 4284   0.859   1.730   9.704
 1250SOL     OW 4285   0.232   0.629  11.288
 1250SOL    HW1 4286   0.139   0.633  11.310
 1250SOL    HW2 4287   0.235   0.599  11.197
 1251SOL     OW 4288   0.224   0.290  12.154
 1251SOL    HW1 4289   0.246   0.250  12.238
 1251SOL    HW2 4290   0.129   0.280  12.148
 1252SOL     OW 4291   0.019   0.384  11.808
 1252SOL    HW1 4292   3.928   0.399  11.834
 1252SOL    HW2 4293   0.025   0.290  11.794
 1253SOL     OW 4294   0.582   1.291  12.365
 1253SOL    HW1 4295   0.495   1.292  12.324
 1253SOL    HW2 4296   0.595   1.380  12.397
 1254SOL     OW 4297   1.569   1.514  11.881
 1254SOL    HW1 4298   1.526   1.494  11.964
 1254SOL    HW2 4299   1.497   1.519  11.818
 1255SOL     OW 4300   1.133   0.699  11.868
 1255SOL    HW1 4301   1.180   0.781  11.856
 1255SOL    HW2 4302   1.085   0.710  11.950
 1256SOL     OW 4303   1.769   0.619  11.396
 1256SOL    HW1 4304   1.746   0.612  11.303
 1256SOL    HW2 4305   1.753   0.532  11.432
 1257SOL     OW 4306   0.752   1.138  12.215
 1257SOL    HW1 4307   0.689   1.175  12.278
 1257SOL    HW2 4308   0.788   1.215  12.171
 1258SOL     OW 4309   0.872   0.769  12.996
 1258SOL    HW1 4310   0.861   0.841  13.058
 1258SOL    HW2 4311   0.894   0.811  12.913
 1259SOL     OW 4312   0.685   1.002  11.817
 1259SOL    HW1 4313   0.751   0.991  11.885
 1259SOL    HW2 4314   0.616   1.053  11.859
 1260SOL     OW 4315   0.712   1.149  12.989
 1260SOL    HW1 4316   0.760   1.226  13.018
 1260SOL    HW2 4317   0.632   1.183  12.951
 1261SOL     OW 4318   0.351   1.400  12.251
 1261SOL    HW1 4319   0.270   1.379  12.204
 1261SOL    HW2 4320   0.398   1.458  12.191
 1262SOL     OW 4321   1.460   1.502  12.530
 1262SOL    HW1 4322   1.514   1.581  12.539
 1262SOL    HW2 4323   1.394   1.510  12.599
 1263SOL     OW 4324   0.458   0.408  12.667
 1263SOL    HW1 4325   0.540   0.359  12.666
 1263SOL    HW2 4326   0.390   0.341  12.670
 1264SOL     OW 4327   1.612   0.451  11.907
 1264SOL    HW1 4328   1.543   0.482  11.848
 1264SOL    HW2 4329   1.628   0.524  11.967
 1265SOL     OW 4330   0.220   1.719  11.629
 1265SOL    HW1 4331   0.240   1.793  11.686
 1265SOL    HW2 4332   0.297   1.711  11.572
 1266SOL     OW 4333   1.137   1.342  12.865
 1266SOL    HW1 4334   1.178   1.336  12.952
 1266SOL    HW2 4335   1.085   1.262  12.858
 1267SOL     OW 4336   0.251   1.451  11.712
 1267SOL    HW1 4337   0.215   1.539  11.697
 1267SOL    HW2 4338   0.184   1.406  11.763
 1268SOL     OW 4339   0.248   1.065  12.056
 1268SOL    HW1 4340   0.268   0.980  12.095
 1268SOL    HW2 4341   0.195   1.110  12.122
 1269SOL     OW 4342   0.609   1.793  12.598
 1269SOL    HW1 4343   0.527   1.775  12.643
 1269SOL    HW2 4344   0.632   1.882  12.625
 1270SOL     OW 4345   0.576   0.986  11.311
 1270SOL    HW1 4346   0.625   1.030  11.242
 1270SOL    HW2 4347   0.617   1.016  11.392
 1271SOL     OW 4348   1.582   0.141  12.627
 1271SOL    HW1 4349   1.613   0.214  12.573
 1271SOL    HW2 4350   1.547   0.183  12.706
 1272SOL     OW 4351   0.141   0.652  11.741
 1272SOL    HW1 4352   0.099   0.567  11.746
 1272SOL    HW2 4353   0.103   0.702  11.814
 1273SOL     OW 4354   0.044   1.589  11.310
 1273SOL    HW1 4355   0.038   1.497  11.336
 1273SOL    HW2 4356   3.960   1.627  11.335
 1274SOL     OW 4357   1.687   0.917  11.815
 1274SOL    HW1 4358   1.771   0.876  11.795
 1274SOL    HW2 4359   1.667   0.969  11.737
 1275SOL     OW 4360   1.649   1.105  11.601
 1275SOL    HW1 4361   1.735   1.108  11.561
 1275SOL    HW2 4362   1.654   1.167  11.674
 1276SOL     OW 4363   0.142   0.756  12.760
 1276SOL    HW1 4364   0.238   0.752  12.755
 1276SOL    HW2 4365   0.124   0.843  12.795
 1277SOL     OW 4366   0.613   1.388  11.908
 1277SOL    HW1 4367   0.567   1.304  11.917
 1277SOL    HW2 4368   0.598   1.414  11.818
 1278SOL     OW 4369   1.286   1.237  12.594
 1278SOL    HW1 4370   1.318   1.169  12.534
 1278SOL    HW2 4371   1.346   1.232  12.669
 1279SOL     OW 4372   0.821   0.004  11.689
 1279SOL    HW1 4373   0.866   0.085  11.664
 1279SOL    HW2 4374   0.728   0.028  11.688
 1280SOL     OW 4375   0.184   0.949  12.451
 1280SOL    HW1 4376   0.272   0.914  12.439
 1280SOL    HW2 4377   0.132   0.908  12.382
 1281SOL     OW 4378   1.531   0.997  11.372
 1281SOL    HW1 4379   1.462   0.940  11.405
 1281SOL    HW2 4380   1.574   1.031  11.451
 1282SOL     OW 4381   1.184   1.810  12.797
 1282SOL    HW1 4382   1.192   1.870  12.723
 1282SOL    HW2 4383   1.202   1.724  12.759
 1283SOL     OW 4384   0.345   0.251  13.013
 1283SOL    HW1 4385   0.387   0.334  12.993
 1283SOL    HW2 4386   0.254   0.274  13.031
 1284SOL     OW 4387   1.465   1.419  12.120
 1284SOL    HW1 4388   1.398   1.435  12.187
 1284SOL    HW2 4389   1.452   1.328  12.094
 1285SOL     OW 4390   1.662   1.738  11.728
 1285SOL    HW1 4391   1.630   1.700  11.646
 1285SOL    HW2 4392   1.646   1.670  11.793
 1286SOL     OW 4393   0.595   0.716  11.439
 1286SOL    HW1 4394   0.600   0.801  11.394
 1286SOL    HW2 4395   0.533   0.730  11.510
 1287SOL     OW 4396   1.274   0.370  12.113
 1287SOL    HW1 4397   1.187   0.331  12.120
 1287SOL    HW2 4398   1.332   0.309  12.159
 1288SOL     OW 4399   1.575   1.671  11.469
 1288SOL    HW1 4400   1.666   1.694  11.445
 1288SOL    HW2 4401   1.534   1.649  11.385
 1289SOL     OW 4402   0.794   0.616  12.625
 1289SOL    HW1 4403   0.765   0.589  12.712
 1289SOL    HW2 4404   0.757   0.549  12.566
 1290SOL     OW 4405   1.392   0.476  12.850
 1290SOL    HW1 4406   1.399   0.521  12.934
 1290SOL    HW2 4407   1.449   0.399  12.859
 1291SOL     OW 4408   0.951   0.887  12.757
 1291SOL    HW1 4409   1.006   0.818  12.719
 1291SOL    HW2 4410   0.903   0.922  12.682
 1292SOL     OW 4411   0.993   0.403  12.409
 1292SOL    HW1 4412   0.907   0.422  12.446
 1292SOL    HW2 4413   0.974   0.374  12.319
 1293SOL     OW 4414   1.053   0.700  11.597
 1293SOL    HW1 4415   1.070   0.693  11.691
 1293SOL    HW2 4416   0.970   0.653  11.584
 1294SOL     OW 4417   0.081   0.830  11.962
 1294SOL    HW1 4418   0.153   0.795  12.016
 1294SOL    HW2 4419   0.104   0.922  11.947
 1295SOL     OW 4420   0.130   1.865  12.751
 1295SOL    HW1 4421   0.138   1.829  12.839
 1295SOL    HW2 4422   0.038   1.854  12.728
 1296SOL     OW 4423   0.895   0.352  11.370
 1296SOL    HW1 4424   0.937   0.412  11.309
 1296SOL    HW2 4425   0.892   0.269  11.324
 1297SOL     OW 4426   1.707   0.576  13.001
 1297SOL    HW1 4427   1.670   0.649  12.951
 1297SOL    HW2 4428   1.731   0.512  12.934
 1298SOL     OW 4429   1.379   1.141  11.711
 1298SOL    HW1 4430   1.459   1.131  11.660
 1298SOL    HW2 4431   1.326   1.204  11.661
 1299SOL     OW 4432   0.562   0.195  12.052
 1299SOL    HW1 4433   0.567   0.219  12.144
 1299SOL    HW2 4434   0.547   0.277  12.006
 1300SOL     OW 4435   1.002   1.443  11.641
 1300SOL    HW1 4436   0.969   1.518  11.592
 1300SOL    HW2 4437   0.981   1.464  11.732
 1301SOL     OW 4438   0.365   1.822  12.043
 1301SOL    HW1 4439   0.427   1.750  12.053
 1301SOL    HW2 4440   0.416   1.901  12.059
 1302SOL     OW 4441   1.800   1.049  12.044
 1302SOL    HW1 4442   1.746   1.036  11.966
 1302SOL    HW2 4443   1.736   1.058  12.115
 1303SOL     OW 4444   1.227   1.539  12.685
 1303SOL    HW1 4445   1.215   1.467  12.746
 1303SOL    HW2 4446   1.162   1.525  12.617
 1304SOL     OW 4447   0.310   0.953  11.414
 1304SOL    HW1 4448   0.394   0.975  11.373
 1304SOL    HW2 4449   0.298   0.860  11.395
 1305SOL     OW 4450   1.480   0.749  11.901
 1305SOL    HW1 4451   1.475   0.708  11.987
 1305SOL    HW2 4452   1.558   0.804  11.904
 1306SOL     OW 4453   0.469   1.261  12.909
 1306SOL    HW1 4454   0.443   1.269  12.817
 1306SOL    HW2 4455   0.387   1.264  12.958
 1307SOL     OW 4456   1.123   1.776  11.402
 1307SOL    HW1 4457   1.048   1.737  11.446
 1307SOL    HW2 4458   1.146   1.714  11.334
 1308SOL     OW 4459   0.201   0.293  12.672
 1308SOL    HW1 4460   0.108   0.313  12.672
 1308SOL    HW2 4461   0.210   0.219  12.732
 1309SOL     OW 4462   1.628   1.381  11.260
 1309SOL    HW1 4463   1.586   1.466  11.244
 1309SOL    HW2 4464   1.560   1.316  11.240
 1310SOL     OW 4465   0.466   1.739  11.488
 1310SOL    HW1 4466   0.510   1.795  11.552
 1310SOL    HW2 4467   0.537   1.702  11.435
 1311SOL     OW 4468   1.442   0.168  11.578
 1311SOL    HW1 4469   1.393   0.101  11.531
 1311SOL    HW2 4470   1.511   0.120  11.624
 1312SOL     OW 4471   0.252   1.790  12.403
 1312SOL    HW1 4472   0.298   1.724  12.455
 1312SOL    HW2 4473   0.251   1.754  12.314
 1313SOL     OW 4474   0.938   1.699  12.069
 1313SOL    HW1 4475   1.018   1.650  12.090
 1313SOL    HW2 4476   0.896   1.649  12.000
 1314SOL     OW 4477   0.398   0.694  11.642
 1314SOL    HW1 4478   0.423   0.603  11.658
 1314SOL    HW2 4479   0.306   0.699  11.668
 1315SOL     OW 4480   1.529   0.228  12.898
 1315SOL    HW1 4481   1.524   0.253  12.990
 1315SOL    HW2 4482   1.514   0.133  12.898
 1316SOL     OW 4483   0.646   0.129  11.275
 1316SOL    HW1 4484   0.667   0.044  11.315
 1316SOL    HW2 4485   0.585   0.107  11.204
 1317SOL     OW 4486   0.775   0.285  12.940
 1317SOL    HW1 4487   0.852   0.227  12.941
 1317SOL    HW2 4488   0.721   0.253  13.012
 1318SOL     OW 4489   0.875   1.522  12.366
 1318SOL    HW1 4490   0.859   1.485  12.279
 1318SOL    HW2 4491   0.945   1.468  12.403
 1319SOL     OW 4492   1.339   0.587  12.603
 1319SOL    HW1 4493   1.370   0.558  12.689
 1319SOL    HW2 4494   1.374   0.676  12.593
 1320SOL     OW 4495   0.817   1.391  12.115
 1320SOL    HW1 4496   0.902   1.380  12.073
 1320SOL    HW2 4497   0.755   1.395  12.042
 1321SOL     OW 4498   0.930   0.512  12.072
 1321SOL    HW1 4499   0.906   0.504  11.979
 1321SOL    HW2 4500   0.955   0.424  12.098
 1322SOL     OW 4501   0.547   0.056  11.659
 1322SOL    HW1 4502   0.473   0.063  11.720
 1322SOL    HW2 4503   0.548   0.140  11.613
 1323SOL     OW 4504   1.428   1.199  11.212
 1323SOL    HW1 4505   1.457   1.124  11.263
 1323SOL    HW2 4506   1.342   1.221  11.249
 1324SOL     OW 4507   0.349   0.035  11.371
 1324SOL    HW1 4508   0.359   0.087  11.291
 1324SOL    HW2 4509   0.435   0.038  11.413
 1325SOL     OW 4510   0.943   0.250  11.632
 1325SOL    HW1 4511   0.917   0.290  11.549
 1325SOL    HW2 4512   1.039   0.255  11.632
 1326SOL     OW 4513   1.079   0.684  12.630
 1326SOL    HW1 4514   1.010   0.618  12.636
 1326SOL    HW2 4515   1.160   0.634  12.625
 1327SOL     OW 4516   1.220   1.572  11.967
 1327SOL    HW1 4517   1.236   1.637  11.899
 1327SOL    HW2 4518   1.290   1.585  12.031
 1328SOL     OW 4519   0.466   1.151  11.906
 1328SOL    HW1 4520   0.396   1.126  11.965
 1328SOL    HW2 4521   0.431   1.136  11.819
 1329SOL     OW 4522   1.263   1.792  11.782
 1329SOL    HW1 4523   1.309   1.856  11.726
 1329SOL    HW2 4524   1.196   1.844  11.827
 1330SOL     OW 4525   1.021   0.541  11.202
 1330SOL    HW1 4526   0.978   0.625  11.182
 1330SOL    HW2 4527   1.086   0.563  11.270
 1331SOL     OW 4528   0.081   0.574  12.565
 1331SOL    HW1 4529   0.170   0.556  12.535
 1331SOL    HW2 4530   0.091   0.645  12.628
 1332SOL     OW 4531   0.572   0.231  12.331
 1332SOL    HW1 4532   0.593   0.138  12.339
 1332SOL    HW2 4533   0.481   0.237  12.361
 1333SOL     OW 4534   0.871   0.461  11.810
 1333SOL    HW1 4535   0.820   0.514  11.748
 1333SOL    HW2 4536   0.891   0.381  11.762
 1334SOL     OW 4537   0.997   0.039  11.953
 1334SOL    HW1 4538   0.959   0.069  11.871
 1334SOL    HW2 4539   1.008   3.945  11.941
 1335SOL     OW 4540   1.439   1.161  12.029
 1335SOL    HW1 4541   1.368   1.096  12.027
 1335SOL    HW2 4542   1.465   1.171  11.938
 1336SOL     OW 4543   1.465   0.608  12.145
 1336SOL    HW1 4544   1.409   0.530  12.150
 1336SOL    HW2 4545   1.524   0.600  12.219
 1337SOL     OW 4546   1.843   0.819  11.560
 1337SOL    HW1 4547   1.900   0.766  11.616
 1337SOL    HW2 4548   1.815   0.758  11.492
 1338SOL     OW 4549   0.487   1.422  11.331
 1338SOL    HW1 4550   0.411   1.391  11.381
 1338SOL    HW2 4551   0.474   1.387  11.243
 1339SOL     OW 4552   1.671   1.263  11.817
 1339SOL    HW1 4553   1.766   1.261  11.831
 1339SOL    HW2 4554   1.646   1.353  11.838
 1340SOL     OW 4555   1.395   0.577  11.241
 1340SOL    HW1 4556   1.332   0.557  11.310
 1340SOL    HW2 4557   1.480   0.557  11.280
 1341SOL     OW 4558   0.557   0.271  11.489
 1341SOL    HW1 4559   0.606   0.231  11.417
 1341SOL    HW2 4560   0.528   0.355  11.455
 1342SOL     OW 4561   1.750   1.241  12.740
 1342SOL    HW1 4562   1.837   1.203  12.732
 1342SOL    HW2 4563   1.766   1.331  12.768
 1343SOL     OW 4564   1.056   1.354  12.505
 1343SOL    HW1 4565   0.981   1.322  12.555
 1343SOL    HW2 4566   1.131   1.312  12.546
 1344SOL     OW 4567   1.609   1.626  12.827
 1344SOL    HW1 4568   1.602   1.663  12.739
 1344SOL    HW2 4569   1.692   1.579  12.827
 1345SOL     OW 4570   1.133   1.207  12.276
 1345SOL    HW1 4571   1.073   1.245  12.340
 1345SOL    HW2 4572   1.102   1.241  12.191
 1346SOL     OW 4573   1.624   1.096  12.248
 1346SOL    HW1 4574   1.618   1.158  12.321
 1346SOL    HW2 4575   1.547   1.115  12.194
 1347SOL     OW 4576   0.912   0.117  12.573
 1347SOL    HW1 4577   0.932   0.089  12.483
 1347SOL    HW2 4578   0.993   0.158  12.604
 1348SOL     OW 4579   0.984   1.115  12.896
 1348SOL    HW1 4580   0.893   1.132  12.918
 1348SOL    HW2 4581   0.982   1.037  12.840
 1349SOL     OW 4582   0.708   1.062  11.542
 1349SOL    HW1 4583   0.694   1.044  11.636
 1349SOL    HW2 4584   0.784   1.008  11.519
 1350SOL     OW 4585   0.423   0.818  12.425
 1350SOL    HW1 4586   0.491   0.824  12.492
 1350SOL    HW2 4587   0.388   0.729  12.434
 1351SOL     OW 4588   1.265   0.375  12.449
 1351SOL    HW1 4589   1.299   0.453  12.493
 1351SOL    HW2 4590   1.178   0.400  12.420
 1352SOL     OW 4591   0.065   1.580  12.518
 1352SOL    HW1 4592   0.071   1.631  12.437
 1352SOL    HW2 4593   0.156   1.568  12.546
 1353SOL     OW 4594   0.370   1.103  11.654
 1353SOL    HW1 4595   0.364   1.182  11.600
 1353SOL    HW2 4596   0.368   1.031  11.591
 1354SOL     OW 4597   0.554   0.533  12.029
 1354SOL    HW1 4598   0.568   0.592  11.955
 1354SOL    HW2 4599   0.620   0.560  12.093
 1355SOL     OW 4600   1.247   1.349  11.562
 1355SOL    HW1 4601   1.303   1.420  11.594
 1355SOL    HW2 4602   1.160   1.370  11.595
 1356SOL     OW 4603   1.286   1.460  12.320
 1356SOL    HW1 4604   1.342   1.464  12.398
 1356SOL    HW2 4605   1.231   1.383  12.335
 1357SOL     OW 4606   1.574   0.634  11.660
 1357SOL    HW1 4607   1.531   0.689  11.725
 1357SOL    HW2 4608   1.621   0.696  11.604
 1358SOL     OW 4609   0.345   1.527  12.490
 1358SOL    HW1 4610   0.336   1.477  12.409
 1358SOL    HW2 4611   0.440   1.542  12.498
 1359SOL     OW 4612   0.418   0.737  12.773
 1359SOL    HW1 4613   0.481   0.782  12.717
 1359SOL    HW2 4614   0.455   0.650  12.785
 1360SOL     OW 4615   1.605   0.781  12.858
 1360SOL    HW1 4616   1.519   0.823  12.850
 1360SOL    HW2 4617   1.657   0.822  12.789
 1361SOL     OW 4618   1.009   0.137  12.951
 1361SOL    HW1 4619   1.065   0.207  12.918
 1361SOL    HW2 4620   1.001   0.076  12.879
 1362SOL     OW 4621   0.483   0.037  12.937
 1362SOL    HW1 4622   0.490   0.047  12.843
 1362SOL    HW2 4623   0.421   0.105  12.964
 1363SOL     OW 4624   0.585   0.875  12.204
 1363SOL    HW1 4625   0.618   0.965  12.206
 1363SOL    HW2 4626   0.529   0.868  12.281
 1364SOL     OW 4627   1.351   0.858  12.197
 1364SOL    HW1 4628   1.266   0.845  12.155
 1364SOL    HW2 4629   1.396   0.774  12.189
 1365SOL     OW 4630   1.199   0.537  11.429
 1365SOL    HW1 4631   1.208   0.458  11.482
 1365SOL    HW2 4632   1.156   0.600  11.487
 1366SOL     OW 4633   0.311   0.212  12.412
 1366SOL    HW1 4634   0.267   0.248  12.489
 1366SOL    HW2 4635   0.296   0.117  12.418
 1367SOL     OW 4636   0.062   1.306  12.452
 1367SOL    HW1 4637   0.091   1.263  12.533
 1367SOL    HW2 4638   0.053   1.398  12.476
 1368SOL     OW 4639   0.724   0.633  12.224
 1368SOL    HW1 4640   0.799   0.619  12.166
 1368SOL    HW2 4641   0.694   0.722  12.204
 1369SOL     OW 4642   1.738   0.958  13.029
 1369SOL    HW1 4643   1.693   0.895  12.974
 1369SOL    HW2 4644   1.677   0.975  13.101
 1370SOL     OW 4645   0.331   0.055  11.828
 1370SOL    HW1 4646   0.302   0.146  11.829
 1370SOL    HW2 4647   0.296   0.017  11.909
 1371SOL     OW 4648   1.608   0.393  11.552
 1371SOL    HW1 4649   1.565   0.325  11.604
 1371SOL    HW2 4650   1.588   0.474  11.598
 1372SOL     OW 4651   1.030   0.759  12.130
 1372SOL    HW1 4652   1.022   0.776  12.224
 1372SOL    HW2 4653   1.003   0.668  12.120
 1373SOL     OW 4654   0.982   1.566  12.892
 1373SOL    HW1 4655   0.966   1.610  12.808
 1373SOL    HW2 4656   1.025   1.484  12.868
 1374SOL     OW 4657   1.854   1.501  12.775
 1374SOL    HW1 4658   1.870   1.532  12.686
 1374SOL    HW2 4659   1.938   1.512  12.820
 1375SOL     OW 4660   0.354   0.921  12.971
 1375SOL    HW1 4661   0.432   0.942  13.022
 1375SOL    HW2 4662   0.383   0.854  12.910
 1376SOL     OW 4663   1.503   0.274  11.306
 1376SOL    HW1 4664   1.430   0.213  11.318
 1376SOL    HW2 4665   1.517   0.313  11.393
 1377SOL     OW 4666   1.288   0.827  11.200
 1377SOL    HW1 4667   1.330   0.741  11.204
 1377SOL    HW2 4668   1.320   0.866  11.119
 1378SOL     OW 4669   1.067   1.337  12.028
 1378SOL    HW1 4670   1.072   1.265  11.965
 1378SOL    HW2 4671   1.127   1.404  11.993
 1379SOL     OW 4672   0.313   0.802  12.122
 1379SOL    HW1 4673   0.407   0.818  12.116
 1379SOL    HW2 4674   0.306   0.712  12.154
 1380SOL     OW 4675   0.339   0.529  12.188
 1380SOL    HW1 4676   0.297   0.444  12.170
 1380SOL    HW2 4677   0.414   0.532  12.128
 1381SOL     OW 4678   1.134   0.380  12.871
 1381SOL    HW1 4679   1.085   0.435  12.932
 1381SOL    HW2 4680   1.220   0.420  12.866
 1382SOL     OW 4681   1.151   0.225  12.654
 1382SOL    HW1 4682   1.142   0.280  12.732
 1382SOL    HW2 4683   1.177   0.287  12.585
 1383SOL     OW 4684   0.001   1.316  11.354
 1383SOL    HW1 4685   3.907   1.333  11.358
 1383SOL    HW2 4686   0.009   1.223  11.373
 1384SOL     OW 4687   0.078   1.800  12.060
 1384SOL    HW1 4688   0.085   1.704  12.062
 1384SOL    HW2 4689   0.169   1.830  12.065
 1385SOL     OW 4690   0.499   1.571  12.082
 1385SOL    HW1 4691   0.568   1.632  12.108
 1385SOL    HW2 4692   0.542   1.509  12.024
 1386SOL     OW 4693   0.976   0.788  12.396
 1386SOL    HW1 4694   1.033   0.769  12.470
 1386SOL    HW2 4695   0.892   0.749  12.419
 1387SOL     OW 4696   0.034   0.576  12.284
 1387SOL    HW1 4697   0.095   0.522  12.233
 1387SOL    HW2 4698   0.061   0.562  12.375
 1388SOL     OW 4699   0.211   0.516  12.894
 1388SOL    HW1 4700   0.257   0.475  12.820
 1388SOL    HW2 4701   0.165   0.590  12.856
 1389SOL     OW 4702   1.379   0.936  12.828
 1389SOL    HW1 4703   1.401   1.029  12.825
 1389SOL    HW2 4704   1.375   0.909  12.737
 1390SOL     OW 4705   0.819   0.572  11.535
 1390SOL    HW1 4706   0.825   0.496  11.477
 1390SOL    HW2 4707   0.744   0.621  11.502
 1391SOL     OW 4708   1.640   0.602  12.354
 1391SOL    HW1 4709   1.631   0.542  12.428
 1391SOL    HW2 4710   1.727   0.585  12.320
 1392SOL     OW 4711   0.300   1.544  12.896
 1392SOL    HW1 4712   0.253   1.613  12.942
 1392SOL    HW2 4713   0.270   1.463  12.937
 1393SOL     OW 4714   0.712   0.453  12.426
 1393SOL    HW1 4715   0.661   0.375  12.402
 1393SOL    HW2 4716   0.701   0.513  12.353
 1394SOL     OW 4717   0.923   1.679  12.642
 1394SOL    HW1 4718   0.899   1.641  12.558
 1394SOL    HW2 4719   0.918   1.774  12.628
 1395SOL     OW 4720   0.452   0.492  11.370
 1395SOL    HW1 4721   0.517   0.561  11.387
 1395SOL    HW2 4722   0.373   0.539  11.346
 1396SOL     OW 4723   0.155   1.134  12.647
 1396SOL    HW1 4724   0.156   1.084  12.728
 1396SOL    HW2 4725   0.170   1.069  12.578
 1397SOL     OW 4726   1.322   1.044  12.393
 1397SOL    HW1 4727   1.345   0.981  12.325
 1397SOL    HW2 4728   1.255   1.100  12.354
 1398SOL     OW 4729   1.315   0.856  11.476
 1398SOL    HW1 4730   1.240   0.827  11.528
 1398SOL    HW2 4731   1.288   0.843  11.385
 1399SOL     OW 4732   1.742   1.731  12.309
 1399SOL    HW1 4733   1.818   1.754  12.256
 1399SOL    HW2 4734   1.727   1.638  12.291
 1400SOL     OW 4735   1.243   1.734  12.279
 1400SOL    HW1 4736   1.326   1.757  12.237
 1400SOL    HW2 4737   1.251   1.641  12.299
 1401SOL     OW 4738   0.078   1.217  12.199
 1401SOL    HW1 4739   0.084   1.242  12.291
 1401SOL    HW2 4740   3.985   1.227  12.178
 1402SOL     OW 4741   0.680   1.668  12.908
 1402SOL    HW1 4742   0.620   1.743  12.899
 1402SOL    HW2 4743   0.747   1.683  12.841
 1403SOL     OW 4744   1.715   0.124  11.661
 1403SOL    HW1 4745   1.793   0.134  11.606
 1403SOL    HW2 4746   1.706   0.029  11.671
 1404SOL     OW 4747   1.391   1.568  11.660
 1404SOL    HW1 4748   1.446   1.602  11.589
 1404SOL    HW2 4749   1.341   1.644  11.690
 1405SOL     OW 4750   0.175   1.762  13.003
 1405SOL    HW1 4751   0.119   1.711  13.060
 1405SOL    HW2 4752   0.217   1.826  13.061
 1406SOL     OW 4753   1.277   0.928  11.843
 1406SOL    HW1 4754   1.351   0.869  11.855
 1406SOL    HW2 4755   1.312   1.000  11.790
 1407SOL     OW 4756   0.808   1.274  12.599
 1407SOL    HW1 4757   0.780   1.316  12.680
 1407SOL    HW2 4758   0.737   1.291  12.537
 1408SOL     OW 4759   0.670   1.623  11.327
 1408SOL    HW1 4760   0.682   1.636  11.233
 1408SOL    HW2 4761   0.614   1.546  11.335
 1409SOL     OW 4762   1.619   1.730  12.562
 1409SOL    HW1 4763   1.664   1.734  12.478
 1409SOL    HW2 4764   1.607   1.821  12.588
 1410SOL     OW 4765   1.839   0.178  12.138
 1410SOL    HW1 4766   1.872   0.113  12.076
 1410SOL    HW2 4767   1.750   0.197  12.108
 1411SOL     OW 4768   0.275   0.322  11.886
 1411SOL    HW1 4769   0.190   0.357  11.860
 1411SOL    HW2 4770   0.267   0.307  11.980
 1412SOL     OW 4771   1.206   1.603  11.204
 1412SOL    HW1 4772   1.196   1.512  11.230
 1412SOL    HW2 4773   1.140   1.616  11.136
 1413SOL     OW 4774   0.823   1.005  12.546
 1413SOL    HW1 4775   0.867   1.000  12.461
 1413SOL    HW2 4776   0.821   1.099  12.566
 1414SOL     OW 4777   0.915   0.911  11.462
 1414SOL    HW1 4778   0.976   0.943  11.396
 1414SOL    HW2 4779   0.964   0.842  11.508
 1415SOL     OW 4780   1.485   1.623  11.212
 1415SOL    HW1 4781   1.391   1.617  11.195
 1415SOL    HW2 4782   1.524   1.630  11.125
 1416SOL     OW 4783   0.374   1.303  12.664
 1416SOL    HW1 4784   0.359   1.383  12.613
 1416SOL    HW2 4785   0.297   1.248  12.646
 1417SOL     OW 4786   1.607   1.282  12.453
 1417SOL    HW1 4787   1.669   1.270  12.524
 1417SOL    HW2 4788   1.548   1.351  12.484
 1418SOL     OW 4789   1.057   1.109  11.881
 1418SOL    HW1 4790   0.986   1.059  11.918
 1418SOL    HW2 4791   1.121   1.044  11.853
 1419SOL     OW 4792   1.014   0.250  12.142
 1419SOL    HW1 4793   1.005   0.199  12.062
 1419SOL    HW2 4794   1.011   0.184  12.212
 1420SOL     OW 4795   0.607   1.488  11.654
 1420SOL    HW1 4796   0.653   1.439  11.587
 1420SOL    HW2 4797   0.531   1.525  11.608
 1421SOL     OW 4798   1.721   0.394  12.543
 1421SOL    HW1 4799   1.794   0.456  12.548
 1421SOL    HW2 4800   1.754   0.322  12.490
 1422SOL     OW 4801   0.254   1.341  11.466
 1422SOL    HW1 4802   0.160   1.347  11.447
 1422SOL    HW2 4803   0.264   1.380  11.552
 1423SOL     OW 4804   0.108   0.999  12.890
 1423SOL    HW1 4805   0.048   0.993  12.964
 1423SOL    HW2 4806   0.195   0.980  12.927
 1424SOL     OW 4807   0.694   0.255  12.674
 1424SOL    HW1 4808   0.762   0.202  12.632
 1424SOL    HW2 4809   0.723   0.264  12.765
 1425SOL     OW 4810   0.088   0.320  11.198
 1425SOL    HW1 4811   3.993   0.318  11.190
 1425SOL    HW2 4812   0.114   0.402  11.157
 1426SOL     OW 4813   1.426   0.856  12.570
 1426SOL    HW1 4814   1.377   0.918  12.515
 1426SOL    HW2 4815   1.515   0.859  12.535
 1427SOL     OW 4816   0.036   0.171  11.456
 1427SOL    HW1 4817   0.037   0.229  11.380
 1427SOL    HW2 4818   0.112   0.198  11.508
 1428SOL     OW 4819   1.178   1.337  11.289
 1428SOL    HW1 4820   1.087   1.306  11.291
 1428SOL    HW2 4821   1.205   1.337  11.381
 1429SOL     OW 4822   0.621   0.829  12.609
 1429SOL    HW1 4823   0.678   0.904  12.593
 1429SOL    HW2 4824   0.681   0.755  12.617
 1430SOL     OW 4825   1.489   1.787  12.158
 1430SOL    HW1 4826   1.511   1.854  12.092
 1430SOL    HW2 4827   1.572   1.767  12.200
 1431SOL     OW 4828   0.717   0.561  12.879
 1431SOL    HW1 4829   0.763   0.623  12.936
 1431SOL    HW2 4830   0.743   0.475  12.911
 1432SOL     OW 4831   1.473   1.196  12.802
 1432SOL    HW1 4832   1.461   1.211  12.896
 1432SOL    HW2 4833   1.566   1.214  12.786
 1433SOL     OW 4834   0.378   1.744  12.728
 1433SOL    HW1 4835   0.290   1.781  12.716
 1433SOL    HW2 4836   0.362   1.661  12.774
 1434SOL     OW 4837   1.666   0.880  12.428
 1434SOL    HW1 4838   1.662   0.795  12.385
 1434SOL    HW2 4839   1.656   0.944  12.357
 1435SOL     OW 4840   1.223   0.337  11.613
 1435SOL    HW1 4841   1.291   0.270  11.607
 1435SOL    HW2 4842   1.241   0.381  11.696
 1436SOL     OW 4843   0.590   0.737  11.844
 1436SOL    HW1 4844   0.627   0.824  11.828
 1436SOL    HW2 4845   0.523   0.728  11.776
 1437SOL     OW 4846   1.750   0.384  12.815
 1437SOL    HW1 4847   1.732   0.390  12.721
 1437SOL    HW2 4848   1.694   0.313  12.846
 1438SOL     OW 4849   1.747   0.934  12.684
 1438SOL    HW1 4850   1.739   1.028  12.696
 1438SOL    HW2 4851   1.730   0.921  12.591
 1439SOL     OW 4852   0.863   1.365  11.211
 1439SOL    HW1 4853   0.825   1.394  11.294
 1439SOL    HW2 4854   0.879   1.447  11.163
 1440SOL     OW 4855   0.663   1.787  12.113
 1440SOL    HW1 4856   0.643   1.878  12.092
 1440SOL    HW2 4857   0.759   1.781  12.106
 1441SOL     OW 4858   0.869   0.969  12.025
 1441SOL    HW1 4859   0.919   0.897  12.063
 1441SOL    HW2 4860   0.832   1.015  12.100
 1442SOL     OW 4861   1.077   0.989  11.261
 1442SOL    HW1 4862   1.056   1.040  11.183
 1442SOL    HW2 4863   1.152   0.935  11.234
 1443SOL     OW 4864   1.844   1.541  12.009
 1443SOL    HW1 4865   1.762   1.541  11.960
 1443SOL    HW2 4866   1.829   1.482  12.083
 1444SOL     OW 4867   0.227   1.304  13.028
 1444SOL    HW1 4868   0.153   1.250  13.001
 1444SOL    HW2 4869   0.214   1.317  13.122
 1445SOL     OW 4870   0.124   1.282  11.895
 1445SOL    HW1 4871   0.138   1.230  11.974
 1445SOL    HW2 4872   0.106   1.217  11.826
 1446SOL     OW 4873   0.682   1.406  12.802
 1446SOL    HW1 4874   0.602   1.363  12.833
 1446SOL    HW2 4875   0.678   1.494  12.839
 1447SOL     OW 4876   1.810   0.183  12.410
 1447SOL    HW1 4877   1.814   0.089  12.426
 1447SOL    HW2 4878   1.826   0.192  12.316
 1448SOL     OW 4879   0.445   0.438  11.703
 1448SOL    HW1 4880   0.464   0.362  11.648
 1448SOL    HW2 4881   0.390   0.403  11.773
 1449SOL     OW 4882   1.701   1.471  12.257
 1449SOL    HW1 4883   1.618   1.454  12.213
 1449SOL    HW2 4884   1.705   1.405  12.326
 1450SOL     OW 4885   0.334   0.558  12.465
 1450SOL    HW1 4886   0.390   0.502  12.518
 1450SOL    HW2 4887   0.349   0.529  12.375
 1451SOL     OW 4888   0.830   1.579  11.847
 1451SOL    HW1 4889   0.813   1.642  11.777
 1451SOL    HW2 4890   0.754   1.520  11.845
 1452SOL     OW 4891   1.460   0.255  12.282
 1452SOL    HW1 4892   1.478   0.168  12.319
 1452SOL    HW2 4893   1.405   0.297  12.348
 1453SOL     OW 4894   1.003   0.027  12.318
 1453SOL    HW1 4895   0.922   3.994  12.280
 1453SOL    HW2 4896   1.059   3.950  12.327
 1454SOL     OW 4897   0.773   1.333  11.491
 1454SOL    HW1 4898   0.745   1.242  11.497
 1454SOL    HW2 4899   0.855   1.337  11.540
 1455SOL     OW 4900   0.620   1.557  12.458
 1455SOL    HW1 4901   0.622   1.639  12.507
 1455SOL    HW2 4902   0.708   1.549  12.421
 1456SOL     OW 4903   1.309   0.074  11.337
 1456SOL    HW1 4904   1.321   3.992  11.289
 1456SOL    HW2 4905   1.224   0.064  11.380
 1457SOL     OW 4906   1.281   0.457  11.857
 1457SOL    HW1 4907   1.234   0.540  11.851
 1457SOL    HW2 4908   1.283   0.437  11.950
 1458SOL     OW 4909   1.588   0.210  12.040
 1458SOL    HW1 4910   1.539   0.234  12.118
 1458SOL    HW2 4911   1.588   0.289  11.986
 1459SOL     OW 4912   0.047   1.048  11.414
 1459SOL    HW1 4913   0.141   1.032  11.405
 1459SOL    HW2 4914   0.011   0.963  11.440
 1460SOL     OW 4915   0.888   1.657  11.511
 1460SOL    HW1 4916   0.813   1.641  11.453
 1460SOL    HW2 4917   0.859   1.730  11.566
 1461SOL     OW 4918   0.231   0.629  13.150
 1461SOL    HW1 4919   0.137   0.632  13.171
 1461SOL    HW2 4920   0.234   0.599  13.060
 1462SOL     OW 4921   0.284   0.254   0.143
 1462SOL    HW1 4922   0.336   0.321   0.187
 1462SOL    HW2 4923   0.206   0.300   0.111
 1463SOL     OW 4924   0.019   0.380  13.667
 1463SOL    HW1 4925   3.929   0.403  13.644
 1463SOL    HW2 4926   0.028   0.288  13.642
 1464SOL     OW 4927   1.522   1.497  13.731
 1464SOL    HW1 4928   1.469   1.424  13.763
 1464SOL    HW2 4929   1.479   1.522  13.649
 1465SOL     OW 4930   1.132   0.698  13.731
 1465SOL    HW1 4931   1.184   0.775  13.708
 1465SOL    HW2 4932   1.076   0.727  13.803
 1466SOL     OW 4933   1.772   0.617  13.256
 1466SOL    HW1 4934   1.747   0.612  13.164
 1466SOL    HW2 4935   1.756   0.529  13.290
 1467SOL     OW 4936   0.687   1.011  13.670
 1467SOL    HW1 4937   0.740   0.991  13.748
 1467SOL    HW2 4938   0.614   1.062  13.703
 1468SOL     OW 4939   1.615   0.453  13.757
 1468SOL    HW1 4940   1.531   0.474  13.717
 1468SOL    HW2 4941   1.645   0.537  13.794
 1469SOL     OW 4942   0.217   1.714  13.484
 1469SOL    HW1 4943   0.236   1.787  13.543
 1469SOL    HW2 4944   0.295   1.707  13.430
 1470SOL     OW 4945   0.250   1.445  13.571
 1470SOL    HW1 4946   0.220   1.536  13.560
 1470SOL    HW2 4947   0.186   1.406  13.631
 1471SOL     OW 4948   0.257   1.074   0.017
 1471SOL    HW1 4949   0.275   1.035   0.102
 1471SOL    HW2 4950   0.216   1.158   0.037
 1472SOL     OW 4951   0.575   0.986  13.171
 1472SOL    HW1 4952   0.624   1.030  13.102
 1472SOL    HW2 4953   0.616   1.017  13.252
 1473SOL     OW 4954   0.147   0.653  13.609
 1473SOL    HW1 4955   0.089   0.578  13.601
 1473SOL    HW2 4956   0.101   0.713  13.668
 1474SOL     OW 4957   0.044   1.590  13.172
 1474SOL    HW1 4958   0.038   1.498  13.198
 1474SOL    HW2 4959   3.961   1.629  13.201
 1475SOL     OW 4960   1.685   0.916  13.668
 1475SOL    HW1 4961   1.770   0.880  13.644
 1475SOL    HW2 4962   1.662   0.973  13.594
 1476SOL     OW 4963   1.649   1.104  13.460
 1476SOL    HW1 4964   1.735   1.105  13.418
 1476SOL    HW2 4965   1.655   1.169  13.530
 1477SOL     OW 4966   0.614   1.387  13.761
 1477SOL    HW1 4967   0.563   1.307  13.778
 1477SOL    HW2 4968   0.583   1.416  13.675
 1478SOL     OW 4969   0.822   0.005  13.549
 1478SOL    HW1 4970   0.866   0.086  13.523
 1478SOL    HW2 4971   0.729   0.026  13.546
 1479SOL     OW 4972   1.530   0.996  13.234
 1479SOL    HW1 4973   1.461   0.938  13.267
 1479SOL    HW2 4974   1.572   1.031  13.313
 1480SOL     OW 4975   1.659   1.736  13.593
 1480SOL    HW1 4976   1.629   1.700  13.509
 1480SOL    HW2 4977   1.656   1.661  13.653
 1481SOL     OW 4978   0.594   0.718  13.298
 1481SOL    HW1 4979   0.599   0.802  13.253
 1481SOL    HW2 4980   0.531   0.731  13.369
 1482SOL     OW 4981   1.239   0.340   0.053
 1482SOL    HW1 4982   1.149   0.328   0.084
 1482SOL    HW2 4983   1.292   0.291   0.116
 1483SOL     OW 4984   1.578   1.675  13.329
 1483SOL    HW1 4985   1.669   1.694  13.305
 1483SOL    HW2 4986   1.536   1.651  13.246
 1484SOL     OW 4987   1.050   0.697  13.459
 1484SOL    HW1 4988   1.065   0.684  13.552
 1484SOL    HW2 4989   0.968   0.651  13.441
 1485SOL     OW 4990   0.078   0.842  13.806
 1485SOL    HW1 4991   0.156   0.821  13.857
 1485SOL    HW2 4992   0.078   0.938  13.802
 1486SOL     OW 4993   0.894   0.352  13.231
 1486SOL    HW1 4994   0.936   0.412  13.170
 1486SOL    HW2 4995   0.893   0.268  13.185
 1487SOL     OW 4996   1.364   1.135  13.551
 1487SOL    HW1 4997   1.454   1.135  13.517
 1487SOL    HW2 4998   1.321   1.206  13.503
 1488SOL     OW 4999   0.998   1.440  13.501
 1488SOL    HW1 5000   0.969   1.516  13.452
 1488SOL    HW2 5001   0.965   1.454  13.590
 1489SOL     OW 5002   0.410   1.800  13.858
 1489SOL    HW1 5003   0.411   1.705  13.867
 1489SOL    HW2 5004   0.492   1.829  13.896
 1490SOL     OW 5005   1.789   1.044  13.900
 1490SOL    HW1 5006   1.733   1.038  13.822
 1490SOL    HW2 5007   1.728   1.041   0.073
 1491SOL     OW 5008   0.310   0.953  13.276
 1491SOL    HW1 5009   0.393   0.976  13.234
 1491SOL    HW2 5010   0.298   0.861  13.256
 1492SOL     OW 5011   1.492   0.734  13.753
 1492SOL    HW1 5012   1.481   0.695  13.839
 1492SOL    HW2 5013   1.562   0.799  13.765
 1493SOL     OW 5014   1.123   1.776  13.264
 1493SOL    HW1 5015   1.047   1.738  13.308
 1493SOL    HW2 5016   1.146   1.713  13.196
 1494SOL     OW 5017   1.628   1.381  13.122
 1494SOL    HW1 5018   1.585   1.466  13.106
 1494SOL    HW2 5019   1.560   1.316  13.103
 1495SOL     OW 5020   0.466   1.739  13.349
 1495SOL    HW1 5021   0.508   1.794  13.415
 1495SOL    HW2 5022   0.539   1.704  13.297
 1496SOL     OW 5023   1.429   0.161  13.445
 1496SOL    HW1 5024   1.392   0.109  13.373
 1496SOL    HW2 5025   1.520   0.132  13.451
 1497SOL     OW 5026   0.918   1.687   0.011
 1497SOL    HW1 5027   0.943   1.619   0.073
 1497SOL    HW2 5028   0.883   1.639  13.836
 1498SOL     OW 5029   0.399   0.697  13.502
 1498SOL    HW1 5030   0.426   0.606  13.515
 1498SOL    HW2 5031   0.308   0.699  13.531
 1499SOL     OW 5032   0.646   0.129  13.137
 1499SOL    HW1 5033   0.668   0.045  13.176
 1499SOL    HW2 5034   0.585   0.108  13.067
 1500SOL     OW 5035   0.551   0.054  13.521
 1500SOL    HW1 5036   0.474   0.058  13.577
 1500SOL    HW2 5037   0.550   0.137  13.473
 1501SOL     OW 5038   1.428   1.199  13.074
 1501SOL    HW1 5039   1.457   1.123  13.125
 1501SOL    HW2 5040   1.342   1.221  13.111
 1502SOL     OW 5041   0.347   0.049  13.235
 1502SOL    HW1 5042   0.359   0.093  13.151
 1502SOL    HW2 5043   0.436   0.033  13.266
 1503SOL     OW 5044   0.943   0.250  13.492
 1503SOL    HW1 5045   0.916   0.290  13.410
 1503SOL    HW2 5046   1.038   0.257  13.493
 1504SOL     OW 5047   0.470   1.144  13.765
 1504SOL    HW1 5048   0.399   1.121  13.824
 1504SOL    HW2 5049   0.433   1.134  13.677
 1505SOL     OW 5050   1.267   1.796  13.634
 1505SOL    HW1 5051   1.307   1.866  13.583
 1505SOL    HW2 5052   1.197   1.839  13.683
 1506SOL     OW 5053   1.021   0.541  13.064
 1506SOL    HW1 5054   0.978   0.625  13.044
 1506SOL    HW2 5055   1.086   0.563  13.131
 1507SOL     OW 5056   0.900   0.474  13.670
 1507SOL    HW1 5057   0.829   0.519  13.624
 1507SOL    HW2 5058   0.907   0.389  13.626
 1508SOL     OW 5059   1.002   0.038  13.793
 1508SOL    HW1 5060   0.970   0.063  13.707
 1508SOL    HW2 5061   1.024   3.945  13.784
 1509SOL     OW 5062   1.844   0.819  13.418
 1509SOL    HW1 5063   1.903   0.768  13.473
 1509SOL    HW2 5064   1.815   0.758  13.350
 1510SOL     OW 5065   0.487   1.422  13.193
 1510SOL    HW1 5066   0.411   1.391  13.243
 1510SOL    HW2 5067   0.473   1.388  13.105
 1511SOL     OW 5068   1.682   1.272  13.662
 1511SOL    HW1 5069   1.775   1.267  13.686
 1511SOL    HW2 5070   1.651   1.354  13.701
 1512SOL     OW 5071   1.395   0.577  13.104
 1512SOL    HW1 5072   1.332   0.556  13.173
 1512SOL    HW2 5073   1.480   0.555  13.141
 1513SOL     OW 5074   0.558   0.272  13.352
 1513SOL    HW1 5075   0.605   0.229  13.280
 1513SOL    HW2 5076   0.528   0.355  13.315
 1514SOL     OW 5077   0.708   1.063  13.399
 1514SOL    HW1 5078   0.694   1.048  13.493
 1514SOL    HW2 5079   0.785   1.010  13.377
 1515SOL     OW 5080   0.371   1.104  13.514
 1515SOL    HW1 5081   0.365   1.185  13.463
 1515SOL    HW2 5082   0.369   1.034  13.448
 1516SOL     OW 5083   0.565   0.540  13.863
 1516SOL    HW1 5084   0.577   0.607  13.796
 1516SOL    HW2 5085   0.625   0.565   0.033
 1517SOL     OW 5086   1.245   1.353  13.419
 1517SOL    HW1 5087   1.299   1.426  13.447
 1517SOL    HW2 5088   1.158   1.372  13.454
 1518SOL     OW 5089   1.584   0.634  13.513
 1518SOL    HW1 5090   1.544   0.683  13.585
 1518SOL    HW2 5091   1.625   0.701  13.458
 1519SOL     OW 5092   1.200   0.533  13.293
 1519SOL    HW1 5093   1.207   0.454  13.346
 1519SOL    HW2 5094   1.156   0.596  13.350
 1520SOL     OW 5095   0.336   0.049  13.680
 1520SOL    HW1 5096   0.312   0.141  13.691
 1520SOL    HW2 5097   0.275   0.001  13.737
 1521SOL     OW 5098   1.592   0.392  13.406
 1521SOL    HW1 5099   1.566   0.327  13.471
 1521SOL    HW2 5100   1.581   0.476  13.451
 1522SOL     OW 5101   1.503   0.279  13.166
 1522SOL    HW1 5102   1.431   0.217  13.181
 1522SOL    HW2 5103   1.518   0.319  13.251
 1523SOL     OW 5104   1.287   0.826  13.062
 1523SOL    HW1 5105   1.330   0.741  13.066
 1523SOL    HW2 5106   1.320   0.866  12.980
 1524SOL     OW 5107   0.000   1.317  13.215
 1524SOL    HW1 5108   3.906   1.333  13.219
 1524SOL    HW2 5109   0.009   1.223  13.232
 1525SOL     OW 5110   0.819   0.575  13.388
 1525SOL    HW1 5111   0.823   0.497  13.334
 1525SOL    HW2 5112   0.741   0.622  13.356
 1526SOL     OW 5113   0.451   0.492  13.232
 1526SOL    HW1 5114   0.515   0.561  13.249
 1526SOL    HW2 5115   0.371   0.539  13.208
 1527SOL     OW 5116   1.316   0.851  13.337
 1527SOL    HW1 5117   1.239   0.827  13.388
 1527SOL    HW2 5118   1.289   0.840  13.246
 1528SOL     OW 5119   1.695   0.115  13.457
 1528SOL    HW1 5120   1.787   0.131  13.437
 1528SOL    HW2 5121   1.696   0.045  13.523
 1529SOL     OW 5122   1.384   1.575  13.508
 1529SOL    HW1 5123   1.439   1.613  13.440
 1529SOL    HW2 5124   1.336   1.650  13.545
 1530SOL     OW 5125   1.290   0.913  13.684
 1530SOL    HW1 5126   1.367   0.858  13.671
 1530SOL    HW2 5127   1.312   0.996  13.641
 1531SOL     OW 5128   0.670   1.623  13.189
 1531SOL    HW1 5129   0.682   1.636  13.095
 1531SOL    HW2 5130   0.614   1.546  13.196
 1532SOL     OW 5131   1.825   0.176   0.066
 1532SOL    HW1 5132   1.864   0.090   0.056
 1532SOL    HW2 5133   1.734   0.165   0.038
 1533SOL     OW 5134   0.288   0.309  13.736
 1533SOL    HW1 5135   0.207   0.354  13.710
 1533SOL    HW2 5136   0.294   0.324  13.831
 1534SOL     OW 5137   1.206   1.603  13.066
 1534SOL    HW1 5138   1.196   1.511  13.091
 1534SOL    HW2 5139   1.140   1.616  12.997
 1535SOL     OW 5140   0.919   0.913  13.329
 1535SOL    HW1 5141   0.978   0.943  13.260
 1535SOL    HW2 5142   0.965   0.840  13.370
 1536SOL     OW 5143   1.485   1.623  13.074
 1536SOL    HW1 5144   1.391   1.617  13.057
 1536SOL    HW2 5145   1.524   1.630  12.987
 1537SOL     OW 5146   1.050   1.090  13.756
 1537SOL    HW1 5147   0.963   1.054  13.740
 1537SOL    HW2 5148   1.105   1.054  13.686
 1538SOL     OW 5149   0.601   1.493  13.505
 1538SOL    HW1 5150   0.648   1.441  13.439
 1538SOL    HW2 5151   0.526   1.530  13.458
 1539SOL     OW 5152   0.253   1.340  13.325
 1539SOL    HW1 5153   0.159   1.347  13.306
 1539SOL    HW2 5154   0.263   1.379  13.412
 1540SOL     OW 5155   0.088   0.321  13.060
 1540SOL    HW1 5156   3.992   0.319  13.051
 1540SOL    HW2 5157   0.114   0.403  13.018
 1541SOL     OW 5158   0.042   0.172  13.305
 1541SOL    HW1 5159   0.045   0.231  13.230
 1541SOL    HW2 5160   0.118   0.197  13.358
 1542SOL     OW 5161   1.177   1.336  13.149
 1542SOL    HW1 5162   1.086   1.307  13.151
 1542SOL    HW2 5163   1.204   1.338  13.241
 1543SOL     OW 5164   1.220   0.332  13.482
 1543SOL    HW1 5165   1.289   0.266  13.472
 1543SOL    HW2 5166   1.246   0.382  13.559
 1544SOL     OW 5167   0.594   0.750  13.691
 1544SOL    HW1 5168   0.628   0.838  13.673
 1544SOL    HW2 5169   0.524   0.737  13.627
 1545SOL     OW 5170   0.864   1.365  13.073
 1545SOL    HW1 5171   0.825   1.393  13.156
 1545SOL    HW2 5172   0.879   1.447  13.025
 1546SOL     OW 5173   0.660   1.855   0.059
 1546SOL    HW1 5174   0.678   1.948   0.044
 1546SOL    HW2 5175   0.747   1.816   0.073
 1547SOL     OW 5176   0.825   0.965  13.898
 1547SOL    HW1 5177   0.848   0.882   0.038
 1547SOL    HW2 5178   0.858   1.031   0.059
 1548SOL     OW 5179   1.076   0.987  13.123
 1548SOL    HW1 5180   1.055   1.039  13.046
 1548SOL    HW2 5181   1.151   0.933  13.096
 1549SOL     OW 5182   0.116   1.277  13.760
 1549SOL    HW1 5183   0.050   1.237  13.818
 1549SOL    HW2 5184   0.120   1.218  13.685
 1550SOL     OW 5185   0.452   0.441  13.557
 1550SOL    HW1 5186   0.477   0.367  13.502
 1550SOL    HW2 5187   0.405   0.401  13.630
 1551SOL     OW 5188   1.706   1.498   0.325
 1551SOL    HW1 5189   1.672   1.451   0.249
 1551SOL    HW2 5190   1.767   1.438   0.366
 1552SOL     OW 5191   0.821   1.551  13.703
 1552SOL    HW1 5192   0.791   1.607  13.632
 1552SOL    HW2 5193   0.747   1.493  13.721
 1553SOL     OW 5194   0.772   1.334  13.348
 1553SOL    HW1 5195   0.744   1.243  13.356
 1553SOL    HW2 5196   0.853   1.339  13.400
 1554SOL     OW 5197   1.311   0.077  13.207
 1554SOL    HW1 5198   1.334   3.999  13.157
 1554SOL    HW2 5199   1.222   0.061  13.238
 1555SOL     OW 5200   1.291   0.459  13.715
 1555SOL    HW1 5201   1.242   0.541  13.714
 1555SOL    HW2 5202   1.284   0.428  13.805
 1556SOL     OW 5203   0.047   1.048  13.271
 1556SOL    HW1 5204   0.141   1.032  13.263
 1556SOL    HW2 5205   0.011   0.965  13.301
 1557SOL     OW 5206   0.888   1.657  13.373
 1557SOL    HW1 5207   0.813   1.641  13.315
 1557SOL    HW2 5208   0.860   1.728  13.430
 1558SOL     OW 5209   0.230   2.515   0.120
 1558SOL    HW1 5210   0.136   2.507   0.133
 1558SOL    HW2 5211   0.247   2.473   0.036
 1559SOL     OW 5212   0.229   2.134   0.987
 1559SOL    HW1 5213   0.250   2.100   1.074
 1559SOL    HW2 5214   0.134   2.127   0.981
 1560SOL     OW 5215   0.009   2.223   0.630
 1560SOL    HW1 5216   3.923   2.241   0.666
 1560SOL    HW2 5217   3.992   2.192   0.541
 1561SOL     OW 5218   0.580   3.152   1.192
 1561SOL    HW1 5219   0.494   3.155   1.150
 1561SOL    HW2 5220   0.595   3.241   1.225
 1562SOL     OW 5221   1.565   3.372   0.708
 1562SOL    HW1 5222   1.521   3.349   0.790
 1562SOL    HW2 5223   1.496   3.374   0.643
 1563SOL     OW 5224   1.132   2.560   0.699
 1563SOL    HW1 5225   1.181   2.641   0.685
 1563SOL    HW2 5226   1.085   2.573   0.781
 1564SOL     OW 5227   1.763   2.461   0.228
 1564SOL    HW1 5228   1.793   2.409   0.154
 1564SOL    HW2 5229   1.719   2.398   0.285
 1565SOL     OW 5230   0.751   3.000   1.043
 1565SOL    HW1 5231   0.688   3.036   1.105
 1565SOL    HW2 5232   0.788   3.076   0.998
 1566SOL     OW 5233   0.871   2.629   1.823
 1566SOL    HW1 5234   0.863   2.700   1.887
 1566SOL    HW2 5235   0.894   2.673   1.741
 1567SOL     OW 5236   0.684   2.861   0.647
 1567SOL    HW1 5237   0.751   2.852   0.715
 1567SOL    HW2 5238   0.616   2.915   0.687
 1568SOL     OW 5239   0.712   3.011   1.817
 1568SOL    HW1 5240   0.760   3.089   1.847
 1568SOL    HW2 5241   0.632   3.046   1.779
 1569SOL     OW 5242   0.351   3.263   1.077
 1569SOL    HW1 5243   0.268   3.249   1.031
 1569SOL    HW2 5244   0.401   3.321   1.021
 1570SOL     OW 5245   1.460   3.363   1.358
 1570SOL    HW1 5246   1.514   3.442   1.368
 1570SOL    HW2 5247   1.393   3.371   1.426
 1571SOL     OW 5248   0.450   2.259   1.485
 1571SOL    HW1 5249   0.526   2.201   1.490
 1571SOL    HW2 5250   0.374   2.203   1.500
 1572SOL     OW 5251   1.607   2.301   0.734
 1572SOL    HW1 5252   1.524   2.322   0.690
 1572SOL    HW2 5253   1.625   2.377   0.790
 1573SOL     OW 5254   0.225   3.572   0.471
 1573SOL    HW1 5255   0.219   3.657   0.515
 1573SOL    HW2 5256   0.301   3.580   0.413
 1574SOL     OW 5257   1.138   3.204   1.694
 1574SOL    HW1 5258   1.178   3.197   1.780
 1574SOL    HW2 5259   1.085   3.124   1.686
 1575SOL     OW 5260   0.244   3.308   0.543
 1575SOL    HW1 5261   0.223   3.400   0.527
 1575SOL    HW2 5262   0.170   3.275   0.594
 1576SOL     OW 5263   0.247   2.927   0.883
 1576SOL    HW1 5264   0.269   2.843   0.922
 1576SOL    HW2 5265   0.195   2.972   0.949
 1577SOL     OW 5266   0.610   3.648   1.427
 1577SOL    HW1 5267   0.528   3.634   1.474
 1577SOL    HW2 5268   0.637   3.737   1.451
 1578SOL     OW 5269   0.560   2.843   0.167
 1578SOL    HW1 5270   0.589   2.884   0.085
 1578SOL    HW2 5271   0.616   2.883   0.234
 1579SOL     OW 5272   1.597   1.993   1.464
 1579SOL    HW1 5273   1.592   2.080   1.423
 1579SOL    HW2 5274   1.586   2.011   1.558
 1580SOL     OW 5275   0.141   2.520   0.572
 1580SOL    HW1 5276   0.088   2.440   0.573
 1580SOL    HW2 5277   0.107   2.573   0.644
 1581SOL     OW 5278   1.838   3.603   0.337
 1581SOL    HW1 5279   1.901   3.570   0.401
 1581SOL    HW2 5280   1.861   3.696   0.326
 1582SOL     OW 5281   0.029   3.468   0.138
 1582SOL    HW1 5282   0.035   3.375   0.157
 1582SOL    HW2 5283   3.936   3.488   0.139
 1583SOL     OW 5284   1.687   2.779   0.644
 1583SOL    HW1 5285   1.770   2.736   0.620
 1583SOL    HW2 5286   1.665   2.832   0.568
 1584SOL     OW 5287   1.648   2.965   0.432
 1584SOL    HW1 5288   1.735   2.968   0.392
 1584SOL    HW2 5289   1.652   3.030   0.503
 1585SOL     OW 5290   0.141   2.615   1.589
 1585SOL    HW1 5291   0.237   2.610   1.585
 1585SOL    HW2 5292   0.122   2.702   1.623
 1586SOL     OW 5293   0.616   3.248   0.735
 1586SOL    HW1 5294   0.568   3.166   0.744
 1586SOL    HW2 5295   0.600   3.275   0.645
 1587SOL     OW 5296   1.286   3.098   1.422
 1587SOL    HW1 5297   1.318   3.031   1.362
 1587SOL    HW2 5298   1.346   3.094   1.497
 1588SOL     OW 5299   0.823   1.863   0.513
 1588SOL    HW1 5300   0.863   1.947   0.490
 1588SOL    HW2 5301   0.729   1.881   0.519
 1589SOL     OW 5302   0.184   2.811   1.281
 1589SOL    HW1 5303   0.272   2.776   1.268
 1589SOL    HW2 5304   0.133   2.775   1.209
 1590SOL     OW 5305   1.529   2.862   0.205
 1590SOL    HW1 5306   1.461   2.803   0.239
 1590SOL    HW2 5307   1.571   2.897   0.284
 1591SOL     OW 5308   1.219   3.667   1.628
 1591SOL    HW1 5309   1.195   3.728   1.558
 1591SOL    HW2 5310   1.220   3.581   1.585
 1592SOL     OW 5311   0.342   2.109   1.817
 1592SOL    HW1 5312   0.378   2.198   1.825
 1592SOL    HW2 5313   0.250   2.118   1.842
 1593SOL     OW 5314   1.466   3.281   0.949
 1593SOL    HW1 5315   1.399   3.296   1.016
 1593SOL    HW2 5316   1.453   3.190   0.923
 1594SOL     OW 5317   1.659   3.601   0.589
 1594SOL    HW1 5318   1.643   3.577   0.497
 1594SOL    HW2 5319   1.634   3.523   0.639
 1595SOL     OW 5320   0.597   2.577   0.267
 1595SOL    HW1 5321   0.598   2.661   0.220
 1595SOL    HW2 5322   0.536   2.591   0.339
 1596SOL     OW 5323   1.279   2.224   0.934
 1596SOL    HW1 5324   1.191   2.188   0.945
 1596SOL    HW2 5325   1.334   2.168   0.989
 1597SOL     OW 5326   1.561   3.593   0.315
 1597SOL    HW1 5327   1.657   3.592   0.313
 1597SOL    HW2 5328   1.535   3.561   0.228
 1598SOL     OW 5329   0.791   2.480   1.450
 1598SOL    HW1 5330   0.765   2.454   1.538
 1598SOL    HW2 5331   0.754   2.412   1.393
 1599SOL     OW 5332   1.393   2.335   1.677
 1599SOL    HW1 5333   1.395   2.381   1.760
 1599SOL    HW2 5334   1.455   2.263   1.687
 1600SOL     OW 5335   0.951   2.748   1.584
 1600SOL    HW1 5336   1.006   2.679   1.547
 1600SOL    HW2 5337   0.903   2.783   1.510
 1601SOL     OW 5338   0.993   2.273   1.236
 1601SOL    HW1 5339   0.905   2.292   1.268
 1601SOL    HW2 5340   0.979   2.229   1.152
 1602SOL     OW 5341   1.052   2.563   0.429
 1602SOL    HW1 5342   1.070   2.555   0.523
 1602SOL    HW2 5343   0.969   2.518   0.416
 1603SOL     OW 5344   0.082   2.691   0.790
 1603SOL    HW1 5345   0.156   2.661   0.844
 1603SOL    HW2 5346   0.101   2.784   0.775
 1604SOL     OW 5347   0.127   3.719   1.579
 1604SOL    HW1 5348   0.135   3.687   1.669
 1604SOL    HW2 5349   0.035   3.706   1.557
 1605SOL     OW 5350   0.869   2.222   0.216
 1605SOL    HW1 5351   0.907   2.284   0.153
 1605SOL    HW2 5352   0.884   2.136   0.177
 1606SOL     OW 5353   1.670   2.444   1.835
 1606SOL    HW1 5354   1.647   2.516   1.775
 1606SOL    HW2 5355   1.718   2.382   1.781
 1607SOL     OW 5356   1.379   3.004   0.543
 1607SOL    HW1 5357   1.457   2.992   0.489
 1607SOL    HW2 5358   1.326   3.067   0.494
 1608SOL     OW 5359   0.546   2.040   0.895
 1608SOL    HW1 5360   0.553   2.071   0.985
 1608SOL    HW2 5361   0.547   2.120   0.842
 1609SOL     OW 5362   1.002   3.305   0.474
 1609SOL    HW1 5363   0.971   3.379   0.424
 1609SOL    HW2 5364   0.980   3.326   0.565
 1610SOL     OW 5365   0.359   3.671   0.864
 1610SOL    HW1 5366   0.439   3.620   0.877
 1610SOL    HW2 5367   0.387   3.762   0.873
 1611SOL     OW 5368   1.800   2.913   0.871
 1611SOL    HW1 5369   1.746   2.897   0.793
 1611SOL    HW2 5370   1.737   2.921   0.942
 1612SOL     OW 5371   1.228   3.399   1.511
 1612SOL    HW1 5372   1.215   3.327   1.573
 1612SOL    HW2 5373   1.158   3.388   1.446
 1613SOL     OW 5374   0.308   2.792   0.242
 1613SOL    HW1 5375   0.399   2.806   0.215
 1613SOL    HW2 5376   0.295   2.697   0.235
 1614SOL     OW 5377   1.481   2.606   0.723
 1614SOL    HW1 5378   1.476   2.567   0.810
 1614SOL    HW2 5379   1.558   2.663   0.727
 1615SOL     OW 5380   0.469   3.122   1.737
 1615SOL    HW1 5381   0.443   3.131   1.645
 1615SOL    HW2 5382   0.387   3.126   1.785
 1616SOL     OW 5383   1.127   3.639   0.231
 1616SOL    HW1 5384   1.062   3.594   0.285
 1616SOL    HW2 5385   1.153   3.574   0.166
 1617SOL     OW 5386   0.204   2.133   1.508
 1617SOL    HW1 5387   0.114   2.166   1.503
 1617SOL    HW2 5388   0.195   2.046   1.546
 1618SOL     OW 5389   1.635   3.237   0.087
 1618SOL    HW1 5390   1.601   3.320   0.053
 1618SOL    HW2 5391   1.567   3.174   0.068
 1619SOL     OW 5392   0.465   3.604   0.321
 1619SOL    HW1 5393   0.503   3.666   0.384
 1619SOL    HW2 5394   0.540   3.570   0.273
 1620SOL     OW 5395   1.403   1.968   0.432
 1620SOL    HW1 5396   1.385   1.952   0.340
 1620SOL    HW2 5397   1.489   1.930   0.447
 1621SOL     OW 5398   0.254   3.657   1.225
 1621SOL    HW1 5399   0.297   3.589   1.277
 1621SOL    HW2 5400   0.252   3.621   1.136
 1622SOL     OW 5401   0.938   3.564   0.899
 1622SOL    HW1 5402   1.016   3.513   0.921
 1622SOL    HW2 5403   0.895   3.514   0.830
 1623SOL     OW 5404   0.398   2.556   0.471
 1623SOL    HW1 5405   0.421   2.464   0.484
 1623SOL    HW2 5406   0.307   2.562   0.499
 1624SOL     OW 5407   1.534   2.086   1.725
 1624SOL    HW1 5408   1.546   2.106   1.818
 1624SOL    HW2 5409   1.462   2.023   1.723
 1625SOL     OW 5410   0.765   2.141   1.755
 1625SOL    HW1 5411   0.844   2.088   1.752
 1625SOL    HW2 5412   0.719   2.111   1.833
 1626SOL     OW 5413   0.876   3.383   1.194
 1626SOL    HW1 5414   0.859   3.346   1.107
 1626SOL    HW2 5415   0.946   3.328   1.230
 1627SOL     OW 5416   1.340   2.451   1.432
 1627SOL    HW1 5417   1.370   2.420   1.518
 1627SOL    HW2 5418   1.376   2.539   1.425
 1628SOL     OW 5419   0.818   3.253   0.943
 1628SOL    HW1 5420   0.903   3.241   0.900
 1628SOL    HW2 5421   0.755   3.256   0.870
 1629SOL     OW 5422   0.928   2.371   0.901
 1629SOL    HW1 5423   0.904   2.363   0.809
 1629SOL    HW2 5424   0.959   2.284   0.926
 1630SOL     OW 5425   0.558   1.922   0.502
 1630SOL    HW1 5426   0.477   1.920   0.552
 1630SOL    HW2 5427   0.550   1.999   0.447
 1631SOL     OW 5428   1.431   3.070   0.044
 1631SOL    HW1 5429   1.450   2.990   0.092
 1631SOL    HW2 5430   1.339   3.089   0.064
 1632SOL     OW 5431   0.261   1.872   0.215
 1632SOL    HW1 5432   0.291   1.957   0.181
 1632SOL    HW2 5433   0.341   1.826   0.238
 1633SOL     OW 5434   0.943   2.109   0.460
 1633SOL    HW1 5435   0.911   2.149   0.380
 1633SOL    HW2 5436   1.037   2.128   0.462
 1634SOL     OW 5437   1.080   2.545   1.458
 1634SOL    HW1 5438   1.014   2.476   1.463
 1634SOL    HW2 5439   1.164   2.498   1.452
 1635SOL     OW 5440   1.220   3.434   0.795
 1635SOL    HW1 5441   1.236   3.499   0.727
 1635SOL    HW2 5442   1.291   3.448   0.858
 1636SOL     OW 5443   0.465   3.013   0.732
 1636SOL    HW1 5444   0.395   2.989   0.792
 1636SOL    HW2 5445   0.428   3.000   0.645
 1637SOL     OW 5446   1.265   3.657   0.609
 1637SOL    HW1 5447   1.314   3.721   0.557
 1637SOL    HW2 5448   1.192   3.706   0.646
 1638SOL     OW 5449   0.996   2.405   0.054
 1638SOL    HW1 5450   0.991   2.387  13.860
 1638SOL    HW2 5451   1.088   2.395   0.076
 1639SOL     OW 5452   0.083   2.435   1.389
 1639SOL    HW1 5453   0.172   2.422   1.359
 1639SOL    HW2 5454   0.089   2.505   1.455
 1640SOL     OW 5455   0.566   2.089   1.167
 1640SOL    HW1 5456   0.608   2.015   1.211
 1640SOL    HW2 5457   0.475   2.085   1.195
 1641SOL     OW 5458   0.867   2.320   0.639
 1641SOL    HW1 5459   0.825   2.376   0.574
 1641SOL    HW2 5460   0.888   2.240   0.591
 1642SOL     OW 5461   1.018   1.915   0.749
 1642SOL    HW1 5462   0.958   1.910   0.674
 1642SOL    HW2 5463   0.993   1.841   0.803
 1643SOL     OW 5464   1.438   3.023   0.857
 1643SOL    HW1 5465   1.368   2.959   0.856
 1643SOL    HW2 5466   1.463   3.033   0.765
 1644SOL     OW 5467   1.464   2.469   0.971
 1644SOL    HW1 5468   1.410   2.391   0.974
 1644SOL    HW2 5469   1.522   2.461   1.046
 1645SOL     OW 5470   1.844   2.674   0.378
 1645SOL    HW1 5471   1.900   2.623   0.438
 1645SOL    HW2 5472   1.813   2.610   0.314
 1646SOL     OW 5473   0.491   3.247   0.165
 1646SOL    HW1 5474   0.420   3.213   0.220
 1646SOL    HW2 5475   0.447   3.292   0.093
 1647SOL     OW 5476   1.674   3.124   0.647
 1647SOL    HW1 5477   1.768   3.127   0.659
 1647SOL    HW2 5478   1.645   3.214   0.660
 1648SOL     OW 5479   1.421   2.443   0.087
 1648SOL    HW1 5480   1.352   2.437   0.153
 1648SOL    HW2 5481   1.464   2.357   0.089
 1649SOL     OW 5482   0.534   2.125   0.327
 1649SOL    HW1 5483   0.585   2.092   0.252
 1649SOL    HW2 5484   0.499   2.209   0.296
 1650SOL     OW 5485   1.750   3.104   1.567
 1650SOL    HW1 5486   1.838   3.065   1.564
 1650SOL    HW2 5487   1.766   3.194   1.594
 1651SOL     OW 5488   1.056   3.214   1.331
 1651SOL    HW1 5489   0.981   3.183   1.382
 1651SOL    HW2 5490   1.131   3.173   1.374
 1652SOL     OW 5491   1.610   3.489   1.657
 1652SOL    HW1 5492   1.601   3.522   1.568
 1652SOL    HW2 5493   1.692   3.440   1.656
 1653SOL     OW 5494   1.132   3.068   1.103
 1653SOL    HW1 5495   1.073   3.107   1.168
 1653SOL    HW2 5496   1.102   3.103   1.019
 1654SOL     OW 5497   1.625   2.959   1.076
 1654SOL    HW1 5498   1.619   3.022   1.148
 1654SOL    HW2 5499   1.548   2.978   1.022
 1655SOL     OW 5500   0.918   1.957   1.393
 1655SOL    HW1 5501   0.942   1.938   1.302
 1655SOL    HW2 5502   0.997   1.996   1.430
 1656SOL     OW 5503   0.984   2.977   1.722
 1656SOL    HW1 5504   0.893   2.993   1.746
 1656SOL    HW2 5505   0.981   2.899   1.668
 1657SOL     OW 5506   0.716   2.922   0.378
 1657SOL    HW1 5507   0.701   2.903   0.470
 1657SOL    HW2 5508   0.791   2.867   0.353
 1658SOL     OW 5509   0.422   2.679   1.252
 1658SOL    HW1 5510   0.490   2.688   1.319
 1658SOL    HW2 5511   0.389   2.590   1.264
 1659SOL     OW 5512   1.264   2.237   1.279
 1659SOL    HW1 5513   1.297   2.315   1.324
 1659SOL    HW2 5514   1.174   2.258   1.256
 1660SOL     OW 5515   0.065   3.441   1.345
 1660SOL    HW1 5516   0.071   3.490   1.263
 1660SOL    HW2 5517   0.156   3.431   1.373
 1661SOL     OW 5518   0.360   2.964   0.480
 1661SOL    HW1 5519   0.352   3.042   0.425
 1661SOL    HW2 5520   0.379   2.893   0.419
 1662SOL     OW 5521   0.549   2.395   0.861
 1662SOL    HW1 5522   0.562   2.453   0.786
 1662SOL    HW2 5523   0.616   2.422   0.924
 1663SOL     OW 5524   1.248   3.209   0.399
 1663SOL    HW1 5525   1.304   3.282   0.425
 1663SOL    HW2 5526   1.161   3.233   0.431
 1664SOL     OW 5527   1.286   3.322   1.149
 1664SOL    HW1 5528   1.342   3.326   1.226
 1664SOL    HW2 5529   1.230   3.246   1.164
 1665SOL     OW 5530   1.577   2.490   0.477
 1665SOL    HW1 5531   1.529   2.533   0.548
 1665SOL    HW2 5532   1.606   2.561   0.420
 1666SOL     OW 5533   0.345   3.390   1.317
 1666SOL    HW1 5534   0.335   3.339   1.236
 1666SOL    HW2 5535   0.439   3.404   1.325
 1667SOL     OW 5536   0.417   2.600   1.601
 1667SOL    HW1 5537   0.480   2.645   1.545
 1667SOL    HW2 5538   0.457   2.515   1.619
 1668SOL     OW 5539   1.603   2.649   1.676
 1668SOL    HW1 5540   1.517   2.692   1.671
 1668SOL    HW2 5541   1.656   2.692   1.610
 1669SOL     OW 5542   0.996   1.992   1.753
 1669SOL    HW1 5543   1.055   2.064   1.731
 1669SOL    HW2 5544   1.044   1.913   1.728
 1670SOL     OW 5545   0.497   1.896   1.747
 1670SOL    HW1 5546   0.452   1.845   1.680
 1670SOL    HW2 5547   0.443   1.975   1.756
 1671SOL     OW 5548   0.585   2.737   1.032
 1671SOL    HW1 5549   0.619   2.826   1.033
 1671SOL    HW2 5550   0.530   2.731   1.110
 1672SOL     OW 5551   1.352   2.720   1.025
 1672SOL    HW1 5552   1.267   2.708   0.983
 1672SOL    HW2 5553   1.396   2.635   1.016
 1673SOL     OW 5554   1.219   2.403   0.272
 1673SOL    HW1 5555   1.222   2.324   0.325
 1673SOL    HW2 5556   1.162   2.463   0.321
 1674SOL     OW 5557   0.310   2.058   1.247
 1674SOL    HW1 5558   0.263   2.094   1.323
 1674SOL    HW2 5559   0.287   1.965   1.247
 1675SOL     OW 5560   0.061   3.167   1.281
 1675SOL    HW1 5561   0.091   3.126   1.362
 1675SOL    HW2 5562   0.052   3.260   1.302
 1676SOL     OW 5563   0.722   2.492   1.055
 1676SOL    HW1 5564   0.798   2.478   0.998
 1676SOL    HW2 5565   0.694   2.582   1.035
 1677SOL     OW 5566   1.736   2.822   1.854
 1677SOL    HW1 5567   1.692   2.756   1.800
 1677SOL    HW2 5568   1.677   2.837   1.927
 1678SOL     OW 5569   0.316   1.922   0.623
 1678SOL    HW1 5570   0.292   2.013   0.643
 1678SOL    HW2 5571   0.321   1.879   0.709
 1679SOL     OW 5572   1.623   2.241   0.384
 1679SOL    HW1 5573   1.612   2.182   0.458
 1679SOL    HW2 5574   1.598   2.327   0.418
 1680SOL     OW 5575   1.028   2.620   0.959
 1680SOL    HW1 5576   1.022   2.638   1.053
 1680SOL    HW2 5577   1.002   2.529   0.949
 1681SOL     OW 5578   0.986   3.430   1.721
 1681SOL    HW1 5579   0.966   3.471   1.637
 1681SOL    HW2 5580   1.028   3.347   1.698
 1682SOL     OW 5581   1.853   3.364   1.604
 1682SOL    HW1 5582   1.873   3.392   1.515
 1682SOL    HW2 5583   1.933   3.381   1.653
 1683SOL     OW 5584   0.353   2.784   1.799
 1683SOL    HW1 5585   0.432   2.805   1.850
 1683SOL    HW2 5586   0.382   2.717   1.738
 1684SOL     OW 5587   1.510   2.167   0.144
 1684SOL    HW1 5588   1.497   2.072   0.149
 1684SOL    HW2 5589   1.558   2.189   0.224
 1685SOL     OW 5590   1.291   2.689   0.055
 1685SOL    HW1 5591   1.339   2.607   0.059
 1685SOL    HW2 5592   1.309   2.724  13.868
 1686SOL     OW 5593   1.068   3.199   0.855
 1686SOL    HW1 5594   1.072   3.127   0.792
 1686SOL    HW2 5595   1.127   3.266   0.820
 1687SOL     OW 5596   0.314   2.663   0.949
 1687SOL    HW1 5597   0.408   2.681   0.945
 1687SOL    HW2 5598   0.308   2.573   0.981
 1688SOL     OW 5599   0.329   2.383   1.014
 1688SOL    HW1 5600   0.295   2.295   0.999
 1688SOL    HW2 5601   0.405   2.390   0.957
 1689SOL     OW 5602   1.134   2.235   1.685
 1689SOL    HW1 5603   1.086   2.290   1.747
 1689SOL    HW2 5604   1.222   2.274   1.681
 1690SOL     OW 5605   1.161   2.062   1.471
 1690SOL    HW1 5606   1.150   2.124   1.543
 1690SOL    HW2 5607   1.202   2.112   1.401
 1691SOL     OW 5608   0.014   3.189   0.191
 1691SOL    HW1 5609   3.920   3.204   0.183
 1691SOL    HW2 5610   0.022   3.096   0.214
 1692SOL     OW 5611   0.075   3.664   0.894
 1692SOL    HW1 5612   0.092   3.570   0.890
 1692SOL    HW2 5613   0.162   3.704   0.895
 1693SOL     OW 5614   0.507   3.424   0.918
 1693SOL    HW1 5615   0.572   3.492   0.937
 1693SOL    HW2 5616   0.550   3.367   0.855
 1694SOL     OW 5617   0.977   2.651   1.225
 1694SOL    HW1 5618   1.036   2.631   1.297
 1694SOL    HW2 5619   0.893   2.613   1.251
 1695SOL     OW 5620   0.038   2.421   1.109
 1695SOL    HW1 5621   0.121   2.399   1.067
 1695SOL    HW2 5622   0.057   2.418   1.203
 1696SOL     OW 5623   0.206   2.374   1.728
 1696SOL    HW1 5624   0.245   2.326   1.655
 1696SOL    HW2 5625   0.161   2.448   1.686
 1697SOL     OW 5626   1.375   2.800   1.656
 1697SOL    HW1 5627   1.398   2.893   1.653
 1697SOL    HW2 5628   1.371   2.773   1.564
 1698SOL     OW 5629   0.815   2.439   0.377
 1698SOL    HW1 5630   0.825   2.364   0.319
 1698SOL    HW2 5631   0.743   2.490   0.338
 1699SOL     OW 5632   1.642   2.465   1.180
 1699SOL    HW1 5633   1.632   2.412   1.259
 1699SOL    HW2 5634   1.728   2.442   1.147
 1700SOL     OW 5635   0.300   3.407   1.724
 1700SOL    HW1 5636   0.252   3.476   1.770
 1700SOL    HW2 5637   0.270   3.326   1.766
 1701SOL     OW 5638   0.709   2.310   1.256
 1701SOL    HW1 5639   0.655   2.237   1.227
 1701SOL    HW2 5640   0.702   2.374   1.184
 1702SOL     OW 5641   0.927   3.533   1.470
 1702SOL    HW1 5642   0.900   3.494   1.386
 1702SOL    HW2 5643   0.919   3.627   1.456
 1703SOL     OW 5644   0.427   2.355   0.233
 1703SOL    HW1 5645   0.503   2.414   0.239
 1703SOL    HW2 5646   0.356   2.412   0.203
 1704SOL     OW 5647   0.155   2.997   1.476
 1704SOL    HW1 5648   0.155   2.946   1.558
 1704SOL    HW2 5649   0.170   2.932   1.408
 1705SOL     OW 5650   1.323   2.907   1.220
 1705SOL    HW1 5651   1.345   2.843   1.152
 1705SOL    HW2 5652   1.255   2.962   1.181
 1706SOL     OW 5653   1.315   2.720   0.327
 1706SOL    HW1 5654   1.241   2.685   0.377
 1706SOL    HW2 5655   1.291   2.704   0.235
 1707SOL     OW 5656   1.774   3.600   1.152
 1707SOL    HW1 5657   1.836   3.628   1.085
 1707SOL    HW2 5658   1.751   3.511   1.128
 1708SOL     OW 5659   1.244   3.595   1.108
 1708SOL    HW1 5660   1.327   3.617   1.065
 1708SOL    HW2 5661   1.251   3.501   1.127
 1709SOL     OW 5662   0.076   3.074   1.028
 1709SOL    HW1 5663   0.084   3.103   1.119
 1709SOL    HW2 5664   3.984   3.087   1.007
 1710SOL     OW 5665   0.680   3.528   1.735
 1710SOL    HW1 5666   0.621   3.603   1.738
 1710SOL    HW2 5667   0.740   3.547   1.663
 1711SOL     OW 5668   0.931   1.973   0.127
 1711SOL    HW1 5669   0.964   1.962   0.038
 1711SOL    HW2 5670   0.979   1.909   0.179
 1712SOL     OW 5671   1.390   3.434   0.487
 1712SOL    HW1 5672   1.452   3.469   0.424
 1712SOL    HW2 5673   1.342   3.511   0.519
 1713SOL     OW 5674   0.171   3.622   1.832
 1713SOL    HW1 5675   0.116   3.569   1.890
 1713SOL    HW2 5676   0.217   3.681   1.891
 1714SOL     OW 5677   1.277   2.788   0.671
 1714SOL    HW1 5678   1.351   2.728   0.679
 1714SOL    HW2 5679   1.311   2.860   0.618
 1715SOL     OW 5680   0.808   3.136   1.427
 1715SOL    HW1 5681   0.780   3.177   1.509
 1715SOL    HW2 5682   0.738   3.155   1.365
 1716SOL     OW 5683   0.672   3.450   0.191
 1716SOL    HW1 5684   0.659   3.491   0.106
 1716SOL    HW2 5685   0.626   3.366   0.185
 1717SOL     OW 5686   1.621   3.588   1.390
 1717SOL    HW1 5687   1.673   3.593   1.310
 1717SOL    HW2 5688   1.607   3.680   1.415
 1718SOL     OW 5689   0.265   2.173   0.716
 1718SOL    HW1 5690   0.179   2.206   0.691
 1718SOL    HW2 5691   0.261   2.164   0.812
 1719SOL     OW 5692   1.221   3.460   0.035
 1719SOL    HW1 5693   1.210   3.369   0.062
 1719SOL    HW2 5694   1.177   3.466  13.851
 1720SOL     OW 5695   0.823   2.868   1.374
 1720SOL    HW1 5696   0.868   2.863   1.289
 1720SOL    HW2 5697   0.821   2.961   1.394
 1721SOL     OW 5698   0.923   2.774   0.290
 1721SOL    HW1 5699   0.992   2.813   0.236
 1721SOL    HW2 5700   0.967   2.703   0.337
 1722SOL     OW 5701   1.485   3.513   0.064
 1722SOL    HW1 5702   1.392   3.488   0.058
 1722SOL    HW2 5703   1.519   3.498  13.877
 1723SOL     OW 5704   0.374   3.165   1.491
 1723SOL    HW1 5705   0.359   3.245   1.441
 1723SOL    HW2 5706   0.297   3.111   1.474
 1724SOL     OW 5707   1.609   3.146   1.280
 1724SOL    HW1 5708   1.669   3.132   1.353
 1724SOL    HW2 5709   1.549   3.213   1.311
 1725SOL     OW 5710   1.057   2.971   0.709
 1725SOL    HW1 5711   0.986   2.919   0.747
 1725SOL    HW2 5712   1.121   2.906   0.681
 1726SOL     OW 5713   1.024   2.103   0.966
 1726SOL    HW1 5714   1.020   2.056   0.883
 1726SOL    HW2 5715   1.018   2.034   1.033
 1727SOL     OW 5716   0.607   3.348   0.482
 1727SOL    HW1 5717   0.654   3.300   0.414
 1727SOL    HW2 5718   0.536   3.392   0.436
 1728SOL     OW 5719   1.725   2.256   1.378
 1728SOL    HW1 5720   1.799   2.316   1.384
 1728SOL    HW2 5721   1.751   2.193   1.311
 1729SOL     OW 5722   0.265   3.177   0.310
 1729SOL    HW1 5723   0.186   3.203   0.263
 1729SOL    HW2 5724   0.263   3.227   0.391
 1730SOL     OW 5725   0.108   2.859   1.717
 1730SOL    HW1 5726   0.048   2.854   1.792
 1730SOL    HW2 5727   0.194   2.841   1.755
 1731SOL     OW 5728   0.676   2.058   1.500
 1731SOL    HW1 5729   0.760   2.037   1.459
 1731SOL    HW2 5730   0.699   2.091   1.587
 1732SOL     OW 5731   0.051   2.222   0.036
 1732SOL    HW1 5732   3.962   2.231   0.068
 1732SOL    HW2 5733   0.042   2.226  13.840
 1733SOL     OW 5734   1.427   2.720   1.398
 1733SOL    HW1 5735   1.378   2.782   1.343
 1733SOL    HW2 5736   1.516   2.723   1.363
 1734SOL     OW 5737   0.052   2.037   0.313
 1734SOL    HW1 5738   0.082   2.102   0.249
 1734SOL    HW2 5739   0.113   1.964   0.303
 1735SOL     OW 5740   1.186   3.206   0.123
 1735SOL    HW1 5741   1.091   3.197   0.112
 1735SOL    HW2 5742   1.201   3.194   0.217
 1736SOL     OW 5743   0.620   2.692   1.437
 1736SOL    HW1 5744   0.676   2.768   1.421
 1736SOL    HW2 5745   0.680   2.619   1.444
 1737SOL     OW 5746   1.486   3.643   0.982
 1737SOL    HW1 5747   1.508   3.700   0.909
 1737SOL    HW2 5748   1.570   3.618   1.020
 1738SOL     OW 5749   0.716   2.424   1.703
 1738SOL    HW1 5750   0.761   2.485   1.761
 1738SOL    HW2 5751   0.740   2.337   1.736
 1739SOL     OW 5752   1.474   3.059   1.630
 1739SOL    HW1 5753   1.461   3.073   1.724
 1739SOL    HW2 5754   1.566   3.077   1.615
 1740SOL     OW 5755   0.378   3.608   1.560
 1740SOL    HW1 5756   0.290   3.644   1.547
 1740SOL    HW2 5757   0.364   3.525   1.605
 1741SOL     OW 5758   1.667   2.743   1.253
 1741SOL    HW1 5759   1.660   2.658   1.210
 1741SOL    HW2 5760   1.656   2.807   1.183
 1742SOL     OW 5761   1.217   2.182   0.456
 1742SOL    HW1 5762   1.282   2.111   0.449
 1742SOL    HW2 5763   1.245   2.232   0.533
 1743SOL     OW 5764   0.587   2.598   0.674
 1743SOL    HW1 5765   0.626   2.684   0.659
 1743SOL    HW2 5766   0.522   2.589   0.605
 1744SOL     OW 5767   1.754   2.241   1.658
 1744SOL    HW1 5768   1.746   2.248   1.563
 1744SOL    HW2 5769   1.684   2.181   1.683
 1745SOL     OW 5770   1.749   2.800   1.508
 1745SOL    HW1 5771   1.740   2.894   1.520
 1745SOL    HW2 5772   1.731   2.787   1.415
 1746SOL     OW 5773   0.907   3.262   0.068
 1746SOL    HW1 5774   0.842   3.241   0.136
 1746SOL    HW2 5775   0.858   3.258  13.886
 1747SOL     OW 5776   0.659   3.650   0.933
 1747SOL    HW1 5777   0.637   3.741   0.915
 1747SOL    HW2 5778   0.754   3.647   0.932
 1748SOL     OW 5779   0.869   2.830   0.853
 1748SOL    HW1 5780   0.919   2.758   0.892
 1748SOL    HW2 5781   0.832   2.877   0.928
 1749SOL     OW 5782   1.098   2.873   0.110
 1749SOL    HW1 5783   1.089   2.920   0.027
 1749SOL    HW2 5784   1.172   2.814   0.097
 1750SOL     OW 5785   1.850   3.411   0.841
 1750SOL    HW1 5786   1.771   3.403   0.788
 1750SOL    HW2 5787   1.836   3.351   0.915
 1751SOL     OW 5788   0.228   3.166   1.857
 1751SOL    HW1 5789   0.153   3.113   1.830
 1751SOL    HW2 5790   0.215   3.179   1.951
 1752SOL     OW 5791   0.108   3.143   0.730
 1752SOL    HW1 5792   0.130   3.096   0.810
 1752SOL    HW2 5793   0.102   3.075   0.663
 1753SOL     OW 5794   0.683   3.267   1.631
 1753SOL    HW1 5795   0.603   3.225   1.661
 1753SOL    HW2 5796   0.680   3.355   1.668
 1754SOL     OW 5797   0.439   2.297   0.539
 1754SOL    HW1 5798   0.467   2.224   0.483
 1754SOL    HW2 5799   0.384   2.257   0.605
 1755SOL     OW 5800   1.700   3.347   1.090
 1755SOL    HW1 5801   1.619   3.326   1.043
 1755SOL    HW2 5802   1.707   3.279   1.157
 1756SOL     OW 5803   0.335   2.420   1.292
 1756SOL    HW1 5804   0.389   2.363   1.347
 1756SOL    HW2 5805   0.350   2.388   1.203
 1757SOL     OW 5806   0.830   3.442   0.676
 1757SOL    HW1 5807   0.813   3.500   0.602
 1757SOL    HW2 5808   0.755   3.381   0.677
 1758SOL     OW 5809   1.437   2.093   1.119
 1758SOL    HW1 5810   1.445   2.004   1.155
 1758SOL    HW2 5811   1.383   2.139   1.183
 1759SOL     OW 5812   1.010   1.879   1.138
 1759SOL    HW1 5813   0.955   1.811   1.097
 1759SOL    HW2 5814   1.098   1.841   1.140
 1760SOL     OW 5815   0.779   3.186   0.321
 1760SOL    HW1 5816   0.749   3.096   0.337
 1760SOL    HW2 5817   0.860   3.193   0.371
 1761SOL     OW 5818   0.621   3.415   1.286
 1761SOL    HW1 5819   0.621   3.497   1.336
 1761SOL    HW2 5820   0.708   3.410   1.248
 1762SOL     OW 5821   1.347   1.921   0.166
 1762SOL    HW1 5822   1.378   1.867   0.093
 1762SOL    HW2 5823   1.264   1.881   0.191
 1763SOL     OW 5824   1.298   2.324   0.679
 1763SOL    HW1 5825   1.245   2.404   0.684
 1763SOL    HW2 5826   1.292   2.286   0.767
 1764SOL     OW 5827   1.569   2.051   0.872
 1764SOL    HW1 5828   1.535   2.079   0.956
 1764SOL    HW2 5829   1.586   2.132   0.824
 1765SOL     OW 5830   0.043   2.892   0.255
 1765SOL    HW1 5831   0.137   2.874   0.250
 1765SOL    HW2 5832   0.008   2.819   0.307
 1766SOL     OW 5833   0.894   3.521   0.345
 1766SOL    HW1 5834   0.819   3.491   0.293
 1766SOL    HW2 5835   0.861   3.596   0.393
 1767SOL     OW 5836   0.231   2.487   1.980
 1767SOL    HW1 5837   0.138   2.495   2.002
 1767SOL    HW2 5838   0.232   2.455   1.890
 1768SOL     OW 5839   0.229   2.134   2.849
 1768SOL    HW1 5840   0.250   2.100   2.935
 1768SOL    HW2 5841   0.134   2.127   2.842
 1769SOL     OW 5842   0.008   2.220   2.492
 1769SOL    HW1 5843   3.919   2.238   2.522
 1769SOL    HW2 5844   3.997   2.190   2.401
 1770SOL     OW 5845   0.581   3.152   3.054
 1770SOL    HW1 5846   0.495   3.155   3.013
 1770SOL    HW2 5847   0.595   3.241   3.087
 1771SOL     OW 5848   1.565   3.373   2.571
 1771SOL    HW1 5849   1.523   3.351   2.654
 1771SOL    HW2 5850   1.494   3.376   2.507
 1772SOL     OW 5851   1.132   2.560   2.559
 1772SOL    HW1 5852   1.180   2.642   2.546
 1772SOL    HW2 5853   1.085   2.573   2.642
 1773SOL     OW 5854   1.749   2.477   2.095
 1773SOL    HW1 5855   1.732   2.474   2.001
 1773SOL    HW2 5856   1.756   2.386   2.121
 1774SOL     OW 5857   0.751   3.000   2.905
 1774SOL    HW1 5858   0.688   3.036   2.967
 1774SOL    HW2 5859   0.788   3.076   2.861
 1775SOL     OW 5860   0.871   2.629   3.685
 1775SOL    HW1 5861   0.863   2.700   3.749
 1775SOL    HW2 5862   0.894   2.673   3.603
 1776SOL     OW 5863   0.685   2.862   2.508
 1776SOL    HW1 5864   0.751   2.852   2.576
 1776SOL    HW2 5865   0.616   2.915   2.549
 1777SOL     OW 5866   0.712   3.011   3.679
 1777SOL    HW1 5867   0.760   3.089   3.709
 1777SOL    HW2 5868   0.632   3.046   3.641
 1778SOL     OW 5869   0.351   3.263   2.940
 1778SOL    HW1 5870   0.269   3.247   2.893
 1778SOL    HW2 5871   0.400   3.321   2.882
 1779SOL     OW 5872   1.460   3.363   3.220
 1779SOL    HW1 5873   1.514   3.442   3.230
 1779SOL    HW2 5874   1.393   3.371   3.288
 1780SOL     OW 5875   0.450   2.260   3.348
 1780SOL    HW1 5876   0.525   2.201   3.352
 1780SOL    HW2 5877   0.374   2.203   3.362
 1781SOL     OW 5878   1.607   2.301   2.596
 1781SOL    HW1 5879   1.527   2.324   2.548
 1781SOL    HW2 5880   1.624   2.377   2.652
 1782SOL     OW 5881   0.222   3.571   2.328
 1782SOL    HW1 5882   0.222   3.655   2.374
 1782SOL    HW2 5883   0.299   3.576   2.271
 1783SOL     OW 5884   1.138   3.204   3.556
 1783SOL    HW1 5885   1.178   3.197   3.642
 1783SOL    HW2 5886   1.085   3.124   3.548
 1784SOL     OW 5887   0.251   3.306   2.402
 1784SOL    HW1 5888   0.223   3.396   2.388
 1784SOL    HW2 5889   0.182   3.267   2.455
 1785SOL     OW 5890   0.248   2.928   2.745
 1785SOL    HW1 5891   0.268   2.843   2.785
 1785SOL    HW2 5892   0.195   2.973   2.811
 1786SOL     OW 5893   0.610   3.648   3.288
 1786SOL    HW1 5894   0.528   3.634   3.336
 1786SOL    HW2 5895   0.637   3.737   3.313
 1787SOL     OW 5896   0.576   2.848   2.001
 1787SOL    HW1 5897   0.625   2.893   1.932
 1787SOL    HW2 5898   0.617   2.878   2.082
 1788SOL     OW 5899   1.597   1.994   3.326
 1788SOL    HW1 5900   1.591   2.080   3.284
 1788SOL    HW2 5901   1.586   2.011   3.419
 1789SOL     OW 5902   0.143   2.517   2.435
 1789SOL    HW1 5903   0.087   2.439   2.434
 1789SOL    HW2 5904   0.107   2.571   2.506
 1790SOL     OW 5905   1.843   3.607   2.199
 1790SOL    HW1 5906   1.912   3.584   2.261
 1790SOL    HW2 5907   1.862   3.698   2.176
 1791SOL     OW 5908   0.041   3.452   2.001
 1791SOL    HW1 5909   0.035   3.360   2.028
 1791SOL    HW2 5910   3.957   3.490   2.028
 1792SOL     OW 5911   1.690   2.781   2.505
 1792SOL    HW1 5912   1.770   2.735   2.480
 1792SOL    HW2 5913   1.665   2.831   2.428
 1793SOL     OW 5914   1.648   2.967   2.291
 1793SOL    HW1 5915   1.734   2.969   2.250
 1793SOL    HW2 5916   1.654   3.029   2.363
 1794SOL     OW 5917   0.141   2.615   3.452
 1794SOL    HW1 5918   0.236   2.610   3.447
 1794SOL    HW2 5919   0.122   2.702   3.485
 1795SOL     OW 5920   0.617   3.249   2.596
 1795SOL    HW1 5921   0.569   3.166   2.606
 1795SOL    HW2 5922   0.599   3.276   2.506
 1796SOL     OW 5923   1.287   3.098   3.284
 1796SOL    HW1 5924   1.318   3.031   3.224
 1796SOL    HW2 5925   1.346   3.094   3.359
 1797SOL     OW 5926   0.821   1.863   2.375
 1797SOL    HW1 5927   0.861   1.947   2.352
 1797SOL    HW2 5928   0.727   1.881   2.379
 1798SOL     OW 5929   0.184   2.811   3.142
 1798SOL    HW1 5930   0.272   2.776   3.130
 1798SOL    HW2 5931   0.133   2.774   3.071
 1799SOL     OW 5932   1.531   2.859   2.061
 1799SOL    HW1 5933   1.462   2.802   2.094
 1799SOL    HW2 5934   1.573   2.893   2.140
 1800SOL     OW 5935   1.219   3.667   3.490
 1800SOL    HW1 5936   1.195   3.728   3.420
 1800SOL    HW2 5937   1.220   3.581   3.447
 1801SOL     OW 5938   0.342   2.109   3.680
 1801SOL    HW1 5939   0.378   2.198   3.687
 1801SOL    HW2 5940   0.250   2.118   3.704
 1802SOL     OW 5941   1.466   3.281   2.811
 1802SOL    HW1 5942   1.399   3.297   2.877
 1802SOL    HW2 5943   1.453   3.190   2.785
 1803SOL     OW 5944   1.653   3.603   2.443
 1803SOL    HW1 5945   1.640   3.572   2.354
 1803SOL    HW2 5946   1.631   3.528   2.498
 1804SOL     OW 5947   0.596   2.577   2.128
 1804SOL    HW1 5948   0.602   2.662   2.084
 1804SOL    HW2 5949   0.533   2.591   2.199
 1805SOL     OW 5950   1.279   2.224   2.797
 1805SOL    HW1 5951   1.191   2.188   2.807
 1805SOL    HW2 5952   1.334   2.168   2.851
 1806SOL     OW 5953   1.576   3.538   2.171
 1806SOL    HW1 5954   1.669   3.560   2.165
 1806SOL    HW2 5955   1.550   3.519   2.080
 1807SOL     OW 5956   0.791   2.480   3.312
 1807SOL    HW1 5957   0.765   2.454   3.400
 1807SOL    HW2 5958   0.754   2.412   3.255
 1808SOL     OW 5959   1.392   2.335   3.539
 1808SOL    HW1 5960   1.395   2.382   3.622
 1808SOL    HW2 5961   1.455   2.263   3.549
 1809SOL     OW 5962   0.951   2.748   3.447
 1809SOL    HW1 5963   1.006   2.679   3.409
 1809SOL    HW2 5964   0.903   2.783   3.372
 1810SOL     OW 5965   0.993   2.273   3.098
 1810SOL    HW1 5966   0.905   2.292   3.130
 1810SOL    HW2 5967   0.979   2.229   3.014
 1811SOL     OW 5968   1.053   2.561   2.287
 1811SOL    HW1 5969   1.070   2.554   2.381
 1811SOL    HW2 5970   0.970   2.514   2.274
 1812SOL     OW 5971   0.082   2.692   2.652
 1812SOL    HW1 5972   0.156   2.661   2.705
 1812SOL    HW2 5973   0.102   2.784   2.636
 1813SOL     OW 5974   0.127   3.719   3.441
 1813SOL    HW1 5975   0.135   3.687   3.531
 1813SOL    HW2 5976   0.035   3.706   3.419
 1814SOL     OW 5977   0.897   2.212   2.055
 1814SOL    HW1 5978   0.937   2.276   1.996
 1814SOL    HW2 5979   0.914   2.127   2.015
 1815SOL     OW 5980   1.668   2.444   3.698
 1815SOL    HW1 5981   1.646   2.515   3.637
 1815SOL    HW2 5982   1.718   2.382   3.645
 1816SOL     OW 5983   1.380   3.004   2.402
 1816SOL    HW1 5984   1.458   2.992   2.349
 1816SOL    HW2 5985   1.326   3.066   2.352
 1817SOL     OW 5986   0.546   2.040   2.757
 1817SOL    HW1 5987   0.553   2.072   2.847
 1817SOL    HW2 5988   0.546   2.119   2.703
 1818SOL     OW 5989   1.002   3.307   2.332
 1818SOL    HW1 5990   0.967   3.381   2.283
 1818SOL    HW2 5991   0.981   3.326   2.423
 1819SOL     OW 5992   0.359   3.672   2.725
 1819SOL    HW1 5993   0.439   3.620   2.738
 1819SOL    HW2 5994   0.388   3.763   2.734
 1820SOL     OW 5995   1.800   2.915   2.732
 1820SOL    HW1 5996   1.748   2.895   2.654
 1820SOL    HW2 5997   1.737   2.922   2.803
 1821SOL     OW 5998   1.228   3.399   3.373
 1821SOL    HW1 5999   1.215   3.327   3.435
 1821SOL    HW2 6000   1.158   3.387   3.308
 1822SOL     OW 6001   0.311   2.815   2.104
 1822SOL    HW1 6002   0.394   2.838   2.062
 1822SOL    HW2 6003   0.298   2.723   2.084
 1823SOL     OW 6004   1.480   2.610   2.587
 1823SOL    HW1 6005   1.476   2.567   2.672
 1823SOL    HW2 6006   1.559   2.664   2.591
 1824SOL     OW 6007   0.469   3.122   3.599
 1824SOL    HW1 6008   0.443   3.131   3.507
 1824SOL    HW2 6009   0.387   3.126   3.647
 1825SOL     OW 6010   1.113   3.643   2.083
 1825SOL    HW1 6011   1.048   3.597   2.136
 1825SOL    HW2 6012   1.144   3.577   2.021
 1826SOL     OW 6013   0.204   2.133   3.370
 1826SOL    HW1 6014   0.114   2.166   3.365
 1826SOL    HW2 6015   0.195   2.046   3.408
 1827SOL     OW 6016   1.627   3.243   1.953
 1827SOL    HW1 6017   1.587   3.328   1.935
 1827SOL    HW2 6018   1.559   3.180   1.932
 1828SOL     OW 6019   0.467   3.602   2.183
 1828SOL    HW1 6020   0.506   3.664   2.245
 1828SOL    HW2 6021   0.540   3.573   2.129
 1829SOL     OW 6022   1.396   1.966   2.296
 1829SOL    HW1 6023   1.381   1.945   2.204
 1829SOL    HW2 6024   1.489   1.949   2.309
 1830SOL     OW 6025   0.254   3.656   3.087
 1830SOL    HW1 6026   0.297   3.589   3.140
 1830SOL    HW2 6027   0.252   3.620   2.999
 1831SOL     OW 6028   0.938   3.564   2.761
 1831SOL    HW1 6029   1.015   3.512   2.784
 1831SOL    HW2 6030   0.895   3.513   2.692
 1832SOL     OW 6031   0.400   2.554   2.333
 1832SOL    HW1 6032   0.424   2.463   2.348
 1832SOL    HW2 6033   0.308   2.560   2.359
 1833SOL     OW 6034   1.534   2.086   3.587
 1833SOL    HW1 6035   1.546   2.106   3.680
 1833SOL    HW2 6036   1.462   2.023   3.585
 1834SOL     OW 6037   0.645   1.979   1.958
 1834SOL    HW1 6038   0.704   1.907   1.979
 1834SOL    HW2 6039   0.594   1.948   1.883
 1835SOL     OW 6040   0.765   2.141   3.617
 1835SOL    HW1 6041   0.844   2.088   3.614
 1835SOL    HW2 6042   0.719   2.111   3.695
 1836SOL     OW 6043   0.876   3.383   3.056
 1836SOL    HW1 6044   0.859   3.346   2.969
 1836SOL    HW2 6045   0.946   3.328   3.092
 1837SOL     OW 6046   1.340   2.451   3.294
 1837SOL    HW1 6047   1.370   2.420   3.380
 1837SOL    HW2 6048   1.376   2.539   3.287
 1838SOL     OW 6049   0.818   3.253   2.805
 1838SOL    HW1 6050   0.903   3.241   2.762
 1838SOL    HW2 6051   0.755   3.256   2.732
 1839SOL     OW 6052   0.929   2.371   2.763
 1839SOL    HW1 6053   0.905   2.363   2.671
 1839SOL    HW2 6054   0.960   2.284   2.788
 1840SOL     OW 6055   0.557   1.924   2.356
 1840SOL    HW1 6056   0.475   1.929   2.405
 1840SOL    HW2 6057   0.561   2.006   2.307
 1841SOL     OW 6058   1.428   3.062   1.902
 1841SOL    HW1 6059   1.458   2.986   1.952
 1841SOL    HW2 6060   1.342   3.083   1.939
 1842SOL     OW 6061   0.309   1.913   2.031
 1842SOL    HW1 6062   0.372   1.951   1.970
 1842SOL    HW2 6063   0.359   1.848   2.080
 1843SOL     OW 6064   0.941   2.110   2.320
 1843SOL    HW1 6065   0.912   2.150   2.238
 1843SOL    HW2 6066   1.035   2.127   2.324
 1844SOL     OW 6067   1.080   2.545   3.320
 1844SOL    HW1 6068   1.014   2.476   3.325
 1844SOL    HW2 6069   1.164   2.498   3.314
 1845SOL     OW 6070   1.221   3.433   2.656
 1845SOL    HW1 6071   1.236   3.500   2.589
 1845SOL    HW2 6072   1.290   3.448   2.720
 1846SOL     OW 6073   0.467   3.013   2.596
 1846SOL    HW1 6074   0.396   2.989   2.655
 1846SOL    HW2 6075   0.431   2.998   2.508
 1847SOL     OW 6076   1.265   3.656   2.471
 1847SOL    HW1 6077   1.313   3.720   2.419
 1847SOL    HW2 6078   1.192   3.705   2.509
 1848SOL     OW 6079   1.023   2.399   1.887
 1848SOL    HW1 6080   0.981   2.483   1.868
 1848SOL    HW2 6081   1.091   2.421   1.952
 1849SOL     OW 6082   0.083   2.435   3.252
 1849SOL    HW1 6083   0.173   2.422   3.221
 1849SOL    HW2 6084   0.089   2.505   3.317
 1850SOL     OW 6085   0.566   2.089   3.029
 1850SOL    HW1 6086   0.608   2.015   3.072
 1850SOL    HW2 6087   0.475   2.085   3.057
 1851SOL     OW 6088   0.867   2.320   2.502
 1851SOL    HW1 6089   0.820   2.374   2.438
 1851SOL    HW2 6090   0.888   2.240   2.453
 1852SOL     OW 6091   1.017   1.916   2.611
 1852SOL    HW1 6092   0.959   1.911   2.536
 1852SOL    HW2 6093   0.993   1.841   2.666
 1853SOL     OW 6094   1.438   3.023   2.718
 1853SOL    HW1 6095   1.368   2.958   2.719
 1853SOL    HW2 6096   1.463   3.032   2.626
 1854SOL     OW 6097   1.465   2.470   2.833
 1854SOL    HW1 6098   1.410   2.391   2.836
 1854SOL    HW2 6099   1.522   2.461   2.909
 1855SOL     OW 6100   1.843   2.680   2.248
 1855SOL    HW1 6101   1.903   2.628   2.302
 1855SOL    HW2 6102   1.810   2.618   2.183
 1856SOL     OW 6103   0.488   3.282   2.020
 1856SOL    HW1 6104   0.412   3.253   2.070
 1856SOL    HW2 6105   0.471   3.251   1.931
 1857SOL     OW 6106   1.674   3.126   2.505
 1857SOL    HW1 6107   1.769   3.127   2.519
 1857SOL    HW2 6108   1.645   3.215   2.527
 1858SOL     OW 6109   1.390   2.438   1.929
 1858SOL    HW1 6110   1.339   2.413   2.006
 1858SOL    HW2 6111   1.481   2.421   1.954
 1859SOL     OW 6112   0.574   2.130   2.179
 1859SOL    HW1 6113   0.606   2.083   2.102
 1859SOL    HW2 6114   0.542   2.213   2.145
 1860SOL     OW 6115   1.750   3.104   3.428
 1860SOL    HW1 6116   1.838   3.064   3.426
 1860SOL    HW2 6117   1.766   3.194   3.456
 1861SOL     OW 6118   1.056   3.214   3.194
 1861SOL    HW1 6119   0.981   3.184   3.245
 1861SOL    HW2 6120   1.131   3.173   3.236
 1862SOL     OW 6121   1.610   3.489   3.519
 1862SOL    HW1 6122   1.601   3.522   3.430
 1862SOL    HW2 6123   1.692   3.440   3.519
 1863SOL     OW 6124   1.133   3.069   2.965
 1863SOL    HW1 6125   1.073   3.106   3.030
 1863SOL    HW2 6126   1.102   3.103   2.881
 1864SOL     OW 6127   1.625   2.959   2.938
 1864SOL    HW1 6128   1.619   3.021   3.010
 1864SOL    HW2 6129   1.548   2.977   2.884
 1865SOL     OW 6130   0.918   1.957   3.255
 1865SOL    HW1 6131   0.941   1.938   3.164
 1865SOL    HW2 6132   0.997   1.996   3.292
 1866SOL     OW 6133   0.984   2.977   3.584
 1866SOL    HW1 6134   0.893   2.993   3.608
 1866SOL    HW2 6135   0.981   2.899   3.530
 1867SOL     OW 6136   0.708   2.922   2.233
 1867SOL    HW1 6137   0.694   2.905   2.326
 1867SOL    HW2 6138   0.784   2.870   2.209
 1868SOL     OW 6139   0.422   2.679   3.115
 1868SOL    HW1 6140   0.490   2.688   3.181
 1868SOL    HW2 6141   0.389   2.590   3.126
 1869SOL     OW 6142   1.264   2.236   3.141
 1869SOL    HW1 6143   1.297   2.314   3.186
 1869SOL    HW2 6144   1.174   2.258   3.118
 1870SOL     OW 6145   0.066   3.442   3.207
 1870SOL    HW1 6146   0.071   3.492   3.126
 1870SOL    HW2 6147   0.157   3.431   3.235
 1871SOL     OW 6148   0.368   2.964   2.344
 1871SOL    HW1 6149   0.364   3.045   2.293
 1871SOL    HW2 6150   0.368   2.895   2.278
 1872SOL     OW 6151   0.548   2.397   2.723
 1872SOL    HW1 6152   0.563   2.454   2.648
 1872SOL    HW2 6153   0.616   2.422   2.786
 1873SOL     OW 6154   1.247   3.211   2.252
 1873SOL    HW1 6155   1.303   3.282   2.283
 1873SOL    HW2 6156   1.160   3.233   2.285
 1874SOL     OW 6157   1.286   3.322   3.010
 1874SOL    HW1 6158   1.342   3.326   3.088
 1874SOL    HW2 6159   1.230   3.245   3.025
 1875SOL     OW 6160   1.574   2.481   2.340
 1875SOL    HW1 6161   1.531   2.539   2.403
 1875SOL    HW2 6162   1.620   2.540   2.280
 1876SOL     OW 6163   0.345   3.390   3.179
 1876SOL    HW1 6164   0.335   3.339   3.098
 1876SOL    HW2 6165   0.439   3.404   3.187
 1877SOL     OW 6166   0.417   2.600   3.463
 1877SOL    HW1 6167   0.480   2.645   3.407
 1877SOL    HW2 6168   0.457   2.515   3.481
 1878SOL     OW 6169   1.603   2.649   3.538
 1878SOL    HW1 6170   1.518   2.692   3.533
 1878SOL    HW2 6171   1.656   2.693   3.472
 1879SOL     OW 6172   0.996   1.992   3.615
 1879SOL    HW1 6173   1.055   2.064   3.593
 1879SOL    HW2 6174   1.044   1.913   3.590
 1880SOL     OW 6175   0.497   1.896   3.609
 1880SOL    HW1 6176   0.452   1.845   3.542
 1880SOL    HW2 6177   0.443   1.975   3.618
 1881SOL     OW 6178   0.585   2.736   2.894
 1881SOL    HW1 6179   0.619   2.826   2.895
 1881SOL    HW2 6180   0.530   2.730   2.972
 1882SOL     OW 6181   1.352   2.720   2.887
 1882SOL    HW1 6182   1.267   2.708   2.844
 1882SOL    HW2 6183   1.396   2.636   2.878
 1883SOL     OW 6184   1.202   2.389   2.127
 1883SOL    HW1 6185   1.210   2.311   2.182
 1883SOL    HW2 6186   1.159   2.454   2.183
 1884SOL     OW 6187   0.310   2.058   3.109
 1884SOL    HW1 6188   0.263   2.094   3.184
 1884SOL    HW2 6189   0.287   1.965   3.109
 1885SOL     OW 6190   0.061   3.167   3.142
 1885SOL    HW1 6191   0.091   3.126   3.223
 1885SOL    HW2 6192   0.053   3.260   3.165
 1886SOL     OW 6193   0.723   2.492   2.917
 1886SOL    HW1 6194   0.799   2.478   2.861
 1886SOL    HW2 6195   0.695   2.582   2.897
 1887SOL     OW 6196   1.736   2.822   3.716
 1887SOL    HW1 6197   1.692   2.756   3.662
 1887SOL    HW2 6198   1.677   2.837   3.789
 1888SOL     OW 6199   0.315   1.924   2.482
 1888SOL    HW1 6200   0.293   2.014   2.503
 1888SOL    HW2 6201   0.322   1.880   2.567
 1889SOL     OW 6202   1.609   2.233   2.237
 1889SOL    HW1 6203   1.615   2.184   2.319
 1889SOL    HW2 6204   1.590   2.323   2.263
 1890SOL     OW 6205   1.029   2.621   2.821
 1890SOL    HW1 6206   1.022   2.638   2.915
 1890SOL    HW2 6207   1.002   2.529   2.811
 1891SOL     OW 6208   0.986   3.430   3.583
 1891SOL    HW1 6209   0.966   3.471   3.499
 1891SOL    HW2 6210   1.028   3.347   3.561
 1892SOL     OW 6211   1.853   3.364   3.466
 1892SOL    HW1 6212   1.873   3.392   3.377
 1892SOL    HW2 6213   1.933   3.381   3.515
 1893SOL     OW 6214   0.353   2.784   3.661
 1893SOL    HW1 6215   0.432   2.805   3.712
 1893SOL    HW2 6216   0.382   2.717   3.600
 1894SOL     OW 6217   1.530   2.130   1.991
 1894SOL    HW1 6218   1.462   2.068   2.018
 1894SOL    HW2 6219   1.561   2.169   2.072
 1895SOL     OW 6220   1.288   2.689   1.891
 1895SOL    HW1 6221   1.329   2.603   1.895
 1895SOL    HW2 6222   1.320   2.727   1.809
 1896SOL     OW 6223   1.068   3.199   2.717
 1896SOL    HW1 6224   1.072   3.127   2.655
 1896SOL    HW2 6225   1.127   3.265   2.682
 1897SOL     OW 6226   0.313   2.663   2.812
 1897SOL    HW1 6227   0.407   2.681   2.806
 1897SOL    HW2 6228   0.308   2.573   2.843
 1898SOL     OW 6229   0.329   2.383   2.877
 1898SOL    HW1 6230   0.295   2.295   2.860
 1898SOL    HW2 6231   0.405   2.390   2.819
 1899SOL     OW 6232   1.134   2.235   3.547
 1899SOL    HW1 6233   1.086   2.290   3.609
 1899SOL    HW2 6234   1.222   2.274   3.543
 1900SOL     OW 6235   1.161   2.062   3.333
 1900SOL    HW1 6236   1.150   2.124   3.405
 1900SOL    HW2 6237   1.202   2.112   3.263
 1901SOL     OW 6238   4.000   3.179   2.044
 1901SOL    HW1 6239   3.906   3.195   2.048
 1901SOL    HW2 6240   0.009   3.085   2.062
 1902SOL     OW 6241   0.076   3.663   2.757
 1902SOL    HW1 6242   0.092   3.568   2.754
 1902SOL    HW2 6243   0.163   3.702   2.756
 1903SOL     OW 6244   0.506   3.425   2.780
 1903SOL    HW1 6245   0.572   3.492   2.799
 1903SOL    HW2 6246   0.549   3.367   2.716
 1904SOL     OW 6247   0.977   2.651   3.087
 1904SOL    HW1 6248   1.036   2.631   3.159
 1904SOL    HW2 6249   0.893   2.613   3.112
 1905SOL     OW 6250   0.038   2.421   2.971
 1905SOL    HW1 6251   0.121   2.399   2.929
 1905SOL    HW2 6252   0.057   2.418   3.065
 1906SOL     OW 6253   0.207   2.374   3.590
 1906SOL    HW1 6254   0.245   2.326   3.517
 1906SOL    HW2 6255   0.161   2.448   3.548
 1907SOL     OW 6256   1.375   2.800   3.518
 1907SOL    HW1 6257   1.398   2.893   3.515
 1907SOL    HW2 6258   1.371   2.773   3.426
 1908SOL     OW 6259   0.819   2.431   2.225
 1908SOL    HW1 6260   0.824   2.356   2.166
 1908SOL    HW2 6261   0.745   2.482   2.193
 1909SOL     OW 6262   1.642   2.465   3.043
 1909SOL    HW1 6263   1.632   2.411   3.121
 1909SOL    HW2 6264   1.728   2.442   3.009
 1910SOL     OW 6265   0.300   3.407   3.586
 1910SOL    HW1 6266   0.252   3.476   3.632
 1910SOL    HW2 6267   0.270   3.326   3.628
 1911SOL     OW 6268   0.709   2.310   3.118
 1911SOL    HW1 6269   0.655   2.237   3.089
 1911SOL    HW2 6270   0.702   2.374   3.047
 1912SOL     OW 6271   0.927   3.533   3.332
 1912SOL    HW1 6272   0.900   3.494   3.248
 1912SOL    HW2 6273   0.919   3.627   3.318
 1913SOL     OW 6274   0.453   2.351   2.058
 1913SOL    HW1 6275   0.519   2.418   2.076
 1913SOL    HW2 6276   0.374   2.400   2.035
 1914SOL     OW 6277   0.155   2.997   3.338
 1914SOL    HW1 6278   0.155   2.946   3.419
 1914SOL    HW2 6279   0.170   2.932   3.269
 1915SOL     OW 6280   1.323   2.907   3.082
 1915SOL    HW1 6281   1.345   2.843   3.014
 1915SOL    HW2 6282   1.255   2.962   3.043
 1916SOL     OW 6283   1.314   2.719   2.167
 1916SOL    HW1 6284   1.239   2.687   2.218
 1916SOL    HW2 6285   1.288   2.705   2.076
 1917SOL     OW 6286   1.773   3.601   3.013
 1917SOL    HW1 6287   1.835   3.629   2.946
 1917SOL    HW2 6288   1.751   3.511   2.990
 1918SOL     OW 6289   1.244   3.594   2.969
 1918SOL    HW1 6290   1.327   3.616   2.927
 1918SOL    HW2 6291   1.251   3.501   2.990
 1919SOL     OW 6292   0.077   3.076   2.890
 1919SOL    HW1 6293   0.083   3.103   2.981
 1919SOL    HW2 6294   3.984   3.088   2.868
 1920SOL     OW 6295   0.680   3.528   3.597
 1920SOL    HW1 6296   0.621   3.603   3.600
 1920SOL    HW2 6297   0.740   3.547   3.526
 1921SOL     OW 6298   1.391   3.431   2.350
 1921SOL    HW1 6299   1.450   3.465   2.283
 1921SOL    HW2 6300   1.342   3.507   2.380
 1922SOL     OW 6301   0.171   3.622   3.694
 1922SOL    HW1 6302   0.116   3.569   3.752
 1922SOL    HW2 6303   0.217   3.682   3.753
 1923SOL     OW 6304   1.277   2.789   2.533
 1923SOL    HW1 6305   1.351   2.729   2.543
 1923SOL    HW2 6306   1.312   2.861   2.480
 1924SOL     OW 6307   0.808   3.137   3.289
 1924SOL    HW1 6308   0.780   3.177   3.371
 1924SOL    HW2 6309   0.737   3.154   3.227
 1925SOL     OW 6310   0.674   3.480   2.020
 1925SOL    HW1 6311   0.683   3.497   1.927
 1925SOL    HW2 6312   0.615   3.405   2.025
 1926SOL     OW 6313   1.621   3.588   3.252
 1926SOL    HW1 6314   1.673   3.593   3.172
 1926SOL    HW2 6315   1.607   3.680   3.277
 1927SOL     OW 6316   0.265   2.174   2.578
 1927SOL    HW1 6317   0.179   2.206   2.552
 1927SOL    HW2 6318   0.260   2.165   2.673
 1928SOL     OW 6319   1.208   3.465   1.898
 1928SOL    HW1 6320   1.197   3.373   1.922
 1928SOL    HW2 6321   1.147   3.478   1.826
 1929SOL     OW 6322   0.823   2.868   3.236
 1929SOL    HW1 6323   0.868   2.862   3.152
 1929SOL    HW2 6324   0.821   2.961   3.256
 1930SOL     OW 6325   0.916   2.772   2.153
 1930SOL    HW1 6326   0.976   2.805   2.086
 1930SOL    HW2 6327   0.965   2.704   2.199
 1931SOL     OW 6328   1.489   3.492   1.905
 1931SOL    HW1 6329   1.395   3.480   1.888
 1931SOL    HW2 6330   1.528   3.497   1.818
 1932SOL     OW 6331   0.374   3.165   3.353
 1932SOL    HW1 6332   0.359   3.245   3.303
 1932SOL    HW2 6333   0.297   3.111   3.336
 1933SOL     OW 6334   1.609   3.145   3.142
 1933SOL    HW1 6335   1.669   3.132   3.215
 1933SOL    HW2 6336   1.549   3.213   3.173
 1934SOL     OW 6337   1.058   2.971   2.571
 1934SOL    HW1 6338   0.986   2.920   2.608
 1934SOL    HW2 6339   1.121   2.905   2.543
 1935SOL     OW 6340   1.024   2.103   2.829
 1935SOL    HW1 6341   1.020   2.056   2.745
 1935SOL    HW2 6342   1.018   2.034   2.895
 1936SOL     OW 6343   0.606   3.352   2.342
 1936SOL    HW1 6344   0.653   3.302   2.275
 1936SOL    HW2 6345   0.533   3.393   2.296
 1937SOL     OW 6346   1.724   2.257   3.240
 1937SOL    HW1 6347   1.799   2.317   3.246
 1937SOL    HW2 6348   1.752   2.192   3.175
 1938SOL     OW 6349   0.254   3.202   2.154
 1938SOL    HW1 6350   0.160   3.210   2.136
 1938SOL    HW2 6351   0.264   3.241   2.241
 1939SOL     OW 6352   0.108   2.859   3.579
 1939SOL    HW1 6353   0.048   2.853   3.654
 1939SOL    HW2 6354   0.194   2.842   3.616
 1940SOL     OW 6355   0.676   2.058   3.362
 1940SOL    HW1 6356   0.760   2.037   3.321
 1940SOL    HW2 6357   0.699   2.091   3.449
 1941SOL     OW 6358   0.081   2.175   1.899
 1941SOL    HW1 6359   3.985   2.175   1.907
 1941SOL    HW2 6360   0.101   2.256   1.853
 1942SOL     OW 6361   1.427   2.720   3.260
 1942SOL    HW1 6362   1.378   2.782   3.205
 1942SOL    HW2 6363   1.516   2.723   3.225
 1943SOL     OW 6364   0.017   2.100   2.239
 1943SOL    HW1 6365   0.045   2.164   2.174
 1943SOL    HW2 6366   0.098   2.060   2.270
 1944SOL     OW 6367   1.178   3.198   1.979
 1944SOL    HW1 6368   1.086   3.169   1.980
 1944SOL    HW2 6369   1.204   3.198   2.071
 1945SOL     OW 6370   0.620   2.692   3.299
 1945SOL    HW1 6371   0.676   2.768   3.283
 1945SOL    HW2 6372   0.680   2.619   3.306
 1946SOL     OW 6373   1.486   3.642   2.844
 1946SOL    HW1 6374   1.509   3.702   2.773
 1946SOL    HW2 6375   1.570   3.619   2.883
 1947SOL     OW 6376   0.716   2.424   3.565
 1947SOL    HW1 6377   0.761   2.485   3.623
 1947SOL    HW2 6378   0.740   2.337   3.598
 1948SOL     OW 6379   1.473   3.059   3.492
 1948SOL    HW1 6380   1.461   3.073   3.586
 1948SOL    HW2 6381   1.566   3.077   3.477
 1949SOL     OW 6382   0.378   3.608   3.421
 1949SOL    HW1 6383   0.290   3.644   3.409
 1949SOL    HW2 6384   0.364   3.525   3.467
 1950SOL     OW 6385   1.667   2.743   3.115
 1950SOL    HW1 6386   1.660   2.658   3.072
 1950SOL    HW2 6387   1.656   2.806   3.045
 1951SOL     OW 6388   1.215   2.181   2.320
 1951SOL    HW1 6389   1.277   2.109   2.313
 1951SOL    HW2 6390   1.244   2.231   2.396
 1952SOL     OW 6391   0.588   2.599   2.535
 1952SOL    HW1 6392   0.627   2.685   2.520
 1952SOL    HW2 6393   0.523   2.590   2.466
 1953SOL     OW 6394   1.753   2.241   3.519
 1953SOL    HW1 6395   1.745   2.249   3.424
 1953SOL    HW2 6396   1.683   2.182   3.545
 1954SOL     OW 6397   1.749   2.800   3.370
 1954SOL    HW1 6398   1.740   2.895   3.382
 1954SOL    HW2 6399   1.731   2.787   3.276
 1955SOL     OW 6400   0.865   3.228   1.902
 1955SOL    HW1 6401   0.823   3.257   1.984
 1955SOL    HW2 6402   0.879   3.309   1.853
 1956SOL     OW 6403   0.658   3.650   2.795
 1956SOL    HW1 6404   0.638   3.741   2.777
 1956SOL    HW2 6405   0.754   3.646   2.794
 1957SOL     OW 6406   0.869   2.831   2.715
 1957SOL    HW1 6407   0.919   2.758   2.753
 1957SOL    HW2 6408   0.832   2.877   2.790
 1958SOL     OW 6409   1.076   2.850   1.950
 1958SOL    HW1 6410   1.056   2.902   1.873
 1958SOL    HW2 6411   1.151   2.796   1.925
 1959SOL     OW 6412   1.850   3.412   2.703
 1959SOL    HW1 6413   1.769   3.402   2.652
 1959SOL    HW2 6414   1.841   3.350   2.775
 1960SOL     OW 6415   0.228   3.166   3.719
 1960SOL    HW1 6416   0.153   3.113   3.692
 1960SOL    HW2 6417   0.215   3.179   3.813
 1961SOL     OW 6418   0.117   3.142   2.585
 1961SOL    HW1 6419   0.136   3.091   2.664
 1961SOL    HW2 6420   0.104   3.076   2.517
 1962SOL     OW 6421   0.683   3.267   3.493
 1962SOL    HW1 6422   0.603   3.225   3.523
 1962SOL    HW2 6423   0.680   3.355   3.530
 1963SOL     OW 6424   0.440   2.296   2.396
 1963SOL    HW1 6425   0.441   2.226   2.331
 1963SOL    HW2 6426   0.385   2.262   2.467
 1964SOL     OW 6427   1.700   3.347   2.952
 1964SOL    HW1 6428   1.618   3.326   2.906
 1964SOL    HW2 6429   1.707   3.279   3.020
 1965SOL     OW 6430   0.335   2.420   3.154
 1965SOL    HW1 6431   0.389   2.363   3.209
 1965SOL    HW2 6432   0.350   2.388   3.065
 1966SOL     OW 6433   0.829   3.441   2.538
 1966SOL    HW1 6434   0.811   3.496   2.462
 1966SOL    HW2 6435   0.755   3.380   2.542
 1967SOL     OW 6436   1.437   2.092   2.981
 1967SOL    HW1 6437   1.445   2.004   3.017
 1967SOL    HW2 6438   1.383   2.139   3.045
 1968SOL     OW 6439   1.010   1.878   3.000
 1968SOL    HW1 6440   0.956   1.811   2.958
 1968SOL    HW2 6441   1.098   1.840   3.002
 1969SOL     OW 6442   0.773   3.194   2.182
 1969SOL    HW1 6443   0.744   3.103   2.188
 1969SOL    HW2 6444   0.855   3.197   2.230
 1970SOL     OW 6445   0.621   3.415   3.148
 1970SOL    HW1 6446   0.621   3.497   3.198
 1970SOL    HW2 6447   0.709   3.410   3.110
 1971SOL     OW 6448   1.351   1.914   2.030
 1971SOL    HW1 6449   1.382   1.850   1.966
 1971SOL    HW2 6450   1.263   1.884   2.053
 1972SOL     OW 6451   1.297   2.324   2.541
 1972SOL    HW1 6452   1.245   2.404   2.546
 1972SOL    HW2 6453   1.292   2.286   2.629
 1973SOL     OW 6454   1.569   2.050   2.733
 1973SOL    HW1 6455   1.535   2.079   2.818
 1973SOL    HW2 6456   1.585   2.132   2.685
 1974SOL     OW 6457   0.047   2.910   2.102
 1974SOL    HW1 6458   0.142   2.895   2.094
 1974SOL    HW2 6459   0.012   2.826   2.130
 1975SOL     OW 6460   0.887   3.522   2.204
 1975SOL    HW1 6461   0.815   3.503   2.144
 1975SOL    HW2 6462   0.855   3.596   2.256
 1976SOL     OW 6463   0.231   2.487   3.842
 1976SOL    HW1 6464   0.138   2.495   3.864
 1976SOL    HW2 6465   0.232   2.455   3.752
 1977SOL     OW 6466   0.229   2.134   4.711
 1977SOL    HW1 6467   0.250   2.100   4.797
 1977SOL    HW2 6468   0.134   2.127   4.704
 1978SOL     OW 6469   0.008   2.220   4.354
 1978SOL    HW1 6470   3.919   2.238   4.384
 1978SOL    HW2 6471   3.997   2.190   4.263
 1979SOL     OW 6472   0.581   3.152   4.916
 1979SOL    HW1 6473   0.495   3.155   4.875
 1979SOL    HW2 6474   0.595   3.241   4.949
 1980SOL     OW 6475   1.565   3.373   4.433
 1980SOL    HW1 6476   1.523   3.351   4.516
 1980SOL    HW2 6477   1.494   3.376   4.369
 1981SOL     OW 6478   1.132   2.560   4.421
 1981SOL    HW1 6479   1.180   2.642   4.408
 1981SOL    HW2 6480   1.085   2.573   4.504
 1982SOL     OW 6481   1.750   2.477   3.957
 1982SOL    HW1 6482   1.732   2.474   3.863
 1982SOL    HW2 6483   1.755   2.385   3.983
 1983SOL     OW 6484   0.751   3.000   4.767
 1983SOL    HW1 6485   0.688   3.036   4.829
 1983SOL    HW2 6486   0.788   3.076   4.723
 1984SOL     OW 6487   0.871   2.629   5.546
 1984SOL    HW1 6488   0.862   2.700   5.610
 1984SOL    HW2 6489   0.894   2.673   5.464
 1985SOL     OW 6490   0.685   2.862   4.369
 1985SOL    HW1 6491   0.751   2.852   4.438
 1985SOL    HW2 6492   0.616   2.915   4.410
 1986SOL     OW 6493   0.712   3.011   5.542
 1986SOL    HW1 6494   0.760   3.089   5.571
 1986SOL    HW2 6495   0.632   3.046   5.503
 1987SOL     OW 6496   0.351   3.263   4.802
 1987SOL    HW1 6497   0.269   3.246   4.755
 1987SOL    HW2 6498   0.400   3.321   4.744
 1988SOL     OW 6499   1.460   3.363   5.082
 1988SOL    HW1 6500   1.514   3.442   5.092
 1988SOL    HW2 6501   1.393   3.371   5.150
 1989SOL     OW 6502   0.450   2.259   5.210
 1989SOL    HW1 6503   0.525   2.200   5.214
 1989SOL    HW2 6504   0.374   2.203   5.224
 1990SOL     OW 6505   1.606   2.301   4.458
 1990SOL    HW1 6506   1.526   2.324   4.410
 1990SOL    HW2 6507   1.622   2.377   4.515
 1991SOL     OW 6508   0.222   3.572   4.190
 1991SOL    HW1 6509   0.222   3.655   4.236
 1991SOL    HW2 6510   0.299   3.576   4.133
 1992SOL     OW 6511   1.138   3.204   5.418
 1992SOL    HW1 6512   1.179   3.197   5.504
 1992SOL    HW2 6513   1.085   3.124   5.410
 1993SOL     OW 6514   0.252   3.306   4.264
 1993SOL    HW1 6515   0.223   3.396   4.250
 1993SOL    HW2 6516   0.182   3.267   4.317
 1994SOL     OW 6517   0.248   2.928   4.607
 1994SOL    HW1 6518   0.268   2.843   4.647
 1994SOL    HW2 6519   0.195   2.973   4.673
 1995SOL     OW 6520   0.610   3.648   5.150
 1995SOL    HW1 6521   0.528   3.634   5.198
 1995SOL    HW2 6522   0.637   3.737   5.175
 1996SOL     OW 6523   0.576   2.848   3.863
 1996SOL    HW1 6524   0.625   2.893   3.794
 1996SOL    HW2 6525   0.617   2.878   3.944
 1997SOL     OW 6526   1.596   1.994   5.187
 1997SOL    HW1 6527   1.591   2.080   5.146
 1997SOL    HW2 6528   1.585   2.011   5.281
 1998SOL     OW 6529   0.143   2.517   4.298
 1998SOL    HW1 6530   0.087   2.439   4.296
 1998SOL    HW2 6531   0.107   2.571   4.368
 1999SOL     OW 6532   1.843   3.607   4.062
 1999SOL    HW1 6533   1.912   3.584   4.123
 1999SOL    HW2 6534   1.862   3.698   4.038
 2000SOL     OW 6535   0.041   3.452   3.863
 2000SOL    HW1 6536   0.035   3.360   3.890
 2000SOL    HW2 6537   3.957   3.489   3.890
 2001SOL     OW 6538   1.690   2.781   4.367
 2001SOL    HW1 6539   1.770   2.735   4.342
 2001SOL    HW2 6540   1.666   2.831   4.290
 2002SOL     OW 6541   1.648   2.967   4.153
 2002SOL    HW1 6542   1.734   2.968   4.112
 2002SOL    HW2 6543   1.654   3.029   4.225
 2003SOL     OW 6544   0.141   2.615   5.314
 2003SOL    HW1 6545   0.236   2.610   5.309
 2003SOL    HW2 6546   0.122   2.703   5.346
 2004SOL     OW 6547   0.617   3.249   4.458
 2004SOL    HW1 6548   0.569   3.166   4.468
 2004SOL    HW2 6549   0.599   3.276   4.368
 2005SOL     OW 6550   1.286   3.098   5.146
 2005SOL    HW1 6551   1.318   3.031   5.086
 2005SOL    HW2 6552   1.346   3.094   5.221
 2006SOL     OW 6553   0.821   1.863   4.237
 2006SOL    HW1 6554   0.861   1.947   4.214
 2006SOL    HW2 6555   0.727   1.881   4.241
 2007SOL     OW 6556   0.184   2.811   5.005
 2007SOL    HW1 6557   0.272   2.776   4.992
 2007SOL    HW2 6558   0.132   2.775   4.932
 2008SOL     OW 6559   1.531   2.859   3.923
 2008SOL    HW1 6560   1.462   2.802   3.956
 2008SOL    HW2 6561   1.573   2.893   4.002
 2009SOL     OW 6562   1.219   3.666   5.352
 2009SOL    HW1 6563   1.195   3.728   5.282
 2009SOL    HW2 6564   1.220   3.581   5.309
 2010SOL     OW 6565   0.342   2.109   5.543
 2010SOL    HW1 6566   0.377   2.198   5.547
 2010SOL    HW2 6567   0.250   2.118   5.567
 2011SOL     OW 6568   1.466   3.281   4.673
 2011SOL    HW1 6569   1.399   3.297   4.739
 2011SOL    HW2 6570   1.453   3.190   4.647
 2012SOL     OW 6571   1.653   3.603   4.305
 2012SOL    HW1 6572   1.640   3.572   4.216
 2012SOL    HW2 6573   1.631   3.528   4.361
 2013SOL     OW 6574   0.596   2.577   3.990
 2013SOL    HW1 6575   0.602   2.662   3.946
 2013SOL    HW2 6576   0.533   2.591   4.061
 2014SOL     OW 6577   1.279   2.225   4.659
 2014SOL    HW1 6578   1.191   2.188   4.669
 2014SOL    HW2 6579   1.334   2.168   4.713
 2015SOL     OW 6580   1.576   3.538   4.033
 2015SOL    HW1 6581   1.669   3.560   4.027
 2015SOL    HW2 6582   1.550   3.519   3.942
 2016SOL     OW 6583   0.790   2.480   5.174
 2016SOL    HW1 6584   0.764   2.454   5.262
 2016SOL    HW2 6585   0.754   2.412   5.117
 2017SOL     OW 6586   1.392   2.334   5.400
 2017SOL    HW1 6587   1.395   2.381   5.484
 2017SOL    HW2 6588   1.454   2.262   5.410
 2018SOL     OW 6589   0.951   2.748   5.309
 2018SOL    HW1 6590   1.006   2.679   5.271
 2018SOL    HW2 6591   0.903   2.783   5.234
 2019SOL     OW 6592   0.993   2.273   4.960
 2019SOL    HW1 6593   0.905   2.292   4.992
 2019SOL    HW2 6594   0.980   2.230   4.876
 2020SOL     OW 6595   1.053   2.561   4.149
 2020SOL    HW1 6596   1.070   2.554   4.243
 2020SOL    HW2 6597   0.970   2.514   4.136
 2021SOL     OW 6598   0.082   2.692   4.514
 2021SOL    HW1 6599   0.156   2.661   4.567
 2021SOL    HW2 6600   0.102   2.784   4.498
 2022SOL     OW 6601   0.127   3.719   5.303
 2022SOL    HW1 6602   0.135   3.687   5.393
 2022SOL    HW2 6603   0.035   3.706   5.281
 2023SOL     OW 6604   0.897   2.212   3.917
 2023SOL    HW1 6605   0.937   2.276   3.858
 2023SOL    HW2 6606   0.914   2.127   3.877
 2024SOL     OW 6607   1.664   2.442   5.561
 2024SOL    HW1 6608   1.645   2.514   5.500
 2024SOL    HW2 6609   1.718   2.382   5.510
 2025SOL     OW 6610   1.379   3.004   4.264
 2025SOL    HW1 6611   1.458   2.992   4.211
 2025SOL    HW2 6612   1.326   3.066   4.214
 2026SOL     OW 6613   0.546   2.040   4.619
 2026SOL    HW1 6614   0.553   2.072   4.708
 2026SOL    HW2 6615   0.546   2.118   4.564
 2027SOL     OW 6616   1.002   3.307   4.194
 2027SOL    HW1 6617   0.967   3.381   4.145
 2027SOL    HW2 6618   0.981   3.326   4.285
 2028SOL     OW 6619   0.359   3.672   4.587
 2028SOL    HW1 6620   0.439   3.620   4.600
 2028SOL    HW2 6621   0.388   3.763   4.596
 2029SOL     OW 6622   1.800   2.915   4.594
 2029SOL    HW1 6623   1.748   2.895   4.516
 2029SOL    HW2 6624   1.737   2.922   4.665
 2030SOL     OW 6625   1.227   3.399   5.235
 2030SOL    HW1 6626   1.215   3.327   5.297
 2030SOL    HW2 6627   1.159   3.387   5.170
 2031SOL     OW 6628   0.311   2.815   3.966
 2031SOL    HW1 6629   0.394   2.838   3.924
 2031SOL    HW2 6630   0.298   2.723   3.946
 2032SOL     OW 6631   1.480   2.610   4.449
 2032SOL    HW1 6632   1.476   2.567   4.534
 2032SOL    HW2 6633   1.559   2.664   4.453
 2033SOL     OW 6634   0.469   3.122   5.461
 2033SOL    HW1 6635   0.443   3.130   5.369
 2033SOL    HW2 6636   0.386   3.126   5.509
 2034SOL     OW 6637   1.113   3.643   3.945
 2034SOL    HW1 6638   1.048   3.597   3.998
 2034SOL    HW2 6639   1.144   3.577   3.883
 2035SOL     OW 6640   0.204   2.133   5.233
 2035SOL    HW1 6641   0.114   2.167   5.227
 2035SOL    HW2 6642   0.194   2.045   5.269
 2036SOL     OW 6643   1.627   3.244   3.815
 2036SOL    HW1 6644   1.587   3.328   3.797
 2036SOL    HW2 6645   1.559   3.180   3.794
 2037SOL     OW 6646   0.467   3.602   4.045
 2037SOL    HW1 6647   0.506   3.664   4.107
 2037SOL    HW2 6648   0.540   3.573   3.991
 2038SOL     OW 6649   1.396   1.966   4.158
 2038SOL    HW1 6650   1.381   1.945   4.066
 2038SOL    HW2 6651   1.489   1.948   4.171
 2039SOL     OW 6652   0.254   3.656   4.949
 2039SOL    HW1 6653   0.297   3.589   5.002
 2039SOL    HW2 6654   0.252   3.620   4.861
 2040SOL     OW 6655   0.938   3.564   4.623
 2040SOL    HW1 6656   1.015   3.512   4.645
 2040SOL    HW2 6657   0.895   3.513   4.554
 2041SOL     OW 6658   0.400   2.554   4.195
 2041SOL    HW1 6659   0.424   2.463   4.210
 2041SOL    HW2 6660   0.308   2.560   4.221
 2042SOL     OW 6661   1.532   2.086   5.447
 2042SOL    HW1 6662   1.544   2.106   5.540
 2042SOL    HW2 6663   1.462   2.021   5.446
 2043SOL     OW 6664   0.645   1.979   3.820
 2043SOL    HW1 6665   0.704   1.907   3.841
 2043SOL    HW2 6666   0.594   1.948   3.745
 2044SOL     OW 6667   0.766   2.142   5.480
 2044SOL    HW1 6668   0.845   2.088   5.476
 2044SOL    HW2 6669   0.718   2.108   5.555
 2045SOL     OW 6670   0.876   3.383   4.918
 2045SOL    HW1 6671   0.859   3.346   4.831
 2045SOL    HW2 6672   0.946   3.328   4.954
 2046SOL     OW 6673   1.340   2.451   5.156
 2046SOL    HW1 6674   1.370   2.420   5.241
 2046SOL    HW2 6675   1.376   2.539   5.149
 2047SOL     OW 6676   0.818   3.253   4.667
 2047SOL    HW1 6677   0.903   3.241   4.624
 2047SOL    HW2 6678   0.755   3.256   4.594
 2048SOL     OW 6679   0.929   2.371   4.625
 2048SOL    HW1 6680   0.904   2.363   4.533
 2048SOL    HW2 6681   0.959   2.284   4.650
 2049SOL     OW 6682   0.557   1.924   4.218
 2049SOL    HW1 6683   0.475   1.929   4.267
 2049SOL    HW2 6684   0.561   2.006   4.169
 2050SOL     OW 6685   1.428   3.062   3.763
 2050SOL    HW1 6686   1.458   2.986   3.814
 2050SOL    HW2 6687   1.342   3.083   3.801
 2051SOL     OW 6688   0.309   1.913   3.893
 2051SOL    HW1 6689   0.372   1.951   3.832
 2051SOL    HW2 6690   0.359   1.848   3.942
 2052SOL     OW 6691   0.941   2.110   4.182
 2052SOL    HW1 6692   0.912   2.150   4.100
 2052SOL    HW2 6693   1.035   2.127   4.186
 2053SOL     OW 6694   1.080   2.545   5.182
 2053SOL    HW1 6695   1.014   2.475   5.186
 2053SOL    HW2 6696   1.164   2.498   5.176
 2054SOL     OW 6697   1.221   3.433   4.518
 2054SOL    HW1 6698   1.236   3.500   4.451
 2054SOL    HW2 6699   1.290   3.448   4.582
 2055SOL     OW 6700   0.467   3.013   4.458
 2055SOL    HW1 6701   0.396   2.989   4.517
 2055SOL    HW2 6702   0.431   2.998   4.370
 2056SOL     OW 6703   1.265   3.656   4.333
 2056SOL    HW1 6704   1.313   3.720   4.281
 2056SOL    HW2 6705   1.192   3.705   4.371
 2057SOL     OW 6706   1.023   2.399   3.750
 2057SOL    HW1 6707   0.981   2.483   3.730
 2057SOL    HW2 6708   1.091   2.421   3.814
 2058SOL     OW 6709   0.083   2.435   5.114
 2058SOL    HW1 6710   0.173   2.422   5.083
 2058SOL    HW2 6711   0.089   2.504   5.179
 2059SOL     OW 6712   0.567   2.089   4.891
 2059SOL    HW1 6713   0.608   2.014   4.933
 2059SOL    HW2 6714   0.475   2.085   4.919
 2060SOL     OW 6715   0.867   2.320   4.364
 2060SOL    HW1 6716   0.820   2.374   4.300
 2060SOL    HW2 6717   0.888   2.240   4.315
 2061SOL     OW 6718   1.017   1.916   4.474
 2061SOL    HW1 6719   0.959   1.911   4.398
 2061SOL    HW2 6720   0.993   1.841   4.528
 2062SOL     OW 6721   1.438   3.023   4.580
 2062SOL    HW1 6722   1.368   2.958   4.580
 2062SOL    HW2 6723   1.463   3.032   4.488
 2063SOL     OW 6724   1.465   2.470   4.695
 2063SOL    HW1 6725   1.410   2.391   4.698
 2063SOL    HW2 6726   1.523   2.461   4.771
 2064SOL     OW 6727   1.843   2.680   4.110
 2064SOL    HW1 6728   1.903   2.629   4.164
 2064SOL    HW2 6729   1.811   2.617   4.044
 2065SOL     OW 6730   0.488   3.282   3.882
 2065SOL    HW1 6731   0.412   3.253   3.932
 2065SOL    HW2 6732   0.472   3.251   3.793
 2066SOL     OW 6733   1.674   3.126   4.367
 2066SOL    HW1 6734   1.769   3.127   4.381
 2066SOL    HW2 6735   1.646   3.215   4.389
 2067SOL     OW 6736   1.389   2.439   3.791
 2067SOL    HW1 6737   1.339   2.413   3.868
 2067SOL    HW2 6738   1.480   2.421   3.814
 2068SOL     OW 6739   0.574   2.130   4.041
 2068SOL    HW1 6740   0.606   2.083   3.964
 2068SOL    HW2 6741   0.542   2.213   4.007
 2069SOL     OW 6742   1.750   3.104   5.290
 2069SOL    HW1 6743   1.838   3.065   5.287
 2069SOL    HW2 6744   1.766   3.194   5.319
 2070SOL     OW 6745   1.056   3.214   5.056
 2070SOL    HW1 6746   0.981   3.184   5.107
 2070SOL    HW2 6747   1.131   3.173   5.098
 2071SOL     OW 6748   1.610   3.489   5.381
 2071SOL    HW1 6749   1.601   3.522   5.292
 2071SOL    HW2 6750   1.692   3.440   5.381
 2072SOL     OW 6751   1.133   3.069   4.827
 2072SOL    HW1 6752   1.073   3.107   4.892
 2072SOL    HW2 6753   1.102   3.103   4.743
 2073SOL     OW 6754   1.625   2.959   4.800
 2073SOL    HW1 6755   1.619   3.021   4.872
 2073SOL    HW2 6756   1.548   2.977   4.746
 2074SOL     OW 6757   0.918   1.957   5.117
 2074SOL    HW1 6758   0.941   1.938   5.026
 2074SOL    HW2 6759   0.997   1.996   5.154
 2075SOL     OW 6760   0.984   2.977   5.447
 2075SOL    HW1 6761   0.893   2.993   5.470
 2075SOL    HW2 6762   0.981   2.898   5.392
 2076SOL     OW 6763   0.708   2.923   4.095
 2076SOL    HW1 6764   0.694   2.905   4.188
 2076SOL    HW2 6765   0.784   2.870   4.071
 2077SOL     OW 6766   0.422   2.679   4.977
 2077SOL    HW1 6767   0.491   2.688   5.043
 2077SOL    HW2 6768   0.389   2.590   4.988
 2078SOL     OW 6769   1.264   2.236   5.003
 2078SOL    HW1 6770   1.297   2.314   5.048
 2078SOL    HW2 6771   1.174   2.258   4.980
 2079SOL     OW 6772   0.065   3.442   5.069
 2079SOL    HW1 6773   0.071   3.491   4.988
 2079SOL    HW2 6774   0.157   3.431   5.097
 2080SOL     OW 6775   0.368   2.964   4.206
 2080SOL    HW1 6776   0.364   3.045   4.155
 2080SOL    HW2 6777   0.368   2.895   4.140
 2081SOL     OW 6778   0.548   2.397   4.586
 2081SOL    HW1 6779   0.563   2.454   4.510
 2081SOL    HW2 6780   0.616   2.423   4.648
 2082SOL     OW 6781   1.247   3.211   4.114
 2082SOL    HW1 6782   1.303   3.282   4.145
 2082SOL    HW2 6783   1.160   3.233   4.147
 2083SOL     OW 6784   1.286   3.322   4.872
 2083SOL    HW1 6785   1.342   3.326   4.950
 2083SOL    HW2 6786   1.230   3.245   4.887
 2084SOL     OW 6787   1.574   2.481   4.202
 2084SOL    HW1 6788   1.531   2.539   4.265
 2084SOL    HW2 6789   1.620   2.541   4.142
 2085SOL     OW 6790   0.345   3.390   5.041
 2085SOL    HW1 6791   0.335   3.340   4.960
 2085SOL    HW2 6792   0.439   3.404   5.049
 2086SOL     OW 6793   0.417   2.600   5.325
 2086SOL    HW1 6794   0.480   2.645   5.269
 2086SOL    HW2 6795   0.457   2.515   5.342
 2087SOL     OW 6796   1.603   2.649   5.401
 2087SOL    HW1 6797   1.518   2.692   5.395
 2087SOL    HW2 6798   1.656   2.692   5.334
 2088SOL     OW 6799   0.996   1.992   5.478
 2088SOL    HW1 6800   1.054   2.064   5.455
 2088SOL    HW2 6801   1.043   1.913   5.452
 2089SOL     OW 6802   0.496   1.897   5.472
 2089SOL    HW1 6803   0.452   1.845   5.405
 2089SOL    HW2 6804   0.442   1.975   5.481
 2090SOL     OW 6805   0.586   2.736   4.756
 2090SOL    HW1 6806   0.619   2.826   4.757
 2090SOL    HW2 6807   0.530   2.731   4.833
 2091SOL     OW 6808   1.352   2.720   4.749
 2091SOL    HW1 6809   1.267   2.708   4.706
 2091SOL    HW2 6810   1.396   2.636   4.740
 2092SOL     OW 6811   1.202   2.389   3.989
 2092SOL    HW1 6812   1.210   2.311   4.045
 2092SOL    HW2 6813   1.159   2.454   4.045
 2093SOL     OW 6814   0.310   2.057   4.971
 2093SOL    HW1 6815   0.262   2.094   5.046
 2093SOL    HW2 6816   0.287   1.965   4.971
 2094SOL     OW 6817   0.062   3.167   5.004
 2094SOL    HW1 6818   0.091   3.126   5.085
 2094SOL    HW2 6819   0.053   3.260   5.027
 2095SOL     OW 6820   0.723   2.492   4.779
 2095SOL    HW1 6821   0.799   2.478   4.723
 2095SOL    HW2 6822   0.695   2.582   4.759
 2096SOL     OW 6823   1.736   2.822   5.578
 2096SOL    HW1 6824   1.692   2.756   5.525
 2096SOL    HW2 6825   1.678   2.837   5.652
 2097SOL     OW 6826   0.315   1.924   4.344
 2097SOL    HW1 6827   0.293   2.014   4.364
 2097SOL    HW2 6828   0.322   1.880   4.429
 2098SOL     OW 6829   1.610   2.233   4.099
 2098SOL    HW1 6830   1.613   2.184   4.181
 2098SOL    HW2 6831   1.590   2.323   4.126
 2099SOL     OW 6832   1.028   2.621   4.683
 2099SOL    HW1 6833   1.022   2.638   4.777
 2099SOL    HW2 6834   1.002   2.529   4.673
 2100SOL     OW 6835   0.986   3.429   5.445
 2100SOL    HW1 6836   0.966   3.470   5.361
 2100SOL    HW2 6837   1.028   3.347   5.422
 2101SOL     OW 6838   1.853   3.365   5.328
 2101SOL    HW1 6839   1.873   3.392   5.239
 2101SOL    HW2 6840   1.933   3.381   5.377
 2102SOL     OW 6841   0.353   2.783   5.524
 2102SOL    HW1 6842   0.432   2.805   5.574
 2102SOL    HW2 6843   0.382   2.716   5.462
 2103SOL     OW 6844   1.530   2.130   3.852
 2103SOL    HW1 6845   1.462   2.068   3.881
 2103SOL    HW2 6846   1.561   2.169   3.934
 2104SOL     OW 6847   1.288   2.689   3.753
 2104SOL    HW1 6848   1.328   2.603   3.757
 2104SOL    HW2 6849   1.320   2.728   3.671
 2105SOL     OW 6850   1.068   3.199   4.579
 2105SOL    HW1 6851   1.072   3.127   4.517
 2105SOL    HW2 6852   1.127   3.265   4.544
 2106SOL     OW 6853   0.313   2.663   4.674
 2106SOL    HW1 6854   0.407   2.681   4.668
 2106SOL    HW2 6855   0.308   2.573   4.705
 2107SOL     OW 6856   0.329   2.383   4.739
 2107SOL    HW1 6857   0.295   2.295   4.723
 2107SOL    HW2 6858   0.405   2.390   4.681
 2108SOL     OW 6859   1.133   2.235   5.409
 2108SOL    HW1 6860   1.086   2.291   5.471
 2108SOL    HW2 6861   1.221   2.273   5.405
 2109SOL     OW 6862   1.160   2.062   5.196
 2109SOL    HW1 6863   1.150   2.124   5.267
 2109SOL    HW2 6864   1.202   2.112   5.125
 2110SOL     OW 6865   4.000   3.179   3.906
 2110SOL    HW1 6866   3.906   3.195   3.910
 2110SOL    HW2 6867   0.009   3.085   3.924
 2111SOL     OW 6868   0.076   3.662   4.619
 2111SOL    HW1 6869   0.092   3.568   4.616
 2111SOL    HW2 6870   0.163   3.702   4.618
 2112SOL     OW 6871   0.506   3.425   4.642
 2112SOL    HW1 6872   0.572   3.492   4.661
 2112SOL    HW2 6873   0.549   3.367   4.578
 2113SOL     OW 6874   0.977   2.651   4.949
 2113SOL    HW1 6875   1.036   2.631   5.022
 2113SOL    HW2 6876   0.893   2.613   4.974
 2114SOL     OW 6877   0.038   2.421   4.833
 2114SOL    HW1 6878   0.120   2.398   4.791
 2114SOL    HW2 6879   0.057   2.418   4.927
 2115SOL     OW 6880   0.207   2.374   5.451
 2115SOL    HW1 6881   0.245   2.325   5.378
 2115SOL    HW2 6882   0.161   2.447   5.411
 2116SOL     OW 6883   1.375   2.801   5.380
 2116SOL    HW1 6884   1.398   2.893   5.377
 2116SOL    HW2 6885   1.371   2.773   5.289
 2117SOL     OW 6886   0.819   2.431   4.087
 2117SOL    HW1 6887   0.824   2.356   4.028
 2117SOL    HW2 6888   0.745   2.482   4.055
 2118SOL     OW 6889   1.642   2.464   4.905
 2118SOL    HW1 6890   1.632   2.410   4.983
 2118SOL    HW2 6891   1.729   2.441   4.871
 2119SOL     OW 6892   0.300   3.407   5.449
 2119SOL    HW1 6893   0.252   3.476   5.494
 2119SOL    HW2 6894   0.270   3.326   5.490
 2120SOL     OW 6895   0.709   2.310   4.980
 2120SOL    HW1 6896   0.655   2.236   4.951
 2120SOL    HW2 6897   0.702   2.374   4.909
 2121SOL     OW 6898   0.926   3.533   5.194
 2121SOL    HW1 6899   0.900   3.494   5.110
 2121SOL    HW2 6900   0.918   3.627   5.180
 2122SOL     OW 6901   0.453   2.351   3.920
 2122SOL    HW1 6902   0.519   2.418   3.938
 2122SOL    HW2 6903   0.374   2.400   3.897
 2123SOL     OW 6904   0.155   2.997   5.200
 2123SOL    HW1 6905   0.155   2.946   5.281
 2123SOL    HW2 6906   0.170   2.932   5.131
 2124SOL     OW 6907   1.323   2.907   4.944
 2124SOL    HW1 6908   1.344   2.843   4.876
 2124SOL    HW2 6909   1.255   2.962   4.905
 2125SOL     OW 6910   1.314   2.719   4.029
 2125SOL    HW1 6911   1.239   2.687   4.080
 2125SOL    HW2 6912   1.288   2.705   3.938
 2126SOL     OW 6913   1.773   3.601   4.876
 2126SOL    HW1 6914   1.835   3.629   4.808
 2126SOL    HW2 6915   1.751   3.511   4.852
 2127SOL     OW 6916   1.244   3.594   4.831
 2127SOL    HW1 6917   1.327   3.616   4.789
 2127SOL    HW2 6918   1.251   3.501   4.852
 2128SOL     OW 6919   0.077   3.076   4.752
 2128SOL    HW1 6920   0.084   3.103   4.843
 2128SOL    HW2 6921   3.984   3.088   4.730
 2129SOL     OW 6922   0.680   3.528   5.459
 2129SOL    HW1 6923   0.621   3.603   5.462
 2129SOL    HW2 6924   0.740   3.547   5.387
 2130SOL     OW 6925   1.391   3.431   4.212
 2130SOL    HW1 6926   1.450   3.465   4.145
 2130SOL    HW2 6927   1.342   3.507   4.242
 2131SOL     OW 6928   0.171   3.622   5.556
 2131SOL    HW1 6929   0.116   3.569   5.615
 2131SOL    HW2 6930   0.217   3.682   5.615
 2132SOL     OW 6931   1.277   2.790   4.395
 2132SOL    HW1 6932   1.351   2.729   4.405
 2132SOL    HW2 6933   1.312   2.861   4.342
 2133SOL     OW 6934   0.808   3.137   5.151
 2133SOL    HW1 6935   0.780   3.177   5.233
 2133SOL    HW2 6936   0.737   3.154   5.089
 2134SOL     OW 6937   0.674   3.480   3.882
 2134SOL    HW1 6938   0.683   3.497   3.789
 2134SOL    HW2 6939   0.615   3.405   3.887
 2135SOL     OW 6940   1.621   3.588   5.114
 2135SOL    HW1 6941   1.673   3.593   5.034
 2135SOL    HW2 6942   1.607   3.680   5.139
 2136SOL     OW 6943   0.265   2.174   4.440
 2136SOL    HW1 6944   0.179   2.206   4.414
 2136SOL    HW2 6945   0.260   2.165   4.535
 2137SOL     OW 6946   1.208   3.465   3.760
 2137SOL    HW1 6947   1.197   3.373   3.784
 2137SOL    HW2 6948   1.147   3.478   3.688
 2138SOL     OW 6949   0.823   2.868   5.098
 2138SOL    HW1 6950   0.868   2.862   5.013
 2138SOL    HW2 6951   0.821   2.961   5.118
 2139SOL     OW 6952   0.916   2.772   4.015
 2139SOL    HW1 6953   0.976   2.805   3.948
 2139SOL    HW2 6954   0.965   2.704   4.061
 2140SOL     OW 6955   1.489   3.492   3.767
 2140SOL    HW1 6956   1.395   3.480   3.751
 2140SOL    HW2 6957   1.528   3.497   3.680
 2141SOL     OW 6958   0.374   3.165   5.215
 2141SOL    HW1 6959   0.359   3.245   5.165
 2141SOL    HW2 6960   0.297   3.111   5.198
 2142SOL     OW 6961   1.609   3.145   5.004
 2142SOL    HW1 6962   1.669   3.132   5.077
 2142SOL    HW2 6963   1.549   3.213   5.035
 2143SOL     OW 6964   1.058   2.971   4.433
 2143SOL    HW1 6965   0.986   2.920   4.470
 2143SOL    HW2 6966   1.121   2.905   4.405
 2144SOL     OW 6967   1.023   2.103   4.691
 2144SOL    HW1 6968   1.020   2.057   4.608
 2144SOL    HW2 6969   1.018   2.034   4.757
 2145SOL     OW 6970   0.606   3.352   4.204
 2145SOL    HW1 6971   0.653   3.302   4.137
 2145SOL    HW2 6972   0.533   3.393   4.158
 2146SOL     OW 6973   1.725   2.255   5.101
 2146SOL    HW1 6974   1.799   2.316   5.109
 2146SOL    HW2 6975   1.755   2.189   5.039
 2147SOL     OW 6976   0.254   3.202   4.016
 2147SOL    HW1 6977   0.160   3.210   3.998
 2147SOL    HW2 6978   0.264   3.241   4.103
 2148SOL     OW 6979   0.108   2.859   5.441
 2148SOL    HW1 6980   0.048   2.853   5.515
 2148SOL    HW2 6981   0.194   2.841   5.479
 2149SOL     OW 6982   0.676   2.058   5.224
 2149SOL    HW1 6983   0.760   2.036   5.183
 2149SOL    HW2 6984   0.700   2.092   5.311
 2150SOL     OW 6985   0.081   2.175   3.761
 2150SOL    HW1 6986   3.985   2.175   3.769
 2150SOL    HW2 6987   0.101   2.256   3.715
 2151SOL     OW 6988   1.427   2.721   5.122
 2151SOL    HW1 6989   1.378   2.782   5.067
 2151SOL    HW2 6990   1.516   2.723   5.087
 2152SOL     OW 6991   0.017   2.100   4.101
 2152SOL    HW1 6992   0.045   2.164   4.036
 2152SOL    HW2 6993   0.098   2.060   4.131
 2153SOL     OW 6994   1.178   3.198   3.841
 2153SOL    HW1 6995   1.086   3.169   3.842
 2153SOL    HW2 6996   1.204   3.198   3.933
 2154SOL     OW 6997   0.620   2.692   5.161
 2154SOL    HW1 6998   0.676   2.768   5.145
 2154SOL    HW2 6999   0.681   2.619   5.168
 2155SOL     OW 7000   1.486   3.642   4.706
 2155SOL    HW1 7001   1.509   3.702   4.635
 2155SOL    HW2 7002   1.570   3.619   4.745
 2156SOL     OW 7003   0.716   2.423   5.427
 2156SOL    HW1 7004   0.761   2.484   5.485
 2156SOL    HW2 7005   0.739   2.337   5.460
 2157SOL     OW 7006   1.474   3.059   5.354
 2157SOL    HW1 7007   1.462   3.073   5.448
 2157SOL    HW2 7008   1.566   3.077   5.339
 2158SOL     OW 7009   0.378   3.608   5.284
 2158SOL    HW1 7010   0.290   3.644   5.271
 2158SOL    HW2 7011   0.364   3.525   5.329
 2159SOL     OW 7012   1.666   2.743   4.977
 2159SOL    HW1 7013   1.660   2.657   4.934
 2159SOL    HW2 7014   1.656   2.806   4.907
 2160SOL     OW 7015   1.215   2.181   4.182
 2160SOL    HW1 7016   1.277   2.109   4.175
 2160SOL    HW2 7017   1.244   2.231   4.259
 2161SOL     OW 7018   0.588   2.599   4.397
 2161SOL    HW1 7019   0.627   2.685   4.382
 2161SOL    HW2 7020   0.523   2.590   4.328
 2162SOL     OW 7021   1.753   2.238   5.380
 2162SOL    HW1 7022   1.744   2.247   5.285
 2162SOL    HW2 7023   1.682   2.179   5.406
 2163SOL     OW 7024   1.749   2.800   5.232
 2163SOL    HW1 7025   1.740   2.895   5.244
 2163SOL    HW2 7026   1.731   2.787   5.139
 2164SOL     OW 7027   0.865   3.228   3.764
 2164SOL    HW1 7028   0.823   3.257   3.846
 2164SOL    HW2 7029   0.879   3.309   3.715
 2165SOL     OW 7030   0.659   3.650   4.657
 2165SOL    HW1 7031   0.638   3.741   4.639
 2165SOL    HW2 7032   0.754   3.646   4.656
 2166SOL     OW 7033   0.869   2.831   4.577
 2166SOL    HW1 7034   0.919   2.758   4.615
 2166SOL    HW2 7035   0.832   2.877   4.653
 2167SOL     OW 7036   1.076   2.850   3.812
 2167SOL    HW1 7037   1.056   2.902   3.734
 2167SOL    HW2 7038   1.151   2.797   3.787
 2168SOL     OW 7039   1.850   3.412   4.565
 2168SOL    HW1 7040   1.769   3.402   4.514
 2168SOL    HW2 7041   1.841   3.350   4.637
 2169SOL     OW 7042   0.227   3.166   5.581
 2169SOL    HW1 7043   0.153   3.113   5.553
 2169SOL    HW2 7044   0.215   3.179   5.675
 2170SOL     OW 7045   0.117   3.142   4.447
 2170SOL    HW1 7046   0.136   3.091   4.526
 2170SOL    HW2 7047   0.104   3.076   4.379
 2171SOL     OW 7048   0.683   3.267   5.355
 2171SOL    HW1 7049   0.603   3.225   5.385
 2171SOL    HW2 7050   0.680   3.355   5.392
 2172SOL     OW 7051   0.440   2.296   4.258
 2172SOL    HW1 7052   0.441   2.226   4.193
 2172SOL    HW2 7053   0.385   2.262   4.328
 2173SOL     OW 7054   1.700   3.347   4.815
 2173SOL    HW1 7055   1.618   3.326   4.768
 2173SOL    HW2 7056   1.707   3.279   4.882
 2174SOL     OW 7057   0.336   2.420   5.016
 2174SOL    HW1 7058   0.389   2.363   5.071
 2174SOL    HW2 7059   0.350   2.389   4.927
 2175SOL     OW 7060   0.829   3.441   4.400
 2175SOL    HW1 7061   0.811   3.496   4.324
 2175SOL    HW2 7062   0.755   3.380   4.404
 2176SOL     OW 7063   1.437   2.092   4.843
 2176SOL    HW1 7064   1.445   2.004   4.879
 2176SOL    HW2 7065   1.383   2.139   4.907
 2177SOL     OW 7066   1.010   1.878   4.862
 2177SOL    HW1 7067   0.956   1.811   4.820
 2177SOL    HW2 7068   1.098   1.840   4.864
 2178SOL     OW 7069   0.773   3.194   4.044
 2178SOL    HW1 7070   0.744   3.103   4.050
 2178SOL    HW2 7071   0.855   3.196   4.092
 2179SOL     OW 7072   0.621   3.415   5.010
 2179SOL    HW1 7073   0.621   3.497   5.060
 2179SOL    HW2 7074   0.709   3.410   4.972
 2180SOL     OW 7075   1.350   1.914   3.892
 2180SOL    HW1 7076   1.382   1.850   3.828
 2180SOL    HW2 7077   1.263   1.884   3.915
 2181SOL     OW 7078   1.297   2.324   4.404
 2181SOL    HW1 7079   1.245   2.404   4.408
 2181SOL    HW2 7080   1.292   2.286   4.492
 2182SOL     OW 7081   1.568   2.050   4.595
 2182SOL    HW1 7082   1.535   2.079   4.680
 2182SOL    HW2 7083   1.585   2.132   4.547
 2183SOL     OW 7084   0.047   2.910   3.964
 2183SOL    HW1 7085   0.142   2.895   3.956
 2183SOL    HW2 7086   0.012   2.826   3.992
 2184SOL     OW 7087   0.887   3.522   4.066
 2184SOL    HW1 7088   0.815   3.503   4.006
 2184SOL    HW2 7089   0.855   3.596   4.118
 2185SOL     OW 7090   0.231   2.486   5.705
 2185SOL    HW1 7091   0.138   2.494   5.726
 2185SOL    HW2 7092   0.233   2.455   5.614
 2186SOL     OW 7093   0.229   2.134   6.573
 2186SOL    HW1 7094   0.250   2.100   6.659
 2186SOL    HW2 7095   0.134   2.127   6.566
 2187SOL     OW 7096   0.008   2.219   6.216
 2187SOL    HW1 7097   3.919   2.238   6.245
 2187SOL    HW2 7098   3.997   2.189   6.125
 2188SOL     OW 7099   0.580   3.152   6.778
 2188SOL    HW1 7100   0.494   3.155   6.736
 2188SOL    HW2 7101   0.595   3.241   6.811
 2189SOL     OW 7102   1.564   3.369   6.292
 2189SOL    HW1 7103   1.522   3.350   6.376
 2189SOL    HW2 7104   1.492   3.376   6.230
 2190SOL     OW 7105   1.110   2.597   6.274
 2190SOL    HW1 7106   1.178   2.664   6.272
 2190SOL    HW2 7107   1.075   2.601   6.363
 2191SOL     OW 7108   1.746   2.473   5.822
 2191SOL    HW1 7109   1.731   2.469   5.727
 2191SOL    HW2 7110   1.737   2.382   5.851
 2192SOL     OW 7111   0.751   3.000   6.629
 2192SOL    HW1 7112   0.688   3.036   6.691
 2192SOL    HW2 7113   0.788   3.076   6.585
 2193SOL     OW 7114   0.868   2.629   7.406
 2193SOL    HW1 7115   0.861   2.699   7.472
 2193SOL    HW2 7116   0.892   2.675   7.326
 2194SOL     OW 7117   0.685   2.862   6.232
 2194SOL    HW1 7118   0.752   2.852   6.300
 2194SOL    HW2 7119   0.617   2.915   6.273
 2195SOL     OW 7120   0.712   3.011   7.403
 2195SOL    HW1 7121   0.760   3.088   7.432
 2195SOL    HW2 7122   0.632   3.046   7.365
 2196SOL     OW 7123   0.351   3.263   6.664
 2196SOL    HW1 7124   0.269   3.247   6.617
 2196SOL    HW2 7125   0.400   3.321   6.606
 2197SOL     OW 7126   1.460   3.363   6.944
 2197SOL    HW1 7127   1.514   3.441   6.954
 2197SOL    HW2 7128   1.393   3.371   7.012
 2198SOL     OW 7129   0.449   2.260   7.074
 2198SOL    HW1 7130   0.525   2.201   7.076
 2198SOL    HW2 7131   0.373   2.203   7.086
 2199SOL     OW 7132   0.222   3.572   6.052
 2199SOL    HW1 7133   0.221   3.656   6.097
 2199SOL    HW2 7134   0.299   3.576   5.995
 2200SOL     OW 7135   1.137   3.204   7.279
 2200SOL    HW1 7136   1.178   3.197   7.365
 2200SOL    HW2 7137   1.085   3.124   7.270
 2201SOL     OW 7138   0.252   3.306   6.126
 2201SOL    HW1 7139   0.223   3.396   6.112
 2201SOL    HW2 7140   0.182   3.267   6.179
 2202SOL     OW 7141   0.248   2.928   6.470
 2202SOL    HW1 7142   0.268   2.843   6.509
 2202SOL    HW2 7143   0.195   2.973   6.535
 2203SOL     OW 7144   0.610   3.648   7.012
 2203SOL    HW1 7145   0.528   3.634   7.060
 2203SOL    HW2 7146   0.637   3.737   7.037
 2204SOL     OW 7147   0.576   2.848   5.725
 2204SOL    HW1 7148   0.625   2.893   5.656
 2204SOL    HW2 7149   0.617   2.878   5.806
 2205SOL     OW 7150   1.600   1.977   7.029
 2205SOL    HW1 7151   1.586   2.063   6.990
 2205SOL    HW2 7152   1.627   1.996   7.119
 2206SOL     OW 7153   0.143   2.516   6.160
 2206SOL    HW1 7154   0.086   2.440   6.157
 2206SOL    HW2 7155   0.107   2.571   6.230
 2207SOL     OW 7156   1.843   3.608   5.923
 2207SOL    HW1 7157   1.912   3.585   5.985
 2207SOL    HW2 7158   1.861   3.698   5.899
 2208SOL     OW 7159   0.041   3.452   5.726
 2208SOL    HW1 7160   0.036   3.360   5.752
 2208SOL    HW2 7161   3.956   3.489   5.751
 2209SOL     OW 7162   1.640   2.978   6.007
 2209SOL    HW1 7163   1.729   2.966   5.976
 2209SOL    HW2 7164   1.650   3.024   6.091
 2210SOL     OW 7165   0.141   2.614   7.176
 2210SOL    HW1 7166   0.237   2.610   7.171
 2210SOL    HW2 7167   0.122   2.702   7.209
 2211SOL     OW 7168   0.616   3.249   6.320
 2211SOL    HW1 7169   0.569   3.166   6.330
 2211SOL    HW2 7170   0.599   3.276   6.230
 2212SOL     OW 7171   1.286   3.099   7.007
 2212SOL    HW1 7172   1.318   3.032   6.947
 2212SOL    HW2 7173   1.345   3.093   7.083
 2213SOL     OW 7174   0.817   1.859   6.102
 2213SOL    HW1 7175   0.855   1.943   6.078
 2213SOL    HW2 7176   0.723   1.875   6.106
 2214SOL     OW 7177   0.184   2.811   6.867
 2214SOL    HW1 7178   0.272   2.776   6.854
 2214SOL    HW2 7179   0.133   2.775   6.794
 2215SOL     OW 7180   1.529   2.858   5.785
 2215SOL    HW1 7181   1.465   2.796   5.819
 2215SOL    HW2 7182   1.570   2.896   5.863
 2216SOL     OW 7183   1.220   3.667   7.214
 2216SOL    HW1 7184   1.195   3.728   7.145
 2216SOL    HW2 7185   1.220   3.581   7.171
 2217SOL     OW 7186   0.342   2.109   7.405
 2217SOL    HW1 7187   0.377   2.199   7.409
 2217SOL    HW2 7188   0.250   2.118   7.429
 2218SOL     OW 7189   1.465   3.281   6.534
 2218SOL    HW1 7190   1.399   3.296   6.601
 2218SOL    HW2 7191   1.453   3.189   6.509
 2219SOL     OW 7192   1.652   3.603   6.167
 2219SOL    HW1 7193   1.639   3.572   6.078
 2219SOL    HW2 7194   1.632   3.527   6.222
 2220SOL     OW 7195   0.596   2.578   5.853
 2220SOL    HW1 7196   0.601   2.662   5.808
 2220SOL    HW2 7197   0.533   2.592   5.923
 2221SOL     OW 7198   1.576   3.538   5.895
 2221SOL    HW1 7199   1.669   3.560   5.889
 2221SOL    HW2 7200   1.550   3.519   5.804
 2222SOL     OW 7201   0.796   2.479   7.036
 2222SOL    HW1 7202   0.766   2.454   7.124
 2222SOL    HW2 7203   0.758   2.412   6.978
 2223SOL     OW 7204   0.954   2.746   7.170
 2223SOL    HW1 7205   1.012   2.680   7.133
 2223SOL    HW2 7206   0.906   2.781   7.095
 2224SOL     OW 7207   0.987   2.282   6.804
 2224SOL    HW1 7208   0.899   2.291   6.840
 2224SOL    HW2 7209   0.976   2.229   6.726
 2225SOL     OW 7210   1.054   2.559   6.008
 2225SOL    HW1 7211   1.066   2.566   6.102
 2225SOL    HW2 7212   0.970   2.513   5.997
 2226SOL     OW 7213   0.082   2.692   6.376
 2226SOL    HW1 7214   0.156   2.661   6.429
 2226SOL    HW2 7215   0.102   2.785   6.360
 2227SOL     OW 7216   0.127   3.719   7.165
 2227SOL    HW1 7217   0.135   3.687   7.255
 2227SOL    HW2 7218   0.035   3.706   7.143
 2228SOL     OW 7219   0.903   2.211   5.781
 2228SOL    HW1 7220   0.941   2.276   5.722
 2228SOL    HW2 7221   0.906   2.129   5.732
 2229SOL     OW 7222   1.378   3.008   6.126
 2229SOL    HW1 7223   1.457   2.991   6.074
 2229SOL    HW2 7224   1.327   3.069   6.073
 2230SOL     OW 7225   0.545   2.039   6.481
 2230SOL    HW1 7226   0.553   2.072   6.571
 2230SOL    HW2 7227   0.546   2.118   6.427
 2231SOL     OW 7228   1.002   3.307   6.056
 2231SOL    HW1 7229   0.967   3.381   6.007
 2231SOL    HW2 7230   0.981   3.326   6.147
 2232SOL     OW 7231   0.359   3.672   6.449
 2232SOL    HW1 7232   0.439   3.620   6.462
 2232SOL    HW2 7233   0.388   3.763   6.458
 2233SOL     OW 7234   1.807   3.002   6.463
 2233SOL    HW1 7235   1.747   3.006   6.388
 2233SOL    HW2 7236   1.750   2.980   6.537
 2234SOL     OW 7237   1.228   3.400   7.097
 2234SOL    HW1 7238   1.215   3.327   7.158
 2234SOL    HW2 7239   1.159   3.388   7.031
 2235SOL     OW 7240   0.311   2.815   5.829
 2235SOL    HW1 7241   0.394   2.838   5.787
 2235SOL    HW2 7242   0.298   2.723   5.808
 2236SOL     OW 7243   0.469   3.122   7.323
 2236SOL    HW1 7244   0.443   3.131   7.231
 2236SOL    HW2 7245   0.386   3.126   7.371
 2237SOL     OW 7246   1.113   3.643   5.807
 2237SOL    HW1 7247   1.048   3.597   5.860
 2237SOL    HW2 7248   1.144   3.577   5.745
 2238SOL     OW 7249   0.204   2.133   7.094
 2238SOL    HW1 7250   0.114   2.166   7.089
 2238SOL    HW2 7251   0.194   2.045   7.131
 2239SOL     OW 7252   1.628   3.244   5.676
 2239SOL    HW1 7253   1.587   3.329   5.658
 2239SOL    HW2 7254   1.561   3.180   5.656
 2240SOL     OW 7255   0.467   3.602   5.907
 2240SOL    HW1 7256   0.506   3.664   5.969
 2240SOL    HW2 7257   0.540   3.573   5.852
 2241SOL     OW 7258   0.254   3.657   6.811
 2241SOL    HW1 7259   0.297   3.589   6.864
 2241SOL    HW2 7260   0.252   3.620   6.723
 2242SOL     OW 7261   0.938   3.563   6.485
 2242SOL    HW1 7262   1.016   3.512   6.507
 2242SOL    HW2 7263   0.895   3.513   6.416
 2243SOL     OW 7264   0.400   2.554   6.057
 2243SOL    HW1 7265   0.424   2.463   6.072
 2243SOL    HW2 7266   0.308   2.559   6.084
 2244SOL     OW 7267   0.648   1.980   5.680
 2244SOL    HW1 7268   0.704   1.905   5.702
 2244SOL    HW2 7269   0.594   1.948   5.607
 2245SOL     OW 7270   0.759   2.151   7.346
 2245SOL    HW1 7271   0.839   2.100   7.342
 2245SOL    HW2 7272   0.710   2.112   7.419
 2246SOL     OW 7273   0.876   3.383   6.780
 2246SOL    HW1 7274   0.859   3.346   6.693
 2246SOL    HW2 7275   0.945   3.328   6.816
 2247SOL     OW 7276   0.817   3.253   6.529
 2247SOL    HW1 7277   0.903   3.242   6.486
 2247SOL    HW2 7278   0.755   3.256   6.456
 2248SOL     OW 7279   0.931   2.374   6.487
 2248SOL    HW1 7280   0.908   2.363   6.395
 2248SOL    HW2 7281   0.954   2.287   6.517
 2249SOL     OW 7282   0.556   1.923   6.079
 2249SOL    HW1 7283   0.474   1.930   6.129
 2249SOL    HW2 7284   0.561   2.006   6.031
 2250SOL     OW 7285   1.429   3.062   5.626
 2250SOL    HW1 7286   1.459   2.986   5.677
 2250SOL    HW2 7287   1.343   3.083   5.664
 2251SOL     OW 7288   0.307   1.914   5.756
 2251SOL    HW1 7289   0.369   1.952   5.693
 2251SOL    HW2 7290   0.359   1.848   5.803
 2252SOL     OW 7291   0.928   2.104   6.043
 2252SOL    HW1 7292   0.905   2.146   5.960
 2252SOL    HW2 7293   1.024   2.105   6.045
 2253SOL     OW 7294   1.075   2.533   7.044
 2253SOL    HW1 7295   0.991   2.487   7.046
 2253SOL    HW2 7296   1.140   2.464   7.053
 2254SOL     OW 7297   1.221   3.433   6.380
 2254SOL    HW1 7298   1.235   3.500   6.313
 2254SOL    HW2 7299   1.290   3.448   6.444
 2255SOL     OW 7300   0.467   3.013   6.320
 2255SOL    HW1 7301   0.396   2.989   6.379
 2255SOL    HW2 7302   0.432   2.997   6.232
 2256SOL     OW 7303   1.265   3.656   6.195
 2256SOL    HW1 7304   1.313   3.720   6.143
 2256SOL    HW2 7305   1.192   3.705   6.233
 2257SOL     OW 7306   1.022   2.401   5.612
 2257SOL    HW1 7307   0.977   2.483   5.590
 2257SOL    HW2 7308   1.094   2.428   5.670
 2258SOL     OW 7309   0.083   2.435   6.976
 2258SOL    HW1 7310   0.173   2.422   6.945
 2258SOL    HW2 7311   0.089   2.504   7.041
 2259SOL     OW 7312   0.567   2.089   6.753
 2259SOL    HW1 7313   0.609   2.015   6.797
 2259SOL    HW2 7314   0.475   2.085   6.782
 2260SOL     OW 7315   0.868   2.318   6.226
 2260SOL    HW1 7316   0.821   2.376   6.166
 2260SOL    HW2 7317   0.880   2.237   6.177
 2261SOL     OW 7318   0.983   1.928   6.348
 2261SOL    HW1 7319   0.939   1.913   6.264
 2261SOL    HW2 7320   0.972   1.846   6.396
 2262SOL     OW 7321   1.441   3.020   6.444
 2262SOL    HW1 7322   1.376   2.950   6.446
 2262SOL    HW2 7323   1.461   3.031   6.351
 2263SOL     OW 7324   1.853   2.672   5.975
 2263SOL    HW1 7325   1.919   2.613   6.009
 2263SOL    HW2 7326   1.801   2.618   5.915
 2264SOL     OW 7327   0.488   3.282   5.744
 2264SOL    HW1 7328   0.412   3.252   5.794
 2264SOL    HW2 7329   0.471   3.252   5.655
 2265SOL     OW 7330   1.677   3.122   6.238
 2265SOL    HW1 7331   1.771   3.138   6.230
 2265SOL    HW2 7332   1.638   3.209   6.250
 2266SOL     OW 7333   1.389   2.439   5.652
 2266SOL    HW1 7334   1.344   2.413   5.732
 2266SOL    HW2 7335   1.482   2.424   5.671
 2267SOL     OW 7336   0.577   2.129   5.901
 2267SOL    HW1 7337   0.608   2.083   5.823
 2267SOL    HW2 7338   0.543   2.212   5.869
 2268SOL     OW 7339   1.754   3.103   7.156
 2268SOL    HW1 7340   1.838   3.065   7.133
 2268SOL    HW2 7341   1.774   3.193   7.182
 2269SOL     OW 7342   1.055   3.214   6.917
 2269SOL    HW1 7343   0.981   3.183   6.968
 2269SOL    HW2 7344   1.131   3.174   6.959
 2270SOL     OW 7345   1.612   3.488   7.243
 2270SOL    HW1 7346   1.602   3.522   7.154
 2270SOL    HW2 7347   1.694   3.439   7.242
 2271SOL     OW 7348   1.131   3.068   6.689
 2271SOL    HW1 7349   1.072   3.107   6.754
 2271SOL    HW2 7350   1.100   3.103   6.605
 2272SOL     OW 7351   1.625   2.958   6.663
 2272SOL    HW1 7352   1.616   3.022   6.733
 2272SOL    HW2 7353   1.548   2.973   6.607
 2273SOL     OW 7354   0.898   1.951   6.975
 2273SOL    HW1 7355   0.917   1.929   6.884
 2273SOL    HW2 7356   0.974   2.001   7.004
 2274SOL     OW 7357   0.983   2.978   7.307
 2274SOL    HW1 7358   0.891   2.993   7.329
 2274SOL    HW2 7359   0.982   2.899   7.252
 2275SOL     OW 7360   0.708   2.923   5.957
 2275SOL    HW1 7361   0.694   2.905   6.050
 2275SOL    HW2 7362   0.784   2.870   5.933
 2276SOL     OW 7363   0.423   2.679   6.839
 2276SOL    HW1 7364   0.491   2.687   6.905
 2276SOL    HW2 7365   0.389   2.590   6.850
 2277SOL     OW 7366   1.247   2.272   6.879
 2277SOL    HW1 7367   1.295   2.339   6.830
 2277SOL    HW2 7368   1.158   2.278   6.846
 2278SOL     OW 7369   0.065   3.442   6.931
 2278SOL    HW1 7370   0.071   3.491   6.849
 2278SOL    HW2 7371   0.157   3.431   6.959
 2279SOL     OW 7372   0.369   2.964   6.068
 2279SOL    HW1 7373   0.364   3.046   6.017
 2279SOL    HW2 7374   0.368   2.895   6.002
 2280SOL     OW 7375   0.548   2.397   6.447
 2280SOL    HW1 7376   0.563   2.454   6.372
 2280SOL    HW2 7377   0.617   2.422   6.510
 2281SOL     OW 7378   1.247   3.212   5.975
 2281SOL    HW1 7379   1.303   3.283   6.006
 2281SOL    HW2 7380   1.160   3.234   6.009
 2282SOL     OW 7381   1.286   3.322   6.734
 2282SOL    HW1 7382   1.342   3.326   6.812
 2282SOL    HW2 7383   1.230   3.246   6.750
 2283SOL     OW 7384   0.345   3.390   6.903
 2283SOL    HW1 7385   0.335   3.340   6.822
 2283SOL    HW2 7386   0.439   3.404   6.911
 2284SOL     OW 7387   0.418   2.600   7.187
 2284SOL    HW1 7388   0.481   2.645   7.131
 2284SOL    HW2 7389   0.457   2.514   7.203
 2285SOL     OW 7390   0.981   1.997   7.348
 2285SOL    HW1 7391   1.051   2.043   7.303
 2285SOL    HW2 7392   1.000   1.904   7.334
 2286SOL     OW 7393   0.497   1.898   7.334
 2286SOL    HW1 7394   0.452   1.845   7.267
 2286SOL    HW2 7395   0.443   1.976   7.342
 2287SOL     OW 7396   0.586   2.736   6.618
 2287SOL    HW1 7397   0.619   2.826   6.619
 2287SOL    HW2 7398   0.530   2.730   6.695
 2288SOL     OW 7399   1.344   2.725   6.605
 2288SOL    HW1 7400   1.259   2.715   6.562
 2288SOL    HW2 7401   1.359   2.642   6.651
 2289SOL     OW 7402   1.215   2.389   5.863
 2289SOL    HW1 7403   1.227   2.316   5.924
 2289SOL    HW2 7404   1.163   2.453   5.912
 2290SOL     OW 7405   0.310   2.058   6.833
 2290SOL    HW1 7406   0.263   2.094   6.908
 2290SOL    HW2 7407   0.287   1.965   6.833
 2291SOL     OW 7408   0.062   3.167   6.866
 2291SOL    HW1 7409   0.092   3.126   6.947
 2291SOL    HW2 7410   0.053   3.260   6.889
 2292SOL     OW 7411   0.724   2.492   6.641
 2292SOL    HW1 7412   0.800   2.477   6.585
 2292SOL    HW2 7413   0.696   2.581   6.620
 2293SOL     OW 7414   0.315   1.924   6.206
 2293SOL    HW1 7415   0.293   2.015   6.226
 2293SOL    HW2 7416   0.321   1.881   6.291
 2294SOL     OW 7417   1.611   2.237   5.952
 2294SOL    HW1 7418   1.622   2.155   6.001
 2294SOL    HW2 7419   1.593   2.302   6.020
 2295SOL     OW 7420   1.035   2.621   6.546
 2295SOL    HW1 7421   1.025   2.637   6.640
 2295SOL    HW2 7422   1.008   2.530   6.534
 2296SOL     OW 7423   0.986   3.430   7.307
 2296SOL    HW1 7424   0.966   3.471   7.223
 2296SOL    HW2 7425   1.027   3.347   7.285
 2297SOL     OW 7426   1.855   3.362   7.189
 2297SOL    HW1 7427   1.873   3.392   7.100
 2297SOL    HW2 7428   1.936   3.382   7.237
 2298SOL     OW 7429   0.353   2.784   7.386
 2298SOL    HW1 7430   0.432   2.805   7.436
 2298SOL    HW2 7431   0.382   2.716   7.324
 2299SOL     OW 7432   1.529   2.129   5.711
 2299SOL    HW1 7433   1.465   2.065   5.742
 2299SOL    HW2 7434   1.560   2.172   5.790
 2300SOL     OW 7435   1.288   2.690   5.616
 2300SOL    HW1 7436   1.329   2.604   5.619
 2300SOL    HW2 7437   1.320   2.729   5.534
 2301SOL     OW 7438   1.068   3.200   6.442
 2301SOL    HW1 7439   1.073   3.127   6.380
 2301SOL    HW2 7440   1.127   3.266   6.407
 2302SOL     OW 7441   0.313   2.663   6.536
 2302SOL    HW1 7442   0.407   2.681   6.530
 2302SOL    HW2 7443   0.308   2.573   6.567
 2303SOL     OW 7444   0.329   2.383   6.601
 2303SOL    HW1 7445   0.295   2.295   6.584
 2303SOL    HW2 7446   0.405   2.390   6.543
 2304SOL     OW 7447   1.109   2.259   7.257
 2304SOL    HW1 7448   1.060   2.312   7.319
 2304SOL    HW2 7449   1.197   2.255   7.293
 2305SOL     OW 7450   1.114   2.093   7.031
 2305SOL    HW1 7451   1.117   2.142   7.113
 2305SOL    HW2 7452   1.172   2.142   6.972
 2306SOL     OW 7453   4.000   3.179   5.768
 2306SOL    HW1 7454   3.906   3.195   5.772
 2306SOL    HW2 7455   0.009   3.085   5.786
 2307SOL     OW 7456   0.076   3.663   6.481
 2307SOL    HW1 7457   0.092   3.568   6.478
 2307SOL    HW2 7458   0.163   3.702   6.480
 2308SOL     OW 7459   0.506   3.425   6.504
 2308SOL    HW1 7460   0.572   3.492   6.523
 2308SOL    HW2 7461   0.549   3.367   6.440
 2309SOL     OW 7462   0.980   2.652   6.811
 2309SOL    HW1 7463   1.039   2.628   6.882
 2309SOL    HW2 7464   0.897   2.611   6.834
 2310SOL     OW 7465   0.038   2.421   6.695
 2310SOL    HW1 7466   0.120   2.399   6.653
 2310SOL    HW2 7467   0.057   2.418   6.789
 2311SOL     OW 7468   0.207   2.374   7.313
 2311SOL    HW1 7469   0.245   2.326   7.240
 2311SOL    HW2 7470   0.161   2.448   7.273
 2312SOL     OW 7471   1.366   2.799   7.245
 2312SOL    HW1 7472   1.401   2.886   7.227
 2312SOL    HW2 7473   1.387   2.748   7.167
 2313SOL     OW 7474   0.818   2.432   5.949
 2313SOL    HW1 7475   0.822   2.356   5.890
 2313SOL    HW2 7476   0.744   2.483   5.917
 2314SOL     OW 7477   0.300   3.407   7.310
 2314SOL    HW1 7478   0.252   3.476   7.356
 2314SOL    HW2 7479   0.270   3.326   7.352
 2315SOL     OW 7480   0.706   2.312   6.843
 2315SOL    HW1 7481   0.654   2.238   6.814
 2315SOL    HW2 7482   0.701   2.375   6.771
 2316SOL     OW 7483   0.927   3.533   7.056
 2316SOL    HW1 7484   0.900   3.494   6.972
 2316SOL    HW2 7485   0.919   3.627   7.042
 2317SOL     OW 7486   0.454   2.351   5.782
 2317SOL    HW1 7487   0.519   2.418   5.800
 2317SOL    HW2 7488   0.375   2.399   5.759
 2318SOL     OW 7489   0.155   2.997   7.062
 2318SOL    HW1 7490   0.155   2.946   7.143
 2318SOL    HW2 7491   0.170   2.932   6.993
 2319SOL     OW 7492   1.326   2.913   6.803
 2319SOL    HW1 7493   1.348   2.852   6.733
 2319SOL    HW2 7494   1.255   2.966   6.767
 2320SOL     OW 7495   1.310   2.712   5.892
 2320SOL    HW1 7496   1.230   2.684   5.938
 2320SOL    HW2 7497   1.288   2.703   5.799
 2321SOL     OW 7498   1.775   3.601   6.739
 2321SOL    HW1 7499   1.836   3.629   6.671
 2321SOL    HW2 7500   1.751   3.512   6.715
 2322SOL     OW 7501   1.244   3.594   6.694
 2322SOL    HW1 7502   1.327   3.616   6.651
 2322SOL    HW2 7503   1.251   3.501   6.714
 2323SOL     OW 7504   0.077   3.075   6.614
 2323SOL    HW1 7505   0.084   3.103   6.705
 2323SOL    HW2 7506   3.984   3.088   6.592
 2324SOL     OW 7507   0.680   3.528   7.321
 2324SOL    HW1 7508   0.621   3.603   7.324
 2324SOL    HW2 7509   0.740   3.547   7.249
 2325SOL     OW 7510   1.666   2.001   6.075
 2325SOL    HW1 7511   1.749   1.972   6.036
 2325SOL    HW2 7512   1.641   1.929   6.133
 2326SOL     OW 7513   1.390   3.431   6.074
 2326SOL    HW1 7514   1.450   3.465   6.007
 2326SOL    HW2 7515   1.342   3.508   6.104
 2327SOL     OW 7516   0.171   3.622   7.418
 2327SOL    HW1 7517   0.116   3.569   7.477
 2327SOL    HW2 7518   0.217   3.681   7.477
 2328SOL     OW 7519   1.306   2.785   6.260
 2328SOL    HW1 7520   1.389   2.738   6.257
 2328SOL    HW2 7521   1.321   2.864   6.209
 2329SOL     OW 7522   0.808   3.136   7.013
 2329SOL    HW1 7523   0.780   3.177   7.095
 2329SOL    HW2 7524   0.737   3.154   6.951
 2330SOL     OW 7525   0.674   3.480   5.744
 2330SOL    HW1 7526   0.683   3.497   5.651
 2330SOL    HW2 7527   0.615   3.404   5.749
 2331SOL     OW 7528   1.622   3.588   6.977
 2331SOL    HW1 7529   1.674   3.593   6.896
 2331SOL    HW2 7530   1.608   3.680   7.001
 2332SOL     OW 7531   0.265   2.174   6.302
 2332SOL    HW1 7532   0.179   2.206   6.276
 2332SOL    HW2 7533   0.260   2.165   6.397
 2333SOL     OW 7534   1.208   3.465   5.622
 2333SOL    HW1 7535   1.197   3.373   5.646
 2333SOL    HW2 7536   1.147   3.478   5.550
 2334SOL     OW 7537   0.824   2.867   6.961
 2334SOL    HW1 7538   0.869   2.862   6.876
 2334SOL    HW2 7539   0.822   2.961   6.980
 2335SOL     OW 7540   0.916   2.772   5.878
 2335SOL    HW1 7541   0.975   2.805   5.810
 2335SOL    HW2 7542   0.965   2.702   5.921
 2336SOL     OW 7543   1.488   3.492   5.629
 2336SOL    HW1 7544   1.395   3.481   5.612
 2336SOL    HW2 7545   1.528   3.497   5.542
 2337SOL     OW 7546   0.374   3.165   7.077
 2337SOL    HW1 7547   0.359   3.245   7.027
 2337SOL    HW2 7548   0.297   3.111   7.060
 2338SOL     OW 7549   1.605   3.143   6.863
 2338SOL    HW1 7550   1.671   3.135   6.932
 2338SOL    HW2 7551   1.546   3.212   6.895
 2339SOL     OW 7552   1.057   2.971   6.296
 2339SOL    HW1 7553   0.985   2.921   6.335
 2339SOL    HW2 7554   1.112   2.906   6.253
 2340SOL     OW 7555   0.992   2.105   6.565
 2340SOL    HW1 7556   0.987   2.060   6.480
 2340SOL    HW2 7557   0.997   2.034   6.629
 2341SOL     OW 7558   0.606   3.353   6.066
 2341SOL    HW1 7559   0.652   3.302   5.999
 2341SOL    HW2 7560   0.533   3.393   6.020
 2342SOL     OW 7561   1.703   2.228   6.965
 2342SOL    HW1 7562   1.766   2.300   6.964
 2342SOL    HW2 7563   1.740   2.162   6.906
 2343SOL     OW 7564   0.254   3.202   5.878
 2343SOL    HW1 7565   0.160   3.210   5.860
 2343SOL    HW2 7566   0.264   3.241   5.965
 2344SOL     OW 7567   0.108   2.859   7.303
 2344SOL    HW1 7568   0.048   2.854   7.377
 2344SOL    HW2 7569   0.194   2.841   7.341
 2345SOL     OW 7570   0.670   2.061   7.089
 2345SOL    HW1 7571   0.752   2.037   7.047
 2345SOL    HW2 7572   0.696   2.096   7.174
 2346SOL     OW 7573   0.081   2.175   5.624
 2346SOL    HW1 7574   3.985   2.175   5.631
 2346SOL    HW2 7575   0.101   2.256   5.577
 2347SOL     OW 7576   1.429   2.710   6.965
 2347SOL    HW1 7577   1.382   2.782   6.923
 2347SOL    HW2 7578   1.520   2.723   6.941
 2348SOL     OW 7579   0.018   2.101   5.963
 2348SOL    HW1 7580   0.044   2.164   5.896
 2348SOL    HW2 7581   0.100   2.062   5.992
 2349SOL     OW 7582   1.178   3.198   5.703
 2349SOL    HW1 7583   1.086   3.170   5.704
 2349SOL    HW2 7584   1.204   3.198   5.795
 2350SOL     OW 7585   0.621   2.691   7.023
 2350SOL    HW1 7586   0.677   2.767   7.007
 2350SOL    HW2 7587   0.682   2.618   7.030
 2351SOL     OW 7588   1.486   3.642   6.567
 2351SOL    HW1 7589   1.509   3.702   6.497
 2351SOL    HW2 7590   1.570   3.617   6.605
 2352SOL     OW 7591   0.712   2.425   7.286
 2352SOL    HW1 7592   0.755   2.485   7.347
 2352SOL    HW2 7593   0.731   2.337   7.320
 2353SOL     OW 7594   1.475   3.056   7.213
 2353SOL    HW1 7595   1.459   3.069   7.306
 2353SOL    HW2 7596   1.568   3.078   7.201
 2354SOL     OW 7597   0.378   3.608   7.146
 2354SOL    HW1 7598   0.290   3.644   7.133
 2354SOL    HW2 7599   0.364   3.525   7.190
 2355SOL     OW 7600   1.673   2.746   6.836
 2355SOL    HW1 7601   1.713   2.678   6.781
 2355SOL    HW2 7602   1.660   2.820   6.777
 2356SOL     OW 7603   0.589   2.598   6.259
 2356SOL    HW1 7604   0.628   2.684   6.244
 2356SOL    HW2 7605   0.523   2.590   6.190
 2357SOL     OW 7606   1.766   2.186   7.233
 2357SOL    HW1 7607   1.754   2.211   7.141
 2357SOL    HW2 7608   1.686   2.217   7.276
 2358SOL     OW 7609   1.757   2.811   7.098
 2358SOL    HW1 7610   1.717   2.897   7.112
 2358SOL    HW2 7611   1.729   2.787   7.009
 2359SOL     OW 7612   0.865   3.228   5.627
 2359SOL    HW1 7613   0.823   3.257   5.708
 2359SOL    HW2 7614   0.879   3.309   5.577
 2360SOL     OW 7615   0.659   3.650   6.519
 2360SOL    HW1 7616   0.638   3.741   6.501
 2360SOL    HW2 7617   0.754   3.646   6.518
 2361SOL     OW 7618   0.869   2.830   6.441
 2361SOL    HW1 7619   0.919   2.759   6.480
 2361SOL    HW2 7620   0.832   2.877   6.515
 2362SOL     OW 7621   1.075   2.849   5.675
 2362SOL    HW1 7622   1.055   2.902   5.597
 2362SOL    HW2 7623   1.151   2.797   5.649
 2363SOL     OW 7624   1.851   3.413   6.427
 2363SOL    HW1 7625   1.769   3.396   6.381
 2363SOL    HW2 7626   1.858   3.344   6.493
 2364SOL     OW 7627   0.227   3.166   7.443
 2364SOL    HW1 7628   0.153   3.113   7.416
 2364SOL    HW2 7629   0.215   3.179   7.537
 2365SOL     OW 7630   0.117   3.142   6.309
 2365SOL    HW1 7631   0.136   3.091   6.388
 2365SOL    HW2 7632   0.104   3.076   6.241
 2366SOL     OW 7633   0.683   3.267   7.217
 2366SOL    HW1 7634   0.603   3.225   7.247
 2366SOL    HW2 7635   0.680   3.355   7.254
 2367SOL     OW 7636   0.440   2.295   6.120
 2367SOL    HW1 7637   0.435   2.226   6.053
 2367SOL    HW2 7638   0.386   2.262   6.192
 2368SOL     OW 7639   1.695   3.351   6.680
 2368SOL    HW1 7640   1.617   3.328   6.631
 2368SOL    HW2 7641   1.706   3.279   6.743
 2369SOL     OW 7642   0.336   2.420   6.878
 2369SOL    HW1 7643   0.389   2.363   6.933
 2369SOL    HW2 7644   0.350   2.389   6.789
 2370SOL     OW 7645   0.829   3.441   6.262
 2370SOL    HW1 7646   0.811   3.496   6.186
 2370SOL    HW2 7647   0.755   3.380   6.265
 2371SOL     OW 7648   0.987   1.872   6.726
 2371SOL    HW1 7649   0.931   1.815   6.674
 2371SOL    HW2 7650   1.064   1.819   6.746
 2372SOL     OW 7651   0.772   3.194   5.906
 2372SOL    HW1 7652   0.744   3.103   5.912
 2372SOL    HW2 7653   0.855   3.197   5.954
 2373SOL     OW 7654   0.621   3.415   6.872
 2373SOL    HW1 7655   0.621   3.497   6.922
 2373SOL    HW2 7656   0.708   3.410   6.834
 2374SOL     OW 7657   1.355   1.917   5.755
 2374SOL    HW1 7658   1.381   1.849   5.694
 2374SOL    HW2 7659   1.269   1.889   5.788
 2375SOL     OW 7660   1.677   2.076   6.415
 2375SOL    HW1 7661   1.658   2.028   6.495
 2375SOL    HW2 7662   1.591   2.104   6.383
 2376SOL     OW 7663   0.047   2.910   5.826
 2376SOL    HW1 7664   0.141   2.895   5.818
 2376SOL    HW2 7665   0.011   2.826   5.853
 2377SOL     OW 7666   0.887   3.522   5.928
 2377SOL    HW1 7667   0.815   3.503   5.868
 2377SOL    HW2 7668   0.855   3.596   5.979
 2378SOL     OW 7669   0.231   2.485   7.567
 2378SOL    HW1 7670   0.138   2.494   7.588
 2378SOL    HW2 7671   0.232   2.454   7.476
 2379SOL     OW 7672   0.229   2.134   8.435
 2379SOL    HW1 7673   0.250   2.100   8.522
 2379SOL    HW2 7674   0.134   2.127   8.428
 2380SOL     OW 7675   0.008   2.219   8.078
 2380SOL    HW1 7676   3.919   2.238   8.108
 2380SOL    HW2 7677   3.997   2.190   7.987
 2381SOL     OW 7678   0.580   3.152   8.641
 2381SOL    HW1 7679   0.495   3.155   8.599
 2381SOL    HW2 7680   0.594   3.242   8.673
 2382SOL     OW 7681   1.565   3.374   8.158
 2382SOL    HW1 7682   1.522   3.351   8.240
 2382SOL    HW2 7683   1.493   3.377   8.094
 2383SOL     OW 7684   1.131   2.558   8.143
 2383SOL    HW1 7685   1.180   2.639   8.129
 2383SOL    HW2 7686   1.085   2.572   8.225
 2384SOL     OW 7687   0.751   3.000   8.492
 2384SOL    HW1 7688   0.688   3.037   8.554
 2384SOL    HW2 7689   0.788   3.076   8.447
 2385SOL     OW 7690   0.872   2.629   9.271
 2385SOL    HW1 7691   0.862   2.700   9.334
 2385SOL    HW2 7692   0.894   2.673   9.189
 2386SOL     OW 7693   0.684   2.862   8.093
 2386SOL    HW1 7694   0.751   2.852   8.161
 2386SOL    HW2 7695   0.616   2.915   8.135
 2387SOL     OW 7696   0.712   3.011   9.266
 2387SOL    HW1 7697   0.760   3.089   9.295
 2387SOL    HW2 7698   0.632   3.046   9.227
 2388SOL     OW 7699   0.350   3.263   8.526
 2388SOL    HW1 7700   0.269   3.246   8.478
 2388SOL    HW2 7701   0.400   3.321   8.468
 2389SOL     OW 7702   1.459   3.363   8.806
 2389SOL    HW1 7703   1.513   3.442   8.816
 2389SOL    HW2 7704   1.392   3.371   8.874
 2390SOL     OW 7705   0.450   2.260   8.934
 2390SOL    HW1 7706   0.525   2.201   8.938
 2390SOL    HW2 7707   0.374   2.203   8.948
 2391SOL     OW 7708   1.598   2.309   8.189
 2391SOL    HW1 7709   1.508   2.314   8.155
 2391SOL    HW2 7710   1.606   2.384   8.247
 2392SOL     OW 7711   0.222   3.572   7.914
 2392SOL    HW1 7712   0.222   3.656   7.959
 2392SOL    HW2 7713   0.299   3.576   7.857
 2393SOL     OW 7714   1.138   3.204   9.142
 2393SOL    HW1 7715   1.178   3.197   9.228
 2393SOL    HW2 7716   1.085   3.124   9.134
 2394SOL     OW 7717   0.251   3.306   7.988
 2394SOL    HW1 7718   0.223   3.396   7.974
 2394SOL    HW2 7719   0.182   3.267   8.040
 2395SOL     OW 7720   0.247   2.928   8.331
 2395SOL    HW1 7721   0.268   2.843   8.371
 2395SOL    HW2 7722   0.194   2.973   8.397
 2396SOL     OW 7723   0.610   3.648   8.874
 2396SOL    HW1 7724   0.528   3.634   8.922
 2396SOL    HW2 7725   0.637   3.737   8.899
 2397SOL     OW 7726   0.576   2.848   7.587
 2397SOL    HW1 7727   0.625   2.893   7.517
 2397SOL    HW2 7728   0.617   2.878   7.668
 2398SOL     OW 7729   1.585   1.994   8.908
 2398SOL    HW1 7730   1.584   2.080   8.866
 2398SOL    HW2 7731   1.576   2.012   9.001
 2399SOL     OW 7732   0.143   2.516   8.022
 2399SOL    HW1 7733   0.086   2.439   8.020
 2399SOL    HW2 7734   0.107   2.571   8.092
 2400SOL     OW 7735   1.844   3.607   7.785
 2400SOL    HW1 7736   1.912   3.584   7.847
 2400SOL    HW2 7737   1.862   3.699   7.762
 2401SOL     OW 7738   0.041   3.452   7.588
 2401SOL    HW1 7739   0.036   3.360   7.614
 2401SOL    HW2 7740   3.956   3.489   7.613
 2402SOL     OW 7741   1.691   2.776   8.098
 2402SOL    HW1 7742   1.776   2.736   8.078
 2402SOL    HW2 7743   1.669   2.826   8.019
 2403SOL     OW 7744   1.646   2.963   7.889
 2403SOL    HW1 7745   1.730   2.969   7.844
 2403SOL    HW2 7746   1.651   3.027   7.960
 2404SOL     OW 7747   0.141   2.615   9.038
 2404SOL    HW1 7748   0.236   2.610   9.033
 2404SOL    HW2 7749   0.123   2.703   9.071
 2405SOL     OW 7750   0.616   3.249   8.182
 2405SOL    HW1 7751   0.569   3.166   8.192
 2405SOL    HW2 7752   0.599   3.276   8.092
 2406SOL     OW 7753   1.286   3.098   8.870
 2406SOL    HW1 7754   1.317   3.031   8.810
 2406SOL    HW2 7755   1.346   3.093   8.945
 2407SOL     OW 7756   0.816   1.863   7.965
 2407SOL    HW1 7757   0.855   1.947   7.940
 2407SOL    HW2 7758   0.722   1.880   7.969
 2408SOL     OW 7759   0.183   2.811   8.728
 2408SOL    HW1 7760   0.272   2.776   8.716
 2408SOL    HW2 7761   0.133   2.775   8.656
 2409SOL     OW 7762   1.481   2.890   7.678
 2409SOL    HW1 7763   1.418   2.829   7.716
 2409SOL    HW2 7764   1.543   2.909   7.749
 2410SOL     OW 7765   1.220   3.666   9.076
 2410SOL    HW1 7766   1.195   3.728   9.007
 2410SOL    HW2 7767   1.220   3.581   9.033
 2411SOL     OW 7768   0.342   2.109   9.266
 2411SOL    HW1 7769   0.378   2.198   9.272
 2411SOL    HW2 7770   0.250   2.118   9.290
 2412SOL     OW 7771   1.466   3.281   8.397
 2412SOL    HW1 7772   1.399   3.296   8.463
 2412SOL    HW2 7773   1.453   3.190   8.370
 2413SOL     OW 7774   1.654   3.603   8.029
 2413SOL    HW1 7775   1.639   3.571   7.939
 2413SOL    HW2 7776   1.631   3.529   8.084
 2414SOL     OW 7777   0.596   2.577   7.714
 2414SOL    HW1 7778   0.603   2.662   7.670
 2414SOL    HW2 7779   0.534   2.591   7.785
 2415SOL     OW 7780   1.276   2.223   8.387
 2415SOL    HW1 7781   1.188   2.186   8.396
 2415SOL    HW2 7782   1.331   2.166   8.441
 2416SOL     OW 7783   1.576   3.538   7.757
 2416SOL    HW1 7784   1.669   3.561   7.751
 2416SOL    HW2 7785   1.550   3.519   7.667
 2417SOL     OW 7786   0.791   2.480   8.898
 2417SOL    HW1 7787   0.764   2.454   8.986
 2417SOL    HW2 7788   0.754   2.412   8.841
 2418SOL     OW 7789   1.393   2.335   9.125
 2418SOL    HW1 7790   1.396   2.381   9.209
 2418SOL    HW2 7791   1.456   2.263   9.135
 2419SOL     OW 7792   0.951   2.748   9.033
 2419SOL    HW1 7793   1.006   2.679   8.995
 2419SOL    HW2 7794   0.903   2.783   8.958
 2420SOL     OW 7795   0.993   2.272   8.684
 2420SOL    HW1 7796   0.904   2.291   8.716
 2420SOL    HW2 7797   0.979   2.231   8.599
 2421SOL     OW 7798   1.049   2.574   7.871
 2421SOL    HW1 7799   1.073   2.558   7.963
 2421SOL    HW2 7800   0.972   2.518   7.857
 2422SOL     OW 7801   0.082   2.692   8.238
 2422SOL    HW1 7802   0.156   2.661   8.291
 2422SOL    HW2 7803   0.102   2.784   8.221
 2423SOL     OW 7804   0.127   3.719   9.027
 2423SOL    HW1 7805   0.135   3.687   9.117
 2423SOL    HW2 7806   0.035   3.706   9.005
 2424SOL     OW 7807   0.901   2.208   7.641
 2424SOL    HW1 7808   0.934   2.271   7.578
 2424SOL    HW2 7809   0.903   2.124   7.595
 2425SOL     OW 7810   1.702   2.438   9.282
 2425SOL    HW1 7811   1.668   2.509   9.228
 2425SOL    HW2 7812   1.733   2.373   9.220
 2426SOL     OW 7813   1.378   3.007   7.990
 2426SOL    HW1 7814   1.458   2.994   7.938
 2426SOL    HW2 7815   1.325   3.066   7.937
 2427SOL     OW 7816   0.546   2.040   8.343
 2427SOL    HW1 7817   0.553   2.072   8.433
 2427SOL    HW2 7818   0.546   2.118   8.289
 2428SOL     OW 7819   1.002   3.307   7.918
 2428SOL    HW1 7820   0.967   3.381   7.869
 2428SOL    HW2 7821   0.981   3.326   8.009
 2429SOL     OW 7822   0.359   3.672   8.311
 2429SOL    HW1 7823   0.439   3.620   8.324
 2429SOL    HW2 7824   0.388   3.763   8.320
 2430SOL     OW 7825   1.800   2.916   8.319
 2430SOL    HW1 7826   1.746   2.893   8.243
 2430SOL    HW2 7827   1.737   2.923   8.391
 2431SOL     OW 7828   1.227   3.399   8.959
 2431SOL    HW1 7829   1.215   3.327   9.021
 2431SOL    HW2 7830   1.159   3.387   8.893
 2432SOL     OW 7831   0.311   2.815   7.690
 2432SOL    HW1 7832   0.394   2.838   7.648
 2432SOL    HW2 7833   0.299   2.723   7.670
 2433SOL     OW 7834   1.467   2.626   8.189
 2433SOL    HW1 7835   1.476   2.569   8.265
 2433SOL    HW2 7836   1.556   2.660   8.174
 2434SOL     OW 7837   0.469   3.122   9.185
 2434SOL    HW1 7838   0.443   3.131   9.093
 2434SOL    HW2 7839   0.386   3.126   9.233
 2435SOL     OW 7840   1.113   3.643   7.669
 2435SOL    HW1 7841   1.048   3.597   7.722
 2435SOL    HW2 7842   1.144   3.577   7.607
 2436SOL     OW 7843   0.204   2.133   8.956
 2436SOL    HW1 7844   0.114   2.166   8.951
 2436SOL    HW2 7845   0.195   2.045   8.993
 2437SOL     OW 7846   1.625   3.244   7.535
 2437SOL    HW1 7847   1.586   3.330   7.520
 2437SOL    HW2 7848   1.556   3.181   7.515
 2438SOL     OW 7849   0.467   3.602   7.769
 2438SOL    HW1 7850   0.506   3.664   7.831
 2438SOL    HW2 7851   0.540   3.573   7.714
 2439SOL     OW 7852   0.254   3.656   8.673
 2439SOL    HW1 7853   0.297   3.589   8.726
 2439SOL    HW2 7854   0.252   3.620   8.585
 2440SOL     OW 7855   0.938   3.563   8.347
 2440SOL    HW1 7856   1.016   3.512   8.369
 2440SOL    HW2 7857   0.895   3.513   8.278
 2441SOL     OW 7858   0.400   2.554   7.918
 2441SOL    HW1 7859   0.424   2.463   7.934
 2441SOL    HW2 7860   0.308   2.559   7.945
 2442SOL     OW 7861   1.535   2.085   9.173
 2442SOL    HW1 7862   1.549   2.107   9.265
 2442SOL    HW2 7863   1.464   2.021   9.173
 2443SOL     OW 7864   0.648   1.980   7.542
 2443SOL    HW1 7865   0.705   1.907   7.565
 2443SOL    HW2 7866   0.595   1.947   7.469
 2444SOL     OW 7867   0.765   2.141   9.203
 2444SOL    HW1 7868   0.845   2.088   9.200
 2444SOL    HW2 7869   0.719   2.111   9.281
 2445SOL     OW 7870   0.876   3.383   8.642
 2445SOL    HW1 7871   0.859   3.346   8.556
 2445SOL    HW2 7872   0.946   3.328   8.679
 2446SOL     OW 7873   1.340   2.451   8.880
 2446SOL    HW1 7874   1.370   2.420   8.966
 2446SOL    HW2 7875   1.376   2.539   8.872
 2447SOL     OW 7876   0.817   3.253   8.391
 2447SOL    HW1 7877   0.903   3.241   8.348
 2447SOL    HW2 7878   0.755   3.256   8.318
 2448SOL     OW 7879   0.928   2.371   8.351
 2448SOL    HW1 7880   0.904   2.363   8.258
 2448SOL    HW2 7881   0.960   2.284   8.375
 2449SOL     OW 7882   0.555   1.924   7.941
 2449SOL    HW1 7883   0.473   1.930   7.990
 2449SOL    HW2 7884   0.560   2.006   7.892
 2450SOL     OW 7885   1.421   3.070   7.484
 2450SOL    HW1 7886   1.444   3.000   7.545
 2450SOL    HW2 7887   1.336   3.100   7.514
 2451SOL     OW 7888   0.307   1.913   7.617
 2451SOL    HW1 7889   0.369   1.952   7.555
 2451SOL    HW2 7890   0.359   1.848   7.665
 2452SOL     OW 7891   0.929   2.107   7.905
 2452SOL    HW1 7892   0.903   2.147   7.822
 2452SOL    HW2 7893   1.024   2.110   7.904
 2453SOL     OW 7894   1.080   2.544   8.907
 2453SOL    HW1 7895   1.014   2.475   8.910
 2453SOL    HW2 7896   1.164   2.498   8.900
 2454SOL     OW 7897   1.220   3.434   8.242
 2454SOL    HW1 7898   1.236   3.500   8.175
 2454SOL    HW2 7899   1.290   3.448   8.306
 2455SOL     OW 7900   0.467   3.013   8.182
 2455SOL    HW1 7901   0.396   2.989   8.241
 2455SOL    HW2 7902   0.431   2.998   8.094
 2456SOL     OW 7903   1.265   3.656   8.057
 2456SOL    HW1 7904   1.313   3.720   8.005
 2456SOL    HW2 7905   1.192   3.705   8.094
 2457SOL     OW 7906   1.020   2.415   7.479
 2457SOL    HW1 7907   0.967   2.486   7.444
 2457SOL    HW2 7908   1.071   2.455   7.550
 2458SOL     OW 7909   0.083   2.435   8.838
 2458SOL    HW1 7910   0.173   2.422   8.807
 2458SOL    HW2 7911   0.089   2.505   8.903
 2459SOL     OW 7912   0.566   2.089   8.615
 2459SOL    HW1 7913   0.608   2.015   8.658
 2459SOL    HW2 7914   0.475   2.085   8.643
 2460SOL     OW 7915   0.864   2.319   8.089
 2460SOL    HW1 7916   0.822   2.378   8.027
 2460SOL    HW2 7917   0.880   2.239   8.039
 2461SOL     OW 7918   1.011   1.919   8.196
 2461SOL    HW1 7919   0.952   1.910   8.122
 2461SOL    HW2 7920   0.993   1.843   8.251
 2462SOL     OW 7921   1.437   3.023   8.304
 2462SOL    HW1 7922   1.369   2.957   8.305
 2462SOL    HW2 7923   1.461   3.032   8.211
 2463SOL     OW 7924   1.469   2.468   8.420
 2463SOL    HW1 7925   1.412   2.391   8.424
 2463SOL    HW2 7926   1.525   2.460   8.497
 2464SOL     OW 7927   0.488   3.282   7.606
 2464SOL    HW1 7928   0.412   3.253   7.656
 2464SOL    HW2 7929   0.472   3.251   7.517
 2465SOL     OW 7930   1.675   3.129   8.095
 2465SOL    HW1 7931   1.770   3.131   8.109
 2465SOL    HW2 7932   1.646   3.217   8.116
 2466SOL     OW 7933   0.576   2.129   7.763
 2466SOL    HW1 7934   0.607   2.083   7.685
 2466SOL    HW2 7935   0.542   2.212   7.730
 2467SOL     OW 7936   1.750   3.104   9.015
 2467SOL    HW1 7937   1.837   3.064   9.011
 2467SOL    HW2 7938   1.766   3.194   9.043
 2468SOL     OW 7939   1.055   3.215   8.781
 2468SOL    HW1 7940   0.981   3.184   8.831
 2468SOL    HW2 7941   1.131   3.174   8.822
 2469SOL     OW 7942   1.610   3.489   9.105
 2469SOL    HW1 7943   1.601   3.522   9.016
 2469SOL    HW2 7944   1.693   3.440   9.104
 2470SOL     OW 7945   1.134   3.071   8.551
 2470SOL    HW1 7946   1.073   3.107   8.615
 2470SOL    HW2 7947   1.102   3.103   8.467
 2471SOL     OW 7948   1.625   2.959   8.524
 2471SOL    HW1 7949   1.619   3.022   8.597
 2471SOL    HW2 7950   1.548   2.976   8.471
 2472SOL     OW 7951   0.918   1.957   8.841
 2472SOL    HW1 7952   0.941   1.938   8.750
 2472SOL    HW2 7953   0.997   1.996   8.879
 2473SOL     OW 7954   0.984   2.977   9.171
 2473SOL    HW1 7955   0.893   2.993   9.194
 2473SOL    HW2 7956   0.981   2.898   9.116
 2474SOL     OW 7957   0.706   2.923   7.819
 2474SOL    HW1 7958   0.694   2.905   7.912
 2474SOL    HW2 7959   0.782   2.870   7.794
 2475SOL     OW 7960   0.422   2.679   8.701
 2475SOL    HW1 7961   0.491   2.688   8.767
 2475SOL    HW2 7962   0.389   2.590   8.712
 2476SOL     OW 7963   1.264   2.236   8.728
 2476SOL    HW1 7964   1.296   2.315   8.772
 2476SOL    HW2 7965   1.174   2.258   8.705
 2477SOL     OW 7966   0.066   3.442   8.793
 2477SOL    HW1 7967   0.071   3.491   8.712
 2477SOL    HW2 7968   0.157   3.431   8.821
 2478SOL     OW 7969   0.367   2.964   7.930
 2478SOL    HW1 7970   0.365   3.045   7.879
 2478SOL    HW2 7971   0.368   2.894   7.865
 2479SOL     OW 7972   0.548   2.397   8.310
 2479SOL    HW1 7973   0.563   2.454   8.234
 2479SOL    HW2 7974   0.616   2.422   8.372
 2480SOL     OW 7975   1.247   3.212   7.837
 2480SOL    HW1 7976   1.303   3.283   7.869
 2480SOL    HW2 7977   1.160   3.233   7.871
 2481SOL     OW 7978   1.286   3.322   8.596
 2481SOL    HW1 7979   1.341   3.325   8.674
 2481SOL    HW2 7980   1.231   3.244   8.608
 2482SOL     OW 7981   0.345   3.390   8.765
 2482SOL    HW1 7982   0.335   3.340   8.684
 2482SOL    HW2 7983   0.439   3.404   8.773
 2483SOL     OW 7984   0.417   2.600   9.049
 2483SOL    HW1 7985   0.480   2.645   8.993
 2483SOL    HW2 7986   0.457   2.515   9.066
 2484SOL     OW 7987   1.605   2.643   9.132
 2484SOL    HW1 7988   1.519   2.685   9.126
 2484SOL    HW2 7989   1.658   2.685   9.063
 2485SOL     OW 7990   0.996   1.992   9.202
 2485SOL    HW1 7991   1.054   2.064   9.179
 2485SOL    HW2 7992   1.044   1.913   9.176
 2486SOL     OW 7993   0.497   1.896   9.195
 2486SOL    HW1 7994   0.452   1.845   9.128
 2486SOL    HW2 7995   0.443   1.975   9.204
 2487SOL     OW 7996   0.585   2.736   8.480
 2487SOL    HW1 7997   0.619   2.826   8.481
 2487SOL    HW2 7998   0.529   2.731   8.558
 2488SOL     OW 7999   1.352   2.718   8.478
 2488SOL    HW1 8000   1.273   2.709   8.425
 2488SOL    HW2 8001   1.399   2.636   8.465
 2489SOL     OW 8002   0.310   2.057   8.695
 2489SOL    HW1 8003   0.263   2.094   8.770
 2489SOL    HW2 8004   0.287   1.965   8.695
 2490SOL     OW 8005   0.060   3.167   8.729
 2490SOL    HW1 8006   0.091   3.126   8.809
 2490SOL    HW2 8007   0.052   3.260   8.751
 2491SOL     OW 8008   0.723   2.493   8.504
 2491SOL    HW1 8009   0.799   2.477   8.447
 2491SOL    HW2 8010   0.695   2.582   8.483
 2492SOL     OW 8011   1.737   2.821   9.304
 2492SOL    HW1 8012   1.694   2.755   9.250
 2492SOL    HW2 8013   1.676   2.837   9.376
 2493SOL     OW 8014   0.314   1.924   8.068
 2493SOL    HW1 8015   0.293   2.014   8.089
 2493SOL    HW2 8016   0.321   1.880   8.153
 2494SOL     OW 8017   1.648   2.243   7.855
 2494SOL    HW1 8018   1.632   2.151   7.874
 2494SOL    HW2 8019   1.570   2.289   7.886
 2495SOL     OW 8020   1.026   2.622   8.406
 2495SOL    HW1 8021   1.022   2.638   8.500
 2495SOL    HW2 8022   1.002   2.529   8.397
 2496SOL     OW 8023   0.986   3.430   9.169
 2496SOL    HW1 8024   0.966   3.471   9.085
 2496SOL    HW2 8025   1.028   3.347   9.146
 2497SOL     OW 8026   1.853   3.364   9.052
 2497SOL    HW1 8027   1.873   3.392   8.963
 2497SOL    HW2 8028   1.933   3.381   9.101
 2498SOL     OW 8029   0.353   2.784   9.248
 2498SOL    HW1 8030   0.432   2.805   9.298
 2498SOL    HW2 8031   0.382   2.716   9.186
 2499SOL     OW 8032   1.282   2.686   7.474
 2499SOL    HW1 8033   1.367   2.666   7.512
 2499SOL    HW2 8034   1.302   2.724   7.389
 2500SOL     OW 8035   1.067   3.199   8.303
 2500SOL    HW1 8036   1.071   3.127   8.241
 2500SOL    HW2 8037   1.127   3.265   8.268
 2501SOL     OW 8038   0.313   2.663   8.398
 2501SOL    HW1 8039   0.407   2.681   8.392
 2501SOL    HW2 8040   0.308   2.573   8.429
 2502SOL     OW 8041   0.329   2.383   8.463
 2502SOL    HW1 8042   0.295   2.295   8.446
 2502SOL    HW2 8043   0.405   2.390   8.405
 2503SOL     OW 8044   1.134   2.235   9.133
 2503SOL    HW1 8045   1.086   2.290   9.195
 2503SOL    HW2 8046   1.222   2.274   9.129
 2504SOL     OW 8047   1.160   2.061   8.920
 2504SOL    HW1 8048   1.149   2.124   8.991
 2504SOL    HW2 8049   1.202   2.112   8.850
 2505SOL     OW 8050   4.000   3.179   7.630
 2505SOL    HW1 8051   3.906   3.195   7.634
 2505SOL    HW2 8052   0.009   3.085   7.648
 2506SOL     OW 8053   0.076   3.663   8.343
 2506SOL    HW1 8054   0.092   3.568   8.339
 2506SOL    HW2 8055   0.163   3.702   8.342
 2507SOL     OW 8056   0.506   3.425   8.366
 2507SOL    HW1 8057   0.572   3.492   8.385
 2507SOL    HW2 8058   0.549   3.367   8.302
 2508SOL     OW 8059   0.977   2.651   8.673
 2508SOL    HW1 8060   1.036   2.631   8.746
 2508SOL    HW2 8061   0.893   2.612   8.698
 2509SOL     OW 8062   0.038   2.421   8.557
 2509SOL    HW1 8063   0.121   2.399   8.515
 2509SOL    HW2 8064   0.057   2.417   8.651
 2510SOL     OW 8065   0.207   2.374   9.175
 2510SOL    HW1 8066   0.245   2.326   9.102
 2510SOL    HW2 8067   0.161   2.448   9.134
 2511SOL     OW 8068   1.379   2.798   9.105
 2511SOL    HW1 8069   1.400   2.891   9.102
 2511SOL    HW2 8070   1.375   2.771   9.013
 2512SOL     OW 8071   0.819   2.430   7.810
 2512SOL    HW1 8072   0.821   2.354   7.753
 2512SOL    HW2 8073   0.746   2.482   7.779
 2513SOL     OW 8074   1.644   2.464   8.631
 2513SOL    HW1 8075   1.634   2.408   8.708
 2513SOL    HW2 8076   1.730   2.440   8.596
 2514SOL     OW 8077   0.300   3.407   9.173
 2514SOL    HW1 8078   0.252   3.476   9.218
 2514SOL    HW2 8079   0.270   3.326   9.214
 2515SOL     OW 8080   0.709   2.310   8.704
 2515SOL    HW1 8081   0.655   2.237   8.675
 2515SOL    HW2 8082   0.702   2.374   8.633
 2516SOL     OW 8083   0.926   3.533   8.918
 2516SOL    HW1 8084   0.900   3.494   8.835
 2516SOL    HW2 8085   0.918   3.628   8.904
 2517SOL     OW 8086   0.454   2.350   7.644
 2517SOL    HW1 8087   0.519   2.418   7.663
 2517SOL    HW2 8088   0.375   2.399   7.621
 2518SOL     OW 8089   0.155   2.997   8.924
 2518SOL    HW1 8090   0.155   2.946   9.005
 2518SOL    HW2 8091   0.170   2.932   8.855
 2519SOL     OW 8092   1.323   2.907   8.669
 2519SOL    HW1 8093   1.343   2.841   8.602
 2519SOL    HW2 8094   1.256   2.962   8.629
 2520SOL     OW 8095   1.287   2.716   7.759
 2520SOL    HW1 8096   1.225   2.668   7.814
 2520SOL    HW2 8097   1.252   2.709   7.670
 2521SOL     OW 8098   1.773   3.601   8.600
 2521SOL    HW1 8099   1.835   3.629   8.533
 2521SOL    HW2 8100   1.751   3.511   8.576
 2522SOL     OW 8101   1.244   3.594   8.556
 2522SOL    HW1 8102   1.327   3.616   8.513
 2522SOL    HW2 8103   1.251   3.501   8.576
 2523SOL     OW 8104   0.076   3.075   8.477
 2523SOL    HW1 8105   0.083   3.103   8.568
 2523SOL    HW2 8106   3.984   3.088   8.454
 2524SOL     OW 8107   0.680   3.528   9.183
 2524SOL    HW1 8108   0.621   3.603   9.186
 2524SOL    HW2 8109   0.740   3.547   9.111
 2525SOL     OW 8110   1.649   1.983   7.921
 2525SOL    HW1 8111   1.743   1.982   7.901
 2525SOL    HW2 8112   1.635   1.902   7.969
 2526SOL     OW 8113   1.391   3.431   7.937
 2526SOL    HW1 8114   1.450   3.465   7.869
 2526SOL    HW2 8115   1.342   3.507   7.966
 2527SOL     OW 8116   0.171   3.622   9.280
 2527SOL    HW1 8117   0.116   3.569   9.339
 2527SOL    HW2 8118   0.217   3.682   9.339
 2528SOL     OW 8119   1.271   2.794   8.120
 2528SOL    HW1 8120   1.343   2.734   8.137
 2528SOL    HW2 8121   1.308   2.862   8.065
 2529SOL     OW 8122   0.808   3.136   8.875
 2529SOL    HW1 8123   0.780   3.177   8.957
 2529SOL    HW2 8124   0.738   3.154   8.813
 2530SOL     OW 8125   0.674   3.480   7.606
 2530SOL    HW1 8126   0.683   3.497   7.513
 2530SOL    HW2 8127   0.615   3.405   7.611
 2531SOL     OW 8128   1.621   3.588   8.838
 2531SOL    HW1 8129   1.673   3.593   8.758
 2531SOL    HW2 8130   1.607   3.680   8.863
 2532SOL     OW 8131   0.265   2.174   8.164
 2532SOL    HW1 8132   0.179   2.206   8.138
 2532SOL    HW2 8133   0.260   2.165   8.259
 2533SOL     OW 8134   1.208   3.465   7.484
 2533SOL    HW1 8135   1.197   3.373   7.508
 2533SOL    HW2 8136   1.147   3.479   7.412
 2534SOL     OW 8137   0.823   2.868   8.822
 2534SOL    HW1 8138   0.868   2.861   8.738
 2534SOL    HW2 8139   0.821   2.961   8.842
 2535SOL     OW 8140   0.911   2.773   7.734
 2535SOL    HW1 8141   0.973   2.807   7.670
 2535SOL    HW2 8142   0.961   2.709   7.785
 2536SOL     OW 8143   1.489   3.492   7.491
 2536SOL    HW1 8144   1.395   3.481   7.475
 2536SOL    HW2 8145   1.528   3.497   7.404
 2537SOL     OW 8146   0.374   3.165   8.939
 2537SOL    HW1 8147   0.359   3.245   8.889
 2537SOL    HW2 8148   0.297   3.111   8.922
 2538SOL     OW 8149   1.609   3.146   8.728
 2538SOL    HW1 8150   1.668   3.132   8.802
 2538SOL    HW2 8151   1.549   3.214   8.759
 2539SOL     OW 8152   1.056   2.972   8.157
 2539SOL    HW1 8153   0.984   2.920   8.194
 2539SOL    HW2 8154   1.121   2.907   8.130
 2540SOL     OW 8155   1.022   2.103   8.416
 2540SOL    HW1 8156   1.017   2.057   8.332
 2540SOL    HW2 8157   1.016   2.033   8.482
 2541SOL     OW 8158   0.606   3.352   7.928
 2541SOL    HW1 8159   0.653   3.302   7.861
 2541SOL    HW2 8160   0.533   3.393   7.881
 2542SOL     OW 8161   1.728   2.252   8.822
 2542SOL    HW1 8162   1.800   2.314   8.831
 2542SOL    HW2 8163   1.761   2.184   8.763
 2543SOL     OW 8164   0.254   3.203   7.740
 2543SOL    HW1 8165   0.160   3.210   7.722
 2543SOL    HW2 8166   0.264   3.241   7.827
 2544SOL     OW 8167   0.108   2.859   9.165
 2544SOL    HW1 8168   0.048   2.853   9.240
 2544SOL    HW2 8169   0.194   2.842   9.203
 2545SOL     OW 8170   0.676   2.058   8.948
 2545SOL    HW1 8171   0.760   2.037   8.907
 2545SOL    HW2 8172   0.699   2.091   9.035
 2546SOL     OW 8173   0.080   2.175   7.486
 2546SOL    HW1 8174   3.985   2.175   7.493
 2546SOL    HW2 8175   0.101   2.255   7.439
 2547SOL     OW 8176   1.427   2.720   8.846
 2547SOL    HW1 8177   1.378   2.780   8.791
 2547SOL    HW2 8178   1.516   2.722   8.811
 2548SOL     OW 8179   0.017   2.101   7.825
 2548SOL    HW1 8180   0.043   2.165   7.758
 2548SOL    HW2 8181   0.099   2.061   7.854
 2549SOL     OW 8182   1.178   3.198   7.565
 2549SOL    HW1 8183   1.087   3.169   7.566
 2549SOL    HW2 8184   1.205   3.197   7.657
 2550SOL     OW 8185   0.620   2.692   8.885
 2550SOL    HW1 8186   0.676   2.768   8.869
 2550SOL    HW2 8187   0.681   2.619   8.892
 2551SOL     OW 8188   1.486   3.642   8.430
 2551SOL    HW1 8189   1.508   3.702   8.359
 2551SOL    HW2 8190   1.570   3.619   8.469
 2552SOL     OW 8191   0.716   2.424   9.151
 2552SOL    HW1 8192   0.761   2.485   9.209
 2552SOL    HW2 8193   0.740   2.337   9.184
 2553SOL     OW 8194   1.474   3.058   9.078
 2553SOL    HW1 8195   1.461   3.073   9.172
 2553SOL    HW2 8196   1.566   3.076   9.063
 2554SOL     OW 8197   0.378   3.608   9.008
 2554SOL    HW1 8198   0.290   3.644   8.995
 2554SOL    HW2 8199   0.364   3.525   9.053
 2555SOL     OW 8200   1.667   2.742   8.702
 2555SOL    HW1 8201   1.661   2.657   8.660
 2555SOL    HW2 8202   1.656   2.806   8.631
 2556SOL     OW 8203   0.588   2.599   8.121
 2556SOL    HW1 8204   0.628   2.684   8.106
 2556SOL    HW2 8205   0.522   2.590   8.052
 2557SOL     OW 8206   1.753   2.244   9.098
 2557SOL    HW1 8207   1.738   2.247   9.003
 2557SOL    HW2 8208   1.691   2.178   9.129
 2558SOL     OW 8209   1.746   2.797   8.959
 2558SOL    HW1 8210   1.738   2.892   8.971
 2558SOL    HW2 8211   1.729   2.784   8.865
 2559SOL     OW 8212   0.864   3.228   7.488
 2559SOL    HW1 8213   0.823   3.257   7.570
 2559SOL    HW2 8214   0.878   3.309   7.439
 2560SOL     OW 8215   0.659   3.650   8.382
 2560SOL    HW1 8216   0.638   3.741   8.363
 2560SOL    HW2 8217   0.754   3.646   8.380
 2561SOL     OW 8218   0.868   2.830   8.301
 2561SOL    HW1 8219   0.919   2.758   8.338
 2561SOL    HW2 8220   0.832   2.876   8.377
 2562SOL     OW 8221   1.074   2.852   7.534
 2562SOL    HW1 8222   1.052   2.906   7.458
 2562SOL    HW2 8223   1.148   2.798   7.506
 2563SOL     OW 8224   1.850   3.412   8.289
 2563SOL    HW1 8225   1.768   3.403   8.239
 2563SOL    HW2 8226   1.839   3.351   8.362
 2564SOL     OW 8227   0.227   3.166   9.305
 2564SOL    HW1 8228   0.153   3.113   9.277
 2564SOL    HW2 8229   0.215   3.179   9.399
 2565SOL     OW 8230   0.117   3.141   8.171
 2565SOL    HW1 8231   0.137   3.090   8.249
 2565SOL    HW2 8232   0.104   3.076   8.102
 2566SOL     OW 8233   0.684   3.267   9.079
 2566SOL    HW1 8234   0.603   3.225   9.109
 2566SOL    HW2 8235   0.680   3.355   9.116
 2567SOL     OW 8236   0.440   2.295   7.982
 2567SOL    HW1 8237   0.437   2.226   7.916
 2567SOL    HW2 8238   0.385   2.262   8.053
 2568SOL     OW 8239   1.700   3.347   8.538
 2568SOL    HW1 8240   1.618   3.326   8.492
 2568SOL    HW2 8241   1.707   3.279   8.605
 2569SOL     OW 8242   0.335   2.420   8.740
 2569SOL    HW1 8243   0.389   2.363   8.795
 2569SOL    HW2 8244   0.350   2.389   8.651
 2570SOL     OW 8245   0.829   3.441   8.124
 2570SOL    HW1 8246   0.811   3.496   8.048
 2570SOL    HW2 8247   0.755   3.380   8.128
 2571SOL     OW 8248   1.436   2.092   8.570
 2571SOL    HW1 8249   1.445   2.004   8.606
 2571SOL    HW2 8250   1.382   2.139   8.633
 2572SOL     OW 8251   1.010   1.878   8.587
 2572SOL    HW1 8252   0.955   1.812   8.545
 2572SOL    HW2 8253   1.098   1.840   8.587
 2573SOL     OW 8254   0.773   3.194   7.768
 2573SOL    HW1 8255   0.744   3.103   7.775
 2573SOL    HW2 8256   0.856   3.196   7.816
 2574SOL     OW 8257   0.621   3.415   8.734
 2574SOL    HW1 8258   0.621   3.497   8.784
 2574SOL    HW2 8259   0.708   3.410   8.696
 2575SOL     OW 8260   1.327   2.330   8.140
 2575SOL    HW1 8261   1.265   2.402   8.128
 2575SOL    HW2 8262   1.300   2.289   8.222
 2576SOL     OW 8263   1.567   2.047   8.322
 2576SOL    HW1 8264   1.533   2.081   8.404
 2576SOL    HW2 8265   1.588   2.125   8.270
 2577SOL     OW 8266   0.048   2.911   7.688
 2577SOL    HW1 8267   0.142   2.895   7.680
 2577SOL    HW2 8268   0.012   2.826   7.716
 2578SOL     OW 8269   0.887   3.522   7.790
 2578SOL    HW1 8270   0.815   3.503   7.730
 2578SOL    HW2 8271   0.855   3.597   7.842
 2579SOL     OW 8272   0.231   2.487   9.428
 2579SOL    HW1 8273   0.138   2.495   9.450
 2579SOL    HW2 8274   0.232   2.455   9.338
 2580SOL     OW 8275   0.229   2.134  10.297
 2580SOL    HW1 8276   0.250   2.100  10.383
 2580SOL    HW2 8277   0.134   2.127  10.290
 2581SOL     OW 8278   0.008   2.220   9.940
 2581SOL    HW1 8279   3.919   2.238   9.970
 2581SOL    HW2 8280   3.997   2.190   9.849
 2582SOL     OW 8281   0.581   3.152  10.502
 2582SOL    HW1 8282   0.495   3.155  10.461
 2582SOL    HW2 8283   0.595   3.241  10.535
 2583SOL     OW 8284   1.565   3.373  10.019
 2583SOL    HW1 8285   1.523   3.351  10.102
 2583SOL    HW2 8286   1.493   3.376   9.955
 2584SOL     OW 8287   1.132   2.560  10.007
 2584SOL    HW1 8288   1.180   2.641   9.994
 2584SOL    HW2 8289   1.085   2.572  10.089
 2585SOL     OW 8290   1.778   2.464   9.537
 2585SOL    HW1 8291   1.751   2.460   9.445
 2585SOL    HW2 8292   1.740   2.385   9.576
 2586SOL     OW 8293   0.751   3.000  10.353
 2586SOL    HW1 8294   0.688   3.036  10.415
 2586SOL    HW2 8295   0.788   3.076  10.309
 2587SOL     OW 8296   0.872   2.629  11.133
 2587SOL    HW1 8297   0.862   2.700  11.197
 2587SOL    HW2 8298   0.894   2.673  11.051
 2588SOL     OW 8299   0.685   2.862   9.956
 2588SOL    HW1 8300   0.751   2.852  10.024
 2588SOL    HW2 8301   0.616   2.915   9.996
 2589SOL     OW 8302   0.712   3.011  11.128
 2589SOL    HW1 8303   0.760   3.089  11.157
 2589SOL    HW2 8304   0.632   3.046  11.089
 2590SOL     OW 8305   0.351   3.263  10.388
 2590SOL    HW1 8306   0.269   3.247  10.341
 2590SOL    HW2 8307   0.400   3.321  10.330
 2591SOL     OW 8308   1.460   3.363  10.668
 2591SOL    HW1 8309   1.514   3.442  10.678
 2591SOL    HW2 8310   1.392   3.371  10.736
 2592SOL     OW 8311   0.450   2.260  10.796
 2592SOL    HW1 8312   0.525   2.201  10.800
 2592SOL    HW2 8313   0.374   2.203  10.810
 2593SOL     OW 8314   1.602   2.304  10.048
 2593SOL    HW1 8315   1.519   2.323  10.004
 2593SOL    HW2 8316   1.616   2.379  10.106
 2594SOL     OW 8317   0.222   3.571   9.776
 2594SOL    HW1 8318   0.222   3.655   9.822
 2594SOL    HW2 8319   0.299   3.576   9.719
 2595SOL     OW 8320   1.138   3.204  11.004
 2595SOL    HW1 8321   1.178   3.197  11.090
 2595SOL    HW2 8322   1.085   3.124  10.996
 2596SOL     OW 8323   0.252   3.306   9.850
 2596SOL    HW1 8324   0.223   3.396   9.836
 2596SOL    HW2 8325   0.182   3.267   9.903
 2597SOL     OW 8326   0.248   2.928  10.193
 2597SOL    HW1 8327   0.268   2.843  10.233
 2597SOL    HW2 8328   0.195   2.973  10.259
 2598SOL     OW 8329   0.610   3.648  10.736
 2598SOL    HW1 8330   0.528   3.634  10.784
 2598SOL    HW2 8331   0.637   3.737  10.761
 2599SOL     OW 8332   0.576   2.848   9.449
 2599SOL    HW1 8333   0.625   2.893   9.380
 2599SOL    HW2 8334   0.617   2.878   9.530
 2600SOL     OW 8335   1.589   1.994  10.772
 2600SOL    HW1 8336   1.589   2.079  10.729
 2600SOL    HW2 8337   1.579   2.013  10.865
 2601SOL     OW 8338   0.143   2.517   9.884
 2601SOL    HW1 8339   0.087   2.439   9.882
 2601SOL    HW2 8340   0.107   2.571   9.954
 2602SOL     OW 8341   1.843   3.607   9.648
 2602SOL    HW1 8342   1.912   3.584   9.709
 2602SOL    HW2 8343   1.862   3.698   9.624
 2603SOL     OW 8344   0.041   3.452   9.450
 2603SOL    HW1 8345   0.035   3.360   9.476
 2603SOL    HW2 8346   3.957   3.489   9.476
 2604SOL     OW 8347   1.689   2.780   9.953
 2604SOL    HW1 8348   1.771   2.737   9.930
 2604SOL    HW2 8349   1.666   2.832   9.876
 2605SOL     OW 8350   1.648   2.966   9.739
 2605SOL    HW1 8351   1.734   2.969   9.698
 2605SOL    HW2 8352   1.654   3.029   9.811
 2606SOL     OW 8353   0.141   2.615  10.899
 2606SOL    HW1 8354   0.236   2.610  10.895
 2606SOL    HW2 8355   0.122   2.703  10.933
 2607SOL     OW 8356   0.617   3.249  10.044
 2607SOL    HW1 8357   0.569   3.166  10.054
 2607SOL    HW2 8358   0.599   3.276   9.954
 2608SOL     OW 8359   1.287   3.098  10.732
 2608SOL    HW1 8360   1.318   3.030  10.672
 2608SOL    HW2 8361   1.346   3.093  10.807
 2609SOL     OW 8362   0.821   1.863   9.823
 2609SOL    HW1 8363   0.861   1.947   9.800
 2609SOL    HW2 8364   0.727   1.881   9.827
 2610SOL     OW 8365   0.184   2.811  10.590
 2610SOL    HW1 8366   0.272   2.776  10.578
 2610SOL    HW2 8367   0.133   2.774  10.518
 2611SOL     OW 8368   1.531   2.859   9.510
 2611SOL    HW1 8369   1.462   2.802   9.542
 2611SOL    HW2 8370   1.573   2.893   9.589
 2612SOL     OW 8371   1.219   3.667  10.938
 2612SOL    HW1 8372   1.195   3.728  10.869
 2612SOL    HW2 8373   1.220   3.581  10.895
 2613SOL     OW 8374   0.342   2.109  11.128
 2613SOL    HW1 8375   0.378   2.198  11.135
 2613SOL    HW2 8376   0.250   2.118  11.152
 2614SOL     OW 8377   1.466   3.281  10.259
 2614SOL    HW1 8378   1.399   3.297  10.326
 2614SOL    HW2 8379   1.453   3.190  10.233
 2615SOL     OW 8380   1.653   3.603   9.891
 2615SOL    HW1 8381   1.640   3.572   9.802
 2615SOL    HW2 8382   1.631   3.528   9.946
 2616SOL     OW 8383   0.596   2.577   9.576
 2616SOL    HW1 8384   0.602   2.662   9.532
 2616SOL    HW2 8385   0.533   2.591   9.647
 2617SOL     OW 8386   1.279   2.224  10.245
 2617SOL    HW1 8387   1.191   2.188  10.255
 2617SOL    HW2 8388   1.334   2.168  10.299
 2618SOL     OW 8389   1.576   3.538   9.619
 2618SOL    HW1 8390   1.669   3.560   9.613
 2618SOL    HW2 8391   1.550   3.519   9.528
 2619SOL     OW 8392   0.791   2.480  10.760
 2619SOL    HW1 8393   0.765   2.454  10.848
 2619SOL    HW2 8394   0.754   2.412  10.703
 2620SOL     OW 8395   1.393   2.335  10.987
 2620SOL    HW1 8396   1.397   2.380  11.071
 2620SOL    HW2 8397   1.456   2.263  10.996
 2621SOL     OW 8398   0.951   2.748  10.895
 2621SOL    HW1 8399   1.006   2.679  10.857
 2621SOL    HW2 8400   0.903   2.783  10.820
 2622SOL     OW 8401   0.993   2.273  10.546
 2622SOL    HW1 8402   0.905   2.292  10.578
 2622SOL    HW2 8403   0.979   2.229  10.462
 2623SOL     OW 8404   1.053   2.560   9.735
 2623SOL    HW1 8405   1.070   2.553   9.829
 2623SOL    HW2 8406   0.970   2.514   9.722
 2624SOL     OW 8407   0.082   2.692  10.100
 2624SOL    HW1 8408   0.156   2.661  10.153
 2624SOL    HW2 8409   0.102   2.784  10.084
 2625SOL     OW 8410   0.127   3.719  10.889
 2625SOL    HW1 8411   0.135   3.687  10.979
 2625SOL    HW2 8412   0.035   3.706  10.867
 2626SOL     OW 8413   0.898   2.212   9.503
 2626SOL    HW1 8414   0.937   2.276   9.443
 2626SOL    HW2 8415   0.913   2.127   9.462
 2627SOL     OW 8416   1.703   2.438  11.144
 2627SOL    HW1 8417   1.668   2.508  11.090
 2627SOL    HW2 8418   1.734   2.372  11.081
 2628SOL     OW 8419   1.379   3.004   9.850
 2628SOL    HW1 8420   1.458   2.992   9.798
 2628SOL    HW2 8421   1.326   3.066   9.800
 2629SOL     OW 8422   0.546   2.040  10.205
 2629SOL    HW1 8423   0.553   2.072  10.295
 2629SOL    HW2 8424   0.545   2.119  10.151
 2630SOL     OW 8425   1.002   3.307   9.780
 2630SOL    HW1 8426   0.967   3.381   9.731
 2630SOL    HW2 8427   0.981   3.326   9.871
 2631SOL     OW 8428   0.359   3.672  10.173
 2631SOL    HW1 8429   0.439   3.620  10.186
 2631SOL    HW2 8430   0.388   3.763  10.182
 2632SOL     OW 8431   1.800   2.914  10.180
 2632SOL    HW1 8432   1.747   2.896  10.103
 2632SOL    HW2 8433   1.737   2.922  10.251
 2633SOL     OW 8434   1.228   3.399  10.821
 2633SOL    HW1 8435   1.215   3.327  10.883
 2633SOL    HW2 8436   1.158   3.387  10.756
 2634SOL     OW 8437   0.311   2.815   9.552
 2634SOL    HW1 8438   0.394   2.838   9.510
 2634SOL    HW2 8439   0.298   2.723   9.532
 2635SOL     OW 8440   1.481   2.608  10.033
 2635SOL    HW1 8441   1.476   2.568  10.120
 2635SOL    HW2 8442   1.559   2.663  10.037
 2636SOL     OW 8443   0.469   3.122  11.047
 2636SOL    HW1 8444   0.443   3.131  10.955
 2636SOL    HW2 8445   0.387   3.126  11.095
 2637SOL     OW 8446   1.113   3.643   9.531
 2637SOL    HW1 8447   1.048   3.597   9.584
 2637SOL    HW2 8448   1.144   3.577   9.469
 2638SOL     OW 8449   0.204   2.133  10.818
 2638SOL    HW1 8450   0.114   2.166  10.813
 2638SOL    HW2 8451   0.195   2.046  10.855
 2639SOL     OW 8452   1.627   3.243   9.401
 2639SOL    HW1 8453   1.587   3.328   9.383
 2639SOL    HW2 8454   1.559   3.180   9.380
 2640SOL     OW 8455   0.467   3.602   9.631
 2640SOL    HW1 8456   0.506   3.664   9.693
 2640SOL    HW2 8457   0.540   3.573   9.576
 2641SOL     OW 8458   1.399   1.968   9.743
 2641SOL    HW1 8459   1.383   1.946   9.652
 2641SOL    HW2 8460   1.489   1.940   9.759
 2642SOL     OW 8461   0.254   3.656  10.535
 2642SOL    HW1 8462   0.297   3.589  10.588
 2642SOL    HW2 8463   0.252   3.620  10.447
 2643SOL     OW 8464   0.938   3.564  10.209
 2643SOL    HW1 8465   1.015   3.512  10.232
 2643SOL    HW2 8466   0.895   3.513  10.140
 2644SOL     OW 8467   0.400   2.554   9.781
 2644SOL    HW1 8468   0.424   2.463   9.796
 2644SOL    HW2 8469   0.308   2.560   9.807
 2645SOL     OW 8470   1.535   2.086  11.035
 2645SOL    HW1 8471   1.548   2.107  11.127
 2645SOL    HW2 8472   1.465   2.021  11.035
 2646SOL     OW 8473   0.645   1.979   9.406
 2646SOL    HW1 8474   0.704   1.907   9.427
 2646SOL    HW2 8475   0.594   1.948   9.331
 2647SOL     OW 8476   0.765   2.141  11.065
 2647SOL    HW1 8477   0.845   2.088  11.062
 2647SOL    HW2 8478   0.719   2.111  11.143
 2648SOL     OW 8479   0.876   3.383  10.504
 2648SOL    HW1 8480   0.859   3.346  10.417
 2648SOL    HW2 8481   0.946   3.328  10.540
 2649SOL     OW 8482   1.340   2.451  10.742
 2649SOL    HW1 8483   1.370   2.420  10.827
 2649SOL    HW2 8484   1.376   2.539  10.735
 2650SOL     OW 8485   0.818   3.253  10.253
 2650SOL    HW1 8486   0.903   3.241  10.210
 2650SOL    HW2 8487   0.755   3.256  10.180
 2651SOL     OW 8488   0.929   2.371  10.211
 2651SOL    HW1 8489   0.905   2.363  10.119
 2651SOL    HW2 8490   0.959   2.284  10.236
 2652SOL     OW 8491   0.557   1.924   9.804
 2652SOL    HW1 8492   0.475   1.929   9.853
 2652SOL    HW2 8493   0.561   2.006   9.755
 2653SOL     OW 8494   1.428   3.062   9.350
 2653SOL    HW1 8495   1.458   2.986   9.400
 2653SOL    HW2 8496   1.342   3.083   9.387
 2654SOL     OW 8497   0.309   1.913   9.479
 2654SOL    HW1 8498   0.372   1.951   9.418
 2654SOL    HW2 8499   0.359   1.848   9.528
 2655SOL     OW 8500   0.941   2.110   9.768
 2655SOL    HW1 8501   0.912   2.149   9.685
 2655SOL    HW2 8502   1.035   2.127   9.772
 2656SOL     OW 8503   1.080   2.545  10.768
 2656SOL    HW1 8504   1.014   2.476  10.772
 2656SOL    HW2 8505   1.163   2.498  10.762
 2657SOL     OW 8506   1.221   3.433  10.104
 2657SOL    HW1 8507   1.236   3.500  10.037
 2657SOL    HW2 8508   1.290   3.448  10.168
 2658SOL     OW 8509   0.467   3.013  10.044
 2658SOL    HW1 8510   0.396   2.989  10.103
 2658SOL    HW2 8511   0.431   2.998   9.956
 2659SOL     OW 8512   1.265   3.655   9.919
 2659SOL    HW1 8513   1.313   3.720   9.867
 2659SOL    HW2 8514   1.192   3.705   9.956
 2660SOL     OW 8515   1.023   2.400   9.335
 2660SOL    HW1 8516   0.980   2.483   9.316
 2660SOL    HW2 8517   1.089   2.422   9.401
 2661SOL     OW 8518   0.083   2.435  10.700
 2661SOL    HW1 8519   0.173   2.422  10.669
 2661SOL    HW2 8520   0.089   2.505  10.765
 2662SOL     OW 8521   0.567   2.089  10.477
 2662SOL    HW1 8522   0.608   2.015  10.520
 2662SOL    HW2 8523   0.475   2.085  10.505
 2663SOL     OW 8524   0.867   2.320   9.949
 2663SOL    HW1 8525   0.820   2.374   9.886
 2663SOL    HW2 8526   0.888   2.240   9.901
 2664SOL     OW 8527   1.017   1.916  10.059
 2664SOL    HW1 8528   0.958   1.910   9.984
 2664SOL    HW2 8529   0.993   1.841  10.114
 2665SOL     OW 8530   1.438   3.023  10.167
 2665SOL    HW1 8531   1.368   2.959  10.167
 2665SOL    HW2 8532   1.463   3.032  10.074
 2666SOL     OW 8533   1.465   2.470  10.281
 2666SOL    HW1 8534   1.410   2.391  10.285
 2666SOL    HW2 8535   1.523   2.461  10.357
 2667SOL     OW 8536   1.842   2.676   9.695
 2667SOL    HW1 8537   1.902   2.628   9.752
 2667SOL    HW2 8538   1.818   2.612   9.627
 2668SOL     OW 8539   0.488   3.282   9.468
 2668SOL    HW1 8540   0.412   3.253   9.518
 2668SOL    HW2 8541   0.472   3.251   9.379
 2669SOL     OW 8542   1.674   3.126   9.953
 2669SOL    HW1 8543   1.769   3.127   9.967
 2669SOL    HW2 8544   1.645   3.214   9.975
 2670SOL     OW 8545   1.393   2.436   9.379
 2670SOL    HW1 8546   1.334   2.414   9.451
 2670SOL    HW2 8547   1.479   2.406   9.409
 2671SOL     OW 8548   0.575   2.130   9.627
 2671SOL    HW1 8549   0.606   2.083   9.549
 2671SOL    HW2 8550   0.542   2.213   9.593
 2672SOL     OW 8551   1.750   3.104  10.877
 2672SOL    HW1 8552   1.838   3.065  10.872
 2672SOL    HW2 8553   1.766   3.194  10.905
 2673SOL     OW 8554   1.056   3.214  10.642
 2673SOL    HW1 8555   0.981   3.184  10.693
 2673SOL    HW2 8556   1.131   3.173  10.684
 2674SOL     OW 8557   1.610   3.489  10.967
 2674SOL    HW1 8558   1.601   3.522  10.878
 2674SOL    HW2 8559   1.693   3.440  10.966
 2675SOL     OW 8560   1.133   3.069  10.413
 2675SOL    HW1 8561   1.073   3.106  10.478
 2675SOL    HW2 8562   1.102   3.103  10.329
 2676SOL     OW 8563   1.625   2.959  10.386
 2676SOL    HW1 8564   1.619   3.021  10.458
 2676SOL    HW2 8565   1.548   2.977  10.332
 2677SOL     OW 8566   0.918   1.957  10.703
 2677SOL    HW1 8567   0.941   1.938  10.612
 2677SOL    HW2 8568   0.997   1.996  10.740
 2678SOL     OW 8569   0.984   2.977  11.033
 2678SOL    HW1 8570   0.893   2.993  11.056
 2678SOL    HW2 8571   0.981   2.898  10.978
 2679SOL     OW 8572   0.708   2.923   9.681
 2679SOL    HW1 8573   0.694   2.905   9.774
 2679SOL    HW2 8574   0.784   2.870   9.657
 2680SOL     OW 8575   0.422   2.679  10.563
 2680SOL    HW1 8576   0.490   2.688  10.629
 2680SOL    HW2 8577   0.389   2.590  10.574
 2681SOL     OW 8578   1.264   2.236  10.589
 2681SOL    HW1 8579   1.297   2.315  10.634
 2681SOL    HW2 8580   1.174   2.258  10.567
 2682SOL     OW 8581   0.066   3.442  10.655
 2682SOL    HW1 8582   0.071   3.491  10.574
 2682SOL    HW2 8583   0.157   3.431  10.683
 2683SOL     OW 8584   0.368   2.964   9.792
 2683SOL    HW1 8585   0.364   3.045   9.741
 2683SOL    HW2 8586   0.368   2.895   9.726
 2684SOL     OW 8587   0.548   2.397  10.171
 2684SOL    HW1 8588   0.563   2.454  10.096
 2684SOL    HW2 8589   0.616   2.423  10.234
 2685SOL     OW 8590   1.247   3.211   9.700
 2685SOL    HW1 8591   1.303   3.282   9.731
 2685SOL    HW2 8592   1.160   3.233   9.733
 2686SOL     OW 8593   1.286   3.322  10.458
 2686SOL    HW1 8594   1.342   3.326  10.536
 2686SOL    HW2 8595   1.230   3.245  10.473
 2687SOL     OW 8596   1.575   2.489   9.783
 2687SOL    HW1 8597   1.529   2.534   9.854
 2687SOL    HW2 8598   1.624   2.558   9.739
 2688SOL     OW 8599   0.345   3.390  10.627
 2688SOL    HW1 8600   0.335   3.339  10.546
 2688SOL    HW2 8601   0.439   3.404  10.635
 2689SOL     OW 8602   0.417   2.600  10.911
 2689SOL    HW1 8603   0.480   2.645  10.855
 2689SOL    HW2 8604   0.457   2.515  10.928
 2690SOL     OW 8605   1.605   2.642  10.994
 2690SOL    HW1 8606   1.519   2.685  10.988
 2690SOL    HW2 8607   1.657   2.685  10.926
 2691SOL     OW 8608   0.996   1.992  11.063
 2691SOL    HW1 8609   1.055   2.064  11.040
 2691SOL    HW2 8610   1.044   1.913  11.038
 2692SOL     OW 8611   0.497   1.896  11.057
 2692SOL    HW1 8612   0.452   1.845  10.990
 2692SOL    HW2 8613   0.443   1.975  11.066
 2693SOL     OW 8614   0.586   2.736  10.342
 2693SOL    HW1 8615   0.619   2.826  10.343
 2693SOL    HW2 8616   0.530   2.730  10.420
 2694SOL     OW 8617   1.352   2.720  10.334
 2694SOL    HW1 8618   1.267   2.707  10.293
 2694SOL    HW2 8619   1.396   2.636  10.326
 2695SOL     OW 8620   1.202   2.390   9.574
 2695SOL    HW1 8621   1.210   2.312   9.629
 2695SOL    HW2 8622   1.159   2.455   9.630
 2696SOL     OW 8623   0.310   2.057  10.557
 2696SOL    HW1 8624   0.263   2.094  10.632
 2696SOL    HW2 8625   0.287   1.965  10.557
 2697SOL     OW 8626   0.061   3.167  10.590
 2697SOL    HW1 8627   0.091   3.126  10.671
 2697SOL    HW2 8628   0.053   3.260  10.613
 2698SOL     OW 8629   0.723   2.492  10.365
 2698SOL    HW1 8630   0.799   2.478  10.308
 2698SOL    HW2 8631   0.695   2.582  10.345
 2699SOL     OW 8632   1.737   2.821  11.166
 2699SOL    HW1 8633   1.694   2.755  11.112
 2699SOL    HW2 8634   1.676   2.837  11.238
 2700SOL     OW 8635   0.315   1.924   9.930
 2700SOL    HW1 8636   0.293   2.014   9.951
 2700SOL    HW2 8637   0.322   1.880  10.015
 2701SOL     OW 8638   1.613   2.243   9.680
 2701SOL    HW1 8639   1.611   2.186   9.757
 2701SOL    HW2 8640   1.591   2.329   9.714
 2702SOL     OW 8641   1.029   2.620  10.269
 2702SOL    HW1 8642   1.022   2.638  10.363
 2702SOL    HW2 8643   1.002   2.529  10.259
 2703SOL     OW 8644   0.986   3.430  11.031
 2703SOL    HW1 8645   0.966   3.471  10.947
 2703SOL    HW2 8646   1.028   3.347  11.008
 2704SOL     OW 8647   1.853   3.364  10.914
 2704SOL    HW1 8648   1.873   3.392  10.825
 2704SOL    HW2 8649   1.933   3.381  10.963
 2705SOL     OW 8650   0.353   2.784  11.110
 2705SOL    HW1 8651   0.432   2.805  11.160
 2705SOL    HW2 8652   0.382   2.717  11.048
 2706SOL     OW 8653   1.525   2.135   9.438
 2706SOL    HW1 8654   1.460   2.070   9.466
 2706SOL    HW2 8655   1.559   2.171   9.521
 2707SOL     OW 8656   1.288   2.688   9.339
 2707SOL    HW1 8657   1.331   2.602   9.343
 2707SOL    HW2 8658   1.320   2.727   9.258
 2708SOL     OW 8659   1.068   3.199  10.165
 2708SOL    HW1 8660   1.072   3.127  10.103
 2708SOL    HW2 8661   1.127   3.266  10.130
 2709SOL     OW 8662   0.313   2.663  10.260
 2709SOL    HW1 8663   0.407   2.681  10.254
 2709SOL    HW2 8664   0.308   2.573  10.291
 2710SOL     OW 8665   0.329   2.383  10.325
 2710SOL    HW1 8666   0.295   2.295  10.308
 2710SOL    HW2 8667   0.405   2.390  10.267
 2711SOL     OW 8668   1.134   2.235  10.995
 2711SOL    HW1 8669   1.086   2.290  11.057
 2711SOL    HW2 8670   1.222   2.274  10.991
 2712SOL     OW 8671   1.160   2.062  10.781
 2712SOL    HW1 8672   1.149   2.125  10.853
 2712SOL    HW2 8673   1.202   2.112  10.711
 2713SOL     OW 8674   4.000   3.179   9.492
 2713SOL    HW1 8675   3.906   3.195   9.496
 2713SOL    HW2 8676   0.009   3.085   9.510
 2714SOL     OW 8677   0.076   3.663  10.205
 2714SOL    HW1 8678   0.092   3.568  10.202
 2714SOL    HW2 8679   0.163   3.702  10.204
 2715SOL     OW 8680   0.506   3.425  10.228
 2715SOL    HW1 8681   0.572   3.492  10.247
 2715SOL    HW2 8682   0.549   3.367  10.164
 2716SOL     OW 8683   0.977   2.651  10.535
 2716SOL    HW1 8684   1.036   2.631  10.608
 2716SOL    HW2 8685   0.893   2.613  10.560
 2717SOL     OW 8686   0.038   2.421  10.419
 2717SOL    HW1 8687   0.120   2.398  10.377
 2717SOL    HW2 8688   0.057   2.418  10.513
 2718SOL     OW 8689   0.207   2.374  11.038
 2718SOL    HW1 8690   0.245   2.326  10.964
 2718SOL    HW2 8691   0.161   2.448  10.996
 2719SOL     OW 8692   1.379   2.798  10.967
 2719SOL    HW1 8693   1.401   2.891  10.964
 2719SOL    HW2 8694   1.375   2.771  10.875
 2720SOL     OW 8695   0.819   2.431   9.673
 2720SOL    HW1 8696   0.823   2.356   9.614
 2720SOL    HW2 8697   0.745   2.482   9.641
 2721SOL     OW 8698   1.643   2.464  10.490
 2721SOL    HW1 8699   1.632   2.408  10.568
 2721SOL    HW2 8700   1.730   2.441  10.456
 2722SOL     OW 8701   0.300   3.407  11.035
 2722SOL    HW1 8702   0.252   3.476  11.080
 2722SOL    HW2 8703   0.270   3.326  11.076
 2723SOL     OW 8704   0.709   2.310  10.566
 2723SOL    HW1 8705   0.655   2.237  10.538
 2723SOL    HW2 8706   0.702   2.374  10.495
 2724SOL     OW 8707   0.927   3.533  10.780
 2724SOL    HW1 8708   0.900   3.494  10.696
 2724SOL    HW2 8709   0.919   3.627  10.766
 2725SOL     OW 8710   0.453   2.351   9.506
 2725SOL    HW1 8711   0.519   2.418   9.524
 2725SOL    HW2 8712   0.374   2.400   9.483
 2726SOL     OW 8713   0.155   2.997  10.786
 2726SOL    HW1 8714   0.155   2.946  10.867
 2726SOL    HW2 8715   0.170   2.932  10.717
 2727SOL     OW 8716   1.323   2.906  10.530
 2727SOL    HW1 8717   1.345   2.843  10.462
 2727SOL    HW2 8718   1.255   2.961  10.491
 2728SOL     OW 8719   1.314   2.720   9.615
 2728SOL    HW1 8720   1.240   2.687   9.666
 2728SOL    HW2 8721   1.288   2.705   9.523
 2729SOL     OW 8722   1.773   3.601  10.462
 2729SOL    HW1 8723   1.835   3.629  10.395
 2729SOL    HW2 8724   1.751   3.511  10.438
 2730SOL     OW 8725   1.244   3.594  10.417
 2730SOL    HW1 8726   1.327   3.616  10.375
 2730SOL    HW2 8727   1.251   3.501  10.438
 2731SOL     OW 8728   0.077   3.076  10.338
 2731SOL    HW1 8729   0.083   3.103  10.429
 2731SOL    HW2 8730   3.984   3.088  10.316
 2732SOL     OW 8731   0.680   3.528  11.045
 2732SOL    HW1 8732   0.621   3.603  11.048
 2732SOL    HW2 8733   0.740   3.547  10.973
 2733SOL     OW 8734   1.391   3.431   9.798
 2733SOL    HW1 8735   1.450   3.465   9.731
 2733SOL    HW2 8736   1.342   3.507   9.828
 2734SOL     OW 8737   0.171   3.622  11.142
 2734SOL    HW1 8738   0.116   3.569  11.200
 2734SOL    HW2 8739   0.217   3.682  11.201
 2735SOL     OW 8740   1.278   2.789   9.981
 2735SOL    HW1 8741   1.352   2.728   9.989
 2735SOL    HW2 8742   1.312   2.861   9.928
 2736SOL     OW 8743   0.808   3.137  10.737
 2736SOL    HW1 8744   0.780   3.177  10.819
 2736SOL    HW2 8745   0.737   3.154  10.675
 2737SOL     OW 8746   0.674   3.480   9.468
 2737SOL    HW1 8747   0.683   3.497   9.375
 2737SOL    HW2 8748   0.615   3.405   9.473
 2738SOL     OW 8749   1.621   3.588  10.700
 2738SOL    HW1 8750   1.673   3.593  10.620
 2738SOL    HW2 8751   1.607   3.680  10.725
 2739SOL     OW 8752   0.265   2.174  10.026
 2739SOL    HW1 8753   0.179   2.206  10.000
 2739SOL    HW2 8754   0.260   2.165  10.121
 2740SOL     OW 8755   1.208   3.465   9.346
 2740SOL    HW1 8756   1.197   3.373   9.370
 2740SOL    HW2 8757   1.147   3.478   9.274
 2741SOL     OW 8758   0.823   2.868  10.684
 2741SOL    HW1 8759   0.868   2.862  10.599
 2741SOL    HW2 8760   0.821   2.961  10.704
 2742SOL     OW 8761   0.916   2.772   9.601
 2742SOL    HW1 8762   0.976   2.805   9.534
 2742SOL    HW2 8763   0.965   2.704   9.647
 2743SOL     OW 8764   1.489   3.492   9.353
 2743SOL    HW1 8765   1.395   3.480   9.337
 2743SOL    HW2 8766   1.528   3.497   9.266
 2744SOL     OW 8767   0.374   3.165  10.801
 2744SOL    HW1 8768   0.359   3.245  10.751
 2744SOL    HW2 8769   0.297   3.111  10.784
 2745SOL     OW 8770   1.609   3.145  10.590
 2745SOL    HW1 8771   1.669   3.132  10.663
 2745SOL    HW2 8772   1.549   3.213  10.621
 2746SOL     OW 8773   1.058   2.971  10.019
 2746SOL    HW1 8774   0.986   2.920  10.056
 2746SOL    HW2 8775   1.121   2.905   9.991
 2747SOL     OW 8776   1.023   2.103  10.277
 2747SOL    HW1 8777   1.020   2.056  10.193
 2747SOL    HW2 8778   1.018   2.034  10.343
 2748SOL     OW 8779   0.606   3.352   9.790
 2748SOL    HW1 8780   0.653   3.302   9.723
 2748SOL    HW2 8781   0.533   3.393   9.744
 2749SOL     OW 8782   1.729   2.249  10.683
 2749SOL    HW1 8783   1.800   2.313  10.692
 2749SOL    HW2 8784   1.765   2.182  10.625
 2750SOL     OW 8785   0.254   3.202   9.602
 2750SOL    HW1 8786   0.160   3.210   9.584
 2750SOL    HW2 8787   0.264   3.241   9.689
 2751SOL     OW 8788   0.108   2.859  11.027
 2751SOL    HW1 8789   0.048   2.853  11.102
 2751SOL    HW2 8790   0.194   2.842  11.064
 2752SOL     OW 8791   0.676   2.058  10.810
 2752SOL    HW1 8792   0.760   2.037  10.769
 2752SOL    HW2 8793   0.699   2.091  10.897
 2753SOL     OW 8794   0.081   2.175   9.347
 2753SOL    HW1 8795   3.985   2.175   9.355
 2753SOL    HW2 8796   0.101   2.256   9.301
 2754SOL     OW 8797   1.427   2.720  10.708
 2754SOL    HW1 8798   1.378   2.781  10.653
 2754SOL    HW2 8799   1.516   2.722  10.674
 2755SOL     OW 8800   0.017   2.101   9.687
 2755SOL    HW1 8801   0.045   2.164   9.621
 2755SOL    HW2 8802   0.098   2.060   9.717
 2756SOL     OW 8803   1.178   3.198   9.427
 2756SOL    HW1 8804   1.086   3.170   9.428
 2756SOL    HW2 8805   1.204   3.198   9.519
 2757SOL     OW 8806   0.620   2.692  10.747
 2757SOL    HW1 8807   0.676   2.768  10.731
 2757SOL    HW2 8808   0.680   2.619  10.754
 2758SOL     OW 8809   1.486   3.642  10.291
 2758SOL    HW1 8810   1.509   3.702  10.221
 2758SOL    HW2 8811   1.570   3.619  10.331
 2759SOL     OW 8812   0.716   2.424  11.013
 2759SOL    HW1 8813   0.761   2.484  11.072
 2759SOL    HW2 8814   0.740   2.337  11.046
 2760SOL     OW 8815   1.473   3.058  10.940
 2760SOL    HW1 8816   1.461   3.073  11.034
 2760SOL    HW2 8817   1.566   3.076  10.925
 2761SOL     OW 8818   0.378   3.608  10.869
 2761SOL    HW1 8819   0.290   3.644  10.857
 2761SOL    HW2 8820   0.364   3.525  10.915
 2762SOL     OW 8821   1.667   2.742  10.564
 2762SOL    HW1 8822   1.661   2.657  10.521
 2762SOL    HW2 8823   1.656   2.806  10.493
 2763SOL     OW 8824   1.216   2.182   9.768
 2763SOL    HW1 8825   1.278   2.109   9.761
 2763SOL    HW2 8826   1.245   2.231   9.845
 2764SOL     OW 8827   0.588   2.599   9.983
 2764SOL    HW1 8828   0.627   2.685   9.968
 2764SOL    HW2 8829   0.523   2.589   9.914
 2765SOL     OW 8830   1.755   2.243  10.959
 2765SOL    HW1 8831   1.740   2.245  10.864
 2765SOL    HW2 8832   1.695   2.176  10.991
 2766SOL     OW 8833   1.745   2.797  10.821
 2766SOL    HW1 8834   1.738   2.892  10.833
 2766SOL    HW2 8835   1.729   2.784  10.727
 2767SOL     OW 8836   0.865   3.228   9.351
 2767SOL    HW1 8837   0.823   3.257   9.432
 2767SOL    HW2 8838   0.879   3.309   9.301
 2768SOL     OW 8839   0.658   3.650  10.243
 2768SOL    HW1 8840   0.637   3.741  10.225
 2768SOL    HW2 8841   0.754   3.646  10.242
 2769SOL     OW 8842   0.869   2.831  10.163
 2769SOL    HW1 8843   0.919   2.758  10.202
 2769SOL    HW2 8844   0.832   2.877  10.238
 2770SOL     OW 8845   1.077   2.850   9.399
 2770SOL    HW1 8846   1.056   2.902   9.321
 2770SOL    HW2 8847   1.152   2.796   9.372
 2771SOL     OW 8848   1.850   3.412  10.151
 2771SOL    HW1 8849   1.769   3.402  10.100
 2771SOL    HW2 8850   1.840   3.350  10.224
 2772SOL     OW 8851   0.228   3.166  11.167
 2772SOL    HW1 8852   0.153   3.113  11.140
 2772SOL    HW2 8853   0.215   3.179  11.261
 2773SOL     OW 8854   0.117   3.142  10.033
 2773SOL    HW1 8855   0.136   3.091  10.112
 2773SOL    HW2 8856   0.104   3.076   9.965
 2774SOL     OW 8857   0.683   3.267  10.941
 2774SOL    HW1 8858   0.603   3.225  10.971
 2774SOL    HW2 8859   0.680   3.355  10.978
 2775SOL     OW 8860   0.441   2.296   9.844
 2775SOL    HW1 8861   0.441   2.226   9.779
 2775SOL    HW2 8862   0.385   2.262   9.915
 2776SOL     OW 8863   1.700   3.347  10.400
 2776SOL    HW1 8864   1.618   3.326  10.354
 2776SOL    HW2 8865   1.707   3.279  10.467
 2777SOL     OW 8866   0.335   2.420  10.602
 2777SOL    HW1 8867   0.389   2.363  10.657
 2777SOL    HW2 8868   0.350   2.389  10.513
 2778SOL     OW 8869   0.829   3.441   9.986
 2778SOL    HW1 8870   0.811   3.496   9.910
 2778SOL    HW2 8871   0.755   3.380   9.990
 2779SOL     OW 8872   1.436   2.092  10.430
 2779SOL    HW1 8873   1.445   2.004  10.465
 2779SOL    HW2 8874   1.382   2.139  10.493
 2780SOL     OW 8875   1.010   1.878  10.448
 2780SOL    HW1 8876   0.956   1.811  10.406
 2780SOL    HW2 8877   1.098   1.840  10.450
 2781SOL     OW 8878   0.773   3.194   9.630
 2781SOL    HW1 8879   0.744   3.103   9.636
 2781SOL    HW2 8880   0.855   3.196   9.678
 2782SOL     OW 8881   0.621   3.415  10.596
 2782SOL    HW1 8882   0.621   3.497  10.646
 2782SOL    HW2 8883   0.709   3.410  10.558
 2783SOL     OW 8884   1.351   1.914   9.478
 2783SOL    HW1 8885   1.383   1.850   9.415
 2783SOL    HW2 8886   1.263   1.884   9.500
 2784SOL     OW 8887   1.300   2.325   9.990
 2784SOL    HW1 8888   1.246   2.404   9.994
 2784SOL    HW2 8889   1.292   2.286  10.078
 2785SOL     OW 8890   1.566   2.050  10.183
 2785SOL    HW1 8891   1.533   2.079  10.267
 2785SOL    HW2 8892   1.586   2.131  10.136
 2786SOL     OW 8893   0.047   2.910   9.550
 2786SOL    HW1 8894   0.142   2.895   9.542
 2786SOL    HW2 8895   0.012   2.826   9.578
 2787SOL     OW 8896   0.887   3.522   9.652
 2787SOL    HW1 8897   0.815   3.503   9.592
 2787SOL    HW2 8898   0.855   3.596   9.703
 2788SOL     OW 8899   0.231   2.487  11.290
 2788SOL    HW1 8900   0.138   2.495  11.312
 2788SOL    HW2 8901   0.232   2.455  11.200
 2789SOL     OW 8902   0.229   2.134  12.159
 2789SOL    HW1 8903   0.250   2.100  12.245
 2789SOL    HW2 8904   0.134   2.127  12.152
 2790SOL     OW 8905   0.008   2.220  11.802
 2790SOL    HW1 8906   3.919   2.238  11.832
 2790SOL    HW2 8907   3.997   2.190  11.711
 2791SOL     OW 8908   0.581   3.152  12.364
 2791SOL    HW1 8909   0.495   3.155  12.323
 2791SOL    HW2 8910   0.595   3.241  12.397
 2792SOL     OW 8911   1.565   3.373  11.881
 2792SOL    HW1 8912   1.523   3.351  11.964
 2792SOL    HW2 8913   1.493   3.376  11.818
 2793SOL     OW 8914   1.132   2.560  11.869
 2793SOL    HW1 8915   1.180   2.641  11.856
 2793SOL    HW2 8916   1.085   2.572  11.951
 2794SOL     OW 8917   1.778   2.464  11.399
 2794SOL    HW1 8918   1.751   2.460  11.307
 2794SOL    HW2 8919   1.740   2.386  11.438
 2795SOL     OW 8920   0.751   3.000  12.215
 2795SOL    HW1 8921   0.688   3.036  12.277
 2795SOL    HW2 8922   0.788   3.076  12.171
 2796SOL     OW 8923   0.871   2.629  12.995
 2796SOL    HW1 8924   0.863   2.700  13.058
 2796SOL    HW2 8925   0.894   2.673  12.913
 2797SOL     OW 8926   0.685   2.862  11.818
 2797SOL    HW1 8927   0.751   2.852  11.886
 2797SOL    HW2 8928   0.616   2.915  11.858
 2798SOL     OW 8929   0.712   3.011  12.989
 2798SOL    HW1 8930   0.760   3.089  13.018
 2798SOL    HW2 8931   0.632   3.046  12.951
 2799SOL     OW 8932   0.350   3.263  12.250
 2799SOL    HW1 8933   0.269   3.246  12.203
 2799SOL    HW2 8934   0.400   3.321  12.192
 2800SOL     OW 8935   1.460   3.363  12.530
 2800SOL    HW1 8936   1.514   3.442  12.540
 2800SOL    HW2 8937   1.393   3.371  12.598
 2801SOL     OW 8938   0.450   2.260  12.658
 2801SOL    HW1 8939   0.525   2.201  12.662
 2801SOL    HW2 8940   0.374   2.203  12.672
 2802SOL     OW 8941   1.601   2.305  11.911
 2802SOL    HW1 8942   1.518   2.323  11.866
 2802SOL    HW2 8943   1.613   2.380  11.969
 2803SOL     OW 8944   0.222   3.572  11.638
 2803SOL    HW1 8945   0.222   3.655  11.684
 2803SOL    HW2 8946   0.299   3.576  11.581
 2804SOL     OW 8947   1.138   3.204  12.865
 2804SOL    HW1 8948   1.178   3.198  12.952
 2804SOL    HW2 8949   1.085   3.124  12.858
 2805SOL     OW 8950   0.252   3.306  11.712
 2805SOL    HW1 8951   0.223   3.396  11.698
 2805SOL    HW2 8952   0.182   3.267  11.765
 2806SOL     OW 8953   0.248   2.928  12.055
 2806SOL    HW1 8954   0.268   2.843  12.095
 2806SOL    HW2 8955   0.195   2.973  12.121
 2807SOL     OW 8956   0.610   3.648  12.598
 2807SOL    HW1 8957   0.528   3.634  12.645
 2807SOL    HW2 8958   0.636   3.737  12.623
 2808SOL     OW 8959   0.576   2.848  11.311
 2808SOL    HW1 8960   0.625   2.893  11.242
 2808SOL    HW2 8961   0.617   2.878  11.392
 2809SOL     OW 8962   1.588   1.994  12.634
 2809SOL    HW1 8963   1.590   2.079  12.591
 2809SOL    HW2 8964   1.578   2.013  12.727
 2810SOL     OW 8965   0.143   2.517  11.746
 2810SOL    HW1 8966   0.087   2.439  11.744
 2810SOL    HW2 8967   0.107   2.571  11.816
 2811SOL     OW 8968   1.843   3.607  11.509
 2811SOL    HW1 8969   1.912   3.584  11.571
 2811SOL    HW2 8970   1.862   3.698  11.486
 2812SOL     OW 8971   0.041   3.452  11.312
 2812SOL    HW1 8972   0.035   3.360  11.338
 2812SOL    HW2 8973   3.957   3.489  11.338
 2813SOL     OW 8974   1.689   2.780  11.815
 2813SOL    HW1 8975   1.771   2.737  11.792
 2813SOL    HW2 8976   1.666   2.832  11.738
 2814SOL     OW 8977   1.648   2.966  11.601
 2814SOL    HW1 8978   1.734   2.969  11.560
 2814SOL    HW2 8979   1.654   3.029  11.673
 2815SOL     OW 8980   0.141   2.615  12.762
 2815SOL    HW1 8981   0.236   2.610  12.757
 2815SOL    HW2 8982   0.122   2.702  12.795
 2816SOL     OW 8983   0.617   3.249  11.906
 2816SOL    HW1 8984   0.569   3.166  11.916
 2816SOL    HW2 8985   0.599   3.276  11.816
 2817SOL     OW 8986   1.287   3.098  12.594
 2817SOL    HW1 8987   1.318   3.030  12.534
 2817SOL    HW2 8988   1.345   3.093  12.669
 2818SOL     OW 8989   0.821   1.863  11.685
 2818SOL    HW1 8990   0.861   1.947  11.662
 2818SOL    HW2 8991   0.727   1.881  11.689
 2819SOL     OW 8992   0.184   2.811  12.452
 2819SOL    HW1 8993   0.272   2.776  12.440
 2819SOL    HW2 8994   0.133   2.774  12.380
 2820SOL     OW 8995   1.531   2.859  11.372
 2820SOL    HW1 8996   1.461   2.802  11.404
 2820SOL    HW2 8997   1.573   2.893  11.451
 2821SOL     OW 8998   1.219   3.667  12.800
 2821SOL    HW1 8999   1.195   3.728  12.730
 2821SOL    HW2 9000   1.220   3.581  12.757
 2822SOL     OW 9001   0.343   2.109  12.989
 2822SOL    HW1 9002   0.378   2.198  12.997
 2822SOL    HW2 9003   0.251   2.118  13.014
 2823SOL     OW 9004   1.466   3.281  12.121
 2823SOL    HW1 9005   1.399   3.297  12.188
 2823SOL    HW2 9006   1.453   3.190  12.095
 2824SOL     OW 9007   1.653   3.603  11.753
 2824SOL    HW1 9008   1.640   3.571  11.664
 2824SOL    HW2 9009   1.631   3.528  11.808
 2825SOL     OW 9010   0.596   2.577  11.438
 2825SOL    HW1 9011   0.602   2.662  11.394
 2825SOL    HW2 9012   0.533   2.591  11.509
 2826SOL     OW 9013   1.279   2.224  12.107
 2826SOL    HW1 9014   1.191   2.188  12.117
 2826SOL    HW2 9015   1.334   2.168  12.161
 2827SOL     OW 9016   1.576   3.538  11.481
 2827SOL    HW1 9017   1.669   3.560  11.475
 2827SOL    HW2 9018   1.550   3.519  11.390
 2828SOL     OW 9019   0.791   2.480  12.622
 2828SOL    HW1 9020   0.764   2.454  12.710
 2828SOL    HW2 9021   0.754   2.412  12.565
 2829SOL     OW 9022   1.393   2.334  12.849
 2829SOL    HW1 9023   1.396   2.380  12.933
 2829SOL    HW2 9024   1.456   2.263  12.859
 2830SOL     OW 9025   0.951   2.748  12.756
 2830SOL    HW1 9026   1.006   2.679  12.719
 2830SOL    HW2 9027   0.903   2.783  12.682
 2831SOL     OW 9028   0.993   2.273  12.408
 2831SOL    HW1 9029   0.905   2.292  12.440
 2831SOL    HW2 9030   0.979   2.229  12.324
 2832SOL     OW 9031   1.053   2.560  11.597
 2832SOL    HW1 9032   1.070   2.553  11.691
 2832SOL    HW2 9033   0.970   2.514  11.584
 2833SOL     OW 9034   0.082   2.692  11.962
 2833SOL    HW1 9035   0.156   2.661  12.015
 2833SOL    HW2 9036   0.102   2.784  11.946
 2834SOL     OW 9037   0.127   3.719  12.752
 2834SOL    HW1 9038   0.135   3.687  12.842
 2834SOL    HW2 9039   0.035   3.706  12.730
 2835SOL     OW 9040   0.898   2.212  11.365
 2835SOL    HW1 9041   0.937   2.275  11.305
 2835SOL    HW2 9042   0.913   2.127  11.324
 2836SOL     OW 9043   1.701   2.437  13.005
 2836SOL    HW1 9044   1.667   2.508  12.951
 2836SOL    HW2 9045   1.733   2.372  12.942
 2837SOL     OW 9046   1.379   3.004  11.712
 2837SOL    HW1 9047   1.458   2.992  11.660
 2837SOL    HW2 9048   1.326   3.066  11.662
 2838SOL     OW 9049   0.546   2.040  12.067
 2838SOL    HW1 9050   0.553   2.072  12.157
 2838SOL    HW2 9051   0.546   2.119  12.013
 2839SOL     OW 9052   1.002   3.307  11.642
 2839SOL    HW1 9053   0.967   3.381  11.593
 2839SOL    HW2 9054   0.981   3.326  11.733
 2840SOL     OW 9055   0.359   3.672  12.035
 2840SOL    HW1 9056   0.439   3.620  12.048
 2840SOL    HW2 9057   0.388   3.763  12.044
 2841SOL     OW 9058   1.800   2.914  12.042
 2841SOL    HW1 9059   1.747   2.896  11.965
 2841SOL    HW2 9060   1.737   2.922  12.113
 2842SOL     OW 9061   1.228   3.399  12.683
 2842SOL    HW1 9062   1.215   3.327  12.745
 2842SOL    HW2 9063   1.158   3.387  12.618
 2843SOL     OW 9064   0.311   2.815  11.415
 2843SOL    HW1 9065   0.394   2.838  11.372
 2843SOL    HW2 9066   0.298   2.723  11.394
 2844SOL     OW 9067   1.481   2.608  11.895
 2844SOL    HW1 9068   1.475   2.568  11.982
 2844SOL    HW2 9069   1.559   2.663  11.899
 2845SOL     OW 9070   0.469   3.122  12.909
 2845SOL    HW1 9071   0.443   3.131  12.817
 2845SOL    HW2 9072   0.387   3.126  12.957
 2846SOL     OW 9073   1.113   3.643  11.393
 2846SOL    HW1 9074   1.048   3.597  11.446
 2846SOL    HW2 9075   1.144   3.577  11.331
 2847SOL     OW 9076   0.204   2.133  12.680
 2847SOL    HW1 9077   0.114   2.166  12.675
 2847SOL    HW2 9078   0.195   2.045  12.717
 2848SOL     OW 9079   1.627   3.243  11.263
 2848SOL    HW1 9080   1.587   3.328  11.245
 2848SOL    HW2 9081   1.559   3.180  11.242
 2849SOL     OW 9082   0.467   3.602  11.493
 2849SOL    HW1 9083   0.506   3.664  11.555
 2849SOL    HW2 9084   0.540   3.573  11.439
 2850SOL     OW 9085   1.399   1.968  11.605
 2850SOL    HW1 9086   1.383   1.946  11.513
 2850SOL    HW2 9087   1.489   1.940  11.621
 2851SOL     OW 9088   0.254   3.656  12.397
 2851SOL    HW1 9089   0.297   3.589  12.450
 2851SOL    HW2 9090   0.252   3.620  12.309
 2852SOL     OW 9091   0.938   3.564  12.071
 2852SOL    HW1 9092   1.015   3.512  12.094
 2852SOL    HW2 9093   0.895   3.513  12.002
 2853SOL     OW 9094   0.400   2.554  11.643
 2853SOL    HW1 9095   0.424   2.463  11.658
 2853SOL    HW2 9096   0.308   2.560  11.669
 2854SOL     OW 9097   1.535   2.086  12.898
 2854SOL    HW1 9098   1.549   2.107  12.990
 2854SOL    HW2 9099   1.464   2.022  12.898
 2855SOL     OW 9100   0.645   1.979  11.268
 2855SOL    HW1 9101   0.704   1.907  11.289
 2855SOL    HW2 9102   0.594   1.948  11.193
 2856SOL     OW 9103   0.765   2.141  12.927
 2856SOL    HW1 9104   0.845   2.088  12.924
 2856SOL    HW2 9105   0.719   2.112  13.006
 2857SOL     OW 9106   0.876   3.383  12.366
 2857SOL    HW1 9107   0.859   3.346  12.280
 2857SOL    HW2 9108   0.946   3.328  12.402
 2858SOL     OW 9109   1.340   2.451  12.604
 2858SOL    HW1 9110   1.370   2.420  12.690
 2858SOL    HW2 9111   1.376   2.539  12.597
 2859SOL     OW 9112   0.818   3.253  12.115
 2859SOL    HW1 9113   0.903   3.241  12.072
 2859SOL    HW2 9114   0.755   3.256  12.042
 2860SOL     OW 9115   0.929   2.371  12.073
 2860SOL    HW1 9116   0.905   2.363  11.981
 2860SOL    HW2 9117   0.959   2.284  12.098
 2861SOL     OW 9118   0.557   1.924  11.666
 2861SOL    HW1 9119   0.475   1.929  11.715
 2861SOL    HW2 9120   0.561   2.006  11.617
 2862SOL     OW 9121   1.428   3.062  11.212
 2862SOL    HW1 9122   1.458   2.986  11.262
 2862SOL    HW2 9123   1.342   3.083  11.249
 2863SOL     OW 9124   0.309   1.913  11.341
 2863SOL    HW1 9125   0.372   1.951  11.280
 2863SOL    HW2 9126   0.359   1.848  11.390
 2864SOL     OW 9127   0.941   2.110  11.630
 2864SOL    HW1 9128   0.913   2.149  11.547
 2864SOL    HW2 9129   1.035   2.127  11.634
 2865SOL     OW 9130   1.080   2.545  12.630
 2865SOL    HW1 9131   1.014   2.476  12.635
 2865SOL    HW2 9132   1.164   2.498  12.624
 2866SOL     OW 9133   1.221   3.433  11.966
 2866SOL    HW1 9134   1.236   3.500  11.899
 2866SOL    HW2 9135   1.290   3.448  12.030
 2867SOL     OW 9136   0.467   3.013  11.906
 2867SOL    HW1 9137   0.396   2.989  11.965
 2867SOL    HW2 9138   0.431   2.998  11.818
 2868SOL     OW 9139   1.265   3.655  11.780
 2868SOL    HW1 9140   1.313   3.720  11.729
 2868SOL    HW2 9141   1.192   3.705  11.818
 2869SOL     OW 9142   1.023   2.400  11.197
 2869SOL    HW1 9143   0.980   2.483  11.178
 2869SOL    HW2 9144   1.089   2.421  11.263
 2870SOL     OW 9145   0.083   2.435  12.562
 2870SOL    HW1 9146   0.173   2.422  12.531
 2870SOL    HW2 9147   0.090   2.504  12.627
 2871SOL     OW 9148   0.567   2.089  12.339
 2871SOL    HW1 9149   0.608   2.015  12.382
 2871SOL    HW2 9150   0.475   2.085  12.367
 2872SOL     OW 9151   0.867   2.320  11.811
 2872SOL    HW1 9152   0.820   2.374  11.748
 2872SOL    HW2 9153   0.888   2.240  11.763
 2873SOL     OW 9154   1.017   1.916  11.921
 2873SOL    HW1 9155   0.958   1.910  11.846
 2873SOL    HW2 9156   0.993   1.841  11.976
 2874SOL     OW 9157   1.438   3.023  12.029
 2874SOL    HW1 9158   1.368   2.959  12.029
 2874SOL    HW2 9159   1.462   3.032  11.936
 2875SOL     OW 9160   1.465   2.469  12.143
 2875SOL    HW1 9161   1.410   2.392  12.147
 2875SOL    HW2 9162   1.523   2.462  12.219
 2876SOL     OW 9163   1.842   2.676  11.557
 2876SOL    HW1 9164   1.902   2.628  11.614
 2876SOL    HW2 9165   1.817   2.612  11.489
 2877SOL     OW 9166   0.488   3.282  11.330
 2877SOL    HW1 9167   0.412   3.253  11.380
 2877SOL    HW2 9168   0.471   3.251  11.241
 2878SOL     OW 9169   1.674   3.126  11.815
 2878SOL    HW1 9170   1.769   3.127  11.829
 2878SOL    HW2 9171   1.645   3.214  11.837
 2879SOL     OW 9172   1.393   2.436  11.241
 2879SOL    HW1 9173   1.334   2.414  11.313
 2879SOL    HW2 9174   1.479   2.406  11.271
 2880SOL     OW 9175   0.575   2.130  11.489
 2880SOL    HW1 9176   0.607   2.083  11.411
 2880SOL    HW2 9177   0.542   2.213  11.455
 2881SOL     OW 9178   1.750   3.104  12.739
 2881SOL    HW1 9179   1.837   3.064  12.735
 2881SOL    HW2 9180   1.766   3.194  12.767
 2882SOL     OW 9181   1.056   3.214  12.503
 2882SOL    HW1 9182   0.981   3.184  12.555
 2882SOL    HW2 9183   1.131   3.173  12.546
 2883SOL     OW 9184   1.610   3.489  12.829
 2883SOL    HW1 9185   1.601   3.522  12.739
 2883SOL    HW2 9186   1.692   3.440  12.828
 2884SOL     OW 9187   1.133   3.069  12.275
 2884SOL    HW1 9188   1.074   3.106  12.340
 2884SOL    HW2 9189   1.102   3.103  12.191
 2885SOL     OW 9190   1.625   2.959  12.248
 2885SOL    HW1 9191   1.620   3.021  12.320
 2885SOL    HW2 9192   1.548   2.977  12.195
 2886SOL     OW 9193   0.918   1.957  12.565
 2886SOL    HW1 9194   0.941   1.938  12.474
 2886SOL    HW2 9195   0.997   1.996  12.602
 2887SOL     OW 9196   0.984   2.977  12.894
 2887SOL    HW1 9197   0.893   2.994  12.918
 2887SOL    HW2 9198   0.981   2.898  12.840
 2888SOL     OW 9199   0.708   2.923  11.543
 2888SOL    HW1 9200   0.694   2.905  11.636
 2888SOL    HW2 9201   0.784   2.870  11.519
 2889SOL     OW 9202   0.422   2.679  12.425
 2889SOL    HW1 9203   0.490   2.688  12.491
 2889SOL    HW2 9204   0.389   2.590  12.436
 2890SOL     OW 9205   1.264   2.237  12.451
 2890SOL    HW1 9206   1.297   2.315  12.496
 2890SOL    HW2 9207   1.173   2.258  12.429
 2891SOL     OW 9208   0.065   3.442  12.517
 2891SOL    HW1 9209   0.071   3.491  12.435
 2891SOL    HW2 9210   0.156   3.431  12.545
 2892SOL     OW 9211   0.368   2.964  11.654
 2892SOL    HW1 9212   0.364   3.045  11.603
 2892SOL    HW2 9213   0.368   2.895  11.588
 2893SOL     OW 9214   0.548   2.397  12.033
 2893SOL    HW1 9215   0.563   2.454  11.958
 2893SOL    HW2 9216   0.616   2.423  12.096
 2894SOL     OW 9217   1.247   3.211  11.562
 2894SOL    HW1 9218   1.303   3.282  11.593
 2894SOL    HW2 9219   1.160   3.233  11.595
 2895SOL     OW 9220   1.286   3.322  12.320
 2895SOL    HW1 9221   1.342   3.326  12.398
 2895SOL    HW2 9222   1.230   3.245  12.335
 2896SOL     OW 9223   1.575   2.489  11.645
 2896SOL    HW1 9224   1.529   2.534  11.716
 2896SOL    HW2 9225   1.624   2.558  11.601
 2897SOL     OW 9226   0.345   3.390  12.489
 2897SOL    HW1 9227   0.335   3.340  12.408
 2897SOL    HW2 9228   0.439   3.404  12.497
 2898SOL     OW 9229   0.417   2.600  12.773
 2898SOL    HW1 9230   0.480   2.645  12.717
 2898SOL    HW2 9231   0.457   2.515  12.791
 2899SOL     OW 9232   1.605   2.642  12.856
 2899SOL    HW1 9233   1.519   2.685  12.850
 2899SOL    HW2 9234   1.657   2.685  12.788
 2900SOL     OW 9235   0.996   1.992  12.925
 2900SOL    HW1 9236   1.055   2.064  12.902
 2900SOL    HW2 9237   1.044   1.913  12.900
 2901SOL     OW 9238   0.497   1.896  12.919
 2901SOL    HW1 9239   0.452   1.845  12.852
 2901SOL    HW2 9240   0.443   1.975  12.928
 2902SOL     OW 9241   0.585   2.736  12.204
 2902SOL    HW1 9242   0.619   2.826  12.205
 2902SOL    HW2 9243   0.530   2.730  12.282
 2903SOL     OW 9244   1.352   2.720  12.196
 2903SOL    HW1 9245   1.267   2.707  12.155
 2903SOL    HW2 9246   1.396   2.636  12.188
 2904SOL     OW 9247   1.202   2.390  11.436
 2904SOL    HW1 9248   1.210   2.312  11.491
 2904SOL    HW2 9249   1.159   2.455  11.492
 2905SOL     OW 9250   0.310   2.058  12.419
 2905SOL    HW1 9251   0.263   2.094  12.494
 2905SOL    HW2 9252   0.287   1.965  12.419
 2906SOL     OW 9253   0.061   3.167  12.452
 2906SOL    HW1 9254   0.091   3.126  12.533
 2906SOL    HW2 9255   0.053   3.260  12.475
 2907SOL     OW 9256   0.723   2.492  12.227
 2907SOL    HW1 9257   0.799   2.478  12.171
 2907SOL    HW2 9258   0.695   2.582  12.207
 2908SOL     OW 9259   1.737   2.821  13.028
 2908SOL    HW1 9260   1.693   2.755  12.974
 2908SOL    HW2 9261   1.677   2.837  13.100
 2909SOL     OW 9262   0.315   1.924  11.792
 2909SOL    HW1 9263   0.293   2.014  11.813
 2909SOL    HW2 9264   0.322   1.880  11.877
 2910SOL     OW 9265   1.613   2.243  11.542
 2910SOL    HW1 9266   1.611   2.186  11.619
 2910SOL    HW2 9267   1.591   2.329  11.576
 2911SOL     OW 9268   1.029   2.620  12.131
 2911SOL    HW1 9269   1.022   2.638  12.225
 2911SOL    HW2 9270   1.002   2.529  12.121
 2912SOL     OW 9271   0.986   3.430  12.893
 2912SOL    HW1 9272   0.967   3.471  12.809
 2912SOL    HW2 9273   1.027   3.347  12.871
 2913SOL     OW 9274   1.853   3.364  12.776
 2913SOL    HW1 9275   1.873   3.392  12.687
 2913SOL    HW2 9276   1.933   3.381  12.825
 2914SOL     OW 9277   0.353   2.784  12.972
 2914SOL    HW1 9278   0.432   2.805  13.023
 2914SOL    HW2 9279   0.382   2.716  12.910
 2915SOL     OW 9280   1.525   2.135  11.301
 2915SOL    HW1 9281   1.460   2.070  11.328
 2915SOL    HW2 9282   1.559   2.171  11.383
 2916SOL     OW 9283   1.288   2.688  11.201
 2916SOL    HW1 9284   1.331   2.602  11.205
 2916SOL    HW2 9285   1.321   2.727  11.120
 2917SOL     OW 9286   1.068   3.199  12.027
 2917SOL    HW1 9287   1.072   3.127  11.965
 2917SOL    HW2 9288   1.127   3.266  11.992
 2918SOL     OW 9289   0.313   2.663  12.122
 2918SOL    HW1 9290   0.407   2.681  12.116
 2918SOL    HW2 9291   0.308   2.573  12.153
 2919SOL     OW 9292   0.329   2.383  12.187
 2919SOL    HW1 9293   0.295   2.295  12.170
 2919SOL    HW2 9294   0.405   2.390  12.129
 2920SOL     OW 9295   1.134   2.235  12.857
 2920SOL    HW1 9296   1.087   2.290  12.919
 2920SOL    HW2 9297   1.222   2.274  12.853
 2921SOL     OW 9298   1.160   2.062  12.643
 2921SOL    HW1 9299   1.149   2.124  12.715
 2921SOL    HW2 9300   1.202   2.112  12.573
 2922SOL     OW 9301   4.000   3.179  11.354
 2922SOL    HW1 9302   3.906   3.195  11.358
 2922SOL    HW2 9303   0.009   3.085  11.372
 2923SOL     OW 9304   0.076   3.663  12.067
 2923SOL    HW1 9305   0.092   3.568  12.064
 2923SOL    HW2 9306   0.163   3.702  12.066
 2924SOL     OW 9307   0.506   3.425  12.090
 2924SOL    HW1 9308   0.572   3.492  12.109
 2924SOL    HW2 9309   0.549   3.367  12.026
 2925SOL     OW 9310   0.977   2.651  12.397
 2925SOL    HW1 9311   1.036   2.631  12.469
 2925SOL    HW2 9312   0.893   2.613  12.422
 2926SOL     OW 9313   0.038   2.421  12.281
 2926SOL    HW1 9314   0.120   2.398  12.239
 2926SOL    HW2 9315   0.057   2.418  12.375
 2927SOL     OW 9316   0.207   2.374  12.900
 2927SOL    HW1 9317   0.245   2.325  12.827
 2927SOL    HW2 9318   0.161   2.447  12.859
 2928SOL     OW 9319   1.379   2.798  12.829
 2928SOL    HW1 9320   1.401   2.891  12.826
 2928SOL    HW2 9321   1.376   2.771  12.737
 2929SOL     OW 9322   0.819   2.431  11.535
 2929SOL    HW1 9323   0.823   2.356  11.476
 2929SOL    HW2 9324   0.745   2.482  11.503
 2930SOL     OW 9325   1.643   2.464  12.352
 2930SOL    HW1 9326   1.632   2.408  12.429
 2930SOL    HW2 9327   1.730   2.440  12.318
 2931SOL     OW 9328   0.300   3.407  12.897
 2931SOL    HW1 9329   0.251   3.476  12.943
 2931SOL    HW2 9330   0.270   3.326  12.938
 2932SOL     OW 9331   0.709   2.310  12.428
 2932SOL    HW1 9332   0.655   2.237  12.400
 2932SOL    HW2 9333   0.702   2.374  12.357
 2933SOL     OW 9334   0.927   3.533  12.642
 2933SOL    HW1 9335   0.900   3.494  12.558
 2933SOL    HW2 9336   0.919   3.627  12.628
 2934SOL     OW 9337   0.453   2.351  11.368
 2934SOL    HW1 9338   0.519   2.418  11.386
 2934SOL    HW2 9339   0.374   2.400  11.345
 2935SOL     OW 9340   0.155   2.997  12.648
 2935SOL    HW1 9341   0.155   2.946  12.729
 2935SOL    HW2 9342   0.170   2.932  12.579
 2936SOL     OW 9343   1.323   2.906  12.392
 2936SOL    HW1 9344   1.345   2.843  12.324
 2936SOL    HW2 9345   1.255   2.961  12.353
 2937SOL     OW 9346   1.314   2.720  11.477
 2937SOL    HW1 9347   1.240   2.687  11.528
 2937SOL    HW2 9348   1.288   2.705  11.385
 2938SOL     OW 9349   1.773   3.601  12.323
 2938SOL    HW1 9350   1.835   3.629  12.256
 2938SOL    HW2 9351   1.751   3.511  12.300
 2939SOL     OW 9352   1.244   3.594  12.279
 2939SOL    HW1 9353   1.327   3.616  12.237
 2939SOL    HW2 9354   1.251   3.501  12.300
 2940SOL     OW 9355   0.077   3.076  12.200
 2940SOL    HW1 9356   0.084   3.103  12.291
 2940SOL    HW2 9357   3.984   3.088  12.178
 2941SOL     OW 9358   0.680   3.527  12.907
 2941SOL    HW1 9359   0.621   3.603  12.910
 2941SOL    HW2 9360   0.740   3.547  12.836
 2942SOL     OW 9361   1.391   3.431  11.660
 2942SOL    HW1 9362   1.450   3.465  11.593
 2942SOL    HW2 9363   1.342   3.507  11.690
 2943SOL     OW 9364   0.170   3.623  13.005
 2943SOL    HW1 9365   0.116   3.569  13.063
 2943SOL    HW2 9366   0.216   3.682  13.065
 2944SOL     OW 9367   1.278   2.789  11.843
 2944SOL    HW1 9368   1.352   2.728  11.852
 2944SOL    HW2 9369   1.312   2.861  11.790
 2945SOL     OW 9370   0.808   3.137  12.599
 2945SOL    HW1 9371   0.780   3.177  12.681
 2945SOL    HW2 9372   0.737   3.154  12.537
 2946SOL     OW 9373   0.674   3.480  11.330
 2946SOL    HW1 9374   0.683   3.497  11.237
 2946SOL    HW2 9375   0.615   3.405  11.335
 2947SOL     OW 9376   1.621   3.588  12.562
 2947SOL    HW1 9377   1.673   3.593  12.482
 2947SOL    HW2 9378   1.607   3.680  12.587
 2948SOL     OW 9379   0.265   2.174  11.888
 2948SOL    HW1 9380   0.179   2.206  11.862
 2948SOL    HW2 9381   0.260   2.165  11.983
 2949SOL     OW 9382   1.208   3.465  11.208
 2949SOL    HW1 9383   1.197   3.373  11.232
 2949SOL    HW2 9384   1.147   3.478  11.136
 2950SOL     OW 9385   0.823   2.868  12.546
 2950SOL    HW1 9386   0.868   2.862  12.462
 2950SOL    HW2 9387   0.821   2.961  12.566
 2951SOL     OW 9388   0.916   2.772  11.463
 2951SOL    HW1 9389   0.976   2.805  11.396
 2951SOL    HW2 9390   0.965   2.704  11.509
 2952SOL     OW 9391   1.489   3.492  11.215
 2952SOL    HW1 9392   1.395   3.480  11.199
 2952SOL    HW2 9393   1.528   3.497  11.128
 2953SOL     OW 9394   0.374   3.165  12.663
 2953SOL    HW1 9395   0.359   3.245  12.613
 2953SOL    HW2 9396   0.297   3.111  12.646
 2954SOL     OW 9397   1.609   3.146  12.452
 2954SOL    HW1 9398   1.669   3.131  12.525
 2954SOL    HW2 9399   1.549   3.213  12.483
 2955SOL     OW 9400   1.058   2.971  11.881
 2955SOL    HW1 9401   0.986   2.920  11.918
 2955SOL    HW2 9402   1.121   2.905  11.853
 2956SOL     OW 9403   1.023   2.103  12.139
 2956SOL    HW1 9404   1.020   2.056  12.055
 2956SOL    HW2 9405   1.018   2.034  12.205
 2957SOL     OW 9406   0.606   3.352  11.652
 2957SOL    HW1 9407   0.653   3.302  11.585
 2957SOL    HW2 9408   0.533   3.393  11.606
 2958SOL     OW 9409   1.730   2.248  12.544
 2958SOL    HW1 9410   1.800   2.312  12.553
 2958SOL    HW2 9411   1.766   2.181  12.486
 2959SOL     OW 9412   0.254   3.202  11.464
 2959SOL    HW1 9413   0.160   3.210  11.446
 2959SOL    HW2 9414   0.264   3.241  11.551
 2960SOL     OW 9415   0.108   2.859  12.889
 2960SOL    HW1 9416   0.048   2.854  12.964
 2960SOL    HW2 9417   0.194   2.841  12.927
 2961SOL     OW 9418   0.676   2.058  12.672
 2961SOL    HW1 9419   0.760   2.037  12.631
 2961SOL    HW2 9420   0.699   2.090  12.759
 2962SOL     OW 9421   0.081   2.175  11.210
 2962SOL    HW1 9422   3.985   2.175  11.217
 2962SOL    HW2 9423   0.101   2.256  11.163
 2963SOL     OW 9424   1.427   2.720  12.570
 2963SOL    HW1 9425   1.378   2.781  12.515
 2963SOL    HW2 9426   1.516   2.723  12.536
 2964SOL     OW 9427   0.017   2.101  11.549
 2964SOL    HW1 9428   0.045   2.164  11.483
 2964SOL    HW2 9429   0.098   2.060  11.579
 2965SOL     OW 9430   1.178   3.198  11.289
 2965SOL    HW1 9431   1.086   3.170  11.290
 2965SOL    HW2 9432   1.204   3.198  11.381
 2966SOL     OW 9433   0.620   2.692  12.609
 2966SOL    HW1 9434   0.676   2.768  12.593
 2966SOL    HW2 9435   0.680   2.619  12.616
 2967SOL     OW 9436   1.486   3.642  12.154
 2967SOL    HW1 9437   1.509   3.702  12.083
 2967SOL    HW2 9438   1.570   3.619  12.193
 2968SOL     OW 9439   0.716   2.424  12.875
 2968SOL    HW1 9440   0.761   2.485  12.934
 2968SOL    HW2 9441   0.740   2.337  12.908
 2969SOL     OW 9442   1.473   3.059  12.802
 2969SOL    HW1 9443   1.461   3.073  12.896
 2969SOL    HW2 9444   1.566   3.076  12.787
 2970SOL     OW 9445   0.378   3.608  12.731
 2970SOL    HW1 9446   0.290   3.644  12.719
 2970SOL    HW2 9447   0.363   3.525  12.777
 2971SOL     OW 9448   1.667   2.742  12.426
 2971SOL    HW1 9449   1.661   2.657  12.383
 2971SOL    HW2 9450   1.656   2.806  12.355
 2972SOL     OW 9451   1.216   2.182  11.630
 2972SOL    HW1 9452   1.278   2.110  11.623
 2972SOL    HW2 9453   1.245   2.231  11.707
 2973SOL     OW 9454   0.588   2.599  11.845
 2973SOL    HW1 9455   0.627   2.685  11.830
 2973SOL    HW2 9456   0.523   2.590  11.776
 2974SOL     OW 9457   1.755   2.243  12.820
 2974SOL    HW1 9458   1.740   2.244  12.726
 2974SOL    HW2 9459   1.695   2.176  12.853
 2975SOL     OW 9460   1.745   2.797  12.683
 2975SOL    HW1 9461   1.738   2.892  12.696
 2975SOL    HW2 9462   1.729   2.784  12.589
 2976SOL     OW 9463   0.865   3.228  11.213
 2976SOL    HW1 9464   0.823   3.257  11.294
 2976SOL    HW2 9465   0.879   3.309  11.163
 2977SOL     OW 9466   0.658   3.650  12.105
 2977SOL    HW1 9467   0.638   3.741  12.087
 2977SOL    HW2 9468   0.754   3.646  12.104
 2978SOL     OW 9469   0.869   2.831  12.025
 2978SOL    HW1 9470   0.919   2.759  12.064
 2978SOL    HW2 9471   0.832   2.877  12.100
 2979SOL     OW 9472   1.077   2.850  11.260
 2979SOL    HW1 9473   1.056   2.902  11.183
 2979SOL    HW2 9474   1.152   2.796  11.234
 2980SOL     OW 9475   1.850   3.412  12.013
 2980SOL    HW1 9476   1.769   3.402  11.963
 2980SOL    HW2 9477   1.840   3.350  12.086
 2981SOL     OW 9478   0.228   3.166  13.028
 2981SOL    HW1 9479   0.152   3.114  13.002
 2981SOL    HW2 9480   0.216   3.179  13.123
 2982SOL     OW 9481   0.117   3.142  11.895
 2982SOL    HW1 9482   0.136   3.091  11.974
 2982SOL    HW2 9483   0.104   3.076  11.827
 2983SOL     OW 9484   0.683   3.267  12.802
 2983SOL    HW1 9485   0.603   3.225  12.833
 2983SOL    HW2 9486   0.680   3.355  12.840
 2984SOL     OW 9487   0.441   2.296  11.706
 2984SOL    HW1 9488   0.441   2.226  11.641
 2984SOL    HW2 9489   0.385   2.262  11.777
 2985SOL     OW 9490   1.700   3.347  12.262
 2985SOL    HW1 9491   1.618   3.326  12.216
 2985SOL    HW2 9492   1.707   3.279  12.330
 2986SOL     OW 9493   0.335   2.420  12.464
 2986SOL    HW1 9494   0.389   2.363  12.519
 2986SOL    HW2 9495   0.350   2.388  12.375
 2987SOL     OW 9496   0.829   3.441  11.848
 2987SOL    HW1 9497   0.811   3.496  11.772
 2987SOL    HW2 9498   0.755   3.380  11.852
 2988SOL     OW 9499   1.436   2.092  12.292
 2988SOL    HW1 9500   1.445   2.004  12.328
 2988SOL    HW2 9501   1.382   2.139  12.355
 2989SOL     OW 9502   1.010   1.878  12.310
 2989SOL    HW1 9503   0.956   1.811  12.268
 2989SOL    HW2 9504   1.098   1.841  12.312
 2990SOL     OW 9505   0.773   3.194  11.492
 2990SOL    HW1 9506   0.744   3.103  11.498
 2990SOL    HW2 9507   0.855   3.196  11.540
 2991SOL     OW 9508   0.621   3.415  12.458
 2991SOL    HW1 9509   0.621   3.497  12.508
 2991SOL    HW2 9510   0.709   3.410  12.420
 2992SOL     OW 9511   1.351   1.914  11.340
 2992SOL    HW1 9512   1.383   1.849  11.277
 2992SOL    HW2 9513   1.263   1.884  11.362
 2993SOL     OW 9514   1.300   2.325  11.852
 2993SOL    HW1 9515   1.246   2.404  11.856
 2993SOL    HW2 9516   1.292   2.286  11.940
 2994SOL     OW 9517   1.566   2.050  12.045
 2994SOL    HW1 9518   1.532   2.079  12.130
 2994SOL    HW2 9519   1.586   2.132  11.998
 2995SOL     OW 9520   0.047   2.910  11.412
 2995SOL    HW1 9521   0.142   2.895  11.404
 2995SOL    HW2 9522   0.012   2.826  11.440
 2996SOL     OW 9523   0.887   3.522  11.514
 2996SOL    HW1 9524   0.815   3.503  11.454
 2996SOL    HW2 9525   0.855   3.596  11.565
 2997SOL     OW 9526   0.229   2.488  13.153
 2997SOL    HW1 9527   0.136   2.495  13.173
 2997SOL    HW2 9528   0.232   2.455  13.063
 2998SOL     OW 9529   0.285   2.133   0.131
 2998SOL    HW1 9530   0.331   2.203   0.177
 2998SOL    HW2 9531   0.202   2.171   0.104
 2999SOL     OW 9532   0.003   2.220  13.662
 2999SOL    HW1 9533   3.910   2.241  13.663
 2999SOL    HW2 9534   0.020   2.192  13.572
 3000SOL     OW 9535   1.521   3.358  13.729
 3000SOL    HW1 9536   1.468   3.286  13.764
 3000SOL    HW2 9537   1.477   3.381  13.647
 3001SOL     OW 9538   1.130   2.560  13.727
 3001SOL    HW1 9539   1.182   2.638  13.709
 3001SOL    HW2 9540   1.083   2.580  13.808
 3002SOL     OW 9541   1.787   2.461  13.256
 3002SOL    HW1 9542   1.756   2.458  13.166
 3002SOL    HW2 9543   1.740   2.390  13.301
 3003SOL     OW 9544   0.687   2.871  13.670
 3003SOL    HW1 9545   0.740   2.852  13.748
 3003SOL    HW2 9546   0.614   2.924  13.703
 3004SOL     OW 9547   1.620   2.308  13.735
 3004SOL    HW1 9548   1.527   2.322  13.716
 3004SOL    HW2 9549   1.632   2.343  13.823
 3005SOL     OW 9550   0.222   3.570  13.501
 3005SOL    HW1 9551   0.241   3.630  13.573
 3005SOL    HW2 9552   0.299   3.576  13.444
 3006SOL     OW 9553   0.249   3.302  13.571
 3006SOL    HW1 9554   0.223   3.394  13.560
 3006SOL    HW2 9555   0.185   3.266  13.632
 3007SOL     OW 9556   0.257   2.936   0.017
 3007SOL    HW1 9557   0.275   2.898   0.103
 3007SOL    HW2 9558   0.217   3.020   0.036
 3008SOL     OW 9559   0.575   2.848  13.171
 3008SOL    HW1 9560   0.624   2.893  13.102
 3008SOL    HW2 9561   0.616   2.879  13.252
 3009SOL     OW 9562   0.142   2.512  13.614
 3009SOL    HW1 9563   0.067   2.458  13.592
 3009SOL    HW2 9564   0.107   2.578  13.674
 3010SOL     OW 9565   1.846   3.608  13.372
 3010SOL    HW1 9566   1.914   3.586  13.436
 3010SOL    HW2 9567   1.863   3.699  13.349
 3011SOL     OW 9568   0.041   3.453  13.174
 3011SOL    HW1 9569   0.035   3.361  13.200
 3011SOL    HW2 9570   3.961   3.493  13.208
 3012SOL     OW 9571   1.687   2.779  13.670
 3012SOL    HW1 9572   1.772   2.741  13.646
 3012SOL    HW2 9573   1.664   2.833  13.595
 3013SOL     OW 9574   1.649   2.966  13.460
 3013SOL    HW1 9575   1.735   2.967  13.417
 3013SOL    HW2 9576   1.655   3.031  13.530
 3014SOL     OW 9577   0.616   3.247  13.759
 3014SOL    HW1 9578   0.564   3.169  13.778
 3014SOL    HW2 9579   0.584   3.277  13.674
 3015SOL     OW 9580   0.820   1.862  13.545
 3015SOL    HW1 9581   0.859   1.947  13.523
 3015SOL    HW2 9582   0.726   1.880  13.552
 3016SOL     OW 9583   1.530   2.858  13.234
 3016SOL    HW1 9584   1.461   2.801  13.266
 3016SOL    HW2 9585   1.572   2.893  13.312
 3017SOL     OW 9586   1.653   3.600  13.612
 3017SOL    HW1 9587   1.635   3.569  13.523
 3017SOL    HW2 9588   1.644   3.521  13.667
 3018SOL     OW 9589   0.594   2.578  13.298
 3018SOL    HW1 9590   0.600   2.662  13.254
 3018SOL    HW2 9591   0.531   2.592  13.369
 3019SOL     OW 9592   1.249   2.190   0.039
 3019SOL    HW1 9593   1.187   2.132   0.083
 3019SOL    HW2 9594   1.333   2.172   0.081
 3020SOL     OW 9595   1.578   3.542  13.340
 3020SOL    HW1 9596   1.671   3.561  13.335
 3020SOL    HW2 9597   1.553   3.521  13.250
 3021SOL     OW 9598   1.050   2.559  13.458
 3021SOL    HW1 9599   1.067   2.548  13.551
 3021SOL    HW2 9600   0.968   2.512  13.442
 3022SOL     OW 9601   0.082   2.706  13.805
 3022SOL    HW1 9602   0.162   2.689  13.856
 3022SOL    HW2 9603   0.075   2.801  13.802
 3023SOL     OW 9604   0.896   2.211  13.226
 3023SOL    HW1 9605   0.936   2.275  13.166
 3023SOL    HW2 9606   0.916   2.126  13.187
 3024SOL     OW 9607   1.365   2.997  13.551
 3024SOL    HW1 9608   1.454   2.996  13.517
 3024SOL    HW2 9609   1.321   3.068  13.503
 3025SOL     OW 9610   0.998   3.303  13.501
 3025SOL    HW1 9611   0.967   3.380  13.454
 3025SOL    HW2 9612   0.967   3.315  13.591
 3026SOL     OW 9613   0.417   3.679  13.803
 3026SOL    HW1 9614   0.419   3.587  13.827
 3026SOL    HW2 9615   0.466   3.723  13.873
 3027SOL     OW 9616   1.790   2.911  13.898
 3027SOL    HW1 9617   1.736   2.897  13.821
 3027SOL    HW2 9618   1.729   2.906   0.072
 3028SOL     OW 9619   0.311   2.816  13.277
 3028SOL    HW1 9620   0.393   2.839  13.234
 3028SOL    HW2 9621   0.298   2.723  13.256
 3029SOL     OW 9622   1.490   2.595  13.743
 3029SOL    HW1 9623   1.487   2.548  13.826
 3029SOL    HW2 9624   1.565   2.654  13.751
 3030SOL     OW 9625   1.113   3.644  13.254
 3030SOL    HW1 9626   1.049   3.599  13.309
 3030SOL    HW2 9627   1.144   3.577  13.193
 3031SOL     OW 9628   1.628   3.243  13.124
 3031SOL    HW1 9629   1.587   3.328  13.107
 3031SOL    HW2 9630   1.559   3.179  13.104
 3032SOL     OW 9631   0.466   3.601  13.353
 3032SOL    HW1 9632   0.504   3.661  13.417
 3032SOL    HW2 9633   0.540   3.572  13.299
 3033SOL     OW 9634   1.403   1.973  13.464
 3033SOL    HW1 9635   1.384   1.950  13.373
 3033SOL    HW2 9636   1.492   1.941  13.479
 3034SOL     OW 9637   0.928   3.546   0.010
 3034SOL    HW1 9638   0.944   3.477   0.074
 3034SOL    HW2 9639   0.887   3.501  13.836
 3035SOL     OW 9640   0.396   2.557  13.503
 3035SOL    HW1 9641   0.424   2.467  13.515
 3035SOL    HW2 9642   0.305   2.559  13.533
 3036SOL     OW 9643   0.645   1.979  13.130
 3036SOL    HW1 9644   0.704   1.908  13.151
 3036SOL    HW2 9645   0.594   1.948  13.055
 3037SOL     OW 9646   0.555   1.924  13.529
 3037SOL    HW1 9647   0.472   1.928  13.575
 3037SOL    HW2 9648   0.559   2.006  13.480
 3038SOL     OW 9649   1.428   3.061  13.074
 3038SOL    HW1 9650   1.458   2.986  13.125
 3038SOL    HW2 9651   1.342   3.083  13.111
 3039SOL     OW 9652   0.309   1.911  13.202
 3039SOL    HW1 9653   0.373   1.950  13.142
 3039SOL    HW2 9654   0.359   1.848  13.252
 3040SOL     OW 9655   0.941   2.107  13.492
 3040SOL    HW1 9656   0.911   2.149  13.412
 3040SOL    HW2 9657   1.035   2.125  13.496
 3041SOL     OW 9658   0.470   3.006  13.765
 3041SOL    HW1 9659   0.398   2.983  13.824
 3041SOL    HW2 9660   0.432   2.996  13.677
 3042SOL     OW 9661   1.267   3.659  13.629
 3042SOL    HW1 9662   1.312   3.726  13.579
 3042SOL    HW2 9663   1.198   3.706  13.677
 3043SOL     OW 9664   1.023   2.399  13.059
 3043SOL    HW1 9665   0.981   2.483  13.040
 3043SOL    HW2 9666   1.089   2.420  13.125
 3044SOL     OW 9667   0.895   2.331  13.674
 3044SOL    HW1 9668   0.829   2.379  13.625
 3044SOL    HW2 9669   0.902   2.247  13.629
 3045SOL     OW 9670   1.027   1.894  13.773
 3045SOL    HW1 9671   0.968   1.907  13.699
 3045SOL    HW2 9672   0.993   1.817  13.818
 3046SOL     OW 9673   1.842   2.677  13.413
 3046SOL    HW1 9674   1.900   2.629  13.473
 3046SOL    HW2 9675   1.819   2.613  13.346
 3047SOL     OW 9676   0.487   3.282  13.192
 3047SOL    HW1 9677   0.411   3.252  13.242
 3047SOL    HW2 9678   0.472   3.251  13.103
 3048SOL     OW 9679   1.685   3.135  13.660
 3048SOL    HW1 9680   1.777   3.133  13.685
 3048SOL    HW2 9681   1.651   3.215  13.701
 3049SOL     OW 9682   1.393   2.436  13.103
 3049SOL    HW1 9683   1.334   2.414  13.175
 3049SOL    HW2 9684   1.479   2.408  13.134
 3050SOL     OW 9685   0.572   2.130  13.350
 3050SOL    HW1 9686   0.606   2.082  13.274
 3050SOL    HW2 9687   0.544   2.214  13.314
 3051SOL     OW 9688   0.708   2.924  13.399
 3051SOL    HW1 9689   0.695   2.909  13.493
 3051SOL    HW2 9690   0.784   2.871  13.377
 3052SOL     OW 9691   0.369   2.965  13.514
 3052SOL    HW1 9692   0.366   3.047  13.465
 3052SOL    HW2 9693   0.368   2.897  13.447
 3053SOL     OW 9694   0.568   2.406  13.870
 3053SOL    HW1 9695   0.577   2.469  13.799
 3053SOL    HW2 9696   0.633   2.433   0.035
 3054SOL     OW 9697   1.245   3.215  13.417
 3054SOL    HW1 9698   1.300   3.288  13.446
 3054SOL    HW2 9699   1.158   3.234  13.454
 3055SOL     OW 9700   1.575   2.495  13.489
 3055SOL    HW1 9701   1.536   2.526  13.571
 3055SOL    HW2 9702   1.623   2.571  13.456
 3056SOL     OW 9703   1.201   2.389  13.297
 3056SOL    HW1 9704   1.209   2.312  13.352
 3056SOL    HW2 9705   1.158   2.454  13.353
 3057SOL     OW 9706   0.304   1.921  13.640
 3057SOL    HW1 9707   0.292   2.012  13.668
 3057SOL    HW2 9708   0.324   1.874  13.722
 3058SOL     OW 9709   1.614   2.242  13.409
 3058SOL    HW1 9710   1.601   2.190  13.489
 3058SOL    HW2 9711   1.593   2.331  13.436
 3059SOL     OW 9712   1.527   2.134  13.164
 3059SOL    HW1 9713   1.461   2.070  13.191
 3059SOL    HW2 9714   1.561   2.170  13.247
 3060SOL     OW 9715   1.287   2.687  13.061
 3060SOL    HW1 9716   1.330   2.602  13.066
 3060SOL    HW2 9717   1.320   2.726  12.981
 3061SOL     OW 9718   4.000   3.179  13.214
 3061SOL    HW1 9719   3.905   3.195  13.219
 3061SOL    HW2 9720   0.009   3.086  13.232
 3062SOL     OW 9721   0.818   2.433  13.389
 3062SOL    HW1 9722   0.821   2.356  13.333
 3062SOL    HW2 9723   0.742   2.482  13.358
 3063SOL     OW 9724   0.453   2.350  13.228
 3063SOL    HW1 9725   0.518   2.418  13.246
 3063SOL    HW2 9726   0.373   2.399  13.207
 3064SOL     OW 9727   1.315   2.717  13.336
 3064SOL    HW1 9728   1.240   2.688  13.389
 3064SOL    HW2 9729   1.287   2.703  13.246
 3065SOL     OW 9730   1.383   3.437  13.507
 3065SOL    HW1 9731   1.443   3.475  13.443
 3065SOL    HW2 9732   1.337   3.512  13.545
 3066SOL     OW 9733   1.289   2.776  13.685
 3066SOL    HW1 9734   1.365   2.719  13.673
 3066SOL    HW2 9735   1.313   2.858  13.642
 3067SOL     OW 9736   0.674   3.480  13.192
 3067SOL    HW1 9737   0.683   3.497  13.098
 3067SOL    HW2 9738   0.615   3.405  13.197
 3068SOL     OW 9739   0.283   2.172  13.737
 3068SOL    HW1 9740   0.200   2.217  13.722
 3068SOL    HW2 9741   0.293   2.170  13.832
 3069SOL     OW 9742   1.208   3.465  13.070
 3069SOL    HW1 9743   1.197   3.373  13.094
 3069SOL    HW2 9744   1.147   3.479  12.998
 3070SOL     OW 9745   0.918   2.774  13.329
 3070SOL    HW1 9746   0.977   2.805  13.260
 3070SOL    HW2 9747   0.965   2.702  13.370
 3071SOL     OW 9748   1.489   3.492  13.076
 3071SOL    HW1 9749   1.395   3.480  13.060
 3071SOL    HW2 9750   1.528   3.497  12.989
 3072SOL     OW 9751   1.050   2.953  13.755
 3072SOL    HW1 9752   0.964   2.914  13.738
 3072SOL    HW2 9753   1.107   2.914  13.689
 3073SOL     OW 9754   0.602   3.357  13.504
 3073SOL    HW1 9755   0.648   3.305  13.438
 3073SOL    HW2 9756   0.529   3.397  13.456
 3074SOL     OW 9757   0.253   3.202  13.324
 3074SOL    HW1 9758   0.159   3.209  13.305
 3074SOL    HW2 9759   0.263   3.240  13.411
 3075SOL     OW 9760   0.080   2.173  13.071
 3075SOL    HW1 9761   3.985   2.174  13.080
 3075SOL    HW2 9762   0.101   2.254  13.025
 3076SOL     OW 9763   0.019   2.106  13.412
 3076SOL    HW1 9764   0.048   2.165  13.342
 3076SOL    HW2 9765   0.097   2.057  13.436
 3077SOL     OW 9766   1.177   3.198  13.149
 3077SOL    HW1 9767   1.086   3.169  13.151
 3077SOL    HW2 9768   1.204   3.199  13.241
 3078SOL     OW 9769   1.215   2.181  13.490
 3078SOL    HW1 9770   1.279   2.110  13.482
 3078SOL    HW2 9771   1.245   2.231  13.566
 3079SOL     OW 9772   0.593   2.610  13.691
 3079SOL    HW1 9773   0.627   2.698  13.674
 3079SOL    HW2 9774   0.523   2.599  13.626
 3080SOL     OW 9775   0.865   3.228  13.073
 3080SOL    HW1 9776   0.824   3.255  13.156
 3080SOL    HW2 9777   0.879   3.310  13.026
 3081SOL     OW 9778   0.657   3.715   0.070
 3081SOL    HW1 9779   0.655   3.808   0.092
 3081SOL    HW2 9780   0.748   3.689   0.078
 3082SOL     OW 9781   0.825   2.827  13.898
 3082SOL    HW1 9782   0.853   2.743   0.034
 3082SOL    HW2 9783   0.860   2.892   0.059
 3083SOL     OW 9784   1.075   2.848  13.122
 3083SOL    HW1 9785   1.056   2.901  13.045
 3083SOL    HW2 9786   1.150   2.795  13.096
 3084SOL     OW 9787   0.115   3.138  13.761
 3084SOL    HW1 9788   0.050   3.098  13.819
 3084SOL    HW2 9789   0.120   3.079  13.686
 3085SOL     OW 9790   0.447   2.301  13.556
 3085SOL    HW1 9791   0.455   2.227  13.495
 3085SOL    HW2 9792   0.403   2.264  13.632
 3086SOL     OW 9793   1.680   3.318   0.349
 3086SOL    HW1 9794   1.649   3.297   0.260
 3086SOL    HW2 9795   1.770   3.285   0.351
 3087SOL     OW 9796   0.820   3.414  13.704
 3087SOL    HW1 9797   0.788   3.464  13.628
 3087SOL    HW2 9798   0.748   3.355  13.725
 3088SOL     OW 9799   0.773   3.195  13.349
 3088SOL    HW1 9800   0.744   3.104  13.357
 3088SOL    HW2 9801   0.854   3.199  13.400
 3089SOL     OW 9802   1.351   1.914  13.201
 3089SOL    HW1 9803   1.383   1.850  13.137
 3089SOL    HW2 9804   1.263   1.884  13.224
 3090SOL     OW 9805   1.304   2.323  13.709
 3090SOL    HW1 9806   1.252   2.403  13.714
 3090SOL    HW2 9807   1.285   2.276  13.790
 3091SOL     OW 9808   0.047   2.910  13.269
 3091SOL    HW1 9809   0.141   2.895  13.263
 3091SOL    HW2 9810   0.011   2.827  13.300
 3092SOL     OW 9811   0.887   3.522  13.376
 3092SOL    HW1 9812   0.815   3.504  13.316
 3092SOL    HW2 9813   0.857   3.595  13.430
 3093SOL     OW 9814   0.233   3.943   0.964
 3093SOL    HW1 9815   0.254   3.958   1.056
 3093SOL    HW2 9816   0.140   3.963   0.957
 3094SOL     OW 9817   0.016   0.100   0.631
 3094SOL    HW1 9818   3.927   0.083   0.662
 3094SOL    HW2 9819   0.022   0.054   0.548
 3095SOL     OW 9820   1.809   0.356   0.274
 3095SOL    HW1 9821   1.786   0.308   0.195
 3095SOL    HW2 9822   1.726   0.362   0.322
 3096SOL     OW 9823   0.440   0.097   1.509
 3096SOL    HW1 9824   0.511   0.058   1.458
 3096SOL    HW2 9825   0.363   0.045   1.486
 3097SOL     OW 9826   1.595   3.850   1.460
 3097SOL    HW1 9827   1.603   3.935   1.418
 3097SOL    HW2 9828   1.578   3.870   1.552
 3098SOL     OW 9829   0.807   3.727   0.509
 3098SOL    HW1 9830   0.835   3.818   0.499
 3098SOL    HW2 9831   0.712   3.732   0.517
 3099SOL     OW 9832   1.268   0.062   0.934
 3099SOL    HW1 9833   1.194   0.008   0.905
 3099SOL    HW2 9834   1.323   0.002   0.985
 3100SOL     OW 9835   0.555   3.904   0.891
 3100SOL    HW1 9836   0.552   3.926   0.984
 3100SOL    HW2 9837   0.549   3.989   0.847
 3101SOL     OW 9838   0.191   3.978   1.498
 3101SOL    HW1 9839   0.101   0.013   1.502
 3101SOL    HW2 9840   0.186   3.895   1.545
 3102SOL     OW 9841   1.410   3.837   0.432
 3102SOL    HW1 9842   1.405   3.795   0.346
 3102SOL    HW2 9843   1.502   3.829   0.458
 3103SOL     OW 9844   1.533   3.938   1.721
 3103SOL    HW1 9845   1.559   3.941   1.813
 3103SOL    HW2 9846   1.464   3.872   1.717
 3104SOL     OW 9847   0.772   3.954   1.742
 3104SOL    HW1 9848   0.828   3.927   1.815
 3104SOL    HW2 9849   0.686   3.970   1.783
 3105SOL     OW 9850   0.535   3.782   0.516
 3105SOL    HW1 9851   0.482   3.781   0.595
 3105SOL    HW2 9852   0.545   3.875   0.495
 3106SOL     OW 9853   0.265   3.735   0.181
 3106SOL    HW1 9854   0.298   3.825   0.171
 3106SOL    HW2 9855   0.336   3.688   0.224
 3107SOL     OW 9856   0.563   3.944   1.168
 3107SOL    HW1 9857   0.605   3.874   1.218
 3107SOL    HW2 9858   0.471   3.941   1.195
 3108SOL     OW 9859   1.021   3.767   0.732
 3108SOL    HW1 9860   0.955   3.755   0.664
 3108SOL    HW2 9861   0.997   3.703   0.799
 3109SOL     OW 9862   0.924   3.802   1.397
 3109SOL    HW1 9863   0.953   3.781   1.308
 3109SOL    HW2 9864   0.997   3.850   1.435
 3110SOL     OW 9865   1.267   0.073   1.266
 3110SOL    HW1 9866   1.278   0.142   1.331
 3110SOL    HW2 9867   1.199   0.107   1.207
 3111SOL     OW 9868   0.507   3.751   1.757
 3111SOL    HW1 9869   0.453   3.705   1.692
 3111SOL    HW2 9870   0.478   3.842   1.753
 3112SOL     OW 9871   0.303   3.924   1.255
 3112SOL    HW1 9872   0.256   3.941   1.337
 3112SOL    HW2 9873   0.289   3.831   1.238
 3113SOL     OW 9874   1.597   3.936   0.157
 3113SOL    HW1 9875   1.518   3.882   0.158
 3113SOL    HW2 9876   1.568   0.022   0.188
 3114SOL     OW 9877   1.163   3.921   1.473
 3114SOL    HW1 9878   1.167   3.996   1.533
 3114SOL    HW2 9879   1.206   3.951   1.393
 3115SOL     OW 9880   0.924   3.826   0.150
 3115SOL    HW1 9881   0.952   3.817   0.059
 3115SOL    HW2 9882   0.983   3.770   0.199
 3116SOL     OW 9883   1.706   3.857   0.511
 3116SOL    HW1 9884   1.785   3.847   0.458
 3116SOL    HW2 9885   1.696   3.773   0.556
 3117SOL     OW 9886   1.836   3.879   0.972
 3117SOL    HW1 9887   1.871   3.796   0.939
 3117SOL    HW2 9888   1.756   3.893   0.921
 3118SOL     OW 9889   0.678   3.909   1.488
 3118SOL    HW1 9890   0.761   3.899   1.442
 3118SOL    HW2 9891   0.703   3.931   1.578
 3119SOL     OW 9892   0.043   0.013   0.040
 3119SOL    HW1 9893   3.954   0.017   0.004
 3119SOL    HW2 9894   0.085   0.093   0.010
 3120SOL     OW 9895   0.123   3.933   0.376
 3120SOL    HW1 9896   0.072   3.975   0.307
 3120SOL    HW2 9897   0.166   3.859   0.333
 3121SOL     OW 9898   1.194   0.012   0.463
 3121SOL    HW1 9899   1.254   3.938   0.468
 3121SOL    HW2 9900   1.213   0.063   0.541
 3122SOL     OW 9901   1.786   0.040   1.639
 3122SOL    HW1 9902   1.758   0.075   1.554
 3122SOL    HW2 9903   1.707   0.001   1.676
 3123SOL     OW 9904   1.816   3.913   1.239
 3123SOL    HW1 9905   1.821   3.822   1.268
 3123SOL    HW2 9906   1.822   3.907   1.143
 3124SOL     OW 9907   1.439   3.932   1.116
 3124SOL    HW1 9908   1.471   3.853   1.160
 3124SOL    HW2 9909   1.381   3.973   1.180
 3125SOL     OW 9910   1.017   3.736   1.147
 3125SOL    HW1 9911   0.959   3.682   1.093
 3125SOL    HW2 9912   1.102   3.693   1.142
 3126SOL     OW 9913   1.353   3.783   0.151
 3126SOL    HW1 9914   1.393   3.711   0.102
 3126SOL    HW2 9915   1.270   3.748   0.182
 3127SOL     OW 9916   1.284   0.163   0.678
 3127SOL    HW1 9917   1.281   0.258   0.687
 3127SOL    HW2 9918   1.287   0.131   0.768
 3128SOL     OW 9919   1.580   3.926   0.880
 3128SOL    HW1 9920   1.530   3.931   0.962
 3128SOL    HW2 9921   1.581   0.016   0.847
 3129SOL     OW 9922   0.234   3.945   2.823
 3129SOL    HW1 9923   0.256   3.958   2.915
 3129SOL    HW2 9924   0.140   3.962   2.817
 3130SOL     OW 9925   0.009   0.106   2.485
 3130SOL    HW1 9926   3.925   0.088   2.526
 3130SOL    HW2 9927   0.013   0.046   2.410
 3131SOL     OW 9928   1.777   0.319   2.050
 3131SOL    HW1 9929   1.704   0.295   1.993
 3131SOL    HW2 9930   1.736   0.338   2.135
 3132SOL     OW 9931   0.440   0.097   3.371
 3132SOL    HW1 9932   0.511   0.057   3.320
 3132SOL    HW2 9933   0.363   0.045   3.348
 3133SOL     OW 9934   1.595   3.850   3.322
 3133SOL    HW1 9935   1.603   3.935   3.280
 3133SOL    HW2 9936   1.578   3.870   3.414
 3134SOL     OW 9937   0.806   3.729   2.368
 3134SOL    HW1 9938   0.832   3.821   2.362
 3134SOL    HW2 9939   0.711   3.732   2.377
 3135SOL     OW 9940   1.266   0.062   2.800
 3135SOL    HW1 9941   1.195   0.008   2.768
 3135SOL    HW2 9942   1.323   0.002   2.848
 3136SOL     OW 9943   0.555   3.905   2.753
 3136SOL    HW1 9944   0.552   3.925   2.847
 3136SOL    HW2 9945   0.551   3.990   2.710
 3137SOL     OW 9946   0.191   3.978   3.360
 3137SOL    HW1 9947   0.102   0.013   3.364
 3137SOL    HW2 9948   0.186   3.894   3.407
 3138SOL     OW 9949   1.407   3.831   2.295
 3138SOL    HW1 9950   1.399   3.798   2.206
 3138SOL    HW2 9951   1.501   3.824   2.314
 3139SOL     OW 9952   1.533   3.938   3.583
 3139SOL    HW1 9953   1.559   3.941   3.675
 3139SOL    HW2 9954   1.464   3.872   3.579
 3140SOL     OW 9955   0.628   3.850   1.989
 3140SOL    HW1 9956   0.718   3.820   1.989
 3140SOL    HW2 9957   0.586   3.801   1.918
 3141SOL     OW 9958   0.771   3.954   3.604
 3141SOL    HW1 9959   0.828   3.927   3.677
 3141SOL    HW2 9960   0.686   3.971   3.645
 3142SOL     OW 9961   0.535   3.785   2.377
 3142SOL    HW1 9962   0.484   3.786   2.457
 3142SOL    HW2 9963   0.543   3.877   2.352
 3143SOL     OW 9964   0.287   3.759   2.039
 3143SOL    HW1 9965   0.328   3.846   2.032
 3143SOL    HW2 9966   0.353   3.705   2.081
 3144SOL     OW 9967   0.563   3.944   3.030
 3144SOL    HW1 9968   0.605   3.875   3.081
 3144SOL    HW2 9969   0.471   3.941   3.058
 3145SOL     OW 9970   1.021   3.766   2.594
 3145SOL    HW1 9971   0.955   3.754   2.526
 3145SOL    HW2 9972   0.997   3.702   2.662
 3146SOL     OW 9973   0.924   3.802   3.259
 3146SOL    HW1 9974   0.953   3.781   3.170
 3146SOL    HW2 9975   0.997   3.850   3.297
 3147SOL     OW 9976   1.267   0.073   3.128
 3147SOL    HW1 9977   1.279   0.142   3.193
 3147SOL    HW2 9978   1.200   0.107   3.068
 3148SOL     OW 9979   0.507   3.751   3.619
 3148SOL    HW1 9980   0.453   3.705   3.554
 3148SOL    HW2 9981   0.478   3.842   3.615
 3149SOL     OW 9982   0.303   3.924   3.117
 3149SOL    HW1 9983   0.257   3.941   3.198
 3149SOL    HW2 9984   0.289   3.831   3.100
 3150SOL     OW 9985   1.577   3.953   1.981
 3150SOL    HW1 9986   1.518   3.896   2.031
 3150SOL    HW2 9987   1.609   0.016   2.045
 3151SOL     OW 9988   1.163   3.921   3.335
 3151SOL    HW1 9989   1.167   3.996   3.395
 3151SOL    HW2 9990   1.206   3.951   3.255
 3152SOL     OW 9991   0.901   3.811   1.964
 3152SOL    HW1 9992   0.959   3.768   1.901
 3152SOL    HW2 9993   0.942   3.797   2.049
 3153SOL     OW 9994   1.709   3.856   2.358
 3153SOL    HW1 9995   1.787   3.843   2.304
 3153SOL    HW2 9996   1.699   3.774   2.406
 3154SOL     OW 9997   1.836   3.879   2.834
 3154SOL    HW1 9998   1.871   3.796   2.801
 3154SOL    HW2 9999   1.756   3.893   2.784
 3155SOL     OW10000   0.678   3.909   3.350
 3155SOL    HW110001   0.761   3.900   3.304
 3155SOL    HW210002   0.703   3.931   3.440
 3156SOL     OW10003   0.071   0.023   1.850
 3156SOL    HW110004   3.977   0.024   1.864
 3156SOL    HW210005   0.100   0.111   1.874
 3157SOL     OW10006   0.107   3.918   2.233
 3157SOL    HW110007   0.081   0.001   2.192
 3157SOL    HW210008   0.187   3.892   2.186
 3158SOL     OW10009   1.196   0.012   2.326
 3158SOL    HW110010   1.262   3.943   2.327
 3158SOL    HW210011   1.215   0.065   2.403
 3159SOL     OW10012   1.786   0.040   3.501
 3159SOL    HW110013   1.758   0.075   3.416
 3159SOL    HW210014   1.707   0.001   3.538
 3160SOL     OW10015   1.816   3.913   3.101
 3160SOL    HW110016   1.821   3.822   3.131
 3160SOL    HW210017   1.822   3.907   3.006
 3161SOL     OW10018   1.440   3.931   2.979
 3161SOL    HW110019   1.472   3.853   3.024
 3161SOL    HW210020   1.381   3.973   3.042
 3162SOL     OW10021   1.016   3.736   3.009
 3162SOL    HW110022   0.959   3.681   2.956
 3162SOL    HW210023   1.102   3.693   3.004
 3163SOL     OW10024   1.354   3.770   2.025
 3163SOL    HW110025   1.388   3.701   1.968
 3163SOL    HW210026   1.266   3.741   2.049
 3164SOL     OW10027   1.281   0.162   2.544
 3164SOL    HW110028   1.284   0.258   2.550
 3164SOL    HW210029   1.286   0.132   2.635
 3165SOL     OW10030   1.580   3.926   2.742
 3165SOL    HW110031   1.531   3.932   2.824
 3165SOL    HW210032   1.581   0.016   2.709
 3166SOL     OW10033   0.234   3.945   4.685
 3166SOL    HW110034   0.256   3.958   4.777
 3166SOL    HW210035   0.140   3.963   4.679
 3167SOL     OW10036   0.009   0.106   4.347
 3167SOL    HW110037   3.925   0.088   4.388
 3167SOL    HW210038   0.013   0.046   4.272
 3168SOL     OW10039   1.777   0.319   3.912
 3168SOL    HW110040   1.704   0.295   3.855
 3168SOL    HW210041   1.736   0.338   3.997
 3169SOL     OW10042   0.440   0.096   5.233
 3169SOL    HW110043   0.511   0.058   5.182
 3169SOL    HW210044   0.363   0.045   5.210
 3170SOL     OW10045   1.595   3.850   5.184
 3170SOL    HW110046   1.603   3.935   5.142
 3170SOL    HW210047   1.578   3.870   5.276
 3171SOL     OW10048   0.806   3.729   4.230
 3171SOL    HW110049   0.832   3.821   4.224
 3171SOL    HW210050   0.711   3.732   4.239
 3172SOL     OW10051   1.266   0.062   4.662
 3172SOL    HW110052   1.195   0.008   4.629
 3172SOL    HW210053   1.323   0.002   4.710
 3173SOL     OW10054   0.555   3.905   4.615
 3173SOL    HW110055   0.552   3.925   4.709
 3173SOL    HW210056   0.551   3.990   4.572
 3174SOL     OW10057   0.191   3.978   5.222
 3174SOL    HW110058   0.101   0.012   5.226
 3174SOL    HW210059   0.186   3.894   5.269
 3175SOL     OW10060   1.407   3.831   4.157
 3175SOL    HW110061   1.399   3.798   4.068
 3175SOL    HW210062   1.501   3.824   4.176
 3176SOL     OW10063   1.533   3.938   5.445
 3176SOL    HW110064   1.558   3.941   5.537
 3176SOL    HW210065   1.464   3.872   5.441
 3177SOL     OW10066   0.628   3.850   3.851
 3177SOL    HW110067   0.718   3.820   3.851
 3177SOL    HW210068   0.586   3.801   3.780
 3178SOL     OW10069   0.771   3.954   5.466
 3178SOL    HW110070   0.828   3.928   5.539
 3178SOL    HW210071   0.686   3.970   5.507
 3179SOL     OW10072   0.535   3.785   4.239
 3179SOL    HW110073   0.484   3.786   4.319
 3179SOL    HW210074   0.543   3.877   4.214
 3180SOL     OW10075   0.287   3.759   3.901
 3180SOL    HW110076   0.328   3.846   3.894
 3180SOL    HW210077   0.353   3.705   3.943
 3181SOL     OW10078   0.563   3.944   4.892
 3181SOL    HW110079   0.605   3.875   4.943
 3181SOL    HW210080   0.471   3.941   4.919
 3182SOL     OW10081   1.021   3.766   4.456
 3182SOL    HW110082   0.955   3.754   4.388
 3182SOL    HW210083   0.997   3.702   4.524
 3183SOL     OW10084   0.924   3.802   5.121
 3183SOL    HW110085   0.953   3.781   5.032
 3183SOL    HW210086   0.997   3.850   5.159
 3184SOL     OW10087   1.267   0.073   4.990
 3184SOL    HW110088   1.279   0.142   5.055
 3184SOL    HW210089   1.200   0.107   4.930
 3185SOL     OW10090   0.507   3.751   5.481
 3185SOL    HW110091   0.453   3.705   5.416
 3185SOL    HW210092   0.478   3.842   5.477
 3186SOL     OW10093   0.303   3.924   4.979
 3186SOL    HW110094   0.256   3.941   5.060
 3186SOL    HW210095   0.289   3.831   4.962
 3187SOL     OW10096   1.577   3.953   3.843
 3187SOL    HW110097   1.518   3.896   3.893
 3187SOL    HW210098   1.609   0.016   3.907
 3188SOL     OW10099   1.163   3.921   5.197
 3188SOL    HW110100   1.167   3.996   5.257
 3188SOL    HW210101   1.206   3.951   5.117
 3189SOL     OW10102   0.901   3.811   3.826
 3189SOL    HW110103   0.959   3.768   3.763
 3189SOL    HW210104   0.942   3.797   3.911
 3190SOL     OW10105   1.709   3.856   4.219
 3190SOL    HW110106   1.787   3.843   4.166
 3190SOL    HW210107   1.699   3.774   4.268
 3191SOL     OW10108   1.836   3.879   4.697
 3191SOL    HW110109   1.871   3.796   4.663
 3191SOL    HW210110   1.756   3.893   4.646
 3192SOL     OW10111   0.678   3.909   5.212
 3192SOL    HW110112   0.761   3.899   5.166
 3192SOL    HW210113   0.703   3.931   5.302
 3193SOL     OW10114   0.071   0.023   3.711
 3193SOL    HW110115   3.977   0.024   3.726
 3193SOL    HW210116   0.100   0.111   3.736
 3194SOL     OW10117   0.107   3.918   4.095
 3194SOL    HW110118   0.081   0.001   4.054
 3194SOL    HW210119   0.187   3.892   4.048
 3195SOL     OW10120   1.195   0.012   4.188
 3195SOL    HW110121   1.262   3.943   4.189
 3195SOL    HW210122   1.215   0.065   4.266
 3196SOL     OW10123   1.786   0.040   5.363
 3196SOL    HW110124   1.759   0.075   5.278
 3196SOL    HW210125   1.706   0.001   5.400
 3197SOL     OW10126   1.816   3.913   4.963
 3197SOL    HW110127   1.821   3.822   4.993
 3197SOL    HW210128   1.822   3.907   4.868
 3198SOL     OW10129   1.440   3.931   4.841
 3198SOL    HW110130   1.472   3.853   4.886
 3198SOL    HW210131   1.381   3.973   4.904
 3199SOL     OW10132   1.016   3.736   4.871
 3199SOL    HW110133   0.959   3.681   4.817
 3199SOL    HW210134   1.102   3.693   4.866
 3200SOL     OW10135   1.354   3.770   3.887
 3200SOL    HW110136   1.388   3.701   3.830
 3200SOL    HW210137   1.266   3.741   3.911
 3201SOL     OW10138   1.281   0.162   4.406
 3201SOL    HW110139   1.284   0.258   4.411
 3201SOL    HW210140   1.286   0.133   4.497
 3202SOL     OW10141   1.580   3.926   4.604
 3202SOL    HW110142   1.531   3.932   4.686
 3202SOL    HW210143   1.581   0.016   4.571
 3203SOL     OW10144   0.234   3.945   6.547
 3203SOL    HW110145   0.256   3.958   6.639
 3203SOL    HW210146   0.140   3.963   6.541
 3204SOL     OW10147   0.009   0.106   6.209
 3204SOL    HW110148   3.925   0.088   6.250
 3204SOL    HW210149   0.013   0.047   6.134
 3205SOL     OW10150   1.777   0.320   5.775
 3205SOL    HW110151   1.704   0.296   5.717
 3205SOL    HW210152   1.735   0.338   5.859
 3206SOL     OW10153   0.440   0.097   7.095
 3206SOL    HW110154   0.511   0.058   7.044
 3206SOL    HW210155   0.363   0.045   7.072
 3207SOL     OW10156   1.595   3.850   7.046
 3207SOL    HW110157   1.604   3.935   7.004
 3207SOL    HW210158   1.578   3.870   7.138
 3208SOL     OW10159   0.806   3.729   6.092
 3208SOL    HW110160   0.833   3.821   6.086
 3208SOL    HW210161   0.711   3.732   6.102
 3209SOL     OW10162   1.266   0.062   6.525
 3209SOL    HW110163   1.195   0.007   6.491
 3209SOL    HW210164   1.323   0.002   6.572
 3210SOL     OW10165   0.555   3.905   6.477
 3210SOL    HW110166   0.552   3.925   6.571
 3210SOL    HW210167   0.551   3.990   6.434
 3211SOL     OW10168   0.191   3.977   7.084
 3211SOL    HW110169   0.102   0.012   7.088
 3211SOL    HW210170   0.186   3.894   7.131
 3212SOL     OW10171   1.407   3.831   6.019
 3212SOL    HW110172   1.399   3.798   5.930
 3212SOL    HW210173   1.501   3.824   6.039
 3213SOL     OW10174   1.533   3.938   7.307
 3213SOL    HW110175   1.559   3.940   7.399
 3213SOL    HW210176   1.464   3.872   7.303
 3214SOL     OW10177   0.628   3.850   5.713
 3214SOL    HW110178   0.718   3.820   5.713
 3214SOL    HW210179   0.586   3.801   5.642
 3215SOL     OW10180   0.772   3.954   7.328
 3215SOL    HW110181   0.828   3.927   7.401
 3215SOL    HW210182   0.686   3.971   7.369
 3216SOL     OW10183   0.535   3.785   6.100
 3216SOL    HW110184   0.483   3.786   6.181
 3216SOL    HW210185   0.543   3.877   6.076
 3217SOL     OW10186   0.287   3.759   5.763
 3217SOL    HW110187   0.328   3.845   5.755
 3217SOL    HW210188   0.353   3.704   5.805
 3218SOL     OW10189   0.563   3.944   6.754
 3218SOL    HW110190   0.605   3.875   6.804
 3218SOL    HW210191   0.471   3.941   6.781
 3219SOL     OW10192   1.021   3.766   6.319
 3219SOL    HW110193   0.955   3.754   6.250
 3219SOL    HW210194   0.997   3.702   6.386
 3220SOL     OW10195   0.924   3.802   6.983
 3220SOL    HW110196   0.953   3.781   6.894
 3220SOL    HW210197   0.997   3.850   7.021
 3221SOL     OW10198   1.267   0.073   6.852
 3221SOL    HW110199   1.279   0.142   6.917
 3221SOL    HW210200   1.201   0.107   6.792
 3222SOL     OW10201   0.507   3.751   7.343
 3222SOL    HW110202   0.453   3.705   7.278
 3222SOL    HW210203   0.478   3.842   7.339
 3223SOL     OW10204   0.303   3.924   6.841
 3223SOL    HW110205   0.256   3.941   6.922
 3223SOL    HW210206   0.289   3.831   6.824
 3224SOL     OW10207   1.576   3.953   5.705
 3224SOL    HW110208   1.518   3.896   5.755
 3224SOL    HW210209   1.611   0.015   5.769
 3225SOL     OW10210   1.164   3.921   7.060
 3225SOL    HW110211   1.167   3.997   7.118
 3225SOL    HW210212   1.206   3.951   6.979
 3226SOL     OW10213   0.901   3.811   5.688
 3226SOL    HW110214   0.958   3.768   5.625
 3226SOL    HW210215   0.942   3.797   5.773
 3227SOL     OW10216   1.709   3.856   6.081
 3227SOL    HW110217   1.787   3.843   6.029
 3227SOL    HW210218   1.698   3.774   6.130
 3228SOL     OW10219   1.836   3.879   6.558
 3228SOL    HW110220   1.871   3.796   6.526
 3228SOL    HW210221   1.756   3.893   6.507
 3229SOL     OW10222   0.678   3.908   7.074
 3229SOL    HW110223   0.761   3.900   7.028
 3229SOL    HW210224   0.703   3.931   7.164
 3230SOL     OW10225   0.071   0.023   5.574
 3230SOL    HW110226   3.977   0.024   5.588
 3230SOL    HW210227   0.100   0.111   5.598
 3231SOL     OW10228   0.108   3.918   5.957
 3231SOL    HW110229   0.082   0.001   5.917
 3231SOL    HW210230   0.187   3.892   5.910
 3232SOL     OW10231   1.195   0.012   6.051
 3232SOL    HW110232   1.262   3.943   6.051
 3232SOL    HW210233   1.215   0.065   6.128
 3233SOL     OW10234   1.786   0.039   7.225
 3233SOL    HW110235   1.759   0.075   7.141
 3233SOL    HW210236   1.706   0.001   7.262
 3234SOL     OW10237   1.816   3.912   6.825
 3234SOL    HW110238   1.821   3.821   6.854
 3234SOL    HW210239   1.822   3.907   6.730
 3235SOL     OW10240   1.440   3.931   6.703
 3235SOL    HW110241   1.472   3.853   6.747
 3235SOL    HW210242   1.381   3.973   6.766
 3236SOL     OW10243   1.016   3.736   6.733
 3236SOL    HW110244   0.959   3.681   6.679
 3236SOL    HW210245   1.102   3.693   6.728
 3237SOL     OW10246   1.354   3.770   5.750
 3237SOL    HW110247   1.388   3.701   5.693
 3237SOL    HW210248   1.266   3.740   5.773
 3238SOL     OW10249   1.280   0.162   6.268
 3238SOL    HW110250   1.284   0.258   6.274
 3238SOL    HW210251   1.285   0.133   6.359
 3239SOL     OW10252   1.580   3.926   6.466
 3239SOL    HW110253   1.531   3.932   6.548
 3239SOL    HW210254   1.581   0.016   6.432
 3240SOL     OW10255   0.234   3.945   8.409
 3240SOL    HW110256   0.256   3.958   8.501
 3240SOL    HW210257   0.140   3.963   8.403
 3241SOL     OW10258   0.009   0.107   8.071
 3241SOL    HW110259   3.925   0.088   8.111
 3241SOL    HW210260   0.014   0.047   7.996
 3242SOL     OW10261   1.776   0.317   7.637
 3242SOL    HW110262   1.703   0.294   7.579
 3242SOL    HW210263   1.735   0.336   7.721
 3243SOL     OW10264   0.440   0.097   8.957
 3243SOL    HW110265   0.511   0.058   8.906
 3243SOL    HW210266   0.363   0.045   8.934
 3244SOL     OW10267   1.595   3.850   8.908
 3244SOL    HW110268   1.603   3.935   8.866
 3244SOL    HW210269   1.578   3.870   9.000
 3245SOL     OW10270   0.806   3.730   7.954
 3245SOL    HW110271   0.832   3.821   7.948
 3245SOL    HW210272   0.711   3.733   7.963
 3246SOL     OW10273   1.266   0.063   8.387
 3246SOL    HW110274   1.195   0.008   8.353
 3246SOL    HW210275   1.323   0.001   8.434
 3247SOL     OW10276   0.555   3.905   8.339
 3247SOL    HW110277   0.552   3.925   8.433
 3247SOL    HW210278   0.551   3.990   8.296
 3248SOL     OW10279   0.191   3.978   8.946
 3248SOL    HW110280   0.102   0.012   8.950
 3248SOL    HW210281   0.186   3.894   8.993
 3249SOL     OW10282   1.407   3.831   7.881
 3249SOL    HW110283   1.398   3.799   7.792
 3249SOL    HW210284   1.501   3.825   7.900
 3250SOL     OW10285   1.533   3.938   9.169
 3250SOL    HW110286   1.559   3.941   9.261
 3250SOL    HW210287   1.464   3.872   9.165
 3251SOL     OW10288   0.627   3.850   7.575
 3251SOL    HW110289   0.718   3.820   7.575
 3251SOL    HW210290   0.586   3.801   7.504
 3252SOL     OW10291   0.772   3.954   9.190
 3252SOL    HW110292   0.828   3.927   9.263
 3252SOL    HW210293   0.686   3.970   9.231
 3253SOL     OW10294   0.535   3.785   7.962
 3253SOL    HW110295   0.484   3.786   8.043
 3253SOL    HW210296   0.543   3.877   7.938
 3254SOL     OW10297   0.287   3.759   7.625
 3254SOL    HW110298   0.328   3.845   7.617
 3254SOL    HW210299   0.353   3.704   7.667
 3255SOL     OW10300   0.563   3.944   8.616
 3255SOL    HW110301   0.605   3.874   8.666
 3255SOL    HW210302   0.471   3.941   8.643
 3256SOL     OW10303   1.021   3.766   8.181
 3256SOL    HW110304   0.955   3.754   8.112
 3256SOL    HW210305   0.997   3.702   8.248
 3257SOL     OW10306   0.924   3.802   8.845
 3257SOL    HW110307   0.953   3.781   8.756
 3257SOL    HW210308   0.997   3.850   8.883
 3258SOL     OW10309   1.267   0.073   8.714
 3258SOL    HW110310   1.278   0.142   8.779
 3258SOL    HW210311   1.200   0.106   8.654
 3259SOL     OW10312   0.507   3.751   9.205
 3259SOL    HW110313   0.453   3.705   9.140
 3259SOL    HW210314   0.478   3.842   9.201
 3260SOL     OW10315   0.303   3.924   8.703
 3260SOL    HW110316   0.257   3.941   8.784
 3260SOL    HW210317   0.289   3.831   8.686
 3261SOL     OW10318   1.577   3.952   7.567
 3261SOL    HW110319   1.516   3.897   7.617
 3261SOL    HW210320   1.606   0.018   7.630
 3262SOL     OW10321   1.163   3.921   8.921
 3262SOL    HW110322   1.167   3.996   8.980
 3262SOL    HW210323   1.206   3.951   8.841
 3263SOL     OW10324   0.900   3.811   7.550
 3263SOL    HW110325   0.958   3.768   7.487
 3263SOL    HW210326   0.942   3.797   7.635
 3264SOL     OW10327   1.709   3.856   7.944
 3264SOL    HW110328   1.787   3.843   7.890
 3264SOL    HW210329   1.699   3.774   7.992
 3265SOL     OW10330   1.836   3.879   8.421
 3265SOL    HW110331   1.871   3.796   8.387
 3265SOL    HW210332   1.756   3.894   8.370
 3266SOL     OW10333   0.678   3.909   8.936
 3266SOL    HW110334   0.761   3.899   8.890
 3266SOL    HW210335   0.703   3.931   9.026
 3267SOL     OW10336   0.071   0.023   7.436
 3267SOL    HW110337   3.976   0.024   7.450
 3267SOL    HW210338   0.100   0.111   7.460
 3268SOL     OW10339   0.108   3.918   7.819
 3268SOL    HW110340   0.082   0.000   7.779
 3268SOL    HW210341   0.187   3.892   7.772
 3269SOL     OW10342   1.195   0.012   7.913
 3269SOL    HW110343   1.262   3.943   7.913
 3269SOL    HW210344   1.215   0.065   7.990
 3270SOL     OW10345   1.786   0.040   9.087
 3270SOL    HW110346   1.758   0.075   9.002
 3270SOL    HW210347   1.707   0.001   9.124
 3271SOL     OW10348   1.816   3.913   8.687
 3271SOL    HW110349   1.821   3.822   8.717
 3271SOL    HW210350   1.822   3.907   8.592
 3272SOL     OW10351   1.440   3.931   8.565
 3272SOL    HW110352   1.471   3.853   8.610
 3272SOL    HW210353   1.381   3.973   8.628
 3273SOL     OW10354   1.016   3.736   8.595
 3273SOL    HW110355   0.959   3.681   8.541
 3273SOL    HW210356   1.102   3.693   8.590
 3274SOL     OW10357   1.354   3.770   7.611
 3274SOL    HW110358   1.387   3.701   7.554
 3274SOL    HW210359   1.266   3.740   7.635
 3275SOL     OW10360   1.281   0.162   8.130
 3275SOL    HW110361   1.284   0.258   8.135
 3275SOL    HW210362   1.285   0.133   8.221
 3276SOL     OW10363   1.580   3.926   8.328
 3276SOL    HW110364   1.531   3.932   8.410
 3276SOL    HW210365   1.581   0.016   8.294
 3277SOL     OW10366   0.234   3.945  10.271
 3277SOL    HW110367   0.256   3.958  10.363
 3277SOL    HW210368   0.140   3.962  10.265
 3278SOL     OW10369   0.009   0.106   9.933
 3278SOL    HW110370   3.925   0.088   9.974
 3278SOL    HW210371   0.013   0.046   9.858
 3279SOL     OW10372   1.777   0.319   9.498
 3279SOL    HW110373   1.704   0.295   9.441
 3279SOL    HW210374   1.736   0.338   9.583
 3280SOL     OW10375   0.440   0.097  10.819
 3280SOL    HW110376   0.511   0.058  10.768
 3280SOL    HW210377   0.363   0.045  10.796
 3281SOL     OW10378   1.595   3.850  10.770
 3281SOL    HW110379   1.603   3.935  10.728
 3281SOL    HW210380   1.578   3.870  10.862
 3282SOL     OW10381   0.806   3.729   9.816
 3282SOL    HW110382   0.832   3.821   9.810
 3282SOL    HW210383   0.711   3.732   9.826
 3283SOL     OW10384   1.266   0.062  10.248
 3283SOL    HW110385   1.195   0.008  10.216
 3283SOL    HW210386   1.323   0.002  10.296
 3284SOL     OW10387   0.555   3.905  10.201
 3284SOL    HW110388   0.552   3.925  10.295
 3284SOL    HW210389   0.551   3.990  10.158
 3285SOL     OW10390   0.191   3.978  10.808
 3285SOL    HW110391   0.102   0.012  10.812
 3285SOL    HW210392   0.186   3.894  10.855
 3286SOL     OW10393   1.407   3.831   9.743
 3286SOL    HW110394   1.399   3.798   9.654
 3286SOL    HW210395   1.501   3.824   9.762
 3287SOL     OW10396   1.533   3.938  11.031
 3287SOL    HW110397   1.559   3.941  11.123
 3287SOL    HW210398   1.464   3.872  11.027
 3288SOL     OW10399   0.628   3.850   9.437
 3288SOL    HW110400   0.718   3.820   9.437
 3288SOL    HW210401   0.586   3.801   9.366
 3289SOL     OW10402   0.772   3.954  11.052
 3289SOL    HW110403   0.828   3.927  11.125
 3289SOL    HW210404   0.686   3.971  11.093
 3290SOL     OW10405   0.535   3.785   9.824
 3290SOL    HW110406   0.484   3.786   9.905
 3290SOL    HW210407   0.543   3.877   9.800
 3291SOL     OW10408   0.287   3.759   9.487
 3291SOL    HW110409   0.328   3.845   9.479
 3291SOL    HW210410   0.353   3.705   9.529
 3292SOL     OW10411   0.563   3.944  10.478
 3292SOL    HW110412   0.605   3.875  10.529
 3292SOL    HW210413   0.471   3.941  10.505
 3293SOL     OW10414   1.021   3.766  10.042
 3293SOL    HW110415   0.955   3.754   9.974
 3293SOL    HW210416   0.997   3.702  10.110
 3294SOL     OW10417   0.924   3.802  10.707
 3294SOL    HW110418   0.953   3.781  10.618
 3294SOL    HW210419   0.997   3.850  10.745
 3295SOL     OW10420   1.267   0.073  10.576
 3295SOL    HW110421   1.279   0.142  10.641
 3295SOL    HW210422   1.200   0.107  10.516
 3296SOL     OW10423   0.507   3.751  11.067
 3296SOL    HW110424   0.453   3.705  11.002
 3296SOL    HW210425   0.478   3.842  11.063
 3297SOL     OW10426   0.303   3.924  10.565
 3297SOL    HW110427   0.257   3.941  10.646
 3297SOL    HW210428   0.289   3.831  10.548
 3298SOL     OW10429   1.577   3.953   9.429
 3298SOL    HW110430   1.517   3.896   9.479
 3298SOL    HW210431   1.609   0.016   9.493
 3299SOL     OW10432   1.163   3.921  10.783
 3299SOL    HW110433   1.167   3.996  10.843
 3299SOL    HW210434   1.206   3.951  10.703
 3300SOL     OW10435   0.901   3.811   9.412
 3300SOL    HW110436   0.959   3.768   9.349
 3300SOL    HW210437   0.942   3.797   9.497
 3301SOL     OW10438   1.709   3.856   9.805
 3301SOL    HW110439   1.787   3.843   9.752
 3301SOL    HW210440   1.699   3.774   9.854
 3302SOL     OW10441   1.836   3.879  10.283
 3302SOL    HW110442   1.871   3.796  10.249
 3302SOL    HW210443   1.756   3.893  10.232
 3303SOL     OW10444   0.678   3.909  10.798
 3303SOL    HW110445   0.761   3.900  10.752
 3303SOL    HW210446   0.703   3.931  10.888
 3304SOL     OW10447   0.071   0.023   9.298
 3304SOL    HW110448   3.977   0.024   9.312
 3304SOL    HW210449   0.100   0.111   9.322
 3305SOL     OW10450   0.107   3.918   9.681
 3305SOL    HW110451   0.081   0.001   9.640
 3305SOL    HW210452   0.187   3.892   9.634
 3306SOL     OW10453   1.195   0.012   9.774
 3306SOL    HW110454   1.262   3.943   9.775
 3306SOL    HW210455   1.215   0.065   9.852
 3307SOL     OW10456   1.786   0.040  10.949
 3307SOL    HW110457   1.759   0.075  10.865
 3307SOL    HW210458   1.706   0.001  10.986
 3308SOL     OW10459   1.816   3.913  10.549
 3308SOL    HW110460   1.821   3.822  10.579
 3308SOL    HW210461   1.822   3.907  10.454
 3309SOL     OW10462   1.440   3.931  10.427
 3309SOL    HW110463   1.472   3.853  10.472
 3309SOL    HW210464   1.381   3.973  10.490
 3310SOL     OW10465   1.016   3.736  10.457
 3310SOL    HW110466   0.959   3.681  10.403
 3310SOL    HW210467   1.102   3.693  10.452
 3311SOL     OW10468   1.354   3.770   9.473
 3311SOL    HW110469   1.388   3.701   9.416
 3311SOL    HW210470   1.266   3.740   9.497
 3312SOL     OW10471   1.281   0.162   9.992
 3312SOL    HW110472   1.284   0.258   9.997
 3312SOL    HW210473   1.286   0.133  10.083
 3313SOL     OW10474   1.580   3.926  10.190
 3313SOL    HW110475   1.531   3.932  10.272
 3313SOL    HW210476   1.581   0.016  10.156
 3314SOL     OW10477   0.234   3.945  12.133
 3314SOL    HW110478   0.256   3.958  12.225
 3314SOL    HW210479   0.140   3.963  12.127
 3315SOL     OW10480   0.009   0.106  11.795
 3315SOL    HW110481   3.925   0.088  11.836
 3315SOL    HW210482   0.013   0.046  11.720
 3316SOL     OW10483   1.777   0.319  11.361
 3316SOL    HW110484   1.704   0.295  11.303
 3316SOL    HW210485   1.736   0.338  11.445
 3317SOL     OW10486   0.440   0.096  12.682
 3317SOL    HW110487   0.511   0.059  12.630
 3317SOL    HW210488   0.363   0.045  12.658
 3318SOL     OW10489   1.595   3.850  12.632
 3318SOL    HW110490   1.603   3.935  12.590
 3318SOL    HW210491   1.578   3.870  12.724
 3319SOL     OW10492   0.806   3.729  11.678
 3319SOL    HW110493   0.832   3.821  11.672
 3319SOL    HW210494   0.711   3.732  11.687
 3320SOL     OW10495   1.266   0.062  12.110
 3320SOL    HW110496   1.195   0.008  12.077
 3320SOL    HW210497   1.323   0.002  12.158
 3321SOL     OW10498   0.555   3.905  12.063
 3321SOL    HW110499   0.552   3.925  12.157
 3321SOL    HW210500   0.551   3.990  12.020
 3322SOL     OW10501   0.190   3.977  12.670
 3322SOL    HW110502   0.101   0.012  12.674
 3322SOL    HW210503   0.186   3.894  12.716
 3323SOL     OW10504   1.407   3.831  11.605
 3323SOL    HW110505   1.399   3.798  11.516
 3323SOL    HW210506   1.501   3.824  11.624
 3324SOL     OW10507   1.533   3.939  12.894
 3324SOL    HW110508   1.557   3.943  12.987
 3324SOL    HW210509   1.464   3.872  12.891
 3325SOL     OW10510   0.628   3.850  11.299
 3325SOL    HW110511   0.718   3.820  11.299
 3325SOL    HW210512   0.586   3.801  11.228
 3326SOL     OW10513   0.771   3.954  12.915
 3326SOL    HW110514   0.828   3.927  12.987
 3326SOL    HW210515   0.686   3.969  12.956
 3327SOL     OW10516   0.535   3.785  11.686
 3327SOL    HW110517   0.484   3.786  11.767
 3327SOL    HW210518   0.543   3.877  11.662
 3328SOL     OW10519   0.287   3.759  11.349
 3328SOL    HW110520   0.328   3.846  11.342
 3328SOL    HW210521   0.353   3.705  11.391
 3329SOL     OW10522   0.563   3.944  12.340
 3329SOL    HW110523   0.605   3.875  12.390
 3329SOL    HW210524   0.471   3.941  12.367
 3330SOL     OW10525   1.021   3.766  11.904
 3330SOL    HW110526   0.955   3.754  11.836
 3330SOL    HW210527   0.997   3.702  11.972
 3331SOL     OW10528   0.924   3.802  12.569
 3331SOL    HW110529   0.953   3.781  12.480
 3331SOL    HW210530   0.997   3.850  12.607
 3332SOL     OW10531   1.267   0.073  12.438
 3332SOL    HW110532   1.279   0.142  12.503
 3332SOL    HW210533   1.200   0.107  12.378
 3333SOL     OW10534   0.506   3.751  12.929
 3333SOL    HW110535   0.453   3.705  12.864
 3333SOL    HW210536   0.478   3.842  12.923
 3334SOL     OW10537   0.303   3.924  12.427
 3334SOL    HW110538   0.256   3.941  12.508
 3334SOL    HW210539   0.289   3.831  12.410
 3335SOL     OW10540   1.577   3.953  11.291
 3335SOL    HW110541   1.517   3.896  11.341
 3335SOL    HW210542   1.609   0.016  11.355
 3336SOL     OW10543   1.163   3.921  12.645
 3336SOL    HW110544   1.167   3.996  12.704
 3336SOL    HW210545   1.206   3.951  12.565
 3337SOL     OW10546   0.901   3.811  11.274
 3337SOL    HW110547   0.959   3.768  11.211
 3337SOL    HW210548   0.942   3.797  11.359
 3338SOL     OW10549   1.709   3.856  11.667
 3338SOL    HW110550   1.787   3.843  11.614
 3338SOL    HW210551   1.699   3.774  11.716
 3339SOL     OW10552   1.836   3.879  12.145
 3339SOL    HW110553   1.871   3.796  12.111
 3339SOL    HW210554   1.756   3.893  12.094
 3340SOL     OW10555   0.678   3.908  12.661
 3340SOL    HW110556   0.761   3.899  12.614
 3340SOL    HW210557   0.703   3.931  12.750
 3341SOL     OW10558   0.071   0.023  11.160
 3341SOL    HW110559   3.977   0.024  11.174
 3341SOL    HW210560   0.100   0.111  11.184
 3342SOL     OW10561   0.107   3.918  11.543
 3342SOL    HW110562   0.081   0.001  11.502
 3342SOL    HW210563   0.187   3.892  11.496
 3343SOL     OW10564   1.195   0.012  11.636
 3343SOL    HW110565   1.262   3.943  11.637
 3343SOL    HW210566   1.215   0.065  11.714
 3344SOL     OW10567   1.786   0.040  12.810
 3344SOL    HW110568   1.757   0.075  12.726
 3344SOL    HW210569   1.707   0.001  12.848
 3345SOL     OW10570   1.816   3.913  12.411
 3345SOL    HW110571   1.821   3.822  12.441
 3345SOL    HW210572   1.822   3.907  12.316
 3346SOL     OW10573   1.440   3.931  12.289
 3346SOL    HW110574   1.472   3.853  12.334
 3346SOL    HW210575   1.381   3.973  12.352
 3347SOL     OW10576   1.016   3.736  12.319
 3347SOL    HW110577   0.959   3.681  12.265
 3347SOL    HW210578   1.102   3.693  12.314
 3348SOL     OW10579   1.354   3.770  11.335
 3348SOL    HW110580   1.388   3.701  11.278
 3348SOL    HW210581   1.266   3.741  11.359
 3349SOL     OW10582   1.281   0.162  11.854
 3349SOL    HW110583   1.284   0.258  11.859
 3349SOL    HW210584   1.285   0.133  11.945
 3350SOL     OW10585   1.580   3.926  12.052
 3350SOL    HW110586   1.531   3.932  12.134
 3350SOL    HW210587   1.581   0.016  12.018
 3351SOL     OW10588   0.010   0.102  13.643
 3351SOL    HW110589   3.916   0.090  13.653
 3351SOL    HW210590   0.033   0.047  13.568
 3352SOL     OW10591   1.777   0.321  13.222
 3352SOL    HW110592   1.701   0.300  13.167
 3352SOL    HW210593   1.740   0.327  13.310
 3353SOL     OW10594   1.613   0.171  13.766
 3353SOL    HW110595   1.525   0.145  13.739
 3353SOL    HW210596   1.604   0.263  13.792
 3354SOL     OW10597   0.809   3.731  13.539
 3354SOL    HW110598   0.832   3.823  13.533
 3354SOL    HW210599   0.713   3.730  13.550
 3355SOL     OW10600   1.405   3.833  13.463
 3355SOL    HW110601   1.400   3.799  13.374
 3355SOL    HW210602   1.498   3.828  13.485
 3356SOL     OW10603   0.626   3.851  13.159
 3356SOL    HW110604   0.716   3.821  13.163
 3356SOL    HW210605   0.586   3.800  13.089
 3357SOL     OW10606   0.535   3.778  13.549
 3357SOL    HW110607   0.486   3.766  13.630
 3357SOL    HW210608   0.537   3.873  13.536
 3358SOL     OW10609   0.287   3.760  13.213
 3358SOL    HW110610   0.337   3.840  13.197
 3358SOL    HW210611   0.349   3.701  13.256
 3359SOL     OW10612   1.011   3.761  13.771
 3359SOL    HW110613   0.955   3.755  13.694
 3359SOL    HW210614   0.991   3.682  13.821
 3360SOL     OW10615   1.575   3.959  13.155
 3360SOL    HW110616   1.525   3.895  13.206
 3360SOL    HW210617   1.629   0.004  13.220
 3361SOL     OW10618   0.900   3.812  13.136
 3361SOL    HW110619   0.958   3.768  13.074
 3361SOL    HW210620   0.941   3.796  13.221
 3362SOL     OW10621   1.731   3.859  13.557
 3362SOL    HW110622   1.797   3.845  13.489
 3362SOL    HW210623   1.711   3.772  13.591
 3363SOL     OW10624   1.848   3.896   0.055
 3363SOL    HW110625   1.871   3.804   0.052
 3363SOL    HW210626   1.757   3.897   0.086
 3364SOL     OW10627   0.073   0.021  13.023
 3364SOL    HW110628   3.978   0.022  13.037
 3364SOL    HW210629   0.102   0.108  13.048
 3365SOL     OW10630   0.114   3.926  13.411
 3365SOL    HW110631   0.089   0.000  13.356
 3365SOL    HW210632   0.188   3.886  13.365
 3366SOL     OW10633   1.188   0.002  13.519
 3366SOL    HW110634   1.261   3.943  13.498
 3366SOL    HW210635   1.222   0.059  13.587
 3367SOL     OW10636   1.355   3.769  13.196
 3367SOL    HW110637   1.387   3.700  13.139
 3367SOL    HW210638   1.267   3.741  13.221
 3368SOL     OW10639   1.312   0.155  13.736
 3368SOL    HW110640   1.281   0.244  13.718
 3368SOL    HW210641   1.292   0.141  13.829
 3369SOL     OW10642   2.096   0.646   0.117
 3369SOL    HW110643   2.010   0.615   0.144
 3369SOL    HW210644   2.114   0.600   0.035
 3370SOL     OW10645   2.078   0.302   0.993
 3370SOL    HW110646   2.116   0.257   1.068
 3370SOL    HW210647   1.993   0.259   0.979
 3371SOL     OW10648   1.872   0.400   0.632
 3371SOL    HW110649   1.784   0.413   0.669
 3371SOL    HW210650   1.861   0.328   0.571
 3372SOL     OW10651   2.431   1.292   1.179
 3372SOL    HW110652   2.344   1.296   1.139
 3372SOL    HW210653   2.447   1.381   1.210
 3373SOL     OW10654   3.428   1.513   0.708
 3373SOL    HW110655   3.383   1.490   0.789
 3373SOL    HW210656   3.358   1.516   0.642
 3374SOL     OW10657   2.995   0.698   0.696
 3374SOL    HW110658   3.043   0.780   0.685
 3374SOL    HW210659   2.947   0.710   0.779
 3375SOL     OW10660   3.619   0.631   0.223
 3375SOL    HW110661   3.624   0.621   0.128
 3375SOL    HW210662   3.632   0.542   0.256
 3376SOL     OW10663   2.613   1.139   1.044
 3376SOL    HW110664   2.545   1.176   1.102
 3376SOL    HW210665   2.650   1.215   1.000
 3377SOL     OW10666   2.734   0.768   1.824
 3377SOL    HW110667   2.720   0.838   1.887
 3377SOL    HW210668   2.756   0.813   1.742
 3378SOL     OW10669   2.547   0.998   0.646
 3378SOL    HW110670   2.613   0.989   0.715
 3378SOL    HW210671   2.479   1.052   0.685
 3379SOL     OW10672   2.575   1.149   1.816
 3379SOL    HW110673   2.622   1.227   1.846
 3379SOL    HW210674   2.494   1.183   1.779
 3380SOL     OW10675   2.194   1.415   1.069
 3380SOL    HW110676   2.117   1.382   1.023
 3380SOL    HW210677   2.240   1.468   1.003
 3381SOL     OW10678   3.321   1.502   1.359
 3381SOL    HW110679   3.375   1.580   1.368
 3381SOL    HW210680   3.255   1.510   1.428
 3382SOL     OW10681   2.308   0.392   1.492
 3382SOL    HW110682   2.399   0.362   1.492
 3382SOL    HW210683   2.256   0.312   1.500
 3383SOL     OW10684   3.472   0.450   0.735
 3383SOL    HW110685   3.406   0.488   0.676
 3383SOL    HW210686   3.496   0.521   0.794
 3384SOL     OW10687   2.109   1.697   0.474
 3384SOL    HW110688   2.143   1.766   0.531
 3384SOL    HW210689   2.174   1.690   0.403
 3385SOL     OW10690   2.999   1.342   1.694
 3385SOL    HW110691   3.040   1.336   1.780
 3385SOL    HW210692   2.947   1.262   1.687
 3386SOL     OW10693   2.075   1.435   0.531
 3386SOL    HW110694   2.078   1.531   0.527
 3386SOL    HW210695   2.021   1.416   0.608
 3387SOL     OW10696   2.124   1.090   0.889
 3387SOL    HW110697   2.121   1.003   0.929
 3387SOL    HW210698   2.068   1.144   0.945
 3388SOL     OW10699   2.469   1.793   1.426
 3388SOL    HW110700   2.389   1.774   1.476
 3388SOL    HW210701   2.495   1.880   1.455
 3389SOL     OW10702   2.427   0.979   0.164
 3389SOL    HW110703   2.460   1.018   0.084
 3389SOL    HW210704   2.479   1.019   0.234
 3390SOL     OW10705   3.444   0.142   1.456
 3390SOL    HW110706   3.471   0.214   1.399
 3390SOL    HW210707   3.406   0.184   1.533
 3391SOL     OW10708   1.980   0.657   0.559
 3391SOL    HW110709   1.952   0.568   0.582
 3391SOL    HW210710   1.972   0.707   0.640
 3392SOL     OW10711   3.709   1.757   0.332
 3392SOL    HW110712   3.771   1.721   0.396
 3392SOL    HW210713   3.729   1.850   0.329
 3393SOL     OW10714   1.900   1.592   0.106
 3393SOL    HW110715   1.901   1.498   0.124
 3393SOL    HW210716   1.868   1.632   0.187
 3394SOL     OW10717   3.549   0.918   0.650
 3394SOL    HW110718   3.633   0.874   0.633
 3394SOL    HW210719   3.532   0.968   0.570
 3395SOL     OW10720   3.506   1.103   0.434
 3395SOL    HW110721   3.592   1.110   0.391
 3395SOL    HW210722   3.509   1.167   0.505
 3396SOL     OW10723   1.985   0.750   1.580
 3396SOL    HW110724   2.075   0.782   1.583
 3396SOL    HW210725   1.932   0.829   1.586
 3397SOL     OW10726   2.478   1.387   0.734
 3397SOL    HW110727   2.432   1.304   0.742
 3397SOL    HW210728   2.461   1.415   0.644
 3398SOL     OW10729   3.148   1.237   1.422
 3398SOL    HW110730   3.180   1.170   1.362
 3398SOL    HW210731   3.208   1.232   1.497
 3399SOL     OW10732   2.685   0.004   0.521
 3399SOL    HW110733   2.729   0.084   0.493
 3399SOL    HW210734   2.592   0.027   0.520
 3400SOL     OW10735   2.051   0.962   1.277
 3400SOL    HW110736   2.137   0.922   1.261
 3400SOL    HW210737   1.991   0.912   1.221
 3401SOL     OW10738   3.391   0.998   0.206
 3401SOL    HW110739   3.323   0.940   0.240
 3401SOL    HW210740   3.432   1.035   0.284
 3402SOL     OW10741   3.045   1.810   1.624
 3402SOL    HW110742   3.054   1.869   1.549
 3402SOL    HW210743   3.064   1.723   1.588
 3403SOL     OW10744   2.220   0.252   1.844
 3403SOL    HW110745   2.265   0.336   1.844
 3403SOL    HW210746   2.127   0.274   1.846
 3404SOL     OW10747   3.328   1.420   0.948
 3404SOL    HW110748   3.261   1.435   1.015
 3404SOL    HW210749   3.317   1.328   0.923
 3405SOL     OW10750   3.520   1.747   0.584
 3405SOL    HW110751   3.498   1.722   0.495
 3405SOL    HW210752   3.500   1.669   0.636
 3406SOL     OW10753   2.458   0.716   0.268
 3406SOL    HW110754   2.459   0.800   0.220
 3406SOL    HW210755   2.397   0.731   0.340
 3407SOL     OW10756   3.137   0.370   0.940
 3407SOL    HW110757   3.049   0.331   0.948
 3407SOL    HW210758   3.194   0.308   0.985
 3408SOL     OW10759   3.428   1.729   0.315
 3408SOL    HW110760   3.523   1.730   0.310
 3408SOL    HW210761   3.400   1.697   0.229
 3409SOL     OW10762   2.657   0.616   1.451
 3409SOL    HW110763   2.629   0.590   1.539
 3409SOL    HW210764   2.620   0.549   1.393
 3410SOL     OW10765   3.254   0.476   1.677
 3410SOL    HW110766   3.260   0.521   1.761
 3410SOL    HW210767   3.310   0.399   1.688
 3411SOL     OW10768   2.813   0.887   1.585
 3411SOL    HW110769   2.869   0.818   1.548
 3411SOL    HW210770   2.765   0.922   1.510
 3412SOL     OW10771   2.855   0.402   1.237
 3412SOL    HW110772   2.770   0.422   1.275
 3412SOL    HW210773   2.835   0.375   1.147
 3413SOL     OW10774   2.914   0.703   0.428
 3413SOL    HW110775   2.932   0.694   0.522
 3413SOL    HW210776   2.831   0.657   0.415
 3414SOL     OW10777   1.950   0.824   0.775
 3414SOL    HW110778   2.030   0.815   0.827
 3414SOL    HW210779   1.906   0.900   0.812
 3415SOL     OW10780   2.736   0.361   0.222
 3415SOL    HW110781   2.772   0.419   0.155
 3415SOL    HW210782   2.738   0.274   0.182
 3416SOL     OW10783   3.568   0.573   1.830
 3416SOL    HW110784   3.532   0.647   1.782
 3416SOL    HW210785   3.594   0.511   1.761
 3417SOL     OW10786   3.239   1.141   0.542
 3417SOL    HW110787   3.319   1.130   0.490
 3417SOL    HW210788   3.187   1.205   0.493
 3418SOL     OW10789   2.420   0.199   0.881
 3418SOL    HW110790   2.423   0.219   0.975
 3418SOL    HW210791   2.416   0.284   0.838
 3419SOL     OW10792   2.864   1.440   0.475
 3419SOL    HW110793   2.834   1.515   0.423
 3419SOL    HW210794   2.841   1.462   0.565
 3420SOL     OW10795   2.218   1.798   0.863
 3420SOL    HW110796   2.254   1.710   0.874
 3420SOL    HW210797   2.287   1.856   0.896
 3421SOL     OW10798   3.667   1.062   0.869
 3421SOL    HW110799   3.614   1.036   0.794
 3421SOL    HW210800   3.606   1.065   0.942
 3422SOL     OW10801   3.088   1.540   1.514
 3422SOL    HW110802   3.076   1.467   1.575
 3422SOL    HW210803   3.024   1.523   1.445
 3423SOL     OW10804   2.169   0.937   0.231
 3423SOL    HW110805   2.261   0.950   0.208
 3423SOL    HW210806   2.155   0.843   0.226
 3424SOL     OW10807   3.340   0.750   0.731
 3424SOL    HW110808   3.336   0.707   0.816
 3424SOL    HW210809   3.418   0.805   0.734
 3425SOL     OW10810   2.331   1.265   1.739
 3425SOL    HW110811   2.305   1.268   1.647
 3425SOL    HW210812   2.249   1.262   1.787
 3426SOL     OW10813   2.984   1.781   0.227
 3426SOL    HW110814   2.922   1.734   0.283
 3426SOL    HW210815   3.015   1.716   0.165
 3427SOL     OW10816   2.031   0.274   1.500
 3427SOL    HW110817   1.976   0.352   1.488
 3427SOL    HW210818   2.036   0.262   1.594
 3428SOL     OW10819   3.494   1.375   0.090
 3428SOL    HW110820   3.463   1.459   0.058
 3428SOL    HW210821   3.424   1.313   0.068
 3429SOL     OW10822   2.341   1.719   0.330
 3429SOL    HW110823   2.380   1.791   0.379
 3429SOL    HW210824   2.406   1.698   0.263
 3430SOL     OW10825   3.299   0.138   0.390
 3430SOL    HW110826   3.255   0.054   0.403
 3430SOL    HW210827   3.383   0.128   0.435
 3431SOL     OW10828   2.154   1.764   1.218
 3431SOL    HW110829   2.193   1.682   1.248
 3431SOL    HW210830   2.112   1.741   1.135
 3432SOL     OW10831   2.799   1.699   0.898
 3432SOL    HW110832   2.879   1.650   0.919
 3432SOL    HW210833   2.758   1.648   0.828
 3433SOL     OW10834   2.256   0.695   0.471
 3433SOL    HW110835   2.276   0.603   0.486
 3433SOL    HW210836   2.163   0.703   0.494
 3434SOL     OW10837   3.392   0.229   1.727
 3434SOL    HW110838   3.383   0.254   1.819
 3434SOL    HW210839   3.376   0.134   1.726
 3435SOL     OW10840   2.482   0.104   0.119
 3435SOL    HW110841   2.578   0.103   0.127
 3435SOL    HW210842   2.466   0.132   0.029
 3436SOL     OW10843   2.636   0.282   1.770
 3436SOL    HW110844   2.711   0.222   1.773
 3436SOL    HW210845   2.580   0.254   1.842
 3437SOL     OW10846   2.738   1.522   1.194
 3437SOL    HW110847   2.722   1.486   1.107
 3437SOL    HW210848   2.808   1.468   1.231
 3438SOL     OW10849   3.202   0.587   1.431
 3438SOL    HW110850   3.232   0.559   1.517
 3438SOL    HW210851   3.236   0.676   1.421
 3439SOL     OW10852   2.679   1.392   0.943
 3439SOL    HW110853   2.764   1.380   0.901
 3439SOL    HW210854   2.617   1.396   0.871
 3440SOL     OW10855   2.792   0.512   0.899
 3440SOL    HW110856   2.767   0.504   0.807
 3440SOL    HW210857   2.818   0.423   0.925
 3441SOL     OW10858   2.411   0.052   0.500
 3441SOL    HW110859   2.335   0.058   0.558
 3441SOL    HW210860   2.403   0.128   0.442
 3442SOL     OW10861   3.291   1.207   0.043
 3442SOL    HW110862   3.310   1.127   0.093
 3442SOL    HW210863   3.200   1.228   0.065
 3443SOL     OW10864   2.201   0.008   0.188
 3443SOL    HW110865   2.172   0.087   0.143
 3443SOL    HW210866   2.289   0.029   0.219
 3444SOL     OW10867   2.806   0.250   0.466
 3444SOL    HW110868   2.774   0.289   0.384
 3444SOL    HW210869   2.901   0.252   0.458
 3445SOL     OW10870   2.942   0.685   1.458
 3445SOL    HW110871   2.872   0.619   1.465
 3445SOL    HW210872   3.022   0.633   1.453
 3446SOL     OW10873   3.081   1.573   0.795
 3446SOL    HW110874   3.098   1.637   0.727
 3446SOL    HW210875   3.153   1.586   0.858
 3447SOL     OW10876   2.333   1.152   0.728
 3447SOL    HW110877   2.265   1.132   0.793
 3447SOL    HW210878   2.289   1.139   0.644
 3448SOL     OW10879   3.127   1.794   0.609
 3448SOL    HW110880   3.177   1.856   0.556
 3448SOL    HW210881   3.060   1.847   0.652
 3449SOL     OW10882   2.859   0.532   0.052
 3449SOL    HW110883   2.858   0.527  13.856
 3449SOL    HW210884   2.951   0.549   0.074
 3450SOL     OW10885   1.944   0.550   1.396
 3450SOL    HW110886   2.036   0.552   1.367
 3450SOL    HW210887   1.937   0.623   1.458
 3451SOL     OW10888   2.425   0.231   1.161
 3451SOL    HW110889   2.448   0.139   1.170
 3451SOL    HW210890   2.335   0.236   1.194
 3452SOL     OW10891   2.732   0.462   0.638
 3452SOL    HW110892   2.687   0.516   0.573
 3452SOL    HW210893   2.753   0.381   0.591
 3453SOL     OW10894   2.859   0.039   0.779
 3453SOL    HW110895   2.817   0.068   0.698
 3453SOL    HW210896   2.870   3.945   0.768
 3454SOL     OW10897   3.302   1.161   0.858
 3454SOL    HW110898   3.230   1.097   0.855
 3454SOL    HW210899   3.328   1.171   0.766
 3455SOL     OW10900   3.326   0.609   0.973
 3455SOL    HW110901   3.271   0.530   0.978
 3455SOL    HW210902   3.385   0.601   1.048
 3456SOL     OW10903   3.725   0.825   0.374
 3456SOL    HW110904   3.763   0.768   0.440
 3456SOL    HW210905   3.679   0.766   0.314
 3457SOL     OW10906   2.348   1.408   0.154
 3457SOL    HW110907   2.275   1.374   0.206
 3457SOL    HW210908   2.333   1.374   0.066
 3458SOL     OW10909   3.529   1.264   0.646
 3458SOL    HW110910   3.624   1.267   0.655
 3458SOL    HW210911   3.501   1.354   0.659
 3459SOL     OW10912   3.284   0.590   0.088
 3459SOL    HW110913   3.215   0.579   0.153
 3459SOL    HW210914   3.333   0.508   0.090
 3460SOL     OW10915   2.379   0.254   0.323
 3460SOL    HW110916   2.422   0.209   0.251
 3460SOL    HW210917   2.356   0.340   0.287
 3461SOL     OW10918   3.613   1.233   1.564
 3461SOL    HW110919   3.700   1.199   1.547
 3461SOL    HW210920   3.628   1.323   1.594
 3462SOL     OW10921   2.918   1.354   1.333
 3462SOL    HW110922   2.843   1.322   1.383
 3462SOL    HW210923   2.994   1.312   1.374
 3463SOL     OW10924   3.468   1.629   1.656
 3463SOL    HW110925   3.460   1.663   1.568
 3463SOL    HW210926   3.548   1.576   1.655
 3464SOL     OW10927   2.995   1.208   1.103
 3464SOL    HW110928   2.934   1.245   1.167
 3464SOL    HW210929   2.964   1.241   1.019
 3465SOL     OW10930   3.489   1.095   1.075
 3465SOL    HW110931   3.480   1.157   1.147
 3465SOL    HW210932   3.413   1.112   1.019
 3466SOL     OW10933   2.774   0.117   1.401
 3466SOL    HW110934   2.794   0.089   1.312
 3466SOL    HW210935   2.854   0.159   1.432
 3467SOL     OW10936   2.846   1.115   1.724
 3467SOL    HW110937   2.755   1.132   1.747
 3467SOL    HW210938   2.843   1.037   1.669
 3468SOL     OW10939   2.578   1.060   0.377
 3468SOL    HW110940   2.563   1.040   0.470
 3468SOL    HW210941   2.652   1.004   0.353
 3469SOL     OW10942   2.283   0.816   1.251
 3469SOL    HW110943   2.351   0.825   1.318
 3469SOL    HW210944   2.248   0.728   1.264
 3470SOL     OW10945   3.128   0.375   1.277
 3470SOL    HW110946   3.162   0.453   1.321
 3470SOL    HW210947   3.041   0.400   1.247
 3471SOL     OW10948   1.935   1.578   1.354
 3471SOL    HW110949   1.900   1.642   1.291
 3471SOL    HW210950   2.029   1.580   1.340
 3472SOL     OW10951   2.205   1.114   0.486
 3472SOL    HW110952   2.203   1.186   0.423
 3472SOL    HW210953   2.213   1.035   0.433
 3473SOL     OW10954   2.416   0.530   0.857
 3473SOL    HW110955   2.429   0.590   0.783
 3473SOL    HW210956   2.481   0.557   0.922
 3474SOL     OW10957   3.110   1.347   0.398
 3474SOL    HW110958   3.166   1.420   0.425
 3474SOL    HW210959   3.023   1.370   0.431
 3475SOL     OW10960   3.148   1.460   1.148
 3475SOL    HW110961   3.204   1.464   1.226
 3475SOL    HW210962   3.093   1.383   1.162
 3476SOL     OW10963   3.437   0.633   0.492
 3476SOL    HW110964   3.394   0.693   0.553
 3476SOL    HW210965   3.471   0.690   0.423
 3477SOL     OW10966   2.214   1.514   1.316
 3477SOL    HW110967   2.200   1.470   1.232
 3477SOL    HW210968   2.309   1.525   1.322
 3478SOL     OW10969   2.280   0.745   1.602
 3478SOL    HW110970   2.342   0.789   1.544
 3478SOL    HW210971   2.322   0.660   1.620
 3479SOL     OW10972   3.467   0.779   1.684
 3479SOL    HW110973   3.382   0.822   1.678
 3479SOL    HW210974   3.520   0.821   1.617
 3480SOL     OW10975   2.873   0.135   1.781
 3480SOL    HW110976   2.926   0.206   1.744
 3480SOL    HW210977   2.858   0.076   1.707
 3481SOL     OW10978   2.351   0.034   1.761
 3481SOL    HW110979   2.352   0.048   1.667
 3481SOL    HW210980   2.291   0.101   1.795
 3482SOL     OW10981   2.445   0.874   1.031
 3482SOL    HW110982   2.477   0.965   1.034
 3482SOL    HW210983   2.389   0.866   1.108
 3483SOL     OW10984   3.213   0.859   1.025
 3483SOL    HW110985   3.129   0.846   0.983
 3483SOL    HW210986   3.258   0.774   1.017
 3484SOL     OW10987   3.079   0.551   0.266
 3484SOL    HW110988   3.086   0.471   0.318
 3484SOL    HW210989   3.022   0.609   0.318
 3485SOL     OW10990   2.161   0.209   1.243
 3485SOL    HW110991   2.119   0.237   1.325
 3485SOL    HW210992   2.150   0.114   1.243
 3486SOL     OW10993   1.906   1.313   1.277
 3486SOL    HW110994   1.940   1.258   1.347
 3486SOL    HW210995   1.914   1.402   1.312
 3487SOL     OW10996   2.584   0.632   1.051
 3487SOL    HW110997   2.660   0.619   0.995
 3487SOL    HW210998   2.554   0.721   1.032
 3488SOL     OW10999   3.594   0.957   1.863
 3488SOL    HW111000   3.552   0.894   1.805
 3488SOL    HW211001   3.529   0.973   1.933
 3489SOL     OW11002   2.184   0.055   0.653
 3489SOL    HW111003   2.164   0.148   0.664
 3489SOL    HW211004   2.148   0.013   0.731
 3490SOL     OW11005   3.436   0.389   0.390
 3490SOL    HW111006   3.418   0.328   0.461
 3490SOL    HW211007   3.430   0.476   0.430
 3491SOL     OW11008   2.891   0.759   0.958
 3491SOL    HW111009   2.884   0.776   1.052
 3491SOL    HW211010   2.864   0.668   0.948
 3492SOL     OW11011   2.844   1.567   1.720
 3492SOL    HW111012   2.829   1.610   1.636
 3492SOL    HW211013   2.887   1.484   1.697
 3493SOL     OW11014   3.704   1.497   1.598
 3493SOL    HW111015   3.728   1.527   1.510
 3493SOL    HW211016   3.784   1.507   1.649
 3494SOL     OW11017   2.214   0.915   1.809
 3494SOL    HW111018   2.295   0.935   1.856
 3494SOL    HW211019   2.240   0.853   1.741
 3495SOL     OW11020   3.384   0.274   0.144
 3495SOL    HW111021   3.325   0.198   0.148
 3495SOL    HW211022   3.391   0.304   0.234
 3496SOL     OW11023   3.150   0.832   0.056
 3496SOL    HW111024   3.197   0.749   0.061
 3496SOL    HW211025   3.167   0.864  13.867
 3497SOL     OW11026   2.930   1.337   0.856
 3497SOL    HW111027   2.934   1.265   0.793
 3497SOL    HW211028   2.989   1.404   0.821
 3498SOL     OW11029   2.170   0.810   0.945
 3498SOL    HW111030   2.263   0.831   0.940
 3498SOL    HW211031   2.167   0.720   0.977
 3499SOL     OW11032   2.198   0.537   1.014
 3499SOL    HW111033   2.157   0.452   0.999
 3499SOL    HW211034   2.274   0.537   0.956
 3500SOL     OW11035   2.995   0.380   1.697
 3500SOL    HW111036   2.946   0.434   1.759
 3500SOL    HW211037   3.081   0.421   1.693
 3501SOL     OW11038   3.014   0.226   1.481
 3501SOL    HW111039   3.004   0.280   1.560
 3501SOL    HW211040   3.039   0.288   1.413
 3502SOL     OW11041   1.885   1.306   0.173
 3502SOL    HW111042   1.801   1.320   0.129
 3502SOL    HW211043   1.876   1.222   0.217
 3503SOL     OW11044   1.981   1.709   0.980
 3503SOL    HW111045   1.938   1.654   0.914
 3503SOL    HW211046   2.044   1.761   0.930
 3504SOL     OW11047   2.360   1.567   0.909
 3504SOL    HW111048   2.428   1.631   0.932
 3504SOL    HW211049   2.404   1.506   0.850
 3505SOL     OW11050   2.839   0.787   1.223
 3505SOL    HW111051   2.896   0.769   1.298
 3505SOL    HW211052   2.754   0.751   1.249
 3506SOL     OW11053   1.895   0.549   1.117
 3506SOL    HW111054   1.969   0.521   1.063
 3506SOL    HW211055   1.929   0.547   1.206
 3507SOL     OW11056   2.066   0.527   1.712
 3507SOL    HW111057   2.137   0.506   1.652
 3507SOL    HW211058   2.022   0.603   1.673
 3508SOL     OW11059   3.242   0.935   1.657
 3508SOL    HW111060   3.263   1.029   1.654
 3508SOL    HW211061   3.237   0.909   1.565
 3509SOL     OW11062   2.677   0.580   0.376
 3509SOL    HW111063   2.687   0.503   0.321
 3509SOL    HW211064   2.604   0.628   0.337
 3510SOL     OW11065   3.501   0.602   1.182
 3510SOL    HW111066   3.490   0.542   1.255
 3510SOL    HW211067   3.587   0.581   1.146
 3511SOL     OW11068   2.113   1.540   1.706
 3511SOL    HW111069   2.093   1.608   1.770
 3511SOL    HW211070   2.118   1.459   1.758
 3512SOL     OW11071   2.572   0.452   1.254
 3512SOL    HW111072   2.520   0.375   1.231
 3512SOL    HW211073   2.562   0.512   1.180
 3513SOL     OW11074   2.784   1.679   1.470
 3513SOL    HW111075   2.762   1.641   1.386
 3513SOL    HW211076   2.780   1.774   1.456
 3514SOL     OW11077   2.295   0.492   0.230
 3514SOL    HW111078   2.369   0.551   0.244
 3514SOL    HW211079   2.226   0.548   0.193
 3515SOL     OW11080   2.003   1.141   1.473
 3515SOL    HW111081   2.006   1.093   1.556
 3515SOL    HW211082   2.021   1.076   1.406
 3516SOL     OW11083   3.183   1.044   1.222
 3516SOL    HW111084   3.206   0.981   1.153
 3516SOL    HW211085   3.116   1.100   1.182
 3517SOL     OW11086   3.178   0.857   0.327
 3517SOL    HW111087   3.104   0.825   0.379
 3517SOL    HW211088   3.152   0.843   0.236
 3518SOL     OW11089   3.644   1.740   1.158
 3518SOL    HW111090   3.698   1.768   1.085
 3518SOL    HW211091   3.613   1.653   1.134
 3519SOL     OW11092   3.102   1.734   1.109
 3519SOL    HW111093   3.184   1.757   1.066
 3519SOL    HW211094   3.111   1.640   1.128
 3520SOL     OW11095   1.951   1.262   1.015
 3520SOL    HW111096   1.932   1.279   1.107
 3520SOL    HW211097   1.876   1.211   0.984
 3521SOL     OW11098   2.544   1.665   1.732
 3521SOL    HW111099   2.492   1.746   1.730
 3521SOL    HW211100   2.613   1.679   1.668
 3522SOL     OW11101   2.758   0.103   0.133
 3522SOL    HW111102   2.799   0.091   0.047
 3522SOL    HW211103   2.768   0.018   0.176
 3523SOL     OW11104   3.553   0.123   0.484
 3523SOL    HW111105   3.635   0.135   0.436
 3523SOL    HW211106   3.553   0.031   0.509
 3524SOL     OW11107   3.252   1.572   0.487
 3524SOL    HW111108   3.315   1.606   0.423
 3524SOL    HW211109   3.205   1.649   0.518
 3525SOL     OW11110   2.027   1.740   1.863
 3525SOL    HW111111   1.964   1.689   1.915
 3525SOL    HW211112   2.008   1.831   1.886
 3526SOL     OW11113   3.138   0.928   0.671
 3526SOL    HW111114   3.212   0.869   0.683
 3526SOL    HW211115   3.172   0.999   0.618
 3527SOL     OW11116   2.671   1.275   1.426
 3527SOL    HW111117   2.642   1.315   1.508
 3527SOL    HW211118   2.600   1.295   1.364
 3528SOL     OW11119   2.544   1.588   0.181
 3528SOL    HW111120   2.531   1.628   0.095
 3528SOL    HW211121   2.486   1.512   0.181
 3529SOL     OW11122   3.481   1.727   1.391
 3529SOL    HW111123   3.537   1.732   1.314
 3529SOL    HW211124   3.467   1.819   1.416
 3530SOL     OW11125   3.704   0.182   0.970
 3530SOL    HW111126   3.729   0.097   0.933
 3530SOL    HW211127   3.618   0.200   0.933
 3531SOL     OW11128   2.125   0.316   0.716
 3531SOL    HW111129   2.038   0.351   0.694
 3531SOL    HW211130   2.123   0.307   0.812
 3532SOL     OW11131   3.081   1.600   0.036
 3532SOL    HW111132   3.070   1.509   0.062
 3532SOL    HW211133   3.044   1.605  13.848
 3533SOL     OW11134   2.686   1.006   1.373
 3533SOL    HW111135   2.728   1.001   1.288
 3533SOL    HW211136   2.683   1.099   1.394
 3534SOL     OW11137   2.783   0.910   0.288
 3534SOL    HW111138   2.853   0.951   0.236
 3534SOL    HW211139   2.827   0.841   0.337
 3535SOL     OW11140   3.347   1.647   0.067
 3535SOL    HW111141   3.254   1.627   0.058
 3535SOL    HW211142   3.383   1.635  13.879
 3536SOL     OW11143   2.232   1.297   1.493
 3536SOL    HW111144   2.220   1.375   1.440
 3536SOL    HW211145   2.153   1.244   1.478
 3537SOL     OW11146   3.462   1.280   1.277
 3537SOL    HW111147   3.530   1.271   1.343
 3537SOL    HW211148   3.405   1.349   1.310
 3538SOL     OW11149   2.919   1.109   0.709
 3538SOL    HW111150   2.847   1.058   0.747
 3538SOL    HW211151   2.983   1.044   0.681
 3539SOL     OW11152   2.877   0.249   0.970
 3539SOL    HW111153   2.867   0.199   0.889
 3539SOL    HW211154   2.873   0.184   1.039
 3540SOL     OW11155   2.468   1.489   0.481
 3540SOL    HW111156   2.512   1.438   0.413
 3540SOL    HW211157   2.405   1.543   0.433
 3541SOL     OW11158   3.583   0.394   1.371
 3541SOL    HW111159   3.655   0.457   1.372
 3541SOL    HW211160   3.614   0.322   1.317
 3542SOL     OW11161   2.132   1.319   0.298
 3542SOL    HW111162   2.049   1.329   0.251
 3542SOL    HW211163   2.119   1.365   0.381
 3543SOL     OW11164   1.976   1.028   1.722
 3543SOL    HW111165   1.899   1.003   1.774
 3543SOL    HW211166   2.050   0.987   1.767
 3544SOL     OW11167   2.556   0.258   1.502
 3544SOL    HW111168   2.622   0.202   1.461
 3544SOL    HW211169   2.583   0.263   1.594
 3545SOL     OW11170   1.900   0.443   0.008
 3545SOL    HW111171   1.870   0.354   0.025
 3545SOL    HW211172   1.898   0.450  13.812
 3546SOL     OW11173   3.286   0.856   1.397
 3546SOL    HW111174   3.237   0.918   1.344
 3546SOL    HW211175   3.375   0.859   1.361
 3547SOL     OW11176   1.943   0.145   0.370
 3547SOL    HW111177   1.914   0.227   0.329
 3547SOL    HW211178   2.029   0.128   0.332
 3548SOL     OW11179   3.049   1.344   0.122
 3548SOL    HW111180   2.954   1.336   0.111
 3548SOL    HW211181   3.063   1.333   0.216
 3549SOL     OW11182   2.484   0.829   1.434
 3549SOL    HW111183   2.540   0.904   1.419
 3549SOL    HW211184   2.544   0.755   1.443
 3550SOL     OW11185   3.344   1.783   0.981
 3550SOL    HW111186   3.367   1.845   0.912
 3550SOL    HW211187   3.428   1.753   1.015
 3551SOL     OW11188   2.580   0.560   1.704
 3551SOL    HW111189   2.623   0.622   1.763
 3551SOL    HW211190   2.604   0.474   1.738
 3552SOL     OW11191   3.335   1.196   1.630
 3552SOL    HW111192   3.324   1.211   1.724
 3552SOL    HW211193   3.428   1.213   1.614
 3553SOL     OW11194   2.236   1.746   1.567
 3553SOL    HW111195   2.165   1.764   1.505
 3553SOL    HW211196   2.210   1.663   1.609
 3554SOL     OW11197   3.526   0.880   1.259
 3554SOL    HW111198   3.525   0.795   1.215
 3554SOL    HW211199   3.519   0.944   1.188
 3555SOL     OW11200   3.092   0.335   0.433
 3555SOL    HW111201   3.155   0.263   0.428
 3555SOL    HW211202   3.109   0.376   0.518
 3556SOL     OW11203   2.450   0.735   0.672
 3556SOL    HW111204   2.489   0.821   0.658
 3556SOL    HW211205   2.384   0.727   0.603
 3557SOL     OW11206   3.616   0.381   1.642
 3557SOL    HW111207   3.595   0.390   1.549
 3557SOL    HW211208   3.555   0.314   1.673
 3558SOL     OW11209   3.617   0.930   1.513
 3558SOL    HW111210   3.607   1.023   1.531
 3558SOL    HW211211   3.592   0.920   1.421
 3559SOL     OW11212   2.772   1.398   0.067
 3559SOL    HW111213   2.705   1.384   0.133
 3559SOL    HW211214   2.724   1.401  13.884
 3560SOL     OW11215   2.522   1.791   0.940
 3560SOL    HW111216   2.507   1.882   0.914
 3560SOL    HW211217   2.617   1.780   0.933
 3561SOL     OW11218   2.731   0.969   0.854
 3561SOL    HW111219   2.781   0.897   0.892
 3561SOL    HW211220   2.693   1.015   0.929
 3562SOL     OW11221   2.959   1.014   0.111
 3562SOL    HW111222   2.949   1.059   0.028
 3562SOL    HW211223   3.033   0.955   0.098
 3563SOL     OW11224   3.713   1.555   0.840
 3563SOL    HW111225   3.634   1.541   0.789
 3563SOL    HW211226   3.710   1.489   0.909
 3564SOL     OW11227   2.089   1.301   1.855
 3564SOL    HW111228   2.023   1.237   1.827
 3564SOL    HW211229   2.073   1.312   1.948
 3565SOL     OW11230   1.943   1.218   0.665
 3565SOL    HW111231   1.959   1.174   0.749
 3565SOL    HW211232   2.019   1.196   0.612
 3566SOL     OW11233   2.544   1.405   1.628
 3566SOL    HW111234   2.465   1.362   1.662
 3566SOL    HW211235   2.541   1.493   1.666
 3567SOL     OW11236   3.676   0.181   1.244
 3567SOL    HW111237   3.677   0.086   1.253
 3567SOL    HW211238   3.694   0.197   1.151
 3568SOL     OW11239   2.294   0.436   0.533
 3568SOL    HW111240   2.326   0.364   0.479
 3568SOL    HW211241   2.244   0.392   0.603
 3569SOL     OW11242   3.558   1.490   1.095
 3569SOL    HW111243   3.480   1.468   1.044
 3569SOL    HW211244   3.567   1.419   1.158
 3570SOL     OW11245   2.194   0.557   1.295
 3570SOL    HW111246   2.247   0.497   1.349
 3570SOL    HW211247   2.213   0.530   1.205
 3571SOL     OW11248   2.693   1.578   0.677
 3571SOL    HW111249   2.676   1.641   0.607
 3571SOL    HW211250   2.617   1.519   0.674
 3572SOL     OW11251   3.323   0.253   1.110
 3572SOL    HW111252   3.337   0.165   1.145
 3572SOL    HW211253   3.267   0.296   1.175
 3573SOL     OW11254   2.866   0.026   1.146
 3573SOL    HW111255   2.783   3.994   1.109
 3573SOL    HW211256   2.920   3.948   1.155
 3574SOL     OW11257   2.638   1.323   0.320
 3574SOL    HW111258   2.609   1.233   0.338
 3574SOL    HW211259   2.719   1.332   0.369
 3575SOL     OW11260   2.483   1.554   1.286
 3575SOL    HW111261   2.484   1.637   1.334
 3575SOL    HW211262   2.572   1.547   1.250
 3576SOL     OW11263   3.180   0.067   0.123
 3576SOL    HW111264   3.198   3.977   0.096
 3576SOL    HW211265   3.118   0.058   0.196
 3577SOL     OW11266   3.141   0.454   0.682
 3577SOL    HW111267   3.095   0.538   0.676
 3577SOL    HW211268   3.145   0.436   0.776
 3578SOL     OW11269   3.453   0.210   0.867
 3578SOL    HW111270   3.404   0.233   0.947
 3578SOL    HW211271   3.451   0.290   0.814
 3579SOL     OW11272   1.902   1.069   0.311
 3579SOL    HW111273   1.998   1.066   0.310
 3579SOL    HW211274   1.876   0.980   0.331
 3580SOL     OW11275   2.760   1.654   0.341
 3580SOL    HW111276   2.683   1.628   0.291
 3580SOL    HW211277   2.730   1.727   0.395
 3581SOL     OW11278   2.088   0.620   1.983
 3581SOL    HW111279   1.998   0.628   2.015
 3581SOL    HW211280   2.079   0.599   1.890
 3582SOL     OW11281   2.078   0.301   2.854
 3582SOL    HW111282   2.116   0.257   2.930
 3582SOL    HW211283   1.994   0.259   2.841
 3583SOL     OW11284   1.871   0.398   2.494
 3583SOL    HW111285   1.784   0.413   2.532
 3583SOL    HW211286   1.857   0.329   2.430
 3584SOL     OW11287   2.431   1.292   3.041
 3584SOL    HW111288   2.344   1.297   3.000
 3584SOL    HW211289   2.447   1.381   3.072
 3585SOL     OW11290   3.427   1.513   2.570
 3585SOL    HW111291   3.385   1.491   2.653
 3585SOL    HW211292   3.356   1.518   2.507
 3586SOL     OW11293   2.995   0.698   2.558
 3586SOL    HW111294   3.042   0.780   2.546
 3586SOL    HW211295   2.947   0.710   2.640
 3587SOL     OW11296   3.625   0.624   2.088
 3587SOL    HW111297   3.606   0.612   1.994
 3587SOL    HW211298   3.605   0.539   2.127
 3588SOL     OW11299   2.613   1.139   2.907
 3588SOL    HW111300   2.546   1.176   2.964
 3588SOL    HW211301   2.650   1.216   2.862
 3589SOL     OW11302   2.734   0.768   3.686
 3589SOL    HW111303   2.720   0.838   3.749
 3589SOL    HW211304   2.756   0.813   3.604
 3590SOL     OW11305   2.548   0.999   2.507
 3590SOL    HW111306   2.613   0.990   2.576
 3590SOL    HW211307   2.479   1.053   2.546
 3591SOL     OW11308   2.575   1.149   3.678
 3591SOL    HW111309   2.622   1.227   3.708
 3591SOL    HW211310   2.494   1.184   3.641
 3592SOL     OW11311   2.194   1.415   2.930
 3592SOL    HW111312   2.118   1.381   2.884
 3592SOL    HW211313   2.240   1.469   2.865
 3593SOL     OW11314   3.321   1.502   3.221
 3593SOL    HW111315   3.375   1.580   3.230
 3593SOL    HW211316   3.255   1.510   3.290
 3594SOL     OW11317   2.308   0.392   3.354
 3594SOL    HW111318   2.399   0.362   3.354
 3594SOL    HW211319   2.256   0.312   3.362
 3595SOL     OW11320   3.472   0.450   2.597
 3595SOL    HW111321   3.404   0.483   2.539
 3595SOL    HW211322   3.493   0.523   2.655
 3596SOL     OW11323   2.101   1.697   2.328
 3596SOL    HW111324   2.133   1.764   2.388
 3596SOL    HW211325   2.172   1.686   2.264
 3597SOL     OW11326   2.999   1.342   3.556
 3597SOL    HW111327   3.040   1.336   3.642
 3597SOL    HW211328   2.947   1.262   3.549
 3598SOL     OW11329   2.089   1.433   2.398
 3598SOL    HW111330   2.081   1.529   2.393
 3598SOL    HW211331   2.028   1.407   2.467
 3599SOL     OW11332   2.125   1.091   2.753
 3599SOL    HW111333   2.120   1.003   2.791
 3599SOL    HW211334   2.068   1.144   2.808
 3600SOL     OW11335   2.469   1.793   3.289
 3600SOL    HW111336   2.389   1.774   3.338
 3600SOL    HW211337   2.495   1.880   3.317
 3601SOL     OW11338   2.443   0.984   2.000
 3601SOL    HW111339   2.491   1.030   1.931
 3601SOL    HW211340   2.482   1.015   2.081
 3602SOL     OW11341   3.444   0.142   3.318
 3602SOL    HW111342   3.471   0.214   3.262
 3602SOL    HW211343   3.406   0.184   3.395
 3603SOL     OW11344   1.980   0.657   2.422
 3603SOL    HW111345   1.952   0.568   2.445
 3603SOL    HW211346   1.972   0.707   2.504
 3604SOL     OW11347   3.703   1.757   2.197
 3604SOL    HW111348   3.773   1.733   2.258
 3604SOL    HW211349   3.720   1.849   2.176
 3605SOL     OW11350   1.863   1.601   2.026
 3605SOL    HW111351   1.852   1.508   2.008
 3605SOL    HW211352   1.890   1.605   2.118
 3606SOL     OW11353   3.550   0.918   2.509
 3606SOL    HW111354   3.634   0.875   2.493
 3606SOL    HW211355   3.533   0.968   2.429
 3607SOL     OW11356   3.504   1.104   2.294
 3607SOL    HW111357   3.589   1.109   2.250
 3607SOL    HW211358   3.510   1.167   2.365
 3608SOL     OW11359   1.985   0.750   3.442
 3608SOL    HW111360   2.075   0.782   3.446
 3608SOL    HW211361   1.931   0.829   3.448
 3609SOL     OW11362   2.477   1.388   2.596
 3609SOL    HW111363   2.432   1.304   2.605
 3609SOL    HW211364   2.460   1.415   2.506
 3610SOL     OW11365   3.148   1.237   3.284
 3610SOL    HW111366   3.180   1.170   3.224
 3610SOL    HW211367   3.208   1.232   3.359
 3611SOL     OW11368   2.682   0.005   2.380
 3611SOL    HW111369   2.728   0.085   2.354
 3611SOL    HW211370   2.590   0.029   2.379
 3612SOL     OW11371   2.051   0.962   3.139
 3612SOL    HW111372   2.136   0.922   3.123
 3612SOL    HW211373   1.991   0.913   3.082
 3613SOL     OW11374   3.390   0.997   2.063
 3613SOL    HW111375   3.321   0.940   2.097
 3613SOL    HW211376   3.432   1.032   2.141
 3614SOL     OW11377   3.045   1.810   3.486
 3614SOL    HW111378   3.054   1.870   3.411
 3614SOL    HW211379   3.064   1.723   3.449
 3615SOL     OW11380   2.220   0.252   3.706
 3615SOL    HW111381   2.265   0.337   3.706
 3615SOL    HW211382   2.127   0.274   3.708
 3616SOL     OW11383   3.329   1.420   2.810
 3616SOL    HW111384   3.262   1.435   2.877
 3616SOL    HW211385   3.317   1.328   2.785
 3617SOL     OW11386   3.514   1.748   2.441
 3617SOL    HW111387   3.499   1.715   2.352
 3617SOL    HW211388   3.495   1.673   2.498
 3618SOL     OW11389   2.457   0.719   2.131
 3618SOL    HW111390   2.460   0.803   2.084
 3618SOL    HW211391   2.392   0.734   2.200
 3619SOL     OW11392   3.136   0.370   2.803
 3619SOL    HW111393   3.049   0.331   2.811
 3619SOL    HW211394   3.194   0.308   2.848
 3620SOL     OW11395   3.439   1.672   2.172
 3620SOL    HW111396   3.530   1.700   2.166
 3620SOL    HW211397   3.412   1.656   2.082
 3621SOL     OW11398   2.658   0.616   3.313
 3621SOL    HW111399   2.629   0.590   3.401
 3621SOL    HW211400   2.620   0.549   3.255
 3622SOL     OW11401   3.254   0.476   3.539
 3622SOL    HW111402   3.260   0.521   3.623
 3622SOL    HW211403   3.311   0.399   3.550
 3623SOL     OW11404   2.813   0.887   3.447
 3623SOL    HW111405   2.869   0.818   3.410
 3623SOL    HW211406   2.765   0.922   3.372
 3624SOL     OW11407   2.855   0.402   3.099
 3624SOL    HW111408   2.770   0.422   3.138
 3624SOL    HW211409   2.835   0.375   3.010
 3625SOL     OW11410   2.914   0.700   2.287
 3625SOL    HW111411   2.932   0.693   2.381
 3625SOL    HW211412   2.831   0.654   2.274
 3626SOL     OW11413   1.949   0.823   2.639
 3626SOL    HW111414   2.029   0.815   2.690
 3626SOL    HW211415   1.905   0.900   2.675
 3627SOL     OW11416   2.757   0.353   2.062
 3627SOL    HW111417   2.799   0.412   1.999
 3627SOL    HW211418   2.749   0.270   2.014
 3628SOL     OW11419   3.568   0.573   3.692
 3628SOL    HW111420   3.532   0.647   3.644
 3628SOL    HW211421   3.594   0.511   3.623
 3629SOL     OW11422   3.239   1.141   2.402
 3629SOL    HW111423   3.319   1.130   2.350
 3629SOL    HW211424   3.187   1.204   2.352
 3630SOL     OW11425   2.420   0.199   2.742
 3630SOL    HW111426   2.423   0.218   2.836
 3630SOL    HW211427   2.416   0.285   2.700
 3631SOL     OW11428   2.864   1.442   2.332
 3631SOL    HW111429   2.831   1.517   2.281
 3631SOL    HW211430   2.842   1.464   2.423
 3632SOL     OW11431   2.219   1.802   2.725
 3632SOL    HW111432   2.255   1.714   2.736
 3632SOL    HW211433   2.288   1.860   2.757
 3633SOL     OW11434   3.668   1.062   2.730
 3633SOL    HW111435   3.614   1.036   2.655
 3633SOL    HW211436   3.606   1.065   2.803
 3634SOL     OW11437   3.088   1.540   3.376
 3634SOL    HW111438   3.076   1.467   3.437
 3634SOL    HW211439   3.024   1.523   3.307
 3635SOL     OW11440   2.179   0.961   2.115
 3635SOL    HW111441   2.262   0.979   2.070
 3635SOL    HW211442   2.150   0.877   2.077
 3636SOL     OW11443   3.343   0.748   2.590
 3636SOL    HW111444   3.337   0.707   2.676
 3636SOL    HW211445   3.420   0.804   2.595
 3637SOL     OW11446   2.331   1.265   3.601
 3637SOL    HW111447   2.305   1.268   3.509
 3637SOL    HW211448   2.249   1.262   3.649
 3638SOL     OW11449   2.985   1.778   2.091
 3638SOL    HW111450   2.911   1.737   2.135
 3638SOL    HW211451   3.010   1.715   2.023
 3639SOL     OW11452   2.031   0.274   3.362
 3639SOL    HW111453   1.977   0.352   3.350
 3639SOL    HW211454   2.036   0.263   3.457
 3640SOL     OW11455   3.487   1.384   1.949
 3640SOL    HW111456   3.443   1.468   1.935
 3640SOL    HW211457   3.419   1.319   1.929
 3641SOL     OW11458   2.342   1.709   2.198
 3641SOL    HW111459   2.381   1.785   2.241
 3641SOL    HW211460   2.397   1.694   2.121
 3642SOL     OW11461   3.298   0.172   2.263
 3642SOL    HW111462   3.250   0.097   2.227
 3642SOL    HW211463   3.372   0.133   2.309
 3643SOL     OW11464   2.154   1.766   3.081
 3643SOL    HW111465   2.194   1.684   3.110
 3643SOL    HW211466   2.110   1.744   2.999
 3644SOL     OW11467   2.799   1.699   2.760
 3644SOL    HW111468   2.878   1.650   2.781
 3644SOL    HW211469   2.758   1.648   2.690
 3645SOL     OW11470   2.257   0.695   2.335
 3645SOL    HW111471   2.275   0.602   2.348
 3645SOL    HW211472   2.164   0.705   2.354
 3646SOL     OW11473   3.392   0.229   3.589
 3646SOL    HW111474   3.383   0.254   3.681
 3646SOL    HW211475   3.375   0.134   3.588
 3647SOL     OW11476   2.506   0.129   1.971
 3647SOL    HW111477   2.527   0.044   2.010
 3647SOL    HW211478   2.444   0.108   1.901
 3648SOL     OW11479   2.636   0.282   3.632
 3648SOL    HW111480   2.711   0.222   3.635
 3648SOL    HW211481   2.580   0.254   3.704
 3649SOL     OW11482   2.738   1.523   3.056
 3649SOL    HW111483   2.722   1.486   2.969
 3649SOL    HW211484   2.808   1.468   3.093
 3650SOL     OW11485   3.202   0.587   3.292
 3650SOL    HW111486   3.232   0.559   3.379
 3650SOL    HW211487   3.236   0.676   3.283
 3651SOL     OW11488   2.679   1.392   2.805
 3651SOL    HW111489   2.764   1.380   2.763
 3651SOL    HW211490   2.616   1.396   2.733
 3652SOL     OW11491   2.792   0.512   2.762
 3652SOL    HW111492   2.767   0.503   2.669
 3652SOL    HW211493   2.818   0.423   2.787
 3653SOL     OW11494   2.407   0.056   2.352
 3653SOL    HW111495   2.332   0.062   2.413
 3653SOL    HW211496   2.402   0.137   2.302
 3654SOL     OW11497   3.289   1.200   1.902
 3654SOL    HW111498   3.319   1.125   1.953
 3654SOL    HW211499   3.204   1.222   1.940
 3655SOL     OW11500   2.192   0.045   2.074
 3655SOL    HW111501   2.200   0.110   2.005
 3655SOL    HW211502   2.273   0.053   2.124
 3656SOL     OW11503   2.805   0.250   2.321
 3656SOL    HW111504   2.780   0.290   2.237
 3656SOL    HW211505   2.901   0.256   2.322
 3657SOL     OW11506   2.942   0.685   3.320
 3657SOL    HW111507   2.872   0.619   3.327
 3657SOL    HW211508   3.022   0.633   3.315
 3658SOL     OW11509   3.082   1.572   2.657
 3658SOL    HW111510   3.098   1.637   2.589
 3658SOL    HW211511   3.152   1.587   2.720
 3659SOL     OW11512   2.334   1.151   2.592
 3659SOL    HW111513   2.266   1.132   2.656
 3659SOL    HW211514   2.291   1.137   2.507
 3660SOL     OW11515   3.128   1.792   2.472
 3660SOL    HW111516   3.177   1.854   2.417
 3660SOL    HW211517   3.060   1.846   2.514
 3661SOL     OW11518   2.883   0.541   1.891
 3661SOL    HW111519   2.839   0.624   1.872
 3661SOL    HW211520   2.947   0.563   1.959
 3662SOL     OW11521   1.945   0.550   3.258
 3662SOL    HW111522   2.036   0.552   3.229
 3662SOL    HW211523   1.937   0.622   3.320
 3663SOL     OW11524   2.425   0.231   3.022
 3663SOL    HW111525   2.448   0.139   3.032
 3663SOL    HW211526   2.335   0.236   3.056
 3664SOL     OW11527   2.732   0.460   2.500
 3664SOL    HW111528   2.685   0.515   2.437
 3664SOL    HW211529   2.753   0.381   2.451
 3665SOL     OW11530   2.859   0.039   2.643
 3665SOL    HW111531   2.820   0.068   2.560
 3665SOL    HW211532   2.870   3.944   2.631
 3666SOL     OW11533   3.302   1.161   2.720
 3666SOL    HW111534   3.230   1.098   2.718
 3666SOL    HW211535   3.328   1.171   2.628
 3667SOL     OW11536   3.326   0.609   2.835
 3667SOL    HW111537   3.271   0.530   2.840
 3667SOL    HW211538   3.385   0.601   2.909
 3668SOL     OW11539   3.722   0.825   2.237
 3668SOL    HW111540   3.763   0.767   2.301
 3668SOL    HW211541   3.684   0.765   2.172
 3669SOL     OW11542   2.354   1.421   2.014
 3669SOL    HW111543   2.279   1.395   2.067
 3669SOL    HW211544   2.343   1.372   1.932
 3670SOL     OW11545   3.530   1.265   2.505
 3670SOL    HW111546   3.625   1.268   2.515
 3670SOL    HW211547   3.501   1.354   2.526
 3671SOL     OW11548   3.257   0.576   1.931
 3671SOL    HW111549   3.193   0.557   1.999
 3671SOL    HW211550   3.342   0.561   1.972
 3672SOL     OW11551   2.388   0.266   2.178
 3672SOL    HW111552   2.444   0.228   2.110
 3672SOL    HW211553   2.359   0.350   2.140
 3673SOL     OW11554   3.613   1.233   3.426
 3673SOL    HW111555   3.700   1.199   3.409
 3673SOL    HW211556   3.628   1.323   3.456
 3674SOL     OW11557   2.918   1.354   3.195
 3674SOL    HW111558   2.843   1.322   3.245
 3674SOL    HW211559   2.994   1.312   3.236
 3675SOL     OW11560   3.468   1.629   3.518
 3675SOL    HW111561   3.460   1.663   3.430
 3675SOL    HW211562   3.548   1.576   3.517
 3676SOL     OW11563   2.995   1.208   2.965
 3676SOL    HW111564   2.934   1.245   3.030
 3676SOL    HW211565   2.964   1.241   2.881
 3677SOL     OW11566   3.489   1.095   2.936
 3677SOL    HW111567   3.480   1.157   3.009
 3677SOL    HW211568   3.413   1.112   2.881
 3678SOL     OW11569   2.774   0.117   3.263
 3678SOL    HW111570   2.794   0.089   3.174
 3678SOL    HW211571   2.855   0.159   3.294
 3679SOL     OW11572   2.846   1.115   3.586
 3679SOL    HW111573   2.755   1.132   3.609
 3679SOL    HW211574   2.843   1.037   3.531
 3680SOL     OW11575   2.571   1.063   2.233
 3680SOL    HW111576   2.557   1.044   2.325
 3680SOL    HW211577   2.647   1.009   2.209
 3681SOL     OW11578   2.283   0.817   3.114
 3681SOL    HW111579   2.351   0.825   3.180
 3681SOL    HW211580   2.248   0.728   3.126
 3682SOL     OW11581   3.128   0.375   3.138
 3682SOL    HW111582   3.162   0.453   3.183
 3682SOL    HW211583   3.041   0.400   3.109
 3683SOL     OW11584   1.935   1.578   3.216
 3683SOL    HW111585   1.901   1.641   3.153
 3683SOL    HW211586   2.030   1.578   3.202
 3684SOL     OW11587   2.205   1.113   2.352
 3684SOL    HW111588   2.210   1.188   2.293
 3684SOL    HW211589   2.202   1.037   2.294
 3685SOL     OW11590   2.416   0.531   2.718
 3685SOL    HW111591   2.429   0.591   2.645
 3685SOL    HW211592   2.480   0.558   2.783
 3686SOL     OW11593   3.110   1.349   2.252
 3686SOL    HW111594   3.165   1.420   2.283
 3686SOL    HW211595   3.022   1.370   2.285
 3687SOL     OW11596   3.148   1.460   3.010
 3687SOL    HW111597   3.204   1.464   3.087
 3687SOL    HW211598   3.093   1.383   3.024
 3688SOL     OW11599   3.433   0.633   2.348
 3688SOL    HW111600   3.391   0.687   2.415
 3688SOL    HW211601   3.480   0.695   2.293
 3689SOL     OW11602   2.214   1.516   3.177
 3689SOL    HW111603   2.200   1.472   3.093
 3689SOL    HW211604   2.309   1.526   3.183
 3690SOL     OW11605   2.280   0.745   3.464
 3690SOL    HW111606   2.341   0.789   3.406
 3690SOL    HW211607   2.322   0.660   3.482
 3691SOL     OW11608   3.467   0.779   3.546
 3691SOL    HW111609   3.382   0.822   3.540
 3691SOL    HW211610   3.520   0.821   3.479
 3692SOL     OW11611   2.873   0.135   3.642
 3692SOL    HW111612   2.926   0.206   3.606
 3692SOL    HW211613   2.858   0.076   3.569
 3693SOL     OW11614   2.351   0.034   3.623
 3693SOL    HW111615   2.352   0.048   3.528
 3693SOL    HW211616   2.291   0.101   3.656
 3694SOL     OW11617   2.446   0.874   2.894
 3694SOL    HW111618   2.476   0.965   2.896
 3694SOL    HW211619   2.389   0.866   2.970
 3695SOL     OW11620   3.213   0.859   2.886
 3695SOL    HW111621   3.128   0.846   2.845
 3695SOL    HW211622   3.257   0.774   2.879
 3696SOL     OW11623   3.061   0.538   2.119
 3696SOL    HW111624   3.069   0.458   2.172
 3696SOL    HW211625   3.019   0.601   2.176
 3697SOL     OW11626   2.161   0.209   3.105
 3697SOL    HW111627   2.119   0.238   3.186
 3697SOL    HW211628   2.150   0.114   3.105
 3698SOL     OW11629   1.906   1.313   3.139
 3698SOL    HW111630   1.940   1.257   3.209
 3698SOL    HW211631   1.914   1.402   3.174
 3699SOL     OW11632   2.583   0.631   2.913
 3699SOL    HW111633   2.660   0.620   2.857
 3699SOL    HW211634   2.554   0.721   2.895
 3700SOL     OW11635   3.594   0.957   3.726
 3700SOL    HW111636   3.552   0.894   3.667
 3700SOL    HW211637   3.530   0.972   3.795
 3701SOL     OW11638   2.185   0.055   2.515
 3701SOL    HW111639   2.165   0.148   2.526
 3701SOL    HW211640   2.152   0.014   2.595
 3702SOL     OW11641   3.475   0.394   2.241
 3702SOL    HW111642   3.435   0.325   2.294
 3702SOL    HW211643   3.453   0.475   2.287
 3703SOL     OW11644   2.892   0.759   2.820
 3703SOL    HW111645   2.884   0.776   2.914
 3703SOL    HW211646   2.864   0.668   2.810
 3704SOL     OW11647   2.844   1.567   3.582
 3704SOL    HW111648   2.829   1.610   3.498
 3704SOL    HW211649   2.887   1.484   3.559
 3705SOL     OW11650   3.704   1.497   3.460
 3705SOL    HW111651   3.728   1.527   3.372
 3705SOL    HW211652   3.784   1.507   3.511
 3706SOL     OW11653   2.214   0.915   3.671
 3706SOL    HW111654   2.295   0.935   3.718
 3706SOL    HW211655   2.240   0.853   3.603
 3707SOL     OW11656   3.362   0.273   1.995
 3707SOL    HW111657   3.289   0.212   2.006
 3707SOL    HW211658   3.374   0.311   2.082
 3708SOL     OW11659   3.149   0.826   1.890
 3708SOL    HW111660   3.192   0.741   1.894
 3708SOL    HW211661   3.182   0.866   1.809
 3709SOL     OW11662   2.930   1.337   2.718
 3709SOL    HW111663   2.934   1.266   2.655
 3709SOL    HW211664   2.989   1.404   2.683
 3710SOL     OW11665   2.169   0.810   2.808
 3710SOL    HW111666   2.263   0.831   2.801
 3710SOL    HW211667   2.167   0.720   2.840
 3711SOL     OW11668   2.198   0.537   2.876
 3711SOL    HW111669   2.157   0.452   2.861
 3711SOL    HW211670   2.274   0.537   2.818
 3712SOL     OW11671   2.995   0.380   3.559
 3712SOL    HW111672   2.946   0.434   3.621
 3712SOL    HW211673   3.081   0.421   3.555
 3713SOL     OW11674   3.014   0.226   3.343
 3713SOL    HW111675   3.004   0.280   3.422
 3713SOL    HW211676   3.039   0.288   3.275
 3714SOL     OW11677   1.867   1.316   2.055
 3714SOL    HW111678   1.779   1.329   2.018
 3714SOL    HW211679   1.865   1.227   2.090
 3715SOL     OW11680   1.984   1.712   2.848
 3715SOL    HW111681   1.940   1.657   2.783
 3715SOL    HW211682   2.045   1.765   2.797
 3716SOL     OW11683   2.359   1.569   2.771
 3716SOL    HW111684   2.427   1.632   2.794
 3716SOL    HW211685   2.402   1.508   2.711
 3717SOL     OW11686   2.839   0.787   3.085
 3717SOL    HW111687   2.896   0.769   3.160
 3717SOL    HW211688   2.754   0.751   3.111
 3718SOL     OW11689   1.895   0.548   2.979
 3718SOL    HW111690   1.970   0.522   2.925
 3718SOL    HW211691   1.929   0.547   3.068
 3719SOL     OW11692   2.066   0.527   3.574
 3719SOL    HW111693   2.137   0.506   3.514
 3719SOL    HW211694   2.022   0.603   3.535
 3720SOL     OW11695   3.242   0.935   3.519
 3720SOL    HW111696   3.263   1.029   3.516
 3720SOL    HW211697   3.237   0.909   3.427
 3721SOL     OW11698   2.679   0.572   2.227
 3721SOL    HW111699   2.685   0.497   2.168
 3721SOL    HW211700   2.604   0.622   2.194
 3722SOL     OW11701   3.501   0.602   3.044
 3722SOL    HW111702   3.490   0.542   3.117
 3722SOL    HW211703   3.587   0.581   3.008
 3723SOL     OW11704   2.113   1.539   3.568
 3723SOL    HW111705   2.093   1.608   3.631
 3723SOL    HW211706   2.118   1.459   3.620
 3724SOL     OW11707   2.572   0.452   3.116
 3724SOL    HW111708   2.520   0.375   3.093
 3724SOL    HW211709   2.562   0.512   3.042
 3725SOL     OW11710   2.784   1.679   3.332
 3725SOL    HW111711   2.762   1.641   3.247
 3725SOL    HW211712   2.780   1.774   3.318
 3726SOL     OW11713   2.324   0.494   2.044
 3726SOL    HW111714   2.382   0.566   2.068
 3726SOL    HW211715   2.238   0.535   2.032
 3727SOL     OW11716   2.004   1.141   3.335
 3727SOL    HW111717   2.006   1.093   3.418
 3727SOL    HW211718   2.021   1.076   3.268
 3728SOL     OW11719   3.183   1.044   3.083
 3728SOL    HW111720   3.206   0.981   3.015
 3728SOL    HW211721   3.116   1.100   3.044
 3729SOL     OW11722   3.176   0.854   2.166
 3729SOL    HW111723   3.101   0.827   2.218
 3729SOL    HW211724   3.148   0.843   2.076
 3730SOL     OW11725   3.644   1.740   3.020
 3730SOL    HW111726   3.698   1.768   2.947
 3730SOL    HW211727   3.613   1.653   2.996
 3731SOL     OW11728   3.102   1.734   2.971
 3731SOL    HW111729   3.184   1.757   2.928
 3731SOL    HW211730   3.111   1.640   2.990
 3732SOL     OW11731   1.950   1.263   2.876
 3732SOL    HW111732   1.932   1.280   2.968
 3732SOL    HW211733   1.875   1.211   2.846
 3733SOL     OW11734   2.544   1.665   3.594
 3733SOL    HW111735   2.492   1.746   3.592
 3733SOL    HW211736   2.613   1.679   3.529
 3734SOL     OW11737   3.550   0.119   2.350
 3734SOL    HW111738   3.631   0.135   2.302
 3734SOL    HW211739   3.553   0.026   2.372
 3735SOL     OW11740   3.253   1.567   2.350
 3735SOL    HW111741   3.312   1.601   2.283
 3735SOL    HW211742   3.203   1.644   2.379
 3736SOL     OW11743   2.028   1.741   3.723
 3736SOL    HW111744   1.966   1.691   3.776
 3736SOL    HW211745   2.007   1.832   3.741
 3737SOL     OW11746   3.139   0.927   2.533
 3737SOL    HW111747   3.214   0.868   2.544
 3737SOL    HW211748   3.173   0.999   2.480
 3738SOL     OW11749   2.670   1.275   3.288
 3738SOL    HW111750   2.642   1.315   3.370
 3738SOL    HW211751   2.600   1.295   3.226
 3739SOL     OW11752   2.535   1.623   2.012
 3739SOL    HW111753   2.547   1.634   1.917
 3739SOL    HW211754   2.479   1.546   2.021
 3740SOL     OW11755   3.481   1.727   3.253
 3740SOL    HW111756   3.537   1.732   3.176
 3740SOL    HW211757   3.467   1.819   3.278
 3741SOL     OW11758   3.704   0.182   2.833
 3741SOL    HW111759   3.728   0.097   2.795
 3741SOL    HW211760   3.618   0.201   2.796
 3742SOL     OW11761   2.125   0.316   2.577
 3742SOL    HW111762   2.039   0.350   2.554
 3742SOL    HW211763   2.124   0.308   2.672
 3743SOL     OW11764   3.070   1.603   1.894
 3743SOL    HW111765   3.059   1.512   1.921
 3743SOL    HW211766   3.004   1.616   1.826
 3744SOL     OW11767   2.686   1.006   3.235
 3744SOL    HW111768   2.728   1.002   3.149
 3744SOL    HW211769   2.683   1.099   3.256
 3745SOL     OW11770   2.778   0.911   2.152
 3745SOL    HW111771   2.839   0.943   2.086
 3745SOL    HW211772   2.827   0.842   2.198
 3746SOL     OW11773   3.350   1.629   1.906
 3746SOL    HW111774   3.256   1.620   1.891
 3746SOL    HW211775   3.388   1.635   1.818
 3747SOL     OW11776   2.232   1.297   3.355
 3747SOL    HW111777   2.219   1.376   3.301
 3747SOL    HW211778   2.153   1.245   3.339
 3748SOL     OW11779   3.462   1.280   3.139
 3748SOL    HW111780   3.530   1.271   3.205
 3748SOL    HW211781   3.405   1.349   3.172
 3749SOL     OW11782   2.920   1.109   2.571
 3749SOL    HW111783   2.847   1.059   2.609
 3749SOL    HW211784   2.983   1.043   2.543
 3750SOL     OW11785   2.877   0.249   2.832
 3750SOL    HW111786   2.867   0.198   2.751
 3750SOL    HW211787   2.873   0.184   2.902
 3751SOL     OW11788   2.466   1.489   2.343
 3751SOL    HW111789   2.509   1.440   2.274
 3751SOL    HW211790   2.405   1.547   2.297
 3752SOL     OW11791   3.582   0.395   3.233
 3752SOL    HW111792   3.655   0.457   3.234
 3752SOL    HW211793   3.614   0.322   3.179
 3753SOL     OW11794   2.122   1.344   2.149
 3753SOL    HW111795   2.028   1.339   2.127
 3753SOL    HW211796   2.124   1.379   2.238
 3754SOL     OW11797   1.976   1.028   3.584
 3754SOL    HW111798   1.899   1.003   3.636
 3754SOL    HW211799   2.050   0.987   3.629
 3755SOL     OW11800   2.556   0.258   3.364
 3755SOL    HW111801   2.622   0.202   3.323
 3755SOL    HW211802   2.583   0.263   3.456
 3756SOL     OW11803   1.963   0.317   1.854
 3756SOL    HW111804   1.896   0.337   1.919
 3756SOL    HW211805   1.970   0.398   1.802
 3757SOL     OW11806   3.286   0.856   3.259
 3757SOL    HW111807   3.237   0.918   3.206
 3757SOL    HW211808   3.375   0.859   3.223
 3758SOL     OW11809   1.943   0.152   2.202
 3758SOL    HW111810   1.912   0.210   2.133
 3758SOL    HW211811   2.029   0.124   2.172
 3759SOL     OW11812   3.040   1.337   1.980
 3759SOL    HW111813   2.950   1.306   1.982
 3759SOL    HW211814   3.067   1.338   2.072
 3760SOL     OW11815   2.484   0.829   3.296
 3760SOL    HW111816   2.540   0.904   3.281
 3760SOL    HW211817   2.544   0.755   3.305
 3761SOL     OW11818   3.344   1.783   2.843
 3761SOL    HW111819   3.367   1.846   2.775
 3761SOL    HW211820   3.428   1.753   2.878
 3762SOL     OW11821   2.580   0.560   3.566
 3762SOL    HW111822   2.623   0.622   3.625
 3762SOL    HW211823   2.604   0.474   3.600
 3763SOL     OW11824   3.335   1.196   3.492
 3763SOL    HW111825   3.324   1.211   3.586
 3763SOL    HW211826   3.428   1.213   3.476
 3764SOL     OW11827   2.236   1.746   3.429
 3764SOL    HW111828   2.165   1.763   3.366
 3764SOL    HW211829   2.211   1.663   3.471
 3765SOL     OW11830   3.526   0.880   3.121
 3765SOL    HW111831   3.525   0.795   3.077
 3765SOL    HW211832   3.519   0.944   3.050
 3766SOL     OW11833   3.082   0.338   2.304
 3766SOL    HW111834   3.151   0.272   2.295
 3766SOL    HW211835   3.102   0.382   2.387
 3767SOL     OW11836   2.451   0.735   2.533
 3767SOL    HW111837   2.490   0.822   2.519
 3767SOL    HW211838   2.385   0.727   2.465
 3768SOL     OW11839   3.616   0.381   3.504
 3768SOL    HW111840   3.595   0.390   3.411
 3768SOL    HW211841   3.555   0.314   3.535
 3769SOL     OW11842   3.617   0.930   3.375
 3769SOL    HW111843   3.607   1.023   3.393
 3769SOL    HW211844   3.592   0.920   3.283
 3770SOL     OW11845   2.724   1.366   1.901
 3770SOL    HW111846   2.687   1.392   1.985
 3770SOL    HW211847   2.741   1.448   1.855
 3771SOL     OW11848   2.523   1.791   2.803
 3771SOL    HW111849   2.508   1.882   2.777
 3771SOL    HW211850   2.618   1.779   2.795
 3772SOL     OW11851   2.731   0.969   2.716
 3772SOL    HW111852   2.781   0.897   2.754
 3772SOL    HW211853   2.693   1.015   2.791
 3773SOL     OW11854   2.940   0.990   1.951
 3773SOL    HW111855   2.918   1.041   1.874
 3773SOL    HW211856   3.014   0.935   1.924
 3774SOL     OW11857   3.713   1.556   2.703
 3774SOL    HW111858   3.633   1.540   2.652
 3774SOL    HW211859   3.713   1.489   2.770
 3775SOL     OW11860   2.089   1.300   3.717
 3775SOL    HW111861   2.023   1.237   3.689
 3775SOL    HW211862   2.073   1.312   3.810
 3776SOL     OW11863   1.944   1.223   2.527
 3776SOL    HW111864   1.959   1.178   2.611
 3776SOL    HW211865   2.016   1.193   2.472
 3777SOL     OW11866   2.544   1.405   3.490
 3777SOL    HW111867   2.465   1.362   3.524
 3777SOL    HW211868   2.541   1.493   3.528
 3778SOL     OW11869   3.676   0.181   3.106
 3778SOL    HW111870   3.677   0.086   3.115
 3778SOL    HW211871   3.694   0.197   3.014
 3779SOL     OW11872   2.290   0.435   2.387
 3779SOL    HW111873   2.325   0.363   2.334
 3779SOL    HW211874   2.242   0.391   2.458
 3780SOL     OW11875   3.558   1.491   2.958
 3780SOL    HW111876   3.480   1.468   2.907
 3780SOL    HW211877   3.567   1.419   3.021
 3781SOL     OW11878   2.194   0.557   3.157
 3781SOL    HW111879   2.247   0.498   3.211
 3781SOL    HW211880   2.213   0.530   3.067
 3782SOL     OW11881   2.692   1.578   2.539
 3782SOL    HW111882   2.675   1.640   2.468
 3782SOL    HW211883   2.617   1.519   2.537
 3783SOL     OW11884   3.323   0.253   2.972
 3783SOL    HW111885   3.337   0.166   3.007
 3783SOL    HW211886   3.267   0.297   3.037
 3784SOL     OW11887   2.865   0.027   3.008
 3784SOL    HW111888   2.783   3.994   2.971
 3784SOL    HW211889   2.920   3.949   3.017
 3785SOL     OW11890   2.636   1.333   2.179
 3785SOL    HW111891   2.607   1.243   2.187
 3785SOL    HW211892   2.716   1.337   2.231
 3786SOL     OW11893   2.483   1.555   3.148
 3786SOL    HW111894   2.484   1.637   3.196
 3786SOL    HW211895   2.571   1.548   3.112
 3787SOL     OW11896   3.171   0.070   2.021
 3787SOL    HW111897   3.176   3.986   1.976
 3787SOL    HW211898   3.087   0.068   2.067
 3788SOL     OW11899   3.142   0.457   2.547
 3788SOL    HW111900   3.096   0.540   2.541
 3788SOL    HW211901   3.145   0.437   2.640
 3789SOL     OW11902   3.453   0.210   2.729
 3789SOL    HW111903   3.404   0.234   2.808
 3789SOL    HW211904   3.451   0.289   2.675
 3790SOL     OW11905   1.906   1.069   2.168
 3790SOL    HW111906   2.000   1.060   2.151
 3790SOL    HW211907   1.879   0.981   2.193
 3791SOL     OW11908   2.751   1.655   2.200
 3791SOL    HW111909   2.676   1.641   2.143
 3791SOL    HW211910   2.726   1.729   2.255
 3792SOL     OW11911   2.088   0.619   3.845
 3792SOL    HW111912   1.998   0.628   3.877
 3792SOL    HW211913   2.079   0.599   3.752
 3793SOL     OW11914   2.079   0.301   4.716
 3793SOL    HW111915   2.116   0.257   4.792
 3793SOL    HW211916   1.994   0.259   4.703
 3794SOL     OW11917   1.871   0.398   4.356
 3794SOL    HW111918   1.784   0.413   4.394
 3794SOL    HW211919   1.857   0.329   4.292
 3795SOL     OW11920   2.431   1.293   4.903
 3795SOL    HW111921   2.344   1.298   4.862
 3795SOL    HW211922   2.447   1.381   4.935
 3796SOL     OW11923   3.427   1.513   4.432
 3796SOL    HW111924   3.385   1.491   4.515
 3796SOL    HW211925   3.356   1.518   4.369
 3797SOL     OW11926   2.995   0.698   4.420
 3797SOL    HW111927   3.042   0.780   4.408
 3797SOL    HW211928   2.947   0.710   4.502
 3798SOL     OW11929   3.625   0.624   3.949
 3798SOL    HW111930   3.606   0.612   3.856
 3798SOL    HW211931   3.605   0.539   3.989
 3799SOL     OW11932   2.613   1.139   4.769
 3799SOL    HW111933   2.545   1.176   4.826
 3799SOL    HW211934   2.650   1.215   4.724
 3800SOL     OW11935   2.733   0.768   5.548
 3800SOL    HW111936   2.718   0.838   5.611
 3800SOL    HW211937   2.756   0.813   5.467
 3801SOL     OW11938   2.548   0.999   4.369
 3801SOL    HW111939   2.613   0.990   4.438
 3801SOL    HW211940   2.479   1.053   4.408
 3802SOL     OW11941   2.574   1.149   5.538
 3802SOL    HW111942   2.622   1.226   5.567
 3802SOL    HW211943   2.492   1.183   5.502
 3803SOL     OW11944   2.195   1.415   4.792
 3803SOL    HW111945   2.118   1.382   4.746
 3803SOL    HW211946   2.240   1.469   4.728
 3804SOL     OW11947   3.321   1.502   5.083
 3804SOL    HW111948   3.375   1.580   5.092
 3804SOL    HW211949   3.254   1.510   5.151
 3805SOL     OW11950   2.308   0.392   5.215
 3805SOL    HW111951   2.399   0.363   5.215
 3805SOL    HW211952   2.257   0.311   5.224
 3806SOL     OW11953   3.472   0.450   4.459
 3806SOL    HW111954   3.404   0.483   4.401
 3806SOL    HW211955   3.493   0.523   4.517
 3807SOL     OW11956   2.097   1.696   4.183
 3807SOL    HW111957   2.128   1.762   4.245
 3807SOL    HW211958   2.169   1.686   4.121
 3808SOL     OW11959   2.999   1.342   5.418
 3808SOL    HW111960   3.038   1.338   5.505
 3808SOL    HW211961   2.946   1.263   5.411
 3809SOL     OW11962   2.089   1.434   4.260
 3809SOL    HW111963   2.080   1.529   4.254
 3809SOL    HW211964   2.029   1.408   4.329
 3810SOL     OW11965   2.124   1.091   4.614
 3810SOL    HW111966   2.120   1.003   4.653
 3810SOL    HW211967   2.068   1.144   4.670
 3811SOL     OW11968   2.469   1.793   5.150
 3811SOL    HW111969   2.390   1.773   5.200
 3811SOL    HW211970   2.495   1.880   5.179
 3812SOL     OW11971   2.443   0.984   3.862
 3812SOL    HW111972   2.491   1.030   3.793
 3812SOL    HW211973   2.482   1.015   3.943
 3813SOL     OW11974   3.445   0.142   5.180
 3813SOL    HW111975   3.471   0.214   5.123
 3813SOL    HW211976   3.406   0.184   5.257
 3814SOL     OW11977   1.979   0.657   4.284
 3814SOL    HW111978   1.952   0.568   4.308
 3814SOL    HW211979   1.972   0.707   4.366
 3815SOL     OW11980   3.703   1.757   4.059
 3815SOL    HW111981   3.773   1.733   4.120
 3815SOL    HW211982   3.721   1.849   4.038
 3816SOL     OW11983   1.865   1.603   3.888
 3816SOL    HW111984   1.853   1.510   3.870
 3816SOL    HW211985   1.893   1.607   3.979
 3817SOL     OW11986   3.550   0.918   4.371
 3817SOL    HW111987   3.634   0.875   4.354
 3817SOL    HW211988   3.533   0.968   4.291
 3818SOL     OW11989   3.504   1.104   4.156
 3818SOL    HW111990   3.589   1.109   4.112
 3818SOL    HW211991   3.510   1.167   4.227
 3819SOL     OW11992   1.985   0.750   5.304
 3819SOL    HW111993   2.076   0.782   5.308
 3819SOL    HW211994   1.932   0.830   5.310
 3820SOL     OW11995   2.477   1.388   4.458
 3820SOL    HW111996   2.432   1.305   4.467
 3820SOL    HW211997   2.460   1.416   4.368
 3821SOL     OW11998   3.149   1.237   5.145
 3821SOL    HW111999   3.181   1.170   5.086
 3821SOL    HW212000   3.207   1.232   5.221
 3822SOL     OW12001   2.682   0.005   4.242
 3822SOL    HW112002   2.728   0.085   4.216
 3822SOL    HW212003   2.590   0.029   4.241
 3823SOL     OW12004   2.051   0.962   5.001
 3823SOL    HW112005   2.137   0.922   4.985
 3823SOL    HW212006   1.991   0.912   4.944
 3824SOL     OW12007   3.390   0.997   3.925
 3824SOL    HW112008   3.321   0.940   3.959
 3824SOL    HW212009   3.432   1.032   4.003
 3825SOL     OW12010   3.049   1.811   5.348
 3825SOL    HW112011   3.055   1.870   5.272
 3825SOL    HW212012   3.065   1.724   5.312
 3826SOL     OW12013   2.220   0.252   5.568
 3826SOL    HW112014   2.265   0.336   5.568
 3826SOL    HW212015   2.127   0.274   5.570
 3827SOL     OW12016   3.329   1.420   4.673
 3827SOL    HW112017   3.262   1.435   4.739
 3827SOL    HW212018   3.317   1.328   4.648
 3828SOL     OW12019   3.514   1.748   4.303
 3828SOL    HW112020   3.499   1.715   4.214
 3828SOL    HW212021   3.495   1.673   4.360
 3829SOL     OW12022   2.457   0.719   3.993
 3829SOL    HW112023   2.461   0.803   3.946
 3829SOL    HW212024   2.392   0.734   4.062
 3830SOL     OW12025   3.136   0.370   4.665
 3830SOL    HW112026   3.049   0.331   4.673
 3830SOL    HW212027   3.194   0.308   4.710
 3831SOL     OW12028   3.439   1.672   4.034
 3831SOL    HW112029   3.530   1.701   4.028
 3831SOL    HW212030   3.412   1.656   3.944
 3832SOL     OW12031   2.658   0.615   5.175
 3832SOL    HW112032   2.630   0.590   5.263
 3832SOL    HW212033   2.620   0.549   5.117
 3833SOL     OW12034   3.254   0.476   5.401
 3833SOL    HW112035   3.260   0.521   5.485
 3833SOL    HW212036   3.310   0.399   5.411
 3834SOL     OW12037   2.813   0.887   5.309
 3834SOL    HW112038   2.868   0.819   5.271
 3834SOL    HW212039   2.765   0.923   5.234
 3835SOL     OW12040   2.855   0.402   4.961
 3835SOL    HW112041   2.770   0.422   5.000
 3835SOL    HW212042   2.835   0.375   4.872
 3836SOL     OW12043   2.914   0.700   4.149
 3836SOL    HW112044   2.932   0.693   4.243
 3836SOL    HW212045   2.831   0.654   4.136
 3837SOL     OW12046   1.949   0.823   4.501
 3837SOL    HW112047   2.030   0.815   4.552
 3837SOL    HW212048   1.905   0.900   4.537
 3838SOL     OW12049   2.757   0.353   3.924
 3838SOL    HW112050   2.799   0.412   3.861
 3838SOL    HW212051   2.749   0.270   3.876
 3839SOL     OW12052   3.569   0.573   5.554
 3839SOL    HW112053   3.532   0.648   5.506
 3839SOL    HW212054   3.595   0.511   5.485
 3840SOL     OW12055   3.239   1.141   4.264
 3840SOL    HW112056   3.319   1.130   4.212
 3840SOL    HW212057   3.187   1.204   4.214
 3841SOL     OW12058   2.420   0.199   4.604
 3841SOL    HW112059   2.423   0.218   4.698
 3841SOL    HW212060   2.416   0.285   4.562
 3842SOL     OW12061   2.864   1.442   4.194
 3842SOL    HW112062   2.831   1.517   4.143
 3842SOL    HW212063   2.842   1.464   4.285
 3843SOL     OW12064   2.220   1.805   4.586
 3843SOL    HW112065   2.255   1.717   4.599
 3843SOL    HW212066   2.289   1.863   4.619
 3844SOL     OW12067   3.667   1.062   4.592
 3844SOL    HW112068   3.614   1.036   4.517
 3844SOL    HW212069   3.606   1.065   4.665
 3845SOL     OW12070   3.089   1.539   5.237
 3845SOL    HW112071   3.076   1.468   5.300
 3845SOL    HW212072   3.023   1.525   5.170
 3846SOL     OW12073   2.179   0.961   3.977
 3846SOL    HW112074   2.262   0.979   3.932
 3846SOL    HW212075   2.150   0.877   3.939
 3847SOL     OW12076   3.343   0.748   4.452
 3847SOL    HW112077   3.337   0.707   4.538
 3847SOL    HW212078   3.420   0.804   4.456
 3848SOL     OW12079   2.330   1.263   5.462
 3848SOL    HW112080   2.303   1.268   5.370
 3848SOL    HW212081   2.248   1.260   5.511
 3849SOL     OW12082   2.985   1.778   3.953
 3849SOL    HW112083   2.911   1.737   3.997
 3849SOL    HW212084   3.010   1.715   3.885
 3850SOL     OW12085   2.030   0.274   5.224
 3850SOL    HW112086   1.977   0.353   5.212
 3850SOL    HW212087   2.036   0.263   5.319
 3851SOL     OW12088   3.487   1.384   3.811
 3851SOL    HW112089   3.443   1.468   3.797
 3851SOL    HW212090   3.419   1.319   3.791
 3852SOL     OW12091   2.342   1.709   4.060
 3852SOL    HW112092   2.381   1.785   4.103
 3852SOL    HW212093   2.397   1.694   3.983
 3853SOL     OW12094   3.298   0.172   4.125
 3853SOL    HW112095   3.250   0.097   4.090
 3853SOL    HW212096   3.373   0.133   4.171
 3854SOL     OW12097   2.156   1.767   4.942
 3854SOL    HW112098   2.195   1.686   4.972
 3854SOL    HW212099   2.110   1.743   4.861
 3855SOL     OW12100   2.799   1.699   4.622
 3855SOL    HW112101   2.878   1.649   4.644
 3855SOL    HW212102   2.758   1.648   4.552
 3856SOL     OW12103   2.257   0.695   4.197
 3856SOL    HW112104   2.275   0.602   4.210
 3856SOL    HW212105   2.164   0.705   4.216
 3857SOL     OW12106   3.392   0.229   5.451
 3857SOL    HW112107   3.383   0.254   5.543
 3857SOL    HW212108   3.375   0.134   5.450
 3858SOL     OW12109   2.506   0.129   3.833
 3858SOL    HW112110   2.527   0.044   3.872
 3858SOL    HW212111   2.444   0.108   3.763
 3859SOL     OW12112   2.637   0.282   5.494
 3859SOL    HW112113   2.710   0.221   5.497
 3859SOL    HW212114   2.580   0.254   5.566
 3860SOL     OW12115   2.738   1.523   4.918
 3860SOL    HW112116   2.721   1.485   4.831
 3860SOL    HW212117   2.808   1.468   4.955
 3861SOL     OW12118   3.202   0.587   5.154
 3861SOL    HW112119   3.232   0.559   5.241
 3861SOL    HW212120   3.235   0.676   5.145
 3862SOL     OW12121   2.679   1.392   4.667
 3862SOL    HW112122   2.764   1.380   4.624
 3862SOL    HW212123   2.616   1.396   4.595
 3863SOL     OW12124   2.792   0.511   4.624
 3863SOL    HW112125   2.767   0.503   4.532
 3863SOL    HW212126   2.818   0.423   4.649
 3864SOL     OW12127   2.406   0.056   4.214
 3864SOL    HW112128   2.332   0.062   4.275
 3864SOL    HW212129   2.402   0.137   4.164
 3865SOL     OW12130   3.289   1.200   3.764
 3865SOL    HW112131   3.319   1.125   3.815
 3865SOL    HW212132   3.204   1.222   3.802
 3866SOL     OW12133   2.192   0.045   3.936
 3866SOL    HW112134   2.200   0.110   3.867
 3866SOL    HW212135   2.273   0.053   3.986
 3867SOL     OW12136   2.805   0.250   4.183
 3867SOL    HW112137   2.780   0.290   4.099
 3867SOL    HW212138   2.901   0.256   4.184
 3868SOL     OW12139   2.942   0.685   5.182
 3868SOL    HW112140   2.872   0.620   5.189
 3868SOL    HW212141   3.022   0.633   5.177
 3869SOL     OW12142   3.083   1.572   4.518
 3869SOL    HW112143   3.098   1.637   4.450
 3869SOL    HW212144   3.152   1.587   4.583
 3870SOL     OW12145   2.334   1.151   4.454
 3870SOL    HW112146   2.266   1.132   4.518
 3870SOL    HW212147   2.291   1.137   4.369
 3871SOL     OW12148   3.128   1.792   4.335
 3871SOL    HW112149   3.177   1.854   4.279
 3871SOL    HW212150   3.060   1.846   4.376
 3872SOL     OW12151   2.883   0.541   3.753
 3872SOL    HW112152   2.839   0.624   3.734
 3872SOL    HW212153   2.947   0.563   3.821
 3873SOL     OW12154   1.945   0.550   5.121
 3873SOL    HW112155   2.036   0.552   5.091
 3873SOL    HW212156   1.937   0.623   5.182
 3874SOL     OW12157   2.425   0.231   4.884
 3874SOL    HW112158   2.448   0.139   4.894
 3874SOL    HW212159   2.335   0.236   4.918
 3875SOL     OW12160   2.732   0.460   4.362
 3875SOL    HW112161   2.685   0.515   4.299
 3875SOL    HW212162   2.753   0.381   4.313
 3876SOL     OW12163   2.859   0.039   4.505
 3876SOL    HW112164   2.820   0.068   4.422
 3876SOL    HW212165   2.870   3.944   4.493
 3877SOL     OW12166   3.302   1.161   4.582
 3877SOL    HW112167   3.230   1.098   4.580
 3877SOL    HW212168   3.327   1.170   4.490
 3878SOL     OW12169   3.326   0.609   4.697
 3878SOL    HW112170   3.271   0.530   4.702
 3878SOL    HW212171   3.385   0.601   4.771
 3879SOL     OW12172   3.722   0.824   4.099
 3879SOL    HW112173   3.763   0.767   4.163
 3879SOL    HW212174   3.684   0.765   4.034
 3880SOL     OW12175   2.354   1.421   3.876
 3880SOL    HW112176   2.279   1.395   3.929
 3880SOL    HW212177   2.343   1.372   3.794
 3881SOL     OW12178   3.530   1.265   4.367
 3881SOL    HW112179   3.625   1.268   4.377
 3881SOL    HW212180   3.501   1.354   4.388
 3882SOL     OW12181   3.257   0.576   3.793
 3882SOL    HW112182   3.193   0.557   3.861
 3882SOL    HW212183   3.342   0.561   3.834
 3883SOL     OW12184   2.388   0.266   4.040
 3883SOL    HW112185   2.444   0.228   3.972
 3883SOL    HW212186   2.359   0.350   4.002
 3884SOL     OW12187   3.613   1.233   5.288
 3884SOL    HW112188   3.701   1.198   5.271
 3884SOL    HW212189   3.628   1.323   5.318
 3885SOL     OW12190   2.918   1.353   5.056
 3885SOL    HW112191   2.843   1.322   5.107
 3885SOL    HW212192   2.993   1.312   5.098
 3886SOL     OW12193   3.469   1.629   5.381
 3886SOL    HW112194   3.460   1.663   5.292
 3886SOL    HW212195   3.548   1.576   5.378
 3887SOL     OW12196   2.994   1.207   4.827
 3887SOL    HW112197   2.935   1.245   4.892
 3887SOL    HW212198   2.964   1.241   4.743
 3888SOL     OW12199   3.489   1.095   4.799
 3888SOL    HW112200   3.480   1.157   4.871
 3888SOL    HW212201   3.413   1.112   4.743
 3889SOL     OW12202   2.774   0.117   5.125
 3889SOL    HW112203   2.794   0.089   5.036
 3889SOL    HW212204   2.855   0.159   5.156
 3890SOL     OW12205   2.847   1.115   5.448
 3890SOL    HW112206   2.756   1.134   5.471
 3890SOL    HW212207   2.842   1.036   5.393
 3891SOL     OW12208   2.571   1.063   4.095
 3891SOL    HW112209   2.557   1.044   4.187
 3891SOL    HW212210   2.647   1.009   4.071
 3892SOL     OW12211   2.283   0.816   4.976
 3892SOL    HW112212   2.351   0.825   5.042
 3892SOL    HW212213   2.248   0.728   4.989
 3893SOL     OW12214   3.128   0.375   5.000
 3893SOL    HW112215   3.162   0.453   5.045
 3893SOL    HW212216   3.041   0.400   4.971
 3894SOL     OW12217   1.936   1.577   5.078
 3894SOL    HW112218   1.904   1.642   5.015
 3894SOL    HW212219   2.031   1.577   5.065
 3895SOL     OW12220   2.205   1.113   4.214
 3895SOL    HW112221   2.211   1.188   4.155
 3895SOL    HW212222   2.202   1.037   4.156
 3896SOL     OW12223   2.416   0.531   4.580
 3896SOL    HW112224   2.429   0.591   4.507
 3896SOL    HW212225   2.480   0.558   4.645
 3897SOL     OW12226   3.110   1.349   4.114
 3897SOL    HW112227   3.165   1.420   4.145
 3897SOL    HW212228   3.022   1.370   4.147
 3898SOL     OW12229   3.148   1.460   4.872
 3898SOL    HW112230   3.204   1.464   4.950
 3898SOL    HW212231   3.093   1.383   4.886
 3899SOL     OW12232   3.433   0.633   4.210
 3899SOL    HW112233   3.391   0.687   4.277
 3899SOL    HW212234   3.480   0.696   4.155
 3900SOL     OW12235   2.213   1.516   5.039
 3900SOL    HW112236   2.200   1.472   4.955
 3900SOL    HW212237   2.308   1.527   5.046
 3901SOL     OW12238   2.281   0.744   5.326
 3901SOL    HW112239   2.341   0.789   5.268
 3901SOL    HW212240   2.323   0.660   5.344
 3902SOL     OW12241   3.467   0.779   5.408
 3902SOL    HW112242   3.382   0.822   5.403
 3902SOL    HW212243   3.520   0.821   5.341
 3903SOL     OW12244   2.874   0.134   5.505
 3903SOL    HW112245   2.926   0.206   5.468
 3903SOL    HW212246   2.857   0.076   5.430
 3904SOL     OW12247   2.351   0.034   5.485
 3904SOL    HW112248   2.352   0.048   5.390
 3904SOL    HW212249   2.291   0.102   5.519
 3905SOL     OW12250   2.446   0.874   4.756
 3905SOL    HW112251   2.477   0.965   4.758
 3905SOL    HW212252   2.389   0.867   4.832
 3906SOL     OW12253   3.213   0.859   4.748
 3906SOL    HW112254   3.128   0.846   4.707
 3906SOL    HW212255   3.257   0.774   4.740
 3907SOL     OW12256   3.061   0.538   3.981
 3907SOL    HW112257   3.069   0.458   4.034
 3907SOL    HW212258   3.019   0.601   4.038
 3908SOL     OW12259   2.161   0.209   4.967
 3908SOL    HW112260   2.118   0.237   5.048
 3908SOL    HW212261   2.150   0.114   4.967
 3909SOL     OW12262   1.905   1.313   5.001
 3909SOL    HW112263   1.940   1.257   5.071
 3909SOL    HW212264   1.914   1.402   5.035
 3910SOL     OW12265   2.583   0.631   4.775
 3910SOL    HW112266   2.660   0.620   4.719
 3910SOL    HW212267   2.554   0.721   4.757
 3911SOL     OW12268   3.594   0.956   5.588
 3911SOL    HW112269   3.552   0.894   5.529
 3911SOL    HW212270   3.530   0.972   5.657
 3912SOL     OW12271   2.185   0.055   4.377
 3912SOL    HW112272   2.165   0.148   4.388
 3912SOL    HW212273   2.152   0.014   4.457
 3913SOL     OW12274   3.475   0.394   4.103
 3913SOL    HW112275   3.435   0.325   4.156
 3913SOL    HW212276   3.453   0.475   4.148
 3914SOL     OW12277   2.892   0.759   4.682
 3914SOL    HW112278   2.884   0.776   4.776
 3914SOL    HW212279   2.864   0.668   4.672
 3915SOL     OW12280   2.847   1.571   5.443
 3915SOL    HW112281   2.831   1.612   5.358
 3915SOL    HW212282   2.885   1.486   5.422
 3916SOL     OW12283   3.705   1.497   5.322
 3916SOL    HW112284   3.728   1.527   5.234
 3916SOL    HW212285   3.785   1.507   5.373
 3917SOL     OW12286   2.213   0.914   5.533
 3917SOL    HW112287   2.294   0.936   5.580
 3917SOL    HW212288   2.241   0.852   5.465
 3918SOL     OW12289   3.362   0.273   3.857
 3918SOL    HW112290   3.289   0.212   3.868
 3918SOL    HW212291   3.374   0.311   3.944
 3919SOL     OW12292   3.149   0.826   3.752
 3919SOL    HW112293   3.192   0.741   3.755
 3919SOL    HW212294   3.182   0.866   3.671
 3920SOL     OW12295   2.930   1.337   4.580
 3920SOL    HW112296   2.934   1.266   4.517
 3920SOL    HW212297   2.989   1.404   4.545
 3921SOL     OW12298   2.170   0.810   4.670
 3921SOL    HW112299   2.263   0.831   4.664
 3921SOL    HW212300   2.167   0.720   4.702
 3922SOL     OW12301   2.198   0.537   4.738
 3922SOL    HW112302   2.157   0.452   4.723
 3922SOL    HW212303   2.274   0.537   4.680
 3923SOL     OW12304   2.995   0.380   5.422
 3923SOL    HW112305   2.946   0.434   5.483
 3923SOL    HW212306   3.081   0.421   5.417
 3924SOL     OW12307   3.014   0.226   5.205
 3924SOL    HW112308   3.004   0.280   5.284
 3924SOL    HW212309   3.039   0.288   5.137
 3925SOL     OW12310   1.867   1.317   3.917
 3925SOL    HW112311   1.779   1.330   3.881
 3925SOL    HW212312   1.865   1.228   3.952
 3926SOL     OW12313   1.985   1.713   4.715
 3926SOL    HW112314   1.942   1.658   4.650
 3926SOL    HW212315   2.042   1.771   4.664
 3927SOL     OW12316   2.358   1.570   4.632
 3927SOL    HW112317   2.426   1.634   4.655
 3927SOL    HW212318   2.401   1.509   4.573
 3928SOL     OW12319   2.839   0.787   4.947
 3928SOL    HW112320   2.896   0.769   5.022
 3928SOL    HW212321   2.754   0.752   4.973
 3929SOL     OW12322   1.895   0.548   4.841
 3929SOL    HW112323   1.970   0.523   4.786
 3929SOL    HW212324   1.929   0.547   4.930
 3930SOL     OW12325   2.066   0.527   5.435
 3930SOL    HW112326   2.138   0.507   5.376
 3930SOL    HW212327   2.022   0.602   5.397
 3931SOL     OW12328   3.243   0.935   5.381
 3931SOL    HW112329   3.263   1.029   5.378
 3931SOL    HW212330   3.237   0.909   5.289
 3932SOL     OW12331   2.679   0.572   4.089
 3932SOL    HW112332   2.685   0.497   4.030
 3932SOL    HW212333   2.604   0.622   4.056
 3933SOL     OW12334   3.501   0.602   4.906
 3933SOL    HW112335   3.490   0.542   4.979
 3933SOL    HW212336   3.587   0.581   4.870
 3934SOL     OW12337   2.113   1.535   5.428
 3934SOL    HW112338   2.094   1.606   5.489
 3934SOL    HW212339   2.119   1.457   5.483
 3935SOL     OW12340   2.572   0.452   4.978
 3935SOL    HW112341   2.520   0.375   4.954
 3935SOL    HW212342   2.562   0.512   4.905
 3936SOL     OW12343   2.787   1.679   5.193
 3936SOL    HW112344   2.762   1.641   5.108
 3936SOL    HW212345   2.780   1.774   5.179
 3937SOL     OW12346   2.324   0.494   3.906
 3937SOL    HW112347   2.382   0.566   3.930
 3937SOL    HW212348   2.238   0.535   3.894
 3938SOL     OW12349   2.002   1.141   5.197
 3938SOL    HW112350   2.006   1.093   5.279
 3938SOL    HW212351   2.021   1.075   5.130
 3939SOL     OW12352   3.183   1.044   4.945
 3939SOL    HW112353   3.206   0.981   4.876
 3939SOL    HW212354   3.116   1.099   4.906
 3940SOL     OW12355   3.176   0.854   4.028
 3940SOL    HW112356   3.101   0.827   4.081
 3940SOL    HW212357   3.148   0.843   3.938
 3941SOL     OW12358   3.644   1.740   4.882
 3941SOL    HW112359   3.698   1.768   4.809
 3941SOL    HW212360   3.613   1.653   4.858
 3942SOL     OW12361   3.102   1.733   4.832
 3942SOL    HW112362   3.185   1.756   4.789
 3942SOL    HW212363   3.111   1.640   4.852
 3943SOL     OW12364   1.950   1.263   4.738
 3943SOL    HW112365   1.931   1.280   4.830
 3943SOL    HW212366   1.875   1.211   4.708
 3944SOL     OW12367   2.543   1.665   5.457
 3944SOL    HW112368   2.491   1.745   5.457
 3944SOL    HW212369   2.613   1.681   5.393
 3945SOL     OW12370   3.550   0.119   4.212
 3945SOL    HW112371   3.631   0.135   4.164
 3945SOL    HW212372   3.553   0.026   4.234
 3946SOL     OW12373   3.253   1.567   4.212
 3946SOL    HW112374   3.312   1.601   4.145
 3946SOL    HW212375   3.203   1.644   4.241
 3947SOL     OW12376   2.034   1.740   5.577
 3947SOL    HW112377   1.978   1.691   5.638
 3947SOL    HW212378   2.010   1.832   5.592
 3948SOL     OW12379   3.139   0.927   4.394
 3948SOL    HW112380   3.214   0.868   4.405
 3948SOL    HW212381   3.173   0.999   4.342
 3949SOL     OW12382   2.670   1.274   5.150
 3949SOL    HW112383   2.642   1.315   5.232
 3949SOL    HW212384   2.600   1.295   5.088
 3950SOL     OW12385   2.535   1.623   3.874
 3950SOL    HW112386   2.546   1.634   3.779
 3950SOL    HW212387   2.479   1.546   3.883
 3951SOL     OW12388   3.481   1.727   5.115
 3951SOL    HW112389   3.537   1.732   5.038
 3951SOL    HW212390   3.468   1.819   5.141
 3952SOL     OW12391   3.704   0.182   4.695
 3952SOL    HW112392   3.728   0.097   4.657
 3952SOL    HW212393   3.618   0.201   4.658
 3953SOL     OW12394   2.125   0.316   4.439
 3953SOL    HW112395   2.039   0.350   4.416
 3953SOL    HW212396   2.124   0.308   4.534
 3954SOL     OW12397   3.070   1.603   3.756
 3954SOL    HW112398   3.059   1.512   3.783
 3954SOL    HW212399   3.004   1.616   3.688
 3955SOL     OW12400   2.686   1.006   5.097
 3955SOL    HW112401   2.728   1.003   5.011
 3955SOL    HW212402   2.683   1.099   5.119
 3956SOL     OW12403   2.778   0.911   4.014
 3956SOL    HW112404   2.839   0.943   3.948
 3956SOL    HW212405   2.827   0.843   4.060
 3957SOL     OW12406   3.350   1.629   3.768
 3957SOL    HW112407   3.256   1.620   3.753
 3957SOL    HW212408   3.388   1.635   3.680
 3958SOL     OW12409   2.231   1.297   5.216
 3958SOL    HW112410   2.219   1.376   5.164
 3958SOL    HW212411   2.152   1.245   5.200
 3959SOL     OW12412   3.462   1.280   5.001
 3959SOL    HW112413   3.530   1.271   5.068
 3959SOL    HW212414   3.405   1.349   5.034
 3960SOL     OW12415   2.920   1.109   4.433
 3960SOL    HW112416   2.847   1.059   4.471
 3960SOL    HW212417   2.983   1.043   4.405
 3961SOL     OW12418   2.877   0.249   4.694
 3961SOL    HW112419   2.867   0.198   4.613
 3961SOL    HW212420   2.873   0.184   4.764
 3962SOL     OW12421   2.466   1.489   4.205
 3962SOL    HW112422   2.509   1.440   4.135
 3962SOL    HW212423   2.405   1.547   4.159
 3963SOL     OW12424   3.583   0.394   5.095
 3963SOL    HW112425   3.655   0.457   5.096
 3963SOL    HW212426   3.614   0.322   5.041
 3964SOL     OW12427   2.122   1.344   4.011
 3964SOL    HW112428   2.029   1.339   3.990
 3964SOL    HW212429   2.124   1.379   4.100
 3965SOL     OW12430   1.976   1.029   5.446
 3965SOL    HW112431   1.900   1.003   5.498
 3965SOL    HW212432   2.050   0.987   5.491
 3966SOL     OW12433   2.556   0.258   5.227
 3966SOL    HW112434   2.622   0.202   5.185
 3966SOL    HW212435   2.583   0.263   5.318
 3967SOL     OW12436   1.963   0.317   3.716
 3967SOL    HW112437   1.896   0.337   3.781
 3967SOL    HW212438   1.970   0.397   3.664
 3968SOL     OW12439   3.286   0.856   5.121
 3968SOL    HW112440   3.236   0.918   5.068
 3968SOL    HW212441   3.375   0.859   5.085
 3969SOL     OW12442   1.942   0.152   4.064
 3969SOL    HW112443   1.912   0.210   3.995
 3969SOL    HW212444   2.029   0.124   4.034
 3970SOL     OW12445   3.040   1.337   3.842
 3970SOL    HW112446   2.949   1.306   3.844
 3970SOL    HW212447   3.067   1.338   3.934
 3971SOL     OW12448   2.484   0.828   5.158
 3971SOL    HW112449   2.540   0.905   5.143
 3971SOL    HW212450   2.545   0.755   5.167
 3972SOL     OW12451   3.344   1.783   4.705
 3972SOL    HW112452   3.367   1.846   4.637
 3972SOL    HW212453   3.428   1.754   4.740
 3973SOL     OW12454   2.580   0.560   5.428
 3973SOL    HW112455   2.622   0.623   5.486
 3973SOL    HW212456   2.604   0.475   5.463
 3974SOL     OW12457   3.335   1.196   5.354
 3974SOL    HW112458   3.323   1.212   5.447
 3974SOL    HW212459   3.428   1.213   5.338
 3975SOL     OW12460   2.235   1.744   5.290
 3975SOL    HW112461   2.164   1.759   5.228
 3975SOL    HW212462   2.212   1.661   5.333
 3976SOL     OW12463   3.526   0.881   4.983
 3976SOL    HW112464   3.525   0.795   4.939
 3976SOL    HW212465   3.519   0.944   4.912
 3977SOL     OW12466   3.082   0.338   4.166
 3977SOL    HW112467   3.151   0.272   4.157
 3977SOL    HW212468   3.102   0.382   4.249
 3978SOL     OW12469   2.451   0.735   4.395
 3978SOL    HW112470   2.490   0.822   4.381
 3978SOL    HW212471   2.385   0.727   4.327
 3979SOL     OW12472   3.616   0.381   5.366
 3979SOL    HW112473   3.595   0.390   5.273
 3979SOL    HW212474   3.555   0.314   5.397
 3980SOL     OW12475   3.617   0.930   5.237
 3980SOL    HW112476   3.606   1.023   5.255
 3980SOL    HW212477   3.592   0.920   5.145
 3981SOL     OW12478   2.724   1.366   3.763
 3981SOL    HW112479   2.687   1.392   3.847
 3981SOL    HW212480   2.741   1.448   3.718
 3982SOL     OW12481   2.523   1.791   4.664
 3982SOL    HW112482   2.509   1.882   4.638
 3982SOL    HW212483   2.618   1.779   4.657
 3983SOL     OW12484   2.731   0.969   4.578
 3983SOL    HW112485   2.781   0.898   4.617
 3983SOL    HW212486   2.693   1.015   4.653
 3984SOL     OW12487   2.940   0.989   3.813
 3984SOL    HW112488   2.918   1.041   3.736
 3984SOL    HW212489   3.014   0.935   3.786
 3985SOL     OW12490   3.713   1.556   4.565
 3985SOL    HW112491   3.634   1.540   4.514
 3985SOL    HW212492   3.712   1.489   4.633
 3986SOL     OW12493   2.088   1.298   5.582
 3986SOL    HW112494   2.026   1.233   5.549
 3986SOL    HW212495   2.060   1.315   5.672
 3987SOL     OW12496   1.944   1.223   4.389
 3987SOL    HW112497   1.959   1.179   4.473
 3987SOL    HW212498   2.016   1.193   4.334
 3988SOL     OW12499   2.541   1.406   5.350
 3988SOL    HW112500   2.465   1.361   5.386
 3988SOL    HW212501   2.541   1.493   5.390
 3989SOL     OW12502   3.676   0.181   4.968
 3989SOL    HW112503   3.678   0.086   4.977
 3989SOL    HW212504   3.694   0.197   4.876
 3990SOL     OW12505   2.290   0.435   4.249
 3990SOL    HW112506   2.325   0.363   4.196
 3990SOL    HW212507   2.242   0.391   4.320
 3991SOL     OW12508   3.558   1.490   4.820
 3991SOL    HW112509   3.480   1.469   4.769
 3991SOL    HW212510   3.566   1.419   4.883
 3992SOL     OW12511   2.194   0.557   5.019
 3992SOL    HW112512   2.247   0.497   5.073
 3992SOL    HW212513   2.213   0.530   4.929
 3993SOL     OW12514   2.692   1.577   4.400
 3993SOL    HW112515   2.675   1.640   4.330
 3993SOL    HW212516   2.617   1.519   4.399
 3994SOL     OW12517   3.323   0.253   4.834
 3994SOL    HW112518   3.336   0.165   4.869
 3994SOL    HW212519   3.267   0.297   4.899
 3995SOL     OW12520   2.865   0.027   4.870
 3995SOL    HW112521   2.783   3.994   4.833
 3995SOL    HW212522   2.920   3.948   4.879
 3996SOL     OW12523   2.636   1.333   4.041
 3996SOL    HW112524   2.607   1.243   4.049
 3996SOL    HW212525   2.716   1.337   4.093
 3997SOL     OW12526   2.483   1.555   5.010
 3997SOL    HW112527   2.483   1.637   5.058
 3997SOL    HW212528   2.571   1.548   4.973
 3998SOL     OW12529   3.171   0.070   3.883
 3998SOL    HW112530   3.176   3.986   3.838
 3998SOL    HW212531   3.087   0.068   3.929
 3999SOL     OW12532   3.142   0.457   4.409
 3999SOL    HW112533   3.096   0.540   4.403
 3999SOL    HW212534   3.145   0.437   4.502
 4000SOL     OW12535   3.453   0.210   4.591
 4000SOL    HW112536   3.404   0.234   4.670
 4000SOL    HW212537   3.451   0.289   4.537
 4001SOL     OW12538   1.906   1.069   4.030
 4001SOL    HW112539   2.000   1.061   4.013
 4001SOL    HW212540   1.878   0.981   4.055
 4002SOL     OW12541   2.751   1.655   4.061
 4002SOL    HW112542   2.676   1.641   4.005
 4002SOL    HW212543   2.726   1.729   4.117
 4003SOL     OW12544   2.088   0.618   5.707
 4003SOL    HW112545   1.998   0.628   5.738
 4003SOL    HW212546   2.079   0.599   5.613
 4004SOL     OW12547   2.078   0.300   6.577
 4004SOL    HW112548   2.115   0.256   6.654
 4004SOL    HW212549   1.993   0.258   6.565
 4005SOL     OW12550   1.871   0.398   6.218
 4005SOL    HW112551   1.785   0.413   6.257
 4005SOL    HW212552   1.856   0.329   6.153
 4006SOL     OW12553   2.439   1.257   6.770
 4006SOL    HW112554   2.350   1.235   6.798
 4006SOL    HW212555   2.437   1.351   6.757
 4007SOL     OW12556   3.427   1.513   6.294
 4007SOL    HW112557   3.384   1.491   6.377
 4007SOL    HW212558   3.355   1.516   6.230
 4008SOL     OW12559   2.995   0.698   6.283
 4008SOL    HW112560   3.042   0.780   6.270
 4008SOL    HW212561   2.947   0.710   6.364
 4009SOL     OW12562   3.625   0.624   5.812
 4009SOL    HW112563   3.606   0.612   5.719
 4009SOL    HW212564   3.605   0.539   5.851
 4010SOL     OW12565   2.625   1.135   6.619
 4010SOL    HW112566   2.559   1.173   6.677
 4010SOL    HW212567   2.671   1.210   6.582
 4011SOL     OW12568   2.736   0.766   7.411
 4011SOL    HW112569   2.719   0.837   7.473
 4011SOL    HW212570   2.756   0.810   7.329
 4012SOL     OW12571   2.538   1.005   6.230
 4012SOL    HW112572   2.604   0.995   6.299
 4012SOL    HW212573   2.483   1.077   6.260
 4013SOL     OW12574   2.545   1.152   7.389
 4013SOL    HW112575   2.602   1.224   7.416
 4013SOL    HW212576   2.475   1.195   7.340
 4014SOL     OW12577   3.324   1.500   6.945
 4014SOL    HW112578   3.377   1.579   6.952
 4014SOL    HW212579   3.258   1.509   7.014
 4015SOL     OW12580   2.308   0.392   7.079
 4015SOL    HW112581   2.398   0.361   7.078
 4015SOL    HW212582   2.255   0.313   7.087
 4016SOL     OW12583   3.472   0.450   6.321
 4016SOL    HW112584   3.404   0.483   6.263
 4016SOL    HW212585   3.493   0.524   6.378
 4017SOL     OW12586   2.092   1.695   6.055
 4017SOL    HW112587   2.123   1.761   6.117
 4017SOL    HW212588   2.161   1.690   5.989
 4018SOL     OW12589   3.015   1.329   7.278
 4018SOL    HW112590   3.054   1.324   7.365
 4018SOL    HW212591   2.963   1.249   7.271
 4019SOL     OW12592   2.087   1.059   6.536
 4019SOL    HW112593   2.118   0.969   6.530
 4019SOL    HW212594   1.993   1.053   6.519
 4020SOL     OW12595   2.443   0.984   5.722
 4020SOL    HW112596   2.491   1.030   5.654
 4020SOL    HW212597   2.481   1.016   5.804
 4021SOL     OW12598   3.445   0.142   7.042
 4021SOL    HW112599   3.471   0.214   6.985
 4021SOL    HW212600   3.406   0.185   7.118
 4022SOL     OW12601   1.979   0.654   6.142
 4022SOL    HW112602   1.953   0.566   6.166
 4022SOL    HW212603   1.973   0.704   6.223
 4023SOL     OW12604   3.703   1.757   5.921
 4023SOL    HW112605   3.773   1.733   5.982
 4023SOL    HW212606   3.721   1.849   5.900
 4024SOL     OW12607   1.875   1.597   5.740
 4024SOL    HW112608   1.876   1.501   5.732
 4024SOL    HW212609   1.814   1.614   5.812
 4025SOL     OW12610   3.550   0.919   6.233
 4025SOL    HW112611   3.634   0.875   6.215
 4025SOL    HW212612   3.532   0.968   6.154
 4026SOL     OW12613   3.504   1.103   6.018
 4026SOL    HW112614   3.589   1.109   5.974
 4026SOL    HW212615   3.510   1.167   6.089
 4027SOL     OW12616   1.990   0.747   7.166
 4027SOL    HW112617   2.082   0.774   7.164
 4027SOL    HW212618   1.942   0.828   7.184
 4028SOL     OW12619   3.150   1.232   7.012
 4028SOL    HW112620   3.181   1.168   6.948
 4028SOL    HW212621   3.212   1.226   7.084
 4029SOL     OW12622   2.682   0.005   6.104
 4029SOL    HW112623   2.728   0.085   6.078
 4029SOL    HW212624   2.590   0.029   6.103
 4030SOL     OW12625   2.044   0.948   6.867
 4030SOL    HW112626   2.132   0.918   6.844
 4030SOL    HW212627   1.988   0.916   6.796
 4031SOL     OW12628   3.390   0.996   5.787
 4031SOL    HW112629   3.321   0.939   5.820
 4031SOL    HW212630   3.432   1.032   5.865
 4032SOL     OW12631   3.042   1.798   7.186
 4032SOL    HW112632   3.063   1.854   7.112
 4032SOL    HW212633   3.064   1.710   7.156
 4033SOL     OW12634   2.220   0.251   7.432
 4033SOL    HW112635   2.265   0.336   7.429
 4033SOL    HW212636   2.127   0.273   7.433
 4034SOL     OW12637   3.332   1.418   6.536
 4034SOL    HW112638   3.264   1.434   6.601
 4034SOL    HW212639   3.319   1.327   6.509
 4035SOL     OW12640   3.514   1.747   6.165
 4035SOL    HW112641   3.499   1.715   6.076
 4035SOL    HW212642   3.494   1.673   6.222
 4036SOL     OW12643   2.457   0.720   5.854
 4036SOL    HW112644   2.462   0.803   5.808
 4036SOL    HW212645   2.393   0.734   5.924
 4037SOL     OW12646   3.136   0.370   6.527
 4037SOL    HW112647   3.049   0.331   6.535
 4037SOL    HW212648   3.194   0.308   6.572
 4038SOL     OW12649   3.440   1.671   5.896
 4038SOL    HW112650   3.531   1.700   5.889
 4038SOL    HW212651   3.412   1.656   5.805
 4039SOL     OW12652   2.657   0.616   7.037
 4039SOL    HW112653   2.629   0.590   7.125
 4039SOL    HW212654   2.620   0.550   6.979
 4040SOL     OW12655   3.254   0.476   7.263
 4040SOL    HW112656   3.261   0.522   7.347
 4040SOL    HW212657   3.310   0.399   7.273
 4041SOL     OW12658   2.811   0.885   7.170
 4041SOL    HW112659   2.867   0.816   7.135
 4041SOL    HW212660   2.764   0.920   7.095
 4042SOL     OW12661   2.855   0.403   6.823
 4042SOL    HW112662   2.768   0.421   6.860
 4042SOL    HW212663   2.837   0.375   6.733
 4043SOL     OW12664   2.915   0.699   6.011
 4043SOL    HW112665   2.931   0.692   6.105
 4043SOL    HW212666   2.831   0.654   5.998
 4044SOL     OW12667   1.951   0.811   6.360
 4044SOL    HW112668   2.033   0.804   6.409
 4044SOL    HW212669   1.903   0.883   6.402
 4045SOL     OW12670   2.757   0.353   5.786
 4045SOL    HW112671   2.799   0.412   5.724
 4045SOL    HW212672   2.749   0.270   5.738
 4046SOL     OW12673   3.568   0.573   7.416
 4046SOL    HW112674   3.532   0.648   7.368
 4046SOL    HW212675   3.594   0.511   7.348
 4047SOL     OW12676   3.239   1.141   6.126
 4047SOL    HW112677   3.319   1.130   6.074
 4047SOL    HW212678   3.187   1.204   6.076
 4048SOL     OW12679   2.421   0.199   6.467
 4048SOL    HW112680   2.423   0.219   6.560
 4048SOL    HW212681   2.416   0.284   6.424
 4049SOL     OW12682   2.867   1.443   6.052
 4049SOL    HW112683   2.831   1.517   6.002
 4049SOL    HW212684   2.866   1.472   6.143
 4050SOL     OW12685   2.214   1.795   6.419
 4050SOL    HW112686   2.248   1.706   6.428
 4050SOL    HW212687   2.289   1.851   6.436
 4051SOL     OW12688   3.668   1.062   6.454
 4051SOL    HW112689   3.615   1.036   6.378
 4051SOL    HW212690   3.606   1.065   6.527
 4052SOL     OW12691   3.090   1.532   7.097
 4052SOL    HW112692   3.087   1.456   7.156
 4052SOL    HW212693   3.030   1.509   7.026
 4053SOL     OW12694   2.179   0.960   5.837
 4053SOL    HW112695   2.262   0.980   5.795
 4053SOL    HW212696   2.151   0.877   5.796
 4054SOL     OW12697   3.343   0.748   6.314
 4054SOL    HW112698   3.338   0.707   6.401
 4054SOL    HW212699   3.420   0.804   6.319
 4055SOL     OW12700   2.987   1.777   5.816
 4055SOL    HW112701   2.908   1.740   5.856
 4055SOL    HW212702   3.011   1.714   5.748
 4056SOL     OW12703   2.031   0.275   7.085
 4056SOL    HW112704   1.978   0.353   7.071
 4056SOL    HW212705   2.033   0.264   7.180
 4057SOL     OW12706   3.487   1.384   5.673
 4057SOL    HW112707   3.443   1.468   5.659
 4057SOL    HW212708   3.420   1.319   5.654
 4058SOL     OW12709   2.324   1.724   5.914
 4058SOL    HW112710   2.360   1.795   5.967
 4058SOL    HW212711   2.392   1.706   5.849
 4059SOL     OW12712   3.298   0.172   5.988
 4059SOL    HW112713   3.251   0.098   5.951
 4059SOL    HW212714   3.372   0.133   6.033
 4060SOL     OW12715   2.200   1.793   6.801
 4060SOL    HW112716   2.214   1.708   6.843
 4060SOL    HW212717   2.128   1.777   6.739
 4061SOL     OW12718   2.258   0.695   6.059
 4061SOL    HW112719   2.275   0.602   6.072
 4061SOL    HW212720   2.164   0.704   6.076
 4062SOL     OW12721   3.391   0.229   7.313
 4062SOL    HW112722   3.383   0.253   7.405
 4062SOL    HW212723   3.376   0.134   7.312
 4063SOL     OW12724   2.506   0.129   5.695
 4063SOL    HW112725   2.527   0.044   5.734
 4063SOL    HW212726   2.444   0.108   5.625
 4064SOL     OW12727   2.636   0.283   7.357
 4064SOL    HW112728   2.711   0.222   7.358
 4064SOL    HW212729   2.580   0.253   7.428
 4065SOL     OW12730   3.201   0.588   7.017
 4065SOL    HW112731   3.232   0.559   7.103
 4065SOL    HW212732   3.236   0.676   7.007
 4066SOL     OW12733   2.792   0.512   6.486
 4066SOL    HW112734   2.767   0.504   6.393
 4066SOL    HW212735   2.818   0.423   6.511
 4067SOL     OW12736   2.407   0.056   6.076
 4067SOL    HW112737   2.332   0.062   6.137
 4067SOL    HW212738   2.402   0.137   6.025
 4068SOL     OW12739   3.289   1.200   5.626
 4068SOL    HW112740   3.318   1.125   5.677
 4068SOL    HW212741   3.203   1.222   5.663
 4069SOL     OW12742   2.192   0.045   5.798
 4069SOL    HW112743   2.200   0.111   5.729
 4069SOL    HW212744   2.273   0.053   5.847
 4070SOL     OW12745   2.805   0.251   6.045
 4070SOL    HW112746   2.780   0.290   5.961
 4070SOL    HW212747   2.901   0.256   6.046
 4071SOL     OW12748   2.941   0.684   7.045
 4071SOL    HW112749   2.873   0.617   7.050
 4071SOL    HW212750   3.023   0.634   7.038
 4072SOL     OW12751   3.084   1.561   6.365
 4072SOL    HW112752   3.108   1.631   6.303
 4072SOL    HW212753   3.137   1.580   6.443
 4073SOL     OW12754   3.139   1.789   6.191
 4073SOL    HW112755   3.190   1.846   6.133
 4073SOL    HW212756   3.071   1.846   6.227
 4074SOL     OW12757   2.883   0.542   5.615
 4074SOL    HW112758   2.839   0.624   5.595
 4074SOL    HW212759   2.947   0.564   5.683
 4075SOL     OW12760   1.945   0.549   6.982
 4075SOL    HW112761   2.036   0.552   6.952
 4075SOL    HW212762   1.936   0.623   7.042
 4076SOL     OW12763   2.425   0.231   6.747
 4076SOL    HW112764   2.448   0.139   6.756
 4076SOL    HW212765   2.335   0.237   6.780
 4077SOL     OW12766   2.732   0.460   6.224
 4077SOL    HW112767   2.685   0.516   6.161
 4077SOL    HW212768   2.753   0.381   6.175
 4078SOL     OW12769   2.859   0.039   6.367
 4078SOL    HW112770   2.821   0.069   6.284
 4078SOL    HW212771   2.870   3.944   6.355
 4079SOL     OW12772   3.304   1.159   6.443
 4079SOL    HW112773   3.228   1.101   6.441
 4079SOL    HW212774   3.328   1.170   6.351
 4080SOL     OW12775   3.326   0.609   6.559
 4080SOL    HW112776   3.271   0.530   6.563
 4080SOL    HW212777   3.385   0.601   6.633
 4081SOL     OW12778   3.723   0.824   5.961
 4081SOL    HW112779   3.763   0.767   6.025
 4081SOL    HW212780   3.684   0.765   5.896
 4082SOL     OW12781   2.353   1.417   5.737
 4082SOL    HW112782   2.280   1.394   5.795
 4082SOL    HW212783   2.334   1.371   5.655
 4083SOL     OW12784   3.530   1.266   6.229
 4083SOL    HW112785   3.625   1.269   6.239
 4083SOL    HW212786   3.500   1.354   6.250
 4084SOL     OW12787   3.257   0.576   5.654
 4084SOL    HW112788   3.193   0.557   5.723
 4084SOL    HW212789   3.342   0.561   5.696
 4085SOL     OW12790   2.388   0.266   5.902
 4085SOL    HW112791   2.444   0.228   5.834
 4085SOL    HW212792   2.359   0.350   5.864
 4086SOL     OW12793   3.614   1.234   7.152
 4086SOL    HW112794   3.701   1.199   7.134
 4086SOL    HW212795   3.629   1.324   7.180
 4087SOL     OW12796   2.926   1.359   6.923
 4087SOL    HW112797   2.846   1.326   6.964
 4087SOL    HW212798   2.997   1.308   6.963
 4088SOL     OW12799   3.466   1.627   7.242
 4088SOL    HW112800   3.459   1.663   7.153
 4088SOL    HW212801   3.547   1.576   7.240
 4089SOL     OW12802   2.988   1.204   6.696
 4089SOL    HW112803   2.934   1.254   6.757
 4089SOL    HW212804   2.967   1.240   6.610
 4090SOL     OW12805   3.489   1.094   6.660
 4090SOL    HW112806   3.479   1.156   6.732
 4090SOL    HW212807   3.414   1.111   6.603
 4091SOL     OW12808   2.774   0.118   6.987
 4091SOL    HW112809   2.793   0.089   6.898
 4091SOL    HW212810   2.855   0.159   7.017
 4092SOL     OW12811   2.848   1.112   7.307
 4092SOL    HW112812   2.757   1.130   7.331
 4092SOL    HW212813   2.844   1.034   7.252
 4093SOL     OW12814   2.567   1.062   5.955
 4093SOL    HW112815   2.551   1.044   6.047
 4093SOL    HW212816   2.645   1.010   5.934
 4094SOL     OW12817   2.285   0.815   6.835
 4094SOL    HW112818   2.351   0.825   6.904
 4094SOL    HW212819   2.248   0.729   6.850
 4095SOL     OW12820   3.128   0.375   6.863
 4095SOL    HW112821   3.162   0.453   6.907
 4095SOL    HW212822   3.041   0.400   6.833
 4096SOL     OW12823   1.894   1.659   6.923
 4096SOL    HW112824   1.867   1.624   6.838
 4096SOL    HW212825   1.942   1.588   6.964
 4097SOL     OW12826   2.222   1.114   6.076
 4097SOL    HW112827   2.231   1.179   6.006
 4097SOL    HW212828   2.215   1.030   6.030
 4098SOL     OW12829   2.417   0.531   6.442
 4098SOL    HW112830   2.429   0.592   6.369
 4098SOL    HW212831   2.482   0.559   6.507
 4099SOL     OW12832   3.111   1.346   5.975
 4099SOL    HW112833   3.165   1.418   6.006
 4099SOL    HW212834   3.023   1.367   6.006
 4100SOL     OW12835   3.151   1.460   6.733
 4100SOL    HW112836   3.207   1.463   6.810
 4100SOL    HW212837   3.087   1.392   6.753
 4101SOL     OW12838   3.433   0.633   6.072
 4101SOL    HW112839   3.391   0.687   6.139
 4101SOL    HW212840   3.479   0.695   6.016
 4102SOL     OW12841   2.235   1.533   6.882
 4102SOL    HW112842   2.172   1.469   6.848
 4102SOL    HW212843   2.293   1.482   6.938
 4103SOL     OW12844   2.280   0.746   7.190
 4103SOL    HW112845   2.340   0.791   7.131
 4103SOL    HW212846   2.320   0.661   7.206
 4104SOL     OW12847   3.466   0.780   7.271
 4104SOL    HW112848   3.381   0.822   7.264
 4104SOL    HW212849   3.519   0.822   7.203
 4105SOL     OW12850   2.873   0.135   7.366
 4105SOL    HW112851   2.926   0.206   7.329
 4105SOL    HW212852   2.858   0.075   7.293
 4106SOL     OW12853   2.351   0.034   7.348
 4106SOL    HW112854   2.352   0.048   7.253
 4106SOL    HW212855   2.291   0.101   7.381
 4107SOL     OW12856   2.447   0.872   6.618
 4107SOL    HW112857   2.475   0.963   6.619
 4107SOL    HW212858   2.388   0.864   6.693
 4108SOL     OW12859   3.213   0.858   6.612
 4108SOL    HW112860   3.129   0.847   6.568
 4108SOL    HW212861   3.257   0.773   6.603
 4109SOL     OW12862   3.062   0.537   5.843
 4109SOL    HW112863   3.069   0.458   5.896
 4109SOL    HW212864   3.019   0.601   5.900
 4110SOL     OW12865   2.161   0.209   6.829
 4110SOL    HW112866   2.118   0.237   6.910
 4110SOL    HW212867   2.150   0.114   6.829
 4111SOL     OW12868   2.585   0.632   6.638
 4111SOL    HW112869   2.660   0.620   6.580
 4111SOL    HW212870   2.554   0.720   6.620
 4112SOL     OW12871   3.593   0.958   7.450
 4112SOL    HW112872   3.552   0.894   7.391
 4112SOL    HW212873   3.529   0.972   7.519
 4113SOL     OW12874   2.185   0.055   6.239
 4113SOL    HW112875   2.165   0.148   6.250
 4113SOL    HW212876   2.152   0.013   6.318
 4114SOL     OW12877   3.475   0.393   5.965
 4114SOL    HW112878   3.434   0.325   6.018
 4114SOL    HW212879   3.454   0.475   6.011
 4115SOL     OW12880   2.892   0.759   6.545
 4115SOL    HW112881   2.884   0.777   6.638
 4115SOL    HW212882   2.865   0.668   6.535
 4116SOL     OW12883   2.845   1.536   7.304
 4116SOL    HW112884   2.821   1.590   7.228
 4116SOL    HW212885   2.906   1.471   7.269
 4117SOL     OW12886   3.704   1.498   7.184
 4117SOL    HW112887   3.728   1.528   7.096
 4117SOL    HW212888   3.784   1.507   7.235
 4118SOL     OW12889   2.220   0.921   7.397
 4118SOL    HW112890   2.302   0.929   7.446
 4118SOL    HW212891   2.240   0.858   7.328
 4119SOL     OW12892   3.362   0.273   5.719
 4119SOL    HW112893   3.289   0.212   5.730
 4119SOL    HW212894   3.374   0.311   5.806
 4120SOL     OW12895   3.150   0.827   5.614
 4120SOL    HW112896   3.192   0.741   5.617
 4120SOL    HW212897   3.182   0.866   5.533
 4121SOL     OW12898   2.933   1.327   6.457
 4121SOL    HW112899   2.929   1.260   6.389
 4121SOL    HW212900   2.982   1.399   6.416
 4122SOL     OW12901   2.174   0.799   6.525
 4122SOL    HW112902   2.267   0.821   6.522
 4122SOL    HW212903   2.172   0.710   6.561
 4123SOL     OW12904   2.201   0.533   6.602
 4123SOL    HW112905   2.158   0.449   6.586
 4123SOL    HW212906   2.276   0.533   6.543
 4124SOL     OW12907   2.995   0.380   7.283
 4124SOL    HW112908   2.946   0.434   7.345
 4124SOL    HW212909   3.081   0.421   7.278
 4125SOL     OW12910   3.014   0.226   7.067
 4125SOL    HW112911   3.004   0.280   7.145
 4125SOL    HW212912   3.039   0.288   6.998
 4126SOL     OW12913   1.871   1.316   5.778
 4126SOL    HW112914   1.783   1.330   5.744
 4126SOL    HW212915   1.869   1.227   5.813
 4127SOL     OW12916   1.924   1.748   6.517
 4127SOL    HW112917   1.935   1.697   6.436
 4127SOL    HW212918   1.973   1.829   6.500
 4128SOL     OW12919   2.836   0.788   6.811
 4128SOL    HW112920   2.894   0.769   6.885
 4128SOL    HW212921   2.754   0.744   6.832
 4129SOL     OW12922   1.894   0.546   6.703
 4129SOL    HW112923   1.970   0.522   6.649
 4129SOL    HW212924   1.929   0.548   6.792
 4130SOL     OW12925   2.067   0.525   7.299
 4130SOL    HW112926   2.137   0.504   7.237
 4130SOL    HW212927   2.022   0.601   7.259
 4131SOL     OW12928   3.241   0.936   7.243
 4131SOL    HW112929   3.264   1.029   7.240
 4131SOL    HW212930   3.237   0.909   7.152
 4132SOL     OW12931   2.679   0.572   5.951
 4132SOL    HW112932   2.685   0.497   5.892
 4132SOL    HW212933   2.605   0.623   5.919
 4133SOL     OW12934   3.501   0.602   6.768
 4133SOL    HW112935   3.490   0.541   6.841
 4133SOL    HW212936   3.587   0.581   6.732
 4134SOL     OW12937   2.573   0.452   6.841
 4134SOL    HW112938   2.520   0.375   6.817
 4134SOL    HW212939   2.563   0.512   6.767
 4135SOL     OW12940   2.801   1.651   7.041
 4135SOL    HW112941   2.829   1.647   6.950
 4135SOL    HW212942   2.802   1.744   7.063
 4136SOL     OW12943   2.325   0.494   5.768
 4136SOL    HW112944   2.382   0.566   5.793
 4136SOL    HW212945   2.239   0.534   5.756
 4137SOL     OW12946   2.042   1.131   7.067
 4137SOL    HW112947   2.014   1.081   7.144
 4137SOL    HW212948   2.035   1.068   6.994
 4138SOL     OW12949   3.181   1.044   6.808
 4138SOL    HW112950   3.205   0.982   6.739
 4138SOL    HW212951   3.112   1.098   6.769
 4139SOL     OW12952   3.177   0.853   5.890
 4139SOL    HW112953   3.101   0.828   5.942
 4139SOL    HW212954   3.149   0.843   5.800
 4140SOL     OW12955   3.644   1.740   6.745
 4140SOL    HW112956   3.699   1.768   6.671
 4140SOL    HW212957   3.613   1.653   6.720
 4141SOL     OW12958   3.111   1.734   6.700
 4141SOL    HW112959   3.192   1.755   6.653
 4141SOL    HW212960   3.116   1.639   6.713
 4142SOL     OW12961   3.550   0.119   6.074
 4142SOL    HW112962   3.631   0.135   6.026
 4142SOL    HW212963   3.553   0.026   6.096
 4143SOL     OW12964   3.254   1.564   6.071
 4143SOL    HW112965   3.314   1.597   6.004
 4143SOL    HW212966   3.206   1.641   6.100
 4144SOL     OW12967   2.071   1.753   7.460
 4144SOL    HW112968   2.013   1.694   7.508
 4144SOL    HW212969   2.023   1.835   7.456
 4145SOL     OW12970   3.139   0.927   6.257
 4145SOL    HW112971   3.214   0.868   6.267
 4145SOL    HW212972   3.173   0.999   6.204
 4146SOL     OW12973   2.670   1.274   7.014
 4146SOL    HW112974   2.660   1.311   7.101
 4146SOL    HW212975   2.582   1.276   6.976
 4147SOL     OW12976   2.534   1.621   5.743
 4147SOL    HW112977   2.542   1.632   5.648
 4147SOL    HW212978   2.479   1.544   5.754
 4148SOL     OW12979   3.481   1.728   6.978
 4148SOL    HW112980   3.537   1.732   6.900
 4148SOL    HW212981   3.467   1.819   7.002
 4149SOL     OW12982   3.704   0.182   6.557
 4149SOL    HW112983   3.728   0.097   6.519
 4149SOL    HW212984   3.618   0.201   6.520
 4150SOL     OW12985   2.125   0.315   6.301
 4150SOL    HW112986   2.039   0.350   6.278
 4150SOL    HW212987   2.124   0.308   6.396
 4151SOL     OW12988   3.071   1.603   5.618
 4151SOL    HW112989   3.059   1.512   5.645
 4151SOL    HW212990   3.004   1.616   5.550
 4152SOL     OW12991   2.690   1.004   6.956
 4152SOL    HW112992   2.733   0.988   6.872
 4152SOL    HW212993   2.691   1.099   6.966
 4153SOL     OW12994   2.777   0.911   5.878
 4153SOL    HW112995   2.837   0.944   5.811
 4153SOL    HW212996   2.827   0.843   5.923
 4154SOL     OW12997   3.351   1.629   5.630
 4154SOL    HW112998   3.256   1.620   5.615
 4154SOL    HW212999   3.388   1.635   5.542
 4155SOL     OW13000   2.265   1.277   7.013
 4155SOL    HW113001   2.243   1.357   7.062
 4155SOL    HW213002   2.189   1.220   7.026
 4156SOL     OW13003   3.462   1.278   6.863
 4156SOL    HW113004   3.533   1.272   6.927
 4156SOL    HW213005   3.406   1.348   6.896
 4157SOL     OW13006   2.917   1.109   6.293
 4157SOL    HW113007   2.845   1.057   6.329
 4157SOL    HW213008   2.981   1.044   6.264
 4158SOL     OW13009   2.877   0.249   6.556
 4158SOL    HW113010   2.867   0.199   6.476
 4158SOL    HW213011   2.873   0.183   6.626
 4159SOL     OW13012   3.583   0.394   6.957
 4159SOL    HW113013   3.655   0.457   6.958
 4159SOL    HW213014   3.614   0.322   6.904
 4160SOL     OW13015   2.124   1.353   5.891
 4160SOL    HW113016   2.031   1.347   5.869
 4160SOL    HW213017   2.126   1.408   5.970
 4161SOL     OW13018   1.969   1.002   7.299
 4161SOL    HW113019   1.895   0.991   7.358
 4161SOL    HW213020   2.045   0.978   7.352
 4162SOL     OW13021   2.556   0.258   7.089
 4162SOL    HW113022   2.622   0.203   7.047
 4162SOL    HW213023   2.583   0.263   7.180
 4163SOL     OW13024   1.963   0.317   5.578
 4163SOL    HW113025   1.896   0.337   5.643
 4163SOL    HW213026   1.970   0.397   5.526
 4164SOL     OW13027   3.286   0.857   6.984
 4164SOL    HW113028   3.236   0.918   6.930
 4164SOL    HW213029   3.375   0.860   6.947
 4165SOL     OW13030   1.943   0.152   5.926
 4165SOL    HW113031   1.912   0.211   5.857
 4165SOL    HW213032   2.029   0.124   5.897
 4166SOL     OW13033   3.039   1.336   5.703
 4166SOL    HW113034   2.948   1.307   5.705
 4166SOL    HW213035   3.066   1.337   5.795
 4167SOL     OW13036   2.484   0.830   7.022
 4167SOL    HW113037   2.540   0.905   7.003
 4167SOL    HW213038   2.544   0.756   7.029
 4168SOL     OW13039   3.348   1.785   6.565
 4168SOL    HW113040   3.373   1.847   6.496
 4168SOL    HW213041   3.431   1.752   6.599
 4169SOL     OW13042   2.581   0.559   7.290
 4169SOL    HW113043   2.624   0.619   7.351
 4169SOL    HW213044   2.604   0.472   7.323
 4170SOL     OW13045   3.338   1.195   7.216
 4170SOL    HW113046   3.328   1.210   7.310
 4170SOL    HW213047   3.431   1.212   7.199
 4171SOL     OW13048   3.525   0.880   6.845
 4171SOL    HW113049   3.525   0.795   6.801
 4171SOL    HW213050   3.518   0.944   6.774
 4172SOL     OW13051   3.082   0.338   6.028
 4172SOL    HW113052   3.151   0.272   6.019
 4172SOL    HW213053   3.101   0.382   6.111
 4173SOL     OW13054   2.450   0.737   6.257
 4173SOL    HW113055   2.485   0.825   6.245
 4173SOL    HW213056   2.384   0.728   6.189
 4174SOL     OW13057   3.615   0.381   7.228
 4174SOL    HW113058   3.595   0.390   7.135
 4174SOL    HW213059   3.555   0.314   7.259
 4175SOL     OW13060   3.617   0.930   7.099
 4175SOL    HW113061   3.607   1.023   7.116
 4175SOL    HW213062   3.592   0.920   7.007
 4176SOL     OW13063   2.726   1.363   5.617
 4176SOL    HW113064   2.696   1.374   5.707
 4176SOL    HW213065   2.737   1.452   5.584
 4177SOL     OW13066   2.730   0.963   6.433
 4177SOL    HW113067   2.781   0.893   6.472
 4177SOL    HW213068   2.694   1.011   6.508
 4178SOL     OW13069   2.940   0.988   5.676
 4178SOL    HW113070   2.917   1.041   5.599
 4178SOL    HW213071   3.014   0.935   5.648
 4179SOL     OW13072   3.712   1.557   6.427
 4179SOL    HW113073   3.634   1.540   6.375
 4179SOL    HW213074   3.712   1.488   6.494
 4180SOL     OW13075   3.676   0.181   6.831
 4180SOL    HW113076   3.677   0.086   6.839
 4180SOL    HW213077   3.694   0.197   6.738
 4181SOL     OW13078   2.290   0.434   6.111
 4181SOL    HW113079   2.325   0.363   6.058
 4181SOL    HW213080   2.242   0.390   6.182
 4182SOL     OW13081   3.558   1.491   6.683
 4182SOL    HW113082   3.480   1.468   6.631
 4182SOL    HW213083   3.567   1.418   6.745
 4183SOL     OW13084   2.194   0.556   6.881
 4183SOL    HW113085   2.247   0.497   6.935
 4183SOL    HW213086   2.213   0.531   6.791
 4184SOL     OW13087   3.323   0.253   6.696
 4184SOL    HW113088   3.336   0.165   6.731
 4184SOL    HW213089   3.267   0.296   6.761
 4185SOL     OW13090   2.865   0.026   6.732
 4185SOL    HW113091   2.783   3.995   6.695
 4185SOL    HW213092   2.920   3.948   6.741
 4186SOL     OW13093   2.660   1.327   5.881
 4186SOL    HW113094   2.611   1.248   5.902
 4186SOL    HW213095   2.723   1.337   5.953
 4187SOL     OW13096   3.171   0.070   5.746
 4187SOL    HW113097   3.175   3.986   5.700
 4187SOL    HW213098   3.087   0.069   5.791
 4188SOL     OW13099   3.142   0.456   6.271
 4188SOL    HW113100   3.096   0.540   6.265
 4188SOL    HW213101   3.145   0.437   6.365
 4189SOL     OW13102   3.453   0.210   6.453
 4189SOL    HW113103   3.405   0.234   6.533
 4189SOL    HW213104   3.451   0.289   6.399
 4190SOL     OW13105   1.905   1.065   5.887
 4190SOL    HW113106   2.000   1.062   5.876
 4190SOL    HW213107   1.881   0.976   5.913
 4191SOL     OW13108   2.752   1.656   5.919
 4191SOL    HW113109   2.679   1.639   5.860
 4191SOL    HW213110   2.713   1.705   5.992
 4192SOL     OW13111   2.088   0.621   7.568
 4192SOL    HW113112   1.998   0.628   7.600
 4192SOL    HW213113   2.079   0.599   7.476
 4193SOL     OW13114   2.078   0.301   8.440
 4193SOL    HW113115   2.116   0.257   8.516
 4193SOL    HW213116   1.994   0.259   8.427
 4194SOL     OW13117   1.870   0.396   8.081
 4194SOL    HW113118   1.784   0.412   8.119
 4194SOL    HW213119   1.856   0.329   8.015
 4195SOL     OW13120   2.430   1.294   8.626
 4195SOL    HW113121   2.344   1.298   8.586
 4195SOL    HW213122   2.446   1.382   8.659
 4196SOL     OW13123   3.426   1.513   8.156
 4196SOL    HW113124   3.385   1.491   8.239
 4196SOL    HW213125   3.354   1.517   8.093
 4197SOL     OW13126   2.995   0.699   8.144
 4197SOL    HW113127   3.042   0.781   8.132
 4197SOL    HW213128   2.947   0.710   8.226
 4198SOL     OW13129   3.623   0.624   7.674
 4198SOL    HW113130   3.605   0.612   7.581
 4198SOL    HW213131   3.606   0.538   7.713
 4199SOL     OW13132   2.613   1.139   8.494
 4199SOL    HW113133   2.545   1.176   8.549
 4199SOL    HW213134   2.655   1.215   8.453
 4200SOL     OW13135   2.734   0.768   9.272
 4200SOL    HW113136   2.720   0.838   9.335
 4200SOL    HW213137   2.756   0.813   9.191
 4201SOL     OW13138   2.550   1.000   8.089
 4201SOL    HW113139   2.614   0.991   8.160
 4201SOL    HW213140   2.478   1.049   8.129
 4202SOL     OW13141   2.575   1.150   9.264
 4202SOL    HW113142   2.622   1.227   9.294
 4202SOL    HW213143   2.494   1.184   9.227
 4203SOL     OW13144   2.192   1.415   8.517
 4203SOL    HW113145   2.116   1.381   8.471
 4203SOL    HW213146   2.236   1.472   8.453
 4204SOL     OW13147   3.321   1.502   8.806
 4204SOL    HW113148   3.375   1.580   8.816
 4204SOL    HW213149   3.255   1.510   8.875
 4205SOL     OW13150   2.308   0.392   8.940
 4205SOL    HW113151   2.399   0.362   8.940
 4205SOL    HW213152   2.256   0.312   8.948
 4206SOL     OW13153   3.472   0.450   8.183
 4206SOL    HW113154   3.404   0.483   8.125
 4206SOL    HW213155   3.493   0.523   8.241
 4207SOL     OW13156   2.091   1.693   7.915
 4207SOL    HW113157   2.093   1.764   7.980
 4207SOL    HW213158   2.155   1.720   7.849
 4208SOL     OW13159   2.999   1.342   9.142
 4208SOL    HW113160   3.040   1.337   9.228
 4208SOL    HW213161   2.947   1.262   9.135
 4209SOL     OW13162   2.123   1.434   7.994
 4209SOL    HW113163   2.098   1.523   7.968
 4209SOL    HW213164   2.048   1.401   8.041
 4210SOL     OW13165   2.122   1.090   8.339
 4210SOL    HW113166   2.118   1.003   8.378
 4210SOL    HW213167   2.065   1.144   8.393
 4211SOL     OW13168   2.468   1.793   8.877
 4211SOL    HW113169   2.389   1.776   8.928
 4211SOL    HW213170   2.493   1.883   8.900
 4212SOL     OW13171   2.443   0.982   7.584
 4212SOL    HW113172   2.485   1.031   7.513
 4212SOL    HW213173   2.485   1.015   7.664
 4213SOL     OW13174   3.444   0.142   8.904
 4213SOL    HW113175   3.471   0.214   8.847
 4213SOL    HW213176   3.406   0.184   8.981
 4214SOL     OW13177   1.986   0.650   8.013
 4214SOL    HW113178   1.955   0.563   8.037
 4214SOL    HW213179   1.975   0.702   8.093
 4215SOL     OW13180   3.702   1.757   7.785
 4215SOL    HW113181   3.773   1.733   7.844
 4215SOL    HW213182   3.720   1.849   7.762
 4216SOL     OW13183   3.550   0.918   8.095
 4216SOL    HW113184   3.634   0.875   8.080
 4216SOL    HW213185   3.534   0.967   8.015
 4217SOL     OW13186   3.504   1.104   7.880
 4217SOL    HW113187   3.589   1.109   7.835
 4217SOL    HW213188   3.511   1.167   7.951
 4218SOL     OW13189   1.985   0.750   9.028
 4218SOL    HW113190   2.075   0.782   9.032
 4218SOL    HW213191   1.931   0.829   9.034
 4219SOL     OW13192   2.482   1.363   8.227
 4219SOL    HW113193   2.431   1.283   8.222
 4219SOL    HW213194   2.472   1.403   8.140
 4220SOL     OW13195   3.149   1.237   8.870
 4220SOL    HW113196   3.181   1.170   8.810
 4220SOL    HW213197   3.208   1.232   8.945
 4221SOL     OW13198   2.682   0.005   7.966
 4221SOL    HW113199   2.728   0.085   7.940
 4221SOL    HW213200   2.590   0.029   7.965
 4222SOL     OW13201   2.051   0.962   8.724
 4222SOL    HW113202   2.136   0.922   8.709
 4222SOL    HW213203   1.991   0.913   8.668
 4223SOL     OW13204   3.389   0.997   7.649
 4223SOL    HW113205   3.320   0.940   7.683
 4223SOL    HW213206   3.433   1.031   7.727
 4224SOL     OW13207   3.046   1.810   9.072
 4224SOL    HW113208   3.055   1.870   8.998
 4224SOL    HW213209   3.064   1.723   9.036
 4225SOL     OW13210   2.220   0.252   9.292
 4225SOL    HW113211   2.265   0.336   9.292
 4225SOL    HW213212   2.127   0.274   9.294
 4226SOL     OW13213   3.328   1.420   8.396
 4226SOL    HW113214   3.262   1.435   8.464
 4226SOL    HW213215   3.317   1.328   8.372
 4227SOL     OW13216   3.513   1.748   8.028
 4227SOL    HW113217   3.501   1.714   7.939
 4227SOL    HW213218   3.495   1.673   8.084
 4228SOL     OW13219   2.456   0.720   7.718
 4228SOL    HW113220   2.457   0.803   7.671
 4228SOL    HW213221   2.391   0.732   7.787
 4229SOL     OW13222   3.136   0.370   8.389
 4229SOL    HW113223   3.049   0.331   8.397
 4229SOL    HW213224   3.194   0.308   8.434
 4230SOL     OW13225   3.440   1.669   7.758
 4230SOL    HW113226   3.530   1.699   7.752
 4230SOL    HW213227   3.413   1.655   7.668
 4231SOL     OW13228   2.658   0.616   8.899
 4231SOL    HW113229   2.629   0.590   8.987
 4231SOL    HW213230   2.620   0.549   8.841
 4232SOL     OW13231   3.254   0.476   9.125
 4232SOL    HW113232   3.260   0.521   9.209
 4232SOL    HW213233   3.310   0.399   9.135
 4233SOL     OW13234   2.813   0.887   9.033
 4233SOL    HW113235   2.869   0.818   8.996
 4233SOL    HW213236   2.765   0.922   8.958
 4234SOL     OW13237   2.855   0.402   8.685
 4234SOL    HW113238   2.770   0.422   8.724
 4234SOL    HW213239   2.835   0.375   8.596
 4235SOL     OW13240   2.914   0.701   7.872
 4235SOL    HW113241   2.931   0.694   7.966
 4235SOL    HW213242   2.831   0.655   7.859
 4236SOL     OW13243   1.950   0.821   8.226
 4236SOL    HW113244   2.030   0.814   8.278
 4236SOL    HW213245   1.906   0.899   8.259
 4237SOL     OW13246   2.757   0.352   7.648
 4237SOL    HW113247   2.800   0.411   7.585
 4237SOL    HW213248   2.746   0.270   7.601
 4238SOL     OW13249   3.568   0.573   9.278
 4238SOL    HW113250   3.532   0.647   9.230
 4238SOL    HW213251   3.594   0.511   9.209
 4239SOL     OW13252   3.239   1.141   7.986
 4239SOL    HW113253   3.320   1.129   7.937
 4239SOL    HW213254   3.189   1.204   7.935
 4240SOL     OW13255   2.421   0.199   8.328
 4240SOL    HW113256   2.423   0.218   8.422
 4240SOL    HW213257   2.416   0.285   8.286
 4241SOL     OW13258   2.860   1.453   7.917
 4241SOL    HW113259   2.809   1.526   7.884
 4241SOL    HW213260   2.853   1.459   8.012
 4242SOL     OW13261   2.226   1.799   8.276
 4242SOL    HW113262   2.258   1.713   8.302
 4242SOL    HW213263   2.291   1.860   8.312
 4243SOL     OW13264   3.668   1.062   8.316
 4243SOL    HW113265   3.615   1.035   8.241
 4243SOL    HW213266   3.606   1.065   8.389
 4244SOL     OW13267   3.089   1.540   8.961
 4244SOL    HW113268   3.077   1.467   9.023
 4244SOL    HW213269   3.023   1.525   8.894
 4245SOL     OW13270   2.180   0.955   7.704
 4245SOL    HW113271   2.260   0.975   7.656
 4245SOL    HW213272   2.148   0.874   7.665
 4246SOL     OW13273   3.342   0.749   8.176
 4246SOL    HW113274   3.337   0.707   8.262
 4246SOL    HW213275   3.420   0.804   8.181
 4247SOL     OW13276   2.332   1.265   9.185
 4247SOL    HW113277   2.305   1.269   9.093
 4247SOL    HW213278   2.249   1.261   9.234
 4248SOL     OW13279   3.014   1.778   7.686
 4248SOL    HW113280   2.974   1.723   7.753
 4248SOL    HW213281   3.030   1.720   7.613
 4249SOL     OW13282   2.031   0.275   8.948
 4249SOL    HW113283   1.977   0.353   8.936
 4249SOL    HW213284   2.035   0.263   9.042
 4250SOL     OW13285   3.487   1.383   7.536
 4250SOL    HW113286   3.444   1.467   7.521
 4250SOL    HW213287   3.420   1.318   7.515
 4251SOL     OW13288   2.298   1.777   7.763
 4251SOL    HW113289   2.351   1.818   7.831
 4251SOL    HW213290   2.359   1.721   7.715
 4252SOL     OW13291   3.298   0.172   7.850
 4252SOL    HW113292   3.250   0.097   7.813
 4252SOL    HW213293   3.372   0.133   7.895
 4253SOL     OW13294   2.168   1.785   8.667
 4253SOL    HW113295   2.202   1.702   8.703
 4253SOL    HW213296   2.120   1.759   8.589
 4254SOL     OW13297   2.802   1.708   8.351
 4254SOL    HW113298   2.878   1.659   8.380
 4254SOL    HW213299   2.764   1.656   8.280
 4255SOL     OW13300   2.259   0.694   7.922
 4255SOL    HW113301   2.277   0.601   7.935
 4255SOL    HW213302   2.166   0.704   7.941
 4256SOL     OW13303   3.392   0.229   9.175
 4256SOL    HW113304   3.383   0.254   9.267
 4256SOL    HW213305   3.376   0.134   9.174
 4257SOL     OW13306   2.506   0.129   7.557
 4257SOL    HW113307   2.528   0.044   7.596
 4257SOL    HW213308   2.444   0.108   7.488
 4258SOL     OW13309   2.636   0.282   9.218
 4258SOL    HW113310   2.711   0.222   9.221
 4258SOL    HW213311   2.580   0.254   9.290
 4259SOL     OW13312   2.740   1.525   8.646
 4259SOL    HW113313   2.722   1.488   8.559
 4259SOL    HW213314   2.808   1.470   8.682
 4260SOL     OW13315   3.202   0.587   8.879
 4260SOL    HW113316   3.232   0.559   8.965
 4260SOL    HW213317   3.236   0.676   8.869
 4261SOL     OW13318   2.687   1.397   8.404
 4261SOL    HW113319   2.767   1.381   8.354
 4261SOL    HW213320   2.617   1.387   8.340
 4262SOL     OW13321   2.792   0.512   8.347
 4262SOL    HW113322   2.767   0.503   8.255
 4262SOL    HW213323   2.818   0.423   8.373
 4263SOL     OW13324   2.407   0.056   7.938
 4263SOL    HW113325   2.333   0.062   7.999
 4263SOL    HW213326   2.402   0.137   7.887
 4264SOL     OW13327   3.290   1.198   7.488
 4264SOL    HW113328   3.323   1.123   7.538
 4264SOL    HW213329   3.206   1.218   7.529
 4265SOL     OW13330   2.192   0.044   7.659
 4265SOL    HW113331   2.199   0.110   7.590
 4265SOL    HW213332   2.274   0.053   7.708
 4266SOL     OW13333   2.805   0.251   7.907
 4266SOL    HW113334   2.780   0.289   7.823
 4266SOL    HW213335   2.901   0.255   7.908
 4267SOL     OW13336   2.942   0.685   8.906
 4267SOL    HW113337   2.872   0.619   8.912
 4267SOL    HW213338   3.022   0.633   8.901
 4268SOL     OW13339   3.085   1.568   8.238
 4268SOL    HW113340   3.100   1.638   8.174
 4268SOL    HW213341   3.152   1.584   8.305
 4269SOL     OW13342   2.331   1.141   8.176
 4269SOL    HW113343   2.260   1.123   8.239
 4269SOL    HW213344   2.289   1.134   8.090
 4270SOL     OW13345   3.124   1.793   8.055
 4270SOL    HW113346   3.175   1.854   8.001
 4270SOL    HW213347   3.065   1.849   8.105
 4271SOL     OW13348   2.884   0.540   7.478
 4271SOL    HW113349   2.840   0.623   7.458
 4271SOL    HW213350   2.948   0.562   7.546
 4272SOL     OW13351   1.945   0.550   8.845
 4272SOL    HW113352   2.036   0.552   8.815
 4272SOL    HW213353   1.937   0.622   8.906
 4273SOL     OW13354   2.425   0.231   8.609
 4273SOL    HW113355   2.448   0.139   8.618
 4273SOL    HW213356   2.335   0.236   8.642
 4274SOL     OW13357   2.732   0.461   8.086
 4274SOL    HW113358   2.684   0.515   8.023
 4274SOL    HW213359   2.753   0.381   8.037
 4275SOL     OW13360   2.858   0.039   8.229
 4275SOL    HW113361   2.820   0.068   8.146
 4275SOL    HW213362   2.870   3.945   8.217
 4276SOL     OW13363   3.302   1.161   8.306
 4276SOL    HW113364   3.232   1.096   8.304
 4276SOL    HW213365   3.328   1.170   8.214
 4277SOL     OW13366   3.326   0.609   8.421
 4277SOL    HW113367   3.271   0.530   8.426
 4277SOL    HW213368   3.385   0.601   8.495
 4278SOL     OW13369   3.720   0.825   7.823
 4278SOL    HW113370   3.762   0.767   7.888
 4278SOL    HW213371   3.683   0.765   7.758
 4279SOL     OW13372   3.529   1.265   8.092
 4279SOL    HW113373   3.625   1.267   8.101
 4279SOL    HW213374   3.501   1.354   8.112
 4280SOL     OW13375   3.257   0.577   7.517
 4280SOL    HW113376   3.194   0.557   7.586
 4280SOL    HW213377   3.342   0.559   7.556
 4281SOL     OW13378   2.388   0.266   7.764
 4281SOL    HW113379   2.444   0.227   7.696
 4281SOL    HW213380   2.359   0.349   7.726
 4282SOL     OW13381   3.613   1.233   9.012
 4282SOL    HW113382   3.700   1.199   8.995
 4282SOL    HW213383   3.628   1.323   9.042
 4283SOL     OW13384   2.918   1.353   8.781
 4283SOL    HW113385   2.843   1.322   8.831
 4283SOL    HW213386   2.994   1.312   8.822
 4284SOL     OW13387   3.468   1.628   9.104
 4284SOL    HW113388   3.460   1.663   9.015
 4284SOL    HW213389   3.548   1.576   9.103
 4285SOL     OW13390   2.994   1.207   8.551
 4285SOL    HW113391   2.935   1.245   8.617
 4285SOL    HW213392   2.962   1.241   8.468
 4286SOL     OW13393   3.489   1.095   8.523
 4286SOL    HW113394   3.480   1.157   8.595
 4286SOL    HW213395   3.413   1.112   8.468
 4287SOL     OW13396   2.774   0.117   8.849
 4287SOL    HW113397   2.794   0.089   8.760
 4287SOL    HW213398   2.855   0.159   8.880
 4288SOL     OW13399   2.846   1.115   9.171
 4288SOL    HW113400   2.755   1.132   9.195
 4288SOL    HW213401   2.843   1.037   9.117
 4289SOL     OW13402   2.575   1.069   7.815
 4289SOL    HW113403   2.556   1.049   7.907
 4289SOL    HW213404   2.648   1.012   7.793
 4290SOL     OW13405   2.283   0.817   8.700
 4290SOL    HW113406   2.352   0.825   8.766
 4290SOL    HW213407   2.248   0.728   8.712
 4291SOL     OW13408   3.128   0.375   8.725
 4291SOL    HW113409   3.162   0.453   8.769
 4291SOL    HW213410   3.041   0.400   8.695
 4292SOL     OW13411   1.938   1.578   8.803
 4292SOL    HW113412   1.906   1.637   8.735
 4292SOL    HW213413   2.033   1.573   8.788
 4293SOL     OW13414   2.208   1.118   7.932
 4293SOL    HW113415   2.204   1.196   7.875
 4293SOL    HW213416   2.204   1.044   7.871
 4294SOL     OW13417   2.416   0.531   8.304
 4294SOL    HW113418   2.429   0.591   8.231
 4294SOL    HW213419   2.480   0.558   8.369
 4295SOL     OW13420   3.108   1.352   7.836
 4295SOL    HW113421   3.165   1.421   7.868
 4295SOL    HW213422   3.021   1.374   7.871
 4296SOL     OW13423   3.148   1.460   8.596
 4296SOL    HW113424   3.204   1.464   8.673
 4296SOL    HW213425   3.093   1.383   8.611
 4297SOL     OW13426   3.432   0.633   7.934
 4297SOL    HW113427   3.391   0.688   8.001
 4297SOL    HW213428   3.482   0.694   7.880
 4298SOL     OW13429   2.211   1.525   8.760
 4298SOL    HW113430   2.198   1.479   8.677
 4298SOL    HW213431   2.306   1.533   8.768
 4299SOL     OW13432   2.280   0.745   9.050
 4299SOL    HW113433   2.341   0.789   8.992
 4299SOL    HW213434   2.321   0.660   9.068
 4300SOL     OW13435   3.467   0.779   9.132
 4300SOL    HW113436   3.382   0.822   9.127
 4300SOL    HW213437   3.520   0.821   9.065
 4301SOL     OW13438   2.873   0.135   9.229
 4301SOL    HW113439   2.926   0.206   9.192
 4301SOL    HW213440   2.858   0.076   9.155
 4302SOL     OW13441   2.351   0.034   9.209
 4302SOL    HW113442   2.352   0.048   9.114
 4302SOL    HW213443   2.291   0.101   9.243
 4303SOL     OW13444   2.447   0.874   8.480
 4303SOL    HW113445   2.476   0.965   8.482
 4303SOL    HW213446   2.389   0.866   8.556
 4304SOL     OW13447   3.213   0.859   8.472
 4304SOL    HW113448   3.127   0.845   8.432
 4304SOL    HW213449   3.258   0.775   8.465
 4305SOL     OW13450   3.061   0.538   7.705
 4305SOL    HW113451   3.070   0.459   7.758
 4305SOL    HW213452   3.017   0.601   7.763
 4306SOL     OW13453   2.161   0.209   8.691
 4306SOL    HW113454   2.118   0.238   8.772
 4306SOL    HW213455   2.150   0.114   8.691
 4307SOL     OW13456   1.906   1.313   8.726
 4307SOL    HW113457   1.940   1.256   8.795
 4307SOL    HW213458   1.914   1.401   8.761
 4308SOL     OW13459   2.584   0.631   8.499
 4308SOL    HW113460   2.660   0.620   8.443
 4308SOL    HW213461   2.554   0.721   8.481
 4309SOL     OW13462   3.594   0.957   9.311
 4309SOL    HW113463   3.552   0.894   9.253
 4309SOL    HW213464   3.529   0.973   9.381
 4310SOL     OW13465   2.185   0.055   8.101
 4310SOL    HW113466   2.165   0.148   8.112
 4310SOL    HW213467   2.152   0.014   8.180
 4311SOL     OW13468   3.474   0.393   7.827
 4311SOL    HW113469   3.435   0.324   7.880
 4311SOL    HW213470   3.453   0.474   7.873
 4312SOL     OW13471   2.892   0.759   8.406
 4312SOL    HW113472   2.884   0.776   8.500
 4312SOL    HW213473   2.864   0.668   8.396
 4313SOL     OW13474   2.843   1.567   9.168
 4313SOL    HW113475   2.828   1.610   9.084
 4313SOL    HW213476   2.887   1.485   9.145
 4314SOL     OW13477   3.704   1.497   9.046
 4314SOL    HW113478   3.728   1.527   8.958
 4314SOL    HW213479   3.784   1.507   9.097
 4315SOL     OW13480   2.214   0.915   9.257
 4315SOL    HW113481   2.295   0.935   9.304
 4315SOL    HW213482   2.240   0.853   9.189
 4316SOL     OW13483   3.362   0.274   7.581
 4316SOL    HW113484   3.289   0.212   7.592
 4316SOL    HW213485   3.374   0.311   7.669
 4317SOL     OW13486   3.148   0.826   7.476
 4317SOL    HW113487   3.191   0.741   7.480
 4317SOL    HW213488   3.181   0.866   7.396
 4318SOL     OW13489   2.929   1.337   8.300
 4318SOL    HW113490   2.935   1.264   8.238
 4318SOL    HW213491   2.991   1.402   8.267
 4319SOL     OW13492   2.169   0.810   8.395
 4319SOL    HW113493   2.263   0.830   8.387
 4319SOL    HW213494   2.167   0.720   8.426
 4320SOL     OW13495   2.199   0.537   8.462
 4320SOL    HW113496   2.157   0.452   8.447
 4320SOL    HW213497   2.274   0.537   8.404
 4321SOL     OW13498   2.995   0.380   9.145
 4321SOL    HW113499   2.946   0.434   9.207
 4321SOL    HW213500   3.081   0.421   9.141
 4322SOL     OW13501   3.014   0.226   8.929
 4322SOL    HW113502   3.004   0.280   9.008
 4322SOL    HW213503   3.039   0.288   8.861
 4323SOL     OW13504   1.988   1.724   8.446
 4323SOL    HW113505   1.948   1.661   8.386
 4323SOL    HW213506   2.023   1.793   8.388
 4324SOL     OW13507   2.358   1.572   8.362
 4324SOL    HW113508   2.425   1.637   8.382
 4324SOL    HW213509   2.405   1.501   8.318
 4325SOL     OW13510   2.839   0.787   8.671
 4325SOL    HW113511   2.896   0.769   8.746
 4325SOL    HW213512   2.754   0.751   8.697
 4326SOL     OW13513   1.895   0.548   8.565
 4326SOL    HW113514   1.969   0.522   8.510
 4326SOL    HW213515   1.929   0.547   8.654
 4327SOL     OW13516   2.066   0.527   9.160
 4327SOL    HW113517   2.137   0.506   9.099
 4327SOL    HW213518   2.022   0.603   9.121
 4328SOL     OW13519   3.242   0.935   9.105
 4328SOL    HW113520   3.263   1.029   9.102
 4328SOL    HW213521   3.238   0.909   9.013
 4329SOL     OW13522   2.680   0.573   7.812
 4329SOL    HW113523   2.685   0.497   7.754
 4329SOL    HW213524   2.604   0.622   7.780
 4330SOL     OW13525   3.501   0.602   8.630
 4330SOL    HW113526   3.490   0.542   8.703
 4330SOL    HW213527   3.587   0.582   8.594
 4331SOL     OW13528   2.114   1.536   9.154
 4331SOL    HW113529   2.095   1.605   9.217
 4331SOL    HW213530   2.118   1.456   9.207
 4332SOL     OW13531   2.572   0.452   8.703
 4332SOL    HW113532   2.520   0.375   8.679
 4332SOL    HW213533   2.562   0.512   8.629
 4333SOL     OW13534   2.786   1.679   8.917
 4333SOL    HW113535   2.762   1.641   8.832
 4333SOL    HW213536   2.780   1.773   8.904
 4334SOL     OW13537   2.324   0.494   7.631
 4334SOL    HW113538   2.381   0.566   7.656
 4334SOL    HW213539   2.238   0.535   7.618
 4335SOL     OW13540   2.005   1.142   8.921
 4335SOL    HW113541   2.006   1.093   9.004
 4335SOL    HW213542   2.022   1.076   8.854
 4336SOL     OW13543   3.183   1.044   8.669
 4336SOL    HW113544   3.206   0.981   8.600
 4336SOL    HW213545   3.116   1.099   8.630
 4337SOL     OW13546   3.174   0.857   7.753
 4337SOL    HW113547   3.101   0.824   7.805
 4337SOL    HW213548   3.148   0.842   7.662
 4338SOL     OW13549   3.643   1.741   8.606
 4338SOL    HW113550   3.698   1.768   8.533
 4338SOL    HW213551   3.613   1.653   8.582
 4339SOL     OW13552   3.101   1.732   8.554
 4339SOL    HW113553   3.184   1.756   8.512
 4339SOL    HW213554   3.111   1.640   8.576
 4340SOL     OW13555   1.948   1.265   8.461
 4340SOL    HW113556   1.930   1.280   8.554
 4340SOL    HW213557   1.875   1.210   8.431
 4341SOL     OW13558   2.539   1.669   9.180
 4341SOL    HW113559   2.485   1.748   9.179
 4341SOL    HW213560   2.607   1.684   9.115
 4342SOL     OW13561   3.550   0.119   7.936
 4342SOL    HW113562   3.631   0.135   7.888
 4342SOL    HW213563   3.553   0.026   7.958
 4343SOL     OW13564   3.250   1.569   7.933
 4343SOL    HW113565   3.313   1.601   7.869
 4343SOL    HW213566   3.206   1.648   7.965
 4344SOL     OW13567   2.033   1.738   9.307
 4344SOL    HW113568   1.969   1.697   9.366
 4344SOL    HW213569   2.004   1.829   9.301
 4345SOL     OW13570   3.139   0.928   8.120
 4345SOL    HW113571   3.213   0.869   8.131
 4345SOL    HW213572   3.174   1.000   8.066
 4346SOL     OW13573   2.670   1.275   8.874
 4346SOL    HW113574   2.643   1.315   8.956
 4346SOL    HW213575   2.600   1.295   8.813
 4347SOL     OW13576   3.481   1.727   8.839
 4347SOL    HW113577   3.537   1.732   8.762
 4347SOL    HW213578   3.467   1.819   8.864
 4348SOL     OW13579   3.704   0.182   8.419
 4348SOL    HW113580   3.728   0.097   8.381
 4348SOL    HW213581   3.618   0.201   8.382
 4349SOL     OW13582   2.125   0.315   8.163
 4349SOL    HW113583   2.039   0.349   8.140
 4349SOL    HW213584   2.124   0.308   8.258
 4350SOL     OW13585   3.065   1.603   7.483
 4350SOL    HW113586   3.057   1.509   7.503
 4350SOL    HW213587   3.003   1.617   7.411
 4351SOL     OW13588   2.686   1.006   8.822
 4351SOL    HW113589   2.728   1.002   8.735
 4351SOL    HW213590   2.683   1.099   8.842
 4352SOL     OW13591   2.779   0.913   7.735
 4352SOL    HW113592   2.843   0.945   7.671
 4352SOL    HW213593   2.825   0.844   7.783
 4353SOL     OW13594   3.351   1.627   7.491
 4353SOL    HW113595   3.256   1.621   7.475
 4353SOL    HW213596   3.389   1.633   7.404
 4354SOL     OW13597   2.232   1.300   8.939
 4354SOL    HW113598   2.217   1.379   8.886
 4354SOL    HW213599   2.154   1.246   8.924
 4355SOL     OW13600   3.462   1.280   8.725
 4355SOL    HW113601   3.530   1.271   8.791
 4355SOL    HW213602   3.405   1.349   8.758
 4356SOL     OW13603   2.919   1.109   8.153
 4356SOL    HW113604   2.847   1.060   8.192
 4356SOL    HW213605   2.984   1.043   8.128
 4357SOL     OW13606   2.877   0.249   8.418
 4357SOL    HW113607   2.867   0.198   8.337
 4357SOL    HW213608   2.873   0.184   8.488
 4358SOL     OW13609   2.481   1.499   7.999
 4358SOL    HW113610   2.499   1.463   7.912
 4358SOL    HW213611   2.402   1.553   7.987
 4359SOL     OW13612   3.582   0.395   8.819
 4359SOL    HW113613   3.655   0.457   8.820
 4359SOL    HW213614   3.614   0.322   8.765
 4360SOL     OW13615   1.976   1.028   9.170
 4360SOL    HW113616   1.899   1.003   9.222
 4360SOL    HW213617   2.050   0.987   9.215
 4361SOL     OW13618   2.556   0.258   8.951
 4361SOL    HW113619   2.622   0.202   8.909
 4361SOL    HW213620   2.583   0.263   9.042
 4362SOL     OW13621   1.963   0.317   7.440
 4362SOL    HW113622   1.895   0.336   7.505
 4362SOL    HW213623   1.970   0.397   7.388
 4363SOL     OW13624   3.286   0.856   8.845
 4363SOL    HW113625   3.237   0.918   8.792
 4363SOL    HW213626   3.375   0.859   8.809
 4364SOL     OW13627   1.943   0.151   7.788
 4364SOL    HW113628   1.911   0.210   7.719
 4364SOL    HW213629   2.030   0.124   7.758
 4365SOL     OW13630   3.040   1.333   7.568
 4365SOL    HW113631   2.964   1.275   7.574
 4365SOL    HW213632   3.072   1.341   7.658
 4366SOL     OW13633   2.484   0.829   8.882
 4366SOL    HW113634   2.540   0.904   8.867
 4366SOL    HW213635   2.544   0.755   8.891
 4367SOL     OW13636   3.344   1.782   8.428
 4367SOL    HW113637   3.368   1.847   8.362
 4367SOL    HW213638   3.428   1.753   8.464
 4368SOL     OW13639   2.580   0.560   9.152
 4368SOL    HW113640   2.623   0.622   9.211
 4368SOL    HW213641   2.604   0.474   9.186
 4369SOL     OW13642   3.335   1.196   9.078
 4369SOL    HW113643   3.324   1.211   9.172
 4369SOL    HW213644   3.428   1.213   9.062
 4370SOL     OW13645   2.236   1.747   9.019
 4370SOL    HW113646   2.158   1.760   8.965
 4370SOL    HW213647   2.220   1.663   9.064
 4371SOL     OW13648   3.526   0.880   8.707
 4371SOL    HW113649   3.525   0.795   8.664
 4371SOL    HW213650   3.519   0.944   8.636
 4372SOL     OW13651   3.083   0.339   7.890
 4372SOL    HW113652   3.151   0.272   7.880
 4372SOL    HW213653   3.102   0.382   7.973
 4373SOL     OW13654   2.452   0.736   8.119
 4373SOL    HW113655   2.490   0.822   8.103
 4373SOL    HW213656   2.385   0.727   8.051
 4374SOL     OW13657   3.616   0.381   9.090
 4374SOL    HW113658   3.595   0.390   8.997
 4374SOL    HW213659   3.555   0.314   9.121
 4375SOL     OW13660   3.617   0.930   8.961
 4375SOL    HW113661   3.607   1.023   8.979
 4375SOL    HW213662   3.592   0.920   8.869
 4376SOL     OW13663   2.720   1.341   7.458
 4376SOL    HW113664   2.721   1.355   7.553
 4376SOL    HW213665   2.768   1.416   7.422
 4377SOL     OW13666   2.525   1.790   8.385
 4377SOL    HW113667   2.508   1.882   8.364
 4377SOL    HW213668   2.620   1.783   8.385
 4378SOL     OW13669   2.732   0.971   8.302
 4378SOL    HW113670   2.781   0.898   8.339
 4378SOL    HW213671   2.693   1.015   8.377
 4379SOL     OW13672   2.945   0.997   7.537
 4379SOL    HW113673   2.921   1.039   7.454
 4379SOL    HW213674   3.016   0.938   7.513
 4380SOL     OW13675   3.713   1.556   8.289
 4380SOL    HW113676   3.634   1.539   8.239
 4380SOL    HW213677   3.714   1.488   8.357
 4381SOL     OW13678   2.090   1.299   9.303
 4381SOL    HW113679   2.023   1.236   9.276
 4381SOL    HW213680   2.075   1.312   9.397
 4382SOL     OW13681   1.945   1.232   8.110
 4382SOL    HW113682   1.960   1.186   8.192
 4382SOL    HW213683   2.012   1.197   8.051
 4383SOL     OW13684   2.544   1.406   9.076
 4383SOL    HW113685   2.466   1.363   9.110
 4383SOL    HW213686   2.541   1.494   9.114
 4384SOL     OW13687   3.676   0.181   8.692
 4384SOL    HW113688   3.677   0.086   8.701
 4384SOL    HW213689   3.694   0.197   8.600
 4385SOL     OW13690   2.292   0.434   7.974
 4385SOL    HW113691   2.325   0.362   7.920
 4385SOL    HW213692   2.243   0.390   8.044
 4386SOL     OW13693   3.558   1.491   8.544
 4386SOL    HW113694   3.480   1.468   8.494
 4386SOL    HW213695   3.567   1.419   8.607
 4387SOL     OW13696   2.194   0.557   8.743
 4387SOL    HW113697   2.247   0.498   8.797
 4387SOL    HW213698   2.213   0.530   8.653
 4388SOL     OW13699   2.706   1.590   8.128
 4388SOL    HW113700   2.675   1.646   8.057
 4388SOL    HW213701   2.636   1.526   8.139
 4389SOL     OW13702   3.323   0.253   8.558
 4389SOL    HW113703   3.337   0.165   8.593
 4389SOL    HW213704   3.267   0.297   8.623
 4390SOL     OW13705   2.865   0.027   8.594
 4390SOL    HW113706   2.783   3.994   8.557
 4390SOL    HW213707   2.920   3.949   8.603
 4391SOL     OW13708   2.672   1.323   7.737
 4391SOL    HW113709   2.628   1.241   7.758
 4391SOL    HW213710   2.737   1.333   7.807
 4392SOL     OW13711   2.483   1.556   8.735
 4392SOL    HW113712   2.483   1.638   8.784
 4392SOL    HW213713   2.571   1.549   8.699
 4393SOL     OW13714   3.171   0.070   7.607
 4393SOL    HW113715   3.177   3.986   7.561
 4393SOL    HW213716   3.087   0.068   7.652
 4394SOL     OW13717   3.142   0.457   8.133
 4394SOL    HW113718   3.096   0.540   8.127
 4394SOL    HW213719   3.145   0.437   8.226
 4395SOL     OW13720   3.453   0.210   8.315
 4395SOL    HW113721   3.404   0.234   8.394
 4395SOL    HW213722   3.451   0.289   8.261
 4396SOL     OW13723   1.886   1.055   7.783
 4396SOL    HW113724   1.978   1.057   7.754
 4396SOL    HW213725   1.869   0.963   7.802
 4397SOL     OW13726   2.088   0.619   9.431
 4397SOL    HW113727   1.998   0.628   9.462
 4397SOL    HW213728   2.079   0.599   9.338
 4398SOL     OW13729   2.079   0.301  10.302
 4398SOL    HW113730   2.116   0.257  10.378
 4398SOL    HW213731   1.994   0.259  10.289
 4399SOL     OW13732   1.871   0.398   9.942
 4399SOL    HW113733   1.784   0.413   9.981
 4399SOL    HW213734   1.857   0.329   9.877
 4400SOL     OW13735   2.431   1.293  10.489
 4400SOL    HW113736   2.344   1.298  10.447
 4400SOL    HW213737   2.447   1.381  10.520
 4401SOL     OW13738   3.427   1.513  10.018
 4401SOL    HW113739   3.385   1.491  10.101
 4401SOL    HW213740   3.356   1.518   9.955
 4402SOL     OW13741   2.995   0.698  10.006
 4402SOL    HW113742   3.042   0.780   9.994
 4402SOL    HW213743   2.947   0.710  10.088
 4403SOL     OW13744   3.625   0.624   9.536
 4403SOL    HW113745   3.606   0.612   9.442
 4403SOL    HW213746   3.605   0.539   9.575
 4404SOL     OW13747   2.613   1.139  10.355
 4404SOL    HW113748   2.545   1.176  10.412
 4404SOL    HW213749   2.651   1.216  10.311
 4405SOL     OW13750   2.734   0.768  11.134
 4405SOL    HW113751   2.719   0.838  11.197
 4405SOL    HW213752   2.756   0.813  11.052
 4406SOL     OW13753   2.548   0.999   9.955
 4406SOL    HW113754   2.613   0.990  10.024
 4406SOL    HW213755   2.479   1.053   9.993
 4407SOL     OW13756   2.575   1.150  11.126
 4407SOL    HW113757   2.623   1.227  11.156
 4407SOL    HW213758   2.494   1.184  11.089
 4408SOL     OW13759   2.194   1.416  10.378
 4408SOL    HW113760   2.118   1.382  10.331
 4408SOL    HW213761   2.240   1.471  10.314
 4409SOL     OW13762   3.321   1.501  10.669
 4409SOL    HW113763   3.375   1.580  10.678
 4409SOL    HW213764   3.255   1.510  10.738
 4410SOL     OW13765   2.308   0.392  10.802
 4410SOL    HW113766   2.399   0.362  10.802
 4410SOL    HW213767   2.256   0.312  10.811
 4411SOL     OW13768   3.472   0.450  10.045
 4411SOL    HW113769   3.404   0.483   9.987
 4411SOL    HW213770   3.493   0.523  10.103
 4412SOL     OW13771   2.091   1.692   9.767
 4412SOL    HW113772   2.101   1.763   9.830
 4412SOL    HW213773   2.172   1.693   9.716
 4413SOL     OW13774   2.999   1.342  11.004
 4413SOL    HW113775   3.040   1.336  11.090
 4413SOL    HW213776   2.947   1.262  10.997
 4414SOL     OW13777   2.091   1.431   9.846
 4414SOL    HW113778   2.082   1.526   9.836
 4414SOL    HW213779   2.030   1.408   9.916
 4415SOL     OW13780   2.124   1.091  10.200
 4415SOL    HW113781   2.120   1.003  10.239
 4415SOL    HW213782   2.068   1.144  10.256
 4416SOL     OW13783   2.470   1.792  10.741
 4416SOL    HW113784   2.390   1.775  10.790
 4416SOL    HW213785   2.495   1.881  10.765
 4417SOL     OW13786   2.443   0.984   9.447
 4417SOL    HW113787   2.491   1.030   9.379
 4417SOL    HW213788   2.482   1.016   9.529
 4418SOL     OW13789   3.444   0.142  10.766
 4418SOL    HW113790   3.471   0.214  10.709
 4418SOL    HW213791   3.406   0.184  10.843
 4419SOL     OW13792   1.979   0.657   9.870
 4419SOL    HW113793   1.952   0.568   9.894
 4419SOL    HW213794   1.972   0.707   9.952
 4420SOL     OW13795   3.703   1.757   9.645
 4420SOL    HW113796   3.773   1.733   9.706
 4420SOL    HW213797   3.720   1.849   9.624
 4421SOL     OW13798   1.863   1.609   9.477
 4421SOL    HW113799   1.851   1.516   9.456
 4421SOL    HW213800   1.900   1.608   9.566
 4422SOL     OW13801   3.550   0.918   9.957
 4422SOL    HW113802   3.634   0.875   9.941
 4422SOL    HW213803   3.533   0.968   9.877
 4423SOL     OW13804   3.504   1.104   9.742
 4423SOL    HW113805   3.589   1.109   9.698
 4423SOL    HW213806   3.510   1.167   9.813
 4424SOL     OW13807   1.985   0.750  10.890
 4424SOL    HW113808   2.075   0.782  10.893
 4424SOL    HW213809   1.931   0.829  10.896
 4425SOL     OW13810   2.478   1.389  10.044
 4425SOL    HW113811   2.432   1.306  10.054
 4425SOL    HW213812   2.460   1.416   9.954
 4426SOL     OW13813   3.148   1.237  10.732
 4426SOL    HW113814   3.180   1.170  10.672
 4426SOL    HW213815   3.208   1.232  10.807
 4427SOL     OW13816   2.682   0.005   9.828
 4427SOL    HW113817   2.728   0.085   9.801
 4427SOL    HW213818   2.590   0.029   9.827
 4428SOL     OW13819   2.050   0.961  10.587
 4428SOL    HW113820   2.136   0.922  10.571
 4428SOL    HW213821   1.991   0.913  10.530
 4429SOL     OW13822   3.390   0.997   9.511
 4429SOL    HW113823   3.321   0.940   9.545
 4429SOL    HW213824   3.432   1.032   9.589
 4430SOL     OW13825   3.046   1.810  10.934
 4430SOL    HW113826   3.054   1.870  10.859
 4430SOL    HW213827   3.064   1.723  10.898
 4431SOL     OW13828   2.220   0.252  11.154
 4431SOL    HW113829   2.265   0.336  11.154
 4431SOL    HW213830   2.127   0.274  11.156
 4432SOL     OW13831   3.329   1.420  10.259
 4432SOL    HW113832   3.262   1.435  10.325
 4432SOL    HW213833   3.317   1.328  10.233
 4433SOL     OW13834   3.514   1.748   9.889
 4433SOL    HW113835   3.499   1.715   9.800
 4433SOL    HW213836   3.495   1.673   9.946
 4434SOL     OW13837   2.457   0.719   9.579
 4434SOL    HW113838   2.461   0.803   9.532
 4434SOL    HW213839   2.392   0.734   9.648
 4435SOL     OW13840   3.136   0.370  10.251
 4435SOL    HW113841   3.049   0.331  10.259
 4435SOL    HW213842   3.194   0.308  10.296
 4436SOL     OW13843   3.439   1.672   9.620
 4436SOL    HW113844   3.530   1.700   9.613
 4436SOL    HW213845   3.412   1.656   9.530
 4437SOL     OW13846   2.658   0.616  10.761
 4437SOL    HW113847   2.629   0.590  10.849
 4437SOL    HW213848   2.620   0.549  10.703
 4438SOL     OW13849   3.254   0.476  10.987
 4438SOL    HW113850   3.260   0.521  11.071
 4438SOL    HW213851   3.311   0.399  10.997
 4439SOL     OW13852   2.813   0.887  10.895
 4439SOL    HW113853   2.868   0.819  10.858
 4439SOL    HW213854   2.765   0.923  10.820
 4440SOL     OW13855   2.855   0.402  10.547
 4440SOL    HW113856   2.770   0.422  10.586
 4440SOL    HW213857   2.835   0.375  10.458
 4441SOL     OW13858   2.914   0.700   9.735
 4441SOL    HW113859   2.932   0.693   9.829
 4441SOL    HW213860   2.831   0.654   9.722
 4442SOL     OW13861   1.949   0.823  10.087
 4442SOL    HW113862   2.029   0.815  10.138
 4442SOL    HW213863   1.905   0.900  10.123
 4443SOL     OW13864   2.757   0.353   9.510
 4443SOL    HW113865   2.799   0.412   9.447
 4443SOL    HW213866   2.749   0.270   9.462
 4444SOL     OW13867   3.568   0.573  11.140
 4444SOL    HW113868   3.532   0.647  11.092
 4444SOL    HW213869   3.594   0.511  11.071
 4445SOL     OW13870   3.239   1.141   9.850
 4445SOL    HW113871   3.319   1.130   9.798
 4445SOL    HW213872   3.187   1.204   9.800
 4446SOL     OW13873   2.420   0.199  10.190
 4446SOL    HW113874   2.423   0.218  10.284
 4446SOL    HW213875   2.416   0.285  10.148
 4447SOL     OW13876   2.864   1.444   9.779
 4447SOL    HW113877   2.830   1.518   9.730
 4447SOL    HW213878   2.842   1.464   9.871
 4448SOL     OW13879   2.228   1.801  10.139
 4448SOL    HW113880   2.259   1.714  10.164
 4448SOL    HW213881   2.293   1.861  10.175
 4449SOL     OW13882   3.668   1.062  10.178
 4449SOL    HW113883   3.614   1.036  10.103
 4449SOL    HW213884   3.606   1.065  10.251
 4450SOL     OW13885   3.089   1.539  10.824
 4450SOL    HW113886   3.077   1.467  10.885
 4450SOL    HW213887   3.023   1.524  10.755
 4451SOL     OW13888   2.179   0.961   9.563
 4451SOL    HW113889   2.262   0.980   9.518
 4451SOL    HW213890   2.150   0.877   9.525
 4452SOL     OW13891   3.343   0.748  10.038
 4452SOL    HW113892   3.337   0.707  10.124
 4452SOL    HW213893   3.420   0.804  10.042
 4453SOL     OW13894   2.332   1.264  11.049
 4453SOL    HW113895   2.305   1.268  10.957
 4453SOL    HW213896   2.249   1.261  11.097
 4454SOL     OW13897   2.985   1.778   9.540
 4454SOL    HW113898   2.910   1.738   9.584
 4454SOL    HW213899   3.009   1.715   9.472
 4455SOL     OW13900   2.030   0.274  10.810
 4455SOL    HW113901   1.977   0.353  10.797
 4455SOL    HW213902   2.036   0.263  10.905
 4456SOL     OW13903   3.487   1.384   9.397
 4456SOL    HW113904   3.443   1.468   9.383
 4456SOL    HW213905   3.419   1.319   9.377
 4457SOL     OW13906   2.340   1.711   9.655
 4457SOL    HW113907   2.374   1.788   9.701
 4457SOL    HW213908   2.395   1.704   9.577
 4458SOL     OW13909   3.298   0.172   9.712
 4458SOL    HW113910   3.251   0.097   9.675
 4458SOL    HW213911   3.372   0.133   9.757
 4459SOL     OW13912   2.160   1.766  10.531
 4459SOL    HW113913   2.199   1.683  10.561
 4459SOL    HW213914   2.117   1.744  10.448
 4460SOL     OW13915   2.799   1.699  10.207
 4460SOL    HW113916   2.878   1.650  10.229
 4460SOL    HW213917   2.758   1.649  10.136
 4461SOL     OW13918   2.257   0.695   9.783
 4461SOL    HW113919   2.275   0.602   9.796
 4461SOL    HW213920   2.164   0.705   9.802
 4462SOL     OW13921   3.392   0.229  11.037
 4462SOL    HW113922   3.383   0.254  11.129
 4462SOL    HW213923   3.376   0.134  11.036
 4463SOL     OW13924   2.506   0.129   9.419
 4463SOL    HW113925   2.527   0.044   9.458
 4463SOL    HW213926   2.444   0.108   9.349
 4464SOL     OW13927   2.636   0.282  11.080
 4464SOL    HW113928   2.711   0.222  11.083
 4464SOL    HW213929   2.580   0.254  11.152
 4465SOL     OW13930   2.738   1.523  10.504
 4465SOL    HW113931   2.721   1.486  10.417
 4465SOL    HW213932   2.808   1.468  10.540
 4466SOL     OW13933   3.202   0.587  10.740
 4466SOL    HW113934   3.232   0.559  10.827
 4466SOL    HW213935   3.236   0.676  10.731
 4467SOL     OW13936   2.679   1.392  10.254
 4467SOL    HW113937   2.764   1.380  10.210
 4467SOL    HW213938   2.616   1.396  10.182
 4468SOL     OW13939   2.792   0.511  10.210
 4468SOL    HW113940   2.767   0.503  10.117
 4468SOL    HW213941   2.818   0.423  10.235
 4469SOL     OW13942   2.407   0.056   9.800
 4469SOL    HW113943   2.332   0.062   9.861
 4469SOL    HW213944   2.402   0.137   9.750
 4470SOL     OW13945   3.289   1.200   9.350
 4470SOL    HW113946   3.319   1.125   9.401
 4470SOL    HW213947   3.204   1.222   9.388
 4471SOL     OW13948   2.192   0.045   9.522
 4471SOL    HW113949   2.199   0.110   9.453
 4471SOL    HW213950   2.274   0.053   9.571
 4472SOL     OW13951   2.805   0.250   9.769
 4472SOL    HW113952   2.780   0.290   9.685
 4472SOL    HW213953   2.901   0.256   9.770
 4473SOL     OW13954   2.942   0.685  10.768
 4473SOL    HW113955   2.872   0.619  10.774
 4473SOL    HW213956   3.022   0.633  10.763
 4474SOL     OW13957   3.082   1.572  10.105
 4474SOL    HW113958   3.098   1.637  10.036
 4474SOL    HW213959   3.152   1.587  10.168
 4475SOL     OW13960   2.334   1.152  10.040
 4475SOL    HW113961   2.266   1.132  10.104
 4475SOL    HW213962   2.291   1.137   9.955
 4476SOL     OW13963   3.128   1.793   9.921
 4476SOL    HW113964   3.177   1.854   9.865
 4476SOL    HW213965   3.061   1.847   9.963
 4477SOL     OW13966   2.883   0.541   9.339
 4477SOL    HW113967   2.839   0.624   9.320
 4477SOL    HW213968   2.947   0.563   9.407
 4478SOL     OW13969   1.945   0.549  10.707
 4478SOL    HW113970   2.036   0.552  10.677
 4478SOL    HW213971   1.937   0.622  10.768
 4479SOL     OW13972   2.425   0.231  10.470
 4479SOL    HW113973   2.448   0.139  10.480
 4479SOL    HW213974   2.335   0.236  10.504
 4480SOL     OW13975   2.732   0.460   9.948
 4480SOL    HW113976   2.685   0.515   9.885
 4480SOL    HW213977   2.753   0.381   9.899
 4481SOL     OW13978   2.859   0.039  10.091
 4481SOL    HW113979   2.821   0.069  10.008
 4481SOL    HW213980   2.870   3.944  10.079
 4482SOL     OW13981   3.302   1.161  10.168
 4482SOL    HW113982   3.230   1.098  10.166
 4482SOL    HW213983   3.328   1.171  10.076
 4483SOL     OW13984   3.326   0.609  10.283
 4483SOL    HW113985   3.271   0.530  10.288
 4483SOL    HW213986   3.385   0.601  10.357
 4484SOL     OW13987   3.722   0.824   9.685
 4484SOL    HW113988   3.763   0.767   9.749
 4484SOL    HW213989   3.684   0.765   9.620
 4485SOL     OW13990   2.354   1.421   9.462
 4485SOL    HW113991   2.279   1.395   9.516
 4485SOL    HW213992   2.342   1.374   9.380
 4486SOL     OW13993   3.530   1.265   9.953
 4486SOL    HW113994   3.625   1.268   9.963
 4486SOL    HW213995   3.501   1.354   9.974
 4487SOL     OW13996   3.257   0.576   9.379
 4487SOL    HW113997   3.193   0.557   9.447
 4487SOL    HW213998   3.342   0.561   9.420
 4488SOL     OW13999   2.388   0.266   9.626
 4488SOL    HW114000   2.444   0.228   9.558
 4488SOL    HW214001   2.359   0.350   9.588
 4489SOL     OW14002   3.613   1.233  10.874
 4489SOL    HW114003   3.700   1.199  10.857
 4489SOL    HW214004   3.628   1.323  10.904
 4490SOL     OW14005   2.918   1.354  10.643
 4490SOL    HW114006   2.843   1.322  10.693
 4490SOL    HW214007   2.993   1.312  10.684
 4491SOL     OW14008   3.468   1.629  10.967
 4491SOL    HW114009   3.460   1.663  10.878
 4491SOL    HW214010   3.548   1.576  10.965
 4492SOL     OW14011   2.995   1.208  10.413
 4492SOL    HW114012   2.934   1.245  10.478
 4492SOL    HW214013   2.964   1.241  10.329
 4493SOL     OW14014   3.489   1.095  10.385
 4493SOL    HW114015   3.480   1.157  10.457
 4493SOL    HW214016   3.413   1.112  10.329
 4494SOL     OW14017   2.774   0.117  10.711
 4494SOL    HW114018   2.794   0.089  10.622
 4494SOL    HW214019   2.855   0.159  10.742
 4495SOL     OW14020   2.846   1.115  11.034
 4495SOL    HW114021   2.755   1.132  11.057
 4495SOL    HW214022   2.843   1.037  10.979
 4496SOL     OW14023   2.571   1.063   9.681
 4496SOL    HW114024   2.557   1.044   9.773
 4496SOL    HW214025   2.647   1.009   9.657
 4497SOL     OW14026   2.283   0.817  10.562
 4497SOL    HW114027   2.351   0.825  10.628
 4497SOL    HW214028   2.248   0.728  10.574
 4498SOL     OW14029   3.128   0.375  10.586
 4498SOL    HW114030   3.162   0.453  10.631
 4498SOL    HW214031   3.041   0.400  10.557
 4499SOL     OW14032   1.937   1.577  10.664
 4499SOL    HW114033   1.905   1.641  10.601
 4499SOL    HW214034   2.032   1.576  10.651
 4500SOL     OW14035   2.206   1.113   9.800
 4500SOL    HW114036   2.211   1.189   9.742
 4500SOL    HW214037   2.203   1.037   9.742
 4501SOL     OW14038   2.416   0.531  10.166
 4501SOL    HW114039   2.429   0.591  10.093
 4501SOL    HW214040   2.480   0.558  10.231
 4502SOL     OW14041   3.109   1.349   9.700
 4502SOL    HW114042   3.165   1.420   9.731
 4502SOL    HW214043   3.022   1.371   9.733
 4503SOL     OW14044   3.148   1.460  10.458
 4503SOL    HW114045   3.204   1.464  10.536
 4503SOL    HW214046   3.093   1.383  10.472
 4504SOL     OW14047   3.433   0.633   9.796
 4504SOL    HW114048   3.391   0.687   9.863
 4504SOL    HW214049   3.480   0.695   9.741
 4505SOL     OW14050   2.215   1.514  10.626
 4505SOL    HW114051   2.201   1.471  10.541
 4505SOL    HW214052   2.309   1.525  10.632
 4506SOL     OW14053   2.280   0.745  10.912
 4506SOL    HW114054   2.341   0.789  10.854
 4506SOL    HW214055   2.322   0.660  10.930
 4507SOL     OW14056   3.467   0.779  10.994
 4507SOL    HW114057   3.382   0.822  10.988
 4507SOL    HW214058   3.520   0.821  10.927
 4508SOL     OW14059   2.873   0.135  11.091
 4508SOL    HW114060   2.926   0.206  11.054
 4508SOL    HW214061   2.858   0.076  11.017
 4509SOL     OW14062   2.351   0.034  11.071
 4509SOL    HW114063   2.352   0.048  10.976
 4509SOL    HW214064   2.291   0.101  11.105
 4510SOL     OW14065   2.446   0.874  10.342
 4510SOL    HW114066   2.476   0.965  10.343
 4510SOL    HW214067   2.389   0.866  10.418
 4511SOL     OW14068   3.213   0.859  10.334
 4511SOL    HW114069   3.128   0.846  10.293
 4511SOL    HW214070   3.257   0.774  10.327
 4512SOL     OW14071   3.061   0.538   9.567
 4512SOL    HW114072   3.069   0.458   9.620
 4512SOL    HW214073   3.019   0.601   9.624
 4513SOL     OW14074   2.161   0.209  10.553
 4513SOL    HW114075   2.118   0.237  10.634
 4513SOL    HW214076   2.150   0.114  10.553
 4514SOL     OW14077   1.906   1.313  10.588
 4514SOL    HW114078   1.940   1.257  10.657
 4514SOL    HW214079   1.914   1.402  10.622
 4515SOL     OW14080   2.583   0.631  10.361
 4515SOL    HW114081   2.660   0.620  10.305
 4515SOL    HW214082   2.554   0.721  10.343
 4516SOL     OW14083   3.594   0.957  11.174
 4516SOL    HW114084   3.552   0.894  11.115
 4516SOL    HW214085   3.529   0.972  11.243
 4517SOL     OW14086   2.185   0.055   9.963
 4517SOL    HW114087   2.165   0.148   9.974
 4517SOL    HW214088   2.152   0.014  10.043
 4518SOL     OW14089   3.475   0.394   9.689
 4518SOL    HW114090   3.435   0.325   9.742
 4518SOL    HW214091   3.453   0.475   9.734
 4519SOL     OW14092   2.892   0.759  10.268
 4519SOL    HW114093   2.884   0.776  10.362
 4519SOL    HW214094   2.864   0.668  10.258
 4520SOL     OW14095   2.844   1.567  11.030
 4520SOL    HW114096   2.828   1.610  10.946
 4520SOL    HW214097   2.887   1.485  11.007
 4521SOL     OW14098   3.704   1.497  10.908
 4521SOL    HW114099   3.728   1.527  10.820
 4521SOL    HW214100   3.785   1.507  10.959
 4522SOL     OW14101   2.214   0.915  11.120
 4522SOL    HW114102   2.295   0.936  11.166
 4522SOL    HW214103   2.240   0.853  11.052
 4523SOL     OW14104   3.362   0.273   9.443
 4523SOL    HW114105   3.289   0.212   9.454
 4523SOL    HW214106   3.374   0.311   9.530
 4524SOL     OW14107   3.149   0.826   9.338
 4524SOL    HW114108   3.192   0.741   9.342
 4524SOL    HW214109   3.182   0.866   9.257
 4525SOL     OW14110   2.930   1.338  10.166
 4525SOL    HW114111   2.934   1.266  10.103
 4525SOL    HW214112   2.989   1.404  10.130
 4526SOL     OW14113   2.169   0.810  10.256
 4526SOL    HW114114   2.263   0.831  10.249
 4526SOL    HW214115   2.167   0.720  10.288
 4527SOL     OW14116   2.198   0.537  10.324
 4527SOL    HW114117   2.157   0.452  10.309
 4527SOL    HW214118   2.274   0.537  10.266
 4528SOL     OW14119   2.995   0.380  11.008
 4528SOL    HW114120   2.946   0.434  11.069
 4528SOL    HW214121   3.081   0.421  11.003
 4529SOL     OW14122   3.014   0.226  10.791
 4529SOL    HW114123   3.004   0.280  10.870
 4529SOL    HW214124   3.039   0.288  10.723
 4530SOL     OW14125   1.867   1.318   9.503
 4530SOL    HW114126   1.780   1.332   9.466
 4530SOL    HW214127   1.865   1.229   9.538
 4531SOL     OW14128   1.982   1.726  10.301
 4531SOL    HW114129   1.945   1.662  10.240
 4531SOL    HW214130   2.016   1.796  10.246
 4532SOL     OW14131   2.359   1.570  10.221
 4532SOL    HW114132   2.426   1.635  10.243
 4532SOL    HW214133   2.403   1.510  10.160
 4533SOL     OW14134   2.839   0.787  10.533
 4533SOL    HW114135   2.896   0.769  10.608
 4533SOL    HW214136   2.754   0.752  10.559
 4534SOL     OW14137   1.895   0.548  10.427
 4534SOL    HW114138   1.970   0.523  10.372
 4534SOL    HW214139   1.929   0.547  10.516
 4535SOL     OW14140   2.066   0.527  11.022
 4535SOL    HW114141   2.137   0.507  10.961
 4535SOL    HW214142   2.022   0.603  10.983
 4536SOL     OW14143   3.242   0.935  10.967
 4536SOL    HW114144   3.263   1.029  10.964
 4536SOL    HW214145   3.237   0.909  10.875
 4537SOL     OW14146   2.679   0.572   9.675
 4537SOL    HW114147   2.685   0.497   9.616
 4537SOL    HW214148   2.604   0.622   9.642
 4538SOL     OW14149   3.501   0.602  10.492
 4538SOL    HW114150   3.490   0.542  10.565
 4538SOL    HW214151   3.587   0.581  10.456
 4539SOL     OW14152   2.114   1.536  11.015
 4539SOL    HW114153   2.096   1.605  11.079
 4539SOL    HW214154   2.118   1.455  11.067
 4540SOL     OW14155   2.572   0.452  10.565
 4540SOL    HW114156   2.520   0.375  10.540
 4540SOL    HW214157   2.562   0.512  10.491
 4541SOL     OW14158   2.786   1.679  10.780
 4541SOL    HW114159   2.762   1.641  10.695
 4541SOL    HW214160   2.780   1.774  10.766
 4542SOL     OW14161   2.324   0.494   9.492
 4542SOL    HW114162   2.382   0.566   9.517
 4542SOL    HW214163   2.238   0.535   9.480
 4543SOL     OW14164   2.003   1.141  10.783
 4543SOL    HW114165   2.006   1.093  10.866
 4543SOL    HW214166   2.021   1.075  10.716
 4544SOL     OW14167   3.183   1.044  10.531
 4544SOL    HW114168   3.206   0.981  10.463
 4544SOL    HW214169   3.116   1.100  10.492
 4545SOL     OW14170   3.176   0.854   9.614
 4545SOL    HW114171   3.101   0.827   9.666
 4545SOL    HW214172   3.148   0.843   9.524
 4546SOL     OW14173   3.644   1.740  10.468
 4546SOL    HW114174   3.698   1.768  10.395
 4546SOL    HW214175   3.613   1.653  10.444
 4547SOL     OW14176   3.102   1.734  10.419
 4547SOL    HW114177   3.185   1.757  10.376
 4547SOL    HW214178   3.111   1.640  10.438
 4548SOL     OW14179   1.950   1.262  10.324
 4548SOL    HW114180   1.931   1.280  10.416
 4548SOL    HW214181   1.875   1.211  10.294
 4549SOL     OW14182   2.539   1.669  11.043
 4549SOL    HW114183   2.485   1.747  11.040
 4549SOL    HW214184   2.607   1.684  10.976
 4550SOL     OW14185   3.550   0.119   9.798
 4550SOL    HW114186   3.631   0.135   9.750
 4550SOL    HW214187   3.553   0.026   9.820
 4551SOL     OW14188   3.253   1.567   9.798
 4551SOL    HW114189   3.312   1.601   9.731
 4551SOL    HW214190   3.203   1.644   9.827
 4552SOL     OW14191   2.035   1.736  11.171
 4552SOL    HW114192   1.969   1.698  11.229
 4552SOL    HW214193   2.006   1.826  11.157
 4553SOL     OW14194   3.139   0.927   9.981
 4553SOL    HW114195   3.214   0.868   9.992
 4553SOL    HW214196   3.173   0.999   9.928
 4554SOL     OW14197   2.670   1.275  10.737
 4554SOL    HW114198   2.642   1.315  10.819
 4554SOL    HW214199   2.600   1.295  10.675
 4555SOL     OW14200   2.536   1.623   9.461
 4555SOL    HW114201   2.545   1.635   9.366
 4555SOL    HW214202   2.479   1.547   9.470
 4556SOL     OW14203   3.481   1.727  10.701
 4556SOL    HW114204   3.537   1.732  10.624
 4556SOL    HW214205   3.468   1.819  10.726
 4557SOL     OW14206   3.704   0.182  10.281
 4557SOL    HW114207   3.728   0.097  10.243
 4557SOL    HW214208   3.618   0.201  10.244
 4558SOL     OW14209   2.125   0.315  10.025
 4558SOL    HW114210   2.039   0.350  10.002
 4558SOL    HW214211   2.124   0.308  10.120
 4559SOL     OW14212   3.070   1.603   9.342
 4559SOL    HW114213   3.059   1.512   9.369
 4559SOL    HW214214   3.004   1.616   9.274
 4560SOL     OW14215   2.686   1.006  10.683
 4560SOL    HW114216   2.727   1.002  10.597
 4560SOL    HW214217   2.683   1.099  10.704
 4561SOL     OW14218   2.778   0.911   9.600
 4561SOL    HW114219   2.839   0.943   9.534
 4561SOL    HW214220   2.827   0.842   9.646
 4562SOL     OW14221   3.350   1.629   9.354
 4562SOL    HW114222   3.256   1.620   9.339
 4562SOL    HW214223   3.388   1.635   9.266
 4563SOL     OW14224   2.232   1.296  10.803
 4563SOL    HW114225   2.220   1.374  10.749
 4563SOL    HW214226   2.153   1.244  10.788
 4564SOL     OW14227   3.462   1.280  10.587
 4564SOL    HW114228   3.530   1.271  10.653
 4564SOL    HW214229   3.405   1.349  10.620
 4565SOL     OW14230   2.920   1.109  10.019
 4565SOL    HW114231   2.847   1.059  10.057
 4565SOL    HW214232   2.983   1.043   9.990
 4566SOL     OW14233   2.877   0.249  10.280
 4566SOL    HW114234   2.867   0.198  10.199
 4566SOL    HW214235   2.873   0.184  10.350
 4567SOL     OW14236   2.466   1.489   9.791
 4567SOL    HW114237   2.509   1.439   9.721
 4567SOL    HW214238   2.405   1.547   9.745
 4568SOL     OW14239   3.582   0.394  10.681
 4568SOL    HW114240   3.655   0.457  10.682
 4568SOL    HW214241   3.614   0.322  10.627
 4569SOL     OW14242   2.122   1.344   9.596
 4569SOL    HW114243   2.029   1.340   9.575
 4569SOL    HW214244   2.125   1.378   9.685
 4570SOL     OW14245   1.976   1.028  11.032
 4570SOL    HW114246   1.899   1.002  11.084
 4570SOL    HW214247   2.050   0.987  11.077
 4571SOL     OW14248   2.556   0.258  10.812
 4571SOL    HW114249   2.622   0.202  10.771
 4571SOL    HW214250   2.583   0.263  10.904
 4572SOL     OW14251   1.963   0.317   9.302
 4572SOL    HW114252   1.896   0.337   9.367
 4572SOL    HW214253   1.970   0.397   9.250
 4573SOL     OW14254   3.286   0.856  10.707
 4573SOL    HW114255   3.237   0.918  10.654
 4573SOL    HW214256   3.375   0.859  10.671
 4574SOL     OW14257   1.943   0.152   9.650
 4574SOL    HW114258   1.912   0.210   9.581
 4574SOL    HW214259   2.029   0.124   9.620
 4575SOL     OW14260   3.040   1.337   9.428
 4575SOL    HW114261   2.949   1.307   9.430
 4575SOL    HW214262   3.067   1.338   9.519
 4576SOL     OW14263   2.484   0.829  10.744
 4576SOL    HW114264   2.540   0.905  10.729
 4576SOL    HW214265   2.544   0.755  10.753
 4577SOL     OW14266   3.344   1.783  10.291
 4577SOL    HW114267   3.367   1.846  10.223
 4577SOL    HW214268   3.428   1.753  10.325
 4578SOL     OW14269   2.580   0.560  11.014
 4578SOL    HW114270   2.623   0.622  11.073
 4578SOL    HW214271   2.604   0.474  11.048
 4579SOL     OW14272   3.335   1.196  10.940
 4579SOL    HW114273   3.324   1.211  11.034
 4579SOL    HW214274   3.428   1.213  10.924
 4580SOL     OW14275   2.236   1.748  10.880
 4580SOL    HW114276   2.169   1.758  10.813
 4580SOL    HW214277   2.214   1.665  10.924
 4581SOL     OW14278   3.526   0.880  10.569
 4581SOL    HW114279   3.525   0.795  10.525
 4581SOL    HW214280   3.519   0.944  10.498
 4582SOL     OW14281   3.082   0.338   9.752
 4582SOL    HW114282   3.151   0.272   9.743
 4582SOL    HW214283   3.102   0.382   9.835
 4583SOL     OW14284   2.451   0.735   9.981
 4583SOL    HW114285   2.490   0.822   9.967
 4583SOL    HW214286   2.385   0.727   9.913
 4584SOL     OW14287   3.616   0.381  10.952
 4584SOL    HW114288   3.595   0.390  10.859
 4584SOL    HW214289   3.555   0.314  10.983
 4585SOL     OW14290   3.617   0.930  10.823
 4585SOL    HW114291   3.607   1.023  10.841
 4585SOL    HW214292   3.592   0.920  10.731
 4586SOL     OW14293   2.724   1.366   9.349
 4586SOL    HW114294   2.687   1.392   9.433
 4586SOL    HW214295   2.741   1.448   9.303
 4587SOL     OW14296   2.524   1.792  10.251
 4587SOL    HW114297   2.509   1.883  10.226
 4587SOL    HW214298   2.619   1.780  10.243
 4588SOL     OW14299   2.731   0.970  10.164
 4588SOL    HW114300   2.781   0.898  10.203
 4588SOL    HW214301   2.693   1.015  10.239
 4589SOL     OW14302   2.940   0.989   9.399
 4589SOL    HW114303   2.918   1.041   9.322
 4589SOL    HW214304   3.014   0.935   9.372
 4590SOL     OW14305   3.713   1.556  10.151
 4590SOL    HW114306   3.633   1.540  10.100
 4590SOL    HW214307   3.713   1.489  10.219
 4591SOL     OW14308   2.090   1.299  11.165
 4591SOL    HW114309   2.023   1.237  11.138
 4591SOL    HW214310   2.075   1.312  11.259
 4592SOL     OW14311   1.943   1.223   9.976
 4592SOL    HW114312   1.959   1.179  10.060
 4592SOL    HW214313   2.016   1.195   9.920
 4593SOL     OW14314   2.544   1.406  10.939
 4593SOL    HW114315   2.466   1.362  10.972
 4593SOL    HW214316   2.541   1.494  10.977
 4594SOL     OW14317   3.676   0.181  10.554
 4594SOL    HW114318   3.677   0.086  10.563
 4594SOL    HW214319   3.694   0.197  10.462
 4595SOL     OW14320   2.290   0.435   9.835
 4595SOL    HW114321   2.325   0.363   9.782
 4595SOL    HW214322   2.242   0.391   9.906
 4596SOL     OW14323   3.558   1.491  10.406
 4596SOL    HW114324   3.480   1.468  10.355
 4596SOL    HW214325   3.567   1.419  10.469
 4597SOL     OW14326   2.194   0.557  10.605
 4597SOL    HW114327   2.247   0.497  10.659
 4597SOL    HW214328   2.213   0.530  10.515
 4598SOL     OW14329   2.691   1.578   9.986
 4598SOL    HW114330   2.671   1.637   9.912
 4598SOL    HW214331   2.617   1.518   9.988
 4599SOL     OW14332   3.323   0.253  10.420
 4599SOL    HW114333   3.337   0.165  10.455
 4599SOL    HW214334   3.267   0.297  10.485
 4600SOL     OW14335   2.865   0.027  10.456
 4600SOL    HW114336   2.783   3.994  10.419
 4600SOL    HW214337   2.920   3.949  10.465
 4601SOL     OW14338   2.637   1.333   9.627
 4601SOL    HW114339   2.607   1.243   9.635
 4601SOL    HW214340   2.717   1.337   9.679
 4602SOL     OW14341   2.483   1.555  10.597
 4602SOL    HW114342   2.484   1.637  10.646
 4602SOL    HW214343   2.571   1.548  10.560
 4603SOL     OW14344   3.171   0.070   9.469
 4603SOL    HW114345   3.176   3.986   9.424
 4603SOL    HW214346   3.087   0.068   9.515
 4604SOL     OW14347   3.142   0.456   9.995
 4604SOL    HW114348   3.096   0.540   9.989
 4604SOL    HW214349   3.145   0.437  10.088
 4605SOL     OW14350   3.453   0.210  10.177
 4605SOL    HW114351   3.404   0.234  10.256
 4605SOL    HW214352   3.451   0.289  10.123
 4606SOL     OW14353   1.906   1.069   9.616
 4606SOL    HW114354   2.000   1.061   9.599
 4606SOL    HW214355   1.878   0.981   9.641
 4607SOL     OW14356   2.749   1.658   9.650
 4607SOL    HW114357   2.676   1.640   9.590
 4607SOL    HW214358   2.719   1.731   9.704
 4608SOL     OW14359   2.088   0.619  11.293
 4608SOL    HW114360   1.998   0.628  11.324
 4608SOL    HW214361   2.079   0.599  11.200
 4609SOL     OW14362   2.078   0.301  12.164
 4609SOL    HW114363   2.116   0.257  12.240
 4609SOL    HW214364   1.994   0.259  12.151
 4610SOL     OW14365   1.871   0.398  11.804
 4610SOL    HW114366   1.784   0.413  11.843
 4610SOL    HW214367   1.857   0.329  11.739
 4611SOL     OW14368   2.431   1.292  12.351
 4611SOL    HW114369   2.344   1.297  12.309
 4611SOL    HW214370   2.448   1.381  12.381
 4612SOL     OW14371   3.427   1.513  11.880
 4612SOL    HW114372   3.385   1.491  11.963
 4612SOL    HW214373   3.356   1.518  11.817
 4613SOL     OW14374   2.995   0.698  11.868
 4613SOL    HW114375   3.042   0.780  11.856
 4613SOL    HW214376   2.947   0.710  11.950
 4614SOL     OW14377   3.625   0.624  11.398
 4614SOL    HW114378   3.606   0.612  11.304
 4614SOL    HW214379   3.605   0.539  11.437
 4615SOL     OW14380   2.613   1.139  12.217
 4615SOL    HW114381   2.545   1.176  12.274
 4615SOL    HW214382   2.651   1.216  12.173
 4616SOL     OW14383   2.734   0.768  12.996
 4616SOL    HW114384   2.719   0.840  13.057
 4616SOL    HW214385   2.756   0.812  12.913
 4617SOL     OW14386   2.548   0.999  11.817
 4617SOL    HW114387   2.613   0.990  11.886
 4617SOL    HW214388   2.479   1.053  11.855
 4618SOL     OW14389   2.575   1.150  12.988
 4618SOL    HW114390   2.623   1.228  13.018
 4618SOL    HW214391   2.494   1.184  12.951
 4619SOL     OW14392   2.194   1.416  12.240
 4619SOL    HW114393   2.118   1.382  12.193
 4619SOL    HW214394   2.240   1.471  12.176
 4620SOL     OW14395   3.321   1.501  12.531
 4620SOL    HW114396   3.375   1.580  12.540
 4620SOL    HW214397   3.255   1.510  12.599
 4621SOL     OW14398   2.308   0.392  12.664
 4621SOL    HW114399   2.399   0.362  12.664
 4621SOL    HW214400   2.256   0.312  12.672
 4622SOL     OW14401   3.472   0.450  11.907
 4622SOL    HW114402   3.404   0.483  11.849
 4622SOL    HW214403   3.493   0.524  11.965
 4623SOL     OW14404   2.093   1.689  11.628
 4623SOL    HW114405   2.104   1.758  11.694
 4623SOL    HW214406   2.173   1.692  11.576
 4624SOL     OW14407   2.999   1.342  12.866
 4624SOL    HW114408   3.040   1.336  12.952
 4624SOL    HW214409   2.947   1.262  12.858
 4625SOL     OW14410   2.092   1.430  11.708
 4625SOL    HW114411   2.083   1.524  11.697
 4625SOL    HW214412   2.030   1.407  11.778
 4626SOL     OW14413   2.124   1.091  12.062
 4626SOL    HW114414   2.120   1.003  12.101
 4626SOL    HW214415   2.068   1.144  12.118
 4627SOL     OW14416   2.471   1.792  12.602
 4627SOL    HW114417   2.390   1.775  12.652
 4627SOL    HW214418   2.495   1.881  12.627
 4628SOL     OW14419   2.443   0.984  11.309
 4628SOL    HW114420   2.491   1.030  11.241
 4628SOL    HW214421   2.482   1.016  11.391
 4629SOL     OW14422   3.444   0.142  12.628
 4629SOL    HW114423   3.471   0.214  12.571
 4629SOL    HW214424   3.406   0.184  12.705
 4630SOL     OW14425   1.979   0.657  11.732
 4630SOL    HW114426   1.952   0.568  11.756
 4630SOL    HW214427   1.972   0.707  11.814
 4631SOL     OW14428   3.703   1.757  11.507
 4631SOL    HW114429   3.773   1.733  11.568
 4631SOL    HW214430   3.720   1.849  11.486
 4632SOL     OW14431   1.860   1.610  11.341
 4632SOL    HW114432   1.849   1.518  11.318
 4632SOL    HW214433   1.900   1.609  11.428
 4633SOL     OW14434   3.550   0.918  11.819
 4633SOL    HW114435   3.634   0.875  11.802
 4633SOL    HW214436   3.532   0.968  11.739
 4634SOL     OW14437   3.504   1.103  11.604
 4634SOL    HW114438   3.589   1.109  11.560
 4634SOL    HW214439   3.510   1.167  11.675
 4635SOL     OW14440   1.985   0.750  12.752
 4635SOL    HW114441   2.075   0.782  12.755
 4635SOL    HW214442   1.931   0.829  12.758
 4636SOL     OW14443   2.478   1.389  11.906
 4636SOL    HW114444   2.432   1.306  11.915
 4636SOL    HW214445   2.460   1.417  11.816
 4637SOL     OW14446   3.148   1.237  12.594
 4637SOL    HW114447   3.180   1.170  12.534
 4637SOL    HW214448   3.208   1.232  12.669
 4638SOL     OW14449   2.682   0.005  11.690
 4638SOL    HW114450   2.728   0.085  11.663
 4638SOL    HW214451   2.590   0.029  11.689
 4639SOL     OW14452   2.050   0.961  12.449
 4639SOL    HW114453   2.136   0.922  12.434
 4639SOL    HW214454   1.991   0.913  12.391
 4640SOL     OW14455   3.390   0.997  11.373
 4640SOL    HW114456   3.321   0.940  11.407
 4640SOL    HW214457   3.432   1.032  11.451
 4641SOL     OW14458   3.046   1.810  12.796
 4641SOL    HW114459   3.054   1.870  12.722
 4641SOL    HW214460   3.064   1.723  12.759
 4642SOL     OW14461   2.220   0.252  13.017
 4642SOL    HW114462   2.265   0.336  13.016
 4642SOL    HW214463   2.127   0.273  13.019
 4643SOL     OW14464   3.329   1.420  12.121
 4643SOL    HW114465   3.262   1.435  12.187
 4643SOL    HW214466   3.317   1.328  12.095
 4644SOL     OW14467   3.514   1.748  11.751
 4644SOL    HW114468   3.499   1.715  11.662
 4644SOL    HW214469   3.495   1.673  11.808
 4645SOL     OW14470   2.457   0.719  11.441
 4645SOL    HW114471   2.461   0.803  11.394
 4645SOL    HW214472   2.392   0.734  11.510
 4646SOL     OW14473   3.136   0.370  12.113
 4646SOL    HW114474   3.049   0.331  12.121
 4646SOL    HW214475   3.194   0.308  12.158
 4647SOL     OW14476   3.439   1.672  11.482
 4647SOL    HW114477   3.530   1.700  11.475
 4647SOL    HW214478   3.412   1.656  11.392
 4648SOL     OW14479   2.658   0.616  12.623
 4648SOL    HW114480   2.629   0.590  12.711
 4648SOL    HW214481   2.620   0.549  12.565
 4649SOL     OW14482   3.254   0.476  12.849
 4649SOL    HW114483   3.260   0.521  12.933
 4649SOL    HW214484   3.310   0.399  12.860
 4650SOL     OW14485   2.813   0.887  12.757
 4650SOL    HW114486   2.868   0.818  12.719
 4650SOL    HW214487   2.765   0.923  12.682
 4651SOL     OW14488   2.855   0.402  12.409
 4651SOL    HW114489   2.770   0.422  12.448
 4651SOL    HW214490   2.836   0.375  12.320
 4652SOL     OW14491   2.914   0.700  11.597
 4652SOL    HW114492   2.931   0.693  11.691
 4652SOL    HW214493   2.831   0.654  11.584
 4653SOL     OW14494   1.949   0.823  11.949
 4653SOL    HW114495   2.029   0.815  12.000
 4653SOL    HW214496   1.905   0.900  11.985
 4654SOL     OW14497   2.757   0.353  11.372
 4654SOL    HW114498   2.799   0.412  11.309
 4654SOL    HW214499   2.749   0.270  11.324
 4655SOL     OW14500   3.568   0.574  13.002
 4655SOL    HW114501   3.532   0.648  12.954
 4655SOL    HW214502   3.594   0.512  12.934
 4656SOL     OW14503   3.239   1.141  11.712
 4656SOL    HW114504   3.319   1.130  11.660
 4656SOL    HW214505   3.187   1.204  11.662
 4657SOL     OW14506   2.420   0.199  12.052
 4657SOL    HW114507   2.423   0.218  12.146
 4657SOL    HW214508   2.416   0.285  12.010
 4658SOL     OW14509   2.864   1.444  11.642
 4658SOL    HW114510   2.830   1.518  11.592
 4658SOL    HW214511   2.842   1.464  11.733
 4659SOL     OW14512   2.229   1.801  12.001
 4659SOL    HW114513   2.260   1.714  12.027
 4659SOL    HW214514   2.294   1.861  12.037
 4660SOL     OW14515   3.668   1.062  12.040
 4660SOL    HW114516   3.615   1.036  11.965
 4660SOL    HW214517   3.606   1.065  12.113
 4661SOL     OW14518   3.089   1.540  12.685
 4661SOL    HW114519   3.077   1.467  12.747
 4661SOL    HW214520   3.023   1.525  12.617
 4662SOL     OW14521   2.179   0.961  11.425
 4662SOL    HW114522   2.262   0.980  11.380
 4662SOL    HW214523   2.150   0.878  11.387
 4663SOL     OW14524   3.343   0.748  11.900
 4663SOL    HW114525   3.337   0.707  11.986
 4663SOL    HW214526   3.420   0.804  11.904
 4664SOL     OW14527   2.332   1.264  12.911
 4664SOL    HW114528   2.305   1.268  12.819
 4664SOL    HW214529   2.249   1.261  12.960
 4665SOL     OW14530   2.985   1.778  11.402
 4665SOL    HW114531   2.910   1.738  11.446
 4665SOL    HW214532   3.009   1.715  11.334
 4666SOL     OW14533   2.031   0.275  12.672
 4666SOL    HW114534   1.977   0.353  12.660
 4666SOL    HW214535   2.035   0.263  12.766
 4667SOL     OW14536   3.487   1.384  11.259
 4667SOL    HW114537   3.443   1.468  11.245
 4667SOL    HW214538   3.420   1.319  11.239
 4668SOL     OW14539   2.341   1.711  11.516
 4668SOL    HW114540   2.375   1.788  11.562
 4668SOL    HW214541   2.396   1.703  11.438
 4669SOL     OW14542   3.298   0.172  11.574
 4669SOL    HW114543   3.251   0.097  11.537
 4669SOL    HW214544   3.373   0.133  11.619
 4670SOL     OW14545   2.158   1.763  12.398
 4670SOL    HW114546   2.199   1.681  12.426
 4670SOL    HW214547   2.118   1.743  12.314
 4671SOL     OW14548   2.799   1.699  12.069
 4671SOL    HW114549   2.878   1.650  12.091
 4671SOL    HW214550   2.757   1.649  11.998
 4672SOL     OW14551   2.257   0.695  11.645
 4672SOL    HW114552   2.275   0.602  11.658
 4672SOL    HW214553   2.164   0.705  11.664
 4673SOL     OW14554   3.392   0.229  12.898
 4673SOL    HW114555   3.383   0.254  12.990
 4673SOL    HW214556   3.376   0.134  12.898
 4674SOL     OW14557   2.506   0.129  11.281
 4674SOL    HW114558   2.527   0.044  11.320
 4674SOL    HW214559   2.444   0.108  11.211
 4675SOL     OW14560   2.636   0.283  12.942
 4675SOL    HW114561   2.710   0.222  12.944
 4675SOL    HW214562   2.580   0.254  13.014
 4676SOL     OW14563   2.738   1.523  12.366
 4676SOL    HW114564   2.722   1.486  12.279
 4676SOL    HW214565   2.808   1.468  12.402
 4677SOL     OW14566   3.202   0.587  12.602
 4677SOL    HW114567   3.232   0.559  12.689
 4677SOL    HW214568   3.236   0.676  12.593
 4678SOL     OW14569   2.679   1.392  12.116
 4678SOL    HW114570   2.764   1.380  12.072
 4678SOL    HW214571   2.616   1.396  12.044
 4679SOL     OW14572   2.792   0.511  12.072
 4679SOL    HW114573   2.767   0.503  11.979
 4679SOL    HW214574   2.818   0.423  12.097
 4680SOL     OW14575   2.406   0.056  11.662
 4680SOL    HW114576   2.332   0.062  11.723
 4680SOL    HW214577   2.402   0.137  11.612
 4681SOL     OW14578   3.289   1.200  11.212
 4681SOL    HW114579   3.319   1.125  11.263
 4681SOL    HW214580   3.204   1.222  11.249
 4682SOL     OW14581   2.192   0.045  11.384
 4682SOL    HW114582   2.199   0.110  11.315
 4682SOL    HW214583   2.274   0.053  11.433
 4683SOL     OW14584   2.805   0.251  11.631
 4683SOL    HW114585   2.780   0.290  11.547
 4683SOL    HW214586   2.901   0.256  11.632
 4684SOL     OW14587   2.942   0.684  12.630
 4684SOL    HW114588   2.872   0.619  12.636
 4684SOL    HW214589   3.022   0.633  12.625
 4685SOL     OW14590   3.082   1.572  11.967
 4685SOL    HW114591   3.098   1.637  11.898
 4685SOL    HW214592   3.152   1.587  12.030
 4686SOL     OW14593   2.334   1.152  11.902
 4686SOL    HW114594   2.266   1.132  11.966
 4686SOL    HW214595   2.292   1.137  11.817
 4687SOL     OW14596   3.128   1.793  11.783
 4687SOL    HW114597   3.177   1.853  11.727
 4687SOL    HW214598   3.061   1.847  11.825
 4688SOL     OW14599   2.883   0.541  11.201
 4688SOL    HW114600   2.839   0.624  11.182
 4688SOL    HW214601   2.947   0.564  11.269
 4689SOL     OW14602   1.945   0.549  12.569
 4689SOL    HW114603   2.036   0.552  12.539
 4689SOL    HW214604   1.937   0.622  12.630
 4690SOL     OW14605   2.425   0.231  12.333
 4690SOL    HW114606   2.448   0.139  12.342
 4690SOL    HW214607   2.335   0.236  12.366
 4691SOL     OW14608   2.732   0.460  11.810
 4691SOL    HW114609   2.685   0.515  11.747
 4691SOL    HW214610   2.753   0.381  11.761
 4692SOL     OW14611   2.859   0.039  11.953
 4692SOL    HW114612   2.821   0.069  11.870
 4692SOL    HW214613   2.870   3.944  11.941
 4693SOL     OW14614   3.302   1.161  12.030
 4693SOL    HW114615   3.230   1.098  12.028
 4693SOL    HW214616   3.328   1.171  11.938
 4694SOL     OW14617   3.326   0.609  12.145
 4694SOL    HW114618   3.271   0.530  12.150
 4694SOL    HW214619   3.385   0.601  12.219
 4695SOL     OW14620   3.722   0.824  11.547
 4695SOL    HW114621   3.763   0.767  11.612
 4695SOL    HW214622   3.684   0.765  11.482
 4696SOL     OW14623   2.355   1.421  11.324
 4696SOL    HW114624   2.279   1.395  11.377
 4696SOL    HW214625   2.343   1.374  11.241
 4697SOL     OW14626   3.530   1.265  11.815
 4697SOL    HW114627   3.625   1.268  11.825
 4697SOL    HW214628   3.501   1.354  11.836
 4698SOL     OW14629   3.257   0.576  11.241
 4698SOL    HW114630   3.193   0.557  11.309
 4698SOL    HW214631   3.342   0.561  11.282
 4699SOL     OW14632   2.388   0.266  11.488
 4699SOL    HW114633   2.444   0.228  11.420
 4699SOL    HW214634   2.359   0.350  11.450
 4700SOL     OW14635   3.613   1.233  12.737
 4700SOL    HW114636   3.701   1.198  12.719
 4700SOL    HW214637   3.628   1.323  12.766
 4701SOL     OW14638   2.918   1.354  12.505
 4701SOL    HW114639   2.843   1.322  12.555
 4701SOL    HW214640   2.993   1.312  12.546
 4702SOL     OW14641   3.468   1.628  12.829
 4702SOL    HW114642   3.460   1.663  12.740
 4702SOL    HW214643   3.548   1.576  12.827
 4703SOL     OW14644   2.995   1.208  12.275
 4703SOL    HW114645   2.934   1.245  12.339
 4703SOL    HW214646   2.964   1.241  12.191
 4704SOL     OW14647   3.489   1.095  12.247
 4704SOL    HW114648   3.480   1.157  12.319
 4704SOL    HW214649   3.413   1.112  12.191
 4705SOL     OW14650   2.774   0.118  12.573
 4705SOL    HW114651   2.794   0.089  12.484
 4705SOL    HW214652   2.855   0.159  12.604
 4706SOL     OW14653   2.846   1.115  12.896
 4706SOL    HW114654   2.755   1.132  12.919
 4706SOL    HW214655   2.843   1.037  12.841
 4707SOL     OW14656   2.571   1.063  11.543
 4707SOL    HW114657   2.557   1.044  11.635
 4707SOL    HW214658   2.647   1.009  11.519
 4708SOL     OW14659   2.283   0.817  12.424
 4708SOL    HW114660   2.352   0.825  12.490
 4708SOL    HW214661   2.248   0.728  12.436
 4709SOL     OW14662   3.128   0.375  12.448
 4709SOL    HW114663   3.162   0.453  12.493
 4709SOL    HW214664   3.041   0.400  12.419
 4710SOL     OW14665   1.936   1.577  12.526
 4710SOL    HW114666   1.903   1.642  12.464
 4710SOL    HW214667   2.031   1.578  12.513
 4711SOL     OW14668   2.206   1.113  11.662
 4711SOL    HW114669   2.211   1.188  11.604
 4711SOL    HW214670   2.203   1.037  11.603
 4712SOL     OW14671   2.416   0.531  12.028
 4712SOL    HW114672   2.429   0.591  11.955
 4712SOL    HW214673   2.480   0.558  12.093
 4713SOL     OW14674   3.109   1.349  11.562
 4713SOL    HW114675   3.165   1.420  11.593
 4713SOL    HW214676   3.022   1.371  11.595
 4714SOL     OW14677   3.148   1.460  12.320
 4714SOL    HW114678   3.204   1.464  12.398
 4714SOL    HW214679   3.093   1.383  12.334
 4715SOL     OW14680   3.433   0.633  11.658
 4715SOL    HW114681   3.391   0.687  11.725
 4715SOL    HW214682   3.480   0.695  11.603
 4716SOL     OW14683   2.216   1.511  12.488
 4716SOL    HW114684   2.201   1.469  12.404
 4716SOL    HW214685   2.311   1.523  12.494
 4717SOL     OW14686   2.280   0.745  12.775
 4717SOL    HW114687   2.341   0.790  12.716
 4717SOL    HW214688   2.321   0.660  12.792
 4718SOL     OW14689   3.467   0.779  12.856
 4718SOL    HW114690   3.381   0.822  12.850
 4718SOL    HW214691   3.520   0.822  12.789
 4719SOL     OW14692   2.874   0.135  12.953
 4719SOL    HW114693   2.926   0.206  12.916
 4719SOL    HW214694   2.858   0.076  12.880
 4720SOL     OW14695   2.351   0.034  12.933
 4720SOL    HW114696   2.352   0.049  12.838
 4720SOL    HW214697   2.291   0.101  12.966
 4721SOL     OW14698   2.446   0.874  12.204
 4721SOL    HW114699   2.476   0.965  12.205
 4721SOL    HW214700   2.389   0.866  12.280
 4722SOL     OW14701   3.213   0.859  12.197
 4722SOL    HW114702   3.128   0.846  12.155
 4722SOL    HW214703   3.257   0.774  12.189
 4723SOL     OW14704   3.062   0.538  11.429
 4723SOL    HW114705   3.069   0.458  11.482
 4723SOL    HW214706   3.019   0.601  11.486
 4724SOL     OW14707   2.161   0.209  12.415
 4724SOL    HW114708   2.118   0.237  12.496
 4724SOL    HW214709   2.150   0.114  12.415
 4725SOL     OW14710   1.905   1.313  12.450
 4725SOL    HW114711   1.940   1.257  12.519
 4725SOL    HW214712   1.914   1.402  12.483
 4726SOL     OW14713   2.583   0.632  12.223
 4726SOL    HW114714   2.660   0.620  12.167
 4726SOL    HW214715   2.554   0.721  12.205
 4727SOL     OW14716   3.595   0.955  13.037
 4727SOL    HW114717   3.552   0.894  12.977
 4727SOL    HW214718   3.529   0.972  13.105
 4728SOL     OW14719   2.185   0.055  11.825
 4728SOL    HW114720   2.165   0.148  11.836
 4728SOL    HW214721   2.152   0.014  11.905
 4729SOL     OW14722   3.475   0.393  11.551
 4729SOL    HW114723   3.435   0.325  11.604
 4729SOL    HW214724   3.453   0.475  11.596
 4730SOL     OW14725   2.892   0.759  12.130
 4730SOL    HW114726   2.884   0.776  12.224
 4730SOL    HW214727   2.864   0.668  12.120
 4731SOL     OW14728   2.843   1.567  12.892
 4731SOL    HW114729   2.828   1.610  12.808
 4731SOL    HW214730   2.887   1.485  12.868
 4732SOL     OW14731   3.704   1.497  12.770
 4732SOL    HW114732   3.728   1.527  12.682
 4732SOL    HW214733   3.785   1.507  12.821
 4733SOL     OW14734   2.214   0.914  12.983
 4733SOL    HW114735   2.296   0.936  13.028
 4733SOL    HW214736   2.240   0.853  12.914
 4734SOL     OW14737   3.362   0.273  11.305
 4734SOL    HW114738   3.289   0.212  11.316
 4734SOL    HW214739   3.374   0.311  11.392
 4735SOL     OW14740   3.149   0.827  11.200
 4735SOL    HW114741   3.192   0.741  11.203
 4735SOL    HW214742   3.182   0.866  11.119
 4736SOL     OW14743   2.930   1.338  12.028
 4736SOL    HW114744   2.934   1.266  11.965
 4736SOL    HW214745   2.989   1.404  11.993
 4737SOL     OW14746   2.169   0.810  12.118
 4737SOL    HW114747   2.263   0.831  12.111
 4737SOL    HW214748   2.167   0.720  12.150
 4738SOL     OW14749   2.198   0.537  12.186
 4738SOL    HW114750   2.157   0.452  12.171
 4738SOL    HW214751   2.274   0.537  12.128
 4739SOL     OW14752   2.995   0.380  12.869
 4739SOL    HW114753   2.946   0.434  12.931
 4739SOL    HW214754   3.081   0.421  12.865
 4740SOL     OW14755   3.014   0.226  12.653
 4740SOL    HW114756   3.004   0.280  12.732
 4740SOL    HW214757   3.039   0.288  12.585
 4741SOL     OW14758   1.867   1.318  11.366
 4741SOL    HW114759   1.780   1.332  11.328
 4741SOL    HW214760   1.865   1.229  11.400
 4742SOL     OW14761   1.980   1.727  12.160
 4742SOL    HW114762   1.943   1.663  12.100
 4742SOL    HW214763   2.014   1.797  12.103
 4743SOL     OW14764   2.360   1.570  12.083
 4743SOL    HW114765   2.426   1.635  12.105
 4743SOL    HW214766   2.403   1.510  12.022
 4744SOL     OW14767   2.839   0.787  12.395
 4744SOL    HW114768   2.896   0.769  12.470
 4744SOL    HW214769   2.754   0.751  12.421
 4745SOL     OW14770   1.895   0.548  12.289
 4745SOL    HW114771   1.969   0.523  12.234
 4745SOL    HW214772   1.929   0.547  12.378
 4746SOL     OW14773   2.066   0.527  12.884
 4746SOL    HW114774   2.137   0.506  12.823
 4746SOL    HW214775   2.022   0.603  12.845
 4747SOL     OW14776   3.242   0.936  12.829
 4747SOL    HW114777   3.263   1.029  12.826
 4747SOL    HW214778   3.237   0.909  12.737
 4748SOL     OW14779   2.679   0.572  11.537
 4748SOL    HW114780   2.685   0.497  11.478
 4748SOL    HW214781   2.604   0.623  11.504
 4749SOL     OW14782   3.501   0.602  12.354
 4749SOL    HW114783   3.490   0.541  12.427
 4749SOL    HW214784   3.587   0.581  12.318
 4750SOL     OW14785   2.115   1.535  12.877
 4750SOL    HW114786   2.096   1.604  12.941
 4750SOL    HW214787   2.119   1.454  12.928
 4751SOL     OW14788   2.572   0.452  12.426
 4751SOL    HW114789   2.520   0.375  12.403
 4751SOL    HW214790   2.562   0.512  12.352
 4752SOL     OW14791   2.786   1.679  12.642
 4752SOL    HW114792   2.762   1.641  12.557
 4752SOL    HW214793   2.780   1.774  12.628
 4753SOL     OW14794   2.324   0.494  11.354
 4753SOL    HW114795   2.382   0.566  11.379
 4753SOL    HW214796   2.239   0.535  11.342
 4754SOL     OW14797   2.003   1.141  12.645
 4754SOL    HW114798   2.005   1.092  12.728
 4754SOL    HW214799   2.020   1.075  12.578
 4755SOL     OW14800   3.183   1.044  12.393
 4755SOL    HW114801   3.206   0.981  12.325
 4755SOL    HW214802   3.116   1.100  12.354
 4756SOL     OW14803   3.176   0.854  11.476
 4756SOL    HW114804   3.101   0.827  11.528
 4756SOL    HW214805   3.148   0.843  11.386
 4757SOL     OW14806   3.644   1.740  12.330
 4757SOL    HW114807   3.698   1.768  12.257
 4757SOL    HW214808   3.613   1.653  12.306
 4758SOL     OW14809   3.102   1.734  12.281
 4758SOL    HW114810   3.185   1.757  12.238
 4758SOL    HW214811   3.111   1.640  12.300
 4759SOL     OW14812   1.950   1.262  12.186
 4759SOL    HW114813   1.931   1.279  12.279
 4759SOL    HW214814   1.875   1.211  12.156
 4760SOL     OW14815   2.539   1.669  12.905
 4760SOL    HW114816   2.485   1.747  12.902
 4760SOL    HW214817   2.607   1.684  12.838
 4761SOL     OW14818   3.550   0.119  11.660
 4761SOL    HW114819   3.631   0.135  11.612
 4761SOL    HW214820   3.553   0.026  11.682
 4762SOL     OW14821   3.253   1.567  11.661
 4762SOL    HW114822   3.312   1.600  11.593
 4762SOL    HW214823   3.203   1.644  11.689
 4763SOL     OW14824   2.035   1.733  13.034
 4763SOL    HW114825   1.968   1.697  13.092
 4763SOL    HW214826   2.008   1.823  13.018
 4764SOL     OW14827   3.139   0.927  11.843
 4764SOL    HW114828   3.214   0.868  11.853
 4764SOL    HW214829   3.173   0.999  11.790
 4765SOL     OW14830   2.670   1.275  12.599
 4765SOL    HW114831   2.642   1.315  12.681
 4765SOL    HW214832   2.600   1.295  12.536
 4766SOL     OW14833   2.537   1.623  11.323
 4766SOL    HW114834   2.545   1.635  11.228
 4766SOL    HW214835   2.479   1.547  11.332
 4767SOL     OW14836   3.481   1.727  12.563
 4767SOL    HW114837   3.537   1.732  12.486
 4767SOL    HW214838   3.468   1.819  12.588
 4768SOL     OW14839   3.704   0.182  12.143
 4768SOL    HW114840   3.728   0.097  12.105
 4768SOL    HW214841   3.618   0.201  12.106
 4769SOL     OW14842   2.125   0.315  11.887
 4769SOL    HW114843   2.039   0.350  11.864
 4769SOL    HW214844   2.124   0.308  11.982
 4770SOL     OW14845   3.070   1.603  11.204
 4770SOL    HW114846   3.059   1.512  11.231
 4770SOL    HW214847   3.004   1.616  11.136
 4771SOL     OW14848   2.686   1.006  12.545
 4771SOL    HW114849   2.727   1.002  12.459
 4771SOL    HW214850   2.683   1.099  12.566
 4772SOL     OW14851   2.778   0.911  11.462
 4772SOL    HW114852   2.839   0.943  11.396
 4772SOL    HW214853   2.827   0.842  11.508
 4773SOL     OW14854   3.350   1.629  11.216
 4773SOL    HW114855   3.256   1.620  11.201
 4773SOL    HW214856   3.388   1.635  11.128
 4774SOL     OW14857   2.232   1.295  12.666
 4774SOL    HW114858   2.221   1.373  12.612
 4774SOL    HW214859   2.153   1.244  12.650
 4775SOL     OW14860   3.462   1.280  12.449
 4775SOL    HW114861   3.531   1.271  12.515
 4775SOL    HW214862   3.405   1.349  12.482
 4776SOL     OW14863   2.920   1.109  11.881
 4776SOL    HW114864   2.847   1.059  11.919
 4776SOL    HW214865   2.983   1.043  11.852
 4777SOL     OW14866   2.877   0.249  12.142
 4777SOL    HW114867   2.867   0.198  12.061
 4777SOL    HW214868   2.873   0.184  12.212
 4778SOL     OW14869   2.466   1.489  11.653
 4778SOL    HW114870   2.509   1.439  11.583
 4778SOL    HW214871   2.405   1.547  11.607
 4779SOL     OW14872   3.583   0.394  12.543
 4779SOL    HW114873   3.655   0.457  12.544
 4779SOL    HW214874   3.614   0.322  12.490
 4780SOL     OW14875   2.122   1.344  11.458
 4780SOL    HW114876   2.029   1.340  11.437
 4780SOL    HW214877   2.125   1.377  11.547
 4781SOL     OW14878   1.976   1.028  12.894
 4781SOL    HW114879   1.899   1.002  12.946
 4781SOL    HW214880   2.050   0.986  12.939
 4782SOL     OW14881   2.556   0.258  12.674
 4782SOL    HW114882   2.622   0.202  12.633
 4782SOL    HW214883   2.583   0.263  12.766
 4783SOL     OW14884   1.963   0.317  11.164
 4783SOL    HW114885   1.896   0.337  11.229
 4783SOL    HW214886   1.970   0.397  11.112
 4784SOL     OW14887   3.286   0.856  12.569
 4784SOL    HW114888   3.237   0.918  12.516
 4784SOL    HW214889   3.375   0.859  12.533
 4785SOL     OW14890   1.942   0.152  11.512
 4785SOL    HW114891   1.912   0.210  11.443
 4785SOL    HW214892   2.029   0.124  11.482
 4786SOL     OW14893   3.040   1.337  11.290
 4786SOL    HW114894   2.949   1.307  11.291
 4786SOL    HW214895   3.067   1.337  11.381
 4787SOL     OW14896   2.484   0.829  12.606
 4787SOL    HW114897   2.540   0.904  12.591
 4787SOL    HW214898   2.544   0.755  12.615
 4788SOL     OW14899   3.344   1.783  12.153
 4788SOL    HW114900   3.367   1.846  12.085
 4788SOL    HW214901   3.428   1.753  12.187
 4789SOL     OW14902   2.580   0.560  12.876
 4789SOL    HW114903   2.623   0.622  12.935
 4789SOL    HW214904   2.604   0.474  12.910
 4790SOL     OW14905   3.335   1.196  12.802
 4790SOL    HW114906   3.324   1.211  12.896
 4790SOL    HW214907   3.428   1.213  12.786
 4791SOL     OW14908   2.236   1.747  12.742
 4791SOL    HW114909   2.170   1.756  12.673
 4791SOL    HW214910   2.213   1.665  12.785
 4792SOL     OW14911   3.526   0.880  12.431
 4792SOL    HW114912   3.525   0.795  12.387
 4792SOL    HW214913   3.519   0.944  12.360
 4793SOL     OW14914   3.082   0.338  11.614
 4793SOL    HW114915   3.151   0.272  11.605
 4793SOL    HW214916   3.101   0.382  11.697
 4794SOL     OW14917   2.451   0.735  11.843
 4794SOL    HW114918   2.490   0.822  11.829
 4794SOL    HW214919   2.385   0.727  11.775
 4795SOL     OW14920   3.615   0.381  12.814
 4795SOL    HW114921   3.595   0.391  12.721
 4795SOL    HW214922   3.555   0.314  12.846
 4796SOL     OW14923   3.617   0.930  12.685
 4796SOL    HW114924   3.607   1.024  12.703
 4796SOL    HW214925   3.592   0.920  12.593
 4797SOL     OW14926   2.725   1.366  11.211
 4797SOL    HW114927   2.687   1.392  11.295
 4797SOL    HW214928   2.741   1.448  11.165
 4798SOL     OW14929   2.524   1.792  12.113
 4798SOL    HW114930   2.510   1.883  12.089
 4798SOL    HW214931   2.619   1.780  12.105
 4799SOL     OW14932   2.731   0.970  12.026
 4799SOL    HW114933   2.781   0.898  12.064
 4799SOL    HW214934   2.693   1.015  12.102
 4800SOL     OW14935   2.940   0.989  11.262
 4800SOL    HW114936   2.918   1.041  11.184
 4800SOL    HW214937   3.014   0.935  11.234
 4801SOL     OW14938   3.713   1.556  12.013
 4801SOL    HW114939   3.634   1.540  11.962
 4801SOL    HW214940   3.712   1.489  12.081
 4802SOL     OW14941   2.089   1.299  13.027
 4802SOL    HW114942   2.022   1.236  13.000
 4802SOL    HW214943   2.075   1.311  13.120
 4803SOL     OW14944   1.943   1.222  11.839
 4803SOL    HW114945   1.959   1.178  11.922
 4803SOL    HW214946   2.015   1.195  11.782
 4804SOL     OW14947   2.544   1.406  12.801
 4804SOL    HW114948   2.466   1.363  12.834
 4804SOL    HW214949   2.541   1.494  12.838
 4805SOL     OW14950   3.676   0.181  12.417
 4805SOL    HW114951   3.678   0.086  12.425
 4805SOL    HW214952   3.694   0.197  12.324
 4806SOL     OW14953   2.290   0.435  11.697
 4806SOL    HW114954   2.325   0.363  11.644
 4806SOL    HW214955   2.242   0.391  11.768
 4807SOL     OW14956   3.558   1.491  12.268
 4807SOL    HW114957   3.480   1.468  12.217
 4807SOL    HW214958   3.567   1.419  12.331
 4808SOL     OW14959   2.194   0.557  12.467
 4808SOL    HW114960   2.247   0.497  12.521
 4808SOL    HW214961   2.213   0.530  12.377
 4809SOL     OW14962   2.691   1.578  11.848
 4809SOL    HW114963   2.671   1.636  11.774
 4809SOL    HW214964   2.617   1.518  11.850
 4810SOL     OW14965   3.323   0.253  12.282
 4810SOL    HW114966   3.336   0.165  12.317
 4810SOL    HW214967   3.267   0.297  12.347
 4811SOL     OW14968   2.865   0.027  12.318
 4811SOL    HW114969   2.783   3.994  12.281
 4811SOL    HW214970   2.920   3.948  12.327
 4812SOL     OW14971   2.636   1.333  11.489
 4812SOL    HW114972   2.606   1.243  11.497
 4812SOL    HW214973   2.717   1.337  11.541
 4813SOL     OW14974   2.484   1.555  12.459
 4813SOL    HW114975   2.484   1.637  12.507
 4813SOL    HW214976   2.572   1.548  12.422
 4814SOL     OW14977   3.171   0.070  11.331
 4814SOL    HW114978   3.176   3.986  11.286
 4814SOL    HW214979   3.087   0.068  11.377
 4815SOL     OW14980   3.142   0.456  11.857
 4815SOL    HW114981   3.096   0.540  11.851
 4815SOL    HW214982   3.145   0.437  11.950
 4816SOL     OW14983   3.453   0.210  12.039
 4816SOL    HW114984   3.404   0.234  12.118
 4816SOL    HW214985   3.451   0.289  11.985
 4817SOL     OW14986   1.906   1.069  11.478
 4817SOL    HW114987   2.000   1.061  11.461
 4817SOL    HW214988   1.878   0.981  11.503
 4818SOL     OW14989   2.749   1.658  11.512
 4818SOL    HW114990   2.676   1.640  11.452
 4818SOL    HW214991   2.719   1.731  11.565
 4819SOL     OW14992   2.087   0.619  13.156
 4819SOL    HW114993   1.997   0.626  13.187
 4819SOL    HW214994   2.079   0.599  13.062
 4820SOL     OW14995   2.114   0.264   0.127
 4820SOL    HW114996   2.158   0.330   0.182
 4820SOL    HW214997   2.021   0.286   0.133
 4821SOL     OW14998   1.870   0.389  13.645
 4821SOL    HW114999   1.777   0.399  13.661
 4821SOL    HW215000   1.879   0.300  13.610
 4822SOL     OW15001   3.385   1.497  13.728
 4822SOL    HW115002   3.330   1.428  13.765
 4822SOL    HW215003   3.341   1.521  13.646
 4823SOL     OW15004   2.994   0.698  13.730
 4823SOL    HW115005   3.046   0.775  13.708
 4823SOL    HW215006   2.937   0.727  13.802
 4824SOL     OW15007   3.634   0.621  13.258
 4824SOL    HW115008   3.611   0.612  13.166
 4824SOL    HW215009   3.605   0.539  13.298
 4825SOL     OW15010   2.546   1.012  13.671
 4825SOL    HW115011   2.599   0.992  13.748
 4825SOL    HW215012   2.471   1.061  13.706
 4826SOL     OW15013   3.475   0.459  13.761
 4826SOL    HW115014   3.389   0.468  13.722
 4826SOL    HW215015   3.497   0.547  13.792
 4827SOL     OW15016   2.095   1.688  13.496
 4827SOL    HW115017   2.107   1.762  13.556
 4827SOL    HW215018   2.172   1.691  13.439
 4828SOL     OW15019   2.097   1.427  13.569
 4828SOL    HW115020   2.088   1.522  13.560
 4828SOL    HW215021   2.033   1.403  13.636
 4829SOL     OW15022   2.101   1.110   0.028
 4829SOL    HW115023   2.121   1.046   0.097
 4829SOL    HW215024   2.033   1.166   0.066
 4830SOL     OW15025   2.443   0.984  13.170
 4830SOL    HW115026   2.490   1.030  13.100
 4830SOL    HW215027   2.482   1.016  13.251
 4831SOL     OW15028   1.982   0.659  13.588
 4831SOL    HW115029   1.952   0.568  13.601
 4831SOL    HW215030   1.965   0.701  13.672
 4832SOL     OW15031   3.703   1.758  13.369
 4832SOL    HW115032   3.774   1.732  13.427
 4832SOL    HW215033   3.721   1.850  13.348
 4833SOL     OW15034   1.858   1.611  13.205
 4833SOL    HW115035   1.846   1.519  13.180
 4833SOL    HW215036   1.900   1.607  13.291
 4834SOL     OW15037   3.546   0.915  13.668
 4834SOL    HW115038   3.634   0.883  13.648
 4834SOL    HW215039   3.525   0.973  13.594
 4835SOL     OW15040   3.504   1.104  13.463
 4835SOL    HW115041   3.588   1.108  13.418
 4835SOL    HW215042   3.512   1.168  13.533
 4836SOL     OW15043   2.466   1.383  13.759
 4836SOL    HW115044   2.422   1.299  13.765
 4836SOL    HW215045   2.443   1.416  13.671
 4837SOL     OW15046   2.683   0.005  13.551
 4837SOL    HW115047   2.727   0.086  13.523
 4837SOL    HW215048   2.590   0.027  13.547
 4838SOL     OW15049   3.389   0.996  13.235
 4838SOL    HW115050   3.320   0.938  13.269
 4838SOL    HW215051   3.430   1.033  13.313
 4839SOL     OW15052   3.514   1.746  13.613
 4839SOL    HW115053   3.495   1.714  13.525
 4839SOL    HW215054   3.510   1.667  13.668
 4840SOL     OW15055   2.455   0.721  13.300
 4840SOL    HW115056   2.458   0.804  13.253
 4840SOL    HW215057   2.390   0.735  13.369
 4841SOL     OW15058   3.099   0.341   0.050
 4841SOL    HW115059   3.012   0.327   0.087
 4841SOL    HW215060   3.158   0.296   0.111
 4842SOL     OW15061   3.439   1.675  13.343
 4842SOL    HW115062   3.531   1.703  13.337
 4842SOL    HW215063   3.414   1.658  13.252
 4843SOL     OW15064   2.912   0.696  13.458
 4843SOL    HW115065   2.927   0.684  13.552
 4843SOL    HW215066   2.829   0.651  13.441
 4844SOL     OW15067   1.941   0.817  13.812
 4844SOL    HW115068   2.021   0.815  13.865
 4844SOL    HW215069   1.894   0.894  13.844
 4845SOL     OW15070   2.757   0.352  13.232
 4845SOL    HW115071   2.799   0.411  13.170
 4845SOL    HW215072   2.749   0.269  13.185
 4846SOL     OW15073   3.224   1.134  13.550
 4846SOL    HW115074   3.314   1.134  13.518
 4846SOL    HW215075   3.182   1.206  13.503
 4847SOL     OW15076   2.860   1.439  13.501
 4847SOL    HW115077   2.830   1.516  13.452
 4847SOL    HW215078   2.828   1.454  13.591
 4848SOL     OW15079   2.276   1.788  13.847
 4848SOL    HW115080   2.240   1.711  13.890
 4848SOL    HW215081   2.354   1.810  13.898
 4849SOL     OW15082   3.654   1.052  13.899
 4849SOL    HW115083   3.595   1.046  13.823
 4849SOL    HW215084   3.595   1.048   0.074
 4850SOL     OW15085   2.180   0.960  13.288
 4850SOL    HW115086   2.261   0.980  13.242
 4850SOL    HW215087   2.150   0.878  13.249
 4851SOL     OW15088   3.356   0.732  13.753
 4851SOL    HW115089   3.342   0.697  13.841
 4851SOL    HW215090   3.423   0.799  13.764
 4852SOL     OW15091   2.985   1.779  13.263
 4852SOL    HW115092   2.910   1.739  13.308
 4852SOL    HW215093   3.009   1.715  13.195
 4853SOL     OW15094   3.487   1.384  13.121
 4853SOL    HW115095   3.443   1.468  13.106
 4853SOL    HW215096   3.419   1.319  13.101
 4854SOL     OW15097   2.340   1.711  13.375
 4854SOL    HW115098   2.375   1.787  13.423
 4854SOL    HW215099   2.396   1.705  13.298
 4855SOL     OW15100   3.284   0.170  13.439
 4855SOL    HW115101   3.247   0.109  13.375
 4855SOL    HW215102   3.372   0.136  13.456
 4856SOL     OW15103   2.783   1.688   0.008
 4856SOL    HW115104   2.807   1.623   0.074
 4856SOL    HW215105   2.746   1.638  13.836
 4857SOL     OW15106   2.256   0.698  13.505
 4857SOL    HW115107   2.275   0.605  13.517
 4857SOL    HW215108   2.162   0.706  13.522
 4858SOL     OW15109   2.506   0.129  13.142
 4858SOL    HW115110   2.528   0.044  13.181
 4858SOL    HW215111   2.444   0.108  13.072
 4859SOL     OW15112   2.411   0.056  13.525
 4859SOL    HW115113   2.336   0.058  13.585
 4859SOL    HW215114   2.404   0.136  13.474
 4860SOL     OW15115   3.289   1.199  13.074
 4860SOL    HW115116   3.318   1.124  13.125
 4860SOL    HW215117   3.204   1.222  13.111
 4861SOL     OW15118   2.194   0.045  13.243
 4861SOL    HW115119   2.202   0.111  13.174
 4861SOL    HW215120   2.277   0.050  13.291
 4862SOL     OW15121   2.804   0.250  13.492
 4862SOL    HW115122   2.778   0.290  13.409
 4862SOL    HW215123   2.899   0.258  13.494
 4863SOL     OW15124   2.324   1.144  13.769
 4863SOL    HW115125   2.252   1.131  13.831
 4863SOL    HW215126   2.285   1.132  13.683
 4864SOL     OW15127   3.130   1.795  13.634
 4864SOL    HW115128   3.174   1.863  13.582
 4864SOL    HW215129   3.062   1.843  13.682
 4865SOL     OW15130   2.883   0.542  13.063
 4865SOL    HW115131   2.839   0.624  13.043
 4865SOL    HW215132   2.947   0.564  13.131
 4866SOL     OW15133   2.762   0.474  13.669
 4866SOL    HW115134   2.693   0.520  13.622
 4866SOL    HW215135   2.769   0.389  13.625
 4867SOL     OW15136   2.863   0.038  13.794
 4867SOL    HW115137   2.830   0.064  13.708
 4867SOL    HW215138   2.887   3.946  13.784
 4868SOL     OW15139   3.728   0.822  13.410
 4868SOL    HW115140   3.774   0.765  13.472
 4868SOL    HW215141   3.691   0.762  13.346
 4869SOL     OW15142   2.355   1.420  13.186
 4869SOL    HW115143   2.280   1.395  13.238
 4869SOL    HW215144   2.343   1.374  13.103
 4870SOL     OW15145   3.540   1.270  13.666
 4870SOL    HW115146   3.634   1.273  13.681
 4870SOL    HW215147   3.508   1.353  13.700
 4871SOL     OW15148   3.256   0.576  13.103
 4871SOL    HW115149   3.193   0.556  13.172
 4871SOL    HW215150   3.341   0.558  13.142
 4872SOL     OW15151   2.390   0.266  13.349
 4872SOL    HW115152   2.445   0.227  13.282
 4872SOL    HW215153   2.360   0.348  13.311
 4873SOL     OW15154   2.572   1.065  13.400
 4873SOL    HW115155   2.557   1.048  13.493
 4873SOL    HW215156   2.647   1.011  13.378
 4874SOL     OW15157   2.209   1.112  13.525
 4874SOL    HW115158   2.212   1.189  13.468
 4874SOL    HW215159   2.204   1.038  13.465
 4875SOL     OW15160   2.430   0.541  13.863
 4875SOL    HW115161   2.441   0.609  13.797
 4875SOL    HW215162   2.489   0.567   0.034
 4876SOL     OW15163   3.107   1.353  13.418
 4876SOL    HW115164   3.161   1.426  13.446
 4876SOL    HW215165   3.020   1.373  13.454
 4877SOL     OW15166   3.444   0.635  13.511
 4877SOL    HW115167   3.405   0.679  13.586
 4877SOL    HW215168   3.479   0.706  13.456
 4878SOL     OW15169   3.062   0.534  13.293
 4878SOL    HW115170   3.067   0.454  13.346
 4878SOL    HW215171   3.019   0.598  13.349
 4879SOL     OW15172   2.195   0.052  13.686
 4879SOL    HW115173   2.176   0.145  13.699
 4879SOL    HW215174   2.116   0.006  13.716
 4880SOL     OW15175   3.464   0.393  13.406
 4880SOL    HW115176   3.434   0.326  13.467
 4880SOL    HW215177   3.448   0.475  13.452
 4881SOL     OW15178   3.361   0.278  13.165
 4881SOL    HW115179   3.289   0.215  13.179
 4881SOL    HW215180   3.375   0.316  13.251
 4882SOL     OW15181   3.149   0.827  13.061
 4882SOL    HW115182   3.192   0.741  13.065
 4882SOL    HW215183   3.182   0.866  12.981
 4883SOL     OW15184   1.867   1.319  13.228
 4883SOL    HW115185   1.780   1.332  13.191
 4883SOL    HW215186   1.865   1.229  13.262
 4884SOL     OW15187   2.679   0.576  13.390
 4884SOL    HW115188   2.683   0.498  13.334
 4884SOL    HW215189   2.602   0.623  13.359
 4885SOL     OW15190   2.324   0.493  13.215
 4885SOL    HW115191   2.382   0.566  13.239
 4885SOL    HW215192   2.238   0.533  13.204
 4886SOL     OW15193   3.179   0.848  13.337
 4886SOL    HW115194   3.100   0.828  13.388
 4886SOL    HW215195   3.151   0.840  13.246
 4887SOL     OW15196   3.539   0.109  13.468
 4887SOL    HW115197   3.630   0.126  13.443
 4887SOL    HW215198   3.545   0.040  13.534
 4888SOL     OW15199   3.244   1.574  13.508
 4888SOL    HW115200   3.304   1.611  13.444
 4888SOL    HW215201   3.198   1.650  13.545
 4889SOL     OW15202   3.153   0.912  13.684
 4889SOL    HW115203   3.231   0.858  13.669
 4889SOL    HW215204   3.173   0.995  13.642
 4890SOL     OW15205   2.537   1.623  13.184
 4890SOL    HW115206   2.546   1.635  13.090
 4890SOL    HW215207   2.480   1.547  13.193
 4891SOL     OW15208   3.670   0.166   0.061
 4891SOL    HW115209   3.705   0.076   0.064
 4891SOL    HW215210   3.581   0.156   0.027
 4892SOL     OW15211   2.139   0.310  13.745
 4892SOL    HW115212   2.048   0.330  13.722
 4892SOL    HW215213   2.139   0.304  13.841
 4893SOL     OW15214   3.070   1.603  13.066
 4893SOL    HW115215   3.059   1.512  13.092
 4893SOL    HW215216   3.004   1.617  12.998
 4894SOL     OW15217   2.782   0.914  13.330
 4894SOL    HW115218   2.840   0.944  13.261
 4894SOL    HW215219   2.827   0.840  13.370
 4895SOL     OW15220   3.350   1.629  13.077
 4895SOL    HW115221   3.256   1.620  13.062
 4895SOL    HW215222   3.388   1.635  12.990
 4896SOL     OW15223   2.912   1.090  13.756
 4896SOL    HW115224   2.825   1.055  13.737
 4896SOL    HW215225   2.967   1.057  13.684
 4897SOL     OW15226   2.459   1.488  13.507
 4897SOL    HW115227   2.504   1.440  13.437
 4897SOL    HW215228   2.403   1.550  13.460
 4898SOL     OW15229   2.122   1.343  13.318
 4898SOL    HW115230   2.029   1.339  13.298
 4898SOL    HW215231   2.127   1.377  13.408
 4899SOL     OW15232   1.962   0.317  13.026
 4899SOL    HW115233   1.894   0.336  13.091
 4899SOL    HW215234   1.969   0.398  12.974
 4900SOL     OW15235   1.952   0.152  13.365
 4900SOL    HW115236   1.922   0.212  13.297
 4900SOL    HW215237   2.038   0.123  13.335
 4901SOL     OW15238   3.040   1.336  13.149
 4901SOL    HW115239   2.948   1.308  13.151
 4901SOL    HW215240   3.066   1.338  13.241
 4902SOL     OW15241   3.077   0.335  13.484
 4902SOL    HW115242   3.147   0.270  13.471
 4902SOL    HW215243   3.105   0.384  13.561
 4903SOL     OW15244   2.455   0.749  13.690
 4903SOL    HW115245   2.489   0.837  13.671
 4903SOL    HW215246   2.385   0.736  13.626
 4904SOL     OW15247   2.726   1.366  13.073
 4904SOL    HW115248   2.686   1.393  13.156
 4904SOL    HW215249   2.741   1.448  13.026
 4905SOL     OW15250   2.519   1.851   0.065
 4905SOL    HW115251   2.533   1.945   0.051
 4905SOL    HW215252   2.607   1.816   0.078
 4906SOL     OW15253   2.686   0.967  13.898
 4906SOL    HW115254   2.711   0.884   0.037
 4906SOL    HW215255   2.723   1.033   0.057
 4907SOL     OW15256   2.939   0.987  13.124
 4907SOL    HW115257   2.917   1.040  13.047
 4907SOL    HW215258   3.013   0.934  13.096
 4908SOL     OW15259   1.948   1.225  13.702
 4908SOL    HW115260   1.953   1.168  13.779
 4908SOL    HW215261   2.019   1.195  13.645
 4909SOL     OW15262   2.291   0.438  13.551
 4909SOL    HW115263   2.328   0.367  13.500
 4909SOL    HW215264   2.252   0.395  13.628
 4910SOL     OW15265   3.544   1.454   0.353
 4910SOL    HW115266   3.512   1.434   0.265
 4910SOL    HW215267   3.634   1.422   0.353
 4911SOL     OW15268   2.680   1.548  13.706
 4911SOL    HW115269   2.653   1.604  13.633
 4911SOL    HW215270   2.604   1.492  13.722
 4912SOL     OW15271   2.636   1.334  13.348
 4912SOL    HW115272   2.607   1.244  13.356
 4912SOL    HW215273   2.716   1.339  13.400
 4913SOL     OW15274   3.172   0.072  13.202
 4913SOL    HW115275   3.188   3.991  13.154
 4913SOL    HW215276   3.082   0.064  13.234
 4914SOL     OW15277   3.156   0.461  13.715
 4914SOL    HW115278   3.106   0.543  13.714
 4914SOL    HW215279   3.145   0.428  13.804
 4915SOL     OW15280   1.907   1.070  13.339
 4915SOL    HW115281   2.001   1.062  13.322
 4915SOL    HW215282   1.879   0.981  13.363
 4916SOL     OW15283   2.749   1.656  13.374
 4916SOL    HW115284   2.676   1.641  13.314
 4916SOL    HW215285   2.720   1.729  13.429
 4917SOL     OW15286   2.096   2.502   0.103
 4917SOL    HW115287   2.010   2.473   0.133
 4917SOL    HW215288   2.115   2.446   0.027
 4918SOL     OW15289   1.871   2.287   0.630
 4918SOL    HW115290   1.781   2.282   0.661
 4918SOL    HW215291   1.881   2.209   0.575
 4919SOL     OW15292   2.429   3.155   1.179
 4919SOL    HW115293   2.343   3.161   1.139
 4919SOL    HW215294   2.446   3.243   1.213
 4920SOL     OW15295   3.427   3.374   0.709
 4920SOL    HW115296   3.382   3.350   0.790
 4920SOL    HW215297   3.357   3.377   0.643
 4921SOL     OW15298   2.993   2.560   0.699
 4921SOL    HW115299   3.042   2.641   0.685
 4921SOL    HW215300   2.946   2.574   0.781
 4922SOL     OW15301   3.627   2.461   0.229
 4922SOL    HW115302   3.644   2.418   0.145
 4922SOL    HW215303   3.585   2.393   0.282
 4923SOL     OW15304   2.611   3.001   1.044
 4923SOL    HW115305   2.544   3.038   1.101
 4923SOL    HW215306   2.649   3.077   1.000
 4924SOL     OW15307   2.733   2.628   1.823
 4924SOL    HW115308   2.720   2.698   1.887
 4924SOL    HW215309   2.756   2.674   1.742
 4925SOL     OW15310   2.547   2.858   0.647
 4925SOL    HW115311   2.613   2.851   0.715
 4925SOL    HW215312   2.479   2.914   0.685
 4926SOL     OW15313   2.575   3.012   1.816
 4926SOL    HW115314   2.622   3.090   1.845
 4926SOL    HW215315   2.494   3.046   1.778
 4927SOL     OW15316   2.194   3.282   1.067
 4927SOL    HW115317   2.119   3.245   1.019
 4927SOL    HW215318   2.240   3.335   1.002
 4928SOL     OW15319   3.321   3.364   1.358
 4928SOL    HW115320   3.375   3.442   1.368
 4928SOL    HW215321   3.254   3.372   1.426
 4929SOL     OW15322   2.283   2.227   1.469
 4929SOL    HW115323   2.370   2.192   1.486
 4929SOL    HW215324   2.224   2.153   1.483
 4930SOL     OW15325   3.471   2.306   0.744
 4930SOL    HW115326   3.398   2.328   0.686
 4930SOL    HW215327   3.482   2.384   0.798
 4931SOL     OW15328   2.082   3.573   0.483
 4931SOL    HW115329   2.108   3.642   0.544
 4931SOL    HW215330   2.146   3.579   0.412
 4932SOL     OW15331   2.999   3.204   1.694
 4932SOL    HW115332   3.040   3.197   1.780
 4932SOL    HW215333   2.947   3.124   1.686
 4933SOL     OW15334   2.081   3.303   0.529
 4933SOL    HW115335   2.074   3.398   0.533
 4933SOL    HW215336   2.027   3.272   0.602
 4934SOL     OW15337   2.125   2.954   0.890
 4934SOL    HW115338   2.120   2.867   0.931
 4934SOL    HW215339   2.067   3.009   0.944
 4935SOL     OW15340   2.469   3.647   1.428
 4935SOL    HW115341   2.387   3.633   1.476
 4935SOL    HW215342   2.495   3.736   1.452
 4936SOL     OW15343   2.427   2.841   0.164
 4936SOL    HW115344   2.460   2.880   0.083
 4936SOL    HW215345   2.480   2.881   0.233
 4937SOL     OW15346   3.456   1.988   1.465
 4937SOL    HW115347   3.474   2.070   1.418
 4937SOL    HW215348   3.441   2.016   1.555
 4938SOL     OW15349   1.986   2.526   0.560
 4938SOL    HW115350   1.951   2.440   0.581
 4938SOL    HW215351   1.975   2.577   0.640
 4939SOL     OW15352   3.697   3.613   0.341
 4939SOL    HW115353   3.765   3.579   0.398
 4939SOL    HW215354   3.720   3.705   0.328
 4940SOL     OW15355   1.882   3.464   0.103
 4940SOL    HW115356   1.891   3.373   0.132
 4940SOL    HW215357   1.868   3.514   0.183
 4941SOL     OW15358   3.549   2.781   0.650
 4941SOL    HW115359   3.632   2.738   0.632
 4941SOL    HW215360   3.530   2.830   0.570
 4942SOL     OW15361   3.505   2.965   0.434
 4942SOL    HW115362   3.592   2.970   0.392
 4942SOL    HW215363   3.509   3.029   0.505
 4943SOL     OW15364   1.984   2.609   1.582
 4943SOL    HW115365   2.075   2.639   1.590
 4943SOL    HW215366   1.932   2.689   1.591
 4944SOL     OW15367   2.478   3.252   0.735
 4944SOL    HW115368   2.432   3.168   0.744
 4944SOL    HW215369   2.461   3.279   0.644
 4945SOL     OW15370   3.148   3.098   1.422
 4945SOL    HW115371   3.181   3.031   1.362
 4945SOL    HW215372   3.208   3.094   1.497
 4946SOL     OW15373   2.706   1.863   0.519
 4946SOL    HW115374   2.746   1.946   0.494
 4946SOL    HW215375   2.612   1.879   0.514
 4947SOL     OW15376   2.052   2.826   1.276
 4947SOL    HW115377   2.136   2.784   1.260
 4947SOL    HW215378   1.989   2.775   1.225
 4948SOL     OW15379   3.391   2.860   0.206
 4948SOL    HW115380   3.323   2.802   0.239
 4948SOL    HW215381   3.431   2.897   0.284
 4949SOL     OW15382   3.082   3.667   1.628
 4949SOL    HW115383   3.056   3.727   1.558
 4949SOL    HW215384   3.083   3.581   1.586
 4950SOL     OW15385   3.326   3.282   0.948
 4950SOL    HW115386   3.260   3.296   1.016
 4950SOL    HW215387   3.316   3.190   0.923
 4951SOL     OW15388   3.514   3.607   0.588
 4951SOL    HW115389   3.506   3.578   0.497
 4951SOL    HW215390   3.495   3.528   0.640
 4952SOL     OW15391   2.458   2.580   0.267
 4952SOL    HW115392   2.460   2.663   0.220
 4952SOL    HW215393   2.398   2.595   0.340
 4953SOL     OW15394   3.139   2.222   0.933
 4953SOL    HW115395   3.051   2.187   0.942
 4953SOL    HW215396   3.192   2.168   0.992
 4954SOL     OW15397   3.421   3.595   0.314
 4954SOL    HW115398   3.517   3.596   0.314
 4954SOL    HW215399   3.397   3.561   0.228
 4955SOL     OW15400   2.654   2.480   1.447
 4955SOL    HW115401   2.630   2.455   1.536
 4955SOL    HW215402   2.616   2.412   1.392
 4956SOL     OW15403   3.255   2.335   1.678
 4956SOL    HW115404   3.259   2.380   1.763
 4956SOL    HW215405   3.313   2.260   1.688
 4957SOL     OW15406   2.813   2.748   1.584
 4957SOL    HW115407   2.869   2.679   1.547
 4957SOL    HW215408   2.766   2.784   1.510
 4958SOL     OW15409   2.855   2.274   1.236
 4958SOL    HW115410   2.768   2.293   1.269
 4958SOL    HW215411   2.840   2.230   1.152
 4959SOL     OW15412   2.914   2.563   0.429
 4959SOL    HW115413   2.932   2.555   0.522
 4959SOL    HW215414   2.831   2.518   0.416
 4960SOL     OW15415   1.951   2.688   0.777
 4960SOL    HW115416   2.031   2.682   0.829
 4960SOL    HW215417   1.905   2.763   0.813
 4961SOL     OW15418   1.982   3.712   1.577
 4961SOL    HW115419   1.986   3.691   1.671
 4961SOL    HW215420   1.889   3.702   1.555
 4962SOL     OW15421   2.730   2.222   0.216
 4962SOL    HW115422   2.769   2.283   0.154
 4962SOL    HW215423   2.745   2.136   0.177
 4963SOL     OW15424   3.570   2.435   1.829
 4963SOL    HW115425   3.533   2.508   1.780
 4963SOL    HW215426   3.595   2.371   1.762
 4964SOL     OW15427   3.239   3.003   0.543
 4964SOL    HW115428   3.318   2.991   0.490
 4964SOL    HW215429   3.187   3.067   0.494
 4965SOL     OW15430   2.412   2.050   0.897
 4965SOL    HW115431   2.413   2.076   0.989
 4965SOL    HW215432   2.429   2.132   0.850
 4966SOL     OW15433   2.864   3.304   0.474
 4966SOL    HW115434   2.833   3.380   0.424
 4966SOL    HW215435   2.842   3.324   0.565
 4967SOL     OW15436   2.213   3.675   0.840
 4967SOL    HW115437   2.263   3.595   0.858
 4967SOL    HW215438   2.273   3.746   0.863
 4968SOL     OW15439   3.667   2.921   0.869
 4968SOL    HW115440   3.614   2.897   0.794
 4968SOL    HW215441   3.606   2.926   0.942
 4969SOL     OW15442   3.089   3.399   1.512
 4969SOL    HW115443   3.076   3.327   1.573
 4969SOL    HW215444   3.021   3.387   1.446
 4970SOL     OW15445   2.170   2.800   0.233
 4970SOL    HW115446   2.261   2.812   0.208
 4970SOL    HW215447   2.155   2.706   0.226
 4971SOL     OW15448   3.341   2.608   0.725
 4971SOL    HW115449   3.337   2.567   0.811
 4971SOL    HW215450   3.419   2.664   0.729
 4972SOL     OW15451   2.331   3.128   1.737
 4972SOL    HW115452   2.304   3.133   1.645
 4972SOL    HW215453   2.248   3.125   1.786
 4973SOL     OW15454   2.989   3.640   0.230
 4973SOL    HW115455   2.925   3.595   0.285
 4973SOL    HW215456   3.016   3.574   0.166
 4974SOL     OW15457   3.493   3.241   0.088
 4974SOL    HW115458   3.456   3.323   0.055
 4974SOL    HW215459   3.426   3.175   0.069
 4975SOL     OW15460   2.336   3.597   0.325
 4975SOL    HW115461   2.370   3.659   0.389
 4975SOL    HW215462   2.413   3.568   0.276
 4976SOL     OW15463   3.266   1.971   0.440
 4976SOL    HW115464   3.262   1.939   0.350
 4976SOL    HW215465   3.359   1.971   0.462
 4977SOL     OW15466   2.122   3.653   1.222
 4977SOL    HW115467   2.169   3.582   1.266
 4977SOL    HW215468   2.106   3.620   1.134
 4978SOL     OW15469   2.801   3.564   0.899
 4978SOL    HW115470   2.878   3.512   0.921
 4978SOL    HW215471   2.757   3.514   0.830
 4979SOL     OW15472   2.256   2.555   0.472
 4979SOL    HW115473   2.275   2.462   0.485
 4979SOL    HW215474   2.163   2.565   0.494
 4980SOL     OW15475   3.394   2.087   1.725
 4980SOL    HW115476   3.404   2.107   1.818
 4980SOL    HW215477   3.326   2.019   1.723
 4981SOL     OW15478   2.625   2.139   1.755
 4981SOL    HW115479   2.705   2.087   1.751
 4981SOL    HW215480   2.582   2.111   1.835
 4982SOL     OW15481   2.738   3.383   1.195
 4982SOL    HW115482   2.721   3.347   1.108
 4982SOL    HW215483   2.808   3.328   1.230
 4983SOL     OW15484   3.201   2.451   1.433
 4983SOL    HW115485   3.233   2.420   1.518
 4983SOL    HW215486   3.238   2.539   1.425
 4984SOL     OW15487   2.680   3.253   0.944
 4984SOL    HW115488   2.764   3.241   0.900
 4984SOL    HW215489   2.616   3.258   0.872
 4985SOL     OW15490   2.789   2.370   0.901
 4985SOL    HW115491   2.765   2.362   0.809
 4985SOL    HW215492   2.822   2.283   0.925
 4986SOL     OW15493   2.450   1.923   0.479
 4986SOL    HW115494   2.376   1.914   0.540
 4986SOL    HW215495   2.430   2.002   0.429
 4987SOL     OW15496   3.292   3.070   0.045
 4987SOL    HW115497   3.311   2.989   0.092
 4987SOL    HW215498   3.201   3.089   0.065
 4988SOL     OW15499   2.809   2.112   0.460
 4988SOL    HW115500   2.777   2.151   0.379
 4988SOL    HW215501   2.903   2.131   0.460
 4989SOL     OW15502   2.943   2.545   1.458
 4989SOL    HW115503   2.878   2.476   1.463
 4989SOL    HW215504   3.027   2.499   1.453
 4990SOL     OW15505   3.081   3.434   0.795
 4990SOL    HW115506   3.098   3.500   0.727
 4990SOL    HW215507   3.153   3.445   0.857
 4991SOL     OW15508   2.333   3.014   0.728
 4991SOL    HW115509   2.265   2.995   0.793
 4991SOL    HW215510   2.290   3.002   0.643
 4992SOL     OW15511   3.127   3.657   0.609
 4992SOL    HW115512   3.175   3.721   0.557
 4992SOL    HW215513   3.054   3.706   0.646
 4993SOL     OW15514   2.858   2.403   0.054
 4993SOL    HW115515   2.855   2.388  13.860
 4993SOL    HW215516   2.951   2.398   0.076
 4994SOL     OW15517   1.940   2.424   1.386
 4994SOL    HW115518   2.034   2.421   1.365
 4994SOL    HW215519   1.934   2.490   1.455
 4995SOL     OW15520   2.417   2.082   1.173
 4995SOL    HW115521   2.469   2.006   1.198
 4995SOL    HW215522   2.334   2.070   1.219
 4996SOL     OW15523   2.726   2.319   0.639
 4996SOL    HW115524   2.687   2.375   0.572
 4996SOL    HW215525   2.751   2.240   0.592
 4997SOL     OW15526   2.876   1.916   0.750
 4997SOL    HW115527   2.821   1.905   0.673
 4997SOL    HW215528   2.854   1.840   0.805
 4998SOL     OW15529   3.301   3.023   0.857
 4998SOL    HW115530   3.231   2.959   0.856
 4998SOL    HW215531   3.327   3.033   0.765
 4999SOL     OW15532   3.327   2.471   0.972
 4999SOL    HW115533   3.274   2.391   0.974
 4999SOL    HW215534   3.385   2.463   1.047
 5000SOL     OW15535   3.725   2.675   0.369
 5000SOL    HW115536   3.765   2.621   0.437
 5000SOL    HW215537   3.683   2.613   0.311
 5001SOL     OW15538   2.352   3.268   0.156
 5001SOL    HW115539   2.277   3.235   0.206
 5001SOL    HW215540   2.335   3.240   0.067
 5002SOL     OW15541   3.529   3.126   0.645
 5002SOL    HW115542   3.624   3.128   0.655
 5002SOL    HW215543   3.501   3.216   0.660
 5003SOL     OW15544   3.284   2.448   0.086
 5003SOL    HW115545   3.218   2.439   0.155
 5003SOL    HW215546   3.319   2.359   0.076
 5004SOL     OW15547   2.384   2.127   0.317
 5004SOL    HW115548   2.443   2.096   0.248
 5004SOL    HW215549   2.349   2.209   0.282
 5005SOL     OW15550   3.613   3.096   1.564
 5005SOL    HW115551   3.700   3.061   1.547
 5005SOL    HW215552   3.628   3.186   1.593
 5006SOL     OW15553   2.918   3.214   1.331
 5006SOL    HW115554   2.843   3.183   1.382
 5006SOL    HW215555   2.994   3.173   1.373
 5007SOL     OW15556   3.469   3.492   1.657
 5007SOL    HW115557   3.459   3.525   1.568
 5007SOL    HW215558   3.549   3.439   1.655
 5008SOL     OW15559   2.994   3.068   1.102
 5008SOL    HW115560   2.935   3.107   1.167
 5008SOL    HW215561   2.963   3.104   1.019
 5009SOL     OW15562   3.489   2.957   1.075
 5009SOL    HW115563   3.480   3.019   1.147
 5009SOL    HW215564   3.413   2.974   1.019
 5010SOL     OW15565   2.778   1.958   1.392
 5010SOL    HW115566   2.803   1.938   1.302
 5010SOL    HW215567   2.857   1.997   1.430
 5011SOL     OW15568   2.846   2.977   1.723
 5011SOL    HW115569   2.755   2.993   1.746
 5011SOL    HW215570   2.843   2.898   1.668
 5012SOL     OW15571   2.579   2.922   0.378
 5012SOL    HW115572   2.563   2.902   0.470
 5012SOL    HW215573   2.653   2.867   0.353
 5013SOL     OW15574   2.281   2.676   1.251
 5013SOL    HW115575   2.349   2.688   1.317
 5013SOL    HW215576   2.248   2.588   1.267
 5014SOL     OW15577   3.126   2.237   1.279
 5014SOL    HW115578   3.159   2.315   1.325
 5014SOL    HW215579   3.036   2.259   1.257
 5015SOL     OW15580   1.935   3.435   1.354
 5015SOL    HW115581   1.907   3.510   1.301
 5015SOL    HW215582   2.031   3.436   1.349
 5016SOL     OW15583   2.204   2.977   0.486
 5016SOL    HW115584   2.201   3.049   0.422
 5016SOL    HW215585   2.211   2.898   0.433
 5017SOL     OW15586   2.404   2.396   0.864
 5017SOL    HW115587   2.418   2.453   0.788
 5017SOL    HW215588   2.472   2.422   0.926
 5018SOL     OW15589   3.110   3.209   0.399
 5018SOL    HW115590   3.166   3.282   0.425
 5018SOL    HW215591   3.023   3.232   0.431
 5019SOL     OW15592   3.147   3.322   1.149
 5019SOL    HW115593   3.204   3.327   1.226
 5019SOL    HW215594   3.092   3.246   1.164
 5020SOL     OW15595   3.440   2.484   0.486
 5020SOL    HW115596   3.391   2.532   0.553
 5020SOL    HW215597   3.467   2.551   0.423
 5021SOL     OW15598   2.207   3.392   1.311
 5021SOL    HW115599   2.196   3.347   1.227
 5021SOL    HW215600   2.302   3.403   1.320
 5022SOL     OW15601   2.279   2.609   1.604
 5022SOL    HW115602   2.341   2.651   1.545
 5022SOL    HW215603   2.324   2.528   1.632
 5023SOL     OW15604   3.467   2.641   1.684
 5023SOL    HW115605   3.382   2.684   1.678
 5023SOL    HW215606   3.520   2.684   1.616
 5024SOL     OW15607   2.857   1.992   1.751
 5024SOL    HW115608   2.917   2.064   1.730
 5024SOL    HW215609   2.905   1.913   1.727
 5025SOL     OW15610   2.373   1.892   1.749
 5025SOL    HW115611   2.324   1.837   1.688
 5025SOL    HW215612   2.318   1.969   1.763
 5026SOL     OW15613   2.447   2.735   1.032
 5026SOL    HW115614   2.480   2.825   1.032
 5026SOL    HW215615   2.390   2.730   1.109
 5027SOL     OW15616   3.214   2.721   1.024
 5027SOL    HW115617   3.130   2.708   0.982
 5027SOL    HW215618   3.259   2.637   1.017
 5028SOL     OW15619   3.082   2.405   0.272
 5028SOL    HW115620   3.086   2.325   0.324
 5028SOL    HW215621   3.025   2.464   0.322
 5029SOL     OW15622   1.908   3.173   1.275
 5029SOL    HW115623   1.941   3.118   1.347
 5029SOL    HW215624   1.914   3.263   1.309
 5030SOL     OW15625   2.581   2.489   1.053
 5030SOL    HW115626   2.659   2.475   1.000
 5030SOL    HW215627   2.555   2.579   1.036
 5031SOL     OW15628   3.592   2.821   1.862
 5031SOL    HW115629   3.552   2.755   1.806
 5031SOL    HW215630   3.528   2.835   1.932
 5032SOL     OW15631   2.224   1.906   0.613
 5032SOL    HW115632   2.145   1.954   0.589
 5032SOL    HW215633   2.208   1.875   0.702
 5033SOL     OW15634   3.484   2.240   0.370
 5033SOL    HW115635   3.507   2.173   0.435
 5033SOL    HW215636   3.459   2.316   0.423
 5034SOL     OW15637   2.889   2.620   0.959
 5034SOL    HW115638   2.883   2.637   1.053
 5034SOL    HW215639   2.863   2.528   0.950
 5035SOL     OW15640   2.848   3.430   1.721
 5035SOL    HW115641   2.828   3.471   1.637
 5035SOL    HW215642   2.889   3.347   1.699
 5036SOL     OW15643   3.704   3.359   1.597
 5036SOL    HW115644   3.729   3.390   1.510
 5036SOL    HW215645   3.784   3.368   1.649
 5037SOL     OW15646   2.215   2.782   1.809
 5037SOL    HW115647   2.297   2.799   1.857
 5037SOL    HW215648   2.240   2.719   1.741
 5038SOL     OW15649   3.414   2.119   0.137
 5038SOL    HW115650   3.352   2.050   0.161
 5038SOL    HW215651   3.435   2.162   0.220
 5039SOL     OW15652   3.151   2.691   0.055
 5039SOL    HW115653   3.199   2.608   0.060
 5039SOL    HW215654   3.169   2.724  13.867
 5040SOL     OW15655   2.929   3.199   0.855
 5040SOL    HW115656   2.934   3.127   0.792
 5040SOL    HW215657   2.989   3.265   0.820
 5041SOL     OW15658   2.172   2.673   0.946
 5041SOL    HW115659   2.264   2.695   0.937
 5041SOL    HW215660   2.171   2.585   0.985
 5042SOL     OW15661   2.183   2.360   1.013
 5042SOL    HW115662   2.142   2.288   0.965
 5042SOL    HW215663   2.263   2.378   0.964
 5043SOL     OW15664   2.996   2.236   1.684
 5043SOL    HW115665   2.948   2.290   1.747
 5043SOL    HW215666   3.083   2.275   1.680
 5044SOL     OW15667   3.021   2.062   1.471
 5044SOL    HW115668   3.011   2.125   1.542
 5044SOL    HW215669   3.064   2.112   1.401
 5045SOL     OW15670   1.884   3.173   0.180
 5045SOL    HW115671   1.802   3.187   0.132
 5045SOL    HW215672   1.874   3.086   0.220
 5046SOL     OW15673   1.959   3.639   0.939
 5046SOL    HW115674   1.928   3.561   0.893
 5046SOL    HW215675   2.044   3.658   0.898
 5047SOL     OW15676   2.355   3.438   0.905
 5047SOL    HW115677   2.422   3.501   0.929
 5047SOL    HW215678   2.400   3.376   0.848
 5048SOL     OW15679   2.839   2.650   1.225
 5048SOL    HW115680   2.900   2.631   1.296
 5048SOL    HW215681   2.755   2.615   1.255
 5049SOL     OW15682   1.900   2.400   1.118
 5049SOL    HW115683   1.984   2.401   1.072
 5049SOL    HW215684   1.922   2.414   1.210
 5050SOL     OW15685   2.059   2.389   1.725
 5050SOL    HW115686   2.120   2.355   1.659
 5050SOL    HW215687   2.015   2.462   1.681
 5051SOL     OW15688   3.242   2.798   1.658
 5051SOL    HW115689   3.263   2.891   1.655
 5051SOL    HW215690   3.238   2.771   1.566
 5052SOL     OW15691   2.676   2.438   0.378
 5052SOL    HW115692   2.686   2.363   0.319
 5052SOL    HW215693   2.605   2.489   0.339
 5053SOL     OW15694   3.502   2.463   1.182
 5053SOL    HW115695   3.491   2.403   1.256
 5053SOL    HW215696   3.588   2.442   1.147
 5054SOL     OW15697   2.103   3.410   1.724
 5054SOL    HW115698   2.081   3.477   1.789
 5054SOL    HW215699   2.108   3.329   1.773
 5055SOL     OW15700   2.565   2.309   1.257
 5055SOL    HW115701   2.512   2.235   1.228
 5055SOL    HW215702   2.560   2.372   1.185
 5056SOL     OW15703   2.788   3.533   1.470
 5056SOL    HW115704   2.762   3.494   1.386
 5056SOL    HW215705   2.780   3.628   1.456
 5057SOL     OW15706   2.301   2.361   0.226
 5057SOL    HW115707   2.366   2.430   0.238
 5057SOL    HW215708   2.226   2.405   0.188
 5058SOL     OW15709   2.006   3.005   1.474
 5058SOL    HW115710   2.006   2.955   1.556
 5058SOL    HW215711   2.023   2.939   1.406
 5059SOL     OW15712   3.183   2.906   1.221
 5059SOL    HW115713   3.206   2.843   1.153
 5059SOL    HW215714   3.116   2.961   1.181
 5060SOL     OW15715   3.178   2.720   0.327
 5060SOL    HW115716   3.104   2.686   0.378
 5060SOL    HW215717   3.152   2.704   0.236
 5061SOL     OW15718   3.640   3.601   1.156
 5061SOL    HW115719   3.698   3.628   1.084
 5061SOL    HW215720   3.612   3.513   1.132
 5062SOL     OW15721   3.106   3.595   1.108
 5062SOL    HW115722   3.189   3.617   1.066
 5062SOL    HW215723   3.113   3.502   1.128
 5063SOL     OW15724   1.949   3.126   1.012
 5063SOL    HW115725   1.933   3.142   1.105
 5063SOL    HW215726   1.874   3.074   0.983
 5064SOL     OW15727   2.541   3.527   1.734
 5064SOL    HW115728   2.484   3.604   1.738
 5064SOL    HW215729   2.602   3.547   1.663
 5065SOL     OW15730   2.792   1.973   0.128
 5065SOL    HW115731   2.824   1.961   0.038
 5065SOL    HW215732   2.841   1.910   0.180
 5066SOL     OW15733   3.567   2.012   0.514
 5066SOL    HW115734   3.646   2.004   0.460
 5066SOL    HW215735   3.558   1.926   0.556
 5067SOL     OW15736   3.252   3.434   0.487
 5067SOL    HW115737   3.314   3.469   0.424
 5067SOL    HW215738   3.204   3.511   0.519
 5068SOL     OW15739   1.997   3.651   1.838
 5068SOL    HW115740   1.945   3.587   1.887
 5068SOL    HW215741   2.046   3.699   1.906
 5069SOL     OW15742   3.138   2.788   0.671
 5069SOL    HW115743   3.213   2.728   0.681
 5069SOL    HW215744   3.172   2.860   0.618
 5070SOL     OW15745   2.671   3.137   1.427
 5070SOL    HW115746   2.643   3.177   1.509
 5070SOL    HW215747   2.601   3.159   1.365
 5071SOL     OW15748   2.542   3.456   0.185
 5071SOL    HW115749   2.524   3.503   0.104
 5071SOL    HW215750   2.486   3.378   0.180
 5072SOL     OW15751   3.480   3.589   1.390
 5072SOL    HW115752   3.536   3.592   1.312
 5072SOL    HW215753   3.468   3.681   1.414
 5073SOL     OW15754   3.700   2.043   0.966
 5073SOL    HW115755   3.731   1.956   0.942
 5073SOL    HW215756   3.614   2.050   0.926
 5074SOL     OW15757   3.085   3.460   0.035
 5074SOL    HW115758   3.073   3.368   0.061
 5074SOL    HW215759   3.038   3.467  13.852
 5075SOL     OW15760   2.686   2.868   1.373
 5075SOL    HW115761   2.730   2.864   1.288
 5075SOL    HW215762   2.683   2.962   1.394
 5076SOL     OW15763   2.785   2.773   0.289
 5076SOL    HW115764   2.854   2.813   0.236
 5076SOL    HW215765   2.829   2.702   0.337
 5077SOL     OW15766   3.348   3.512   0.064
 5077SOL    HW115767   3.255   3.488   0.058
 5077SOL    HW215768   3.381   3.501  13.875
 5078SOL     OW15769   2.231   3.166   1.491
 5078SOL    HW115770   2.217   3.243   1.436
 5078SOL    HW215771   2.153   3.112   1.477
 5079SOL     OW15772   3.462   3.142   1.277
 5079SOL    HW115773   3.531   3.133   1.343
 5079SOL    HW215774   3.405   3.211   1.311
 5080SOL     OW15775   2.919   2.971   0.708
 5080SOL    HW115776   2.848   2.919   0.747
 5080SOL    HW215777   2.983   2.905   0.681
 5081SOL     OW15778   2.883   2.103   0.966
 5081SOL    HW115779   2.880   2.055   0.883
 5081SOL    HW215780   2.880   2.034   1.032
 5082SOL     OW15781   2.468   3.350   0.480
 5082SOL    HW115782   2.513   3.299   0.413
 5082SOL    HW215783   2.399   3.396   0.432
 5083SOL     OW15784   3.587   2.251   1.378
 5083SOL    HW115785   3.659   2.314   1.375
 5083SOL    HW215786   3.615   2.179   1.322
 5084SOL     OW15787   2.133   3.182   0.298
 5084SOL    HW115788   2.050   3.191   0.252
 5084SOL    HW215789   2.120   3.230   0.380
 5085SOL     OW15790   1.975   2.889   1.721
 5085SOL    HW115791   1.898   2.864   1.773
 5085SOL    HW215792   2.049   2.850   1.767
 5086SOL     OW15793   2.536   2.059   1.500
 5086SOL    HW115794   2.619   2.038   1.458
 5086SOL    HW215795   2.560   2.091   1.587
 5087SOL     OW15796   1.866   2.286   0.052
 5087SOL    HW115797   1.860   2.190   0.058
 5087SOL    HW215798   1.933   2.301  13.885
 5088SOL     OW15799   3.287   2.720   1.398
 5088SOL    HW115800   3.238   2.781   1.345
 5088SOL    HW215801   3.376   2.722   1.362
 5089SOL     OW15802   3.048   3.206   0.123
 5089SOL    HW115803   2.954   3.197   0.112
 5089SOL    HW215804   3.063   3.194   0.217
 5090SOL     OW15805   2.482   2.693   1.433
 5090SOL    HW115806   2.538   2.769   1.419
 5090SOL    HW215807   2.543   2.619   1.441
 5091SOL     OW15808   3.347   3.645   0.983
 5091SOL    HW115809   3.371   3.698   0.907
 5091SOL    HW215810   3.431   3.611   1.016
 5092SOL     OW15811   2.579   2.423   1.699
 5092SOL    HW115812   2.621   2.484   1.759
 5092SOL    HW215813   2.600   2.336   1.735
 5093SOL     OW15814   3.335   3.058   1.630
 5093SOL    HW115815   3.325   3.073   1.724
 5093SOL    HW215816   3.428   3.074   1.613
 5094SOL     OW15817   2.236   3.603   1.566
 5094SOL    HW115818   2.152   3.645   1.549
 5094SOL    HW215819   2.213   3.519   1.607
 5095SOL     OW15820   3.526   2.742   1.259
 5095SOL    HW115821   3.525   2.657   1.215
 5095SOL    HW215822   3.519   2.805   1.187
 5096SOL     OW15823   3.081   2.183   0.454
 5096SOL    HW115824   3.144   2.111   0.448
 5096SOL    HW215825   3.108   2.232   0.531
 5097SOL     OW15826   2.445   2.596   0.675
 5097SOL    HW115827   2.487   2.681   0.661
 5097SOL    HW215828   2.381   2.589   0.604
 5098SOL     OW15829   3.620   2.228   1.650
 5098SOL    HW115830   3.603   2.241   1.557
 5098SOL    HW215831   3.549   2.170   1.679
 5099SOL     OW15832   3.619   2.790   1.513
 5099SOL    HW115833   3.609   2.883   1.531
 5099SOL    HW215834   3.594   2.780   1.421
 5100SOL     OW15835   2.771   3.261   0.068
 5100SOL    HW115836   2.703   3.245   0.134
 5100SOL    HW215837   2.723   3.262  13.885
 5101SOL     OW15838   2.523   3.650   0.938
 5101SOL    HW115839   2.502   3.741   0.918
 5101SOL    HW215840   2.619   3.645   0.933
 5102SOL     OW15841   2.730   2.831   0.854
 5102SOL    HW115842   2.781   2.759   0.893
 5102SOL    HW215843   2.694   2.877   0.929
 5103SOL     OW15844   2.959   2.874   0.110
 5103SOL    HW115845   2.950   2.921   0.027
 5103SOL    HW215846   3.033   2.815   0.097
 5104SOL     OW15847   3.712   3.415   0.840
 5104SOL    HW115848   3.632   3.399   0.789
 5104SOL    HW215849   3.710   3.349   0.909
 5105SOL     OW15850   2.088   3.162   1.855
 5105SOL    HW115851   2.023   3.100   1.824
 5105SOL    HW215852   2.067   3.175   1.948
 5106SOL     OW15853   1.947   3.090   0.667
 5106SOL    HW115854   1.957   3.043   0.750
 5106SOL    HW215855   2.018   3.057   0.612
 5107SOL     OW15856   2.546   3.267   1.630
 5107SOL    HW115857   2.466   3.225   1.662
 5107SOL    HW215858   2.543   3.355   1.668
 5108SOL     OW15859   3.673   2.039   1.237
 5108SOL    HW115860   3.666   1.944   1.240
 5108SOL    HW215861   3.689   2.060   1.145
 5109SOL     OW15862   2.291   2.291   0.533
 5109SOL    HW115863   2.326   2.235   0.464
 5109SOL    HW215864   2.250   2.231   0.594
 5110SOL     OW15865   3.557   3.351   1.094
 5110SOL    HW115866   3.479   3.328   1.045
 5110SOL    HW215867   3.568   3.280   1.158
 5111SOL     OW15868   2.195   2.417   1.290
 5111SOL    HW115869   2.239   2.354   1.348
 5111SOL    HW215870   2.210   2.382   1.202
 5112SOL     OW15871   2.692   3.441   0.677
 5112SOL    HW115872   2.673   3.497   0.601
 5112SOL    HW215873   2.617   3.381   0.681
 5113SOL     OW15874   3.292   2.090   1.116
 5113SOL    HW115875   3.312   2.007   1.158
 5113SOL    HW215876   3.241   2.139   1.182
 5114SOL     OW15877   2.870   1.878   1.138
 5114SOL    HW115878   2.817   1.811   1.095
 5114SOL    HW215879   2.958   1.841   1.141
 5115SOL     OW15880   2.638   3.185   0.320
 5115SOL    HW115881   2.609   3.096   0.338
 5115SOL    HW215882   2.720   3.194   0.369
 5116SOL     OW15883   2.482   3.415   1.285
 5116SOL    HW115884   2.482   3.496   1.335
 5116SOL    HW215885   2.570   3.409   1.248
 5117SOL     OW15886   3.211   1.927   0.165
 5117SOL    HW115887   3.247   1.864   0.103
 5117SOL    HW215888   3.128   1.889   0.193
 5118SOL     OW15889   3.156   2.324   0.678
 5118SOL    HW115890   3.104   2.405   0.685
 5118SOL    HW215891   3.153   2.286   0.766
 5119SOL     OW15892   3.443   2.059   0.879
 5119SOL    HW115893   3.388   2.084   0.953
 5119SOL    HW215894   3.445   2.137   0.823
 5120SOL     OW15895   1.901   2.929   0.311
 5120SOL    HW115896   1.997   2.925   0.308
 5120SOL    HW215897   1.874   2.840   0.328
 5121SOL     OW15898   2.758   3.521   0.345
 5121SOL    HW115899   2.684   3.492   0.291
 5121SOL    HW215900   2.725   3.596   0.394
 5122SOL     OW15901   2.093   2.494   1.984
 5122SOL    HW115902   2.009   2.464   2.020
 5122SOL    HW215903   2.091   2.467   1.893
 5123SOL     OW15904   1.869   2.290   2.491
 5123SOL    HW115905   1.779   2.284   2.523
 5123SOL    HW215906   1.881   2.212   2.436
 5124SOL     OW15907   2.429   3.155   3.041
 5124SOL    HW115908   2.343   3.161   3.001
 5124SOL    HW215909   2.446   3.243   3.075
 5125SOL     OW15910   3.426   3.374   2.571
 5125SOL    HW115911   3.384   3.351   2.654
 5125SOL    HW215912   3.355   3.378   2.508
 5126SOL     OW15913   2.992   2.561   2.559
 5126SOL    HW115914   3.042   2.642   2.546
 5126SOL    HW215915   2.946   2.574   2.642
 5127SOL     OW15916   3.630   2.467   2.091
 5127SOL    HW115917   3.609   2.459   1.998
 5127SOL    HW215918   3.595   2.387   2.130
 5128SOL     OW15919   2.611   3.001   2.906
 5128SOL    HW115920   2.544   3.038   2.964
 5128SOL    HW215921   2.650   3.077   2.863
 5129SOL     OW15922   2.733   2.628   3.685
 5129SOL    HW115923   2.720   2.698   3.749
 5129SOL    HW215924   2.756   2.674   3.604
 5130SOL     OW15925   2.547   2.859   2.507
 5130SOL    HW115926   2.613   2.852   2.576
 5130SOL    HW215927   2.479   2.914   2.545
 5131SOL     OW15928   2.575   3.012   3.678
 5131SOL    HW115929   2.622   3.090   3.707
 5131SOL    HW215930   2.494   3.046   3.640
 5132SOL     OW15931   2.193   3.282   2.929
 5132SOL    HW115932   2.119   3.245   2.881
 5132SOL    HW215933   2.239   3.335   2.863
 5133SOL     OW15934   3.320   3.363   3.220
 5133SOL    HW115935   3.375   3.442   3.230
 5133SOL    HW215936   3.254   3.372   3.288
 5134SOL     OW15937   2.284   2.229   3.332
 5134SOL    HW115938   2.371   2.193   3.348
 5134SOL    HW215939   2.225   2.154   3.344
 5135SOL     OW15940   3.471   2.307   2.606
 5135SOL    HW115941   3.399   2.328   2.547
 5135SOL    HW215942   3.481   2.385   2.661
 5136SOL     OW15943   2.083   3.578   2.341
 5136SOL    HW115944   2.113   3.637   2.409
 5136SOL    HW215945   2.156   3.575   2.278
 5137SOL     OW15946   2.999   3.204   3.556
 5137SOL    HW115947   3.040   3.197   3.642
 5137SOL    HW215948   2.947   3.124   3.548
 5138SOL     OW15949   2.092   3.304   2.398
 5138SOL    HW115950   2.074   3.398   2.402
 5138SOL    HW215951   2.034   3.265   2.463
 5139SOL     OW15952   2.125   2.954   2.754
 5139SOL    HW115953   2.120   2.867   2.793
 5139SOL    HW215954   2.067   3.008   2.807
 5140SOL     OW15955   2.469   3.648   3.290
 5140SOL    HW115956   2.387   3.633   3.338
 5140SOL    HW215957   2.495   3.736   3.314
 5141SOL     OW15958   2.444   2.845   1.999
 5141SOL    HW115959   2.492   2.892   1.930
 5141SOL    HW215960   2.482   2.877   2.080
 5142SOL     OW15961   3.456   1.988   3.327
 5142SOL    HW115962   3.474   2.070   3.280
 5142SOL    HW215963   3.441   2.016   3.417
 5143SOL     OW15964   1.987   2.528   2.422
 5143SOL    HW115965   1.951   2.441   2.443
 5143SOL    HW215966   1.976   2.578   2.503
 5144SOL     OW15967   3.700   3.612   2.204
 5144SOL    HW115968   3.771   3.587   2.262
 5144SOL    HW215969   3.719   3.703   2.181
 5145SOL     OW15970   1.893   3.452   1.983
 5145SOL    HW115971   1.877   3.360   2.004
 5145SOL    HW215972   1.872   3.499   2.064
 5146SOL     OW15973   3.551   2.782   2.510
 5146SOL    HW115974   3.634   2.738   2.491
 5146SOL    HW215975   3.531   2.831   2.430
 5147SOL     OW15976   3.504   2.966   2.293
 5147SOL    HW115977   3.589   2.970   2.250
 5147SOL    HW215978   3.510   3.029   2.365
 5148SOL     OW15979   1.984   2.610   3.443
 5148SOL    HW115980   2.074   2.640   3.451
 5148SOL    HW215981   1.931   2.689   3.452
 5149SOL     OW15982   2.478   3.252   2.596
 5149SOL    HW115983   2.433   3.168   2.606
 5149SOL    HW215984   2.461   3.279   2.506
 5150SOL     OW15985   3.148   3.098   3.284
 5150SOL    HW115986   3.181   3.031   3.224
 5150SOL    HW215987   3.208   3.094   3.359
 5151SOL     OW15988   2.704   1.864   2.380
 5151SOL    HW115989   2.744   1.947   2.355
 5151SOL    HW215990   2.610   1.881   2.374
 5152SOL     OW15991   2.051   2.827   3.138
 5152SOL    HW115992   2.136   2.785   3.122
 5152SOL    HW215993   1.989   2.774   3.087
 5153SOL     OW15994   3.389   2.859   2.063
 5153SOL    HW115995   3.320   2.802   2.096
 5153SOL    HW215996   3.432   2.894   2.141
 5154SOL     OW15997   3.083   3.667   3.490
 5154SOL    HW115998   3.056   3.727   3.420
 5154SOL    HW215999   3.083   3.581   3.448
 5155SOL     OW16000   3.327   3.282   2.810
 5155SOL    HW116001   3.261   3.297   2.878
 5155SOL    HW216002   3.316   3.190   2.785
 5156SOL     OW16003   3.508   3.607   2.442
 5156SOL    HW116004   3.500   3.572   2.354
 5156SOL    HW216005   3.492   3.532   2.499
 5157SOL     OW16006   2.459   2.585   2.133
 5157SOL    HW116007   2.461   2.667   2.084
 5157SOL    HW216008   2.393   2.599   2.201
 5158SOL     OW16009   3.139   2.222   2.796
 5158SOL    HW116010   3.051   2.187   2.804
 5158SOL    HW216011   3.192   2.168   2.854
 5159SOL     OW16012   3.435   3.539   2.170
 5159SOL    HW116013   3.528   3.562   2.166
 5159SOL    HW216014   3.411   3.519   2.080
 5160SOL     OW16015   2.654   2.480   3.309
 5160SOL    HW116016   2.630   2.455   3.398
 5160SOL    HW216017   2.616   2.411   3.254
 5161SOL     OW16018   3.255   2.335   3.540
 5161SOL    HW116019   3.259   2.380   3.625
 5161SOL    HW216020   3.313   2.260   3.550
 5162SOL     OW16021   2.813   2.748   3.446
 5162SOL    HW116022   2.869   2.679   3.409
 5162SOL    HW216023   2.766   2.784   3.372
 5163SOL     OW16024   2.855   2.274   3.098
 5163SOL    HW116025   2.768   2.292   3.131
 5163SOL    HW216026   2.840   2.230   3.014
 5164SOL     OW16027   2.915   2.560   2.287
 5164SOL    HW116028   2.932   2.554   2.381
 5164SOL    HW216029   2.831   2.515   2.275
 5165SOL     OW16030   1.951   2.687   2.641
 5165SOL    HW116031   2.031   2.681   2.692
 5165SOL    HW216032   1.906   2.764   2.675
 5166SOL     OW16033   1.981   3.712   3.439
 5166SOL    HW116034   1.986   3.691   3.533
 5166SOL    HW216035   1.889   3.702   3.417
 5167SOL     OW16036   2.760   2.214   2.058
 5167SOL    HW116037   2.800   2.275   1.997
 5167SOL    HW216038   2.766   2.129   2.014
 5168SOL     OW16039   3.570   2.435   3.691
 5168SOL    HW116040   3.533   2.508   3.642
 5168SOL    HW216041   3.595   2.371   3.624
 5169SOL     OW16042   3.239   3.003   2.402
 5169SOL    HW116043   3.319   2.991   2.351
 5169SOL    HW216044   3.187   3.066   2.351
 5170SOL     OW16045   2.411   2.050   2.759
 5170SOL    HW116046   2.411   2.075   2.851
 5170SOL    HW216047   2.428   2.132   2.712
 5171SOL     OW16048   2.864   3.307   2.332
 5171SOL    HW116049   2.829   3.381   2.283
 5171SOL    HW216050   2.843   3.326   2.423
 5172SOL     OW16051   2.213   3.674   2.700
 5172SOL    HW116052   2.263   3.594   2.719
 5172SOL    HW216053   2.272   3.745   2.724
 5173SOL     OW16054   3.668   2.922   2.730
 5173SOL    HW116055   3.615   2.896   2.655
 5173SOL    HW216056   3.606   2.926   2.803
 5174SOL     OW16057   3.089   3.399   3.374
 5174SOL    HW116058   3.076   3.327   3.435
 5174SOL    HW216059   3.021   3.387   3.308
 5175SOL     OW16060   2.178   2.819   2.115
 5175SOL    HW116061   2.259   2.838   2.068
 5175SOL    HW216062   2.146   2.737   2.077
 5176SOL     OW16063   3.342   2.609   2.586
 5176SOL    HW116064   3.337   2.568   2.673
 5176SOL    HW216065   3.420   2.664   2.591
 5177SOL     OW16066   2.331   3.128   3.599
 5177SOL    HW116067   2.304   3.133   3.507
 5177SOL    HW216068   2.248   3.125   3.648
 5178SOL     OW16069   2.976   3.644   2.083
 5178SOL    HW116070   2.911   3.598   2.137
 5178SOL    HW216071   3.007   3.577   2.021
 5179SOL     OW16072   3.486   3.247   1.951
 5179SOL    HW116073   3.443   3.331   1.933
 5179SOL    HW216074   3.420   3.181   1.931
 5180SOL     OW16075   2.328   3.598   2.187
 5180SOL    HW116076   2.367   3.662   2.247
 5180SOL    HW216077   2.401   3.572   2.130
 5181SOL     OW16078   3.263   1.969   2.300
 5181SOL    HW116079   3.256   1.944   2.208
 5181SOL    HW216080   3.357   1.975   2.316
 5182SOL     OW16081   2.122   3.653   3.084
 5182SOL    HW116082   2.169   3.582   3.129
 5182SOL    HW216083   2.107   3.619   2.996
 5183SOL     OW16084   2.800   3.564   2.761
 5183SOL    HW116085   2.877   3.512   2.784
 5183SOL    HW216086   2.757   3.514   2.692
 5184SOL     OW16087   2.259   2.555   2.336
 5184SOL    HW116088   2.275   2.461   2.347
 5184SOL    HW216089   2.165   2.566   2.354
 5185SOL     OW16090   3.394   2.087   3.587
 5185SOL    HW116091   3.404   2.107   3.680
 5185SOL    HW216092   3.326   2.019   3.585
 5186SOL     OW16093   2.513   1.984   1.966
 5186SOL    HW116094   2.571   1.914   1.997
 5186SOL    HW216095   2.464   1.944   1.895
 5187SOL     OW16096   2.625   2.139   3.617
 5187SOL    HW116097   2.705   2.087   3.613
 5187SOL    HW216098   2.582   2.111   3.697
 5188SOL     OW16099   2.738   3.383   3.057
 5188SOL    HW116100   2.721   3.346   2.970
 5188SOL    HW216101   2.808   3.328   3.092
 5189SOL     OW16102   3.201   2.451   3.295
 5189SOL    HW116103   3.233   2.420   3.380
 5189SOL    HW216104   3.238   2.539   3.287
 5190SOL     OW16105   2.679   3.253   2.806
 5190SOL    HW116106   2.764   3.241   2.762
 5190SOL    HW216107   2.616   3.258   2.734
 5191SOL     OW16108   2.790   2.370   2.764
 5191SOL    HW116109   2.765   2.362   2.671
 5191SOL    HW216110   2.822   2.283   2.787
 5192SOL     OW16111   2.448   1.925   2.334
 5192SOL    HW116112   2.374   1.916   2.394
 5192SOL    HW216113   2.429   2.005   2.286
 5193SOL     OW16114   3.290   3.062   1.902
 5193SOL    HW116115   3.320   2.987   1.952
 5193SOL    HW216116   3.204   3.083   1.939
 5194SOL     OW16117   2.808   2.114   2.318
 5194SOL    HW116118   2.781   2.152   2.235
 5194SOL    HW216119   2.902   2.130   2.323
 5195SOL     OW16120   2.943   2.545   3.320
 5195SOL    HW116121   2.878   2.476   3.325
 5195SOL    HW216122   3.027   2.499   3.315
 5196SOL     OW16123   3.082   3.433   2.656
 5196SOL    HW116124   3.098   3.500   2.590
 5196SOL    HW216125   3.152   3.445   2.720
 5197SOL     OW16126   2.334   3.014   2.591
 5197SOL    HW116127   2.266   2.995   2.656
 5197SOL    HW216128   2.291   3.000   2.506
 5198SOL     OW16129   3.127   3.656   2.471
 5198SOL    HW116130   3.174   3.721   2.419
 5198SOL    HW216131   3.054   3.704   2.509
 5199SOL     OW16132   2.885   2.399   1.887
 5199SOL    HW116133   2.841   2.482   1.868
 5199SOL    HW216134   2.950   2.421   1.953
 5200SOL     OW16135   1.940   2.424   3.248
 5200SOL    HW116136   2.034   2.421   3.227
 5200SOL    HW216137   1.934   2.490   3.317
 5201SOL     OW16138   2.416   2.082   3.035
 5201SOL    HW116139   2.469   2.006   3.060
 5201SOL    HW216140   2.333   2.069   3.080
 5202SOL     OW16141   2.725   2.318   2.501
 5202SOL    HW116142   2.685   2.375   2.435
 5202SOL    HW216143   2.751   2.240   2.453
 5203SOL     OW16144   2.875   1.916   2.612
 5203SOL    HW116145   2.820   1.905   2.535
 5203SOL    HW216146   2.854   1.840   2.667
 5204SOL     OW16147   3.302   3.023   2.719
 5204SOL    HW116148   3.231   2.959   2.718
 5204SOL    HW216149   3.327   3.032   2.627
 5205SOL     OW16150   3.327   2.471   2.834
 5205SOL    HW116151   3.274   2.392   2.836
 5205SOL    HW216152   3.385   2.463   2.909
 5206SOL     OW16153   3.723   2.678   2.237
 5206SOL    HW116154   3.767   2.622   2.301
 5206SOL    HW216155   3.686   2.616   2.173
 5207SOL     OW16156   2.352   3.281   2.014
 5207SOL    HW116157   2.276   3.254   2.067
 5207SOL    HW216158   2.341   3.236   1.931
 5208SOL     OW16159   3.530   3.127   2.505
 5208SOL    HW116160   3.625   3.129   2.515
 5208SOL    HW216161   3.502   3.216   2.526
 5209SOL     OW16162   3.256   2.434   1.933
 5209SOL    HW116163   3.194   2.414   2.003
 5209SOL    HW216164   3.340   2.403   1.966
 5210SOL     OW16165   2.385   2.130   2.169
 5210SOL    HW116166   2.431   2.082   2.100
 5210SOL    HW216167   2.361   2.213   2.128
 5211SOL     OW16168   3.613   3.096   3.426
 5211SOL    HW116169   3.700   3.061   3.409
 5211SOL    HW216170   3.628   3.186   3.455
 5212SOL     OW16171   2.918   3.214   3.194
 5212SOL    HW116172   2.843   3.183   3.245
 5212SOL    HW216173   2.994   3.173   3.235
 5213SOL     OW16174   3.469   3.492   3.519
 5213SOL    HW116175   3.459   3.525   3.430
 5213SOL    HW216176   3.549   3.439   3.517
 5214SOL     OW16177   2.994   3.069   2.965
 5214SOL    HW116178   2.935   3.107   3.030
 5214SOL    HW216179   2.963   3.103   2.881
 5215SOL     OW16180   3.489   2.957   2.936
 5215SOL    HW116181   3.481   3.019   3.009
 5215SOL    HW216182   3.413   2.974   2.881
 5216SOL     OW16183   2.778   1.958   3.254
 5216SOL    HW116184   2.803   1.938   3.164
 5216SOL    HW216185   2.857   1.997   3.292
 5217SOL     OW16186   2.846   2.977   3.585
 5217SOL    HW116187   2.755   2.993   3.608
 5217SOL    HW216188   2.843   2.898   3.530
 5218SOL     OW16189   2.571   2.924   2.233
 5218SOL    HW116190   2.557   2.905   2.325
 5218SOL    HW216191   2.647   2.870   2.209
 5219SOL     OW16192   2.281   2.676   3.113
 5219SOL    HW116193   2.349   2.688   3.180
 5219SOL    HW216194   2.247   2.588   3.129
 5220SOL     OW16195   3.126   2.237   3.141
 5220SOL    HW116196   3.159   2.315   3.187
 5220SOL    HW216197   3.036   2.259   3.119
 5221SOL     OW16198   1.935   3.435   3.216
 5221SOL    HW116199   1.908   3.510   3.164
 5221SOL    HW216200   2.031   3.436   3.211
 5222SOL     OW16201   2.205   2.976   2.351
 5222SOL    HW116202   2.209   3.050   2.290
 5222SOL    HW216203   2.202   2.898   2.295
 5223SOL     OW16204   2.405   2.396   2.725
 5223SOL    HW116205   2.418   2.454   2.650
 5223SOL    HW216206   2.473   2.422   2.787
 5224SOL     OW16207   3.109   3.211   2.251
 5224SOL    HW116208   3.165   3.282   2.283
 5224SOL    HW216209   3.022   3.233   2.285
 5225SOL     OW16210   3.148   3.322   3.010
 5225SOL    HW116211   3.204   3.326   3.088
 5225SOL    HW216212   3.093   3.245   3.025
 5226SOL     OW16213   3.439   2.481   2.345
 5226SOL    HW116214   3.391   2.533   2.410
 5226SOL    HW216215   3.481   2.546   2.289
 5227SOL     OW16216   2.207   3.392   3.173
 5227SOL    HW116217   2.196   3.347   3.089
 5227SOL    HW216218   2.302   3.403   3.182
 5228SOL     OW16219   2.280   2.609   3.466
 5228SOL    HW116220   2.341   2.651   3.406
 5228SOL    HW216221   2.324   2.529   3.494
 5229SOL     OW16222   3.467   2.641   3.546
 5229SOL    HW116223   3.382   2.684   3.540
 5229SOL    HW216224   3.520   2.684   3.478
 5230SOL     OW16225   2.857   1.992   3.613
 5230SOL    HW116226   2.917   2.064   3.592
 5230SOL    HW216227   2.905   1.913   3.589
 5231SOL     OW16228   2.372   1.893   3.612
 5231SOL    HW116229   2.323   1.838   3.550
 5231SOL    HW216230   2.315   1.968   3.627
 5232SOL     OW16231   2.448   2.735   2.895
 5232SOL    HW116232   2.480   2.825   2.894
 5232SOL    HW216233   2.390   2.730   2.971
 5233SOL     OW16234   3.214   2.721   2.886
 5233SOL    HW116235   3.129   2.707   2.844
 5233SOL    HW216236   3.259   2.637   2.879
 5234SOL     OW16237   3.063   2.390   2.125
 5234SOL    HW116238   3.072   2.312   2.180
 5234SOL    HW216239   3.021   2.454   2.182
 5235SOL     OW16240   1.908   3.173   3.137
 5235SOL    HW116241   1.940   3.118   3.208
 5235SOL    HW216242   1.914   3.262   3.171
 5236SOL     OW16243   2.581   2.488   2.916
 5236SOL    HW116244   2.659   2.475   2.862
 5236SOL    HW216245   2.555   2.579   2.899
 5237SOL     OW16246   3.592   2.821   3.724
 5237SOL    HW116247   3.552   2.755   3.668
 5237SOL    HW216248   3.528   2.835   3.794
 5238SOL     OW16249   2.224   1.901   2.471
 5238SOL    HW116250   2.147   1.954   2.451
 5238SOL    HW216251   2.210   1.873   2.562
 5239SOL     OW16252   3.482   2.239   2.225
 5239SOL    HW116253   3.509   2.174   2.290
 5239SOL    HW216254   3.459   2.316   2.277
 5240SOL     OW16255   2.890   2.620   2.821
 5240SOL    HW116256   2.883   2.637   2.915
 5240SOL    HW216257   2.864   2.528   2.811
 5241SOL     OW16258   2.848   3.430   3.583
 5241SOL    HW116259   2.828   3.471   3.499
 5241SOL    HW216260   2.889   3.347   3.561
 5242SOL     OW16261   3.704   3.359   3.459
 5242SOL    HW116262   3.729   3.389   3.372
 5242SOL    HW216263   3.784   3.368   3.511
 5243SOL     OW16264   2.215   2.782   3.671
 5243SOL    HW116265   2.297   2.799   3.719
 5243SOL    HW216266   2.240   2.719   3.603
 5244SOL     OW16267   3.390   2.134   1.989
 5244SOL    HW116268   3.326   2.069   2.016
 5244SOL    HW216269   3.424   2.170   2.071
 5245SOL     OW16270   3.150   2.686   1.891
 5245SOL    HW116271   3.194   2.601   1.895
 5245SOL    HW216272   3.183   2.726   1.810
 5246SOL     OW16273   2.929   3.199   2.717
 5246SOL    HW116274   2.934   3.127   2.655
 5246SOL    HW216275   2.989   3.265   2.682
 5247SOL     OW16276   2.172   2.673   2.808
 5247SOL    HW116277   2.264   2.695   2.798
 5247SOL    HW216278   2.172   2.585   2.847
 5248SOL     OW16279   2.184   2.360   2.874
 5248SOL    HW116280   2.141   2.290   2.826
 5248SOL    HW216281   2.264   2.379   2.826
 5249SOL     OW16282   2.996   2.236   3.546
 5249SOL    HW116283   2.948   2.290   3.609
 5249SOL    HW216284   3.083   2.275   3.542
 5250SOL     OW16285   3.021   2.062   3.332
 5250SOL    HW116286   3.011   2.125   3.404
 5250SOL    HW216287   3.064   2.112   3.263
 5251SOL     OW16288   1.868   3.180   2.057
 5251SOL    HW116289   1.781   3.195   2.020
 5251SOL    HW216290   1.864   3.091   2.091
 5252SOL     OW16291   1.959   3.639   2.800
 5252SOL    HW116292   1.928   3.561   2.755
 5252SOL    HW216293   2.044   3.658   2.760
 5253SOL     OW16294   2.355   3.438   2.767
 5253SOL    HW116295   2.422   3.501   2.791
 5253SOL    HW216296   2.400   3.375   2.710
 5254SOL     OW16297   2.839   2.650   3.087
 5254SOL    HW116298   2.899   2.631   3.158
 5254SOL    HW216299   2.755   2.615   3.116
 5255SOL     OW16300   1.900   2.399   2.980
 5255SOL    HW116301   1.984   2.402   2.934
 5255SOL    HW216302   1.922   2.414   3.072
 5256SOL     OW16303   2.061   2.391   3.586
 5256SOL    HW116304   2.122   2.357   3.520
 5256SOL    HW216305   2.017   2.464   3.542
 5257SOL     OW16306   3.242   2.798   3.520
 5257SOL    HW116307   3.263   2.891   3.517
 5257SOL    HW216308   3.238   2.771   3.428
 5258SOL     OW16309   2.678   2.432   2.228
 5258SOL    HW116310   2.684   2.358   2.167
 5258SOL    HW216311   2.605   2.484   2.196
 5259SOL     OW16312   3.502   2.463   3.044
 5259SOL    HW116313   3.491   2.403   3.118
 5259SOL    HW216314   3.588   2.443   3.009
 5260SOL     OW16315   2.103   3.410   3.586
 5260SOL    HW116316   2.081   3.477   3.651
 5260SOL    HW216317   2.108   3.329   3.635
 5261SOL     OW16318   2.565   2.309   3.119
 5261SOL    HW116319   2.511   2.235   3.089
 5261SOL    HW216320   2.560   2.372   3.047
 5262SOL     OW16321   2.788   3.533   3.332
 5262SOL    HW116322   2.762   3.494   3.248
 5262SOL    HW216323   2.780   3.628   3.318
 5263SOL     OW16324   2.324   2.361   2.051
 5263SOL    HW116325   2.382   2.434   2.073
 5263SOL    HW216326   2.240   2.402   2.032
 5264SOL     OW16327   2.006   3.005   3.336
 5264SOL    HW116328   2.007   2.955   3.418
 5264SOL    HW216329   2.023   2.939   3.268
 5265SOL     OW16330   3.183   2.906   3.083
 5265SOL    HW116331   3.206   2.843   3.015
 5265SOL    HW216332   3.116   2.961   3.043
 5266SOL     OW16333   3.175   2.718   2.167
 5266SOL    HW116334   3.101   2.687   2.218
 5266SOL    HW216335   3.149   2.704   2.076
 5267SOL     OW16336   3.640   3.601   3.018
 5267SOL    HW116337   3.698   3.628   2.946
 5267SOL    HW216338   3.612   3.513   2.994
 5268SOL     OW16339   3.106   3.595   2.970
 5268SOL    HW116340   3.189   3.617   2.928
 5268SOL    HW216341   3.113   3.502   2.990
 5269SOL     OW16342   1.948   3.128   2.873
 5269SOL    HW116343   1.932   3.142   2.966
 5269SOL    HW216344   1.874   3.073   2.844
 5270SOL     OW16345   2.541   3.527   3.596
 5270SOL    HW116346   2.484   3.604   3.600
 5270SOL    HW216347   2.602   3.547   3.525
 5271SOL     OW16348   3.571   2.013   2.373
 5271SOL    HW116349   3.639   2.001   2.307
 5271SOL    HW216350   3.560   1.927   2.413
 5272SOL     OW16351   3.252   3.430   2.350
 5272SOL    HW116352   3.311   3.464   2.283
 5272SOL    HW216353   3.204   3.507   2.381
 5273SOL     OW16354   1.997   3.651   3.700
 5273SOL    HW116355   1.945   3.587   3.749
 5273SOL    HW216356   2.046   3.699   3.768
 5274SOL     OW16357   3.139   2.788   2.533
 5274SOL    HW116358   3.213   2.729   2.542
 5274SOL    HW216359   3.173   2.861   2.480
 5275SOL     OW16360   2.670   3.137   3.289
 5275SOL    HW116361   2.643   3.177   3.371
 5275SOL    HW216362   2.601   3.159   3.227
 5276SOL     OW16363   2.536   3.480   2.020
 5276SOL    HW116364   2.546   3.498   1.927
 5276SOL    HW216365   2.477   3.405   2.024
 5277SOL     OW16366   3.480   3.589   3.252
 5277SOL    HW116367   3.536   3.592   3.174
 5277SOL    HW216368   3.468   3.681   3.276
 5278SOL     OW16369   3.700   2.043   2.828
 5278SOL    HW116370   3.731   1.956   2.804
 5278SOL    HW216371   3.614   2.050   2.788
 5279SOL     OW16372   3.070   3.465   1.898
 5279SOL    HW116373   3.059   3.373   1.922
 5279SOL    HW216374   3.008   3.478   1.826
 5280SOL     OW16375   2.686   2.868   3.235
 5280SOL    HW116376   2.730   2.864   3.150
 5280SOL    HW216377   2.683   2.962   3.256
 5281SOL     OW16378   2.779   2.773   2.153
 5281SOL    HW116379   2.839   2.805   2.086
 5281SOL    HW216380   2.828   2.704   2.198
 5282SOL     OW16381   3.349   3.495   1.905
 5282SOL    HW116382   3.256   3.482   1.888
 5282SOL    HW216383   3.389   3.499   1.817
 5283SOL     OW16384   2.231   3.166   3.353
 5283SOL    HW116385   2.217   3.243   3.298
 5283SOL    HW216386   2.153   3.112   3.339
 5284SOL     OW16387   3.462   3.142   3.139
 5284SOL    HW116388   3.530   3.133   3.205
 5284SOL    HW216389   3.405   3.211   3.173
 5285SOL     OW16390   2.919   2.971   2.571
 5285SOL    HW116391   2.847   2.920   2.608
 5285SOL    HW216392   2.983   2.905   2.543
 5286SOL     OW16393   2.883   2.103   2.828
 5286SOL    HW116394   2.880   2.055   2.745
 5286SOL    HW216395   2.880   2.034   2.895
 5287SOL     OW16396   2.467   3.353   2.341
 5287SOL    HW116397   2.514   3.302   2.275
 5287SOL    HW216398   2.397   3.396   2.293
 5288SOL     OW16399   3.587   2.251   3.240
 5288SOL    HW116400   3.659   2.314   3.237
 5288SOL    HW216401   3.615   2.179   3.184
 5289SOL     OW16402   2.123   3.205   2.152
 5289SOL    HW116403   2.030   3.202   2.129
 5289SOL    HW216404   2.124   3.244   2.240
 5290SOL     OW16405   1.975   2.890   3.583
 5290SOL    HW116406   1.898   2.864   3.635
 5290SOL    HW216407   2.049   2.850   3.629
 5291SOL     OW16408   2.536   2.059   3.362
 5291SOL    HW116409   2.619   2.038   3.320
 5291SOL    HW216410   2.560   2.091   3.449
 5292SOL     OW16411   1.898   2.284   1.929
 5292SOL    HW116412   1.860   2.199   1.904
 5292SOL    HW216413   1.945   2.313   1.851
 5293SOL     OW16414   3.287   2.720   3.260
 5293SOL    HW116415   3.238   2.781   3.207
 5293SOL    HW216416   3.376   2.722   3.224
 5294SOL     OW16417   3.040   3.198   1.979
 5294SOL    HW116418   2.948   3.169   1.981
 5294SOL    HW216419   3.066   3.198   2.071
 5295SOL     OW16420   2.482   2.692   3.295
 5295SOL    HW116421   2.538   2.769   3.281
 5295SOL    HW216422   2.543   2.619   3.303
 5296SOL     OW16423   3.347   3.644   2.845
 5296SOL    HW116424   3.371   3.699   2.770
 5296SOL    HW216425   3.431   3.612   2.878
 5297SOL     OW16426   2.579   2.422   3.561
 5297SOL    HW116427   2.621   2.484   3.621
 5297SOL    HW216428   2.600   2.336   3.597
 5298SOL     OW16429   3.335   3.059   3.492
 5298SOL    HW116430   3.325   3.073   3.586
 5298SOL    HW216431   3.428   3.074   3.475
 5299SOL     OW16432   2.236   3.603   3.428
 5299SOL    HW116433   2.151   3.645   3.411
 5299SOL    HW216434   2.213   3.519   3.469
 5300SOL     OW16435   3.526   2.742   3.121
 5300SOL    HW116436   3.525   2.657   3.077
 5300SOL    HW216437   3.519   2.805   3.049
 5301SOL     OW16438   3.080   2.182   2.319
 5301SOL    HW116439   3.142   2.109   2.312
 5301SOL    HW216440   3.108   2.231   2.395
 5302SOL     OW16441   2.446   2.597   2.537
 5302SOL    HW116442   2.488   2.681   2.522
 5302SOL    HW216443   2.383   2.589   2.465
 5303SOL     OW16444   3.620   2.228   3.512
 5303SOL    HW116445   3.603   2.241   3.419
 5303SOL    HW216446   3.549   2.170   3.541
 5304SOL     OW16447   3.619   2.790   3.375
 5304SOL    HW116448   3.609   2.883   3.393
 5304SOL    HW216449   3.594   2.780   3.283
 5305SOL     OW16450   2.726   3.229   1.902
 5305SOL    HW116451   2.685   3.256   1.984
 5305SOL    HW216452   2.740   3.310   1.854
 5306SOL     OW16453   2.523   3.650   2.800
 5306SOL    HW116454   2.502   3.741   2.780
 5306SOL    HW216455   2.618   3.645   2.796
 5307SOL     OW16456   2.731   2.831   2.716
 5307SOL    HW116457   2.781   2.759   2.754
 5307SOL    HW216458   2.694   2.877   2.792
 5308SOL     OW16459   2.940   2.851   1.951
 5308SOL    HW116460   2.919   2.902   1.873
 5308SOL    HW216461   3.014   2.796   1.924
 5309SOL     OW16462   3.711   3.416   2.702
 5309SOL    HW116463   3.631   3.397   2.653
 5309SOL    HW216464   3.715   3.348   2.769
 5310SOL     OW16465   2.088   3.162   3.717
 5310SOL    HW116466   2.023   3.099   3.686
 5310SOL    HW216467   2.067   3.175   3.810
 5311SOL     OW16468   1.949   3.093   2.527
 5311SOL    HW116469   1.957   3.047   2.611
 5311SOL    HW216470   2.015   3.053   2.471
 5312SOL     OW16471   2.546   3.267   3.492
 5312SOL    HW116472   2.466   3.225   3.524
 5312SOL    HW216473   2.543   3.355   3.530
 5313SOL     OW16474   3.673   2.039   3.100
 5313SOL    HW116475   3.666   1.944   3.102
 5313SOL    HW216476   3.689   2.060   3.008
 5314SOL     OW16477   2.292   2.290   2.384
 5314SOL    HW116478   2.327   2.233   2.316
 5314SOL    HW216479   2.250   2.231   2.446
 5315SOL     OW16480   3.557   3.351   2.958
 5315SOL    HW116481   3.479   3.328   2.908
 5315SOL    HW216482   3.568   3.280   3.021
 5316SOL     OW16483   2.195   2.417   3.151
 5316SOL    HW116484   2.239   2.355   3.209
 5316SOL    HW216485   2.210   2.382   3.063
 5317SOL     OW16486   2.691   3.440   2.538
 5317SOL    HW116487   2.671   3.494   2.461
 5317SOL    HW216488   2.617   3.380   2.545
 5318SOL     OW16489   3.292   2.090   2.979
 5318SOL    HW116490   3.313   2.007   3.021
 5318SOL    HW216491   3.242   2.139   3.044
 5319SOL     OW16492   2.870   1.878   3.000
 5319SOL    HW116493   2.817   1.811   2.958
 5319SOL    HW216494   2.958   1.841   3.003
 5320SOL     OW16495   2.635   3.195   2.182
 5320SOL    HW116496   2.606   3.104   2.188
 5320SOL    HW216497   2.718   3.197   2.230
 5321SOL     OW16498   2.482   3.415   3.147
 5321SOL    HW116499   2.482   3.496   3.197
 5321SOL    HW216500   2.570   3.409   3.110
 5322SOL     OW16501   3.217   1.915   2.030
 5322SOL    HW116502   3.249   1.845   1.972
 5322SOL    HW216503   3.129   1.888   2.054
 5323SOL     OW16504   3.157   2.324   2.541
 5323SOL    HW116505   3.105   2.404   2.547
 5323SOL    HW216506   3.153   2.287   2.629
 5324SOL     OW16507   3.443   2.059   2.741
 5324SOL    HW116508   3.388   2.084   2.815
 5324SOL    HW216509   3.445   2.137   2.685
 5325SOL     OW16510   1.906   2.931   2.169
 5325SOL    HW116511   1.999   2.922   2.150
 5325SOL    HW216512   1.877   2.842   2.192
 5326SOL     OW16513   2.749   3.522   2.204
 5326SOL    HW116514   2.677   3.503   2.144
 5326SOL    HW216515   2.718   3.597   2.255
 5327SOL     OW16516   2.093   2.494   3.847
 5327SOL    HW116517   2.008   2.465   3.881
 5327SOL    HW216518   2.092   2.467   3.755
 5328SOL     OW16519   1.866   2.292   4.349
 5328SOL    HW116520   1.777   2.287   4.383
 5328SOL    HW216521   1.873   2.217   4.290
 5329SOL     OW16522   2.429   3.155   4.903
 5329SOL    HW116523   2.343   3.161   4.863
 5329SOL    HW216524   2.446   3.244   4.937
 5330SOL     OW16525   3.426   3.375   4.433
 5330SOL    HW116526   3.384   3.351   4.516
 5330SOL    HW216527   3.355   3.378   4.370
 5331SOL     OW16528   2.992   2.560   4.421
 5331SOL    HW116529   3.042   2.642   4.408
 5331SOL    HW216530   2.946   2.574   4.504
 5332SOL     OW16531   3.630   2.467   3.953
 5332SOL    HW116532   3.609   2.459   3.860
 5332SOL    HW216533   3.595   2.387   3.992
 5333SOL     OW16534   2.611   3.001   4.768
 5333SOL    HW116535   2.544   3.038   4.826
 5333SOL    HW216536   2.650   3.077   4.725
 5334SOL     OW16537   2.730   2.630   5.546
 5334SOL    HW116538   2.725   2.699   5.612
 5334SOL    HW216539   2.754   2.675   5.465
 5335SOL     OW16540   2.548   2.860   4.369
 5335SOL    HW116541   2.613   2.852   4.438
 5335SOL    HW216542   2.479   2.914   4.408
 5336SOL     OW16543   2.576   3.014   5.537
 5336SOL    HW116544   2.623   3.092   5.568
 5336SOL    HW216545   2.495   3.048   5.501
 5337SOL     OW16546   2.193   3.282   4.791
 5337SOL    HW116547   2.119   3.245   4.743
 5337SOL    HW216548   2.239   3.335   4.725
 5338SOL     OW16549   3.320   3.363   5.082
 5338SOL    HW116550   3.375   3.442   5.092
 5338SOL    HW216551   3.254   3.371   5.150
 5339SOL     OW16552   2.285   2.230   5.195
 5339SOL    HW116553   2.373   2.197   5.211
 5339SOL    HW216554   2.229   2.154   5.203
 5340SOL     OW16555   3.471   2.307   4.468
 5340SOL    HW116556   3.399   2.328   4.409
 5340SOL    HW216557   3.481   2.385   4.523
 5341SOL     OW16558   2.083   3.578   4.203
 5341SOL    HW116559   2.114   3.637   4.272
 5341SOL    HW216560   2.156   3.575   4.140
 5342SOL     OW16561   2.999   3.204   5.418
 5342SOL    HW116562   3.040   3.197   5.504
 5342SOL    HW216563   2.947   3.124   5.410
 5343SOL     OW16564   2.092   3.304   4.260
 5343SOL    HW116565   2.073   3.398   4.264
 5343SOL    HW216566   2.034   3.265   4.325
 5344SOL     OW16567   2.125   2.954   4.616
 5344SOL    HW116568   2.120   2.867   4.655
 5344SOL    HW216569   2.067   3.008   4.669
 5345SOL     OW16570   2.468   3.648   5.152
 5345SOL    HW116571   2.387   3.633   5.200
 5345SOL    HW216572   2.495   3.736   5.176
 5346SOL     OW16573   2.444   2.845   3.861
 5346SOL    HW116574   2.492   2.892   3.792
 5346SOL    HW216575   2.482   2.877   3.942
 5347SOL     OW16576   3.457   1.988   5.189
 5347SOL    HW116577   3.472   2.070   5.142
 5347SOL    HW216578   3.441   2.015   5.280
 5348SOL     OW16579   1.987   2.528   4.284
 5348SOL    HW116580   1.951   2.442   4.304
 5348SOL    HW216581   1.976   2.578   4.365
 5349SOL     OW16582   3.700   3.612   4.066
 5349SOL    HW116583   3.771   3.587   4.124
 5349SOL    HW216584   3.719   3.703   4.043
 5350SOL     OW16585   1.893   3.452   3.845
 5350SOL    HW116586   1.877   3.360   3.866
 5350SOL    HW216587   1.872   3.499   3.926
 5351SOL     OW16588   3.551   2.782   4.372
 5351SOL    HW116589   3.634   2.738   4.353
 5351SOL    HW216590   3.531   2.831   4.292
 5352SOL     OW16591   3.504   2.966   4.155
 5352SOL    HW116592   3.589   2.970   4.112
 5352SOL    HW216593   3.510   3.029   4.227
 5353SOL     OW16594   1.984   2.610   5.305
 5353SOL    HW116595   2.075   2.641   5.312
 5353SOL    HW216596   1.932   2.690   5.313
 5354SOL     OW16597   2.478   3.252   4.458
 5354SOL    HW116598   2.433   3.168   4.468
 5354SOL    HW216599   2.461   3.279   4.368
 5355SOL     OW16600   3.149   3.099   5.146
 5355SOL    HW116601   3.181   3.031   5.086
 5355SOL    HW216602   3.208   3.094   5.221
 5356SOL     OW16603   2.705   1.864   4.242
 5356SOL    HW116604   2.745   1.947   4.217
 5356SOL    HW216605   2.610   1.881   4.236
 5357SOL     OW16606   2.052   2.827   4.999
 5357SOL    HW116607   2.136   2.785   4.984
 5357SOL    HW216608   1.989   2.774   4.949
 5358SOL     OW16609   3.390   2.859   3.925
 5358SOL    HW116610   3.320   2.802   3.958
 5358SOL    HW216611   3.432   2.894   4.003
 5359SOL     OW16612   3.083   3.667   5.351
 5359SOL    HW116613   3.056   3.727   5.282
 5359SOL    HW216614   3.083   3.581   5.310
 5360SOL     OW16615   3.327   3.282   4.672
 5360SOL    HW116616   3.261   3.297   4.740
 5360SOL    HW216617   3.316   3.190   4.647
 5361SOL     OW16618   3.508   3.607   4.304
 5361SOL    HW116619   3.500   3.572   4.216
 5361SOL    HW216620   3.492   3.532   4.361
 5362SOL     OW16621   2.459   2.585   3.995
 5362SOL    HW116622   2.461   2.667   3.946
 5362SOL    HW216623   2.393   2.599   4.063
 5363SOL     OW16624   3.139   2.222   4.657
 5363SOL    HW116625   3.051   2.187   4.666
 5363SOL    HW216626   3.192   2.168   4.716
 5364SOL     OW16627   3.435   3.539   4.032
 5364SOL    HW116628   3.528   3.562   4.028
 5364SOL    HW216629   3.411   3.519   3.942
 5365SOL     OW16630   2.653   2.480   5.171
 5365SOL    HW116631   2.630   2.455   5.260
 5365SOL    HW216632   2.616   2.411   5.116
 5366SOL     OW16633   3.256   2.336   5.402
 5366SOL    HW116634   3.259   2.381   5.486
 5366SOL    HW216635   3.314   2.260   5.413
 5367SOL     OW16636   2.814   2.748   5.308
 5367SOL    HW116637   2.869   2.679   5.271
 5367SOL    HW216638   2.766   2.783   5.233
 5368SOL     OW16639   2.856   2.274   4.960
 5368SOL    HW116640   2.768   2.292   4.994
 5368SOL    HW216641   2.840   2.229   4.877
 5369SOL     OW16642   2.915   2.560   4.149
 5369SOL    HW116643   2.932   2.554   4.243
 5369SOL    HW216644   2.831   2.515   4.137
 5370SOL     OW16645   1.951   2.687   4.503
 5370SOL    HW116646   2.031   2.681   4.554
 5370SOL    HW216647   1.906   2.764   4.537
 5371SOL     OW16648   1.982   3.712   5.301
 5371SOL    HW116649   1.986   3.691   5.395
 5371SOL    HW216650   1.889   3.702   5.279
 5372SOL     OW16651   2.760   2.214   3.920
 5372SOL    HW116652   2.800   2.275   3.859
 5372SOL    HW216653   2.766   2.129   3.876
 5373SOL     OW16654   3.573   2.435   5.553
 5373SOL    HW116655   3.534   2.508   5.505
 5373SOL    HW216656   3.596   2.371   5.486
 5374SOL     OW16657   3.239   3.003   4.264
 5374SOL    HW116658   3.319   2.991   4.213
 5374SOL    HW216659   3.187   3.066   4.213
 5375SOL     OW16660   2.410   2.051   4.621
 5375SOL    HW116661   2.410   2.074   4.713
 5375SOL    HW216662   2.428   2.133   4.575
 5376SOL     OW16663   2.864   3.307   4.194
 5376SOL    HW116664   2.829   3.381   4.145
 5376SOL    HW216665   2.843   3.326   4.285
 5377SOL     OW16666   2.213   3.674   4.562
 5377SOL    HW116667   2.263   3.594   4.581
 5377SOL    HW216668   2.272   3.745   4.586
 5378SOL     OW16669   3.668   2.923   4.592
 5378SOL    HW116670   3.615   2.896   4.517
 5378SOL    HW216671   3.606   2.926   4.665
 5379SOL     OW16672   3.089   3.399   5.236
 5379SOL    HW116673   3.076   3.327   5.297
 5379SOL    HW216674   3.021   3.386   5.170
 5380SOL     OW16675   2.178   2.819   3.977
 5380SOL    HW116676   2.259   2.838   3.930
 5380SOL    HW216677   2.147   2.737   3.940
 5381SOL     OW16678   3.342   2.609   4.448
 5381SOL    HW116679   3.337   2.568   4.535
 5381SOL    HW216680   3.420   2.664   4.453
 5382SOL     OW16681   2.330   3.128   5.461
 5382SOL    HW116682   2.304   3.133   5.370
 5382SOL    HW216683   2.248   3.126   5.510
 5383SOL     OW16684   2.976   3.644   3.945
 5383SOL    HW116685   2.911   3.598   3.999
 5383SOL    HW216686   3.007   3.577   3.883
 5384SOL     OW16687   3.486   3.247   3.813
 5384SOL    HW116688   3.443   3.331   3.795
 5384SOL    HW216689   3.420   3.181   3.793
 5385SOL     OW16690   2.328   3.598   4.049
 5385SOL    HW116691   2.367   3.662   4.109
 5385SOL    HW216692   2.401   3.572   3.992
 5386SOL     OW16693   3.263   1.969   4.162
 5386SOL    HW116694   3.256   1.944   4.070
 5386SOL    HW216695   3.357   1.975   4.178
 5387SOL     OW16696   2.122   3.653   4.946
 5387SOL    HW116697   2.169   3.582   4.991
 5387SOL    HW216698   2.107   3.619   4.858
 5388SOL     OW16699   2.800   3.564   4.623
 5388SOL    HW116700   2.877   3.512   4.646
 5388SOL    HW216701   2.757   3.514   4.554
 5389SOL     OW16702   2.259   2.556   4.198
 5389SOL    HW116703   2.275   2.462   4.209
 5389SOL    HW216704   2.165   2.566   4.215
 5390SOL     OW16705   3.394   2.086   5.449
 5390SOL    HW116706   3.404   2.106   5.542
 5390SOL    HW216707   3.325   2.020   5.446
 5391SOL     OW16708   2.513   1.984   3.828
 5391SOL    HW116709   2.571   1.914   3.859
 5391SOL    HW216710   2.463   1.944   3.757
 5392SOL     OW16711   2.624   2.137   5.477
 5392SOL    HW116712   2.704   2.084   5.475
 5392SOL    HW216713   2.594   2.132   5.568
 5393SOL     OW16714   2.738   3.383   4.919
 5393SOL    HW116715   2.721   3.346   4.832
 5393SOL    HW216716   2.808   3.328   4.955
 5394SOL     OW16717   3.202   2.451   5.157
 5394SOL    HW116718   3.233   2.420   5.242
 5394SOL    HW216719   3.238   2.539   5.149
 5395SOL     OW16720   2.679   3.253   4.668
 5395SOL    HW116721   2.764   3.241   4.624
 5395SOL    HW216722   2.616   3.258   4.596
 5396SOL     OW16723   2.790   2.370   4.626
 5396SOL    HW116724   2.765   2.362   4.533
 5396SOL    HW216725   2.822   2.283   4.649
 5397SOL     OW16726   2.449   1.924   4.196
 5397SOL    HW116727   2.374   1.913   4.255
 5397SOL    HW216728   2.429   2.005   4.147
 5398SOL     OW16729   3.290   3.062   3.764
 5398SOL    HW116730   3.320   2.987   3.814
 5398SOL    HW216731   3.204   3.083   3.801
 5399SOL     OW16732   2.808   2.114   4.180
 5399SOL    HW116733   2.781   2.152   4.097
 5399SOL    HW216734   2.902   2.130   4.185
 5400SOL     OW16735   2.943   2.545   5.182
 5400SOL    HW116736   2.878   2.476   5.189
 5400SOL    HW216737   3.027   2.499   5.177
 5401SOL     OW16738   3.082   3.433   4.518
 5401SOL    HW116739   3.098   3.500   4.452
 5401SOL    HW216740   3.152   3.445   4.582
 5402SOL     OW16741   2.334   3.014   4.453
 5402SOL    HW116742   2.266   2.995   4.518
 5402SOL    HW216743   2.291   3.000   4.368
 5403SOL     OW16744   3.127   3.656   4.333
 5403SOL    HW116745   3.174   3.721   4.281
 5403SOL    HW216746   3.054   3.704   4.371
 5404SOL     OW16747   2.885   2.399   3.749
 5404SOL    HW116748   2.841   2.482   3.730
 5404SOL    HW216749   2.950   2.421   3.816
 5405SOL     OW16750   1.940   2.425   5.110
 5405SOL    HW116751   2.033   2.420   5.089
 5405SOL    HW216752   1.934   2.491   5.179
 5406SOL     OW16753   2.415   2.081   4.897
 5406SOL    HW116754   2.468   2.006   4.923
 5406SOL    HW216755   2.332   2.069   4.944
 5407SOL     OW16756   2.725   2.318   4.363
 5407SOL    HW116757   2.685   2.375   4.297
 5407SOL    HW216758   2.751   2.240   4.315
 5408SOL     OW16759   2.875   1.916   4.474
 5408SOL    HW116760   2.820   1.905   4.397
 5408SOL    HW216761   2.854   1.840   4.529
 5409SOL     OW16762   3.301   3.023   4.581
 5409SOL    HW116763   3.231   2.959   4.581
 5409SOL    HW216764   3.327   3.032   4.489
 5410SOL     OW16765   3.327   2.471   4.695
 5410SOL    HW116766   3.273   2.392   4.698
 5410SOL    HW216767   3.385   2.463   4.771
 5411SOL     OW16768   3.723   2.678   4.099
 5411SOL    HW116769   3.767   2.622   4.163
 5411SOL    HW216770   3.687   2.616   4.035
 5412SOL     OW16771   2.352   3.281   3.876
 5412SOL    HW116772   2.276   3.254   3.928
 5412SOL    HW216773   2.341   3.235   3.793
 5413SOL     OW16774   3.530   3.128   4.366
 5413SOL    HW116775   3.625   3.129   4.377
 5413SOL    HW216776   3.502   3.216   4.388
 5414SOL     OW16777   3.256   2.434   3.795
 5414SOL    HW116778   3.194   2.414   3.865
 5414SOL    HW216779   3.340   2.402   3.829
 5415SOL     OW16780   2.385   2.130   4.031
 5415SOL    HW116781   2.431   2.082   3.962
 5415SOL    HW216782   2.360   2.213   3.990
 5416SOL     OW16783   3.613   3.096   5.288
 5416SOL    HW116784   3.700   3.061   5.271
 5416SOL    HW216785   3.628   3.186   5.317
 5417SOL     OW16786   2.918   3.214   5.056
 5417SOL    HW116787   2.843   3.183   5.107
 5417SOL    HW216788   2.994   3.173   5.097
 5418SOL     OW16789   3.469   3.492   5.381
 5418SOL    HW116790   3.459   3.525   5.292
 5418SOL    HW216791   3.549   3.439   5.379
 5419SOL     OW16792   2.995   3.069   4.827
 5419SOL    HW116793   2.935   3.107   4.892
 5419SOL    HW216794   2.963   3.103   4.743
 5420SOL     OW16795   3.490   2.957   4.798
 5420SOL    HW116796   3.481   3.019   4.871
 5420SOL    HW216797   3.413   2.974   4.743
 5421SOL     OW16798   2.778   1.958   5.116
 5421SOL    HW116799   2.803   1.938   5.026
 5421SOL    HW216800   2.857   1.997   5.155
 5422SOL     OW16801   2.846   2.977   5.446
 5422SOL    HW116802   2.755   2.993   5.470
 5422SOL    HW216803   2.843   2.899   5.391
 5423SOL     OW16804   2.571   2.924   4.095
 5423SOL    HW116805   2.557   2.905   4.187
 5423SOL    HW216806   2.647   2.870   4.071
 5424SOL     OW16807   2.281   2.676   4.975
 5424SOL    HW116808   2.349   2.688   5.042
 5424SOL    HW216809   2.248   2.588   4.991
 5425SOL     OW16810   3.126   2.238   5.003
 5425SOL    HW116811   3.159   2.315   5.048
 5425SOL    HW216812   3.036   2.259   4.981
 5426SOL     OW16813   1.935   3.435   5.078
 5426SOL    HW116814   1.908   3.510   5.026
 5426SOL    HW216815   2.031   3.436   5.073
 5427SOL     OW16816   2.205   2.976   4.213
 5427SOL    HW116817   2.209   3.049   4.152
 5427SOL    HW216818   2.201   2.898   4.157
 5428SOL     OW16819   2.405   2.396   4.587
 5428SOL    HW116820   2.418   2.454   4.512
 5428SOL    HW216821   2.473   2.422   4.649
 5429SOL     OW16822   3.109   3.211   4.113
 5429SOL    HW116823   3.165   3.282   4.145
 5429SOL    HW216824   3.022   3.233   4.147
 5430SOL     OW16825   3.148   3.322   4.872
 5430SOL    HW116826   3.204   3.326   4.950
 5430SOL    HW216827   3.093   3.245   4.886
 5431SOL     OW16828   3.439   2.481   4.207
 5431SOL    HW116829   3.391   2.533   4.272
 5431SOL    HW216830   3.481   2.546   4.151
 5432SOL     OW16831   2.207   3.392   5.035
 5432SOL    HW116832   2.196   3.347   4.951
 5432SOL    HW216833   2.302   3.403   5.044
 5433SOL     OW16834   2.279   2.610   5.329
 5433SOL    HW116835   2.341   2.652   5.269
 5433SOL    HW216836   2.323   2.530   5.357
 5434SOL     OW16837   3.468   2.641   5.408
 5434SOL    HW116838   3.382   2.683   5.403
 5434SOL    HW216839   3.520   2.684   5.340
 5435SOL     OW16840   2.858   1.991   5.473
 5435SOL    HW116841   2.917   2.063   5.454
 5435SOL    HW216842   2.908   1.912   5.450
 5436SOL     OW16843   2.375   1.890   5.470
 5436SOL    HW116844   2.323   1.837   5.410
 5436SOL    HW216845   2.317   1.963   5.493
 5437SOL     OW16846   2.447   2.735   4.757
 5437SOL    HW116847   2.480   2.825   4.757
 5437SOL    HW216848   2.390   2.730   4.834
 5438SOL     OW16849   3.214   2.721   4.748
 5438SOL    HW116850   3.129   2.707   4.706
 5438SOL    HW216851   3.259   2.637   4.741
 5439SOL     OW16852   3.063   2.390   3.987
 5439SOL    HW116853   3.072   2.312   4.042
 5439SOL    HW216854   3.021   2.454   4.044
 5440SOL     OW16855   1.908   3.173   4.999
 5440SOL    HW116856   1.940   3.118   5.070
 5440SOL    HW216857   1.914   3.262   5.033
 5441SOL     OW16858   2.580   2.488   4.777
 5441SOL    HW116859   2.659   2.475   4.724
 5441SOL    HW216860   2.555   2.579   4.760
 5442SOL     OW16861   3.592   2.821   5.587
 5442SOL    HW116862   3.552   2.755   5.530
 5442SOL    HW216863   3.528   2.835   5.656
 5443SOL     OW16864   2.223   1.896   4.329
 5443SOL    HW116865   2.148   1.952   4.309
 5443SOL    HW216866   2.210   1.870   4.421
 5444SOL     OW16867   3.482   2.239   4.087
 5444SOL    HW116868   3.509   2.174   4.152
 5444SOL    HW216869   3.459   2.316   4.139
 5445SOL     OW16870   2.890   2.620   4.683
 5445SOL    HW116871   2.883   2.637   4.777
 5445SOL    HW216872   2.864   2.528   4.674
 5446SOL     OW16873   2.848   3.431   5.445
 5446SOL    HW116874   2.828   3.471   5.361
 5446SOL    HW216875   2.889   3.347   5.423
 5447SOL     OW16876   3.704   3.359   5.321
 5447SOL    HW116877   3.729   3.389   5.234
 5447SOL    HW216878   3.784   3.368   5.373
 5448SOL     OW16879   2.216   2.782   5.537
 5448SOL    HW116880   2.299   2.802   5.580
 5448SOL    HW216881   2.239   2.719   5.468
 5449SOL     OW16882   3.390   2.134   3.851
 5449SOL    HW116883   3.326   2.069   3.878
 5449SOL    HW216884   3.424   2.170   3.933
 5450SOL     OW16885   3.150   2.686   3.753
 5450SOL    HW116886   3.194   2.601   3.757
 5450SOL    HW216887   3.183   2.726   3.672
 5451SOL     OW16888   2.929   3.199   4.579
 5451SOL    HW116889   2.934   3.127   4.517
 5451SOL    HW216890   2.989   3.265   4.544
 5452SOL     OW16891   2.172   2.673   4.670
 5452SOL    HW116892   2.264   2.695   4.660
 5452SOL    HW216893   2.172   2.585   4.708
 5453SOL     OW16894   2.183   2.362   4.735
 5453SOL    HW116895   2.142   2.290   4.687
 5453SOL    HW216896   2.264   2.380   4.687
 5454SOL     OW16897   2.997   2.236   5.407
 5454SOL    HW116898   2.949   2.291   5.469
 5454SOL    HW216899   3.084   2.276   5.403
 5455SOL     OW16900   3.021   2.062   5.194
 5455SOL    HW116901   3.011   2.124   5.266
 5455SOL    HW216902   3.064   2.113   5.125
 5456SOL     OW16903   1.868   3.180   3.919
 5456SOL    HW116904   1.781   3.195   3.882
 5456SOL    HW216905   1.864   3.091   3.953
 5457SOL     OW16906   1.959   3.639   4.662
 5457SOL    HW116907   1.928   3.561   4.617
 5457SOL    HW216908   2.044   3.658   4.622
 5458SOL     OW16909   2.355   3.438   4.629
 5458SOL    HW116910   2.422   3.501   4.653
 5458SOL    HW216911   2.400   3.375   4.572
 5459SOL     OW16912   2.839   2.650   4.949
 5459SOL    HW116913   2.899   2.630   5.020
 5459SOL    HW216914   2.755   2.615   4.978
 5460SOL     OW16915   1.900   2.399   4.842
 5460SOL    HW116916   1.985   2.402   4.796
 5460SOL    HW216917   1.922   2.413   4.934
 5461SOL     OW16918   2.062   2.394   5.450
 5461SOL    HW116919   2.124   2.359   5.386
 5461SOL    HW216920   2.018   2.465   5.404
 5462SOL     OW16921   3.242   2.798   5.382
 5462SOL    HW116922   3.263   2.891   5.378
 5462SOL    HW216923   3.238   2.771   5.290
 5463SOL     OW16924   2.678   2.432   4.090
 5463SOL    HW116925   2.684   2.358   4.029
 5463SOL    HW216926   2.605   2.484   4.058
 5464SOL     OW16927   3.502   2.464   4.906
 5464SOL    HW116928   3.490   2.403   4.980
 5464SOL    HW216929   3.588   2.443   4.871
 5465SOL     OW16930   2.103   3.410   5.448
 5465SOL    HW116931   2.081   3.477   5.513
 5465SOL    HW216932   2.108   3.329   5.497
 5466SOL     OW16933   2.565   2.309   4.981
 5466SOL    HW116934   2.511   2.235   4.952
 5466SOL    HW216935   2.560   2.372   4.909
 5467SOL     OW16936   2.788   3.533   5.194
 5467SOL    HW116937   2.762   3.494   5.110
 5467SOL    HW216938   2.779   3.628   5.180
 5468SOL     OW16939   2.324   2.361   3.912
 5468SOL    HW116940   2.382   2.434   3.935
 5468SOL    HW216941   2.240   2.402   3.894
 5469SOL     OW16942   2.006   3.004   5.198
 5469SOL    HW116943   2.007   2.955   5.280
 5469SOL    HW216944   2.023   2.939   5.130
 5470SOL     OW16945   3.183   2.906   4.945
 5470SOL    HW116946   3.206   2.843   4.877
 5470SOL    HW216947   3.116   2.962   4.905
 5471SOL     OW16948   3.175   2.718   4.029
 5471SOL    HW116949   3.101   2.687   4.080
 5471SOL    HW216950   3.149   2.704   3.938
 5472SOL     OW16951   3.640   3.601   4.880
 5472SOL    HW116952   3.698   3.628   4.808
 5472SOL    HW216953   3.612   3.513   4.856
 5473SOL     OW16954   3.106   3.595   4.832
 5473SOL    HW116955   3.189   3.617   4.790
 5473SOL    HW216956   3.113   3.502   4.852
 5474SOL     OW16957   1.948   3.128   4.735
 5474SOL    HW116958   1.932   3.142   4.828
 5474SOL    HW216959   1.875   3.073   4.706
 5475SOL     OW16960   2.541   3.527   5.458
 5475SOL    HW116961   2.484   3.604   5.462
 5475SOL    HW216962   2.602   3.547   5.387
 5476SOL     OW16963   3.571   2.013   4.235
 5476SOL    HW116964   3.639   2.001   4.169
 5476SOL    HW216965   3.560   1.927   4.275
 5477SOL     OW16966   3.252   3.430   4.212
 5477SOL    HW116967   3.311   3.464   4.145
 5477SOL    HW216968   3.204   3.507   4.243
 5478SOL     OW16969   1.997   3.651   5.563
 5478SOL    HW116970   1.945   3.587   5.612
 5478SOL    HW216971   2.045   3.699   5.630
 5479SOL     OW16972   3.139   2.789   4.395
 5479SOL    HW116973   3.213   2.729   4.404
 5479SOL    HW216974   3.173   2.861   4.342
 5480SOL     OW16975   2.671   3.137   5.150
 5480SOL    HW116976   2.643   3.177   5.233
 5480SOL    HW216977   2.601   3.159   5.089
 5481SOL     OW16978   2.536   3.480   3.882
 5481SOL    HW116979   2.546   3.498   3.789
 5481SOL    HW216980   2.477   3.405   3.886
 5482SOL     OW16981   3.480   3.589   5.114
 5482SOL    HW116982   3.536   3.592   5.036
 5482SOL    HW216983   3.468   3.681   5.138
 5483SOL     OW16984   3.700   2.043   4.691
 5483SOL    HW116985   3.731   1.956   4.666
 5483SOL    HW216986   3.614   2.050   4.650
 5484SOL     OW16987   3.070   3.465   3.760
 5484SOL    HW116988   3.059   3.373   3.784
 5484SOL    HW216989   3.008   3.478   3.688
 5485SOL     OW16990   2.685   2.868   5.097
 5485SOL    HW116991   2.730   2.864   5.013
 5485SOL    HW216992   2.683   2.962   5.118
 5486SOL     OW16993   2.779   2.773   4.015
 5486SOL    HW116994   2.839   2.805   3.948
 5486SOL    HW216995   2.828   2.704   4.060
 5487SOL     OW16996   3.349   3.495   3.767
 5487SOL    HW116997   3.256   3.482   3.750
 5487SOL    HW216998   3.389   3.499   3.679
 5488SOL     OW16999   2.231   3.166   5.215
 5488SOL    HW117000   2.217   3.243   5.160
 5488SOL    HW217001   2.153   3.112   5.201
 5489SOL     OW17002   3.462   3.142   5.001
 5489SOL    HW117003   3.530   3.132   5.068
 5489SOL    HW217004   3.405   3.211   5.035
 5490SOL     OW17005   2.919   2.971   4.433
 5490SOL    HW117006   2.848   2.920   4.470
 5490SOL    HW217007   2.983   2.905   4.405
 5491SOL     OW17008   2.883   2.103   4.690
 5491SOL    HW117009   2.880   2.055   4.606
 5491SOL    HW217010   2.880   2.034   4.756
 5492SOL     OW17011   2.467   3.353   4.203
 5492SOL    HW117012   2.514   3.302   4.137
 5492SOL    HW217013   2.397   3.396   4.155
 5493SOL     OW17014   3.587   2.251   5.102
 5493SOL    HW117015   3.659   2.314   5.099
 5493SOL    HW217016   3.615   2.179   5.046
 5494SOL     OW17017   2.123   3.205   4.014
 5494SOL    HW117018   2.030   3.202   3.991
 5494SOL    HW217019   2.124   3.244   4.102
 5495SOL     OW17020   1.975   2.889   5.445
 5495SOL    HW117021   1.898   2.864   5.497
 5495SOL    HW217022   2.049   2.849   5.492
 5496SOL     OW17023   2.535   2.059   5.223
 5496SOL    HW117024   2.619   2.038   5.183
 5496SOL    HW217025   2.557   2.087   5.312
 5497SOL     OW17026   1.897   2.284   3.785
 5497SOL    HW117027   1.861   2.199   3.759
 5497SOL    HW217028   1.946   2.314   3.709
 5498SOL     OW17029   3.288   2.720   5.122
 5498SOL    HW117030   3.238   2.781   5.069
 5498SOL    HW217031   3.376   2.722   5.085
 5499SOL     OW17032   3.040   3.198   3.841
 5499SOL    HW117033   2.949   3.169   3.843
 5499SOL    HW217034   3.066   3.198   3.933
 5500SOL     OW17035   2.482   2.693   5.157
 5500SOL    HW117036   2.538   2.769   5.143
 5500SOL    HW217037   2.542   2.619   5.165
 5501SOL     OW17038   3.347   3.644   4.707
 5501SOL    HW117039   3.371   3.699   4.632
 5501SOL    HW217040   3.431   3.612   4.740
 5502SOL     OW17041   2.579   2.423   5.424
 5502SOL    HW117042   2.622   2.485   5.483
 5502SOL    HW217043   2.600   2.337   5.459
 5503SOL     OW17044   3.335   3.059   5.354
 5503SOL    HW117045   3.324   3.073   5.448
 5503SOL    HW217046   3.428   3.074   5.337
 5504SOL     OW17047   2.236   3.603   5.290
 5504SOL    HW117048   2.152   3.645   5.274
 5504SOL    HW217049   2.213   3.519   5.331
 5505SOL     OW17050   3.526   2.742   4.983
 5505SOL    HW117051   3.525   2.657   4.940
 5505SOL    HW217052   3.519   2.805   4.911
 5506SOL     OW17053   3.080   2.182   4.180
 5506SOL    HW117054   3.142   2.109   4.174
 5506SOL    HW217055   3.109   2.231   4.257
 5507SOL     OW17056   2.446   2.597   4.398
 5507SOL    HW117057   2.488   2.681   4.384
 5507SOL    HW217058   2.383   2.589   4.327
 5508SOL     OW17059   3.619   2.228   5.374
 5508SOL    HW117060   3.603   2.241   5.281
 5508SOL    HW217061   3.549   2.170   5.403
 5509SOL     OW17062   3.619   2.790   5.237
 5509SOL    HW117063   3.609   2.883   5.255
 5509SOL    HW217064   3.594   2.780   5.145
 5510SOL     OW17065   2.726   3.229   3.764
 5510SOL    HW117066   2.685   3.256   3.846
 5510SOL    HW217067   2.740   3.310   3.716
 5511SOL     OW17068   2.523   3.650   4.662
 5511SOL    HW117069   2.502   3.741   4.642
 5511SOL    HW217070   2.618   3.645   4.658
 5512SOL     OW17071   2.731   2.831   4.578
 5512SOL    HW117072   2.781   2.759   4.616
 5512SOL    HW217073   2.694   2.877   4.654
 5513SOL     OW17074   2.940   2.851   3.813
 5513SOL    HW117075   2.919   2.902   3.735
 5513SOL    HW217076   3.014   2.796   3.786
 5514SOL     OW17077   3.711   3.416   4.564
 5514SOL    HW117078   3.631   3.397   4.515
 5514SOL    HW217079   3.715   3.348   4.631
 5515SOL     OW17080   2.088   3.162   5.579
 5515SOL    HW117081   2.022   3.100   5.547
 5515SOL    HW217082   2.066   3.175   5.671
 5516SOL     OW17083   1.949   3.093   4.389
 5516SOL    HW117084   1.957   3.047   4.473
 5516SOL    HW217085   2.015   3.053   4.333
 5517SOL     OW17086   2.545   3.268   5.354
 5517SOL    HW117087   2.466   3.225   5.386
 5517SOL    HW217088   2.543   3.356   5.392
 5518SOL     OW17089   3.675   2.039   4.962
 5518SOL    HW117090   3.665   1.944   4.964
 5518SOL    HW217091   3.690   2.060   4.870
 5519SOL     OW17092   2.292   2.291   4.245
 5519SOL    HW117093   2.327   2.233   4.177
 5519SOL    HW217094   2.252   2.233   4.309
 5520SOL     OW17095   3.557   3.351   4.820
 5520SOL    HW117096   3.479   3.328   4.770
 5520SOL    HW217097   3.568   3.280   4.883
 5521SOL     OW17098   2.195   2.417   5.013
 5521SOL    HW117099   2.239   2.355   5.072
 5521SOL    HW217100   2.210   2.382   4.926
 5522SOL     OW17101   2.691   3.440   4.400
 5522SOL    HW117102   2.671   3.494   4.323
 5522SOL    HW217103   2.617   3.380   4.407
 5523SOL     OW17104   3.292   2.090   4.841
 5523SOL    HW117105   3.311   2.007   4.883
 5523SOL    HW217106   3.241   2.139   4.906
 5524SOL     OW17107   2.871   1.879   4.862
 5524SOL    HW117108   2.817   1.811   4.821
 5524SOL    HW217109   2.958   1.841   4.865
 5525SOL     OW17110   2.635   3.195   4.044
 5525SOL    HW117111   2.606   3.104   4.050
 5525SOL    HW217112   2.718   3.197   4.092
 5526SOL     OW17113   2.482   3.415   5.009
 5526SOL    HW117114   2.482   3.496   5.059
 5526SOL    HW217115   2.570   3.409   4.972
 5527SOL     OW17116   3.217   1.915   3.892
 5527SOL    HW117117   3.249   1.845   3.834
 5527SOL    HW217118   3.129   1.888   3.916
 5528SOL     OW17119   3.157   2.324   4.403
 5528SOL    HW117120   3.105   2.404   4.409
 5528SOL    HW217121   3.153   2.287   4.491
 5529SOL     OW17122   3.443   2.059   4.603
 5529SOL    HW117123   3.388   2.084   4.677
 5529SOL    HW217124   3.445   2.137   4.547
 5530SOL     OW17125   1.906   2.931   4.031
 5530SOL    HW117126   1.999   2.922   4.012
 5530SOL    HW217127   1.877   2.842   4.054
 5531SOL     OW17128   2.749   3.522   4.066
 5531SOL    HW117129   2.677   3.503   4.006
 5531SOL    HW217130   2.718   3.597   4.117
 5532SOL     OW17131   2.096   2.494   5.711
 5532SOL    HW117132   2.011   2.469   5.748
 5532SOL    HW217133   2.091   2.466   5.619
 5533SOL     OW17134   1.847   2.286   6.212
 5533SOL    HW117135   1.795   2.257   6.287
 5533SOL    HW217136   1.848   2.211   6.152
 5534SOL     OW17137   2.429   3.159   6.768
 5534SOL    HW117138   2.343   3.169   6.726
 5534SOL    HW217139   2.449   3.246   6.803
 5535SOL     OW17140   3.426   3.374   6.295
 5535SOL    HW117141   3.384   3.351   6.378
 5535SOL    HW217142   3.355   3.378   6.232
 5536SOL     OW17143   2.990   2.556   6.294
 5536SOL    HW117144   3.038   2.635   6.269
 5536SOL    HW217145   2.948   2.580   6.377
 5537SOL     OW17146   3.629   2.467   5.815
 5537SOL    HW117147   3.609   2.460   5.722
 5537SOL    HW217148   3.595   2.386   5.854
 5538SOL     OW17149   2.612   3.012   6.635
 5538SOL    HW117150   2.545   3.054   6.690
 5538SOL    HW217151   2.652   3.084   6.587
 5539SOL     OW17152   2.760   2.650   7.426
 5539SOL    HW117153   2.699   2.708   7.472
 5539SOL    HW217154   2.766   2.687   7.338
 5540SOL     OW17155   2.557   2.891   6.225
 5540SOL    HW117156   2.616   2.861   6.294
 5540SOL    HW217157   2.482   2.928   6.273
 5541SOL     OW17158   2.581   3.035   7.377
 5541SOL    HW117159   2.625   3.114   7.409
 5541SOL    HW217160   2.494   3.065   7.352
 5542SOL     OW17161   2.204   3.282   6.656
 5542SOL    HW117162   2.123   3.248   6.619
 5542SOL    HW217163   2.242   3.337   6.587
 5543SOL     OW17164   3.320   3.363   6.944
 5543SOL    HW117165   3.374   3.442   6.954
 5543SOL    HW217166   3.254   3.371   7.012
 5544SOL     OW17167   2.259   2.215   7.104
 5544SOL    HW117168   2.345   2.174   7.095
 5544SOL    HW217169   2.202   2.145   7.136
 5545SOL     OW17170   3.472   2.307   6.331
 5545SOL    HW117171   3.403   2.330   6.268
 5545SOL    HW217172   3.485   2.387   6.382
 5546SOL     OW17173   2.082   3.582   6.064
 5546SOL    HW117174   2.114   3.640   6.134
 5546SOL    HW217175   2.155   3.577   6.002
 5547SOL     OW17176   2.997   3.203   7.281
 5547SOL    HW117177   3.039   3.197   7.367
 5547SOL    HW217178   2.946   3.123   7.273
 5548SOL     OW17179   2.099   3.309   6.119
 5548SOL    HW117180   2.074   3.401   6.126
 5548SOL    HW217181   2.040   3.263   6.179
 5549SOL     OW17182   2.469   3.648   7.014
 5549SOL    HW117183   2.387   3.634   7.062
 5549SOL    HW217184   2.496   3.737   7.038
 5550SOL     OW17185   2.446   2.849   5.717
 5550SOL    HW117186   2.495   2.897   5.650
 5550SOL    HW217187   2.483   2.879   5.800
 5551SOL     OW17188   3.455   1.988   7.052
 5551SOL    HW117189   3.473   2.069   7.004
 5551SOL    HW217190   3.441   2.017   7.142
 5552SOL     OW17191   2.006   2.484   6.107
 5552SOL    HW117192   1.951   2.410   6.134
 5552SOL    HW217193   2.032   2.525   6.190
 5553SOL     OW17194   3.700   3.612   5.928
 5553SOL    HW117195   3.771   3.587   5.986
 5553SOL    HW217196   3.718   3.703   5.905
 5554SOL     OW17197   1.893   3.451   5.708
 5554SOL    HW117198   1.877   3.359   5.728
 5554SOL    HW217199   1.872   3.498   5.788
 5555SOL     OW17200   3.550   2.781   6.233
 5555SOL    HW117201   3.633   2.737   6.214
 5555SOL    HW217202   3.530   2.831   6.154
 5556SOL     OW17203   3.503   2.965   6.018
 5556SOL    HW117204   3.588   2.969   5.974
 5556SOL    HW217205   3.510   3.029   6.089
 5557SOL     OW17206   2.478   3.252   6.320
 5557SOL    HW117207   2.434   3.167   6.329
 5557SOL    HW217208   2.461   3.278   6.230
 5558SOL     OW17209   3.149   3.100   7.008
 5558SOL    HW117210   3.180   3.032   6.948
 5558SOL    HW217211   3.208   3.094   7.083
 5559SOL     OW17212   2.064   2.858   6.852
 5559SOL    HW117213   2.152   2.820   6.854
 5559SOL    HW217214   2.007   2.786   6.824
 5560SOL     OW17215   3.389   2.859   5.787
 5560SOL    HW117216   3.320   2.802   5.820
 5560SOL    HW217217   3.431   2.893   5.866
 5561SOL     OW17218   3.083   3.667   7.213
 5561SOL    HW117219   3.056   3.727   7.144
 5561SOL    HW217220   3.082   3.580   7.172
 5562SOL     OW17221   3.327   3.282   6.534
 5562SOL    HW117222   3.261   3.297   6.602
 5562SOL    HW217223   3.316   3.191   6.509
 5563SOL     OW17224   3.508   3.607   6.166
 5563SOL    HW117225   3.500   3.572   6.078
 5563SOL    HW217226   3.492   3.532   6.223
 5564SOL     OW17227   2.445   2.594   5.852
 5564SOL    HW117228   2.479   2.660   5.792
 5564SOL    HW217229   2.368   2.636   5.892
 5565SOL     OW17230   3.142   2.219   6.521
 5565SOL    HW117231   3.057   2.174   6.526
 5565SOL    HW217232   3.198   2.172   6.582
 5566SOL     OW17233   3.435   3.539   5.894
 5566SOL    HW117234   3.528   3.562   5.890
 5566SOL    HW217235   3.411   3.519   5.804
 5567SOL     OW17236   3.260   2.337   7.262
 5567SOL    HW117237   3.258   2.381   7.346
 5567SOL    HW217238   3.318   2.262   7.275
 5568SOL     OW17239   2.813   2.747   7.166
 5568SOL    HW117240   2.864   2.674   7.131
 5568SOL    HW217241   2.769   2.784   7.089
 5569SOL     OW17242   2.864   2.265   6.804
 5569SOL    HW117243   2.797   2.308   6.858
 5569SOL    HW217244   2.816   2.198   6.755
 5570SOL     OW17245   2.919   2.564   6.008
 5570SOL    HW117246   2.921   2.550   6.103
 5570SOL    HW217247   2.839   2.521   5.980
 5571SOL     OW17248   1.981   3.710   7.162
 5571SOL    HW117249   1.985   3.690   7.256
 5571SOL    HW217250   1.888   3.705   7.140
 5572SOL     OW17251   2.737   2.209   5.755
 5572SOL    HW117252   2.788   2.271   5.703
 5572SOL    HW217253   2.792   2.131   5.761
 5573SOL     OW17254   3.573   2.435   7.415
 5573SOL    HW117255   3.534   2.508   7.367
 5573SOL    HW217256   3.597   2.372   7.347
 5574SOL     OW17257   3.239   3.003   6.128
 5574SOL    HW117258   3.318   2.990   6.076
 5574SOL    HW217259   3.186   3.064   6.077
 5575SOL     OW17260   2.865   3.307   6.056
 5575SOL    HW117261   2.829   3.381   6.007
 5575SOL    HW217262   2.843   3.326   6.147
 5576SOL     OW17263   2.213   3.675   6.424
 5576SOL    HW117264   2.263   3.595   6.442
 5576SOL    HW217265   2.272   3.746   6.448
 5577SOL     OW17266   3.668   2.922   6.454
 5577SOL    HW117267   3.615   2.896   6.378
 5577SOL    HW217268   3.606   2.926   6.527
 5578SOL     OW17269   3.088   3.399   7.098
 5578SOL    HW117270   3.076   3.327   7.160
 5578SOL    HW217271   3.021   3.385   7.031
 5579SOL     OW17272   2.188   2.808   5.844
 5579SOL    HW117273   2.263   2.835   5.790
 5579SOL    HW217274   2.148   2.737   5.794
 5580SOL     OW17275   3.343   2.609   6.312
 5580SOL    HW117276   3.338   2.568   6.399
 5580SOL    HW217277   3.420   2.665   6.315
 5581SOL     OW17278   2.326   3.136   7.325
 5581SOL    HW117279   2.301   3.139   7.233
 5581SOL    HW217280   2.244   3.133   7.373
 5582SOL     OW17281   2.976   3.643   5.807
 5582SOL    HW117282   2.911   3.598   5.861
 5582SOL    HW217283   3.007   3.577   5.745
 5583SOL     OW17284   3.486   3.248   5.675
 5583SOL    HW117285   3.443   3.331   5.657
 5583SOL    HW217286   3.420   3.181   5.655
 5584SOL     OW17287   2.328   3.598   5.910
 5584SOL    HW117288   2.367   3.662   5.970
 5584SOL    HW217289   2.400   3.571   5.854
 5585SOL     OW17290   3.268   1.965   6.023
 5585SOL    HW117291   3.257   1.944   5.930
 5585SOL    HW217292   3.362   1.974   6.035
 5586SOL     OW17293   2.123   3.653   6.808
 5586SOL    HW117294   2.171   3.582   6.851
 5586SOL    HW217295   2.106   3.620   6.720
 5587SOL     OW17296   2.800   3.564   6.485
 5587SOL    HW117297   2.877   3.511   6.507
 5587SOL    HW217298   2.757   3.514   6.416
 5588SOL     OW17299   3.395   2.087   7.311
 5588SOL    HW117300   3.406   2.109   7.404
 5588SOL    HW217301   3.321   2.026   7.310
 5589SOL     OW17302   2.502   1.974   5.698
 5589SOL    HW117303   2.580   1.921   5.712
 5589SOL    HW217304   2.461   1.937   5.620
 5590SOL     OW17305   2.738   3.383   6.781
 5590SOL    HW117306   2.722   3.348   6.694
 5590SOL    HW217307   2.808   3.328   6.817
 5591SOL     OW17308   3.196   2.457   7.022
 5591SOL    HW117309   3.230   2.424   7.105
 5591SOL    HW217310   3.236   2.543   7.012
 5592SOL     OW17311   2.680   3.258   6.528
 5592SOL    HW117312   2.765   3.245   6.485
 5592SOL    HW217313   2.617   3.261   6.456
 5593SOL     OW17314   2.380   1.927   6.093
 5593SOL    HW117315   2.317   1.968   6.153
 5593SOL    HW217316   2.402   1.995   6.030
 5594SOL     OW17317   3.290   3.062   5.626
 5594SOL    HW117318   3.320   2.986   5.676
 5594SOL    HW217319   3.204   3.082   5.663
 5595SOL     OW17320   2.929   2.525   7.045
 5595SOL    HW117321   2.891   2.460   7.104
 5595SOL    HW217322   3.021   2.499   7.038
 5596SOL     OW17323   3.082   3.433   6.380
 5596SOL    HW117324   3.098   3.500   6.313
 5596SOL    HW217325   3.153   3.446   6.444
 5597SOL     OW17326   2.327   3.015   6.324
 5597SOL    HW117327   2.253   3.012   6.385
 5597SOL    HW217328   2.286   3.002   6.238
 5598SOL     OW17329   3.127   3.656   6.195
 5598SOL    HW117330   3.174   3.721   6.142
 5598SOL    HW217331   3.053   3.704   6.233
 5599SOL     OW17332   2.888   2.400   5.607
 5599SOL    HW117333   2.841   2.482   5.594
 5599SOL    HW217334   2.947   2.418   5.681
 5600SOL     OW17335   1.904   2.397   6.973
 5600SOL    HW117336   1.994   2.385   6.942
 5600SOL    HW217337   1.904   2.483   7.015
 5601SOL     OW17338   3.302   3.024   6.443
 5601SOL    HW117339   3.229   2.961   6.442
 5601SOL    HW217340   3.327   3.032   6.351
 5602SOL     OW17341   3.327   2.473   6.560
 5602SOL    HW117342   3.276   2.392   6.562
 5602SOL    HW217343   3.386   2.465   6.634
 5603SOL     OW17344   3.725   2.678   5.961
 5603SOL    HW117345   3.768   2.622   6.025
 5603SOL    HW217346   3.687   2.616   5.898
 5604SOL     OW17347   2.352   3.281   5.738
 5604SOL    HW117348   2.276   3.253   5.790
 5604SOL    HW217349   2.342   3.235   5.655
 5605SOL     OW17350   3.530   3.127   6.229
 5605SOL    HW117351   3.625   3.129   6.239
 5605SOL    HW217352   3.502   3.216   6.250
 5606SOL     OW17353   3.257   2.434   5.656
 5606SOL    HW117354   3.191   2.415   5.724
 5606SOL    HW217355   3.339   2.400   5.692
 5607SOL     OW17356   2.394   2.124   5.901
 5607SOL    HW117357   2.433   2.071   5.831
 5607SOL    HW217358   2.369   2.206   5.858
 5608SOL     OW17359   3.613   3.096   7.150
 5608SOL    HW117360   3.700   3.061   7.133
 5608SOL    HW217361   3.628   3.186   7.179
 5609SOL     OW17362   2.917   3.214   6.919
 5609SOL    HW117363   2.842   3.181   6.970
 5609SOL    HW217364   2.993   3.173   6.960
 5610SOL     OW17365   3.469   3.492   7.244
 5610SOL    HW117366   3.459   3.525   7.154
 5610SOL    HW217367   3.549   3.440   7.241
 5611SOL     OW17368   2.996   3.070   6.689
 5611SOL    HW117369   2.935   3.105   6.754
 5611SOL    HW217370   2.963   3.103   6.605
 5612SOL     OW17371   3.490   2.957   6.660
 5612SOL    HW117372   3.481   3.019   6.733
 5612SOL    HW217373   3.413   2.974   6.605
 5613SOL     OW17374   2.789   1.933   6.959
 5613SOL    HW117375   2.791   1.959   6.867
 5613SOL    HW217376   2.863   1.978   6.998
 5614SOL     OW17377   2.847   2.974   7.311
 5614SOL    HW117378   2.755   2.993   7.329
 5614SOL    HW217379   2.844   2.895   7.256
 5615SOL     OW17380   2.568   2.925   5.953
 5615SOL    HW117381   2.558   2.913   6.048
 5615SOL    HW217382   2.644   2.872   5.930
 5616SOL     OW17383   2.285   2.691   6.858
 5616SOL    HW117384   2.370   2.691   6.904
 5616SOL    HW217385   2.240   2.614   6.892
 5617SOL     OW17386   3.131   2.240   6.865
 5617SOL    HW117387   3.158   2.318   6.912
 5617SOL    HW217388   3.041   2.260   6.836
 5618SOL     OW17389   1.935   3.434   6.939
 5618SOL    HW117390   1.906   3.508   6.886
 5618SOL    HW217391   2.031   3.438   6.935
 5619SOL     OW17392   2.195   2.989   6.083
 5619SOL    HW117393   2.203   3.051   6.011
 5619SOL    HW217394   2.204   2.903   6.042
 5620SOL     OW17395   3.110   3.211   5.976
 5620SOL    HW117396   3.166   3.282   6.008
 5620SOL    HW217397   3.023   3.232   6.009
 5621SOL     OW17398   3.147   3.322   6.734
 5621SOL    HW117399   3.203   3.325   6.812
 5621SOL    HW217400   3.093   3.244   6.746
 5622SOL     OW17401   3.441   2.480   6.071
 5622SOL    HW117402   3.391   2.533   6.133
 5622SOL    HW217403   3.480   2.543   6.011
 5623SOL     OW17404   2.209   3.391   6.900
 5623SOL    HW117405   2.200   3.348   6.815
 5623SOL    HW217406   2.303   3.404   6.910
 5624SOL     OW17407   3.468   2.641   7.270
 5624SOL    HW117408   3.382   2.683   7.266
 5624SOL    HW217409   3.520   2.684   7.202
 5625SOL     OW17410   2.964   1.989   7.370
 5625SOL    HW117411   2.968   2.069   7.319
 5625SOL    HW217412   2.987   1.920   7.309
 5626SOL     OW17413   2.339   1.977   7.246
 5626SOL    HW117414   2.383   1.898   7.215
 5626SOL    HW217415   2.304   1.953   7.332
 5627SOL     OW17416   2.487   2.763   6.627
 5627SOL    HW117417   2.509   2.856   6.639
 5627SOL    HW217418   2.408   2.750   6.679
 5628SOL     OW17419   3.216   2.722   6.611
 5628SOL    HW117420   3.133   2.711   6.564
 5628SOL    HW217421   3.260   2.638   6.604
 5629SOL     OW17422   3.061   2.392   5.844
 5629SOL    HW117423   3.076   2.316   5.900
 5629SOL    HW217424   3.019   2.456   5.901
 5630SOL     OW17425   2.269   2.061   6.860
 5630SOL    HW117426   2.194   2.077   6.918
 5630SOL    HW217427   2.262   1.968   6.838
 5631SOL     OW17428   1.901   3.173   6.865
 5631SOL    HW117429   1.938   3.120   6.936
 5631SOL    HW217430   1.911   3.263   6.894
 5632SOL     OW17431   3.593   2.821   7.448
 5632SOL    HW117432   3.553   2.755   7.392
 5632SOL    HW217433   3.529   2.835   7.518
 5633SOL     OW17434   3.484   2.239   5.949
 5633SOL    HW117435   3.510   2.173   6.013
 5633SOL    HW217436   3.459   2.315   6.001
 5634SOL     OW17437   2.884   2.610   6.546
 5634SOL    HW117438   2.885   2.646   6.635
 5634SOL    HW217439   2.863   2.517   6.558
 5635SOL     OW17440   2.849   3.432   7.307
 5635SOL    HW117441   2.829   3.472   7.222
 5635SOL    HW217442   2.889   3.348   7.285
 5636SOL     OW17443   3.704   3.359   7.184
 5636SOL    HW117444   3.728   3.389   7.096
 5636SOL    HW217445   3.784   3.368   7.235
 5637SOL     OW17446   3.391   2.134   5.713
 5637SOL    HW117447   3.325   2.070   5.740
 5637SOL    HW217448   3.424   2.170   5.795
 5638SOL     OW17449   3.152   2.688   5.616
 5638SOL    HW117450   3.193   2.602   5.620
 5638SOL    HW217451   3.184   2.726   5.534
 5639SOL     OW17452   2.929   3.200   6.442
 5639SOL    HW117453   2.933   3.127   6.380
 5639SOL    HW217454   2.989   3.266   6.406
 5640SOL     OW17455   2.998   2.249   7.248
 5640SOL    HW117456   2.952   2.305   7.311
 5640SOL    HW217457   3.088   2.281   7.250
 5641SOL     OW17458   3.013   2.065   7.048
 5641SOL    HW117459   3.001   2.129   7.118
 5641SOL    HW217460   3.062   2.112   6.981
 5642SOL     OW17461   1.867   3.179   5.782
 5642SOL    HW117462   1.781   3.195   5.745
 5642SOL    HW217463   1.862   3.090   5.818
 5643SOL     OW17464   1.960   3.640   6.525
 5643SOL    HW117465   1.927   3.562   6.480
 5643SOL    HW217466   2.044   3.658   6.484
 5644SOL     OW17467   2.355   3.440   6.487
 5644SOL    HW117468   2.422   3.502   6.514
 5644SOL    HW217469   2.400   3.377   6.431
 5645SOL     OW17470   2.852   2.650   6.810
 5645SOL    HW117471   2.894   2.613   6.887
 5645SOL    HW217472   2.760   2.660   6.835
 5646SOL     OW17473   3.242   2.797   7.244
 5646SOL    HW117474   3.262   2.891   7.242
 5646SOL    HW217475   3.239   2.771   7.152
 5647SOL     OW17476   2.700   2.460   5.887
 5647SOL    HW117477   2.688   2.368   5.865
 5647SOL    HW217478   2.611   2.496   5.888
 5648SOL     OW17479   3.502   2.463   6.769
 5648SOL    HW117480   3.491   2.403   6.842
 5648SOL    HW217481   3.589   2.443   6.733
 5649SOL     OW17482   2.103   3.412   7.310
 5649SOL    HW117483   2.081   3.481   7.372
 5649SOL    HW217484   2.110   3.333   7.363
 5650SOL     OW17485   2.787   3.534   7.056
 5650SOL    HW117486   2.762   3.494   6.973
 5650SOL    HW217487   2.779   3.628   7.041
 5651SOL     OW17488   2.323   2.357   5.787
 5651SOL    HW117489   2.380   2.431   5.805
 5651SOL    HW217490   2.239   2.397   5.762
 5652SOL     OW17491   2.003   3.000   7.067
 5652SOL    HW117492   2.013   2.934   7.136
 5652SOL    HW217493   2.018   2.953   6.986
 5653SOL     OW17494   3.184   2.907   6.808
 5653SOL    HW117495   3.207   2.844   6.739
 5653SOL    HW217496   3.117   2.962   6.768
 5654SOL     OW17497   3.174   2.717   5.892
 5654SOL    HW117498   3.099   2.685   5.943
 5654SOL    HW217499   3.149   2.704   5.801
 5655SOL     OW17500   3.640   3.601   6.742
 5655SOL    HW117501   3.698   3.628   6.671
 5655SOL    HW217502   3.612   3.513   6.718
 5656SOL     OW17503   3.106   3.595   6.695
 5656SOL    HW117504   3.189   3.617   6.652
 5656SOL    HW217505   3.113   3.502   6.714
 5657SOL     OW17506   1.967   3.169   6.597
 5657SOL    HW117507   1.942   3.159   6.689
 5657SOL    HW217508   1.915   3.104   6.551
 5658SOL     OW17509   2.542   3.530   7.322
 5658SOL    HW117510   2.485   3.606   7.325
 5658SOL    HW217511   2.603   3.549   7.251
 5659SOL     OW17512   3.571   2.013   6.097
 5659SOL    HW117513   3.640   2.001   6.031
 5659SOL    HW217514   3.561   1.927   6.137
 5660SOL     OW17515   3.252   3.430   6.075
 5660SOL    HW117516   3.311   3.464   6.007
 5660SOL    HW217517   3.204   3.507   6.105
 5661SOL     OW17518   1.999   3.652   7.424
 5661SOL    HW117519   1.946   3.588   7.473
 5661SOL    HW217520   2.046   3.700   7.491
 5662SOL     OW17521   3.137   2.784   6.254
 5662SOL    HW117522   3.212   2.726   6.264
 5662SOL    HW217523   3.171   2.857   6.202
 5663SOL     OW17524   2.669   3.131   7.014
 5663SOL    HW117525   2.642   3.174   7.095
 5663SOL    HW217526   2.601   3.153   6.951
 5664SOL     OW17527   2.536   3.480   5.744
 5664SOL    HW117528   2.546   3.498   5.651
 5664SOL    HW217529   2.477   3.405   5.748
 5665SOL     OW17530   3.480   3.589   6.976
 5665SOL    HW117531   3.536   3.591   6.898
 5665SOL    HW217532   3.468   3.681   7.000
 5666SOL     OW17533   3.700   2.043   6.553
 5666SOL    HW117534   3.731   1.956   6.529
 5666SOL    HW217535   3.614   2.050   6.511
 5667SOL     OW17536   3.070   3.465   5.622
 5667SOL    HW117537   3.059   3.373   5.647
 5667SOL    HW217538   3.008   3.478   5.550
 5668SOL     OW17539   2.691   2.862   6.950
 5668SOL    HW117540   2.714   2.875   6.858
 5668SOL    HW217541   2.681   2.951   6.984
 5669SOL     OW17542   2.777   2.777   5.874
 5669SOL    HW117543   2.839   2.808   5.809
 5669SOL    HW217544   2.821   2.704   5.917
 5670SOL     OW17545   3.349   3.495   5.629
 5670SOL    HW117546   3.256   3.482   5.612
 5670SOL    HW217547   3.388   3.500   5.542
 5671SOL     OW17548   2.227   3.167   7.079
 5671SOL    HW117549   2.218   3.243   7.021
 5671SOL    HW217550   2.150   3.113   7.062
 5672SOL     OW17551   3.462   3.142   6.863
 5672SOL    HW117552   3.530   3.132   6.930
 5672SOL    HW217553   3.405   3.211   6.896
 5673SOL     OW17554   2.920   2.971   6.297
 5673SOL    HW117555   2.847   2.922   6.334
 5673SOL    HW217556   2.980   2.905   6.264
 5674SOL     OW17557   2.468   3.353   6.066
 5674SOL    HW117558   2.514   3.301   6.000
 5674SOL    HW217559   2.396   3.394   6.018
 5675SOL     OW17560   3.587   2.251   6.964
 5675SOL    HW117561   3.659   2.314   6.961
 5675SOL    HW217562   3.615   2.179   6.907
 5676SOL     OW17563   2.123   3.203   5.876
 5676SOL    HW117564   2.030   3.200   5.854
 5676SOL    HW217565   2.126   3.244   5.962
 5677SOL     OW17566   1.896   2.281   5.641
 5677SOL    HW117567   1.859   2.199   5.607
 5677SOL    HW217568   1.950   2.315   5.570
 5678SOL     OW17569   3.288   2.721   6.984
 5678SOL    HW117570   3.238   2.782   6.930
 5678SOL    HW217571   3.376   2.723   6.947
 5679SOL     OW17572   3.040   3.198   5.704
 5679SOL    HW117573   2.949   3.167   5.705
 5679SOL    HW217574   3.066   3.198   5.795
 5680SOL     OW17575   3.347   3.644   6.569
 5680SOL    HW117576   3.371   3.699   6.494
 5680SOL    HW217577   3.431   3.611   6.602
 5681SOL     OW17578   3.335   3.059   7.216
 5681SOL    HW117579   3.324   3.073   7.310
 5681SOL    HW217580   3.428   3.074   7.200
 5682SOL     OW17581   2.236   3.604   7.152
 5682SOL    HW117582   2.152   3.646   7.135
 5682SOL    HW217583   2.214   3.520   7.191
 5683SOL     OW17584   3.526   2.742   6.845
 5683SOL    HW117585   3.525   2.657   6.801
 5683SOL    HW217586   3.519   2.806   6.773
 5684SOL     OW17587   3.104   2.196   6.031
 5684SOL    HW117588   3.155   2.114   6.033
 5684SOL    HW217589   3.125   2.238   6.114
 5685SOL     OW17590   3.620   2.228   7.236
 5685SOL    HW117591   3.603   2.241   7.143
 5685SOL    HW217592   3.550   2.170   7.265
 5686SOL     OW17593   3.619   2.790   7.099
 5686SOL    HW117594   3.609   2.883   7.117
 5686SOL    HW217595   3.594   2.781   7.007
 5687SOL     OW17596   2.725   3.230   5.626
 5687SOL    HW117597   2.685   3.257   5.709
 5687SOL    HW217598   2.740   3.311   5.579
 5688SOL     OW17599   2.523   3.650   6.526
 5688SOL    HW117600   2.503   3.741   6.504
 5688SOL    HW217601   2.619   3.645   6.520
 5689SOL     OW17602   2.730   2.830   6.439
 5689SOL    HW117603   2.771   2.752   6.476
 5689SOL    HW217604   2.684   2.870   6.513
 5690SOL     OW17605   2.941   2.851   5.673
 5690SOL    HW117606   2.920   2.902   5.595
 5690SOL    HW217607   3.015   2.796   5.648
 5691SOL     OW17608   3.711   3.416   6.426
 5691SOL    HW117609   3.632   3.397   6.376
 5691SOL    HW217610   3.714   3.348   6.494
 5692SOL     OW17611   2.088   3.165   7.449
 5692SOL    HW117612   1.997   3.139   7.431
 5692SOL    HW217613   2.090   3.178   7.544
 5693SOL     OW17614   1.953   3.104   6.241
 5693SOL    HW117615   1.937   3.055   6.321
 5693SOL    HW217616   2.015   3.050   6.191
 5694SOL     OW17617   2.539   3.277   7.205
 5694SOL    HW117618   2.461   3.234   7.239
 5694SOL    HW217619   2.541   3.362   7.248
 5695SOL     OW17620   3.673   2.039   6.824
 5695SOL    HW117621   3.666   1.943   6.825
 5695SOL    HW217622   3.689   2.060   6.732
 5696SOL     OW17623   2.286   2.217   6.145
 5696SOL    HW117624   2.335   2.208   6.063
 5696SOL    HW217625   2.197   2.239   6.117
 5697SOL     OW17626   3.557   3.351   6.682
 5697SOL    HW117627   3.479   3.328   6.632
 5697SOL    HW217628   3.567   3.280   6.745
 5698SOL     OW17629   2.175   2.378   6.909
 5698SOL    HW117630   2.209   2.332   6.986
 5698SOL    HW217631   2.206   2.326   6.834
 5699SOL     OW17632   2.690   3.441   6.262
 5699SOL    HW117633   2.672   3.495   6.184
 5699SOL    HW217634   2.617   3.381   6.267
 5700SOL     OW17635   3.295   2.092   6.703
 5700SOL    HW117636   3.309   2.005   6.741
 5700SOL    HW217637   3.247   2.139   6.771
 5701SOL     OW17638   2.635   3.194   5.906
 5701SOL    HW117639   2.605   3.104   5.911
 5701SOL    HW217640   2.717   3.195   5.954
 5702SOL     OW17641   2.483   3.416   6.872
 5702SOL    HW117642   2.484   3.498   6.922
 5702SOL    HW217643   2.571   3.410   6.835
 5703SOL     OW17644   3.217   1.915   5.754
 5703SOL    HW117645   3.248   1.847   5.695
 5703SOL    HW217646   3.129   1.888   5.779
 5704SOL     OW17647   3.158   2.325   6.268
 5704SOL    HW117648   3.106   2.406   6.274
 5704SOL    HW217649   3.156   2.290   6.357
 5705SOL     OW17650   3.443   2.059   6.464
 5705SOL    HW117651   3.391   2.084   6.540
 5705SOL    HW217652   3.445   2.138   6.409
 5706SOL     OW17653   1.904   2.928   5.898
 5706SOL    HW117654   1.998   2.922   5.882
 5706SOL    HW217655   1.878   2.838   5.918
 5707SOL     OW17656   2.749   3.522   5.928
 5707SOL    HW117657   2.677   3.503   5.868
 5707SOL    HW217658   2.718   3.597   5.979
 5708SOL     OW17659   1.848   2.281   8.073
 5708SOL    HW117660   1.764   2.286   8.118
 5708SOL    HW217661   1.828   2.244   7.987
 5709SOL     OW17662   2.429   3.155   8.627
 5709SOL    HW117663   2.342   3.161   8.587
 5709SOL    HW217664   2.446   3.243   8.661
 5710SOL     OW17665   3.427   3.375   8.157
 5710SOL    HW117666   3.384   3.351   8.240
 5710SOL    HW217667   3.355   3.378   8.093
 5711SOL     OW17668   2.995   2.563   8.148
 5711SOL    HW117669   3.044   2.644   8.136
 5711SOL    HW217670   2.947   2.576   8.230
 5712SOL     OW17671   3.629   2.467   7.677
 5712SOL    HW117672   3.610   2.460   7.584
 5712SOL    HW217673   3.595   2.387   7.715
 5713SOL     OW17674   2.611   3.001   8.492
 5713SOL    HW117675   2.544   3.038   8.550
 5713SOL    HW217676   2.650   3.077   8.449
 5714SOL     OW17677   2.733   2.628   9.271
 5714SOL    HW117678   2.720   2.698   9.334
 5714SOL    HW217679   2.756   2.673   9.190
 5715SOL     OW17680   2.543   2.857   8.098
 5715SOL    HW117681   2.611   2.850   8.165
 5715SOL    HW217682   2.477   2.914   8.137
 5716SOL     OW17683   2.575   3.012   9.264
 5716SOL    HW117684   2.622   3.090   9.293
 5716SOL    HW217685   2.494   3.046   9.226
 5717SOL     OW17686   2.193   3.282   8.515
 5717SOL    HW117687   2.119   3.245   8.467
 5717SOL    HW217688   2.239   3.335   8.450
 5718SOL     OW17689   3.320   3.363   8.806
 5718SOL    HW117690   3.375   3.441   8.816
 5718SOL    HW217691   3.254   3.372   8.875
 5719SOL     OW17692   2.295   2.258   8.947
 5719SOL    HW117693   2.389   2.238   8.950
 5719SOL    HW217694   2.252   2.173   8.947
 5720SOL     OW17695   3.471   2.306   8.193
 5720SOL    HW117696   3.401   2.329   8.132
 5720SOL    HW217697   3.483   2.385   8.246
 5721SOL     OW17698   2.084   3.577   7.927
 5721SOL    HW117699   2.113   3.637   7.996
 5721SOL    HW217700   2.157   3.576   7.864
 5722SOL     OW17701   2.999   3.204   9.142
 5722SOL    HW117702   3.040   3.197   9.228
 5722SOL    HW217703   2.947   3.124   9.134
 5723SOL     OW17704   2.092   3.302   7.980
 5723SOL    HW117705   2.076   3.396   7.985
 5723SOL    HW217706   2.034   3.264   8.047
 5724SOL     OW17707   2.125   2.954   8.342
 5724SOL    HW117708   2.119   2.866   8.380
 5724SOL    HW217709   2.067   3.008   8.394
 5725SOL     OW17710   2.469   3.648   8.876
 5725SOL    HW117711   2.387   3.633   8.924
 5725SOL    HW217712   2.495   3.736   8.900
 5726SOL     OW17713   2.580   2.819   7.534
 5726SOL    HW117714   2.575   2.902   7.486
 5726SOL    HW217715   2.542   2.839   7.620
 5727SOL     OW17716   3.456   1.988   8.913
 5727SOL    HW117717   3.474   2.070   8.866
 5727SOL    HW217718   3.441   2.016   9.003
 5728SOL     OW17719   1.991   2.510   8.020
 5728SOL    HW117720   1.941   2.429   8.037
 5728SOL    HW217721   1.968   2.567   8.093
 5729SOL     OW17722   3.700   3.612   7.790
 5729SOL    HW117723   3.771   3.587   7.848
 5729SOL    HW217724   3.718   3.703   7.767
 5730SOL     OW17725   1.893   3.453   7.569
 5730SOL    HW117726   1.877   3.362   7.591
 5730SOL    HW217727   1.872   3.501   7.649
 5731SOL     OW17728   3.550   2.782   8.096
 5731SOL    HW117729   3.633   2.737   8.076
 5731SOL    HW217730   3.530   2.830   8.016
 5732SOL     OW17731   3.503   2.965   7.880
 5732SOL    HW117732   3.588   2.970   7.836
 5732SOL    HW217733   3.510   3.029   7.951
 5733SOL     OW17734   1.983   2.604   9.033
 5733SOL    HW117735   2.074   2.630   9.042
 5733SOL    HW217736   1.933   2.685   9.041
 5734SOL     OW17737   2.478   3.253   8.183
 5734SOL    HW117738   2.432   3.169   8.192
 5734SOL    HW217739   2.461   3.279   8.092
 5735SOL     OW17740   3.148   3.098   8.870
 5735SOL    HW117741   3.180   3.031   8.810
 5735SOL    HW217742   3.208   3.094   8.945
 5736SOL     OW17743   2.052   2.827   8.723
 5736SOL    HW117744   2.136   2.784   8.708
 5736SOL    HW217745   1.989   2.774   8.674
 5737SOL     OW17746   3.392   2.859   7.648
 5737SOL    HW117747   3.323   2.801   7.680
 5737SOL    HW217748   3.433   2.894   7.727
 5738SOL     OW17749   3.082   3.667   9.076
 5738SOL    HW117750   3.056   3.727   9.006
 5738SOL    HW217751   3.083   3.581   9.034
 5739SOL     OW17752   2.265   2.161   9.264
 5739SOL    HW117753   2.317   2.228   9.309
 5739SOL    HW217754   2.175   2.193   9.269
 5740SOL     OW17755   3.327   3.282   8.396
 5740SOL    HW117756   3.261   3.297   8.464
 5740SOL    HW217757   3.316   3.191   8.371
 5741SOL     OW17758   3.508   3.607   8.028
 5741SOL    HW117759   3.500   3.572   7.940
 5741SOL    HW217760   3.492   3.532   8.085
 5742SOL     OW17761   3.140   2.223   8.382
 5742SOL    HW117762   3.051   2.189   8.392
 5742SOL    HW217763   3.194   2.169   8.441
 5743SOL     OW17764   3.435   3.539   7.756
 5743SOL    HW117765   3.528   3.562   7.751
 5743SOL    HW217766   3.410   3.519   7.666
 5744SOL     OW17767   2.655   2.482   8.898
 5744SOL    HW117768   2.630   2.456   8.986
 5744SOL    HW217769   2.617   2.414   8.841
 5745SOL     OW17770   3.255   2.335   9.126
 5745SOL    HW117771   3.259   2.380   9.211
 5745SOL    HW217772   3.313   2.260   9.136
 5746SOL     OW17773   2.813   2.748   9.033
 5746SOL    HW117774   2.869   2.679   8.995
 5746SOL    HW217775   2.765   2.784   8.958
 5747SOL     OW17776   2.855   2.274   8.685
 5747SOL    HW117777   2.768   2.294   8.719
 5747SOL    HW217778   2.839   2.230   8.602
 5748SOL     OW17779   2.922   2.557   7.881
 5748SOL    HW117780   2.949   2.559   7.972
 5748SOL    HW217781   2.837   2.512   7.882
 5749SOL     OW17782   1.948   2.690   8.224
 5749SOL    HW117783   2.030   2.681   8.273
 5749SOL    HW217784   1.904   2.765   8.263
 5750SOL     OW17785   1.982   3.712   9.025
 5750SOL    HW117786   1.986   3.691   9.119
 5750SOL    HW217787   1.889   3.702   9.003
 5751SOL     OW17788   3.570   2.435   9.277
 5751SOL    HW117789   3.533   2.508   9.228
 5751SOL    HW217790   3.595   2.371   9.210
 5752SOL     OW17791   3.239   3.003   7.988
 5752SOL    HW117792   3.319   2.991   7.936
 5752SOL    HW217793   3.187   3.066   7.937
 5753SOL     OW17794   2.415   2.051   8.333
 5753SOL    HW117795   2.425   2.069   8.427
 5753SOL    HW217796   2.423   2.137   8.292
 5754SOL     OW17797   2.866   3.308   7.918
 5754SOL    HW117798   2.830   3.382   7.869
 5754SOL    HW217799   2.844   3.326   8.010
 5755SOL     OW17800   2.213   3.674   8.286
 5755SOL    HW117801   2.263   3.595   8.305
 5755SOL    HW217802   2.272   3.746   8.310
 5756SOL     OW17803   3.668   2.922   8.316
 5756SOL    HW117804   3.615   2.896   8.241
 5756SOL    HW217805   3.606   2.926   8.389
 5757SOL     OW17806   3.089   3.399   8.960
 5757SOL    HW117807   3.076   3.327   9.021
 5757SOL    HW217808   3.021   3.387   8.893
 5758SOL     OW17809   3.342   2.609   8.173
 5758SOL    HW117810   3.338   2.568   8.260
 5758SOL    HW217811   3.420   2.664   8.177
 5759SOL     OW17812   2.330   3.128   9.185
 5759SOL    HW117813   2.304   3.133   9.093
 5759SOL    HW217814   2.248   3.125   9.234
 5760SOL     OW17815   2.976   3.644   7.669
 5760SOL    HW117816   2.912   3.598   7.723
 5760SOL    HW217817   3.007   3.578   7.607
 5761SOL     OW17818   3.486   3.248   7.537
 5761SOL    HW117819   3.442   3.331   7.519
 5761SOL    HW217820   3.419   3.181   7.517
 5762SOL     OW17821   2.329   3.597   7.773
 5762SOL    HW117822   2.367   3.662   7.833
 5762SOL    HW217823   2.401   3.572   7.716
 5763SOL     OW17824   3.266   1.967   7.887
 5763SOL    HW117825   3.262   1.946   7.793
 5763SOL    HW217826   3.359   1.977   7.905
 5764SOL     OW17827   2.123   3.653   8.670
 5764SOL    HW117828   2.169   3.582   8.715
 5764SOL    HW217829   2.106   3.619   8.582
 5765SOL     OW17830   2.800   3.563   8.347
 5765SOL    HW117831   2.878   3.512   8.369
 5765SOL    HW217832   2.757   3.514   8.278
 5766SOL     OW17833   2.242   2.564   7.938
 5766SOL    HW117834   2.274   2.474   7.932
 5766SOL    HW217835   2.150   2.555   7.961
 5767SOL     OW17836   3.394   2.087   9.173
 5767SOL    HW117837   3.404   2.107   9.266
 5767SOL    HW217838   3.326   2.019   9.170
 5768SOL     OW17839   2.627   2.141   9.206
 5768SOL    HW117840   2.706   2.087   9.202
 5768SOL    HW217841   2.578   2.107   9.281
 5769SOL     OW17842   2.738   3.383   8.643
 5769SOL    HW117843   2.721   3.347   8.556
 5769SOL    HW217844   2.808   3.328   8.678
 5770SOL     OW17845   3.202   2.451   8.881
 5770SOL    HW117846   3.233   2.420   8.966
 5770SOL    HW217847   3.238   2.539   8.872
 5771SOL     OW17848   2.679   3.253   8.392
 5771SOL    HW117849   2.764   3.242   8.349
 5771SOL    HW217850   2.616   3.258   8.320
 5772SOL     OW17851   2.794   2.370   8.358
 5772SOL    HW117852   2.772   2.364   8.265
 5772SOL    HW217853   2.825   2.283   8.381
 5773SOL     OW17854   2.415   1.919   7.963
 5773SOL    HW117855   2.368   1.933   8.046
 5773SOL    HW217856   2.400   1.999   7.913
 5774SOL     OW17857   3.290   3.061   7.488
 5774SOL    HW117858   3.321   2.986   7.538
 5774SOL    HW217859   3.203   3.079   7.523
 5775SOL     OW17860   2.821   2.115   7.949
 5775SOL    HW117861   2.781   2.132   7.864
 5775SOL    HW217862   2.914   2.129   7.936
 5776SOL     OW17863   2.943   2.546   8.906
 5776SOL    HW117864   2.877   2.477   8.912
 5776SOL    HW217865   3.027   2.498   8.901
 5777SOL     OW17866   3.081   3.434   8.243
 5777SOL    HW117867   3.098   3.500   8.176
 5777SOL    HW217868   3.153   3.446   8.306
 5778SOL     OW17869   2.331   3.017   8.179
 5778SOL    HW117870   2.266   2.996   8.246
 5778SOL    HW217871   2.285   3.004   8.096
 5779SOL     OW17872   3.127   3.656   8.057
 5779SOL    HW117873   3.174   3.721   8.004
 5779SOL    HW217874   3.054   3.705   8.095
 5780SOL     OW17875   2.928   2.435   7.435
 5780SOL    HW117876   2.871   2.512   7.431
 5780SOL    HW217877   2.972   2.442   7.520
 5781SOL     OW17878   1.941   2.422   8.835
 5781SOL    HW117879   2.035   2.419   8.814
 5781SOL    HW217880   1.935   2.487   8.905
 5782SOL     OW17881   2.460   2.083   8.602
 5782SOL    HW117882   2.507   2.008   8.638
 5782SOL    HW217883   2.377   2.085   8.651
 5783SOL     OW17884   2.730   2.326   8.099
 5783SOL    HW117885   2.651   2.354   8.053
 5783SOL    HW217886   2.760   2.249   8.052
 5784SOL     OW17887   2.896   1.924   8.204
 5784SOL    HW117888   2.835   1.942   8.132
 5784SOL    HW217889   2.859   1.848   8.248
 5785SOL     OW17890   3.302   3.023   8.305
 5785SOL    HW117891   3.230   2.960   8.304
 5785SOL    HW217892   3.328   3.032   8.213
 5786SOL     OW17893   3.327   2.471   8.420
 5786SOL    HW117894   3.274   2.392   8.422
 5786SOL    HW217895   3.385   2.463   8.495
 5787SOL     OW17896   3.724   2.678   7.823
 5787SOL    HW117897   3.768   2.622   7.887
 5787SOL    HW217898   3.686   2.617   7.760
 5788SOL     OW17899   2.353   3.284   7.601
 5788SOL    HW117900   2.277   3.255   7.651
 5788SOL    HW217901   2.347   3.234   7.519
 5789SOL     OW17902   3.530   3.127   8.092
 5789SOL    HW117903   3.625   3.129   8.101
 5789SOL    HW217904   3.502   3.216   8.112
 5790SOL     OW17905   3.257   2.433   7.518
 5790SOL    HW117906   3.193   2.413   7.586
 5790SOL    HW217907   3.340   2.400   7.552
 5791SOL     OW17908   2.377   2.121   7.778
 5791SOL    HW117909   2.424   2.069   7.712
 5791SOL    HW217910   2.389   2.211   7.750
 5792SOL     OW17911   3.613   3.096   9.012
 5792SOL    HW117912   3.700   3.061   8.995
 5792SOL    HW217913   3.629   3.186   9.041
 5793SOL     OW17914   2.918   3.214   8.780
 5793SOL    HW117915   2.843   3.183   8.831
 5793SOL    HW217916   2.994   3.173   8.821
 5794SOL     OW17917   3.469   3.492   9.105
 5794SOL    HW117918   3.459   3.525   9.016
 5794SOL    HW217919   3.549   3.439   9.103
 5795SOL     OW17920   2.994   3.069   8.551
 5795SOL    HW117921   2.935   3.107   8.616
 5795SOL    HW217922   2.964   3.104   8.467
 5796SOL     OW17923   3.489   2.957   8.522
 5796SOL    HW117924   3.480   3.019   8.595
 5796SOL    HW217925   3.413   2.974   8.467
 5797SOL     OW17926   2.781   1.957   8.841
 5797SOL    HW117927   2.805   1.937   8.750
 5797SOL    HW217928   2.859   1.996   8.879
 5798SOL     OW17929   2.846   2.977   9.171
 5798SOL    HW117930   2.755   2.993   9.194
 5798SOL    HW217931   2.843   2.898   9.116
 5799SOL     OW17932   2.575   2.929   7.826
 5799SOL    HW117933   2.560   2.904   7.917
 5799SOL    HW217934   2.650   2.877   7.799
 5800SOL     OW17935   2.282   2.675   8.699
 5800SOL    HW117936   2.349   2.687   8.766
 5800SOL    HW217937   2.248   2.586   8.714
 5801SOL     OW17938   3.126   2.238   8.727
 5801SOL    HW117939   3.159   2.315   8.772
 5801SOL    HW217940   3.035   2.259   8.705
 5802SOL     OW17941   1.935   3.435   8.803
 5802SOL    HW117942   1.907   3.510   8.749
 5802SOL    HW217943   2.031   3.436   8.797
 5803SOL     OW17944   2.205   2.971   7.935
 5803SOL    HW117945   2.222   3.040   7.870
 5803SOL    HW217946   2.257   2.897   7.905
 5804SOL     OW17947   2.407   2.396   8.307
 5804SOL    HW117948   2.421   2.455   8.233
 5804SOL    HW217949   2.472   2.422   8.372
 5805SOL     OW17950   3.110   3.211   7.839
 5805SOL    HW117951   3.166   3.282   7.870
 5805SOL    HW217952   3.023   3.232   7.871
 5806SOL     OW17953   3.148   3.322   8.596
 5806SOL    HW117954   3.204   3.326   8.674
 5806SOL    HW217955   3.093   3.245   8.611
 5807SOL     OW17956   3.440   2.481   7.933
 5807SOL    HW117957   3.392   2.534   7.995
 5807SOL    HW217958   3.480   2.544   7.873
 5808SOL     OW17959   2.207   3.392   8.759
 5808SOL    HW117960   2.196   3.347   8.675
 5808SOL    HW217961   2.302   3.403   8.768
 5809SOL     OW17962   2.277   2.610   9.051
 5809SOL    HW117963   2.341   2.651   8.993
 5809SOL    HW217964   2.314   2.524   9.071
 5810SOL     OW17965   3.467   2.641   9.132
 5810SOL    HW117966   3.382   2.684   9.126
 5810SOL    HW217967   3.520   2.684   9.064
 5811SOL     OW17968   2.857   1.991   9.199
 5811SOL    HW117969   2.916   2.063   9.178
 5811SOL    HW217970   2.906   1.912   9.175
 5812SOL     OW17971   2.371   1.906   9.202
 5812SOL    HW117972   2.313   1.857   9.143
 5812SOL    HW217973   2.329   1.992   9.210
 5813SOL     OW17974   2.445   2.736   8.479
 5813SOL    HW117975   2.479   2.825   8.481
 5813SOL    HW217976   2.390   2.730   8.557
 5814SOL     OW17977   3.214   2.721   8.473
 5814SOL    HW117978   3.130   2.708   8.430
 5814SOL    HW217979   3.259   2.637   8.465
 5815SOL     OW17980   3.066   2.389   7.711
 5815SOL    HW117981   3.075   2.311   7.765
 5815SOL    HW217982   3.027   2.455   7.769
 5816SOL     OW17983   2.236   2.050   8.741
 5816SOL    HW117984   2.150   2.070   8.778
 5816SOL    HW217985   2.232   1.958   8.718
 5817SOL     OW17986   1.909   3.173   8.723
 5817SOL    HW117987   1.941   3.118   8.794
 5817SOL    HW217988   1.914   3.262   8.757
 5818SOL     OW17989   2.579   2.489   8.500
 5818SOL    HW117990   2.660   2.476   8.450
 5818SOL    HW217991   2.555   2.581   8.483
 5819SOL     OW17992   3.592   2.821   9.310
 5819SOL    HW117993   3.552   2.755   9.254
 5819SOL    HW217994   3.528   2.835   9.380
 5820SOL     OW17995   3.483   2.239   7.813
 5820SOL    HW117996   3.509   2.174   7.877
 5820SOL    HW217997   3.460   2.317   7.865
 5821SOL     OW17998   2.890   2.621   8.408
 5821SOL    HW117999   2.884   2.639   8.501
 5821SOL    HW218000   2.865   2.529   8.399
 5822SOL     OW18001   2.847   3.430   9.169
 5822SOL    HW118002   2.828   3.471   9.085
 5822SOL    HW218003   2.889   3.347   9.147
 5823SOL     OW18004   3.704   3.359   9.045
 5823SOL    HW118005   3.729   3.389   8.958
 5823SOL    HW218006   3.784   3.368   9.097
 5824SOL     OW18007   2.214   2.778   9.260
 5824SOL    HW118008   2.296   2.798   9.304
 5824SOL    HW218009   2.238   2.717   9.190
 5825SOL     OW18010   3.397   2.140   7.574
 5825SOL    HW118011   3.332   2.074   7.598
 5825SOL    HW218012   3.428   2.175   7.657
 5826SOL     OW18013   3.151   2.688   7.480
 5826SOL    HW118014   3.191   2.601   7.481
 5826SOL    HW218015   3.181   2.727   7.398
 5827SOL     OW18016   2.929   3.200   8.304
 5827SOL    HW118017   2.934   3.127   8.242
 5827SOL    HW218018   2.989   3.266   8.268
 5828SOL     OW18019   2.170   2.672   8.393
 5828SOL    HW118020   2.263   2.694   8.389
 5828SOL    HW218021   2.169   2.583   8.430
 5829SOL     OW18022   2.183   2.366   8.457
 5829SOL    HW118023   2.144   2.290   8.414
 5829SOL    HW218024   2.263   2.382   8.407
 5830SOL     OW18025   2.996   2.236   9.132
 5830SOL    HW118026   2.948   2.290   9.195
 5830SOL    HW218027   3.083   2.275   9.128
 5831SOL     OW18028   3.022   2.062   8.919
 5831SOL    HW118029   3.011   2.124   8.990
 5831SOL    HW218030   3.065   2.113   8.849
 5832SOL     OW18031   1.864   3.186   7.639
 5832SOL    HW118032   1.776   3.202   7.604
 5832SOL    HW218033   1.858   3.102   7.683
 5833SOL     OW18034   1.959   3.639   8.386
 5833SOL    HW118035   1.928   3.561   8.341
 5833SOL    HW218036   2.044   3.658   8.346
 5834SOL     OW18037   2.355   3.438   8.353
 5834SOL    HW118038   2.422   3.501   8.378
 5834SOL    HW218039   2.400   3.376   8.296
 5835SOL     OW18040   2.839   2.650   8.673
 5835SOL    HW118041   2.900   2.631   8.744
 5835SOL    HW218042   2.755   2.616   8.703
 5836SOL     OW18043   1.901   2.395   8.566
 5836SOL    HW118044   1.985   2.402   8.520
 5836SOL    HW218045   1.923   2.410   8.658
 5837SOL     OW18046   2.075   2.382   9.179
 5837SOL    HW118047   2.131   2.354   9.106
 5837SOL    HW218048   2.014   2.444   9.139
 5838SOL     OW18049   3.242   2.798   9.106
 5838SOL    HW118050   3.263   2.891   9.103
 5838SOL    HW218051   3.238   2.771   9.014
 5839SOL     OW18052   3.502   2.463   8.630
 5839SOL    HW118053   3.491   2.403   8.704
 5839SOL    HW218054   3.588   2.442   8.595
 5840SOL     OW18055   2.103   3.410   9.172
 5840SOL    HW118056   2.081   3.477   9.237
 5840SOL    HW218057   2.108   3.329   9.221
 5841SOL     OW18058   2.566   2.315   8.707
 5841SOL    HW118059   2.526   2.235   8.673
 5841SOL    HW218060   2.560   2.377   8.635
 5842SOL     OW18061   2.788   3.533   8.918
 5842SOL    HW118062   2.762   3.494   8.834
 5842SOL    HW218063   2.779   3.628   8.904
 5843SOL     OW18064   2.005   3.004   8.922
 5843SOL    HW118065   2.007   2.955   9.004
 5843SOL    HW218066   2.023   2.939   8.854
 5844SOL     OW18067   3.183   2.906   8.669
 5844SOL    HW118068   3.206   2.843   8.601
 5844SOL    HW218069   3.116   2.961   8.629
 5845SOL     OW18070   3.179   2.716   7.753
 5845SOL    HW118071   3.100   2.693   7.803
 5845SOL    HW218072   3.154   2.706   7.662
 5846SOL     OW18073   3.640   3.601   8.604
 5846SOL    HW118074   3.698   3.628   8.532
 5846SOL    HW218075   3.612   3.513   8.581
 5847SOL     OW18076   3.106   3.595   8.557
 5847SOL    HW118077   3.189   3.617   8.514
 5847SOL    HW218078   3.113   3.502   8.576
 5848SOL     OW18079   1.948   3.128   8.459
 5848SOL    HW118080   1.932   3.143   8.552
 5848SOL    HW218081   1.874   3.074   8.430
 5849SOL     OW18082   2.541   3.527   9.182
 5849SOL    HW118083   2.484   3.604   9.186
 5849SOL    HW218084   2.602   3.547   9.111
 5850SOL     OW18085   3.570   2.013   7.959
 5850SOL    HW118086   3.639   2.002   7.893
 5850SOL    HW218087   3.561   1.927   7.999
 5851SOL     OW18088   3.253   3.431   7.937
 5851SOL    HW118089   3.311   3.464   7.869
 5851SOL    HW218090   3.204   3.507   7.967
 5852SOL     OW18091   1.997   3.651   9.286
 5852SOL    HW118092   1.946   3.587   9.335
 5852SOL    HW218093   2.046   3.700   9.354
 5853SOL     OW18094   3.140   2.789   8.119
 5853SOL    HW118095   3.215   2.730   8.128
 5853SOL    HW218096   3.174   2.861   8.066
 5854SOL     OW18097   2.671   3.137   8.875
 5854SOL    HW118098   2.643   3.177   8.957
 5854SOL    HW218099   2.601   3.159   8.813
 5855SOL     OW18100   2.537   3.482   7.607
 5855SOL    HW118101   2.547   3.500   7.513
 5855SOL    HW218102   2.478   3.406   7.610
 5856SOL     OW18103   3.480   3.589   8.838
 5856SOL    HW118104   3.536   3.592   8.760
 5856SOL    HW218105   3.468   3.681   8.862
 5857SOL     OW18106   3.700   2.043   8.414
 5857SOL    HW118107   3.731   1.956   8.390
 5857SOL    HW218108   3.613   2.050   8.373
 5858SOL     OW18109   3.069   3.465   7.485
 5858SOL    HW118110   3.059   3.373   7.509
 5858SOL    HW218111   3.009   3.478   7.412
 5859SOL     OW18112   2.686   2.868   8.821
 5859SOL    HW118113   2.730   2.864   8.737
 5859SOL    HW218114   2.683   2.962   8.842
 5860SOL     OW18115   2.793   2.783   7.759
 5860SOL    HW118116   2.840   2.814   7.681
 5860SOL    HW218117   2.845   2.709   7.791
 5861SOL     OW18118   3.349   3.496   7.491
 5861SOL    HW118119   3.256   3.482   7.474
 5861SOL    HW218120   3.388   3.500   7.404
 5862SOL     OW18121   2.231   3.166   8.939
 5862SOL    HW118122   2.216   3.243   8.884
 5862SOL    HW218123   2.153   3.112   8.924
 5863SOL     OW18124   3.461   3.141   8.725
 5863SOL    HW118125   3.531   3.133   8.791
 5863SOL    HW218126   3.405   3.211   8.759
 5864SOL     OW18127   2.919   2.972   8.159
 5864SOL    HW118128   2.847   2.920   8.195
 5864SOL    HW218129   2.982   2.907   8.127
 5865SOL     OW18130   2.885   2.104   8.419
 5865SOL    HW118131   2.890   2.057   8.336
 5865SOL    HW218132   2.880   2.036   8.486
 5866SOL     OW18133   2.466   3.351   7.928
 5866SOL    HW118134   2.515   3.301   7.863
 5866SOL    HW218135   2.399   3.397   7.877
 5867SOL     OW18136   3.587   2.251   8.826
 5867SOL    HW118137   3.659   2.314   8.823
 5867SOL    HW218138   3.615   2.179   8.770
 5868SOL     OW18139   2.120   3.203   7.733
 5868SOL    HW118140   2.027   3.205   7.712
 5868SOL    HW218141   2.125   3.240   7.821
 5869SOL     OW18142   1.975   2.889   9.170
 5869SOL    HW118143   1.899   2.864   9.221
 5869SOL    HW218144   2.049   2.849   9.215
 5870SOL     OW18145   2.542   2.058   8.948
 5870SOL    HW118146   2.627   2.035   8.910
 5870SOL    HW218147   2.562   2.089   9.036
 5871SOL     OW18148   1.890   2.272   7.496
 5871SOL    HW118149   1.879   2.184   7.462
 5871SOL    HW218150   1.917   2.324   7.420
 5872SOL     OW18151   3.287   2.720   8.847
 5872SOL    HW118152   3.238   2.781   8.793
 5872SOL    HW218153   3.376   2.722   8.810
 5873SOL     OW18154   3.040   3.199   7.566
 5873SOL    HW118155   2.954   3.156   7.567
 5873SOL    HW218156   3.068   3.198   7.658
 5874SOL     OW18157   2.482   2.692   8.881
 5874SOL    HW118158   2.537   2.769   8.867
 5874SOL    HW218159   2.543   2.619   8.890
 5875SOL     OW18160   3.347   3.644   8.431
 5875SOL    HW118161   3.371   3.699   8.356
 5875SOL    HW218162   3.431   3.611   8.464
 5876SOL     OW18163   2.580   2.420   9.149
 5876SOL    HW118164   2.622   2.482   9.209
 5876SOL    HW218165   2.601   2.334   9.184
 5877SOL     OW18166   3.335   3.059   9.078
 5877SOL    HW118167   3.325   3.073   9.172
 5877SOL    HW218168   3.428   3.074   9.061
 5878SOL     OW18169   2.236   3.603   9.014
 5878SOL    HW118170   2.152   3.646   8.997
 5878SOL    HW218171   2.213   3.520   9.055
 5879SOL     OW18172   3.526   2.742   8.707
 5879SOL    HW118173   3.525   2.657   8.663
 5879SOL    HW218174   3.519   2.805   8.635
 5880SOL     OW18175   3.085   2.182   7.905
 5880SOL    HW118176   3.148   2.110   7.898
 5880SOL    HW218177   3.115   2.231   7.982
 5881SOL     OW18178   2.456   2.590   8.112
 5881SOL    HW118179   2.493   2.678   8.104
 5881SOL    HW218180   2.383   2.589   8.050
 5882SOL     OW18181   3.620   2.228   9.098
 5882SOL    HW118182   3.603   2.241   9.005
 5882SOL    HW218183   3.549   2.170   9.127
 5883SOL     OW18184   3.619   2.789   8.961
 5883SOL    HW118185   3.609   2.883   8.979
 5883SOL    HW218186   3.594   2.780   8.869
 5884SOL     OW18187   2.720   3.241   7.484
 5884SOL    HW118188   2.687   3.267   7.570
 5884SOL    HW218189   2.744   3.324   7.442
 5885SOL     OW18190   2.523   3.650   8.386
 5885SOL    HW118191   2.502   3.741   8.366
 5885SOL    HW218192   2.618   3.645   8.382
 5886SOL     OW18193   2.730   2.830   8.303
 5886SOL    HW118194   2.782   2.759   8.341
 5886SOL    HW218195   2.694   2.877   8.378
 5887SOL     OW18196   2.952   2.869   7.548
 5887SOL    HW118197   2.915   2.904   7.467
 5887SOL    HW218198   3.015   2.804   7.518
 5888SOL     OW18199   3.711   3.416   8.288
 5888SOL    HW118200   3.632   3.397   8.238
 5888SOL    HW218201   3.715   3.348   8.355
 5889SOL     OW18202   2.088   3.162   9.303
 5889SOL    HW118203   2.023   3.100   9.271
 5889SOL    HW218204   2.066   3.175   9.395
 5890SOL     OW18205   1.950   3.092   8.113
 5890SOL    HW118206   1.955   3.046   8.197
 5890SOL    HW218207   2.017   3.052   8.059
 5891SOL     OW18208   2.546   3.267   9.078
 5891SOL    HW118209   2.466   3.225   9.110
 5891SOL    HW218210   2.543   3.355   9.116
 5892SOL     OW18211   3.673   2.039   8.686
 5892SOL    HW118212   3.666   1.944   8.688
 5892SOL    HW218213   3.689   2.060   8.594
 5893SOL     OW18214   2.297   2.293   7.976
 5893SOL    HW118215   2.305   2.219   7.915
 5893SOL    HW218216   2.220   2.273   8.029
 5894SOL     OW18217   3.557   3.352   8.544
 5894SOL    HW118218   3.479   3.328   8.494
 5894SOL    HW218219   3.568   3.280   8.607
 5895SOL     OW18220   2.196   2.414   8.738
 5895SOL    HW118221   2.243   2.357   8.799
 5895SOL    HW218222   2.212   2.377   8.652
 5896SOL     OW18223   2.691   3.441   8.125
 5896SOL    HW118224   2.672   3.494   8.047
 5896SOL    HW218225   2.617   3.380   8.131
 5897SOL     OW18226   3.292   2.090   8.565
 5897SOL    HW118227   3.314   2.008   8.609
 5897SOL    HW218228   3.241   2.139   8.630
 5898SOL     OW18229   2.871   1.879   8.588
 5898SOL    HW118230   2.818   1.813   8.544
 5898SOL    HW218231   2.959   1.842   8.590
 5899SOL     OW18232   2.635   3.196   7.769
 5899SOL    HW118233   2.606   3.105   7.774
 5899SOL    HW218234   2.720   3.197   7.814
 5900SOL     OW18235   2.482   3.415   8.733
 5900SOL    HW118236   2.482   3.496   8.783
 5900SOL    HW218237   2.570   3.409   8.696
 5901SOL     OW18238   3.231   1.924   7.613
 5901SOL    HW118239   3.258   1.860   7.547
 5901SOL    HW218240   3.142   1.898   7.637
 5902SOL     OW18241   3.157   2.324   8.127
 5902SOL    HW118242   3.106   2.405   8.135
 5902SOL    HW218243   3.154   2.287   8.215
 5903SOL     OW18244   3.442   2.059   8.326
 5903SOL    HW118245   3.388   2.084   8.401
 5903SOL    HW218246   3.445   2.137   8.271
 5904SOL     OW18247   1.889   2.946   7.761
 5904SOL    HW118248   1.983   2.932   7.773
 5904SOL    HW218249   1.855   2.862   7.732
 5905SOL     OW18250   2.749   3.522   7.791
 5905SOL    HW118251   2.677   3.504   7.730
 5905SOL    HW218252   2.718   3.597   7.842
 5906SOL     OW18253   2.084   2.475   9.439
 5906SOL    HW118254   1.993   2.482   9.468
 5906SOL    HW218255   2.079   2.449   9.347
 5907SOL     OW18256   1.856   2.291   9.931
 5907SOL    HW118257   1.770   2.290   9.973
 5907SOL    HW218258   1.854   2.219   9.869
 5908SOL     OW18259   2.429   3.155  10.489
 5908SOL    HW118260   2.343   3.161  10.449
 5908SOL    HW218261   2.446   3.244  10.523
 5909SOL     OW18262   3.426   3.374  10.019
 5909SOL    HW118263   3.384   3.351  10.102
 5909SOL    HW218264   3.355   3.378   9.956
 5910SOL     OW18265   2.992   2.561  10.007
 5910SOL    HW118266   3.042   2.642   9.994
 5910SOL    HW218267   2.946   2.574  10.090
 5911SOL     OW18268   3.630   2.467   9.539
 5911SOL    HW118269   3.609   2.459   9.446
 5911SOL    HW218270   3.595   2.387   9.578
 5912SOL     OW18271   2.611   3.001  10.354
 5912SOL    HW118272   2.544   3.038  10.412
 5912SOL    HW218273   2.650   3.077  10.311
 5913SOL     OW18274   2.733   2.628  11.132
 5913SOL    HW118275   2.720   2.698  11.196
 5913SOL    HW218276   2.756   2.673  11.051
 5914SOL     OW18277   2.547   2.859   9.955
 5914SOL    HW118278   2.613   2.852  10.024
 5914SOL    HW218279   2.479   2.914   9.994
 5915SOL     OW18280   2.575   3.012  11.126
 5915SOL    HW118281   2.622   3.090  11.155
 5915SOL    HW218282   2.494   3.046  11.088
 5916SOL     OW18283   2.193   3.282  10.377
 5916SOL    HW118284   2.119   3.245  10.329
 5916SOL    HW218285   2.240   3.335  10.312
 5917SOL     OW18286   3.320   3.363  10.668
 5917SOL    HW118287   3.375   3.442  10.678
 5917SOL    HW218288   3.254   3.372  10.736
 5918SOL     OW18289   2.294   2.234  10.776
 5918SOL    HW118290   2.384   2.206  10.793
 5918SOL    HW218291   2.240   2.162  10.808
 5919SOL     OW18292   3.471   2.307  10.054
 5919SOL    HW118293   3.399   2.328   9.995
 5919SOL    HW218294   3.481   2.385  10.109
 5920SOL     OW18295   2.084   3.578   9.789
 5920SOL    HW118296   2.113   3.638   9.857
 5920SOL    HW218297   2.156   3.575   9.726
 5921SOL     OW18298   2.999   3.204  11.004
 5921SOL    HW118299   3.040   3.197  11.090
 5921SOL    HW218300   2.947   3.124  10.996
 5922SOL     OW18301   2.092   3.304   9.846
 5922SOL    HW118302   2.074   3.398   9.849
 5922SOL    HW218303   2.033   3.266   9.911
 5923SOL     OW18304   2.125   2.954  10.201
 5923SOL    HW118305   2.120   2.867  10.241
 5923SOL    HW218306   2.067   3.008  10.255
 5924SOL     OW18307   2.469   3.648  10.738
 5924SOL    HW118308   2.387   3.633  10.786
 5924SOL    HW218309   2.495   3.736  10.762
 5925SOL     OW18310   2.444   2.846   9.447
 5925SOL    HW118311   2.492   2.892   9.378
 5925SOL    HW218312   2.483   2.877   9.529
 5926SOL     OW18313   3.456   1.988  10.775
 5926SOL    HW118314   3.473   2.070  10.728
 5926SOL    HW218315   3.441   2.016  10.866
 5927SOL     OW18316   1.986   2.526   9.871
 5927SOL    HW118317   1.947   2.440   9.888
 5927SOL    HW218318   1.975   2.575   9.952
 5928SOL     OW18319   3.700   3.612   9.652
 5928SOL    HW118320   3.771   3.587   9.710
 5928SOL    HW218321   3.718   3.703   9.629
 5929SOL     OW18322   1.893   3.452   9.431
 5929SOL    HW118323   1.877   3.360   9.452
 5929SOL    HW218324   1.872   3.499   9.512
 5930SOL     OW18325   3.551   2.782   9.958
 5930SOL    HW118326   3.634   2.738   9.939
 5930SOL    HW218327   3.531   2.831   9.878
 5931SOL     OW18328   3.504   2.966   9.742
 5931SOL    HW118329   3.589   2.970   9.698
 5931SOL    HW218330   3.510   3.029   9.813
 5932SOL     OW18331   1.983   2.605  10.895
 5932SOL    HW118332   2.074   2.631  10.904
 5932SOL    HW218333   1.933   2.686  10.903
 5933SOL     OW18334   2.478   3.252  10.044
 5933SOL    HW118335   2.433   3.168  10.054
 5933SOL    HW218336   2.461   3.279   9.954
 5934SOL     OW18337   3.148   3.098  10.732
 5934SOL    HW118338   3.180   3.031  10.672
 5934SOL    HW218339   3.208   3.094  10.807
 5935SOL     OW18340   2.677   1.866   9.820
 5935SOL    HW118341   2.717   1.950   9.798
 5935SOL    HW218342   2.583   1.885   9.826
 5936SOL     OW18343   2.052   2.827  10.585
 5936SOL    HW118344   2.136   2.785  10.570
 5936SOL    HW218345   1.989   2.774  10.536
 5937SOL     OW18346   3.389   2.859   9.511
 5937SOL    HW118347   3.320   2.802   9.544
 5937SOL    HW218348   3.432   2.894   9.589
 5938SOL     OW18349   3.082   3.667  10.938
 5938SOL    HW118350   3.056   3.727  10.868
 5938SOL    HW218351   3.083   3.581  10.896
 5939SOL     OW18352   2.268   2.168  11.118
 5939SOL    HW118353   2.317   2.229  11.171
 5939SOL    HW218354   2.177   2.198  11.124
 5940SOL     OW18355   3.327   3.282  10.258
 5940SOL    HW118356   3.261   3.297  10.326
 5940SOL    HW218357   3.316   3.190  10.233
 5941SOL     OW18358   3.508   3.607   9.890
 5941SOL    HW118359   3.500   3.572   9.802
 5941SOL    HW218360   3.492   3.532   9.947
 5942SOL     OW18361   2.457   2.581   9.579
 5942SOL    HW118362   2.461   2.664   9.531
 5942SOL    HW218363   2.392   2.596   9.647
 5943SOL     OW18364   3.139   2.222  10.244
 5943SOL    HW118365   3.051   2.187  10.252
 5943SOL    HW218366   3.192   2.168  10.302
 5944SOL     OW18367   3.435   3.539   9.618
 5944SOL    HW118368   3.528   3.562   9.614
 5944SOL    HW218369   3.411   3.519   9.528
 5945SOL     OW18370   2.653   2.480  10.758
 5945SOL    HW118371   2.629   2.454  10.847
 5945SOL    HW218372   2.616   2.411  10.702
 5946SOL     OW18373   3.255   2.336  10.988
 5946SOL    HW118374   3.259   2.380  11.073
 5946SOL    HW218375   3.313   2.260  10.998
 5947SOL     OW18376   2.813   2.748  10.895
 5947SOL    HW118377   2.868   2.679  10.857
 5947SOL    HW218378   2.766   2.784  10.820
 5948SOL     OW18379   2.855   2.274  10.546
 5948SOL    HW118380   2.767   2.292  10.579
 5948SOL    HW218381   2.841   2.229  10.462
 5949SOL     OW18382   2.915   2.560   9.735
 5949SOL    HW118383   2.932   2.554   9.829
 5949SOL    HW218384   2.832   2.515   9.723
 5950SOL     OW18385   1.950   2.686  10.088
 5950SOL    HW118386   2.031   2.681  10.139
 5950SOL    HW218387   1.905   2.764  10.123
 5951SOL     OW18388   1.981   3.711  10.887
 5951SOL    HW118389   1.986   3.690  10.980
 5951SOL    HW218390   1.889   3.703  10.865
 5952SOL     OW18391   2.758   2.215   9.508
 5952SOL    HW118392   2.801   2.274   9.446
 5952SOL    HW218393   2.754   2.131   9.463
 5953SOL     OW18394   3.570   2.435  11.139
 5953SOL    HW118395   3.533   2.508  11.090
 5953SOL    HW218396   3.595   2.371  11.072
 5954SOL     OW18397   3.239   3.003   9.850
 5954SOL    HW118398   3.319   2.991   9.799
 5954SOL    HW218399   3.187   3.066   9.799
 5955SOL     OW18400   2.414   2.053  10.203
 5955SOL    HW118401   2.409   2.072  10.297
 5955SOL    HW218402   2.431   2.138  10.162
 5956SOL     OW18403   2.864   3.307   9.780
 5956SOL    HW118404   2.829   3.381   9.731
 5956SOL    HW218405   2.843   3.326   9.871
 5957SOL     OW18406   2.213   3.674  10.148
 5957SOL    HW118407   2.263   3.594  10.167
 5957SOL    HW218408   2.272   3.746  10.172
 5958SOL     OW18409   3.668   2.923  10.178
 5958SOL    HW118410   3.615   2.896  10.103
 5958SOL    HW218411   3.606   2.926  10.251
 5959SOL     OW18412   3.089   3.399  10.822
 5959SOL    HW118413   3.076   3.327  10.883
 5959SOL    HW218414   3.021   3.386  10.755
 5960SOL     OW18415   2.179   2.822   9.563
 5960SOL    HW118416   2.261   2.841   9.518
 5960SOL    HW218417   2.149   2.740   9.524
 5961SOL     OW18418   3.342   2.609  10.035
 5961SOL    HW118419   3.337   2.568  10.121
 5961SOL    HW218420   3.420   2.664  10.039
 5962SOL     OW18421   2.330   3.128  11.047
 5962SOL    HW118422   2.304   3.133  10.955
 5962SOL    HW218423   2.248   3.125  11.096
 5963SOL     OW18424   2.976   3.644   9.531
 5963SOL    HW118425   2.911   3.598   9.585
 5963SOL    HW218426   3.007   3.577   9.469
 5964SOL     OW18427   3.486   3.247   9.399
 5964SOL    HW118428   3.443   3.331   9.381
 5964SOL    HW218429   3.420   3.181   9.379
 5965SOL     OW18430   2.328   3.598   9.635
 5965SOL    HW118431   2.367   3.662   9.695
 5965SOL    HW218432   2.401   3.572   9.578
 5966SOL     OW18433   3.263   1.969   9.748
 5966SOL    HW118434   3.256   1.944   9.656
 5966SOL    HW218435   3.357   1.975   9.764
 5967SOL     OW18436   2.122   3.653  10.532
 5967SOL    HW118437   2.169   3.582  10.577
 5967SOL    HW218438   2.107   3.619  10.444
 5968SOL     OW18439   2.800   3.564  10.209
 5968SOL    HW118440   2.877   3.512  10.231
 5968SOL    HW218441   2.757   3.514  10.140
 5969SOL     OW18442   2.258   2.556   9.784
 5969SOL    HW118443   2.276   2.463   9.796
 5969SOL    HW218444   2.164   2.565   9.802
 5970SOL     OW18445   3.394   2.087  11.035
 5970SOL    HW118446   3.404   2.107  11.128
 5970SOL    HW218447   3.326   2.019  11.032
 5971SOL     OW18448   2.516   1.982   9.421
 5971SOL    HW118449   2.573   1.907   9.435
 5971SOL    HW218450   2.455   1.953   9.352
 5972SOL     OW18451   2.626   2.140  11.067
 5972SOL    HW118452   2.706   2.087  11.063
 5972SOL    HW218453   2.578   2.107  11.143
 5973SOL     OW18454   2.738   3.383  10.505
 5973SOL    HW118455   2.721   3.346  10.418
 5973SOL    HW218456   2.808   3.328  10.540
 5974SOL     OW18457   3.201   2.451  10.743
 5974SOL    HW118458   3.233   2.420  10.828
 5974SOL    HW218459   3.238   2.539  10.735
 5975SOL     OW18460   2.679   3.253  10.254
 5975SOL    HW118461   2.764   3.241  10.210
 5975SOL    HW218462   2.616   3.258  10.182
 5976SOL     OW18463   2.789   2.370  10.211
 5976SOL    HW118464   2.765   2.362  10.119
 5976SOL    HW218465   2.822   2.283  10.236
 5977SOL     OW18466   2.409   1.928   9.812
 5977SOL    HW118467   2.351   1.942   9.887
 5977SOL    HW218468   2.394   2.004   9.756
 5978SOL     OW18469   3.290   3.062   9.350
 5978SOL    HW118470   3.320   2.987   9.400
 5978SOL    HW218471   3.204   3.083   9.387
 5979SOL     OW18472   2.803   2.111   9.767
 5979SOL    HW118473   2.778   2.150   9.683
 5979SOL    HW218474   2.897   2.125   9.774
 5980SOL     OW18475   2.943   2.545  10.768
 5980SOL    HW118476   2.877   2.475  10.773
 5980SOL    HW218477   3.027   2.499  10.762
 5981SOL     OW18478   3.082   3.433  10.104
 5981SOL    HW118479   3.098   3.500  10.038
 5981SOL    HW218480   3.152   3.446  10.168
 5982SOL     OW18481   2.334   3.014  10.039
 5982SOL    HW118482   2.266   2.995  10.104
 5982SOL    HW218483   2.291   3.000   9.955
 5983SOL     OW18484   3.127   3.656   9.919
 5983SOL    HW118485   3.174   3.721   9.867
 5983SOL    HW218486   3.054   3.704   9.957
 5984SOL     OW18487   2.885   2.399   9.335
 5984SOL    HW118488   2.842   2.482   9.316
 5984SOL    HW218489   2.950   2.421   9.401
 5985SOL     OW18490   1.940   2.424  10.696
 5985SOL    HW118491   2.033   2.420  10.675
 5985SOL    HW218492   1.934   2.488  10.767
 5986SOL     OW18493   2.411   2.081  10.481
 5986SOL    HW118494   2.463   2.005  10.508
 5986SOL    HW218495   2.330   2.074  10.531
 5987SOL     OW18496   2.725   2.319   9.949
 5987SOL    HW118497   2.685   2.375   9.883
 5987SOL    HW218498   2.751   2.240   9.900
 5988SOL     OW18499   2.876   1.917  10.060
 5988SOL    HW118500   2.820   1.909   9.983
 5988SOL    HW218501   2.854   1.841  10.113
 5989SOL     OW18502   3.302   3.023  10.167
 5989SOL    HW118503   3.231   2.959  10.166
 5989SOL    HW218504   3.327   3.032  10.075
 5990SOL     OW18505   3.327   2.471  10.282
 5990SOL    HW118506   3.274   2.392  10.284
 5990SOL    HW218507   3.385   2.463  10.357
 5991SOL     OW18508   3.723   2.678   9.685
 5991SOL    HW118509   3.767   2.622   9.749
 5991SOL    HW218510   3.686   2.616   9.621
 5992SOL     OW18511   2.352   3.281   9.463
 5992SOL    HW118512   2.276   3.254   9.515
 5992SOL    HW218513   2.341   3.236   9.379
 5993SOL     OW18514   3.530   3.127   9.953
 5993SOL    HW118515   3.625   3.129   9.963
 5993SOL    HW218516   3.502   3.216   9.974
 5994SOL     OW18517   3.256   2.434   9.381
 5994SOL    HW118518   3.194   2.414   9.451
 5994SOL    HW218519   3.340   2.402   9.414
 5995SOL     OW18520   2.385   2.127   9.625
 5995SOL    HW118521   2.433   2.076   9.559
 5995SOL    HW218522   2.361   2.208   9.579
 5996SOL     OW18523   3.613   3.096  10.874
 5996SOL    HW118524   3.700   3.061  10.857
 5996SOL    HW218525   3.628   3.186  10.903
 5997SOL     OW18526   2.918   3.214  10.642
 5997SOL    HW118527   2.843   3.183  10.693
 5997SOL    HW218528   2.994   3.173  10.683
 5998SOL     OW18529   3.469   3.492  10.967
 5998SOL    HW118530   3.459   3.525  10.878
 5998SOL    HW218531   3.549   3.439  10.965
 5999SOL     OW18532   2.994   3.069  10.413
 5999SOL    HW118533   2.935   3.107  10.478
 5999SOL    HW218534   2.963   3.103  10.329
 6000SOL     OW18535   3.489   2.957  10.384
 6000SOL    HW118536   3.480   3.019  10.457
 6000SOL    HW218537   3.413   2.974  10.329
 6001SOL     OW18538   2.779   1.958  10.703
 6001SOL    HW118539   2.803   1.938  10.612
 6001SOL    HW218540   2.858   1.997  10.740
 6002SOL     OW18541   2.846   2.977  11.033
 6002SOL    HW118542   2.755   2.993  11.056
 6002SOL    HW218543   2.843   2.898  10.978
 6003SOL     OW18544   2.572   2.924   9.681
 6003SOL    HW118545   2.557   2.905   9.774
 6003SOL    HW218546   2.647   2.870   9.657
 6004SOL     OW18547   2.281   2.676  10.561
 6004SOL    HW118548   2.349   2.688  10.628
 6004SOL    HW218549   2.248   2.588  10.577
 6005SOL     OW18550   3.126   2.238  10.589
 6005SOL    HW118551   3.159   2.315  10.634
 6005SOL    HW218552   3.036   2.259  10.567
 6006SOL     OW18553   1.935   3.435  10.664
 6006SOL    HW118554   1.908   3.510  10.612
 6006SOL    HW218555   2.031   3.436  10.659
 6007SOL     OW18556   2.204   2.977   9.799
 6007SOL    HW118557   2.209   3.050   9.739
 6007SOL    HW218558   2.202   2.899   9.743
 6008SOL     OW18559   2.407   2.395  10.172
 6008SOL    HW118560   2.420   2.453  10.097
 6008SOL    HW218561   2.474   2.421  10.235
 6009SOL     OW18562   3.109   3.211   9.699
 6009SOL    HW118563   3.165   3.282   9.731
 6009SOL    HW218564   3.022   3.233   9.733
 6010SOL     OW18565   3.148   3.322  10.458
 6010SOL    HW118566   3.204   3.326  10.536
 6010SOL    HW218567   3.093   3.245  10.472
 6011SOL     OW18568   3.439   2.481   9.793
 6011SOL    HW118569   3.391   2.533   9.858
 6011SOL    HW218570   3.481   2.546   9.737
 6012SOL     OW18571   2.207   3.392  10.621
 6012SOL    HW118572   2.196   3.347  10.537
 6012SOL    HW218573   2.302   3.403  10.630
 6013SOL     OW18574   2.277   2.610  10.913
 6013SOL    HW118575   2.341   2.652  10.855
 6013SOL    HW218576   2.319   2.528  10.939
 6014SOL     OW18577   3.467   2.641  10.994
 6014SOL    HW118578   3.382   2.684  10.988
 6014SOL    HW218579   3.520   2.684  10.926
 6015SOL     OW18580   2.857   1.991  11.061
 6015SOL    HW118581   2.916   2.063  11.040
 6015SOL    HW218582   2.905   1.912  11.037
 6016SOL     OW18583   2.371   1.907  11.063
 6016SOL    HW118584   2.313   1.856  11.006
 6016SOL    HW218585   2.330   1.993  11.068
 6017SOL     OW18586   2.447   2.735  10.343
 6017SOL    HW118587   2.480   2.825  10.342
 6017SOL    HW218588   2.390   2.730  10.419
 6018SOL     OW18589   3.214   2.721  10.334
 6018SOL    HW118590   3.130   2.708  10.292
 6018SOL    HW218591   3.259   2.637  10.327
 6019SOL     OW18592   3.063   2.390   9.573
 6019SOL    HW118593   3.071   2.311   9.628
 6019SOL    HW218594   3.021   2.454   9.630
 6020SOL     OW18595   1.908   3.173  10.585
 6020SOL    HW118596   1.940   3.118  10.656
 6020SOL    HW218597   1.914   3.263  10.619
 6021SOL     OW18598   2.581   2.489  10.364
 6021SOL    HW118599   2.659   2.475  10.310
 6021SOL    HW218600   2.555   2.579  10.346
 6022SOL     OW18601   3.592   2.821  11.172
 6022SOL    HW118602   3.552   2.755  11.116
 6022SOL    HW218603   3.528   2.835  11.242
 6023SOL     OW18604   3.482   2.239   9.673
 6023SOL    HW118605   3.509   2.174   9.738
 6023SOL    HW218606   3.459   2.316   9.725
 6024SOL     OW18607   2.889   2.620  10.269
 6024SOL    HW118608   2.883   2.637  10.363
 6024SOL    HW218609   2.864   2.528  10.259
 6025SOL     OW18610   2.847   3.430  11.031
 6025SOL    HW118611   2.828   3.471  10.947
 6025SOL    HW218612   2.889   3.347  11.009
 6026SOL     OW18613   3.704   3.359  10.907
 6026SOL    HW118614   3.729   3.390  10.820
 6026SOL    HW218615   3.784   3.368  10.959
 6027SOL     OW18616   2.214   2.779  11.122
 6027SOL    HW118617   2.296   2.798  11.166
 6027SOL    HW218618   2.238   2.718  11.052
 6028SOL     OW18619   3.390   2.134   9.437
 6028SOL    HW118620   3.326   2.069   9.464
 6028SOL    HW218621   3.424   2.170   9.519
 6029SOL     OW18622   3.150   2.686   9.339
 6029SOL    HW118623   3.194   2.601   9.343
 6029SOL    HW218624   3.183   2.726   9.258
 6030SOL     OW18625   2.929   3.199  10.165
 6030SOL    HW118626   2.934   3.127  10.103
 6030SOL    HW218627   2.989   3.265  10.130
 6031SOL     OW18628   2.171   2.673  10.256
 6031SOL    HW118629   2.264   2.694  10.247
 6031SOL    HW218630   2.171   2.585  10.294
 6032SOL     OW18631   2.183   2.366  10.319
 6032SOL    HW118632   2.142   2.295  10.271
 6032SOL    HW218633   2.265   2.382  10.272
 6033SOL     OW18634   2.996   2.236  10.994
 6033SOL    HW118635   2.948   2.290  11.057
 6033SOL    HW218636   3.083   2.275  10.990
 6034SOL     OW18637   3.022   2.062  10.781
 6034SOL    HW118638   3.011   2.125  10.852
 6034SOL    HW218639   3.064   2.112  10.711
 6035SOL     OW18640   1.868   3.180   9.505
 6035SOL    HW118641   1.781   3.195   9.468
 6035SOL    HW218642   1.864   3.091   9.539
 6036SOL     OW18643   1.959   3.639  10.248
 6036SOL    HW118644   1.928   3.561  10.203
 6036SOL    HW218645   2.044   3.658  10.208
 6037SOL     OW18646   2.355   3.438  10.215
 6037SOL    HW118647   2.422   3.501  10.239
 6037SOL    HW218648   2.400   3.376  10.158
 6038SOL     OW18649   2.839   2.650  10.535
 6038SOL    HW118650   2.899   2.631  10.606
 6038SOL    HW218651   2.755   2.615  10.564
 6039SOL     OW18652   1.901   2.397  10.427
 6039SOL    HW118653   1.986   2.403  10.383
 6039SOL    HW218654   1.922   2.410  10.520
 6040SOL     OW18655   2.070   2.383  11.042
 6040SOL    HW118656   2.121   2.354  10.967
 6040SOL    HW218657   2.008   2.446  11.006
 6041SOL     OW18658   3.242   2.798  10.968
 6041SOL    HW118659   3.263   2.891  10.965
 6041SOL    HW218660   3.238   2.771  10.876
 6042SOL     OW18661   2.678   2.432   9.677
 6042SOL    HW118662   2.686   2.359   9.616
 6042SOL    HW218663   2.605   2.483   9.644
 6043SOL     OW18664   3.502   2.463  10.493
 6043SOL    HW118665   3.491   2.403  10.566
 6043SOL    HW218666   3.588   2.443  10.457
 6044SOL     OW18667   2.103   3.410  11.034
 6044SOL    HW118668   2.081   3.477  11.099
 6044SOL    HW218669   2.108   3.329  11.084
 6045SOL     OW18670   2.566   2.308  10.566
 6045SOL    HW118671   2.511   2.235  10.538
 6045SOL    HW218672   2.561   2.371  10.495
 6046SOL     OW18673   2.788   3.533  10.780
 6046SOL    HW118674   2.762   3.494  10.696
 6046SOL    HW218675   2.780   3.628  10.766
 6047SOL     OW18676   2.326   2.355   9.488
 6047SOL    HW118677   2.383   2.427   9.515
 6047SOL    HW218678   2.239   2.395   9.480
 6048SOL     OW18679   2.005   3.004  10.784
 6048SOL    HW118680   2.007   2.955  10.866
 6048SOL    HW218681   2.023   2.939  10.716
 6049SOL     OW18682   3.183   2.906  10.531
 6049SOL    HW118683   3.206   2.843  10.463
 6049SOL    HW218684   3.116   2.961  10.491
 6050SOL     OW18685   3.175   2.718   9.615
 6050SOL    HW118686   3.101   2.687   9.666
 6050SOL    HW218687   3.149   2.704   9.524
 6051SOL     OW18688   3.640   3.601  10.466
 6051SOL    HW118689   3.698   3.628  10.394
 6051SOL    HW218690   3.612   3.513  10.442
 6052SOL     OW18691   3.106   3.595  10.418
 6052SOL    HW118692   3.189   3.617  10.376
 6052SOL    HW218693   3.113   3.502  10.438
 6053SOL     OW18694   1.948   3.128  10.321
 6053SOL    HW118695   1.932   3.142  10.414
 6053SOL    HW218696   1.874   3.073  10.292
 6054SOL     OW18697   2.541   3.527  11.044
 6054SOL    HW118698   2.484   3.604  11.048
 6054SOL    HW218699   2.602   3.547  10.973
 6055SOL     OW18700   3.571   2.013   9.821
 6055SOL    HW118701   3.639   2.001   9.755
 6055SOL    HW218702   3.560   1.927   9.861
 6056SOL     OW18703   3.252   3.430   9.798
 6056SOL    HW118704   3.311   3.464   9.731
 6056SOL    HW218705   3.204   3.507   9.829
 6057SOL     OW18706   1.997   3.651  11.148
 6057SOL    HW118707   1.945   3.587  11.197
 6057SOL    HW218708   2.046   3.700  11.216
 6058SOL     OW18709   3.139   2.789   9.981
 6058SOL    HW118710   3.213   2.729   9.991
 6058SOL    HW218711   3.173   2.861   9.928
 6059SOL     OW18712   2.671   3.137  10.737
 6059SOL    HW118713   2.643   3.177  10.819
 6059SOL    HW218714   2.601   3.159  10.675
 6060SOL     OW18715   2.536   3.480   9.468
 6060SOL    HW118716   2.546   3.498   9.375
 6060SOL    HW218717   2.477   3.405   9.472
 6061SOL     OW18718   3.480   3.589  10.700
 6061SOL    HW118719   3.536   3.592  10.622
 6061SOL    HW218720   3.468   3.681  10.724
 6062SOL     OW18721   3.700   2.043  10.277
 6062SOL    HW118722   3.731   1.956  10.252
 6062SOL    HW218723   3.614   2.050  10.236
 6063SOL     OW18724   3.070   3.465   9.346
 6063SOL    HW118725   3.059   3.373   9.370
 6063SOL    HW218726   3.008   3.478   9.274
 6064SOL     OW18727   2.686   2.868  10.683
 6064SOL    HW118728   2.730   2.864  10.599
 6064SOL    HW218729   2.683   2.962  10.704
 6065SOL     OW18730   2.778   2.772   9.601
 6065SOL    HW118731   2.839   2.805   9.534
 6065SOL    HW218732   2.828   2.704   9.646
 6066SOL     OW18733   3.349   3.495   9.353
 6066SOL    HW118734   3.256   3.482   9.336
 6066SOL    HW218735   3.389   3.499   9.265
 6067SOL     OW18736   2.231   3.166  10.801
 6067SOL    HW118737   2.217   3.243  10.746
 6067SOL    HW218738   2.153   3.112  10.786
 6068SOL     OW18739   3.462   3.141  10.587
 6068SOL    HW118740   3.530   3.133  10.653
 6068SOL    HW218741   3.405   3.211  10.621
 6069SOL     OW18742   2.919   2.971  10.019
 6069SOL    HW118743   2.847   2.920  10.056
 6069SOL    HW218744   2.983   2.905   9.991
 6070SOL     OW18745   2.884   2.103  10.277
 6070SOL    HW118746   2.880   2.056  10.193
 6070SOL    HW218747   2.880   2.034  10.343
 6071SOL     OW18748   2.467   3.353   9.789
 6071SOL    HW118749   2.514   3.302   9.723
 6071SOL    HW218750   2.397   3.396   9.741
 6072SOL     OW18751   3.587   2.251  10.688
 6072SOL    HW118752   3.659   2.314  10.685
 6072SOL    HW218753   3.615   2.179  10.632
 6073SOL     OW18754   2.123   3.205   9.601
 6073SOL    HW118755   2.030   3.202   9.577
 6073SOL    HW218756   2.124   3.244   9.688
 6074SOL     OW18757   1.975   2.889  11.031
 6074SOL    HW118758   1.898   2.864  11.083
 6074SOL    HW218759   2.049   2.849  11.077
 6075SOL     OW18760   2.538   2.060  10.810
 6075SOL    HW118761   2.622   2.037  10.770
 6075SOL    HW218762   2.561   2.090  10.898
 6076SOL     OW18763   3.288   2.720  10.709
 6076SOL    HW118764   3.238   2.781  10.655
 6076SOL    HW218765   3.376   2.722  10.672
 6077SOL     OW18766   3.040   3.198   9.427
 6077SOL    HW118767   2.949   3.169   9.429
 6077SOL    HW218768   3.066   3.198   9.519
 6078SOL     OW18769   2.482   2.692  10.744
 6078SOL    HW118770   2.538   2.769  10.729
 6078SOL    HW218771   2.542   2.619  10.751
 6079SOL     OW18772   3.347   3.644  10.293
 6079SOL    HW118773   3.371   3.699  10.218
 6079SOL    HW218774   3.431   3.612  10.326
 6080SOL     OW18775   2.578   2.421  11.011
 6080SOL    HW118776   2.622   2.482  11.070
 6080SOL    HW218777   2.601   2.335  11.045
 6081SOL     OW18778   3.335   3.059  10.940
 6081SOL    HW118779   3.325   3.073  11.034
 6081SOL    HW218780   3.428   3.074  10.923
 6082SOL     OW18781   2.236   3.603  10.876
 6082SOL    HW118782   2.152   3.645  10.859
 6082SOL    HW218783   2.213   3.519  10.917
 6083SOL     OW18784   3.526   2.742  10.569
 6083SOL    HW118785   3.525   2.657  10.526
 6083SOL    HW218786   3.519   2.805  10.497
 6084SOL     OW18787   3.078   2.181   9.767
 6084SOL    HW118788   3.140   2.109   9.760
 6084SOL    HW218789   3.107   2.230   9.844
 6085SOL     OW18790   2.446   2.597   9.984
 6085SOL    HW118791   2.489   2.682   9.970
 6085SOL    HW218792   2.383   2.589   9.913
 6086SOL     OW18793   3.620   2.228  10.960
 6086SOL    HW118794   3.603   2.241  10.867
 6086SOL    HW218795   3.549   2.170  10.989
 6087SOL     OW18796   3.619   2.790  10.823
 6087SOL    HW118797   3.609   2.883  10.841
 6087SOL    HW218798   3.594   2.780  10.731
 6088SOL     OW18799   2.726   3.229   9.350
 6088SOL    HW118800   2.685   3.257   9.432
 6088SOL    HW218801   2.741   3.310   9.302
 6089SOL     OW18802   2.523   3.650  10.248
 6089SOL    HW118803   2.502   3.741  10.228
 6089SOL    HW218804   2.618   3.645  10.244
 6090SOL     OW18805   2.731   2.831  10.164
 6090SOL    HW118806   2.781   2.759  10.202
 6090SOL    HW218807   2.694   2.877  10.240
 6091SOL     OW18808   2.940   2.851   9.399
 6091SOL    HW118809   2.919   2.902   9.321
 6091SOL    HW218810   3.014   2.796   9.372
 6092SOL     OW18811   3.711   3.416  10.150
 6092SOL    HW118812   3.631   3.397  10.101
 6092SOL    HW218813   3.715   3.348  10.217
 6093SOL     OW18814   2.088   3.162  11.165
 6093SOL    HW118815   2.023   3.100  11.133
 6093SOL    HW218816   2.067   3.175  11.258
 6094SOL     OW18817   1.949   3.092   9.975
 6094SOL    HW118818   1.958   3.047  10.059
 6094SOL    HW218819   2.016   3.053   9.919
 6095SOL     OW18820   2.546   3.267  10.940
 6095SOL    HW118821   2.466   3.225  10.972
 6095SOL    HW218822   2.543   3.355  10.978
 6096SOL     OW18823   3.674   2.039  10.548
 6096SOL    HW118824   3.666   1.944  10.550
 6096SOL    HW218825   3.689   2.060  10.456
 6097SOL     OW18826   2.294   2.293   9.833
 6097SOL    HW118827   2.326   2.233   9.765
 6097SOL    HW218828   2.238   2.238   9.888
 6098SOL     OW18829   3.557   3.351  10.406
 6098SOL    HW118830   3.479   3.328  10.356
 6098SOL    HW218831   3.568   3.280  10.469
 6099SOL     OW18832   2.194   2.417  10.598
 6099SOL    HW118833   2.239   2.355  10.656
 6099SOL    HW218834   2.209   2.382  10.510
 6100SOL     OW18835   2.691   3.441   9.986
 6100SOL    HW118836   2.671   3.494   9.909
 6100SOL    HW218837   2.617   3.380   9.993
 6101SOL     OW18838   3.292   2.090  10.427
 6101SOL    HW118839   3.312   2.007  10.469
 6101SOL    HW218840   3.241   2.139  10.492
 6102SOL     OW18841   2.871   1.879  10.448
 6102SOL    HW118842   2.817   1.811  10.407
 6102SOL    HW218843   2.958   1.841  10.451
 6103SOL     OW18844   2.635   3.195   9.630
 6103SOL    HW118845   2.606   3.104   9.636
 6103SOL    HW218846   2.718   3.197   9.678
 6104SOL     OW18847   2.482   3.415  10.595
 6104SOL    HW118848   2.482   3.496  10.645
 6104SOL    HW218849   2.570   3.409  10.558
 6105SOL     OW18850   3.217   1.915   9.478
 6105SOL    HW118851   3.249   1.845   9.420
 6105SOL    HW218852   3.129   1.888   9.502
 6106SOL     OW18853   3.157   2.324   9.989
 6106SOL    HW118854   3.105   2.404   9.995
 6106SOL    HW218855   3.153   2.287  10.077
 6107SOL     OW18856   3.443   2.059  10.189
 6107SOL    HW118857   3.388   2.084  10.263
 6107SOL    HW218858   3.445   2.137  10.133
 6108SOL     OW18859   1.905   2.930   9.618
 6108SOL    HW118860   1.998   2.922   9.600
 6108SOL    HW218861   1.877   2.841   9.640
 6109SOL     OW18862   2.749   3.522   9.652
 6109SOL    HW118863   2.677   3.503   9.592
 6109SOL    HW218864   2.718   3.597   9.703
 6110SOL     OW18865   2.084   2.476  11.301
 6110SOL    HW118866   1.993   2.482  11.331
 6110SOL    HW218867   2.077   2.449  11.209
 6111SOL     OW18868   1.854   2.292  11.794
 6111SOL    HW118869   1.769   2.292  11.838
 6111SOL    HW218870   1.849   2.218  11.732
 6112SOL     OW18871   2.429   3.155  12.351
 6112SOL    HW118872   2.343   3.161  12.311
 6112SOL    HW218873   2.446   3.243  12.385
 6113SOL     OW18874   3.426   3.375  11.881
 6113SOL    HW118875   3.384   3.351  11.964
 6113SOL    HW218876   3.355   3.378  11.818
 6114SOL     OW18877   2.992   2.561  11.869
 6114SOL    HW118878   3.042   2.642  11.856
 6114SOL    HW218879   2.946   2.574  11.952
 6115SOL     OW18880   3.630   2.467  11.401
 6115SOL    HW118881   3.609   2.459  11.308
 6115SOL    HW218882   3.595   2.387  11.440
 6116SOL     OW18883   2.611   3.001  12.216
 6116SOL    HW118884   2.544   3.038  12.274
 6116SOL    HW218885   2.650   3.077  12.173
 6117SOL     OW18886   2.733   2.628  12.994
 6117SOL    HW118887   2.720   2.699  13.057
 6117SOL    HW218888   2.756   2.673  12.913
 6118SOL     OW18889   2.547   2.859  11.817
 6118SOL    HW118890   2.613   2.852  11.886
 6118SOL    HW218891   2.479   2.914  11.856
 6119SOL     OW18892   2.575   3.012  12.988
 6119SOL    HW118893   2.622   3.090  13.017
 6119SOL    HW218894   2.494   3.047  12.950
 6120SOL     OW18895   2.193   3.282  12.239
 6120SOL    HW118896   2.119   3.245  12.191
 6120SOL    HW218897   2.240   3.335  12.173
 6121SOL     OW18898   3.320   3.363  12.530
 6121SOL    HW118899   3.375   3.442  12.540
 6121SOL    HW218900   3.254   3.372  12.598
 6122SOL     OW18901   2.297   2.234  12.637
 6122SOL    HW118902   2.387   2.206  12.652
 6122SOL    HW218903   2.244   2.166  12.677
 6123SOL     OW18904   3.471   2.307  11.916
 6123SOL    HW118905   3.399   2.328  11.857
 6123SOL    HW218906   3.481   2.385  11.971
 6124SOL     OW18907   2.084   3.578  11.651
 6124SOL    HW118908   2.113   3.637  11.720
 6124SOL    HW218909   2.156   3.575  11.588
 6125SOL     OW18910   2.999   3.204  12.866
 6125SOL    HW118911   3.040   3.197  12.952
 6125SOL    HW218912   2.947   3.124  12.858
 6126SOL     OW18913   2.092   3.304  11.708
 6126SOL    HW118914   2.074   3.398  11.711
 6126SOL    HW218915   2.033   3.266  11.773
 6127SOL     OW18916   2.125   2.954  12.063
 6127SOL    HW118917   2.120   2.867  12.103
 6127SOL    HW218918   2.067   3.008  12.117
 6128SOL     OW18919   2.468   3.648  12.600
 6128SOL    HW118920   2.387   3.633  12.648
 6128SOL    HW218921   2.495   3.736  12.624
 6129SOL     OW18922   2.444   2.845  11.309
 6129SOL    HW118923   2.492   2.892  11.240
 6129SOL    HW218924   2.483   2.877  11.391
 6130SOL     OW18925   3.456   1.988  12.637
 6130SOL    HW118926   3.473   2.070  12.590
 6130SOL    HW218927   3.441   2.016  12.728
 6131SOL     OW18928   1.986   2.525  11.733
 6131SOL    HW118929   1.946   2.440  11.751
 6131SOL    HW218930   1.975   2.574  11.814
 6132SOL     OW18931   3.700   3.612  11.514
 6132SOL    HW118932   3.771   3.587  11.572
 6132SOL    HW218933   3.718   3.703  11.491
 6133SOL     OW18934   1.893   3.452  11.293
 6133SOL    HW118935   1.877   3.360  11.314
 6133SOL    HW218936   1.872   3.499  11.374
 6134SOL     OW18937   3.551   2.782  11.820
 6134SOL    HW118938   3.634   2.738  11.801
 6134SOL    HW218939   3.531   2.831  11.740
 6135SOL     OW18940   3.504   2.966  11.604
 6135SOL    HW118941   3.589   2.970  11.560
 6135SOL    HW218942   3.510   3.029  11.675
 6136SOL     OW18943   1.983   2.604  12.757
 6136SOL    HW118944   2.074   2.630  12.766
 6136SOL    HW218945   1.934   2.686  12.766
 6137SOL     OW18946   2.478   3.252  11.906
 6137SOL    HW118947   2.433   3.168  11.916
 6137SOL    HW218948   2.461   3.279  11.816
 6138SOL     OW18949   3.149   3.098  12.594
 6138SOL    HW118950   3.181   3.031  12.534
 6138SOL    HW218951   3.208   3.094  12.669
 6139SOL     OW18952   2.677   1.866  11.682
 6139SOL    HW118953   2.718   1.950  11.660
 6139SOL    HW218954   2.584   1.885  11.688
 6140SOL     OW18955   2.052   2.827  12.447
 6140SOL    HW118956   2.136   2.785  12.432
 6140SOL    HW218957   1.989   2.773  12.398
 6141SOL     OW18958   3.389   2.859  11.373
 6141SOL    HW118959   3.320   2.802  11.406
 6141SOL    HW218960   3.432   2.894  11.451
 6142SOL     OW18961   3.082   3.667  12.799
 6142SOL    HW118962   3.056   3.727  12.730
 6142SOL    HW218963   3.082   3.581  12.758
 6143SOL     OW18964   2.265   2.168  12.978
 6143SOL    HW118965   2.315   2.226  13.035
 6143SOL    HW218966   2.175   2.200  12.982
 6144SOL     OW18967   3.327   3.282  12.120
 6144SOL    HW118968   3.261   3.297  12.188
 6144SOL    HW218969   3.316   3.190  12.095
 6145SOL     OW18970   3.508   3.607  11.752
 6145SOL    HW118971   3.500   3.572  11.664
 6145SOL    HW218972   3.492   3.532  11.809
 6146SOL     OW18973   2.456   2.580  11.440
 6146SOL    HW118974   2.461   2.663  11.393
 6146SOL    HW218975   2.391   2.595  11.509
 6147SOL     OW18976   3.139   2.222  12.106
 6147SOL    HW118977   3.051   2.187  12.114
 6147SOL    HW218978   3.192   2.168  12.164
 6148SOL     OW18979   3.435   3.539  11.480
 6148SOL    HW118980   3.528   3.562  11.476
 6148SOL    HW218981   3.411   3.519  11.390
 6149SOL     OW18982   2.653   2.480  12.619
 6149SOL    HW118983   2.629   2.455  12.709
 6149SOL    HW218984   2.617   2.411  12.564
 6150SOL     OW18985   3.255   2.336  12.850
 6150SOL    HW118986   3.259   2.380  12.935
 6150SOL    HW218987   3.313   2.260  12.860
 6151SOL     OW18988   2.813   2.748  12.756
 6151SOL    HW118989   2.869   2.679  12.719
 6151SOL    HW218990   2.766   2.784  12.682
 6152SOL     OW18991   2.855   2.274  12.408
 6152SOL    HW118992   2.767   2.292  12.441
 6152SOL    HW218993   2.841   2.229  12.324
 6153SOL     OW18994   2.915   2.561  11.597
 6153SOL    HW118995   2.932   2.554  11.691
 6153SOL    HW218996   2.832   2.515  11.585
 6154SOL     OW18997   1.950   2.686  11.950
 6154SOL    HW118998   2.031   2.681  12.001
 6154SOL    HW218999   1.905   2.763  11.985
 6155SOL     OW19000   1.982   3.712  12.749
 6155SOL    HW119001   1.986   3.691  12.843
 6155SOL    HW219002   1.889   3.702  12.727
 6156SOL     OW19003   2.758   2.215  11.370
 6156SOL    HW119004   2.801   2.274  11.308
 6156SOL    HW219005   2.755   2.131  11.325
 6157SOL     OW19006   3.570   2.435  13.001
 6157SOL    HW119007   3.532   2.508  12.952
 6157SOL    HW219008   3.595   2.372  12.934
 6158SOL     OW19009   3.239   3.003  11.712
 6158SOL    HW119010   3.319   2.991  11.661
 6158SOL    HW219011   3.187   3.066  11.661
 6159SOL     OW19012   2.415   2.053  12.065
 6159SOL    HW119013   2.409   2.072  12.159
 6159SOL    HW219014   2.431   2.139  12.025
 6160SOL     OW19015   2.864   3.307  11.642
 6160SOL    HW119016   2.829   3.381  11.593
 6160SOL    HW219017   2.843   3.326  11.733
 6161SOL     OW19018   2.213   3.674  12.010
 6161SOL    HW119019   2.263   3.594  12.029
 6161SOL    HW219020   2.272   3.746  12.034
 6162SOL     OW19021   3.668   2.923  12.040
 6162SOL    HW119022   3.615   2.896  11.965
 6162SOL    HW219023   3.606   2.926  12.113
 6163SOL     OW19024   3.089   3.399  12.684
 6163SOL    HW119025   3.076   3.327  12.745
 6163SOL    HW219026   3.021   3.386  12.618
 6164SOL     OW19027   2.179   2.822  11.425
 6164SOL    HW119028   2.261   2.841  11.380
 6164SOL    HW219029   2.149   2.740  11.386
 6165SOL     OW19030   3.342   2.609  11.897
 6165SOL    HW119031   3.337   2.568  11.983
 6165SOL    HW219032   3.420   2.664  11.901
 6166SOL     OW19033   2.330   3.128  12.909
 6166SOL    HW119034   2.304   3.133  12.817
 6166SOL    HW219035   2.248   3.125  12.958
 6167SOL     OW19036   2.976   3.644  11.393
 6167SOL    HW119037   2.911   3.598  11.447
 6167SOL    HW219038   3.007   3.577  11.331
 6168SOL     OW19039   3.486   3.247  11.261
 6168SOL    HW119040   3.443   3.331  11.243
 6168SOL    HW219041   3.420   3.181  11.241
 6169SOL     OW19042   2.328   3.598  11.497
 6169SOL    HW119043   2.367   3.662  11.557
 6169SOL    HW219044   2.401   3.572  11.440
 6170SOL     OW19045   3.263   1.969  11.610
 6170SOL    HW119046   3.256   1.944  11.518
 6170SOL    HW219047   3.357   1.975  11.626
 6171SOL     OW19048   2.122   3.653  12.394
 6171SOL    HW119049   2.169   3.582  12.439
 6171SOL    HW219050   2.107   3.619  12.306
 6172SOL     OW19051   2.800   3.564  12.071
 6172SOL    HW119052   2.877   3.512  12.094
 6172SOL    HW219053   2.757   3.514  12.002
 6173SOL     OW19054   2.258   2.557  11.646
 6173SOL    HW119055   2.275   2.463  11.658
 6173SOL    HW219056   2.164   2.566  11.663
 6174SOL     OW19057   3.394   2.087  12.897
 6174SOL    HW119058   3.404   2.107  12.990
 6174SOL    HW219059   3.326   2.019  12.894
 6175SOL     OW19060   2.515   1.982  11.282
 6175SOL    HW119061   2.573   1.908  11.297
 6175SOL    HW219062   2.455   1.953  11.213
 6176SOL     OW19063   2.627   2.140  12.928
 6176SOL    HW119064   2.706   2.087  12.925
 6176SOL    HW219065   2.579   2.108  13.004
 6177SOL     OW19066   2.738   3.383  12.367
 6177SOL    HW119067   2.721   3.346  12.280
 6177SOL    HW219068   2.808   3.328  12.402
 6178SOL     OW19069   3.201   2.451  12.605
 6178SOL    HW119070   3.233   2.420  12.690
 6178SOL    HW219071   3.238   2.539  12.597
 6179SOL     OW19072   2.679   3.253  12.116
 6179SOL    HW119073   2.764   3.241  12.072
 6179SOL    HW219074   2.616   3.258  12.044
 6180SOL     OW19075   2.789   2.370  12.073
 6180SOL    HW119076   2.765   2.362  11.981
 6180SOL    HW219077   2.822   2.283  12.098
 6181SOL     OW19078   2.409   1.928  11.674
 6181SOL    HW119079   2.351   1.941  11.749
 6181SOL    HW219080   2.394   2.004  11.618
 6182SOL     OW19081   3.290   3.062  11.212
 6182SOL    HW119082   3.320   2.987  11.262
 6182SOL    HW219083   3.204   3.083  11.249
 6183SOL     OW19084   2.803   2.112  11.629
 6183SOL    HW119085   2.778   2.150  11.545
 6183SOL    HW219086   2.897   2.125  11.635
 6184SOL     OW19087   2.943   2.545  12.630
 6184SOL    HW119088   2.877   2.476  12.635
 6184SOL    HW219089   3.027   2.499  12.624
 6185SOL     OW19090   3.082   3.433  11.966
 6185SOL    HW119091   3.098   3.500  11.900
 6185SOL    HW219092   3.152   3.445  12.030
 6186SOL     OW19093   2.334   3.014  11.901
 6186SOL    HW119094   2.266   2.995  11.966
 6186SOL    HW219095   2.291   3.000  11.817
 6187SOL     OW19096   3.127   3.656  11.781
 6187SOL    HW119097   3.174   3.721  11.729
 6187SOL    HW219098   3.054   3.704  11.819
 6188SOL     OW19099   2.885   2.399  11.197
 6188SOL    HW119100   2.842   2.482  11.178
 6188SOL    HW219101   2.950   2.421  11.264
 6189SOL     OW19102   1.940   2.424  12.558
 6189SOL    HW119103   2.033   2.420  12.537
 6189SOL    HW219104   1.934   2.488  12.628
 6190SOL     OW19105   2.410   2.082  12.344
 6190SOL    HW119106   2.461   2.006  12.371
 6190SOL    HW219107   2.329   2.076  12.395
 6191SOL     OW19108   2.725   2.318  11.811
 6191SOL    HW119109   2.685   2.375  11.745
 6191SOL    HW219110   2.751   2.240  11.762
 6192SOL     OW19111   2.876   1.917  11.922
 6192SOL    HW119112   2.820   1.909  11.845
 6192SOL    HW219113   2.854   1.841  11.975
 6193SOL     OW19114   3.302   3.023  12.029
 6193SOL    HW119115   3.231   2.959  12.029
 6193SOL    HW219116   3.327   3.032  11.937
 6194SOL     OW19117   3.327   2.471  12.144
 6194SOL    HW119118   3.274   2.392  12.146
 6194SOL    HW219119   3.385   2.463  12.219
 6195SOL     OW19120   3.723   2.678  11.547
 6195SOL    HW119121   3.767   2.622  11.611
 6195SOL    HW219122   3.686   2.616  11.483
 6196SOL     OW19123   2.352   3.281  11.325
 6196SOL    HW119124   2.276   3.254  11.377
 6196SOL    HW219125   2.341   3.236  11.241
 6197SOL     OW19126   3.530   3.128  11.815
 6197SOL    HW119127   3.625   3.129  11.825
 6197SOL    HW219128   3.502   3.216  11.836
 6198SOL     OW19129   3.256   2.434  11.243
 6198SOL    HW119130   3.194   2.414  11.313
 6198SOL    HW219131   3.340   2.402  11.276
 6199SOL     OW19132   2.386   2.127  11.487
 6199SOL    HW119133   2.433   2.076  11.422
 6199SOL    HW219134   2.361   2.208  11.441
 6200SOL     OW19135   3.613   3.096  12.736
 6200SOL    HW119136   3.700   3.061  12.719
 6200SOL    HW219137   3.628   3.186  12.765
 6201SOL     OW19138   2.918   3.214  12.504
 6201SOL    HW119139   2.843   3.183  12.555
 6201SOL    HW219140   2.994   3.173  12.545
 6202SOL     OW19141   3.469   3.492  12.829
 6202SOL    HW119142   3.459   3.525  12.740
 6202SOL    HW219143   3.549   3.439  12.827
 6203SOL     OW19144   2.994   3.069  12.275
 6203SOL    HW119145   2.935   3.107  12.340
 6203SOL    HW219146   2.963   3.103  12.191
 6204SOL     OW19147   3.490   2.957  12.246
 6204SOL    HW119148   3.481   3.019  12.319
 6204SOL    HW219149   3.413   2.974  12.191
 6205SOL     OW19150   2.780   1.958  12.565
 6205SOL    HW119151   2.803   1.938  12.474
 6205SOL    HW219152   2.859   1.996  12.602
 6206SOL     OW19153   2.846   2.977  12.895
 6206SOL    HW119154   2.755   2.993  12.918
 6206SOL    HW219155   2.843   2.898  12.840
 6207SOL     OW19156   2.572   2.924  11.543
 6207SOL    HW119157   2.557   2.904  11.636
 6207SOL    HW219158   2.647   2.870  11.519
 6208SOL     OW19159   2.281   2.676  12.423
 6208SOL    HW119160   2.349   2.688  12.490
 6208SOL    HW219161   2.248   2.588  12.439
 6209SOL     OW19162   3.126   2.238  12.451
 6209SOL    HW119163   3.159   2.315  12.496
 6209SOL    HW219164   3.036   2.259  12.429
 6210SOL     OW19165   1.935   3.435  12.526
 6210SOL    HW119166   1.908   3.510  12.474
 6210SOL    HW219167   2.031   3.436  12.521
 6211SOL     OW19168   2.204   2.977  11.661
 6211SOL    HW119169   2.209   3.050  11.601
 6211SOL    HW219170   2.202   2.899  11.605
 6212SOL     OW19171   2.407   2.395  12.033
 6212SOL    HW119172   2.420   2.453  11.959
 6212SOL    HW219173   2.474   2.421  12.097
 6213SOL     OW19174   3.109   3.211  11.561
 6213SOL    HW119175   3.165   3.282  11.593
 6213SOL    HW219176   3.022   3.233  11.595
 6214SOL     OW19177   3.148   3.322  12.320
 6214SOL    HW119178   3.204   3.326  12.398
 6214SOL    HW219179   3.093   3.245  12.335
 6215SOL     OW19180   3.439   2.481  11.655
 6215SOL    HW119181   3.391   2.533  11.720
 6215SOL    HW219182   3.481   2.546  11.599
 6216SOL     OW19183   2.207   3.392  12.483
 6216SOL    HW119184   2.196   3.347  12.399
 6216SOL    HW219185   2.302   3.403  12.492
 6217SOL     OW19186   2.278   2.610  12.776
 6217SOL    HW119187   2.340   2.651  12.717
 6217SOL    HW219188   2.320   2.528  12.801
 6218SOL     OW19189   3.467   2.641  12.856
 6218SOL    HW119190   3.382   2.684  12.850
 6218SOL    HW219191   3.520   2.684  12.788
 6219SOL     OW19192   2.857   1.991  12.923
 6219SOL    HW119193   2.916   2.063  12.902
 6219SOL    HW219194   2.906   1.912  12.899
 6220SOL     OW19195   2.371   1.907  12.923
 6220SOL    HW119196   2.313   1.856  12.866
 6220SOL    HW219197   2.329   1.992  12.929
 6221SOL     OW19198   2.447   2.735  12.205
 6221SOL    HW119199   2.479   2.825  12.204
 6221SOL    HW219200   2.390   2.730  12.281
 6222SOL     OW19201   3.214   2.721  12.196
 6222SOL    HW119202   3.129   2.707  12.154
 6222SOL    HW219203   3.259   2.637  12.189
 6223SOL     OW19204   3.063   2.390  11.435
 6223SOL    HW119205   3.071   2.311  11.490
 6223SOL    HW219206   3.021   2.454  11.492
 6224SOL     OW19207   1.908   3.173  12.447
 6224SOL    HW119208   1.940   3.118  12.518
 6224SOL    HW219209   1.914   3.262  12.481
 6225SOL     OW19210   2.581   2.489  12.225
 6225SOL    HW119211   2.659   2.475  12.172
 6225SOL    HW219212   2.555   2.579  12.208
 6226SOL     OW19213   3.593   2.820  13.035
 6226SOL    HW119214   3.552   2.755  12.978
 6226SOL    HW219215   3.528   2.835  13.105
 6227SOL     OW19216   3.482   2.239  11.535
 6227SOL    HW119217   3.509   2.174  11.600
 6227SOL    HW219218   3.459   2.316  11.587
 6228SOL     OW19219   2.890   2.620  12.131
 6228SOL    HW119220   2.883   2.637  12.225
 6228SOL    HW219221   2.864   2.528  12.121
 6229SOL     OW19222   2.848   3.430  12.893
 6229SOL    HW119223   2.828   3.471  12.809
 6229SOL    HW219224   2.889   3.347  12.871
 6230SOL     OW19225   3.704   3.359  12.769
 6230SOL    HW119226   3.729   3.389  12.682
 6230SOL    HW219227   3.784   3.369  12.821
 6231SOL     OW19228   2.214   2.779  12.984
 6231SOL    HW119229   2.296   2.798  13.029
 6231SOL    HW219230   2.238   2.718  12.914
 6232SOL     OW19231   3.390   2.134  11.299
 6232SOL    HW119232   3.325   2.069  11.326
 6232SOL    HW219233   3.424   2.170  11.381
 6233SOL     OW19234   3.150   2.686  11.201
 6233SOL    HW119235   3.194   2.601  11.205
 6233SOL    HW219236   3.183   2.726  11.120
 6234SOL     OW19237   2.929   3.199  12.027
 6234SOL    HW119238   2.934   3.127  11.965
 6234SOL    HW219239   2.989   3.265  11.992
 6235SOL     OW19240   2.171   2.672  12.118
 6235SOL    HW119241   2.264   2.694  12.109
 6235SOL    HW219242   2.171   2.585  12.156
 6236SOL     OW19243   2.184   2.367  12.181
 6236SOL    HW119244   2.142   2.296  12.133
 6236SOL    HW219245   2.265   2.383  12.133
 6237SOL     OW19246   2.996   2.236  12.856
 6237SOL    HW119247   2.948   2.290  12.918
 6237SOL    HW219248   3.083   2.275  12.852
 6238SOL     OW19249   3.022   2.062  12.643
 6238SOL    HW119250   3.011   2.125  12.714
 6238SOL    HW219251   3.064   2.112  12.573
 6239SOL     OW19252   1.868   3.180  11.367
 6239SOL    HW119253   1.781   3.195  11.330
 6239SOL    HW219254   1.864   3.091  11.401
 6240SOL     OW19255   1.959   3.639  12.110
 6240SOL    HW119256   1.928   3.561  12.065
 6240SOL    HW219257   2.044   3.658  12.070
 6241SOL     OW19258   2.355   3.438  12.077
 6241SOL    HW119259   2.422   3.501  12.101
 6241SOL    HW219260   2.400   3.376  12.020
 6242SOL     OW19261   2.839   2.650  12.397
 6242SOL    HW119262   2.899   2.631  12.468
 6242SOL    HW219263   2.755   2.615  12.426
 6243SOL     OW19264   1.902   2.396  12.289
 6243SOL    HW119265   1.986   2.403  12.245
 6243SOL    HW219266   1.922   2.409  12.382
 6244SOL     OW19267   2.069   2.382  12.904
 6244SOL    HW119268   2.122   2.356  12.829
 6244SOL    HW219269   2.006   2.445  12.869
 6245SOL     OW19270   3.242   2.798  12.830
 6245SOL    HW119271   3.263   2.891  12.827
 6245SOL    HW219272   3.238   2.771  12.738
 6246SOL     OW19273   2.678   2.432  11.539
 6246SOL    HW119274   2.686   2.358  11.478
 6246SOL    HW219275   2.605   2.483  11.506
 6247SOL     OW19276   3.502   2.463  12.355
 6247SOL    HW119277   3.491   2.403  12.428
 6247SOL    HW219278   3.588   2.443  12.319
 6248SOL     OW19279   2.103   3.410  12.896
 6248SOL    HW119280   2.081   3.477  12.961
 6248SOL    HW219281   2.108   3.329  12.946
 6249SOL     OW19282   2.567   2.308  12.428
 6249SOL    HW119283   2.511   2.235  12.400
 6249SOL    HW219284   2.561   2.371  12.357
 6250SOL     OW19285   2.788   3.533  12.642
 6250SOL    HW119286   2.762   3.494  12.558
 6250SOL    HW219287   2.779   3.628  12.628
 6251SOL     OW19288   2.325   2.354  11.347
 6251SOL    HW119289   2.383   2.425  11.374
 6251SOL    HW219290   2.239   2.394  11.341
 6252SOL     OW19291   2.005   3.004  12.646
 6252SOL    HW119292   2.006   2.955  12.728
 6252SOL    HW219293   2.023   2.939  12.578
 6253SOL     OW19294   3.183   2.906  12.393
 6253SOL    HW119295   3.206   2.843  12.325
 6253SOL    HW219296   3.116   2.961  12.353
 6254SOL     OW19297   3.175   2.718  11.477
 6254SOL    HW119298   3.101   2.687  11.528
 6254SOL    HW219299   3.149   2.704  11.386
 6255SOL     OW19300   3.640   3.601  12.328
 6255SOL    HW119301   3.698   3.628  12.256
 6255SOL    HW219302   3.612   3.513  12.304
 6256SOL     OW19303   3.106   3.595  12.280
 6256SOL    HW119304   3.189   3.617  12.238
 6256SOL    HW219305   3.113   3.502  12.300
 6257SOL     OW19306   1.948   3.128  12.183
 6257SOL    HW119307   1.932   3.143  12.276
 6257SOL    HW219308   1.874   3.073  12.154
 6258SOL     OW19309   2.541   3.527  12.906
 6258SOL    HW119310   2.484   3.604  12.910
 6258SOL    HW219311   2.602   3.547  12.835
 6259SOL     OW19312   3.571   2.013  11.683
 6259SOL    HW119313   3.639   2.001  11.617
 6259SOL    HW219314   3.560   1.927  11.723
 6260SOL     OW19315   3.252   3.430  11.660
 6260SOL    HW119316   3.311   3.464  11.593
 6260SOL    HW219317   3.204   3.507  11.691
 6261SOL     OW19318   1.997   3.651  13.010
 6261SOL    HW119319   1.945   3.588  13.059
 6261SOL    HW219320   2.045   3.700  13.077
 6262SOL     OW19321   3.139   2.789  11.843
 6262SOL    HW119322   3.213   2.729  11.853
 6262SOL    HW219323   3.173   2.861  11.790
 6263SOL     OW19324   2.670   3.137  12.599
 6263SOL    HW119325   2.643   3.177  12.681
 6263SOL    HW219326   2.601   3.159  12.537
 6264SOL     OW19327   2.536   3.480  11.330
 6264SOL    HW119328   2.546   3.498  11.237
 6264SOL    HW219329   2.477   3.405  11.334
 6265SOL     OW19330   3.480   3.589  12.562
 6265SOL    HW119331   3.536   3.592  12.484
 6265SOL    HW219332   3.468   3.681  12.586
 6266SOL     OW19333   3.700   2.043  12.139
 6266SOL    HW119334   3.731   1.956  12.114
 6266SOL    HW219335   3.614   2.050  12.098
 6267SOL     OW19336   3.070   3.465  11.208
 6267SOL    HW119337   3.059   3.373  11.232
 6267SOL    HW219338   3.008   3.478  11.136
 6268SOL     OW19339   2.686   2.868  12.545
 6268SOL    HW119340   2.730   2.864  12.461
 6268SOL    HW219341   2.683   2.962  12.566
 6269SOL     OW19342   2.778   2.772  11.463
 6269SOL    HW119343   2.839   2.805  11.396
 6269SOL    HW219344   2.828   2.704  11.508
 6270SOL     OW19345   3.349   3.495  11.215
 6270SOL    HW119346   3.256   3.482  11.198
 6270SOL    HW219347   3.389   3.499  11.127
 6271SOL     OW19348   2.231   3.166  12.663
 6271SOL    HW119349   2.217   3.243  12.608
 6271SOL    HW219350   2.153   3.112  12.649
 6272SOL     OW19351   3.462   3.142  12.449
 6272SOL    HW119352   3.530   3.132  12.515
 6272SOL    HW219353   3.405   3.211  12.483
 6273SOL     OW19354   2.919   2.971  11.881
 6273SOL    HW119355   2.848   2.920  11.918
 6273SOL    HW219356   2.983   2.905  11.853
 6274SOL     OW19357   2.884   2.103  12.139
 6274SOL    HW119358   2.880   2.056  12.055
 6274SOL    HW219359   2.880   2.034  12.205
 6275SOL     OW19360   2.467   3.353  11.651
 6275SOL    HW119361   2.514   3.302  11.585
 6275SOL    HW219362   2.397   3.396  11.603
 6276SOL     OW19363   3.587   2.251  12.550
 6276SOL    HW119364   3.659   2.314  12.547
 6276SOL    HW219365   3.615   2.179  12.494
 6277SOL     OW19366   2.123   3.205  11.463
 6277SOL    HW119367   2.030   3.202  11.439
 6277SOL    HW219368   2.124   3.244  11.550
 6278SOL     OW19369   1.975   2.888  12.893
 6278SOL    HW119370   1.898   2.864  12.945
 6278SOL    HW219371   2.049   2.849  12.939
 6279SOL     OW19372   2.539   2.060  12.671
 6279SOL    HW119373   2.623   2.037  12.632
 6279SOL    HW219374   2.561   2.090  12.759
 6280SOL     OW19375   3.288   2.720  12.570
 6280SOL    HW119376   3.238   2.781  12.517
 6280SOL    HW219377   3.376   2.722  12.534
 6281SOL     OW19378   3.040   3.198  11.289
 6281SOL    HW119379   2.949   3.169  11.291
 6281SOL    HW219380   3.066   3.198  11.381
 6282SOL     OW19381   2.482   2.693  12.606
 6282SOL    HW119382   2.538   2.769  12.591
 6282SOL    HW219383   2.542   2.619  12.613
 6283SOL     OW19384   3.347   3.644  12.155
 6283SOL    HW119385   3.371   3.699  12.080
 6283SOL    HW219386   3.431   3.612  12.188
 6284SOL     OW19387   2.579   2.421  12.872
 6284SOL    HW119388   2.622   2.482  12.932
 6284SOL    HW219389   2.600   2.335  12.906
 6285SOL     OW19390   3.335   3.059  12.802
 6285SOL    HW119391   3.324   3.073  12.896
 6285SOL    HW219392   3.428   3.075  12.786
 6286SOL     OW19393   2.236   3.603  12.738
 6286SOL    HW119394   2.151   3.645  12.721
 6286SOL    HW219395   2.213   3.519  12.779
 6287SOL     OW19396   3.526   2.742  12.431
 6287SOL    HW119397   3.525   2.657  12.388
 6287SOL    HW219398   3.519   2.805  12.359
 6288SOL     OW19399   3.078   2.181  11.629
 6288SOL    HW119400   3.140   2.109  11.622
 6288SOL    HW219401   3.107   2.230  11.706
 6289SOL     OW19402   2.446   2.597  11.846
 6289SOL    HW119403   2.489   2.681  11.832
 6289SOL    HW219404   2.382   2.590  11.775
 6290SOL     OW19405   3.619   2.228  12.822
 6290SOL    HW119406   3.603   2.241  12.729
 6290SOL    HW219407   3.549   2.170  12.851
 6291SOL     OW19408   3.619   2.790  12.685
 6291SOL    HW119409   3.609   2.883  12.703
 6291SOL    HW219410   3.594   2.780  12.593
 6292SOL     OW19411   2.726   3.229  11.212
 6292SOL    HW119412   2.685   3.257  11.294
 6292SOL    HW219413   2.741   3.310  11.164
 6293SOL     OW19414   2.523   3.650  12.110
 6293SOL    HW119415   2.502   3.741  12.090
 6293SOL    HW219416   2.618   3.645  12.106
 6294SOL     OW19417   2.731   2.831  12.026
 6294SOL    HW119418   2.781   2.759  12.064
 6294SOL    HW219419   2.694   2.877  12.102
 6295SOL     OW19420   2.940   2.850  11.261
 6295SOL    HW119421   2.918   2.902  11.183
 6295SOL    HW219422   3.014   2.796  11.234
 6296SOL     OW19423   3.711   3.416  12.012
 6296SOL    HW119424   3.631   3.397  11.963
 6296SOL    HW219425   3.715   3.348  12.079
 6297SOL     OW19426   2.088   3.162  13.027
 6297SOL    HW119427   2.023   3.100  12.995
 6297SOL    HW219428   2.066   3.175  13.119
 6298SOL     OW19429   1.949   3.092  11.837
 6298SOL    HW119430   1.958   3.047  11.921
 6298SOL    HW219431   2.016   3.053  11.781
 6299SOL     OW19432   2.546   3.267  12.802
 6299SOL    HW119433   2.466   3.225  12.834
 6299SOL    HW219434   2.543   3.355  12.840
 6300SOL     OW19435   3.674   2.039  12.410
 6300SOL    HW119436   3.666   1.944  12.412
 6300SOL    HW219437   3.689   2.060  12.318
 6301SOL     OW19438   2.294   2.294  11.694
 6301SOL    HW119439   2.326   2.233  11.627
 6301SOL    HW219440   2.244   2.239  11.755
 6302SOL     OW19441   3.557   3.351  12.268
 6302SOL    HW119442   3.479   3.328  12.218
 6302SOL    HW219443   3.568   3.280  12.331
 6303SOL     OW19444   2.194   2.417  12.460
 6303SOL    HW119445   2.239   2.354  12.518
 6303SOL    HW219446   2.209   2.382  12.372
 6304SOL     OW19447   2.691   3.440  11.848
 6304SOL    HW119448   2.671   3.494  11.771
 6304SOL    HW219449   2.617   3.380  11.855
 6305SOL     OW19450   3.292   2.090  12.289
 6305SOL    HW119451   3.312   2.007  12.331
 6305SOL    HW219452   3.241   2.139  12.354
 6306SOL     OW19453   2.871   1.879  12.310
 6306SOL    HW119454   2.817   1.812  12.269
 6306SOL    HW219455   2.958   1.841  12.313
 6307SOL     OW19456   2.635   3.195  11.492
 6307SOL    HW119457   2.606   3.104  11.498
 6307SOL    HW219458   2.718   3.197  11.540
 6308SOL     OW19459   2.482   3.415  12.457
 6308SOL    HW119460   2.482   3.496  12.507
 6308SOL    HW219461   2.570   3.409  12.420
 6309SOL     OW19462   3.217   1.915  11.340
 6309SOL    HW119463   3.249   1.845  11.282
 6309SOL    HW219464   3.129   1.888  11.364
 6310SOL     OW19465   3.157   2.324  11.851
 6310SOL    HW119466   3.105   2.404  11.857
 6310SOL    HW219467   3.153   2.287  11.939
 6311SOL     OW19468   3.443   2.059  12.051
 6311SOL    HW119469   3.388   2.084  12.125
 6311SOL    HW219470   3.445   2.137  11.995
 6312SOL     OW19471   1.905   2.930  11.480
 6312SOL    HW119472   1.998   2.922  11.462
 6312SOL    HW219473   1.877   2.841  11.502
 6313SOL     OW19474   2.749   3.522  11.514
 6313SOL    HW119475   2.677   3.503  11.454
 6313SOL    HW219476   2.718   3.597  11.565
 6314SOL     OW19477   2.083   2.476  13.164
 6314SOL    HW119478   1.993   2.480  13.195
 6314SOL    HW219479   2.076   2.449  13.072
 6315SOL     OW19480   1.878   2.278  13.647
 6315SOL    HW119481   1.790   2.288  13.682
 6315SOL    HW219482   1.868   2.224  13.569
 6316SOL     OW19483   3.382   3.357  13.729
 6316SOL    HW119484   3.329   3.286  13.764
 6316SOL    HW219485   3.339   3.382  13.647
 6317SOL     OW19486   2.992   2.559  13.729
 6317SOL    HW119487   3.044   2.638  13.709
 6317SOL    HW219488   2.943   2.582  13.808
 6318SOL     OW19489   3.641   2.465  13.260
 6318SOL    HW119490   3.616   2.459  13.168
 6318SOL    HW219491   3.598   2.392  13.303
 6319SOL     OW19492   2.545   2.872  13.671
 6319SOL    HW119493   2.599   2.854  13.748
 6319SOL    HW219494   2.471   2.922  13.706
 6320SOL     OW19495   3.482   2.322  13.755
 6320SOL    HW119496   3.395   2.311  13.717
 6320SOL    HW219497   3.475   2.399  13.812
 6321SOL     OW19498   2.086   3.579  13.519
 6321SOL    HW119499   2.121   3.627  13.594
 6321SOL    HW219500   2.157   3.578  13.455
 6322SOL     OW19501   2.094   3.303  13.570
 6322SOL    HW119502   2.074   3.397  13.574
 6322SOL    HW219503   2.034   3.263  13.633
 6323SOL     OW19504   2.103   2.972   0.029
 6323SOL    HW119505   2.122   2.908   0.098
 6323SOL    HW219506   2.031   3.025   0.064
 6324SOL     OW19507   2.444   2.845  13.169
 6324SOL    HW119508   2.491   2.892  13.100
 6324SOL    HW219509   2.482   2.877  13.251
 6325SOL     OW19510   1.982   2.529  13.591
 6325SOL    HW119511   1.951   2.441  13.609
 6325SOL    HW219512   1.970   2.576  13.673
 6326SOL     OW19513   3.699   3.612  13.374
 6326SOL    HW119514   3.772   3.586  13.431
 6326SOL    HW219515   3.716   3.705  13.355
 6327SOL     OW19516   1.892   3.452  13.155
 6327SOL    HW119517   1.877   3.360  13.177
 6327SOL    HW219518   1.873   3.499  13.237
 6328SOL     OW19519   3.548   2.779  13.670
 6328SOL    HW119520   3.634   2.744  13.648
 6328SOL    HW219521   3.525   2.835  13.596
 6329SOL     OW19522   3.503   2.965  13.463
 6329SOL    HW119523   3.588   2.968  13.418
 6329SOL    HW219524   3.511   3.030  13.533
 6330SOL     OW19525   2.467   3.245  13.759
 6330SOL    HW119526   2.423   3.160  13.765
 6330SOL    HW219527   2.444   3.277  13.672
 6331SOL     OW19528   2.677   1.864  13.543
 6331SOL    HW119529   2.716   1.949  13.521
 6331SOL    HW219530   2.584   1.882  13.550
 6332SOL     OW19531   3.389   2.858  13.235
 6332SOL    HW119532   3.320   2.801  13.268
 6332SOL    HW219533   3.430   2.894  13.313
 6333SOL     OW19534   3.511   3.599  13.615
 6333SOL    HW119535   3.496   3.570  13.525
 6333SOL    HW219536   3.506   3.519  13.667
 6334SOL     OW19537   2.453   2.579  13.300
 6334SOL    HW119538   2.459   2.662  13.252
 6334SOL    HW219539   2.388   2.595  13.368
 6335SOL     OW19540   3.118   2.190   0.044
 6335SOL    HW119541   3.039   2.143   0.069
 6335SOL    HW219542   3.189   2.139   0.084
 6336SOL     OW19543   3.435   3.542  13.340
 6336SOL    HW119544   3.528   3.564  13.337
 6336SOL    HW219545   3.413   3.521  13.250
 6337SOL     OW19546   2.911   2.558  13.458
 6337SOL    HW119547   2.928   2.547  13.552
 6337SOL    HW219548   2.829   2.512  13.443
 6338SOL     OW19549   1.947   2.687  13.809
 6338SOL    HW119550   2.021   2.674  13.868
 6338SOL    HW219551   1.900   2.761  13.847
 6339SOL     OW19552   2.758   2.214  13.231
 6339SOL    HW119553   2.800   2.273  13.169
 6339SOL    HW219554   2.757   2.129  13.187
 6340SOL     OW19555   3.225   2.997  13.551
 6340SOL    HW119556   3.314   2.995  13.517
 6340SOL    HW219557   3.182   3.068  13.503
 6341SOL     OW19558   2.861   3.303  13.502
 6341SOL    HW119559   2.829   3.379  13.454
 6341SOL    HW219560   2.829   3.315  13.591
 6342SOL     OW19561   2.258   3.667  13.796
 6342SOL    HW119562   2.210   3.601  13.847
 6342SOL    HW219563   2.321   3.703  13.858
 6343SOL     OW19564   3.652   2.915  13.899
 6343SOL    HW119565   3.597   2.901  13.822
 6343SOL    HW219566   3.592   2.908   0.073
 6344SOL     OW19567   2.179   2.822  13.288
 6344SOL    HW119568   2.260   2.842  13.241
 6344SOL    HW219569   2.148   2.740  13.250
 6345SOL     OW19570   3.353   2.595  13.745
 6345SOL    HW119571   3.343   2.558  13.832
 6345SOL    HW219572   3.425   2.658  13.754
 6346SOL     OW19573   2.976   3.645  13.254
 6346SOL    HW119574   2.912   3.599  13.309
 6346SOL    HW219575   3.007   3.578  13.193
 6347SOL     OW19576   3.486   3.247  13.122
 6347SOL    HW119577   3.443   3.331  13.105
 6347SOL    HW219578   3.419   3.181  13.102
 6348SOL     OW19579   2.328   3.597  13.357
 6348SOL    HW119580   2.366   3.660  13.418
 6348SOL    HW219581   2.401   3.572  13.300
 6349SOL     OW19582   3.264   1.975  13.468
 6349SOL    HW119583   3.256   1.947  13.377
 6349SOL    HW219584   3.358   1.975  13.484
 6350SOL     OW19585   2.792   3.546   0.008
 6350SOL    HW119586   2.805   3.479   0.075
 6350SOL    HW219587   2.749   3.500  13.836
 6351SOL     OW19588   2.253   2.565  13.503
 6351SOL    HW119589   2.266   2.470  13.511
 6351SOL    HW219590   2.160   2.577  13.522
 6352SOL     OW19591   2.515   1.983  13.142
 6352SOL    HW119592   2.573   1.908  13.158
 6352SOL    HW219593   2.455   1.953  13.073
 6353SOL     OW19594   2.409   1.925  13.536
 6353SOL    HW119595   2.346   1.934  13.607
 6353SOL    HW219596   2.394   2.001  13.480
 6354SOL     OW19597   3.290   3.062  13.074
 6354SOL    HW119598   3.320   2.986  13.125
 6354SOL    HW219599   3.204   3.083  13.111
 6355SOL     OW19600   2.802   2.109  13.492
 6355SOL    HW119601   2.777   2.149  13.408
 6355SOL    HW219602   2.897   2.123  13.497
 6356SOL     OW19603   2.325   3.006  13.768
 6356SOL    HW119604   2.253   2.994  13.830
 6356SOL    HW219605   2.285   2.994  13.682
 6357SOL     OW19606   3.129   3.660  13.628
 6357SOL    HW119607   3.175   3.728  13.579
 6357SOL    HW219608   3.060   3.706  13.676
 6358SOL     OW19609   2.885   2.399  13.059
 6358SOL    HW119610   2.842   2.482  13.039
 6358SOL    HW219611   2.950   2.421  13.126
 6359SOL     OW19612   2.760   2.331  13.672
 6359SOL    HW119613   2.696   2.381  13.620
 6359SOL    HW219614   2.768   2.248  13.626
 6360SOL     OW19615   2.887   1.899  13.774
 6360SOL    HW119616   2.829   1.907  13.698
 6360SOL    HW219617   2.857   1.819  13.818
 6361SOL     OW19618   3.729   2.676  13.410
 6361SOL    HW119619   3.777   2.621  13.472
 6361SOL    HW219620   3.693   2.615  13.346
 6362SOL     OW19621   2.352   3.281  13.187
 6362SOL    HW119622   2.277   3.254  13.239
 6362SOL    HW219623   2.341   3.236  13.103
 6363SOL     OW19624   3.540   3.133  13.664
 6363SOL    HW119625   3.634   3.134  13.681
 6363SOL    HW219626   3.508   3.216  13.700
 6364SOL     OW19627   3.256   2.434  13.105
 6364SOL    HW119628   3.194   2.414  13.175
 6364SOL    HW219629   3.340   2.402  13.138
 6365SOL     OW19630   2.389   2.126  13.352
 6365SOL    HW119631   2.435   2.077  13.284
 6365SOL    HW219632   2.361   2.206  13.308
 6366SOL     OW19633   2.572   2.926  13.400
 6366SOL    HW119634   2.557   2.909  13.493
 6366SOL    HW219635   2.648   2.872  13.378
 6367SOL     OW19636   2.208   2.976  13.524
 6367SOL    HW119637   2.209   3.051  13.464
 6367SOL    HW219638   2.203   2.900  13.467
 6368SOL     OW19639   2.446   2.391  13.851
 6368SOL    HW119640   2.449   2.467  13.793
 6368SOL    HW219641   2.486   2.422   0.033
 6369SOL     OW19642   3.107   3.215  13.418
 6369SOL    HW119643   3.162   3.288  13.446
 6369SOL    HW219644   3.020   3.235  13.454
 6370SOL     OW19645   3.442   2.486  13.500
 6370SOL    HW119646   3.400   2.524  13.578
 6370SOL    HW219647   3.474   2.562  13.451
 6371SOL     OW19648   3.062   2.389  13.297
 6371SOL    HW119649   3.071   2.311  13.351
 6371SOL    HW219650   3.020   2.454  13.354
 6372SOL     OW19651   3.482   2.238  13.396
 6372SOL    HW119652   3.506   2.175  13.464
 6372SOL    HW219653   3.459   2.317  13.445
 6373SOL     OW19654   3.390   2.134  13.161
 6373SOL    HW119655   3.325   2.069  13.188
 6373SOL    HW219656   3.424   2.170  13.243
 6374SOL     OW19657   3.149   2.686  13.062
 6374SOL    HW119658   3.193   2.601  13.066
 6374SOL    HW219659   3.182   2.726  12.981
 6375SOL     OW19660   1.868   3.180  13.228
 6375SOL    HW119661   1.781   3.196  13.192
 6375SOL    HW219662   1.865   3.091  13.263
 6376SOL     OW19663   2.677   2.434  13.394
 6376SOL    HW119664   2.684   2.358  13.335
 6376SOL    HW219665   2.602   2.483  13.361
 6377SOL     OW19666   2.325   2.351  13.206
 6377SOL    HW119667   2.383   2.422  13.233
 6377SOL    HW219668   2.238   2.391  13.202
 6378SOL     OW19669   3.177   2.713  13.337
 6378SOL    HW119670   3.100   2.687  13.389
 6378SOL    HW219671   3.150   2.701  13.246
 6379SOL     OW19672   3.574   2.012  13.547
 6379SOL    HW119673   3.641   2.000  13.478
 6379SOL    HW219674   3.563   1.925  13.584
 6380SOL     OW19675   3.244   3.437  13.508
 6380SOL    HW119676   3.304   3.474  13.444
 6380SOL    HW219677   3.198   3.512  13.545
 6381SOL     OW19678   3.150   2.775  13.685
 6381SOL    HW119679   3.227   2.719  13.671
 6381SOL    HW219680   3.173   2.858  13.642
 6382SOL     OW19681   2.536   3.480  13.192
 6382SOL    HW119682   2.546   3.498  13.098
 6382SOL    HW219683   2.477   3.405  13.195
 6383SOL     OW19684   3.680   2.023   0.088
 6383SOL    HW119685   3.691   1.937   0.048
 6383SOL    HW219686   3.586   2.040   0.083
 6384SOL     OW19687   2.104   2.294  13.812
 6384SOL    HW119688   2.059   2.279  13.729
 6384SOL    HW219689   2.146   2.210  13.832
 6385SOL     OW19690   3.070   3.465  13.070
 6385SOL    HW119691   3.059   3.373  13.094
 6385SOL    HW219692   3.008   3.478  12.998
 6386SOL     OW19693   2.781   2.775  13.329
 6386SOL    HW119694   2.840   2.805  13.260
 6386SOL    HW219695   2.828   2.702  13.370
 6387SOL     OW19696   3.349   3.495  13.076
 6387SOL    HW119697   3.256   3.482  13.060
 6387SOL    HW219698   3.388   3.499  12.989
 6388SOL     OW19699   2.912   2.953  13.755
 6388SOL    HW119700   2.826   2.915  13.738
 6388SOL    HW219701   2.969   2.916  13.687
 6389SOL     OW19702   2.461   3.354  13.505
 6389SOL    HW119703   2.508   3.303  13.439
 6389SOL    HW219704   2.394   3.400  13.456
 6390SOL     OW19705   2.123   3.204  13.325
 6390SOL    HW119706   2.030   3.201  13.301
 6390SOL    HW219707   2.125   3.244  13.412
 6391SOL     OW19708   3.039   3.198  13.149
 6391SOL    HW119709   2.948   3.169  13.151
 6391SOL    HW219710   3.066   3.199  13.241
 6392SOL     OW19711   3.078   2.181  13.491
 6392SOL    HW119712   3.140   2.109  13.481
 6392SOL    HW219713   3.109   2.230  13.566
 6393SOL     OW19714   2.451   2.610  13.691
 6393SOL    HW119715   2.487   2.697  13.674
 6393SOL    HW219716   2.380   2.601  13.627
 6394SOL     OW19717   2.726   3.229  13.074
 6394SOL    HW119718   2.685   3.256  13.156
 6394SOL    HW219719   2.740   3.310  13.026
 6395SOL     OW19720   2.512   3.717   0.065
 6395SOL    HW119721   2.508   3.810   0.085
 6395SOL    HW219722   2.605   3.694   0.077
 6396SOL     OW19723   2.686   2.828  13.898
 6396SOL    HW119724   2.712   2.743   0.033
 6396SOL    HW219725   2.725   2.892   0.058
 6397SOL     OW19726   2.939   2.849  13.123
 6397SOL    HW119727   2.918   2.901  13.045
 6397SOL    HW219728   3.013   2.795  13.096
 6398SOL     OW19729   1.954   3.092  13.699
 6398SOL    HW119730   1.950   3.035  13.776
 6398SOL    HW219731   2.021   3.051  13.644
 6399SOL     OW19732   2.277   2.301  13.550
 6399SOL    HW119733   2.323   2.231  13.503
 6399SOL    HW219734   2.302   2.287  13.642
 6400SOL     OW19735   3.542   3.321   0.349
 6400SOL    HW119736   3.511   3.294   0.263
 6400SOL    HW219737   3.630   3.285   0.356
 6401SOL     OW19738   2.679   3.411  13.706
 6401SOL    HW119739   2.651   3.462  13.630
 6401SOL    HW219740   2.604   3.354  13.726
 6402SOL     OW19741   2.635   3.196  13.350
 6402SOL    HW119742   2.606   3.105  13.357
 6402SOL    HW219743   2.716   3.199  13.399
 6403SOL     OW19744   3.217   1.914  13.201
 6403SOL    HW119745   3.248   1.845  13.143
 6403SOL    HW219746   3.128   1.887  13.225
 6404SOL     OW19747   3.166   2.322  13.711
 6404SOL    HW119748   3.112   2.401  13.717
 6404SOL    HW219749   3.150   2.276  13.793
 6405SOL     OW19750   1.906   2.930  13.340
 6405SOL    HW119751   2.000   2.922  13.322
 6405SOL    HW219752   1.878   2.841  13.361
 6406SOL     OW19753   2.749   3.522  13.377
 6406SOL    HW119754   2.677   3.504  13.316
 6406SOL    HW219755   2.719   3.595  13.430
 6407SOL     OW19756   2.094   3.982   0.983
 6407SOL    HW119757   2.117   3.962   1.074
 6407SOL    HW219758   2.003   3.953   0.975
 6408SOL     OW19759   1.876   0.063   0.713
 6408SOL    HW119760   1.798   0.104   0.675
 6408SOL    HW219761   1.915   0.014   0.641
 6409SOL     OW19762   3.660   0.360   0.256
 6409SOL    HW119763   3.638   0.304   0.182
 6409SOL    HW219764   3.579   0.364   0.308
 6410SOL     OW19765   2.302   0.095   1.505
 6410SOL    HW119766   2.373   0.050   1.459
 6410SOL    HW219767   2.225   0.042   1.486
 6411SOL     OW19768   3.457   3.851   1.459
 6411SOL    HW119769   3.462   3.938   1.419
 6411SOL    HW219770   3.443   3.868   1.552
 6412SOL     OW19771   2.669   3.727   0.508
 6412SOL    HW119772   2.696   3.819   0.498
 6412SOL    HW219773   2.574   3.732   0.517
 6413SOL     OW19774   3.130   0.062   0.934
 6413SOL    HW119775   3.056   0.008   0.905
 6413SOL    HW219776   3.184   0.001   0.985
 6414SOL     OW19777   2.416   3.904   0.892
 6414SOL    HW119778   2.410   3.924   0.986
 6414SOL    HW219779   2.411   3.989   0.849
 6415SOL     OW19780   2.054   3.982   1.489
 6415SOL    HW119781   2.000   0.060   1.501
 6415SOL    HW219782   2.014   3.916   1.546
 6416SOL     OW19783   3.270   3.838   0.431
 6416SOL    HW119784   3.264   3.798   0.344
 6416SOL    HW219785   3.360   3.821   0.458
 6417SOL     OW19786   3.398   3.938   1.723
 6417SOL    HW119787   3.423   3.940   1.816
 6417SOL    HW219788   3.328   3.872   1.719
 6418SOL     OW19789   2.634   3.957   1.743
 6418SOL    HW119790   2.686   3.927   1.818
 6418SOL    HW219791   2.548   3.975   1.779
 6419SOL     OW19792   2.398   3.782   0.516
 6419SOL    HW119793   2.348   3.780   0.598
 6419SOL    HW219794   2.406   3.875   0.495
 6420SOL     OW19795   2.133   3.745   0.210
 6420SOL    HW119796   2.166   3.832   0.187
 6420SOL    HW219797   2.212   3.695   0.235
 6421SOL     OW19798   2.419   3.944   1.170
 6421SOL    HW119799   2.462   3.873   1.218
 6421SOL    HW219800   2.327   3.939   1.196
 6422SOL     OW19801   2.883   3.767   0.732
 6422SOL    HW119802   2.817   3.755   0.663
 6422SOL    HW219803   2.859   3.702   0.799
 6423SOL     OW19804   2.785   3.802   1.397
 6423SOL    HW119805   2.814   3.781   1.308
 6423SOL    HW219806   2.859   3.850   1.435
 6424SOL     OW19807   3.129   0.074   1.266
 6424SOL    HW119808   3.138   0.143   1.331
 6424SOL    HW219809   3.061   0.106   1.207
 6425SOL     OW19810   2.371   3.750   1.757
 6425SOL    HW119811   2.315   3.704   1.694
 6425SOL    HW219812   2.342   3.841   1.754
 6426SOL     OW19813   2.156   3.919   1.250
 6426SOL    HW119814   2.112   3.938   1.333
 6426SOL    HW219815   2.145   3.825   1.238
 6427SOL     OW19816   3.462   3.935   0.157
 6427SOL    HW119817   3.381   3.883   0.156
 6427SOL    HW219818   3.436   0.019   0.194
 6428SOL     OW19819   3.025   3.921   1.473
 6428SOL    HW119820   3.027   3.995   1.533
 6428SOL    HW219821   3.068   3.953   1.394
 6429SOL     OW19822   2.783   3.824   0.149
 6429SOL    HW119823   2.813   3.816   0.058
 6429SOL    HW219824   2.843   3.769   0.199
 6430SOL     OW19825   3.589   3.863   0.534
 6430SOL    HW119826   3.657   3.849   0.467
 6430SOL    HW219827   3.568   3.775   0.565
 6431SOL     OW19828   3.698   3.895   0.962
 6431SOL    HW119829   3.730   3.808   0.939
 6431SOL    HW219830   3.611   3.900   0.921
 6432SOL     OW19831   2.539   3.909   1.489
 6432SOL    HW119832   2.622   3.899   1.442
 6432SOL    HW219833   2.564   3.932   1.578
 6433SOL     OW19834   1.924   3.856   0.342
 6433SOL    HW119835   1.909   3.939   0.295
 6433SOL    HW219836   2.004   3.821   0.302
 6434SOL     OW19837   3.053   0.009   0.466
 6434SOL    HW119838   3.115   3.937   0.469
 6434SOL    HW219839   3.074   0.063   0.542
 6435SOL     OW19840   3.646   0.047   1.628
 6435SOL    HW119841   3.602   0.081   1.550
 6435SOL    HW219842   3.578   0.001   1.676
 6436SOL     OW19843   3.677   3.910   1.235
 6436SOL    HW119844   3.665   3.817   1.258
 6436SOL    HW219845   3.687   3.909   1.140
 6437SOL     OW19846   3.301   3.932   1.117
 6437SOL    HW119847   3.328   3.849   1.157
 6437SOL    HW219848   3.243   3.973   1.181
 6438SOL     OW19849   2.878   3.736   1.147
 6438SOL    HW119850   2.820   3.682   1.094
 6438SOL    HW219851   2.963   3.693   1.142
 6439SOL     OW19852   3.216   3.783   0.151
 6439SOL    HW119853   3.256   3.711   0.102
 6439SOL    HW219854   3.132   3.748   0.181
 6440SOL     OW19855   3.146   0.163   0.678
 6440SOL    HW119856   3.144   0.258   0.686
 6440SOL    HW219857   3.149   0.132   0.769
 6441SOL     OW19858   3.441   3.930   0.880
 6441SOL    HW119859   3.390   3.931   0.961
 6441SOL    HW219860   3.437   0.020   0.848
 6442SOL     OW19861   2.094   3.980   2.844
 6442SOL    HW119862   2.118   3.962   2.935
 6442SOL    HW219863   2.003   3.953   2.836
 6443SOL     OW19864   1.874   0.061   2.578
 6443SOL    HW119865   1.801   0.108   2.538
 6443SOL    HW219866   1.913   0.012   2.505
 6444SOL     OW19867   3.633   0.318   2.043
 6444SOL    HW119868   3.557   0.302   1.988
 6444SOL    HW219869   3.596   0.342   2.128
 6445SOL     OW19870   2.302   0.095   3.367
 6445SOL    HW119871   2.374   0.050   3.321
 6445SOL    HW219872   2.225   0.042   3.348
 6446SOL     OW19873   3.457   3.851   3.321
 6446SOL    HW119874   3.462   3.938   3.281
 6446SOL    HW219875   3.443   3.868   3.414
 6447SOL     OW19876   2.669   3.730   2.368
 6447SOL    HW119877   2.695   3.822   2.362
 6447SOL    HW219878   2.573   3.732   2.377
 6448SOL     OW19879   3.129   0.062   2.800
 6448SOL    HW119880   3.056   0.008   2.767
 6448SOL    HW219881   3.184   0.001   2.848
 6449SOL     OW19882   2.416   3.904   2.754
 6449SOL    HW119883   2.411   3.923   2.848
 6449SOL    HW219884   2.411   3.990   2.712
 6450SOL     OW19885   2.054   3.982   3.351
 6450SOL    HW119886   2.000   0.061   3.363
 6450SOL    HW219887   2.014   3.917   3.408
 6451SOL     OW19888   3.268   3.832   2.293
 6451SOL    HW119889   3.259   3.799   2.204
 6451SOL    HW219890   3.360   3.818   2.316
 6452SOL     OW19891   3.398   3.938   3.585
 6452SOL    HW119892   3.423   3.940   3.678
 6452SOL    HW219893   3.328   3.872   3.581
 6453SOL     OW19894   2.491   3.848   1.991
 6453SOL    HW119895   2.582   3.819   1.989
 6453SOL    HW219896   2.449   3.801   1.919
 6454SOL     OW19897   2.634   3.957   3.605
 6454SOL    HW119898   2.686   3.927   3.680
 6454SOL    HW219899   2.548   3.975   3.641
 6455SOL     OW19900   2.397   3.784   2.378
 6455SOL    HW119901   2.350   3.786   2.461
 6455SOL    HW219902   2.405   3.876   2.352
 6456SOL     OW19903   2.147   3.760   2.042
 6456SOL    HW119904   2.187   3.847   2.035
 6456SOL    HW219905   2.215   3.705   2.080
 6457SOL     OW19906   2.419   3.943   3.031
 6457SOL    HW119907   2.462   3.873   3.080
 6457SOL    HW219908   2.327   3.938   3.058
 6458SOL     OW19909   2.883   3.766   2.594
 6458SOL    HW119910   2.817   3.753   2.525
 6458SOL    HW219911   2.859   3.702   2.661
 6459SOL     OW19912   2.785   3.802   3.259
 6459SOL    HW119913   2.814   3.781   3.170
 6459SOL    HW219914   2.859   3.850   3.297
 6460SOL     OW19915   3.129   0.074   3.128
 6460SOL    HW119916   3.138   0.143   3.193
 6460SOL    HW219917   3.061   0.106   3.068
 6461SOL     OW19918   2.371   3.750   3.619
 6461SOL    HW119919   2.315   3.704   3.556
 6461SOL    HW219920   2.342   3.841   3.616
 6462SOL     OW19921   2.156   3.920   3.112
 6462SOL    HW119922   2.112   3.938   3.195
 6462SOL    HW219923   2.144   3.825   3.099
 6463SOL     OW19924   3.444   3.953   1.985
 6463SOL    HW119925   3.379   3.897   2.026
 6463SOL    HW219926   3.458   0.024   2.047
 6464SOL     OW19927   3.025   3.921   3.335
 6464SOL    HW119928   3.028   3.995   3.395
 6464SOL    HW219929   3.068   3.953   3.256
 6465SOL     OW19930   2.763   3.811   1.963
 6465SOL    HW119931   2.822   3.769   1.900
 6465SOL    HW219932   2.804   3.796   2.048
 6466SOL     OW19933   3.592   3.859   2.388
 6466SOL    HW119934   3.660   3.845   2.322
 6466SOL    HW219935   3.570   3.772   2.419
 6467SOL     OW19936   3.697   3.895   2.825
 6467SOL    HW119937   3.730   3.809   2.802
 6467SOL    HW219938   3.611   3.900   2.783
 6468SOL     OW19939   2.539   3.909   3.351
 6468SOL    HW119940   2.622   3.899   3.304
 6468SOL    HW219941   2.564   3.932   3.440
 6469SOL     OW19942   1.906   0.053   1.896
 6469SOL    HW119943   1.869   0.028   1.811
 6469SOL    HW219944   1.935   0.143   1.884
 6470SOL     OW19945   1.922   3.864   2.170
 6470SOL    HW119946   1.912   3.954   2.138
 6470SOL    HW219947   2.004   3.833   2.129
 6471SOL     OW19948   3.058   0.012   2.326
 6471SOL    HW119949   3.123   3.943   2.327
 6471SOL    HW219950   3.077   0.065   2.403
 6472SOL     OW19951   3.647   0.047   3.489
 6472SOL    HW119952   3.602   0.082   3.412
 6472SOL    HW219953   3.578   0.001   3.538
 6473SOL     OW19954   3.677   3.910   3.097
 6473SOL    HW119955   3.665   3.818   3.121
 6473SOL    HW219956   3.687   3.909   3.002
 6474SOL     OW19957   3.301   3.931   2.979
 6474SOL    HW119958   3.328   3.849   3.021
 6474SOL    HW219959   3.243   3.973   3.043
 6475SOL     OW19960   2.878   3.736   3.009
 6475SOL    HW119961   2.820   3.682   2.956
 6475SOL    HW219962   2.963   3.693   3.004
 6476SOL     OW19963   3.217   3.770   2.022
 6476SOL    HW119964   3.252   3.699   1.968
 6476SOL    HW219965   3.130   3.741   2.047
 6477SOL     OW19966   3.144   0.162   2.544
 6477SOL    HW119967   3.146   0.257   2.549
 6477SOL    HW219968   3.148   0.133   2.635
 6478SOL     OW19969   3.440   3.929   2.742
 6478SOL    HW119970   3.390   3.931   2.824
 6478SOL    HW219971   3.437   0.019   2.710
 6479SOL     OW19972   2.094   3.980   4.706
 6479SOL    HW119973   2.118   3.962   4.797
 6479SOL    HW219974   2.003   3.953   4.698
 6480SOL     OW19975   1.874   0.061   4.440
 6480SOL    HW119976   1.801   0.108   4.399
 6480SOL    HW219977   1.914   0.012   4.367
 6481SOL     OW19978   3.633   0.318   3.905
 6481SOL    HW119979   3.557   0.302   3.850
 6481SOL    HW219980   3.596   0.342   3.990
 6482SOL     OW19981   2.302   0.095   5.229
 6482SOL    HW119982   2.374   0.051   5.183
 6482SOL    HW219983   2.225   0.042   5.209
 6483SOL     OW19984   3.457   3.851   5.183
 6483SOL    HW119985   3.462   3.938   5.143
 6483SOL    HW219986   3.443   3.868   5.276
 6484SOL     OW19987   2.669   3.730   4.230
 6484SOL    HW119988   2.695   3.822   4.224
 6484SOL    HW219989   2.573   3.732   4.239
 6485SOL     OW19990   3.129   0.062   4.662
 6485SOL    HW119991   3.056   0.008   4.630
 6485SOL    HW219992   3.184   0.001   4.710
 6486SOL     OW19993   2.416   3.904   4.616
 6486SOL    HW119994   2.411   3.923   4.709
 6486SOL    HW219995   2.411   3.990   4.574
 6487SOL     OW19996   2.053   3.982   5.212
 6487SOL    HW119997   2.001   0.061   5.225
 6487SOL    HW219998   2.014   3.917   5.270
 6488SOL     OW19999   3.268   3.832   4.155
 6488SOL    HW120000   3.259   3.799   4.066
 6488SOL    HW220001   3.360   3.818   4.178
 6489SOL     OW20002   3.398   3.937   5.447
 6489SOL    HW120003   3.423   3.940   5.540
 6489SOL    HW220004   3.328   3.872   5.443
 6490SOL     OW20005   2.491   3.848   3.853
 6490SOL    HW120006   2.582   3.819   3.851
 6490SOL    HW220007   2.449   3.801   3.781
 6491SOL     OW20008   2.635   3.957   5.467
 6491SOL    HW120009   2.686   3.927   5.542
 6491SOL    HW220010   2.548   3.975   5.503
 6492SOL     OW20011   2.397   3.784   4.240
 6492SOL    HW120012   2.350   3.786   4.323
 6492SOL    HW220013   2.405   3.876   4.214
 6493SOL     OW20014   2.147   3.760   3.904
 6493SOL    HW120015   2.187   3.847   3.897
 6493SOL    HW220016   2.215   3.705   3.942
 6494SOL     OW20017   2.419   3.943   4.893
 6494SOL    HW120018   2.462   3.873   4.942
 6494SOL    HW220019   2.327   3.938   4.920
 6495SOL     OW20020   2.883   3.766   4.456
 6495SOL    HW120021   2.817   3.753   4.387
 6495SOL    HW220022   2.859   3.702   4.523
 6496SOL     OW20023   2.785   3.803   5.121
 6496SOL    HW120024   2.814   3.781   5.032
 6496SOL    HW220025   2.859   3.850   5.159
 6497SOL     OW20026   3.129   0.074   4.990
 6497SOL    HW120027   3.138   0.143   5.055
 6497SOL    HW220028   3.061   0.105   4.930
 6498SOL     OW20029   2.371   3.750   5.481
 6498SOL    HW120030   2.315   3.704   5.418
 6498SOL    HW220031   2.343   3.841   5.478
 6499SOL     OW20032   2.156   3.919   4.974
 6499SOL    HW120033   2.112   3.938   5.057
 6499SOL    HW220034   2.144   3.825   4.961
 6500SOL     OW20035   3.444   3.953   3.847
 6500SOL    HW120036   3.379   3.897   3.888
 6500SOL    HW220037   3.457   0.025   3.909
 6501SOL     OW20038   3.025   3.921   5.197
 6501SOL    HW120039   3.027   3.995   5.257
 6501SOL    HW220040   3.068   3.953   5.118
 6502SOL     OW20041   2.763   3.811   3.825
 6502SOL    HW120042   2.822   3.769   3.762
 6502SOL    HW220043   2.804   3.796   3.910
 6503SOL     OW20044   3.592   3.859   4.250
 6503SOL    HW120045   3.660   3.845   4.184
 6503SOL    HW220046   3.570   3.772   4.281
 6504SOL     OW20047   3.697   3.895   4.687
 6504SOL    HW120048   3.730   3.809   4.664
 6504SOL    HW220049   3.611   3.900   4.645
 6505SOL     OW20050   2.539   3.909   5.213
 6505SOL    HW120051   2.622   3.899   5.167
 6505SOL    HW220052   2.564   3.932   5.303
 6506SOL     OW20053   1.906   0.053   3.758
 6506SOL    HW120054   1.869   0.028   3.673
 6506SOL    HW220055   1.935   0.143   3.746
 6507SOL     OW20056   1.922   3.864   4.032
 6507SOL    HW120057   1.912   3.954   4.000
 6507SOL    HW220058   2.003   3.833   3.991
 6508SOL     OW20059   3.058   0.013   4.188
 6508SOL    HW120060   3.124   3.943   4.189
 6508SOL    HW220061   3.077   0.065   4.265
 6509SOL     OW20062   3.647   0.047   5.352
 6509SOL    HW120063   3.602   0.082   5.274
 6509SOL    HW220064   3.578   0.001   5.400
 6510SOL     OW20065   3.677   3.910   4.959
 6510SOL    HW120066   3.665   3.818   4.983
 6510SOL    HW220067   3.687   3.909   4.864
 6511SOL     OW20068   3.301   3.931   4.841
 6511SOL    HW120069   3.328   3.849   4.882
 6511SOL    HW220070   3.243   3.973   4.905
 6512SOL     OW20071   2.878   3.736   4.871
 6512SOL    HW120072   2.820   3.682   4.818
 6512SOL    HW220073   2.963   3.693   4.866
 6513SOL     OW20074   3.217   3.770   3.884
 6513SOL    HW120075   3.252   3.699   3.830
 6513SOL    HW220076   3.130   3.742   3.909
 6514SOL     OW20077   3.144   0.162   4.406
 6514SOL    HW120078   3.146   0.257   4.411
 6514SOL    HW220079   3.148   0.133   4.497
 6515SOL     OW20080   3.440   3.929   4.604
 6515SOL    HW120081   3.390   3.931   4.686
 6515SOL    HW220082   3.437   0.019   4.572
 6516SOL     OW20083   2.094   3.980   6.568
 6516SOL    HW120084   2.117   3.961   6.659
 6516SOL    HW220085   2.003   3.953   6.560
 6517SOL     OW20086   1.874   0.061   6.302
 6517SOL    HW120087   1.802   0.109   6.261
 6517SOL    HW220088   1.914   0.012   6.230
 6518SOL     OW20089   3.633   0.318   5.767
 6518SOL    HW120090   3.557   0.302   5.712
 6518SOL    HW220091   3.596   0.342   5.852
 6519SOL     OW20092   2.303   0.094   7.092
 6519SOL    HW120093   2.374   0.050   7.045
 6519SOL    HW220094   2.225   0.042   7.071
 6520SOL     OW20095   3.457   3.851   7.045
 6520SOL    HW120096   3.462   3.938   7.005
 6520SOL    HW220097   3.443   3.868   7.138
 6521SOL     OW20098   2.669   3.730   6.092
 6521SOL    HW120099   2.695   3.822   6.086
 6521SOL    HW220100   2.574   3.732   6.101
 6522SOL     OW20101   3.128   0.062   6.525
 6522SOL    HW120102   3.057   0.009   6.491
 6522SOL    HW220103   3.184   0.001   6.572
 6523SOL     OW20104   2.416   3.904   6.478
 6523SOL    HW120105   2.410   3.923   6.571
 6523SOL    HW220106   2.412   3.990   6.435
 6524SOL     OW20107   2.053   3.983   7.074
 6524SOL    HW120108   2.001   0.062   7.086
 6524SOL    HW220109   2.013   3.919   7.134
 6525SOL     OW20110   3.268   3.832   6.017
 6525SOL    HW120111   3.259   3.799   5.928
 6525SOL    HW220112   3.360   3.817   6.039
 6526SOL     OW20113   3.398   3.938   7.309
 6526SOL    HW120114   3.423   3.940   7.402
 6526SOL    HW220115   3.328   3.872   7.305
 6527SOL     OW20116   2.491   3.848   5.715
 6527SOL    HW120117   2.582   3.819   5.713
 6527SOL    HW220118   2.449   3.801   5.643
 6528SOL     OW20119   2.634   3.957   7.329
 6528SOL    HW120120   2.686   3.927   7.404
 6528SOL    HW220121   2.547   3.974   7.365
 6529SOL     OW20122   2.398   3.784   6.102
 6529SOL    HW120123   2.350   3.786   6.185
 6529SOL    HW220124   2.405   3.876   6.076
 6530SOL     OW20125   2.147   3.760   5.766
 6530SOL    HW120126   2.187   3.847   5.759
 6530SOL    HW220127   2.214   3.705   5.804
 6531SOL     OW20128   2.419   3.944   6.755
 6531SOL    HW120129   2.462   3.872   6.803
 6531SOL    HW220130   2.327   3.939   6.782
 6532SOL     OW20131   2.883   3.766   6.318
 6532SOL    HW120132   2.818   3.753   6.249
 6532SOL    HW220133   2.859   3.702   6.385
 6533SOL     OW20134   2.785   3.803   6.983
 6533SOL    HW120135   2.814   3.782   6.894
 6533SOL    HW220136   2.859   3.850   7.021
 6534SOL     OW20137   3.129   0.073   6.852
 6534SOL    HW120138   3.138   0.143   6.917
 6534SOL    HW220139   3.061   0.105   6.792
 6535SOL     OW20140   2.371   3.750   7.343
 6535SOL    HW120141   2.315   3.705   7.280
 6535SOL    HW220142   2.343   3.842   7.340
 6536SOL     OW20143   2.156   3.919   6.836
 6536SOL    HW120144   2.112   3.938   6.919
 6536SOL    HW220145   2.144   3.825   6.824
 6537SOL     OW20146   3.444   3.953   5.709
 6537SOL    HW120147   3.379   3.897   5.750
 6537SOL    HW220148   3.457   0.025   5.771
 6538SOL     OW20149   3.025   3.921   7.059
 6538SOL    HW120150   3.028   3.995   7.119
 6538SOL    HW220151   3.068   3.952   6.979
 6539SOL     OW20152   2.763   3.811   5.687
 6539SOL    HW120153   2.822   3.769   5.624
 6539SOL    HW220154   2.804   3.796   5.772
 6540SOL     OW20155   3.592   3.859   6.112
 6540SOL    HW120156   3.660   3.845   6.046
 6540SOL    HW220157   3.570   3.772   6.143
 6541SOL     OW20158   3.697   3.895   6.549
 6541SOL    HW120159   3.730   3.808   6.526
 6541SOL    HW220160   3.611   3.900   6.507
 6542SOL     OW20161   2.539   3.909   7.075
 6542SOL    HW120162   2.622   3.899   7.028
 6542SOL    HW220163   2.565   3.932   7.164
 6543SOL     OW20164   1.905   0.053   5.621
 6543SOL    HW120165   1.869   0.028   5.535
 6543SOL    HW220166   1.935   0.143   5.608
 6544SOL     OW20167   1.922   3.864   5.893
 6544SOL    HW120168   1.912   3.954   5.861
 6544SOL    HW220169   2.003   3.833   5.853
 6545SOL     OW20170   3.057   0.012   6.050
 6545SOL    HW120171   3.124   3.943   6.051
 6545SOL    HW220172   3.077   0.065   6.127
 6546SOL     OW20173   3.646   0.048   7.214
 6546SOL    HW120174   3.602   0.081   7.136
 6546SOL    HW220175   3.578   0.001   7.262
 6547SOL     OW20176   3.677   3.909   6.822
 6547SOL    HW120177   3.665   3.817   6.845
 6547SOL    HW220178   3.687   3.909   6.726
 6548SOL     OW20179   3.302   3.931   6.703
 6548SOL    HW120180   3.327   3.848   6.743
 6548SOL    HW220181   3.244   3.972   6.767
 6549SOL     OW20182   2.878   3.736   6.733
 6549SOL    HW120183   2.820   3.682   6.680
 6549SOL    HW220184   2.963   3.693   6.728
 6550SOL     OW20185   3.217   3.770   5.746
 6550SOL    HW120186   3.252   3.699   5.692
 6550SOL    HW220187   3.130   3.741   5.771
 6551SOL     OW20188   3.144   0.162   6.268
 6551SOL    HW120189   3.146   0.257   6.272
 6551SOL    HW220190   3.148   0.133   6.359
 6552SOL     OW20191   3.441   3.929   6.466
 6552SOL    HW120192   3.390   3.931   6.547
 6552SOL    HW220193   3.437   0.019   6.433
 6553SOL     OW20194   2.094   3.980   8.430
 6553SOL    HW120195   2.118   3.962   8.521
 6553SOL    HW220196   2.003   3.953   8.422
 6554SOL     OW20197   1.875   0.061   8.164
 6554SOL    HW120198   1.802   0.109   8.124
 6554SOL    HW220199   1.913   0.012   8.091
 6555SOL     OW20200   3.633   0.319   7.629
 6555SOL    HW120201   3.557   0.302   7.573
 6555SOL    HW220202   3.595   0.342   7.714
 6556SOL     OW20203   2.302   0.094   8.953
 6556SOL    HW120204   2.373   0.050   8.907
 6556SOL    HW220205   2.225   0.042   8.934
 6557SOL     OW20206   3.457   3.851   8.907
 6557SOL    HW120207   3.462   3.938   8.867
 6557SOL    HW220208   3.443   3.868   9.000
 6558SOL     OW20209   2.669   3.730   7.954
 6558SOL    HW120210   2.695   3.822   7.948
 6558SOL    HW220211   2.573   3.733   7.963
 6559SOL     OW20212   3.129   0.062   8.386
 6559SOL    HW120213   3.057   0.008   8.353
 6559SOL    HW220214   3.184   0.001   8.434
 6560SOL     OW20215   2.416   3.904   8.340
 6560SOL    HW120216   2.410   3.923   8.433
 6560SOL    HW220217   2.411   3.990   8.298
 6561SOL     OW20218   2.054   3.982   8.937
 6561SOL    HW120219   2.000   0.060   8.949
 6561SOL    HW220220   2.014   3.916   8.994
 6562SOL     OW20221   3.268   3.832   7.879
 6562SOL    HW120222   3.259   3.799   7.790
 6562SOL    HW220223   3.359   3.817   7.901
 6563SOL     OW20224   3.398   3.938   9.171
 6563SOL    HW120225   3.423   3.940   9.264
 6563SOL    HW220226   3.328   3.872   9.167
 6564SOL     OW20227   2.491   3.848   7.577
 6564SOL    HW120228   2.582   3.819   7.575
 6564SOL    HW220229   2.449   3.801   7.505
 6565SOL     OW20230   2.634   3.957   9.191
 6565SOL    HW120231   2.686   3.927   9.266
 6565SOL    HW220232   2.548   3.975   9.227
 6566SOL     OW20233   2.397   3.784   7.964
 6566SOL    HW120234   2.350   3.786   8.047
 6566SOL    HW220235   2.405   3.876   7.938
 6567SOL     OW20236   2.147   3.760   7.628
 6567SOL    HW120237   2.187   3.847   7.621
 6567SOL    HW220238   2.216   3.706   7.666
 6568SOL     OW20239   2.419   3.943   8.617
 6568SOL    HW120240   2.462   3.873   8.666
 6568SOL    HW220241   2.327   3.939   8.644
 6569SOL     OW20242   2.882   3.766   8.180
 6569SOL    HW120243   2.817   3.753   8.111
 6569SOL    HW220244   2.859   3.702   8.248
 6570SOL     OW20245   2.785   3.803   8.845
 6570SOL    HW120246   2.814   3.781   8.756
 6570SOL    HW220247   2.859   3.850   8.883
 6571SOL     OW20248   3.129   0.074   8.714
 6571SOL    HW120249   3.138   0.143   8.779
 6571SOL    HW220250   3.061   0.105   8.654
 6572SOL     OW20251   2.371   3.750   9.205
 6572SOL    HW120252   2.315   3.704   9.142
 6572SOL    HW220253   2.343   3.841   9.202
 6573SOL     OW20254   2.156   3.920   8.698
 6573SOL    HW120255   2.112   3.938   8.781
 6573SOL    HW220256   2.144   3.825   8.685
 6574SOL     OW20257   3.444   3.953   7.571
 6574SOL    HW120258   3.379   3.896   7.612
 6574SOL    HW220259   3.458   0.023   7.634
 6575SOL     OW20260   3.025   3.921   8.921
 6575SOL    HW120261   3.028   3.995   8.981
 6575SOL    HW220262   3.068   3.953   8.842
 6576SOL     OW20263   2.763   3.810   7.548
 6576SOL    HW120264   2.821   3.769   7.485
 6576SOL    HW220265   2.805   3.795   7.633
 6577SOL     OW20266   3.592   3.859   7.974
 6577SOL    HW120267   3.660   3.845   7.908
 6577SOL    HW220268   3.570   3.772   8.005
 6578SOL     OW20269   3.697   3.895   8.411
 6578SOL    HW120270   3.730   3.809   8.388
 6578SOL    HW220271   3.611   3.900   8.369
 6579SOL     OW20272   2.539   3.909   8.937
 6579SOL    HW120273   2.622   3.899   8.890
 6579SOL    HW220274   2.564   3.932   9.026
 6580SOL     OW20275   1.907   0.052   7.482
 6580SOL    HW120276   1.869   0.028   7.397
 6580SOL    HW220277   1.936   0.143   7.470
 6581SOL     OW20278   1.923   3.864   7.756
 6581SOL    HW120279   1.912   3.954   7.725
 6581SOL    HW220280   2.004   3.834   7.715
 6582SOL     OW20281   3.057   0.013   7.912
 6582SOL    HW120282   3.123   3.943   7.913
 6582SOL    HW220283   3.077   0.065   7.989
 6583SOL     OW20284   3.647   0.047   9.076
 6583SOL    HW120285   3.602   0.081   8.998
 6583SOL    HW220286   3.578   0.001   9.124
 6584SOL     OW20287   3.677   3.910   8.683
 6584SOL    HW120288   3.665   3.817   8.706
 6584SOL    HW220289   3.687   3.909   8.588
 6585SOL     OW20290   3.301   3.931   8.565
 6585SOL    HW120291   3.328   3.849   8.606
 6585SOL    HW220292   3.244   3.973   8.629
 6586SOL     OW20293   2.878   3.736   8.595
 6586SOL    HW120294   2.820   3.682   8.542
 6586SOL    HW220295   2.963   3.693   8.590
 6587SOL     OW20296   3.218   3.770   7.608
 6587SOL    HW120297   3.252   3.699   7.554
 6587SOL    HW220298   3.130   3.741   7.632
 6588SOL     OW20299   3.144   0.162   8.130
 6588SOL    HW120300   3.146   0.257   8.135
 6588SOL    HW220301   3.148   0.133   8.221
 6589SOL     OW20302   3.440   3.929   8.328
 6589SOL    HW120303   3.390   3.931   8.409
 6589SOL    HW220304   3.437   0.019   8.296
 6590SOL     OW20305   2.094   3.980  10.292
 6590SOL    HW120306   2.118   3.962  10.383
 6590SOL    HW220307   2.003   3.953  10.284
 6591SOL     OW20308   1.874   0.061  10.026
 6591SOL    HW120309   1.801   0.108   9.986
 6591SOL    HW220310   1.914   0.012   9.953
 6592SOL     OW20311   3.633   0.318   9.491
 6592SOL    HW120312   3.557   0.302   9.436
 6592SOL    HW220313   3.596   0.342   9.576
 6593SOL     OW20314   2.302   0.095  10.815
 6593SOL    HW120315   2.374   0.051  10.769
 6593SOL    HW220316   2.225   0.042  10.795
 6594SOL     OW20317   3.457   3.851  10.769
 6594SOL    HW120318   3.462   3.938  10.729
 6594SOL    HW220319   3.443   3.868  10.862
 6595SOL     OW20320   2.669   3.730   9.816
 6595SOL    HW120321   2.695   3.822   9.810
 6595SOL    HW220322   2.573   3.732   9.825
 6596SOL     OW20323   3.129   0.062  10.248
 6596SOL    HW120324   3.056   0.008  10.215
 6596SOL    HW220325   3.184   0.001  10.296
 6597SOL     OW20326   2.416   3.904  10.202
 6597SOL    HW120327   2.411   3.923  10.296
 6597SOL    HW220328   2.411   3.990  10.160
 6598SOL     OW20329   2.053   3.982  10.798
 6598SOL    HW120330   2.001   0.061  10.811
 6598SOL    HW220331   2.014   3.918  10.856
 6599SOL     OW20332   3.268   3.832   9.741
 6599SOL    HW120333   3.259   3.799   9.652
 6599SOL    HW220334   3.360   3.818   9.764
 6600SOL     OW20335   3.398   3.938  11.033
 6600SOL    HW120336   3.423   3.940  11.126
 6600SOL    HW220337   3.328   3.872  11.029
 6601SOL     OW20338   2.491   3.848   9.439
 6601SOL    HW120339   2.582   3.819   9.437
 6601SOL    HW220340   2.449   3.801   9.367
 6602SOL     OW20341   2.634   3.957  11.053
 6602SOL    HW120342   2.686   3.927  11.128
 6602SOL    HW220343   2.548   3.975  11.089
 6603SOL     OW20344   2.397   3.784   9.826
 6603SOL    HW120345   2.350   3.786   9.909
 6603SOL    HW220346   2.405   3.876   9.800
 6604SOL     OW20347   2.147   3.760   9.490
 6604SOL    HW120348   2.187   3.847   9.483
 6604SOL    HW220349   2.215   3.705   9.528
 6605SOL     OW20350   2.419   3.943  10.479
 6605SOL    HW120351   2.462   3.873  10.528
 6605SOL    HW220352   2.327   3.938  10.506
 6606SOL     OW20353   2.883   3.766  10.042
 6606SOL    HW120354   2.817   3.753   9.973
 6606SOL    HW220355   2.859   3.702  10.109
 6607SOL     OW20356   2.785   3.802  10.707
 6607SOL    HW120357   2.814   3.781  10.618
 6607SOL    HW220358   2.859   3.850  10.745
 6608SOL     OW20359   3.129   0.074  10.576
 6608SOL    HW120360   3.138   0.143  10.641
 6608SOL    HW220361   3.061   0.106  10.516
 6609SOL     OW20362   2.371   3.750  11.067
 6609SOL    HW120363   2.315   3.704  11.004
 6609SOL    HW220364   2.343   3.841  11.064
 6610SOL     OW20365   2.156   3.919  10.560
 6610SOL    HW120366   2.112   3.938  10.643
 6610SOL    HW220367   2.144   3.825  10.547
 6611SOL     OW20368   3.444   3.953   9.433
 6611SOL    HW120369   3.379   3.897   9.474
 6611SOL    HW220370   3.458   0.024   9.495
 6612SOL     OW20371   3.025   3.921  10.783
 6612SOL    HW120372   3.027   3.995  10.843
 6612SOL    HW220373   3.068   3.953  10.704
 6613SOL     OW20374   2.763   3.811   9.411
 6613SOL    HW120375   2.822   3.769   9.348
 6613SOL    HW220376   2.804   3.796   9.496
 6614SOL     OW20377   3.592   3.859   9.836
 6614SOL    HW120378   3.660   3.845   9.770
 6614SOL    HW220379   3.570   3.772   9.867
 6615SOL     OW20380   3.697   3.895  10.273
 6615SOL    HW120381   3.730   3.809  10.250
 6615SOL    HW220382   3.611   3.900  10.231
 6616SOL     OW20383   2.539   3.909  10.799
 6616SOL    HW120384   2.622   3.899  10.752
 6616SOL    HW220385   2.564   3.931  10.888
 6617SOL     OW20386   1.906   0.053   9.344
 6617SOL    HW120387   1.869   0.028   9.259
 6617SOL    HW220388   1.935   0.143   9.332
 6618SOL     OW20389   1.922   3.864   9.618
 6618SOL    HW120390   1.912   3.953   9.586
 6618SOL    HW220391   2.003   3.833   9.577
 6619SOL     OW20392   3.057   0.012   9.774
 6619SOL    HW120393   3.124   3.943   9.775
 6619SOL    HW220394   3.077   0.065   9.851
 6620SOL     OW20395   3.647   0.047  10.938
 6620SOL    HW120396   3.602   0.082  10.860
 6620SOL    HW220397   3.578   0.001  10.986
 6621SOL     OW20398   3.677   3.910  10.545
 6621SOL    HW120399   3.665   3.817  10.568
 6621SOL    HW220400   3.687   3.909  10.450
 6622SOL     OW20401   3.301   3.931  10.427
 6622SOL    HW120402   3.328   3.849  10.469
 6622SOL    HW220403   3.243   3.973  10.491
 6623SOL     OW20404   2.878   3.736  10.457
 6623SOL    HW120405   2.820   3.682  10.404
 6623SOL    HW220406   2.963   3.693  10.452
 6624SOL     OW20407   3.217   3.770   9.470
 6624SOL    HW120408   3.252   3.699   9.416
 6624SOL    HW220409   3.130   3.741   9.495
 6625SOL     OW20410   3.144   0.162   9.992
 6625SOL    HW120411   3.146   0.257   9.997
 6625SOL    HW220412   3.148   0.133  10.083
 6626SOL     OW20413   3.440   3.929  10.190
 6626SOL    HW120414   3.390   3.931  10.271
 6626SOL    HW220415   3.437   0.019  10.158
 6627SOL     OW20416   2.094   3.980  12.154
 6627SOL    HW120417   2.118   3.962  12.245
 6627SOL    HW220418   2.003   3.953  12.146
 6628SOL     OW20419   1.874   0.061  11.888
 6628SOL    HW120420   1.801   0.108  11.848
 6628SOL    HW220421   1.914   0.012  11.815
 6629SOL     OW20422   3.633   0.318  11.353
 6629SOL    HW120423   3.557   0.302  11.298
 6629SOL    HW220424   3.596   0.342  11.438
 6630SOL     OW20425   2.302   0.095  12.677
 6630SOL    HW120426   2.373   0.050  12.631
 6630SOL    HW220427   2.225   0.042  12.658
 6631SOL     OW20428   3.457   3.851  12.631
 6631SOL    HW120429   3.462   3.938  12.591
 6631SOL    HW220430   3.442   3.868  12.724
 6632SOL     OW20431   2.669   3.730  11.678
 6632SOL    HW120432   2.695   3.822  11.672
 6632SOL    HW220433   2.573   3.732  11.687
 6633SOL     OW20434   3.129   0.062  12.110
 6633SOL    HW120435   3.056   0.008  12.077
 6633SOL    HW220436   3.184   0.001  12.158
 6634SOL     OW20437   2.416   3.904  12.064
 6634SOL    HW120438   2.411   3.923  12.158
 6634SOL    HW220439   2.411   3.990  12.022
 6635SOL     OW20440   2.054   3.982  12.661
 6635SOL    HW120441   2.000   0.060  12.673
 6635SOL    HW220442   2.014   3.916  12.718
 6636SOL     OW20443   3.268   3.832  11.603
 6636SOL    HW120444   3.259   3.799  11.514
 6636SOL    HW220445   3.360   3.818  11.626
 6637SOL     OW20446   3.398   3.938  12.896
 6637SOL    HW120447   3.421   3.942  12.989
 6637SOL    HW220448   3.328   3.872  12.892
 6638SOL     OW20449   2.491   3.848  11.301
 6638SOL    HW120450   2.582   3.819  11.299
 6638SOL    HW220451   2.449   3.801  11.229
 6639SOL     OW20452   2.635   3.957  12.915
 6639SOL    HW120453   2.686   3.927  12.990
 6639SOL    HW220454   2.548   3.974  12.951
 6640SOL     OW20455   2.397   3.784  11.688
 6640SOL    HW120456   2.350   3.786  11.771
 6640SOL    HW220457   2.405   3.876  11.662
 6641SOL     OW20458   2.147   3.760  11.352
 6641SOL    HW120459   2.187   3.847  11.345
 6641SOL    HW220460   2.215   3.705  11.390
 6642SOL     OW20461   2.419   3.943  12.341
 6642SOL    HW120462   2.462   3.873  12.390
 6642SOL    HW220463   2.327   3.938  12.368
 6643SOL     OW20464   2.883   3.766  11.904
 6643SOL    HW120465   2.817   3.753  11.835
 6643SOL    HW220466   2.859   3.702  11.971
 6644SOL     OW20467   2.785   3.803  12.569
 6644SOL    HW120468   2.814   3.781  12.480
 6644SOL    HW220469   2.859   3.850  12.607
 6645SOL     OW20470   3.129   0.074  12.438
 6645SOL    HW120471   3.138   0.143  12.503
 6645SOL    HW220472   3.061   0.105  12.378
 6646SOL     OW20473   2.372   3.749  12.928
 6646SOL    HW120474   2.315   3.704  12.866
 6646SOL    HW220475   2.342   3.841  12.926
 6647SOL     OW20476   2.156   3.920  12.422
 6647SOL    HW120477   2.112   3.938  12.505
 6647SOL    HW220478   2.144   3.825  12.409
 6648SOL     OW20479   3.444   3.953  11.295
 6648SOL    HW120480   3.379   3.897  11.336
 6648SOL    HW220481   3.457   0.025  11.357
 6649SOL     OW20482   3.025   3.921  12.645
 6649SOL    HW120483   3.028   3.994  12.705
 6649SOL    HW220484   3.068   3.953  12.565
 6650SOL     OW20485   2.763   3.811  11.273
 6650SOL    HW120486   2.822   3.769  11.210
 6650SOL    HW220487   2.804   3.796  11.358
 6651SOL     OW20488   3.592   3.859  11.698
 6651SOL    HW120489   3.660   3.845  11.632
 6651SOL    HW220490   3.570   3.772  11.729
 6652SOL     OW20491   3.697   3.895  12.135
 6652SOL    HW120492   3.730   3.809  12.112
 6652SOL    HW220493   3.611   3.900  12.093
 6653SOL     OW20494   2.539   3.909  12.661
 6653SOL    HW120495   2.622   3.899  12.614
 6653SOL    HW220496   2.564   3.932  12.750
 6654SOL     OW20497   1.906   0.053  11.206
 6654SOL    HW120498   1.869   0.028  11.121
 6654SOL    HW220499   1.935   0.143  11.194
 6655SOL     OW20500   1.922   3.864  11.480
 6655SOL    HW120501   1.912   3.954  11.448
 6655SOL    HW220502   2.003   3.833  11.439
 6656SOL     OW20503   3.057   0.012  11.636
 6656SOL    HW120504   3.124   3.943  11.637
 6656SOL    HW220505   3.077   0.065  11.713
 6657SOL     OW20506   3.646   0.048  12.799
 6657SOL    HW120507   3.602   0.082  12.721
 6657SOL    HW220508   3.578   0.001  12.848
 6658SOL     OW20509   3.677   3.910  12.407
 6658SOL    HW120510   3.665   3.818  12.431
 6658SOL    HW220511   3.687   3.909  12.312
 6659SOL     OW20512   3.301   3.931  12.289
 6659SOL    HW120513   3.328   3.849  12.330
 6659SOL    HW220514   3.243   3.973  12.353
 6660SOL     OW20515   2.878   3.736  12.319
 6660SOL    HW120516   2.820   3.682  12.266
 6660SOL    HW220517   2.963   3.693  12.314
 6661SOL     OW20518   3.217   3.770  11.332
 6661SOL    HW120519   3.252   3.699  11.278
 6661SOL    HW220520   3.130   3.741  11.357
 6662SOL     OW20521   3.144   0.162  11.854
 6662SOL    HW120522   3.146   0.257  11.859
 6662SOL    HW220523   3.148   0.133  11.945
 6663SOL     OW20524   3.440   3.929  12.052
 6663SOL    HW120525   3.390   3.931  12.133
 6663SOL    HW220526   3.437   0.019  12.020
 6664SOL     OW20527   1.879   0.090  13.687
 6664SOL    HW120528   1.797   0.111  13.731
 6664SOL    HW220529   1.868   3.999  13.658
 6665SOL     OW20530   3.633   0.316  13.215
 6665SOL    HW120531   3.557   0.300  13.159
 6665SOL    HW220532   3.595   0.337  13.301
 6666SOL     OW20533   3.465   0.174  13.768
 6666SOL    HW120534   3.377   0.150  13.740
 6666SOL    HW220535   3.457   0.264  13.800
 6667SOL     OW20536   2.671   3.731  13.540
 6667SOL    HW120537   2.694   3.824  13.534
 6667SOL    HW220538   2.576   3.731  13.550
 6668SOL     OW20539   3.269   3.836  13.462
 6668SOL    HW120540   3.264   3.800  13.374
 6668SOL    HW220541   3.361   3.827  13.487
 6669SOL     OW20542   2.491   3.849  13.162
 6669SOL    HW120543   2.582   3.819  13.161
 6669SOL    HW220544   2.449   3.801  13.090
 6670SOL     OW20545   2.399   3.779  13.549
 6670SOL    HW120546   2.346   3.767  13.628
 6670SOL    HW220547   2.400   3.873  13.535
 6671SOL     OW20548   2.146   3.760  13.213
 6671SOL    HW120549   2.187   3.846  13.207
 6671SOL    HW220550   2.213   3.705  13.253
 6672SOL     OW20551   2.874   3.762  13.770
 6672SOL    HW120552   2.817   3.756  13.693
 6672SOL    HW220553   2.854   3.683  13.820
 6673SOL     OW20554   3.444   3.957  13.158
 6673SOL    HW120555   3.385   3.895  13.201
 6673SOL    HW220556   3.479   0.010  13.229
 6674SOL     OW20557   2.763   3.811  13.134
 6674SOL    HW120558   2.822   3.769  13.071
 6674SOL    HW220559   2.804   3.795  13.220
 6675SOL     OW20560   3.591   3.858  13.567
 6675SOL    HW120561   3.659   3.847  13.501
 6675SOL    HW220562   3.573   3.769  13.598
 6676SOL     OW20563   3.712   3.896   0.045
 6676SOL    HW120564   3.748   3.808   0.056
 6676SOL    HW220565   3.624   3.891   0.082
 6677SOL     OW20566   1.906   0.052  13.065
 6677SOL    HW120567   1.869   0.029  12.979
 6677SOL    HW220568   1.935   0.143  13.055
 6678SOL     OW20569   1.920   3.865  13.342
 6678SOL    HW120570   1.914   3.959  13.321
 6678SOL    HW220571   2.001   3.836  13.299
 6679SOL     OW20572   3.051   0.002  13.517
 6679SOL    HW120573   3.124   3.943  13.498
 6679SOL    HW220574   3.085   0.059  13.586
 6680SOL     OW20575   3.218   3.770  13.193
 6680SOL    HW120576   3.251   3.698  13.139
 6680SOL    HW220577   3.131   3.742  13.219
 6681SOL     OW20578   3.175   0.154  13.735
 6681SOL    HW120579   3.141   0.243  13.719
 6681SOL    HW220580   3.155   0.137  13.827
 6682SOL     OW20581   3.953   0.629   0.128
 6682SOL    HW120582   3.893   0.632   0.201
 6682SOL    HW220583   3.910   0.574   0.063
 6683SOL     OW20584   3.954   0.299   0.995
 6683SOL    HW120585   3.963   0.274   1.086
 6683SOL    HW220586   3.869   0.264   0.969
 6684SOL     OW20587   3.731   0.394   0.637
 6684SOL    HW120588   3.644   0.408   0.673
 6684SOL    HW220589   3.723   0.317   0.581
 6685SOL     OW20590   0.012   1.526   1.051
 6685SOL    HW120591   3.958   1.448   1.037
 6685SOL    HW220592   0.079   1.522   0.982
 6686SOL     OW20593   3.947   1.717   0.475
 6686SOL    HW120594   3.944   1.791   0.535
 6686SOL    HW220595   0.040   1.706   0.455
 6687SOL     OW20596   3.936   1.437   0.506
 6687SOL    HW120597   3.926   1.532   0.509
 6687SOL    HW220598   3.883   1.406   0.580
 6688SOL     OW20599   3.806   0.649   0.557
 6688SOL    HW120600   3.789   0.558   0.582
 6688SOL    HW220601   3.810   0.696   0.640
 6689SOL     OW20602   3.694   1.616   0.099
 6689SOL    HW120603   3.730   1.529   0.117
 6689SOL    HW220604   3.699   1.662   0.182
 6690SOL     OW20605   3.824   0.751   1.576
 6690SOL    HW120606   3.904   0.798   1.597
 6690SOL    HW220607   3.757   0.820   1.569
 6691SOL     OW20608   3.805   0.819   0.771
 6691SOL    HW120609   3.899   0.815   0.790
 6691SOL    HW220610   3.773   0.891   0.826
 6692SOL     OW20611   3.847   1.876   1.569
 6692SOL    HW120612   3.847   1.847   1.660
 6692SOL    HW220613   3.769   1.837   1.531
 6693SOL     OW20614   3.924   0.310   1.520
 6693SOL    HW120615   3.851   0.359   1.484
 6693SOL    HW220616   3.883   0.247   1.580
 6694SOL     OW20617   3.809   0.547   1.392
 6694SOL    HW120618   3.904   0.546   1.379
 6694SOL    HW220619   3.793   0.623   1.448
 6695SOL     OW20620   3.792   1.574   1.350
 6695SOL    HW120621   3.765   1.636   1.283
 6695SOL    HW220622   3.887   1.581   1.353
 6696SOL     OW20623   0.070   1.098   0.538
 6696SOL    HW120624   0.080   1.151   0.459
 6696SOL    HW220625   0.145   1.037   0.536
 6697SOL     OW20626   0.004   0.214   1.248
 6697SOL    HW120627   3.976   0.239   1.336
 6697SOL    HW220628   0.003   0.119   1.248
 6698SOL     OW20629   3.751   1.312   1.277
 6698SOL    HW120630   3.794   1.262   1.347
 6698SOL    HW220631   3.765   1.404   1.302
 6699SOL     OW20632   3.744   1.318   0.171
 6699SOL    HW120633   3.660   1.333   0.127
 6699SOL    HW220634   3.732   1.236   0.218
 6700SOL     OW20635   3.801   1.793   0.939
 6700SOL    HW120636   3.778   1.713   0.892
 6700SOL    HW220637   3.895   1.803   0.925
 6701SOL     OW20638   0.211   1.550   0.865
 6701SOL    HW120639   0.293   1.599   0.865
 6701SOL    HW220640   0.221   1.486   0.794
 6702SOL     OW20641   3.752   0.536   1.117
 6702SOL    HW120642   3.831   0.529   1.064
 6702SOL    HW220643   3.784   0.545   1.207
 6703SOL     OW20644   3.904   0.531   1.713
 6703SOL    HW120645   3.940   0.478   1.643
 6703SOL    HW220646   3.862   0.605   1.668
 6704SOL     OW20647   3.941   1.531   1.726
 6704SOL    HW120648   3.930   1.616   1.769
 6704SOL    HW220649   3.990   1.478   1.789
 6705SOL     OW20650   3.860   1.136   1.472
 6705SOL    HW120651   3.934   1.134   1.532
 6705SOL    HW220652   3.891   1.091   1.394
 6706SOL     OW20653   3.811   1.269   1.012
 6706SOL    HW120654   3.782   1.280   1.103
 6706SOL    HW220655   3.752   1.202   0.976
 6707SOL     OW20656   3.844   1.790   1.824
 6707SOL    HW120657   3.792   1.725   1.873
 6707SOL    HW220658   3.894   1.835   1.892
 6708SOL     OW20659   3.801   0.406   0.003
 6708SOL    HW120660   3.764   0.326   0.038
 6708SOL    HW220661   3.776   0.407  13.811
 6709SOL     OW20662   3.793   0.145   0.352
 6709SOL    HW120663   3.756   0.222   0.308
 6709SOL    HW220664   3.888   0.159   0.349
 6710SOL     OW20665   3.800   1.234   0.665
 6710SOL    HW120666   3.792   1.187   0.748
 6710SOL    HW220667   3.884   1.204   0.629
 6711SOL     OW20668   3.753   1.081   0.306
 6711SOL    HW120669   3.848   1.088   0.314
 6711SOL    HW220670   3.734   0.989   0.327
 6712SOL     OW20671   3.956   0.632   1.969
 6712SOL    HW120672   3.875   0.635   2.020
 6712SOL    HW220673   3.929   0.599   1.883
 6713SOL     OW20674   3.954   0.297   2.856
 6713SOL    HW120675   3.964   0.273   2.948
 6713SOL    HW220676   3.868   0.264   2.831
 6714SOL     OW20677   3.731   0.393   2.499
 6714SOL    HW120678   3.644   0.408   2.536
 6714SOL    HW220679   3.721   0.317   2.442
 6715SOL     OW20680   0.012   1.526   2.913
 6715SOL    HW120681   3.959   1.448   2.899
 6715SOL    HW220682   0.079   1.522   2.844
 6716SOL     OW20683   3.942   1.720   2.338
 6716SOL    HW120684   3.944   1.792   2.400
 6716SOL    HW220685   0.033   1.705   2.314
 6717SOL     OW20686   3.944   1.439   2.370
 6717SOL    HW120687   3.923   1.532   2.370
 6717SOL    HW220688   3.887   1.401   2.436
 6718SOL     OW20689   3.805   0.649   2.421
 6718SOL    HW120690   3.790   0.558   2.446
 6718SOL    HW220691   3.809   0.697   2.504
 6719SOL     OW20692   3.758   1.596   1.991
 6719SOL    HW120693   3.737   1.504   2.008
 6719SOL    HW220694   3.727   1.643   2.068
 6720SOL     OW20695   3.824   0.751   3.438
 6720SOL    HW120696   3.904   0.798   3.459
 6720SOL    HW220697   3.757   0.820   3.430
 6721SOL     OW20698   3.805   0.818   2.635
 6721SOL    HW120699   3.899   0.815   2.653
 6721SOL    HW220700   3.773   0.891   2.688
 6722SOL     OW20701   3.847   1.876   3.431
 6722SOL    HW120702   3.847   1.847   3.522
 6722SOL    HW220703   3.768   1.837   3.393
 6723SOL     OW20704   3.924   0.310   3.382
 6723SOL    HW120705   3.851   0.360   3.346
 6723SOL    HW220706   3.883   0.247   3.442
 6724SOL     OW20707   3.809   0.547   3.254
 6724SOL    HW120708   3.904   0.546   3.241
 6724SOL    HW220709   3.793   0.623   3.310
 6725SOL     OW20710   0.266   0.292   2.194
 6725SOL    HW120711   0.319   0.226   2.149
 6725SOL    HW220712   0.306   0.375   2.168
 6726SOL     OW20713   3.792   1.574   3.212
 6726SOL    HW120714   3.765   1.636   3.144
 6726SOL    HW220715   3.887   1.581   3.215
 6727SOL     OW20716   0.064   1.096   2.394
 6727SOL    HW120717   0.060   1.135   2.306
 6727SOL    HW220718   0.130   1.027   2.386
 6728SOL     OW20719   0.004   0.215   3.110
 6728SOL    HW120720   3.976   0.239   3.198
 6728SOL    HW220721   0.003   0.119   3.110
 6729SOL     OW20722   3.751   1.312   3.139
 6729SOL    HW120723   3.794   1.262   3.209
 6729SOL    HW220724   3.765   1.404   3.164
 6730SOL     OW20725   3.728   1.327   2.048
 6730SOL    HW120726   3.642   1.340   2.008
 6730SOL    HW220727   3.720   1.244   2.095
 6731SOL     OW20728   3.801   1.794   2.801
 6731SOL    HW120729   3.778   1.714   2.754
 6731SOL    HW220730   3.895   1.803   2.787
 6732SOL     OW20731   0.211   1.550   2.727
 6732SOL    HW120732   0.294   1.598   2.727
 6732SOL    HW220733   0.221   1.485   2.657
 6733SOL     OW20734   3.752   0.536   2.979
 6733SOL    HW120735   3.832   0.530   2.926
 6733SOL    HW220736   3.784   0.544   3.069
 6734SOL     OW20737   3.903   0.531   3.575
 6734SOL    HW120738   3.940   0.478   3.505
 6734SOL    HW220739   3.862   0.605   3.530
 6735SOL     OW20740   3.941   1.531   3.588
 6735SOL    HW120741   3.930   1.616   3.631
 6735SOL    HW220742   3.990   1.478   3.651
 6736SOL     OW20743   3.860   1.136   3.334
 6736SOL    HW120744   3.934   1.134   3.394
 6736SOL    HW220745   3.891   1.091   3.256
 6737SOL     OW20746   3.811   1.269   2.874
 6737SOL    HW120747   3.782   1.280   2.965
 6737SOL    HW220748   3.752   1.203   2.838
 6738SOL     OW20749   3.844   1.789   3.686
 6738SOL    HW120750   3.792   1.725   3.735
 6738SOL    HW220751   3.894   1.835   3.754
 6739SOL     OW20752   3.823   0.316   1.858
 6739SOL    HW120753   3.755   0.333   1.923
 6739SOL    HW220754   3.821   0.393   1.800
 6740SOL     OW20755   3.776   0.151   2.206
 6740SOL    HW120756   3.743   0.206   2.136
 6740SOL    HW220757   3.871   0.155   2.198
 6741SOL     OW20758   3.802   1.237   2.527
 6741SOL    HW120759   3.794   1.188   2.609
 6741SOL    HW220760   3.879   1.200   2.484
 6742SOL     OW20761   3.752   1.082   2.173
 6742SOL    HW120762   3.843   1.083   2.142
 6742SOL    HW220763   3.735   0.990   2.193
 6743SOL     OW20764   3.956   0.632   3.831
 6743SOL    HW120765   3.875   0.635   3.882
 6743SOL    HW220766   3.929   0.599   3.746
 6744SOL     OW20767   3.954   0.297   4.718
 6744SOL    HW120768   3.964   0.273   4.810
 6744SOL    HW220769   3.868   0.264   4.693
 6745SOL     OW20770   3.731   0.393   4.361
 6745SOL    HW120771   3.644   0.408   4.398
 6745SOL    HW220772   3.721   0.317   4.304
 6746SOL     OW20773   0.012   1.526   4.775
 6746SOL    HW120774   3.958   1.448   4.761
 6746SOL    HW220775   0.079   1.522   4.707
 6747SOL     OW20776   3.942   1.720   4.200
 6747SOL    HW120777   3.944   1.792   4.262
 6747SOL    HW220778   0.033   1.705   4.176
 6748SOL     OW20779   3.945   1.439   4.232
 6748SOL    HW120780   3.923   1.532   4.232
 6748SOL    HW220781   3.887   1.401   4.298
 6749SOL     OW20782   3.805   0.649   4.283
 6749SOL    HW120783   3.790   0.558   4.308
 6749SOL    HW220784   3.809   0.697   4.366
 6750SOL     OW20785   3.758   1.596   3.853
 6750SOL    HW120786   3.737   1.504   3.870
 6750SOL    HW220787   3.727   1.643   3.930
 6751SOL     OW20788   3.823   0.751   5.300
 6751SOL    HW120789   3.904   0.799   5.321
 6751SOL    HW220790   3.757   0.820   5.292
 6752SOL     OW20791   3.805   0.818   4.497
 6752SOL    HW120792   3.899   0.815   4.515
 6752SOL    HW220793   3.773   0.891   4.550
 6753SOL     OW20794   3.847   1.876   5.293
 6753SOL    HW120795   3.847   1.846   5.384
 6753SOL    HW220796   3.768   1.838   5.255
 6754SOL     OW20797   3.924   0.310   5.244
 6754SOL    HW120798   3.851   0.360   5.207
 6754SOL    HW220799   3.883   0.247   5.304
 6755SOL     OW20800   3.809   0.547   5.116
 6755SOL    HW120801   3.904   0.546   5.103
 6755SOL    HW220802   3.793   0.623   5.172
 6756SOL     OW20803   0.267   0.292   4.056
 6756SOL    HW120804   0.319   0.226   4.011
 6756SOL    HW220805   0.306   0.376   4.031
 6757SOL     OW20806   3.792   1.574   5.074
 6757SOL    HW120807   3.764   1.636   5.007
 6757SOL    HW220808   3.887   1.581   5.077
 6758SOL     OW20809   0.064   1.096   4.256
 6758SOL    HW120810   0.060   1.135   4.169
 6758SOL    HW220811   0.130   1.027   4.248
 6759SOL     OW20812   0.004   0.215   4.972
 6759SOL    HW120813   3.976   0.239   5.060
 6759SOL    HW220814   0.003   0.119   4.972
 6760SOL     OW20815   3.752   1.312   5.001
 6760SOL    HW120816   3.794   1.262   5.071
 6760SOL    HW220817   3.765   1.404   5.026
 6761SOL     OW20818   3.728   1.327   3.910
 6761SOL    HW120819   3.642   1.340   3.870
 6761SOL    HW220820   3.720   1.244   3.957
 6762SOL     OW20821   3.801   1.794   4.663
 6762SOL    HW120822   3.778   1.714   4.616
 6762SOL    HW220823   3.896   1.803   4.649
 6763SOL     OW20824   0.211   1.550   4.589
 6763SOL    HW120825   0.294   1.598   4.589
 6763SOL    HW220826   0.221   1.485   4.519
 6764SOL     OW20827   3.752   0.535   4.841
 6764SOL    HW120828   3.832   0.530   4.788
 6764SOL    HW220829   3.784   0.544   4.931
 6765SOL     OW20830   3.904   0.532   5.437
 6765SOL    HW120831   3.940   0.478   5.367
 6765SOL    HW220832   3.862   0.605   5.392
 6766SOL     OW20833   3.941   1.531   5.450
 6766SOL    HW120834   3.929   1.617   5.492
 6766SOL    HW220835   3.988   1.479   5.515
 6767SOL     OW20836   3.860   1.136   5.196
 6767SOL    HW120837   3.935   1.134   5.256
 6767SOL    HW220838   3.891   1.091   5.117
 6768SOL     OW20839   3.811   1.269   4.736
 6768SOL    HW120840   3.782   1.280   4.827
 6768SOL    HW220841   3.752   1.203   4.700
 6769SOL     OW20842   3.845   1.789   5.548
 6769SOL    HW120843   3.792   1.725   5.596
 6769SOL    HW220844   3.894   1.835   5.616
 6770SOL     OW20845   3.823   0.316   3.720
 6770SOL    HW120846   3.755   0.333   3.785
 6770SOL    HW220847   3.821   0.393   3.662
 6771SOL     OW20848   3.776   0.151   4.068
 6771SOL    HW120849   3.743   0.206   3.998
 6771SOL    HW220850   3.871   0.155   4.060
 6772SOL     OW20851   3.802   1.237   4.389
 6772SOL    HW120852   3.794   1.188   4.471
 6772SOL    HW220853   3.879   1.200   4.347
 6773SOL     OW20854   3.752   1.082   4.035
 6773SOL    HW120855   3.843   1.083   4.003
 6773SOL    HW220856   3.735   0.990   4.055
 6774SOL     OW20857   3.956   0.632   5.693
 6774SOL    HW120858   3.875   0.635   5.744
 6774SOL    HW220859   3.930   0.599   5.607
 6775SOL     OW20860   3.954   0.298   6.580
 6775SOL    HW120861   3.963   0.273   6.672
 6775SOL    HW220862   3.868   0.264   6.555
 6776SOL     OW20863   3.731   0.393   6.223
 6776SOL    HW120864   3.644   0.408   6.260
 6776SOL    HW220865   3.721   0.317   6.165
 6777SOL     OW20866   0.012   1.526   6.637
 6777SOL    HW120867   3.958   1.448   6.623
 6777SOL    HW220868   0.078   1.522   6.569
 6778SOL     OW20869   3.941   1.720   6.062
 6778SOL    HW120870   3.944   1.792   6.124
 6778SOL    HW220871   0.033   1.705   6.037
 6779SOL     OW20872   3.946   1.439   6.095
 6779SOL    HW120873   3.924   1.532   6.094
 6779SOL    HW220874   3.887   1.401   6.160
 6780SOL     OW20875   3.805   0.649   6.145
 6780SOL    HW120876   3.790   0.558   6.170
 6780SOL    HW220877   3.809   0.696   6.228
 6781SOL     OW20878   3.760   1.595   5.716
 6781SOL    HW120879   3.737   1.504   5.732
 6781SOL    HW220880   3.727   1.643   5.792
 6782SOL     OW20881   3.824   0.752   7.162
 6782SOL    HW120882   3.905   0.798   7.182
 6782SOL    HW220883   3.758   0.820   7.154
 6783SOL     OW20884   3.805   0.818   6.360
 6783SOL    HW120885   3.899   0.815   6.377
 6783SOL    HW220886   3.773   0.891   6.412
 6784SOL     OW20887   3.847   1.876   7.156
 6784SOL    HW120888   3.847   1.846   7.246
 6784SOL    HW220889   3.769   1.837   7.117
 6785SOL     OW20890   3.924   0.310   7.107
 6785SOL    HW120891   3.851   0.359   7.070
 6785SOL    HW220892   3.883   0.246   7.165
 6786SOL     OW20893   3.809   0.547   6.978
 6786SOL    HW120894   3.904   0.546   6.965
 6786SOL    HW220895   3.794   0.623   7.034
 6787SOL     OW20896   0.267   0.292   5.918
 6787SOL    HW120897   0.318   0.225   5.873
 6787SOL    HW220898   0.306   0.375   5.891
 6788SOL     OW20899   3.792   1.574   6.937
 6788SOL    HW120900   3.765   1.635   6.869
 6788SOL    HW220901   3.887   1.581   6.939
 6789SOL     OW20902   0.065   1.097   6.118
 6789SOL    HW120903   0.058   1.134   6.030
 6789SOL    HW220904   0.128   1.025   6.109
 6790SOL     OW20905   0.004   0.215   6.834
 6790SOL    HW120906   3.976   0.239   6.922
 6790SOL    HW220907   0.003   0.119   6.834
 6791SOL     OW20908   3.750   1.313   6.864
 6791SOL    HW120909   3.794   1.263   6.932
 6791SOL    HW220910   3.764   1.404   6.888
 6792SOL     OW20911   3.728   1.326   5.772
 6792SOL    HW120912   3.642   1.340   5.732
 6792SOL    HW220913   3.720   1.243   5.819
 6793SOL     OW20914   3.801   1.794   6.525
 6793SOL    HW120915   3.778   1.714   6.479
 6793SOL    HW220916   3.895   1.803   6.511
 6794SOL     OW20917   0.211   1.550   6.451
 6794SOL    HW120918   0.293   1.598   6.450
 6794SOL    HW220919   0.219   1.486   6.381
 6795SOL     OW20920   3.752   0.536   6.703
 6795SOL    HW120921   3.831   0.530   6.649
 6795SOL    HW220922   3.785   0.545   6.793
 6796SOL     OW20923   3.903   0.531   7.299
 6796SOL    HW120924   3.940   0.478   7.229
 6796SOL    HW220925   3.862   0.605   7.254
 6797SOL     OW20926   3.940   1.531   7.312
 6797SOL    HW120927   3.930   1.615   7.356
 6797SOL    HW220928   3.992   1.478   7.373
 6798SOL     OW20929   3.860   1.135   7.059
 6798SOL    HW120930   3.935   1.134   7.118
 6798SOL    HW220931   3.890   1.091   6.980
 6799SOL     OW20932   3.810   1.269   6.598
 6799SOL    HW120933   3.781   1.280   6.689
 6799SOL    HW220934   3.752   1.203   6.562
 6800SOL     OW20935   3.844   1.789   7.411
 6800SOL    HW120936   3.792   1.725   7.459
 6800SOL    HW220937   3.894   1.835   7.478
 6801SOL     OW20938   3.823   0.316   5.582
 6801SOL    HW120939   3.755   0.333   5.647
 6801SOL    HW220940   3.821   0.393   5.524
 6802SOL     OW20941   3.776   0.151   5.931
 6802SOL    HW120942   3.743   0.206   5.860
 6802SOL    HW220943   3.871   0.155   5.922
 6803SOL     OW20944   3.802   1.238   6.251
 6803SOL    HW120945   3.793   1.188   6.332
 6803SOL    HW220946   3.879   1.200   6.209
 6804SOL     OW20947   3.753   1.082   5.898
 6804SOL    HW120948   3.843   1.083   5.865
 6804SOL    HW220949   3.735   0.990   5.918
 6805SOL     OW20950   3.956   0.632   7.555
 6805SOL    HW120951   3.875   0.634   7.606
 6805SOL    HW220952   3.930   0.599   7.469
 6806SOL     OW20953   3.954   0.297   8.442
 6806SOL    HW120954   3.963   0.273   8.534
 6806SOL    HW220955   3.868   0.264   8.417
 6807SOL     OW20956   3.731   0.393   8.085
 6807SOL    HW120957   3.644   0.407   8.121
 6807SOL    HW220958   3.722   0.316   8.029
 6808SOL     OW20959   0.011   1.526   8.498
 6808SOL    HW120960   3.959   1.447   8.485
 6808SOL    HW220961   0.079   1.522   8.430
 6809SOL     OW20962   3.941   1.720   7.924
 6809SOL    HW120963   3.944   1.792   7.986
 6809SOL    HW220964   0.033   1.705   7.900
 6810SOL     OW20965   3.944   1.439   7.956
 6810SOL    HW120966   3.924   1.532   7.956
 6810SOL    HW220967   3.887   1.401   8.023
 6811SOL     OW20968   3.804   0.650   8.007
 6811SOL    HW120969   3.790   0.558   8.032
 6811SOL    HW220970   3.809   0.697   8.090
 6812SOL     OW20971   3.757   1.596   7.577
 6812SOL    HW120972   3.737   1.504   7.595
 6812SOL    HW220973   3.726   1.643   7.655
 6813SOL     OW20974   3.824   0.751   9.024
 6813SOL    HW120975   3.904   0.798   9.045
 6813SOL    HW220976   3.757   0.820   9.017
 6814SOL     OW20977   3.805   0.819   8.221
 6814SOL    HW120978   3.899   0.815   8.238
 6814SOL    HW220979   3.773   0.892   8.275
 6815SOL     OW20980   3.847   1.876   9.017
 6815SOL    HW120981   3.847   1.846   9.108
 6815SOL    HW220982   3.768   1.837   8.979
 6816SOL     OW20983   3.924   0.310   8.968
 6816SOL    HW120984   3.851   0.359   8.932
 6816SOL    HW220985   3.883   0.247   9.028
 6817SOL     OW20986   3.809   0.547   8.840
 6817SOL    HW120987   3.904   0.546   8.827
 6817SOL    HW220988   3.794   0.623   8.896
 6818SOL     OW20989   0.266   0.292   7.780
 6818SOL    HW120990   0.318   0.225   7.735
 6818SOL    HW220991   0.307   0.375   7.754
 6819SOL     OW20992   3.792   1.574   8.798
 6819SOL    HW120993   3.765   1.636   8.730
 6819SOL    HW220994   3.887   1.580   8.801
 6820SOL     OW20995   0.065   1.096   7.980
 6820SOL    HW120996   0.061   1.135   7.892
 6820SOL    HW220997   0.132   1.028   7.972
 6821SOL     OW20998   0.004   0.215   8.696
 6821SOL    HW120999   3.976   0.239   8.784
 6821SOL    HW221000   0.003   0.119   8.696
 6822SOL     OW21001   3.751   1.312   8.725
 6822SOL    HW121002   3.793   1.262   8.794
 6822SOL    HW221003   3.765   1.404   8.749
 6823SOL     OW21004   3.728   1.327   7.635
 6823SOL    HW121005   3.642   1.340   7.595
 6823SOL    HW221006   3.720   1.243   7.682
 6824SOL     OW21007   3.801   1.794   8.387
 6824SOL    HW121008   3.778   1.714   8.340
 6824SOL    HW221009   3.896   1.803   8.374
 6825SOL     OW21010   0.211   1.550   8.313
 6825SOL    HW121011   0.294   1.599   8.313
 6825SOL    HW221012   0.221   1.486   8.243
 6826SOL     OW21013   3.752   0.536   8.565
 6826SOL    HW121014   3.831   0.530   8.512
 6826SOL    HW221015   3.784   0.544   8.655
 6827SOL     OW21016   3.903   0.531   9.161
 6827SOL    HW121017   3.940   0.478   9.091
 6827SOL    HW221018   3.862   0.605   9.116
 6828SOL     OW21019   3.941   1.531   9.174
 6828SOL    HW121020   3.930   1.616   9.217
 6828SOL    HW221021   3.990   1.478   9.237
 6829SOL     OW21022   3.860   1.135   8.920
 6829SOL    HW121023   3.934   1.134   8.980
 6829SOL    HW221024   3.892   1.091   8.842
 6830SOL     OW21025   3.810   1.269   8.460
 6830SOL    HW121026   3.782   1.280   8.550
 6830SOL    HW221027   3.752   1.202   8.424
 6831SOL     OW21028   3.844   1.789   9.272
 6831SOL    HW121029   3.792   1.725   9.321
 6831SOL    HW221030   3.894   1.835   9.340
 6832SOL     OW21031   3.823   0.316   7.444
 6832SOL    HW121032   3.755   0.333   7.509
 6832SOL    HW221033   3.821   0.392   7.386
 6833SOL     OW21034   3.776   0.152   7.793
 6833SOL    HW121035   3.743   0.207   7.721
 6833SOL    HW221036   3.871   0.155   7.784
 6834SOL     OW21037   3.801   1.237   8.113
 6834SOL    HW121038   3.795   1.188   8.195
 6834SOL    HW221039   3.878   1.201   8.070
 6835SOL     OW21040   3.752   1.082   7.759
 6835SOL    HW121041   3.843   1.083   7.728
 6835SOL    HW221042   3.735   0.990   7.779
 6836SOL     OW21043   3.956   0.632   9.417
 6836SOL    HW121044   3.875   0.635   9.468
 6836SOL    HW221045   3.929   0.599   9.332
 6837SOL     OW21046   3.954   0.297  10.304
 6837SOL    HW121047   3.964   0.273  10.396
 6837SOL    HW221048   3.868   0.264  10.279
 6838SOL     OW21049   3.731   0.393   9.947
 6838SOL    HW121050   3.644   0.408   9.984
 6838SOL    HW221051   3.721   0.317   9.890
 6839SOL     OW21052   0.012   1.526  10.361
 6839SOL    HW121053   3.958   1.448  10.347
 6839SOL    HW221054   0.079   1.522  10.292
 6840SOL     OW21055   3.942   1.720   9.785
 6840SOL    HW121056   3.944   1.792   9.848
 6840SOL    HW221057   0.033   1.705   9.762
 6841SOL     OW21058   3.945   1.439   9.818
 6841SOL    HW121059   3.923   1.532   9.818
 6841SOL    HW221060   3.887   1.401   9.884
 6842SOL     OW21061   3.805   0.649   9.869
 6842SOL    HW121062   3.790   0.558   9.894
 6842SOL    HW221063   3.809   0.697   9.952
 6843SOL     OW21064   3.758   1.596   9.439
 6843SOL    HW121065   3.737   1.504   9.456
 6843SOL    HW221066   3.727   1.643   9.516
 6844SOL     OW21067   3.824   0.752  10.886
 6844SOL    HW121068   3.904   0.799  10.907
 6844SOL    HW221069   3.757   0.820  10.878
 6845SOL     OW21070   3.805   0.818  10.083
 6845SOL    HW121071   3.899   0.815  10.101
 6845SOL    HW221072   3.773   0.891  10.136
 6846SOL     OW21073   3.847   1.876  10.879
 6846SOL    HW121074   3.847   1.847  10.970
 6846SOL    HW221075   3.769   1.837  10.841
 6847SOL     OW21076   3.924   0.310  10.830
 6847SOL    HW121077   3.851   0.360  10.794
 6847SOL    HW221078   3.883   0.248  10.890
 6848SOL     OW21079   3.809   0.547  10.702
 6848SOL    HW121080   3.904   0.546  10.689
 6848SOL    HW221081   3.793   0.623  10.758
 6849SOL     OW21082   0.267   0.292   9.642
 6849SOL    HW121083   0.318   0.226   9.597
 6849SOL    HW221084   0.306   0.375   9.616
 6850SOL     OW21085   3.792   1.574  10.660
 6850SOL    HW121086   3.765   1.636  10.592
 6850SOL    HW221087   3.887   1.581  10.663
 6851SOL     OW21088   0.064   1.096   9.842
 6851SOL    HW121089   0.060   1.135   9.755
 6851SOL    HW221090   0.130   1.027   9.834
 6852SOL     OW21091   0.004   0.215  10.558
 6852SOL    HW121092   3.976   0.239  10.646
 6852SOL    HW221093   0.003   0.119  10.558
 6853SOL     OW21094   3.751   1.312  10.587
 6853SOL    HW121095   3.794   1.262  10.657
 6853SOL    HW221096   3.765   1.404  10.612
 6854SOL     OW21097   3.728   1.327   9.496
 6854SOL    HW121098   3.642   1.340   9.456
 6854SOL    HW221099   3.720   1.244   9.543
 6855SOL     OW21100   3.801   1.794  10.249
 6855SOL    HW121101   3.778   1.714  10.202
 6855SOL    HW221102   3.896   1.803  10.235
 6856SOL     OW21103   0.211   1.550  10.175
 6856SOL    HW121104   0.294   1.598  10.175
 6856SOL    HW221105   0.221   1.485  10.105
 6857SOL     OW21106   3.752   0.536  10.427
 6857SOL    HW121107   3.832   0.530  10.374
 6857SOL    HW221108   3.784   0.544  10.517
 6858SOL     OW21109   3.903   0.532  11.023
 6858SOL    HW121110   3.940   0.478  10.953
 6858SOL    HW221111   3.862   0.605  10.978
 6859SOL     OW21112   3.941   1.531  11.036
 6859SOL    HW121113   3.930   1.616  11.079
 6859SOL    HW221114   3.990   1.478  11.100
 6860SOL     OW21115   3.860   1.136  10.782
 6860SOL    HW121116   3.935   1.134  10.842
 6860SOL    HW221117   3.891   1.091  10.704
 6861SOL     OW21118   3.811   1.269  10.322
 6861SOL    HW121119   3.782   1.280  10.413
 6861SOL    HW221120   3.752   1.203  10.286
 6862SOL     OW21121   3.844   1.789  11.134
 6862SOL    HW121122   3.792   1.725  11.183
 6862SOL    HW221123   3.894   1.835  11.202
 6863SOL     OW21124   3.823   0.316   9.306
 6863SOL    HW121125   3.755   0.333   9.371
 6863SOL    HW221126   3.821   0.393   9.248
 6864SOL     OW21127   3.776   0.151   9.654
 6864SOL    HW121128   3.743   0.206   9.584
 6864SOL    HW221129   3.871   0.155   9.646
 6865SOL     OW21130   3.802   1.237   9.975
 6865SOL    HW121131   3.794   1.188  10.057
 6865SOL    HW221132   3.879   1.200   9.932
 6866SOL     OW21133   3.752   1.082   9.621
 6866SOL    HW121134   3.843   1.083   9.589
 6866SOL    HW221135   3.735   0.990   9.641
 6867SOL     OW21136   3.956   0.632  11.279
 6867SOL    HW121137   3.875   0.635  11.330
 6867SOL    HW221138   3.929   0.599  11.193
 6868SOL     OW21139   3.954   0.297  12.166
 6868SOL    HW121140   3.964   0.273  12.258
 6868SOL    HW221141   3.868   0.264  12.141
 6869SOL     OW21142   3.731   0.393  11.809
 6869SOL    HW121143   3.644   0.408  11.846
 6869SOL    HW221144   3.721   0.317  11.752
 6870SOL     OW21145   0.012   1.526  12.223
 6870SOL    HW121146   3.958   1.448  12.209
 6870SOL    HW221147   0.079   1.522  12.154
 6871SOL     OW21148   3.942   1.720  11.647
 6871SOL    HW121149   3.944   1.792  11.710
 6871SOL    HW221150   0.033   1.705  11.624
 6872SOL     OW21151   3.945   1.439  11.680
 6872SOL    HW121152   3.923   1.532  11.680
 6872SOL    HW221153   3.887   1.401  11.746
 6873SOL     OW21154   3.805   0.649  11.731
 6873SOL    HW121155   3.790   0.558  11.756
 6873SOL    HW221156   3.809   0.697  11.814
 6874SOL     OW21157   3.758   1.596  11.301
 6874SOL    HW121158   3.737   1.504  11.318
 6874SOL    HW221159   3.727   1.643  11.378
 6875SOL     OW21160   3.824   0.752  12.748
 6875SOL    HW121161   3.904   0.799  12.768
 6875SOL    HW221162   3.757   0.820  12.740
 6876SOL     OW21163   3.805   0.818  11.945
 6876SOL    HW121164   3.899   0.815  11.963
 6876SOL    HW221165   3.773   0.891  11.998
 6877SOL     OW21166   3.847   1.876  12.742
 6877SOL    HW121167   3.847   1.847  12.833
 6877SOL    HW221168   3.769   1.837  12.704
 6878SOL     OW21169   3.924   0.310  12.693
 6878SOL    HW121170   3.851   0.360  12.656
 6878SOL    HW221171   3.883   0.247  12.751
 6879SOL     OW21172   3.809   0.547  12.564
 6879SOL    HW121173   3.904   0.546  12.551
 6879SOL    HW221174   3.794   0.623  12.620
 6880SOL     OW21175   0.267   0.292  11.504
 6880SOL    HW121176   0.319   0.226  11.459
 6880SOL    HW221177   0.306   0.376  11.478
 6881SOL     OW21178   3.792   1.574  12.522
 6881SOL    HW121179   3.765   1.636  12.455
 6881SOL    HW221180   3.887   1.581  12.524
 6882SOL     OW21181   0.064   1.096  11.704
 6882SOL    HW121182   0.059   1.135  11.617
 6882SOL    HW221183   0.130   1.027  11.696
 6883SOL     OW21184   0.004   0.215  12.420
 6883SOL    HW121185   3.976   0.239  12.508
 6883SOL    HW221186   0.003   0.119  12.420
 6884SOL     OW21187   3.751   1.312  12.449
 6884SOL    HW121188   3.794   1.262  12.519
 6884SOL    HW221189   3.765   1.404  12.473
 6885SOL     OW21190   3.728   1.327  11.358
 6885SOL    HW121191   3.642   1.340  11.318
 6885SOL    HW221192   3.720   1.243  11.405
 6886SOL     OW21193   3.801   1.794  12.111
 6886SOL    HW121194   3.778   1.714  12.064
 6886SOL    HW221195   3.896   1.803  12.097
 6887SOL     OW21196   0.211   1.550  12.037
 6887SOL    HW121197   0.294   1.598  12.037
 6887SOL    HW221198   0.221   1.486  11.967
 6888SOL     OW21199   3.752   0.535  12.289
 6888SOL    HW121200   3.831   0.530  12.236
 6888SOL    HW221201   3.784   0.544  12.379
 6889SOL     OW21202   3.905   0.532  12.885
 6889SOL    HW121203   3.940   0.478  12.815
 6889SOL    HW221204   3.863   0.605  12.840
 6890SOL     OW21205   3.941   1.532  12.899
 6890SOL    HW121206   3.930   1.616  12.942
 6890SOL    HW221207   3.988   1.478  12.963
 6891SOL     OW21208   3.860   1.135  12.644
 6891SOL    HW121209   3.935   1.135  12.703
 6891SOL    HW221210   3.891   1.091  12.565
 6892SOL     OW21211   3.811   1.269  12.184
 6892SOL    HW121212   3.782   1.280  12.275
 6892SOL    HW221213   3.752   1.203  12.148
 6893SOL     OW21214   3.845   1.790  12.998
 6893SOL    HW121215   3.793   1.726  13.046
 6893SOL    HW221216   3.894   1.836  13.066
 6894SOL     OW21217   3.823   0.316  11.168
 6894SOL    HW121218   3.755   0.333  11.233
 6894SOL    HW221219   3.821   0.393  11.110
 6895SOL     OW21220   3.776   0.151  11.516
 6895SOL    HW121221   3.743   0.206  11.446
 6895SOL    HW221222   3.871   0.155  11.508
 6896SOL     OW21223   3.802   1.237  11.837
 6896SOL    HW121224   3.794   1.188  11.919
 6896SOL    HW221225   3.879   1.200  11.794
 6897SOL     OW21226   3.752   1.082  11.483
 6897SOL    HW121227   3.843   1.083  11.451
 6897SOL    HW221228   3.735   0.990  11.503
 6898SOL     OW21229   3.954   0.630  13.143
 6898SOL    HW121230   3.870   0.634  13.190
 6898SOL    HW221231   3.930   0.598  13.056
 6899SOL     OW21232   3.721   0.388  13.645
 6899SOL    HW121233   3.630   0.405  13.670
 6899SOL    HW221234   3.721   0.297  13.616
 6900SOL     OW21235   3.941   1.715  13.504
 6900SOL    HW121236   3.940   1.789  13.564
 6900SOL    HW221237   0.033   1.701  13.484
 6901SOL     OW21238   3.944   1.435  13.538
 6901SOL    HW121239   3.925   1.529  13.538
 6901SOL    HW221240   3.885   1.399  13.604
 6902SOL     OW21241   3.944   1.097   0.006
 6902SOL    HW121242   3.982   1.053   0.083
 6902SOL    HW221243   3.856   1.120   0.034
 6903SOL     OW21244   3.823   0.647  13.594
 6903SOL    HW121245   3.780   0.563  13.610
 6903SOL    HW221246   3.813   0.695  13.676
 6904SOL     OW21247   3.756   1.596  13.162
 6904SOL    HW121248   3.736   1.504  13.180
 6904SOL    HW221249   3.725   1.643  13.240
 6905SOL     OW21250   3.797   0.809  13.812
 6905SOL    HW121251   3.891   0.817  13.826
 6905SOL    HW221252   3.760   0.888  13.852
 6906SOL     OW21253   0.098   1.811  13.885
 6906SOL    HW121254   0.058   1.735   0.028
 6906SOL    HW221255   0.167   1.838   0.046
 6907SOL     OW21256   0.267   0.294  13.368
 6907SOL    HW121257   0.317   0.223  13.328
 6907SOL    HW221258   0.312   0.374  13.340
 6908SOL     OW21259   0.068   1.097  13.558
 6908SOL    HW121260   0.064   1.138  13.472
 6908SOL    HW221261   0.137   1.031  13.550
 6909SOL     OW21262   3.728   1.327  13.220
 6909SOL    HW121263   3.642   1.340  13.180
 6909SOL    HW221264   3.719   1.244  13.268
 6910SOL     OW21265   0.312   1.535   0.013
 6910SOL    HW121266   0.253   1.602   0.047
 6910SOL    HW221267   0.257   1.479  13.858
 6911SOL     OW21268   3.823   0.317  13.029
 6911SOL    HW121269   3.754   0.332  13.094
 6911SOL    HW221270   3.820   0.393  12.972
 6912SOL     OW21271   3.786   0.151  13.371
 6912SOL    HW121272   3.750   0.207  13.303
 6912SOL    HW221273   3.881   0.155  13.358
 6913SOL     OW21274   3.808   1.231  13.688
 6913SOL    HW121275   3.800   1.170  13.762
 6913SOL    HW221276   3.886   1.201  13.641
 6914SOL     OW21277   3.752   1.081  13.344
 6914SOL    HW121278   3.842   1.083  13.310
 6914SOL    HW221279   3.737   0.989  13.364
 6915SOL     OW21280   3.954   2.496   0.131
 6915SOL    HW121281   3.885   2.500   0.198
 6915SOL    HW221282   3.915   2.446   0.059
 6916SOL     OW21283   3.962   2.126   0.987
 6916SOL    HW121284   3.966   2.120   1.082
 6916SOL    HW221285   3.869   2.112   0.967
 6917SOL     OW21286   3.724   2.245   0.636
 6917SOL    HW121287   3.643   2.268   0.683
 6917SOL    HW221288   3.705   2.162   0.594
 6918SOL     OW21289   0.013   3.385   1.052
 6918SOL    HW121290   3.959   3.307   1.033
 6918SOL    HW221291   0.078   3.386   0.983
 6919SOL     OW21292   3.939   3.574   0.480
 6919SOL    HW121293   3.950   3.648   0.539
 6919SOL    HW221294   0.026   3.561   0.441
 6920SOL     OW21295   3.934   3.297   0.507
 6920SOL    HW121296   3.926   3.392   0.506
 6920SOL    HW221297   3.882   3.269   0.583
 6921SOL     OW21298   3.813   2.502   0.559
 6921SOL    HW121299   3.783   2.415   0.584
 6921SOL    HW221300   3.810   2.553   0.641
 6922SOL     OW21301   3.751   3.467   0.118
 6922SOL    HW121302   3.727   3.376   0.135
 6922SOL    HW221303   3.716   3.515   0.193
 6923SOL     OW21304   3.824   2.604   1.582
 6923SOL    HW121305   3.906   2.649   1.604
 6923SOL    HW221306   3.760   2.674   1.575
 6924SOL     OW21307   3.804   2.679   0.769
 6924SOL    HW121308   3.898   2.677   0.788
 6924SOL    HW221309   3.770   2.751   0.823
 6925SOL     OW21310   3.849   3.725   1.569
 6925SOL    HW121311   3.847   3.697   1.660
 6925SOL    HW221312   3.763   3.699   1.534
 6926SOL     OW21313   3.922   2.152   1.516
 6926SOL    HW121314   3.841   2.196   1.490
 6926SOL    HW221315   3.894   2.068   1.551
 6927SOL     OW21316   3.810   2.409   1.391
 6927SOL    HW121317   3.905   2.405   1.381
 6927SOL    HW221318   3.795   2.482   1.450
 6928SOL     OW21319   3.792   3.435   1.350
 6928SOL    HW121320   3.766   3.499   1.283
 6928SOL    HW221321   3.887   3.442   1.354
 6929SOL     OW21322   0.074   2.956   0.537
 6929SOL    HW121323   0.078   3.014   0.461
 6929SOL    HW221324   0.154   2.904   0.532
 6930SOL     OW21325   0.004   2.074   1.252
 6930SOL    HW121326   3.975   2.105   1.338
 6930SOL    HW221327   0.011   1.979   1.262
 6931SOL     OW21328   3.750   3.174   1.276
 6931SOL    HW121329   3.793   3.124   1.346
 6931SOL    HW221330   3.765   3.266   1.300
 6932SOL     OW21331   3.992   1.921   0.655
 6932SOL    HW121332   0.012   2.014   0.667
 6932SOL    HW221333   0.016   1.880   0.738
 6933SOL     OW21334   3.740   3.176   0.174
 6933SOL    HW121335   3.657   3.188   0.127
 6933SOL    HW221336   3.730   3.093   0.220
 6934SOL     OW21337   3.803   3.651   0.939
 6934SOL    HW121338   3.780   3.570   0.892
 6934SOL    HW221339   3.897   3.660   0.927
 6935SOL     OW21340   0.211   3.419   0.867
 6935SOL    HW121341   0.280   3.486   0.862
 6935SOL    HW221342   0.232   3.358   0.796
 6936SOL     OW21343   3.756   2.402   1.119
 6936SOL    HW121344   3.839   2.399   1.071
 6936SOL    HW221345   3.781   2.407   1.211
 6937SOL     OW21346   3.899   2.377   1.723
 6937SOL    HW121347   3.925   2.316   1.654
 6937SOL    HW221348   3.859   2.450   1.676
 6938SOL     OW21349   3.940   3.392   1.727
 6938SOL    HW121350   3.930   3.478   1.766
 6938SOL    HW221351   3.990   3.342   1.792
 6939SOL     OW21352   3.859   2.998   1.472
 6939SOL    HW121353   3.933   2.996   1.533
 6939SOL    HW221354   3.893   2.955   1.393
 6940SOL     OW21355   3.810   3.130   1.011
 6940SOL    HW121356   3.783   3.142   1.102
 6940SOL    HW221357   3.751   3.064   0.977
 6941SOL     OW21358   3.841   3.647   1.824
 6941SOL    HW121359   3.790   3.583   1.873
 6941SOL    HW221360   3.888   3.697   1.890
 6942SOL     OW21361   3.777   2.272   0.030
 6942SOL    HW121362   3.742   2.188   0.062
 6942SOL    HW221363   3.758   2.272  13.836
 6943SOL     OW21364   3.784   2.019   0.347
 6943SOL    HW121365   3.759   2.042   0.258
 6943SOL    HW221366   3.880   2.022   0.346
 6944SOL     OW21367   3.798   3.095   0.667
 6944SOL    HW121368   3.793   3.048   0.750
 6944SOL    HW221369   3.884   3.071   0.631
 6945SOL     OW21370   3.751   2.937   0.308
 6945SOL    HW121371   3.847   2.944   0.313
 6945SOL    HW221372   3.733   2.845   0.326
 6946SOL     OW21373   3.954   2.495   1.972
 6946SOL    HW121374   3.873   2.491   2.023
 6946SOL    HW221375   3.930   2.458   1.887
 6947SOL     OW21376   3.962   2.125   2.849
 6947SOL    HW121377   3.966   2.120   2.944
 6947SOL    HW221378   3.869   2.113   2.829
 6948SOL     OW21379   3.723   2.242   2.498
 6948SOL    HW121380   3.643   2.268   2.545
 6948SOL    HW221381   3.700   2.159   2.457
 6949SOL     OW21382   0.011   3.385   2.913
 6949SOL    HW121383   3.960   3.306   2.897
 6949SOL    HW221384   0.078   3.386   2.845
 6950SOL     OW21385   3.941   3.581   2.338
 6950SOL    HW121386   3.950   3.655   2.399
 6950SOL    HW221387   0.031   3.563   2.310
 6951SOL     OW21388   3.941   3.300   2.368
 6951SOL    HW121389   3.924   3.394   2.371
 6951SOL    HW221390   3.886   3.264   2.438
 6952SOL     OW21391   3.815   2.502   2.423
 6952SOL    HW121392   3.784   2.414   2.446
 6952SOL    HW221393   3.811   2.551   2.505
 6953SOL     OW21394   3.755   3.457   1.993
 6953SOL    HW121395   3.736   3.365   2.009
 6953SOL    HW221396   3.724   3.502   2.071
 6954SOL     OW21397   3.824   2.604   3.444
 6954SOL    HW121398   3.906   2.649   3.466
 6954SOL    HW221399   3.760   2.674   3.437
 6955SOL     OW21400   3.804   2.678   2.633
 6955SOL    HW121401   3.898   2.676   2.651
 6955SOL    HW221402   3.771   2.751   2.685
 6956SOL     OW21403   3.849   3.725   3.431
 6956SOL    HW121404   3.847   3.696   3.522
 6956SOL    HW221405   3.763   3.699   3.396
 6957SOL     OW21406   3.922   2.152   3.378
 6957SOL    HW121407   3.841   2.196   3.352
 6957SOL    HW221408   3.894   2.068   3.413
 6958SOL     OW21409   0.000   1.889   2.024
 6958SOL    HW121410   0.035   1.977   2.009
 6958SOL    HW221411   0.061   1.849   2.086
 6959SOL     OW21412   3.810   2.409   3.253
 6959SOL    HW121413   3.905   2.405   3.243
 6959SOL    HW221414   3.795   2.482   3.312
 6960SOL     OW21415   0.279   2.151   2.182
 6960SOL    HW121416   0.297   2.075   2.126
 6960SOL    HW221417   0.322   2.224   2.139
 6961SOL     OW21418   3.792   3.435   3.212
 6961SOL    HW121419   3.766   3.499   3.145
 6961SOL    HW221420   3.888   3.442   3.216
 6962SOL     OW21421   0.066   2.956   2.393
 6962SOL    HW121422   0.060   2.998   2.308
 6962SOL    HW221423   0.137   2.892   2.383
 6963SOL     OW21424   0.004   2.074   3.114
 6963SOL    HW121425   3.975   2.105   3.200
 6963SOL    HW221426   0.012   1.979   3.124
 6964SOL     OW21427   3.751   3.174   3.139
 6964SOL    HW121428   3.793   3.124   3.208
 6964SOL    HW221429   3.765   3.266   3.163
 6965SOL     OW21430   3.996   1.921   2.516
 6965SOL    HW121431   0.007   2.015   2.529
 6965SOL    HW221432   0.019   1.882   2.600
 6966SOL     OW21433   3.727   3.187   2.050
 6966SOL    HW121434   3.641   3.201   2.010
 6966SOL    HW221435   3.719   3.104   2.096
 6967SOL     OW21436   3.803   3.651   2.801
 6967SOL    HW121437   3.780   3.571   2.754
 6967SOL    HW221438   3.897   3.660   2.789
 6968SOL     OW21439   0.211   3.418   2.729
 6968SOL    HW121440   0.281   3.483   2.724
 6968SOL    HW221441   0.232   3.356   2.659
 6969SOL     OW21442   3.756   2.402   2.981
 6969SOL    HW121443   3.839   2.399   2.933
 6969SOL    HW221444   3.782   2.406   3.073
 6970SOL     OW21445   3.899   2.377   3.585
 6970SOL    HW121446   3.925   2.316   3.516
 6970SOL    HW221447   3.859   2.450   3.538
 6971SOL     OW21448   3.940   3.392   3.589
 6971SOL    HW121449   3.930   3.478   3.629
 6971SOL    HW221450   3.990   3.342   3.654
 6972SOL     OW21451   3.859   2.998   3.334
 6972SOL    HW121452   3.933   2.996   3.395
 6972SOL    HW221453   3.892   2.955   3.255
 6973SOL     OW21454   3.810   3.131   2.873
 6973SOL    HW121455   3.782   3.143   2.964
 6973SOL    HW221456   3.751   3.064   2.839
 6974SOL     OW21457   3.841   3.647   3.686
 6974SOL    HW121458   3.790   3.583   3.735
 6974SOL    HW221459   3.888   3.698   3.752
 6975SOL     OW21460   3.801   2.195   1.905
 6975SOL    HW121461   3.717   2.160   1.875
 6975SOL    HW221462   3.820   2.267   1.845
 6976SOL     OW21463   3.762   2.023   2.175
 6976SOL    HW121464   3.754   2.085   2.102
 6976SOL    HW221465   3.854   2.031   2.203
 6977SOL     OW21466   3.800   3.099   2.528
 6977SOL    HW121467   3.794   3.051   2.610
 6977SOL    HW221468   3.879   3.065   2.486
 6978SOL     OW21469   3.751   2.940   2.174
 6978SOL    HW121470   3.841   2.942   2.141
 6978SOL    HW221471   3.735   2.848   2.193
 6979SOL     OW21472   3.954   2.495   3.834
 6979SOL    HW121473   3.873   2.491   3.885
 6979SOL    HW221474   3.930   2.458   3.749
 6980SOL     OW21475   3.962   2.125   4.711
 6980SOL    HW121476   3.966   2.121   4.807
 6980SOL    HW221477   3.869   2.113   4.691
 6981SOL     OW21478   3.723   2.242   4.360
 6981SOL    HW121479   3.643   2.268   4.407
 6981SOL    HW221480   3.700   2.159   4.319
 6982SOL     OW21481   0.012   3.385   4.776
 6982SOL    HW121482   3.960   3.307   4.759
 6982SOL    HW221483   0.078   3.386   4.707
 6983SOL     OW21484   3.941   3.581   4.200
 6983SOL    HW121485   3.950   3.655   4.261
 6983SOL    HW221486   0.031   3.563   4.172
 6984SOL     OW21487   3.941   3.300   4.230
 6984SOL    HW121488   3.924   3.394   4.234
 6984SOL    HW221489   3.886   3.264   4.300
 6985SOL     OW21490   3.815   2.502   4.285
 6985SOL    HW121491   3.784   2.414   4.308
 6985SOL    HW221492   3.811   2.551   4.367
 6986SOL     OW21493   3.755   3.457   3.854
 6986SOL    HW121494   3.736   3.365   3.871
 6986SOL    HW221495   3.724   3.502   3.933
 6987SOL     OW21496   3.824   2.604   5.306
 6987SOL    HW121497   3.906   2.649   5.329
 6987SOL    HW221498   3.759   2.674   5.299
 6988SOL     OW21499   3.804   2.678   4.495
 6988SOL    HW121500   3.898   2.676   4.513
 6988SOL    HW221501   3.771   2.751   4.547
 6989SOL     OW21502   3.849   3.725   5.293
 6989SOL    HW121503   3.847   3.697   5.384
 6989SOL    HW221504   3.763   3.699   5.258
 6990SOL     OW21505   3.921   2.153   5.240
 6990SOL    HW121506   3.840   2.196   5.213
 6990SOL    HW221507   3.893   2.068   5.275
 6991SOL     OW21508   0.000   1.889   3.886
 6991SOL    HW121509   0.035   1.977   3.871
 6991SOL    HW221510   0.061   1.849   3.948
 6992SOL     OW21511   3.810   2.409   5.115
 6992SOL    HW121512   3.905   2.405   5.105
 6992SOL    HW221513   3.795   2.482   5.174
 6993SOL     OW21514   0.279   2.151   4.045
 6993SOL    HW121515   0.297   2.075   3.988
 6993SOL    HW221516   0.322   2.224   4.001
 6994SOL     OW21517   3.792   3.435   5.074
 6994SOL    HW121518   3.766   3.499   5.007
 6994SOL    HW221519   3.887   3.442   5.078
 6995SOL     OW21520   0.066   2.956   4.255
 6995SOL    HW121521   0.060   2.998   4.170
 6995SOL    HW221522   0.136   2.892   4.245
 6996SOL     OW21523   0.005   2.074   4.977
 6996SOL    HW121524   3.974   2.105   5.062
 6996SOL    HW221525   0.010   1.979   4.986
 6997SOL     OW21526   3.751   3.174   5.000
 6997SOL    HW121527   3.793   3.124   5.070
 6997SOL    HW221528   3.765   3.266   5.025
 6998SOL     OW21529   3.996   1.921   4.378
 6998SOL    HW121530   0.007   2.015   4.391
 6998SOL    HW221531   0.019   1.882   4.462
 6999SOL     OW21532   3.727   3.187   3.912
 6999SOL    HW121533   3.641   3.201   3.872
 6999SOL    HW221534   3.719   3.104   3.958
 7000SOL     OW21535   3.803   3.651   4.663
 7000SOL    HW121536   3.780   3.571   4.616
 7000SOL    HW221537   3.897   3.660   4.651
 7001SOL     OW21538   0.211   3.418   4.591
 7001SOL    HW121539   0.281   3.483   4.586
 7001SOL    HW221540   0.231   3.356   4.521
 7002SOL     OW21541   3.756   2.402   4.843
 7002SOL    HW121542   3.839   2.399   4.795
 7002SOL    HW221543   3.782   2.406   4.935
 7003SOL     OW21544   3.900   2.377   5.447
 7003SOL    HW121545   3.924   2.315   5.378
 7003SOL    HW221546   3.859   2.450   5.400
 7004SOL     OW21547   3.940   3.392   5.451
 7004SOL    HW121548   3.930   3.479   5.490
 7004SOL    HW221549   3.990   3.342   5.517
 7005SOL     OW21550   3.859   2.998   5.196
 7005SOL    HW121551   3.933   2.996   5.257
 7005SOL    HW221552   3.892   2.954   5.117
 7006SOL     OW21553   3.810   3.132   4.735
 7006SOL    HW121554   3.782   3.143   4.826
 7006SOL    HW221555   3.751   3.064   4.700
 7007SOL     OW21556   3.841   3.647   5.548
 7007SOL    HW121557   3.791   3.583   5.598
 7007SOL    HW221558   3.888   3.698   5.614
 7008SOL     OW21559   3.801   2.195   3.767
 7008SOL    HW121560   3.717   2.160   3.737
 7008SOL    HW221561   3.820   2.267   3.707
 7009SOL     OW21562   3.762   2.023   4.037
 7009SOL    HW121563   3.754   2.085   3.964
 7009SOL    HW221564   3.854   2.031   4.065
 7010SOL     OW21565   3.800   3.099   4.390
 7010SOL    HW121566   3.794   3.051   4.472
 7010SOL    HW221567   3.879   3.065   4.348
 7011SOL     OW21568   3.751   2.940   4.036
 7011SOL    HW121569   3.841   2.942   4.003
 7011SOL    HW221570   3.735   2.848   4.055
 7012SOL     OW21571   3.954   2.495   5.696
 7012SOL    HW121572   3.873   2.492   5.747
 7012SOL    HW221573   3.930   2.458   5.611
 7013SOL     OW21574   3.962   2.125   6.573
 7013SOL    HW121575   3.966   2.120   6.669
 7013SOL    HW221576   3.869   2.113   6.553
 7014SOL     OW21577   3.723   2.242   6.222
 7014SOL    HW121578   3.644   2.267   6.270
 7014SOL    HW221579   3.700   2.159   6.181
 7015SOL     OW21580   0.012   3.385   6.638
 7015SOL    HW121581   3.960   3.307   6.620
 7015SOL    HW221582   0.078   3.386   6.569
 7016SOL     OW21583   3.941   3.581   6.062
 7016SOL    HW121584   3.950   3.655   6.123
 7016SOL    HW221585   0.031   3.562   6.034
 7017SOL     OW21586   3.942   3.300   6.093
 7017SOL    HW121587   3.925   3.394   6.095
 7017SOL    HW221588   3.886   3.264   6.161
 7018SOL     OW21589   3.816   2.501   6.147
 7018SOL    HW121590   3.784   2.414   6.170
 7018SOL    HW221591   3.811   2.551   6.229
 7019SOL     OW21592   3.755   3.457   5.717
 7019SOL    HW121593   3.736   3.365   5.733
 7019SOL    HW221594   3.724   3.502   5.795
 7020SOL     OW21595   3.824   2.604   7.168
 7020SOL    HW121596   3.905   2.649   7.191
 7020SOL    HW221597   3.759   2.674   7.161
 7021SOL     OW21598   3.804   2.677   6.357
 7021SOL    HW121599   3.898   2.676   6.375
 7021SOL    HW221600   3.771   2.750   6.409
 7022SOL     OW21601   3.849   3.725   7.155
 7022SOL    HW121602   3.847   3.697   7.246
 7022SOL    HW221603   3.764   3.698   7.120
 7023SOL     OW21604   3.922   2.153   7.102
 7023SOL    HW121605   3.841   2.196   7.076
 7023SOL    HW221606   3.893   2.068   7.137
 7024SOL     OW21607   4.000   1.890   5.748
 7024SOL    HW121608   0.036   1.977   5.733
 7024SOL    HW221609   0.061   1.849   5.810
 7025SOL     OW21610   3.810   2.408   6.977
 7025SOL    HW121611   3.905   2.405   6.967
 7025SOL    HW221612   3.795   2.482   7.036
 7026SOL     OW21613   0.282   2.150   5.909
 7026SOL    HW121614   0.297   2.075   5.851
 7026SOL    HW221615   0.320   2.224   5.862
 7027SOL     OW21616   3.792   3.435   6.936
 7027SOL    HW121617   3.766   3.498   6.869
 7027SOL    HW221618   3.887   3.442   6.940
 7028SOL     OW21619   0.066   2.956   6.117
 7028SOL    HW121620   0.059   2.998   6.032
 7028SOL    HW221621   0.136   2.891   6.107
 7029SOL     OW21622   0.004   2.074   6.839
 7029SOL    HW121623   3.974   2.105   6.924
 7029SOL    HW221624   0.011   1.979   6.848
 7030SOL     OW21625   3.751   3.174   6.862
 7030SOL    HW121626   3.793   3.124   6.932
 7030SOL    HW221627   3.765   3.266   6.887
 7031SOL     OW21628   3.997   1.921   6.240
 7031SOL    HW121629   0.007   2.015   6.253
 7031SOL    HW221630   0.019   1.882   6.324
 7032SOL     OW21631   3.727   3.187   5.774
 7032SOL    HW121632   3.641   3.201   5.734
 7032SOL    HW221633   3.719   3.104   5.820
 7033SOL     OW21634   3.803   3.651   6.525
 7033SOL    HW121635   3.780   3.571   6.478
 7033SOL    HW221636   3.898   3.660   6.513
 7034SOL     OW21637   0.211   3.418   6.453
 7034SOL    HW121638   0.281   3.483   6.447
 7034SOL    HW221639   0.231   3.356   6.383
 7035SOL     OW21640   3.756   2.401   6.705
 7035SOL    HW121641   3.839   2.398   6.657
 7035SOL    HW221642   3.782   2.406   6.797
 7036SOL     OW21643   3.900   2.378   7.309
 7036SOL    HW121644   3.925   2.316   7.240
 7036SOL    HW221645   3.859   2.450   7.262
 7037SOL     OW21646   3.940   3.392   7.313
 7037SOL    HW121647   3.930   3.478   7.353
 7037SOL    HW221648   3.990   3.342   7.378
 7038SOL     OW21649   3.859   2.998   7.058
 7038SOL    HW121650   3.933   2.996   7.119
 7038SOL    HW221651   3.892   2.955   6.979
 7039SOL     OW21652   3.810   3.131   6.597
 7039SOL    HW121653   3.782   3.143   6.688
 7039SOL    HW221654   3.751   3.064   6.562
 7040SOL     OW21655   3.841   3.647   7.410
 7040SOL    HW121656   3.791   3.583   7.460
 7040SOL    HW221657   3.888   3.698   7.477
 7041SOL     OW21658   3.801   2.194   5.629
 7041SOL    HW121659   3.717   2.160   5.600
 7041SOL    HW221660   3.820   2.267   5.569
 7042SOL     OW21661   3.763   2.024   5.899
 7042SOL    HW121662   3.754   2.085   5.826
 7042SOL    HW221663   3.854   2.032   5.927
 7043SOL     OW21664   3.801   3.100   6.252
 7043SOL    HW121665   3.794   3.051   6.334
 7043SOL    HW221666   3.879   3.065   6.210
 7044SOL     OW21667   3.751   2.940   5.898
 7044SOL    HW121668   3.841   2.942   5.865
 7044SOL    HW221669   3.735   2.848   5.917
 7045SOL     OW21670   3.954   2.494   7.558
 7045SOL    HW121671   3.873   2.492   7.609
 7045SOL    HW221672   3.930   2.458   7.473
 7046SOL     OW21673   3.962   2.125   8.435
 7046SOL    HW121674   3.966   2.120   8.530
 7046SOL    HW221675   3.869   2.113   8.415
 7047SOL     OW21676   3.723   2.242   8.084
 7047SOL    HW121677   3.644   2.268   8.131
 7047SOL    HW221678   3.701   2.159   8.043
 7048SOL     OW21679   0.012   3.385   8.500
 7048SOL    HW121680   3.960   3.307   8.482
 7048SOL    HW221681   0.078   3.386   8.431
 7049SOL     OW21682   3.941   3.581   7.924
 7049SOL    HW121683   3.950   3.655   7.985
 7049SOL    HW221684   0.031   3.563   7.896
 7050SOL     OW21685   3.942   3.300   7.955
 7050SOL    HW121686   3.924   3.394   7.957
 7050SOL    HW221687   3.887   3.264   8.024
 7051SOL     OW21688   3.816   2.501   8.009
 7051SOL    HW121689   3.784   2.414   8.032
 7051SOL    HW221690   3.811   2.551   8.091
 7052SOL     OW21691   3.755   3.457   7.579
 7052SOL    HW121692   3.736   3.365   7.595
 7052SOL    HW221693   3.724   3.502   7.658
 7053SOL     OW21694   3.824   2.604   9.030
 7053SOL    HW121695   3.906   2.649   9.052
 7053SOL    HW221696   3.760   2.674   9.023
 7054SOL     OW21697   3.804   2.677   8.219
 7054SOL    HW121698   3.898   2.676   8.237
 7054SOL    HW221699   3.771   2.751   8.271
 7055SOL     OW21700   3.849   3.725   9.017
 7055SOL    HW121701   3.847   3.697   9.108
 7055SOL    HW221702   3.763   3.698   8.982
 7056SOL     OW21703   3.922   2.152   8.964
 7056SOL    HW121704   3.841   2.196   8.938
 7056SOL    HW221705   3.894   2.068   8.999
 7057SOL     OW21706   4.000   1.889   7.610
 7057SOL    HW121707   0.034   1.977   7.594
 7057SOL    HW221708   0.062   1.850   7.671
 7058SOL     OW21709   3.810   2.409   8.839
 7058SOL    HW121710   3.905   2.405   8.829
 7058SOL    HW221711   3.795   2.482   8.898
 7059SOL     OW21712   0.281   2.150   7.770
 7059SOL    HW121713   0.297   2.075   7.713
 7059SOL    HW221714   0.320   2.224   7.724
 7060SOL     OW21715   3.792   3.435   8.798
 7060SOL    HW121716   3.766   3.499   8.731
 7060SOL    HW221717   3.888   3.442   8.802
 7061SOL     OW21718   0.066   2.956   7.979
 7061SOL    HW121719   0.059   2.998   7.894
 7061SOL    HW221720   0.137   2.893   7.969
 7062SOL     OW21721   0.004   2.074   8.700
 7062SOL    HW121722   3.975   2.105   8.786
 7062SOL    HW221723   0.012   1.979   8.710
 7063SOL     OW21724   3.750   3.174   8.725
 7063SOL    HW121725   3.793   3.124   8.794
 7063SOL    HW221726   3.765   3.266   8.749
 7064SOL     OW21727   3.996   1.921   8.102
 7064SOL    HW121728   0.007   2.015   8.114
 7064SOL    HW221729   0.019   1.882   8.186
 7065SOL     OW21730   3.727   3.187   7.636
 7065SOL    HW121731   3.641   3.201   7.596
 7065SOL    HW221732   3.719   3.104   7.682
 7066SOL     OW21733   3.803   3.651   8.387
 7066SOL    HW121734   3.780   3.571   8.341
 7066SOL    HW221735   3.898   3.660   8.375
 7067SOL     OW21736   0.211   3.418   8.315
 7067SOL    HW121737   0.281   3.483   8.310
 7067SOL    HW221738   0.231   3.356   8.245
 7068SOL     OW21739   3.756   2.401   8.567
 7068SOL    HW121740   3.839   2.398   8.519
 7068SOL    HW221741   3.782   2.406   8.659
 7069SOL     OW21742   3.899   2.377   9.171
 7069SOL    HW121743   3.925   2.316   9.102
 7069SOL    HW221744   3.859   2.450   9.124
 7070SOL     OW21745   3.940   3.392   9.175
 7070SOL    HW121746   3.930   3.478   9.215
 7070SOL    HW221747   3.990   3.342   9.240
 7071SOL     OW21748   3.859   2.998   8.920
 7071SOL    HW121749   3.933   2.996   8.981
 7071SOL    HW221750   3.892   2.955   8.841
 7072SOL     OW21751   3.810   3.132   8.459
 7072SOL    HW121752   3.782   3.143   8.550
 7072SOL    HW221753   3.752   3.064   8.424
 7073SOL     OW21754   3.841   3.647   9.272
 7073SOL    HW121755   3.790   3.583   9.322
 7073SOL    HW221756   3.888   3.698   9.339
 7074SOL     OW21757   3.801   2.194   7.491
 7074SOL    HW121758   3.717   2.161   7.461
 7074SOL    HW221759   3.820   2.267   7.431
 7075SOL     OW21760   3.762   2.023   7.761
 7075SOL    HW121761   3.754   2.085   7.688
 7075SOL    HW221762   3.854   2.031   7.789
 7076SOL     OW21763   3.800   3.100   8.114
 7076SOL    HW121764   3.794   3.051   8.196
 7076SOL    HW221765   3.879   3.065   8.071
 7077SOL     OW21766   3.751   2.940   7.760
 7077SOL    HW121767   3.840   2.942   7.726
 7077SOL    HW221768   3.735   2.848   7.779
 7078SOL     OW21769   3.954   2.495   9.420
 7078SOL    HW121770   3.873   2.491   9.471
 7078SOL    HW221771   3.930   2.458   9.335
 7079SOL     OW21772   3.962   2.125  10.297
 7079SOL    HW121773   3.966   2.120  10.393
 7079SOL    HW221774   3.869   2.113  10.277
 7080SOL     OW21775   3.723   2.242   9.946
 7080SOL    HW121776   3.643   2.268   9.993
 7080SOL    HW221777   3.700   2.159   9.905
 7081SOL     OW21778   0.011   3.385  10.361
 7081SOL    HW121779   3.960   3.307  10.344
 7081SOL    HW221780   0.078   3.386  10.293
 7082SOL     OW21781   3.941   3.581   9.786
 7082SOL    HW121782   3.950   3.655   9.847
 7082SOL    HW221783   0.031   3.563   9.758
 7083SOL     OW21784   3.941   3.300   9.816
 7083SOL    HW121785   3.924   3.394   9.819
 7083SOL    HW221786   3.886   3.264   9.886
 7084SOL     OW21787   3.815   2.502   9.871
 7084SOL    HW121788   3.784   2.414   9.894
 7084SOL    HW221789   3.811   2.551   9.953
 7085SOL     OW21790   3.755   3.457   9.441
 7085SOL    HW121791   3.736   3.365   9.457
 7085SOL    HW221792   3.724   3.502   9.519
 7086SOL     OW21793   3.824   2.604  10.892
 7086SOL    HW121794   3.906   2.649  10.914
 7086SOL    HW221795   3.760   2.674  10.885
 7087SOL     OW21796   3.804   2.678  10.081
 7087SOL    HW121797   3.898   2.676  10.099
 7087SOL    HW221798   3.771   2.751  10.133
 7088SOL     OW21799   3.849   3.725  10.879
 7088SOL    HW121800   3.847   3.697  10.970
 7088SOL    HW221801   3.763   3.699  10.844
 7089SOL     OW21802   3.922   2.152  10.826
 7089SOL    HW121803   3.841   2.196  10.800
 7089SOL    HW221804   3.894   2.068  10.861
 7090SOL     OW21805   0.000   1.889   9.472
 7090SOL    HW121806   0.035   1.977   9.457
 7090SOL    HW221807   0.061   1.849   9.534
 7091SOL     OW21808   3.810   2.409  10.701
 7091SOL    HW121809   3.905   2.405  10.691
 7091SOL    HW221810   3.795   2.482  10.760
 7092SOL     OW21811   0.280   2.151   9.631
 7092SOL    HW121812   0.297   2.075   9.574
 7092SOL    HW221813   0.322   2.224   9.586
 7093SOL     OW21814   3.792   3.435  10.660
 7093SOL    HW121815   3.766   3.499  10.593
 7093SOL    HW221816   3.887   3.442  10.664
 7094SOL     OW21817   0.066   2.956   9.841
 7094SOL    HW121818   0.060   2.998   9.756
 7094SOL    HW221819   0.136   2.892   9.831
 7095SOL     OW21820   0.005   2.074  10.563
 7095SOL    HW121821   3.975   2.105  10.648
 7095SOL    HW221822   0.011   1.979  10.572
 7096SOL     OW21823   3.751   3.174  10.587
 7096SOL    HW121824   3.793   3.124  10.656
 7096SOL    HW221825   3.765   3.266  10.611
 7097SOL     OW21826   3.996   1.921   9.964
 7097SOL    HW121827   0.007   2.015   9.977
 7097SOL    HW221828   0.019   1.882  10.048
 7098SOL     OW21829   3.727   3.187   9.498
 7098SOL    HW121830   3.641   3.201   9.458
 7098SOL    HW221831   3.719   3.104   9.544
 7099SOL     OW21832   3.803   3.651  10.249
 7099SOL    HW121833   3.780   3.571  10.202
 7099SOL    HW221834   3.897   3.660  10.237
 7100SOL     OW21835   0.211   3.418  10.177
 7100SOL    HW121836   0.281   3.483  10.172
 7100SOL    HW221837   0.231   3.356  10.107
 7101SOL     OW21838   3.756   2.402  10.429
 7101SOL    HW121839   3.839   2.399  10.381
 7101SOL    HW221840   3.782   2.406  10.521
 7102SOL     OW21841   3.899   2.377  11.033
 7102SOL    HW121842   3.925   2.316  10.964
 7102SOL    HW221843   3.859   2.450  10.986
 7103SOL     OW21844   3.940   3.392  11.037
 7103SOL    HW121845   3.930   3.478  11.076
 7103SOL    HW221846   3.990   3.342  11.102
 7104SOL     OW21847   3.859   2.998  10.782
 7104SOL    HW121848   3.933   2.996  10.843
 7104SOL    HW221849   3.892   2.955  10.703
 7105SOL     OW21850   3.810   3.132  10.321
 7105SOL    HW121851   3.782   3.142  10.412
 7105SOL    HW221852   3.751   3.064  10.286
 7106SOL     OW21853   3.841   3.647  11.134
 7106SOL    HW121854   3.791   3.583  11.184
 7106SOL    HW221855   3.888   3.698  11.200
 7107SOL     OW21856   3.801   2.195   9.353
 7107SOL    HW121857   3.717   2.160   9.323
 7107SOL    HW221858   3.821   2.267   9.293
 7108SOL     OW21859   3.762   2.023   9.623
 7108SOL    HW121860   3.754   2.085   9.550
 7108SOL    HW221861   3.854   2.031   9.651
 7109SOL     OW21862   3.800   3.099   9.976
 7109SOL    HW121863   3.794   3.051  10.058
 7109SOL    HW221864   3.879   3.065   9.934
 7110SOL     OW21865   3.751   2.940   9.622
 7110SOL    HW121866   3.841   2.942   9.589
 7110SOL    HW221867   3.735   2.848   9.641
 7111SOL     OW21868   3.954   2.495  11.282
 7111SOL    HW121869   3.873   2.491  11.333
 7111SOL    HW221870   3.930   2.458  11.197
 7112SOL     OW21871   3.962   2.125  12.159
 7112SOL    HW121872   3.966   2.120  12.255
 7112SOL    HW221873   3.869   2.113  12.139
 7113SOL     OW21874   3.723   2.242  11.808
 7113SOL    HW121875   3.643   2.268  11.855
 7113SOL    HW221876   3.700   2.159  11.767
 7114SOL     OW21877   0.012   3.385  12.224
 7114SOL    HW121878   3.960   3.307  12.207
 7114SOL    HW221879   0.078   3.386  12.155
 7115SOL     OW21880   3.941   3.581  11.648
 7115SOL    HW121881   3.950   3.655  11.709
 7115SOL    HW221882   0.031   3.563  11.620
 7116SOL     OW21883   3.941   3.300  11.678
 7116SOL    HW121884   3.924   3.394  11.681
 7116SOL    HW221885   3.886   3.264  11.748
 7117SOL     OW21886   3.815   2.502  11.733
 7117SOL    HW121887   3.784   2.414  11.756
 7117SOL    HW221888   3.811   2.551  11.815
 7118SOL     OW21889   3.755   3.457  11.303
 7118SOL    HW121890   3.736   3.365  11.319
 7118SOL    HW221891   3.724   3.502  11.381
 7119SOL     OW21892   3.824   2.604  12.754
 7119SOL    HW121893   3.906   2.649  12.776
 7119SOL    HW221894   3.760   2.674  12.747
 7120SOL     OW21895   3.804   2.678  11.943
 7120SOL    HW121896   3.898   2.676  11.961
 7120SOL    HW221897   3.771   2.751  11.995
 7121SOL     OW21898   3.849   3.725  12.742
 7121SOL    HW121899   3.848   3.697  12.834
 7121SOL    HW221900   3.764   3.698  12.708
 7122SOL     OW21901   3.922   2.152  12.688
 7122SOL    HW121902   3.841   2.196  12.662
 7122SOL    HW221903   3.894   2.068  12.723
 7123SOL     OW21904   0.000   1.889  11.334
 7123SOL    HW121905   0.036   1.977  11.319
 7123SOL    HW221906   0.061   1.849  11.396
 7124SOL     OW21907   3.810   2.409  12.563
 7124SOL    HW121908   3.905   2.405  12.553
 7124SOL    HW221909   3.795   2.482  12.622
 7125SOL     OW21910   0.280   2.151  11.493
 7125SOL    HW121911   0.297   2.075  11.436
 7125SOL    HW221912   0.322   2.224  11.448
 7126SOL     OW21913   3.792   3.435  12.522
 7126SOL    HW121914   3.766   3.499  12.455
 7126SOL    HW221915   3.887   3.442  12.526
 7127SOL     OW21916   0.066   2.956  11.703
 7127SOL    HW121917   0.060   2.998  11.618
 7127SOL    HW221918   0.136   2.892  11.693
 7128SOL     OW21919   0.004   2.074  12.424
 7128SOL    HW121920   3.975   2.105  12.510
 7128SOL    HW221921   0.011   1.979  12.434
 7129SOL     OW21922   3.751   3.174  12.449
 7129SOL    HW121923   3.793   3.124  12.518
 7129SOL    HW221924   3.765   3.266  12.473
 7130SOL     OW21925   3.996   1.921  11.826
 7130SOL    HW121926   0.007   2.015  11.839
 7130SOL    HW221927   0.019   1.882  11.910
 7131SOL     OW21928   3.727   3.187  11.360
 7131SOL    HW121929   3.641   3.201  11.320
 7131SOL    HW221930   3.719   3.104  11.406
 7132SOL     OW21931   3.803   3.651  12.111
 7132SOL    HW121932   3.780   3.571  12.064
 7132SOL    HW221933   3.897   3.660  12.099
 7133SOL     OW21934   0.211   3.418  12.039
 7133SOL    HW121935   0.281   3.483  12.034
 7133SOL    HW221936   0.231   3.355  11.969
 7134SOL     OW21937   3.756   2.402  12.291
 7134SOL    HW121938   3.839   2.399  12.243
 7134SOL    HW221939   3.782   2.406  12.383
 7135SOL     OW21940   3.900   2.378  12.895
 7135SOL    HW121941   3.925   2.316  12.827
 7135SOL    HW221942   3.859   2.450  12.848
 7136SOL     OW21943   3.940   3.393  12.900
 7136SOL    HW121944   3.929   3.479  12.940
 7136SOL    HW221945   3.988   3.341  12.965
 7137SOL     OW21946   3.859   2.998  12.644
 7137SOL    HW121947   3.933   2.996  12.705
 7137SOL    HW221948   3.892   2.955  12.565
 7138SOL     OW21949   3.810   3.132  12.183
 7138SOL    HW121950   3.782   3.142  12.274
 7138SOL    HW221951   3.751   3.064  12.148
 7139SOL     OW21952   3.843   3.649  12.998
 7139SOL    HW121953   3.792   3.584  13.047
 7139SOL    HW221954   3.888   3.700  13.066
 7140SOL     OW21955   3.801   2.195  11.215
 7140SOL    HW121956   3.717   2.160  11.185
 7140SOL    HW221957   3.820   2.267  11.155
 7141SOL     OW21958   3.762   2.023  11.485
 7141SOL    HW121959   3.754   2.085  11.412
 7141SOL    HW221960   3.854   2.031  11.513
 7142SOL     OW21961   3.800   3.099  11.838
 7142SOL    HW121962   3.794   3.051  11.920
 7142SOL    HW221963   3.879   3.065  11.796
 7143SOL     OW21964   3.751   2.940  11.484
 7143SOL    HW121965   3.841   2.942  11.451
 7143SOL    HW221966   3.735   2.848  11.503
 7144SOL     OW21967   3.951   2.494  13.146
 7144SOL    HW121968   3.869   2.490  13.194
 7144SOL    HW221969   3.930   2.457  13.060
 7145SOL     OW21970   3.721   2.244  13.661
 7145SOL    HW121971   3.634   2.274  13.688
 7145SOL    HW221972   3.705   2.159  13.619
 7146SOL     OW21973   3.942   3.578  13.502
 7146SOL    HW121974   3.939   3.656  13.558
 7146SOL    HW221975   0.036   3.565  13.485
 7147SOL     OW21976   3.942   3.297  13.537
 7147SOL    HW121977   3.927   3.392  13.539
 7147SOL    HW221978   3.885   3.263  13.605
 7148SOL     OW21979   3.945   2.957   0.005
 7148SOL    HW121980   3.983   2.915   0.083
 7148SOL    HW221981   3.856   2.982   0.033
 7149SOL     OW21982   3.832   2.502  13.597
 7149SOL    HW121983   3.782   2.422  13.612
 7149SOL    HW221984   3.816   2.555  13.675
 7150SOL     OW21985   3.751   3.457  13.162
 7150SOL    HW121986   3.734   3.365  13.180
 7150SOL    HW221987   3.723   3.503  13.241
 7151SOL     OW21988   3.800   2.673  13.807
 7151SOL    HW121989   3.894   2.682  13.823
 7151SOL    HW221990   3.761   2.748  13.851
 7152SOL     OW21991   0.117   3.637  13.843
 7152SOL    HW121992   0.074   3.579   0.005
 7152SOL    HW221993   0.188   3.677  13.893
 7153SOL     OW21994   0.001   1.892  13.197
 7153SOL    HW121995   0.042   1.975  13.176
 7153SOL    HW221996   0.062   1.850  13.258
 7154SOL     OW21997   0.278   2.152  13.347
 7154SOL    HW121998   0.300   2.075  13.295
 7154SOL    HW221999   0.327   2.223  13.307
 7155SOL     OW22000   0.068   2.958  13.558
 7155SOL    HW122001   0.064   3.002  13.473
 7155SOL    HW222002   0.140   2.896  13.550
 7156SOL     OW22003   3.981   1.924  13.671
 7156SOL    HW122004   0.004   2.017  13.682
 7156SOL    HW222005   0.022   1.880  13.745
 7157SOL     OW22006   3.727   3.188  13.221
 7157SOL    HW122007   3.642   3.202  13.181
 7157SOL    HW222008   3.719   3.105  13.268
 7158SOL     OW22009   0.321   3.405   0.009
 7158SOL    HW122010   0.259   3.469   0.044
 7158SOL    HW222011   0.268   3.348  13.854
 7159SOL     OW22012   3.801   2.194  13.077
 7159SOL    HW122013   3.717   2.160  13.047
 7159SOL    HW222014   3.821   2.266  13.017
 7160SOL     OW22015   3.763   2.025  13.347
 7160SOL    HW122016   3.756   2.084  13.272
 7160SOL    HW222017   3.855   2.033  13.375
 7161SOL     OW22018   3.807   3.093  13.690
 7161SOL    HW122019   3.798   3.030  13.761
 7161SOL    HW222020   3.885   3.064  13.641
 7162SOL     OW22021   3.751   2.939  13.344
 7162SOL    HW122022   3.841   2.943  13.310
 7162SOL    HW222023   3.736   2.847  13.364
 7163SOL     OW22024   3.964   3.974   0.989
 7163SOL    HW122025   3.966   3.967   1.085
 7163SOL    HW222026   3.874   3.951   0.966
 7164SOL     OW22027   3.749   0.056   0.689
 7164SOL    HW122028   3.673   0.114   0.691
 7164SOL    HW222029   3.718   3.976   0.647
 7165SOL     OW22030   3.912   4.000   1.510
 7165SOL    HW122031   3.822   0.033   1.511
 7165SOL    HW222032   3.908   3.920   1.564
 7166SOL     OW22033   3.978   3.773   0.179
 7166SOL    HW122034   0.013   3.838   0.119
 7166SOL    HW222035   0.047   3.708   0.188
 7167SOL     OW22036   3.998   3.934   1.257
 7167SOL    HW122037   3.959   3.943   1.344
 7167SOL    HW222038   0.029   3.843   1.253
 7168SOL     OW22039   0.023   3.776   0.648
 7168SOL    HW122040   0.044   3.869   0.651
 7168SOL    HW222041   0.032   3.746   0.738
 7169SOL     OW22042   3.785   3.869   0.344
 7169SOL    HW122043   3.788   3.964   0.333
 7169SOL    HW222044   3.860   3.837   0.293
 7170SOL     OW22045   3.965   3.972   2.850
 7170SOL    HW122046   3.967   3.967   2.946
 7170SOL    HW222047   3.874   3.951   2.827
 7171SOL     OW22048   3.747   0.055   2.555
 7171SOL    HW122049   3.671   0.114   2.555
 7171SOL    HW222050   3.716   3.976   2.511
 7172SOL     OW22051   3.912   4.000   3.372
 7172SOL    HW122052   3.822   0.033   3.373
 7172SOL    HW222053   3.908   3.920   3.425
 7173SOL     OW22054   3.988   3.762   2.021
 7173SOL    HW122055   0.028   3.837   1.977
 7173SOL    HW222056   0.057   3.729   2.079
 7174SOL     OW22057   3.998   3.934   3.118
 7174SOL    HW122058   3.959   3.944   3.205
 7174SOL    HW222059   0.028   3.844   3.115
 7175SOL     OW22060   0.016   3.777   2.515
 7175SOL    HW122061   0.047   3.868   2.518
 7175SOL    HW222062   0.028   3.744   2.604
 7176SOL     OW22063   3.805   0.049   1.890
 7176SOL    HW122064   3.741   0.018   1.826
 7176SOL    HW222065   3.806   0.144   1.878
 7177SOL     OW22066   3.782   3.869   2.187
 7177SOL    HW122067   3.777   3.963   2.168
 7177SOL    HW222068   3.867   3.842   2.153
 7178SOL     OW22069   3.965   3.972   4.712
 7178SOL    HW122070   3.967   3.967   4.808
 7178SOL    HW222071   3.874   3.951   4.689
 7179SOL     OW22072   3.747   0.055   4.417
 7179SOL    HW122073   3.672   0.114   4.417
 7179SOL    HW222074   3.715   3.976   4.373
 7180SOL     OW22075   3.912   4.000   5.234
 7180SOL    HW122076   3.822   0.033   5.235
 7180SOL    HW222077   3.908   3.920   5.287
 7181SOL     OW22078   3.988   3.762   3.883
 7181SOL    HW122079   0.028   3.837   3.839
 7181SOL    HW222080   0.057   3.728   3.941
 7182SOL     OW22081   3.998   3.935   4.980
 7182SOL    HW122082   3.959   3.943   5.067
 7182SOL    HW222083   0.028   3.844   4.977
 7183SOL     OW22084   0.016   3.777   4.377
 7183SOL    HW122085   0.047   3.868   4.380
 7183SOL    HW222086   0.028   3.744   4.466
 7184SOL     OW22087   3.805   0.049   3.752
 7184SOL    HW122088   3.741   0.018   3.688
 7184SOL    HW222089   3.806   0.144   3.740
 7185SOL     OW22090   3.782   3.869   4.049
 7185SOL    HW122091   3.777   3.963   4.030
 7185SOL    HW222092   3.867   3.842   4.015
 7186SOL     OW22093   3.965   3.973   6.574
 7186SOL    HW122094   3.967   3.967   6.670
 7186SOL    HW222095   3.874   3.951   6.551
 7187SOL     OW22096   3.747   0.055   6.280
 7187SOL    HW122097   3.672   0.115   6.278
 7187SOL    HW222098   3.716   3.976   6.235
 7188SOL     OW22099   3.912   4.000   7.096
 7188SOL    HW122100   3.822   0.033   7.096
 7188SOL    HW222101   3.908   3.920   7.149
 7189SOL     OW22102   3.988   3.763   5.746
 7189SOL    HW122103   0.028   3.837   5.701
 7189SOL    HW222104   0.057   3.729   5.802
 7190SOL     OW22105   3.998   3.935   6.842
 7190SOL    HW122106   3.959   3.943   6.929
 7190SOL    HW222107   0.028   3.844   6.839
 7191SOL     OW22108   0.016   3.777   6.239
 7191SOL    HW122109   0.047   3.868   6.242
 7191SOL    HW222110   0.029   3.744   6.328
 7192SOL     OW22111   3.805   0.049   5.614
 7192SOL    HW122112   3.741   0.018   5.550
 7192SOL    HW222113   3.806   0.144   5.602
 7193SOL     OW22114   3.782   3.869   5.911
 7193SOL    HW122115   3.777   3.963   5.892
 7193SOL    HW222116   3.867   3.842   5.877
 7194SOL     OW22117   3.965   3.973   8.436
 7194SOL    HW122118   3.967   3.967   8.532
 7194SOL    HW222119   3.874   3.951   8.413
 7195SOL     OW22120   3.747   0.055   8.141
 7195SOL    HW122121   3.671   0.114   8.140
 7195SOL    HW222122   3.716   3.976   8.097
 7196SOL     OW22123   3.912   4.000   8.958
 7196SOL    HW122124   3.822   0.033   8.959
 7196SOL    HW222125   3.908   3.920   9.011
 7197SOL     OW22126   3.988   3.763   7.608
 7197SOL    HW122127   0.028   3.837   7.563
 7197SOL    HW222128   0.057   3.728   7.664
 7198SOL     OW22129   3.998   3.934   8.704
 7198SOL    HW122130   3.959   3.943   8.792
 7198SOL    HW222131   0.028   3.844   8.701
 7199SOL     OW22132   0.016   3.777   8.101
 7199SOL    HW122133   0.048   3.868   8.104
 7199SOL    HW222134   0.028   3.744   8.190
 7200SOL     OW22135   3.805   0.049   7.476
 7200SOL    HW122136   3.741   0.018   7.411
 7200SOL    HW222137   3.806   0.144   7.464
 7201SOL     OW22138   3.782   3.869   7.772
 7201SOL    HW122139   3.777   3.963   7.753
 7201SOL    HW222140   3.867   3.841   7.738
 7202SOL     OW22141   3.965   3.972  10.298
 7202SOL    HW122142   3.967   3.967  10.394
 7202SOL    HW222143   3.874   3.951  10.275
 7203SOL     OW22144   3.747   0.055  10.003
 7203SOL    HW122145   3.671   0.114  10.003
 7203SOL    HW222146   3.716   3.976   9.959
 7204SOL     OW22147   3.912   3.999  10.820
 7204SOL    HW122148   3.822   0.033  10.821
 7204SOL    HW222149   3.908   3.920  10.873
 7205SOL     OW22150   3.988   3.762   9.470
 7205SOL    HW122151   0.028   3.837   9.425
 7205SOL    HW222152   0.057   3.729   9.527
 7206SOL     OW22153   3.998   3.935  10.566
 7206SOL    HW122154   3.959   3.943  10.653
 7206SOL    HW222155   0.028   3.844  10.563
 7207SOL     OW22156   0.016   3.777   9.963
 7207SOL    HW122157   0.047   3.868   9.966
 7207SOL    HW222158   0.028   3.744  10.052
 7208SOL     OW22159   3.805   0.049   9.338
 7208SOL    HW122160   3.741   0.018   9.274
 7208SOL    HW222161   3.806   0.144   9.326
 7209SOL     OW22162   3.782   3.869   9.635
 7209SOL    HW122163   3.777   3.963   9.616
 7209SOL    HW222164   3.867   3.842   9.601
 7210SOL     OW22165   3.965   3.972  12.160
 7210SOL    HW122166   3.967   3.967  12.256
 7210SOL    HW222167   3.874   3.951  12.137
 7211SOL     OW22168   3.747   0.055  11.865
 7211SOL    HW122169   3.672   0.114  11.865
 7211SOL    HW222170   3.715   3.976  11.821
 7212SOL     OW22171   3.911   3.999  12.682
 7212SOL    HW122172   3.822   0.033  12.683
 7212SOL    HW222173   3.907   3.919  12.735
 7213SOL     OW22174   3.988   3.762  11.331
 7213SOL    HW122175   0.028   3.837  11.287
 7213SOL    HW222176   0.057   3.729  11.389
 7214SOL     OW22177   3.998   3.935  12.428
 7214SOL    HW122178   3.959   3.943  12.515
 7214SOL    HW222179   0.028   3.844  12.425
 7215SOL     OW22180   0.016   3.777  11.825
 7215SOL    HW122181   0.047   3.868  11.828
 7215SOL    HW222182   0.029   3.744  11.914
 7216SOL     OW22183   3.805   0.049  11.200
 7216SOL    HW122184   3.741   0.018  11.136
 7216SOL    HW222185   3.806   0.144  11.188
 7217SOL     OW22186   3.782   3.869  11.497
 7217SOL    HW122187   3.777   3.963  11.478
 7217SOL    HW222188   3.867   3.842  11.463
 7218SOL     OW22189   3.741   0.080  13.685
 7218SOL    HW122190   3.669   0.110  13.742
 7218SOL    HW222191   3.719   3.989  13.665
 7219SOL     OW22192   3.989   3.766  13.198
 7219SOL    HW122193   0.033   3.836  13.150
 7219SOL    HW222194   0.057   3.729  13.254
 7220SOL     OW22195   3.977   3.790  13.671
 7220SOL    HW122196   0.024   3.873  13.675
 7220SOL    HW222197   0.022   3.734  13.734
 7221SOL     OW22198   3.806   0.049  13.060
 7221SOL    HW122199   3.741   0.018  12.997
 7221SOL    HW222200   3.807   0.144  13.049
 7222SOL     OW22201   3.778   3.870  13.357
 7222SOL    HW122202   3.777   3.965  13.345
 7222SOL    HW222203   3.861   3.841  13.319
   4.00000   4.00000  13.90000
