Built with Packmol
22041
    1LIG      O    1   2.411   2.337   0.053
    1LIG      C    2   2.339   2.375   0.173
    1LIG     C1    3   2.416   2.333   0.301
    1LIG     O1    4   2.345   2.370   0.423
    1LIG     C2    5   2.416   2.332   0.544
    1LIG     C3    6   2.336   2.373   0.670
    1LIG     O2    7   2.407   2.335   0.791
    1LIG     C4    8   2.335   2.372   0.912
    1LIG     C5    9   2.415   2.329   1.038
    1LIG     O3   10   2.343   2.365   1.160
    1LIG     C6   11   2.414   2.327   1.280
    1LIG     C7   12   2.334   2.369   1.406
    1LIG     O4   13   2.404   2.331   1.528
    1LIG     C8   14   2.333   2.368   1.649
    1LIG     C9   15   2.413   2.325   1.774
    1LIG     O5   16   2.342   2.362   1.895
    1LIG    C10   17   2.413   2.324   2.016
    1LIG    C11   18   2.332   2.367   2.142
    1LIG     O6   19   2.403   2.329   2.263
    1LIG    C12   20   2.332   2.366   2.384
    1LIG    C13   21   2.413   2.323   2.509
    1LIG     O7   22   2.341   2.360   2.631
    1LIG    C14   23   2.412   2.323   2.752
    1LIG    C15   24   2.333   2.365   2.878
    1LIG     O8   25   2.403   2.327   3.000
    1LIG    C16   26   2.331   2.365   3.121
    1LIG    C17   27   2.411   2.322   3.247
    1LIG     O9   28   2.340   2.359   3.369
    1LIG    C18   29   2.412   2.321   3.489
    1LIG    C19   30   2.332   2.364   3.614
    1LIG    O10   31   2.403   2.326   3.736
    1LIG    C20   32   2.331   2.364   3.857
    1LIG    C21   33   2.412   2.321   3.982
    1LIG    O11   34   2.341   2.359   4.103
    1LIG    C22   35   2.412   2.321   4.224
    1LIG    C23   36   2.331   2.363   4.350
    1LIG    O12   37   2.402   2.325   4.471
    1LIG    C24   38   2.331   2.363   4.593
    1LIG    C25   39   2.411   2.320   4.719
    1LIG    O13   40   2.340   2.358   4.841
    1LIG    C26   41   2.412   2.320   4.961
    1LIG    C27   42   2.332   2.362   5.086
    1LIG    O14   43   2.403   2.325   5.208
    1LIG    C28   44   2.332   2.363   5.329
    1LIG    C29   45   2.412   2.321   5.455
    1LIG    O15   46   2.340   2.359   5.577
    1LIG    C30   47   2.412   2.321   5.697
    1LIG    C31   48   2.332   2.364   5.822
    1LIG    O16   49   2.403   2.326   5.943
    1LIG    C32   50   2.332   2.363   6.065
    1LIG    C33   51   2.412   2.321   6.191
    1LIG    O17   52   2.341   2.359   6.312
    1LIG    C34   53   2.413   2.321   6.433
    1LIG    C35   54   2.333   2.363   6.559
    1LIG    O18   55   2.404   2.326   6.680
    1LIG    C36   56   2.332   2.364   6.801
    1LIG    C37   57   2.412   2.322   6.927
    1LIG    O19   58   2.341   2.360   7.049
    1LIG    C38   59   2.413   2.323   7.169
    1LIG    C39   60   2.334   2.365   7.295
    1LIG    O20   61   2.405   2.327   7.417
    1LIG    C40   62   2.333   2.365   7.538
    1LIG    C41   63   2.413   2.324   7.664
    1LIG    O21   64   2.342   2.361   7.786
    1LIG    C42   65   2.414   2.323   7.906
    1LIG    C43   66   2.334   2.366   8.031
    1LIG    O22   67   2.405   2.329   8.153
    1LIG    C44   68   2.334   2.366   8.274
    1LIG    C45   69   2.415   2.324   8.399
    1LIG    O23   70   2.344   2.362   8.521
    1LIG    C46   71   2.415   2.325   8.642
    1LIG    C47   72   2.334   2.367   8.767
    1LIG    O24   73   2.406   2.330   8.888
    1LIG    C48   74   2.335   2.367   9.010
    1LIG    C49   75   2.416   2.325   9.135
    1LIG    O25   76   2.345   2.363   9.256
    1LIG    C50   77   2.416   2.326   9.378
    1LIG    C51   78   2.335   2.368   9.503
    1LIG    O26   79   2.407   2.331   9.624
    1LIG    C52   80   2.336   2.368   9.746
    1LIG    C53   81   2.417   2.327   9.871
    1LIG    O27   82   2.345   2.364   9.991
    1LIG    C54   83   2.416   2.327  10.113
    1LIG    C55   84   2.336   2.370  10.240
    1LIG    O28   85   2.408   2.333  10.361
    1LIG    C56   86   2.337   2.370  10.482
    1LIG    C57   87   2.417   2.329  10.609
    1LIG    O29   88   2.346   2.367  10.731
    1LIG    C58   89   2.418   2.329  10.852
    1LIG    C59   90   2.339   2.371  10.978
    1LIG      H   91   2.240   2.327   0.171
    1LIG     H1   92   2.323   2.483   0.172
    1LIG     H2   93   2.515   2.381   0.301
    1LIG     H3   94   2.432   2.225   0.300
    1LIG     H4   95   2.515   2.380   0.546
    1LIG     H5   96   2.432   2.223   0.545
    1LIG     H6   97   2.237   2.326   0.668
    1LIG     H7   98   2.321   2.482   0.669
    1LIG     H8   99   2.237   2.324   0.913
    1LIG     H9  100   2.320   2.480   0.914
    1LIG    H10  101   2.513   2.377   1.037
    1LIG    H11  102   2.430   2.220   1.036
    1LIG    H12  103   2.513   2.375   1.282
    1LIG    H13  104   2.430   2.218   1.281
    1LIG    H14  105   2.235   2.321   1.404
    1LIG    H15  106   2.318   2.477   1.405
    1LIG    H16  107   2.234   2.320   1.650
    1LIG    H17  108   2.317   2.477   1.651
    1LIG    H18  109   2.512   2.373   1.772
    1LIG    H19  110   2.429   2.216   1.772
    1LIG    H20  111   2.511   2.372   2.018
    1LIG    H21  112   2.428   2.216   2.018
    1LIG    H22  113   2.234   2.318   2.140
    1LIG    H23  114   2.317   2.475   2.140
    1LIG    H24  115   2.234   2.318   2.386
    1LIG    H25  116   2.317   2.474   2.386
    1LIG    H26  117   2.511   2.371   2.508
    1LIG    H27  118   2.428   2.214   2.508
    1LIG    H28  119   2.511   2.371   2.754
    1LIG    H29  120   2.428   2.214   2.753
    1LIG    H30  121   2.234   2.316   2.877
    1LIG    H31  122   2.317   2.473   2.877
    1LIG    H32  123   2.233   2.316   3.122
    1LIG    H33  124   2.316   2.473   3.122
    1LIG    H34  125   2.510   2.370   3.245
    1LIG    H35  126   2.427   2.214   3.245
    1LIG    H36  127   2.511   2.370   3.490
    1LIG    H37  128   2.428   2.213   3.490
    1LIG    H38  129   2.234   2.315   3.613
    1LIG    H39  130   2.316   2.472   3.613
    1LIG    H40  131   2.233   2.316   3.858
    1LIG    H41  132   2.316   2.472   3.858
    1LIG    H42  133   2.510   2.369   3.981
    1LIG    H43  134   2.427   2.213   3.980
    1LIG    H44  135   2.510   2.369   4.226
    1LIG    H45  136   2.427   2.212   4.226
    1LIG    H46  137   2.233   2.315   4.348
    1LIG    H47  138   2.316   2.472   4.349
    1LIG    H48  139   2.233   2.315   4.594
    1LIG    H49  140   2.316   2.471   4.594
    1LIG    H50  141   2.510   2.369   4.718
    1LIG    H51  142   2.427   2.212   4.717
    1LIG    H52  143   2.510   2.368   4.963
    1LIG    H53  144   2.427   2.211   4.963
    1LIG    H54  145   2.233   2.314   5.085
    1LIG    H55  146   2.316   2.471   5.085
    1LIG    H56  147   2.233   2.315   5.331
    1LIG    H57  148   2.316   2.471   5.330
    1LIG    H58  149   2.510   2.369   5.453
    1LIG    H59  150   2.428   2.212   5.454
    1LIG    H60  151   2.511   2.369   5.699
    1LIG    H61  152   2.428   2.213   5.699
    1LIG    H62  153   2.233   2.315   5.821
    1LIG    H63  154   2.316   2.472   5.821
    1LIG    H64  155   2.234   2.315   6.066
    1LIG    H65  156   2.317   2.472   6.066
    1LIG    H66  157   2.511   2.370   6.189
    1LIG    H67  158   2.428   2.213   6.189
    1LIG    H68  159   2.511   2.370   6.434
    1LIG    H69  160   2.428   2.213   6.434
    1LIG    H70  161   2.234   2.315   6.558
    1LIG    H71  162   2.317   2.472   6.557
    1LIG    H72  163   2.234   2.316   6.802
    1LIG    H73  164   2.317   2.473   6.802
    1LIG    H74  165   2.511   2.370   6.926
    1LIG    H75  166   2.428   2.214   6.926
    1LIG    H76  167   2.512   2.371   7.170
    1LIG    H77  168   2.429   2.214   7.171
    1LIG    H78  169   2.236   2.316   7.294
    1LIG    H79  170   2.318   2.473   7.294
    1LIG    H80  171   2.235   2.317   7.539
    1LIG    H81  172   2.317   2.474   7.539
    1LIG    H82  173   2.512   2.372   7.662
    1LIG    H83  174   2.429   2.215   7.663
    1LIG    H84  175   2.513   2.372   7.907
    1LIG    H85  176   2.430   2.215   7.907
    1LIG    H86  177   2.236   2.317   8.030
    1LIG    H87  178   2.318   2.474   8.029
    1LIG    H88  179   2.236   2.318   8.276
    1LIG    H89  180   2.318   2.475   8.275
    1LIG    H90  181   2.513   2.373   8.398
    1LIG    H91  182   2.431   2.216   8.398
    1LIG    H92  183   2.513   2.373   8.644
    1LIG    H93  184   2.431   2.216   8.644
    1LIG    H94  185   2.236   2.319   8.766
    1LIG    H95  186   2.318   2.476   8.766
    1LIG    H96  187   2.237   2.319   9.012
    1LIG    H97  188   2.319   2.476   9.011
    1LIG    H98  189   2.514   2.374   9.133
    1LIG    H99  190   2.432   2.217   9.134
    1LIG   H100  191   2.514   2.374   9.379
    1LIG   H101  192   2.432   2.217   9.380
    1LIG   H102  193   2.237   2.319   9.502
    1LIG   H103  194   2.319   2.477   9.501
    1LIG   H104  195   2.238   2.320   9.747
    1LIG   H105  196   2.320   2.477   9.747
    1LIG   H106  197   2.515   2.375   9.869
    1LIG   H107  198   2.433   2.218   9.870
    1LIG   H108  199   2.515   2.376  10.114
    1LIG   H109  200   2.432   2.219  10.115
    1LIG   H110  201   2.238   2.321  10.239
    1LIG   H111  202   2.320   2.478  10.238
    1LIG   H112  203   2.238   2.321  10.484
    1LIG   H113  204   2.320   2.479  10.483
    1LIG   H114  205   2.515   2.378  10.607
    1LIG   H115  206   2.433   2.221  10.608
    1LIG   H116  207   2.516   2.379  10.852
    1LIG   H117  208   2.433   2.221  10.853
    1LIG   H118  209   2.322   2.479  10.978
    1LIG   H119  210   2.392   2.344  11.073
    1LIG      O  211   2.111   2.116   0.053
    1LIG      C  212   2.176   2.166   0.173
    1LIG     C1  213   2.106   2.113   0.301
    1LIG     O1  214   2.169   2.162   0.423
    1LIG     C2  215   2.104   2.113   0.544
    1LIG     C3  216   2.176   2.169   0.670
    1LIG     O2  217   2.111   2.121   0.791
    1LIG     C4  218   2.175   2.170   0.912
    1LIG     C5  219   2.102   2.116   1.038
    1LIG     O3  220   2.166   2.166   1.160
    1LIG     C6  221   2.101   2.117   1.280
    1LIG     C7  222   2.172   2.173   1.406
    1LIG     O4  223   2.109   2.125   1.528
    1LIG     C8  224   2.172   2.174   1.649
    1LIG     C9  225   2.099   2.119   1.774
    1LIG     O5  226   2.163   2.168   1.895
    1LIG    C10  227   2.099   2.120   2.016
    1LIG    C11  228   2.171   2.175   2.142
    1LIG     O6  229   2.107   2.126   2.263
    1LIG    C12  230   2.170   2.175   2.384
    1LIG    C13  231   2.098   2.120   2.509
    1LIG     O7  232   2.162   2.169   2.631
    1LIG    C14  233   2.098   2.121   2.752
    1LIG    C15  234   2.169   2.176   2.878
    1LIG     O8  235   2.105   2.127   3.000
    1LIG    C16  236   2.170   2.177   3.121
    1LIG    C17  237   2.098   2.122   3.247
    1LIG     O9  238   2.161   2.171   3.369
    1LIG    C18  239   2.097   2.121   3.489
    1LIG    C19  240   2.168   2.177   3.614
    1LIG    O10  241   2.105   2.128   3.736
    1LIG    C20  242   2.169   2.177   3.857
    1LIG    C21  243   2.097   2.122   3.982
    1LIG    O11  244   2.160   2.171   4.103
    1LIG    C22  245   2.097   2.122   4.224
    1LIG    C23  246   2.169   2.178   4.350
    1LIG    O12  247   2.104   2.128   4.471
    1LIG    C24  248   2.168   2.177   4.593
    1LIG    C25  249   2.096   2.123   4.719
    1LIG    O13  250   2.160   2.172   4.841
    1LIG    C26  251   2.096   2.122   4.961
    1LIG    C27  252   2.168   2.178   5.086
    1LIG    O14  253   2.104   2.128   5.208
    1LIG    C28  254   2.168   2.177   5.329
    1LIG    C29  255   2.097   2.122   5.455
    1LIG    O15  256   2.160   2.171   5.577
    1LIG    C30  257   2.096   2.122   5.697
    1LIG    C31  258   2.169   2.177   5.822
    1LIG    O16  259   2.105   2.128   5.943
    1LIG    C32  260   2.168   2.177   6.065
    1LIG    C33  261   2.097   2.121   6.191
    1LIG    O17  262   2.161   2.170   6.312
    1LIG    C34  263   2.097   2.121   6.433
    1LIG    C35  264   2.168   2.176   6.559
    1LIG    O18  265   2.104   2.127   6.680
    1LIG    C36  266   2.169   2.176   6.801
    1LIG    C37  267   2.097   2.121   6.927
    1LIG    O19  268   2.162   2.170   7.049
    1LIG    C38  269   2.097   2.120   7.169
    1LIG    C39  270   2.169   2.174   7.295
    1LIG    O20  271   2.105   2.125   7.417
    1LIG    C40  272   2.169   2.175   7.538
    1LIG    C41  273   2.098   2.119   7.664
    1LIG    O21  274   2.162   2.168   7.786
    1LIG    C42  275   2.098   2.118   7.906
    1LIG    C43  276   2.170   2.174   8.031
    1LIG    O22  277   2.107   2.125   8.153
    1LIG    C44  278   2.170   2.174   8.274
    1LIG    C45  279   2.098   2.118   8.399
    1LIG    O23  280   2.162   2.167   8.521
    1LIG    C46  281   2.099   2.117   8.642
    1LIG    C47  282   2.171   2.173   8.767
    1LIG    O24  283   2.107   2.124   8.888
    1LIG    C48  284   2.171   2.172   9.010
    1LIG    C49  285   2.099   2.116   9.135
    1LIG    O25  286   2.162   2.166   9.256
    1LIG    C50  287   2.099   2.116   9.378
    1LIG    C51  288   2.172   2.172   9.503
    1LIG    O26  289   2.108   2.122   9.624
    1LIG    C52  290   2.171   2.171   9.746
    1LIG    C53  291   2.100   2.115   9.871
    1LIG    O27  292   2.164   2.164   9.991
    1LIG    C54  293   2.101   2.115  10.113
    1LIG    C55  294   2.172   2.170  10.240
    1LIG    O28  295   2.109   2.120  10.361
    1LIG    C56  296   2.173   2.170  10.482
    1LIG    C57  297   2.102   2.114  10.609
    1LIG    O29  298   2.165   2.163  10.731
    1LIG    C58  299   2.101   2.113  10.852
    1LIG    C59  300   2.172   2.167  10.978
    1LIG      H  301   2.174   2.275   0.171
    1LIG     H1  302   2.281   2.135   0.172
    1LIG     H2  303   2.108   2.003   0.301
    1LIG     H3  304   2.001   2.144   0.300
    1LIG     H4  305   2.107   2.004   0.546
    1LIG     H5  306   1.999   2.145   0.545
    1LIG     H6  307   2.173   2.279   0.668
    1LIG     H7  308   2.281   2.138   0.669
    1LIG     H8  309   2.172   2.280   0.913
    1LIG     H9  310   2.280   2.139   0.914
    1LIG    H10  311   2.105   2.006   1.037
    1LIG    H11  312   1.997   2.147   1.036
    1LIG    H12  313   2.104   2.007   1.282
    1LIG    H13  314   1.996   2.148   1.281
    1LIG    H14  315   2.170   2.282   1.404
    1LIG    H15  316   2.278   2.142   1.405
    1LIG    H16  317   2.169   2.284   1.650
    1LIG    H17  318   2.277   2.143   1.651
    1LIG    H18  319   2.102   2.009   1.772
    1LIG    H19  320   1.994   2.150   1.772
    1LIG    H20  321   2.102   2.010   2.018
    1LIG    H21  322   1.994   2.151   2.018
    1LIG    H22  323   2.168   2.285   2.140
    1LIG    H23  324   2.276   2.144   2.140
    1LIG    H24  325   2.168   2.285   2.386
    1LIG    H25  326   2.276   2.144   2.386
    1LIG    H26  327   2.101   2.011   2.508
    1LIG    H27  328   1.993   2.151   2.508
    1LIG    H28  329   2.101   2.011   2.754
    1LIG    H29  330   1.993   2.152   2.753
    1LIG    H30  331   2.166   2.285   2.877
    1LIG    H31  332   2.274   2.145   2.877
    1LIG    H32  333   2.167   2.286   3.122
    1LIG    H33  334   2.275   2.146   3.122
    1LIG    H34  335   2.101   2.012   3.245
    1LIG    H35  336   1.993   2.153   3.245
    1LIG    H36  337   2.100   2.012   3.490
    1LIG    H37  338   1.991   2.152   3.490
    1LIG    H38  339   2.166   2.286   3.613
    1LIG    H39  340   2.274   2.146   3.613
    1LIG    H40  341   2.166   2.287   3.858
    1LIG    H41  342   2.274   2.146   3.858
    1LIG    H42  343   2.100   2.012   3.981
    1LIG    H43  344   1.992   2.153   3.980
    1LIG    H44  345   2.099   2.012   4.226
    1LIG    H45  346   1.991   2.153   4.226
    1LIG    H46  347   2.166   2.287   4.348
    1LIG    H47  348   2.274   2.146   4.349
    1LIG    H48  349   2.165   2.287   4.594
    1LIG    H49  350   2.273   2.146   4.594
    1LIG    H50  351   2.099   2.013   4.718
    1LIG    H51  352   1.991   2.153   4.717
    1LIG    H52  353   2.098   2.013   4.963
    1LIG    H53  354   1.990   2.153   4.963
    1LIG    H54  355   2.165   2.287   5.085
    1LIG    H55  356   2.273   2.147   5.085
    1LIG    H56  357   2.165   2.287   5.331
    1LIG    H57  358   2.273   2.146   5.330
    1LIG    H58  359   2.100   2.012   5.453
    1LIG    H59  360   1.991   2.153   5.454
    1LIG    H60  361   2.099   2.012   5.699
    1LIG    H61  362   1.991   2.152   5.699
    1LIG    H62  363   2.166   2.287   5.821
    1LIG    H63  364   2.274   2.146   5.821
    1LIG    H64  365   2.165   2.286   6.066
    1LIG    H65  366   2.273   2.146   6.066
    1LIG    H66  367   2.100   2.012   6.189
    1LIG    H67  368   1.991   2.152   6.189
    1LIG    H68  369   2.100   2.011   6.434
    1LIG    H69  370   1.991   2.152   6.434
    1LIG    H70  371   2.165   2.286   6.558
    1LIG    H71  372   2.273   2.145   6.557
    1LIG    H72  373   2.166   2.286   6.802
    1LIG    H73  374   2.274   2.145   6.802
    1LIG    H74  375   2.100   2.011   6.926
    1LIG    H75  376   1.992   2.152   6.926
    1LIG    H76  377   2.101   2.010   7.170
    1LIG    H77  378   1.992   2.150   7.171
    1LIG    H78  379   2.166   2.284   7.294
    1LIG    H79  380   2.274   2.144   7.294
    1LIG    H80  381   2.166   2.284   7.539
    1LIG    H81  382   2.275   2.144   7.539
    1LIG    H82  383   2.101   2.010   7.662
    1LIG    H83  384   1.993   2.150   7.663
    1LIG    H84  385   2.101   2.009   7.907
    1LIG    H85  386   1.992   2.149   7.907
    1LIG    H86  387   2.166   2.284   8.030
    1LIG    H87  388   2.275   2.144   8.029
    1LIG    H88  389   2.167   2.283   8.276
    1LIG    H89  390   2.276   2.143   8.275
    1LIG    H90  391   2.102   2.008   8.398
    1LIG    H91  392   1.993   2.148   8.398
    1LIG    H92  393   2.102   2.008   8.644
    1LIG    H93  394   1.993   2.148   8.644
    1LIG    H94  395   2.168   2.283   8.766
    1LIG    H95  396   2.276   2.143   8.766
    1LIG    H96  397   2.167   2.282   9.012
    1LIG    H97  398   2.276   2.142   9.011
    1LIG    H98  399   2.102   2.007   9.133
    1LIG    H99  400   1.993   2.147   9.134
    1LIG   H100  401   2.103   2.007   9.379
    1LIG   H101  402   1.994   2.147   9.380
    1LIG   H102  403   2.168   2.282   9.502
    1LIG   H103  404   2.277   2.142   9.501
    1LIG   H104  405   2.168   2.281   9.747
    1LIG   H105  406   2.277   2.141   9.747
    1LIG   H106  407   2.103   2.005   9.869
    1LIG   H107  408   1.994   2.146   9.870
    1LIG   H108  409   2.104   2.005  10.114
    1LIG   H109  410   1.995   2.145  10.115
    1LIG   H110  411   2.169   2.280  10.239
    1LIG   H111  412   2.277   2.140  10.238
    1LIG   H112  413   2.169   2.279  10.484
    1LIG   H113  414   2.278   2.139  10.483
    1LIG   H114  415   2.105   2.004  10.607
    1LIG   H115  416   1.996   2.144  10.608
    1LIG   H116  417   2.106   2.003  10.852
    1LIG   H117  418   1.996   2.144  10.853
    1LIG   H118  419   2.278   2.137  10.978
    1LIG   H119  420   2.125   2.130  11.073
    1MOL     C1  421   2.924   2.453   4.996
    1MOL     H1  422   3.029   2.423   4.988
    1MOL     O1  423   2.892   2.513   4.872
    1MOL     C2  424   2.758   2.566   4.863
    1MOL     H2  425   2.686   2.484   4.875
    1MOL     C3  426   2.740   2.623   4.723
    1MOL     H3  427   2.634   2.644   4.708
    1MOL     H4  428   2.771   2.546   4.650
    1MOL     O2  429   2.819   2.741   4.710
    1MOL     H5  430   2.795   2.783   4.626
    1MOL     C4  431   2.906   2.554   5.111
    1MOL     H6  432   2.974   2.637   5.092
    1MOL     O3  433   2.940   2.503   5.238
    1MOL     H7  434   2.907   2.410   5.247
    1MOL     C5  435   2.763   2.609   5.109
    1MOL     H8  436   2.692   2.527   5.128
    1MOL     O4  437   2.749   2.708   5.210
    1MOL     H9  438   2.796   2.674   5.288
    1MOL     C6  439   2.734   2.670   4.974
    1MOL    H10  440   2.801   2.755   4.958
    1MOL     O5  441   2.598   2.714   4.973
    1MOL     C7  442   2.569   2.841   4.917
    1MOL    H11  443   2.658   2.883   4.870
    1MOL     O6  444   2.475   2.829   4.813
    1MOL     C8  445   2.346   2.778   4.853
    1MOL    H12  446   2.361   2.679   4.899
    1MOL     C9  447   2.260   2.759   4.726
    1MOL    H13  448   2.188   2.679   4.746
    1MOL    H14  449   2.327   2.725   4.646
    1MOL     O7  450   2.195   2.876   4.681
    1MOL    H15  451   2.108   2.879   4.724
    1MOL    C10  452   2.516   2.933   5.028
    1MOL    H16  453   2.504   3.034   4.986
    1MOL     O8  454   2.605   2.947   5.138
    1MOL    H17  455   2.637   2.859   5.165
    1MOL    C11  456   2.378   2.886   5.075
    1MOL    H18  457   2.388   2.786   5.122
    1MOL     O9  458   2.322   2.978   5.168
    1MOL    H19  459   2.394   3.001   5.229
    1MOL    C12  460   2.285   2.874   4.955
    1MOL    H20  461   2.275   2.972   4.907
    1MOL    O10  462   2.157   2.830   5.001
    1MOL    C13  463   2.045   2.911   4.974
    1MOL    H21  464   2.077   3.011   4.942
    1MOL    O11  465   1.969   2.859   4.866
    1MOL    C14  466   1.914   2.727   4.890
    1MOL    H22  467   1.997   2.659   4.912
    1MOL    C15  468   1.845   2.680   4.761
    1MOL    H23  469   1.852   2.570   4.757
    1MOL    H24  470   1.903   2.718   4.676
    1MOL    O12  471   1.712   2.723   4.746
    1MOL    H25  472   1.655   2.653   4.781
    1MOL    C16  473   1.961   2.920   5.101
    1MOL    H26  474   1.879   2.991   5.082
    1MOL    O13  475   2.032   2.970   5.213
    1MOL    H27  476   2.127   2.949   5.203
    1MOL    C17  477   1.899   2.784   5.132
    1MOL    H28  478   1.979   2.712   5.155
    1MOL    O14  479   1.809   2.793   5.243
    1MOL    H29  480   1.857   2.844   5.312
    1MOL    C18  481   1.821   2.735   5.011
    1MOL    H30  482   1.740   2.806   4.988
    1MOL    O15  483   1.765   2.607   5.043
    1MOL    C19  484   1.626   2.588   5.028
    1MOL    H31  485   1.576   2.684   5.014
    1MOL    O16  486   1.596   2.513   4.912
    1MOL    C20  487   1.653   2.379   4.911
    1MOL    H32  488   1.762   2.389   4.922
    1MOL    C21  489   1.624   2.314   4.775
    1MOL    H33  490   1.706   2.245   4.752
    1MOL    H34  491   1.625   2.393   4.699
    1MOL    O17  492   1.499   2.249   4.767
    1MOL    H35  493   1.514   2.155   4.788
    1MOL    C22  494   1.575   2.518   5.154
    1MOL    H36  495   1.465   2.511   5.146
    1MOL    O18  496   1.602   2.588   5.273
    1MOL    H37  497   1.686   2.638   5.263
    1MOL    C23  498   1.630   2.375   5.160
    1MOL    H38  499   1.740   2.380   5.171
    1MOL    O19  500   1.573   2.304   5.269
    1MOL    H39  501   1.578   2.364   5.346
    1MOL    C24  502   1.597   2.302   5.031
    1MOL    H40  503   1.488   2.295   5.019
    1MOL    O20  504   1.653   2.171   5.038
    1MOL    C25  505   1.568   2.060   5.020
    1MOL    H41  506   1.463   2.091   5.022
    1MOL    O21  507   1.588   2.000   4.893
    1MOL    C26  508   1.721   1.948   4.871
    1MOL    H42  509   1.793   2.031   4.877
    1MOL    C27  510   1.727   1.892   4.730
    1MOL    H43  511   1.832   1.871   4.706
    1MOL    H44  512   1.689   1.968   4.660
    1MOL    O22  513   1.649   1.773   4.724
    1MOL    H45  514   1.658   1.735   4.635
    1MOL    C28  515   1.596   1.959   5.132
    1MOL    H46  516   1.527   1.875   5.120
    1MOL    O23  517   1.575   2.012   5.262
    1MOL    H47  518   1.598   2.107   5.263
    1MOL    C29  519   1.739   1.905   5.118
    1MOL    H48  520   1.810   1.988   5.131
    1MOL    O24  521   1.763   1.805   5.216
    1MOL    H49  522   1.725   1.839   5.299
    1MOL    C30  523   1.758   1.845   4.979
    1MOL    H50  524   1.693   1.757   4.969
    1MOL    O25  525   1.895   1.808   4.967
    1MOL    C31  526   1.926   1.683   4.905
    1MOL    H51  527   1.838   1.644   4.854
    1MOL    O26  528   2.023   1.702   4.805
    1MOL    C32  529   2.150   1.753   4.852
    1MOL    H52  530   2.133   1.849   4.903
    1MOL    C33  531   2.239   1.778   4.730
    1MOL    H53  532   2.315   1.852   4.758
    1MOL    H54  533   2.175   1.823   4.653
    1MOL    O27  534   2.299   1.660   4.679
    1MOL    H55  535   2.396   1.672   4.686
    1MOL    C34  536   1.976   1.585   5.013
    1MOL    H56  537   1.990   1.487   4.965
    1MOL    O28  538   1.883   1.564   5.118
    1MOL    H57  539   1.856   1.650   5.155
    1MOL    C35  540   2.111   1.632   5.067
    1MOL    H58  541   2.097   1.728   5.118
    1MOL    O29  542   2.165   1.536   5.158
    1MOL    H59  543   2.090   1.508   5.213
    1MOL    C36  544   2.209   1.651   4.952
    1MOL    H60  545   2.224   1.557   4.898
    1MOL    O30  546   2.333   1.697   5.006
    1MOL    C37  547   2.441   1.605   5.003
    1MOL    H61  548   2.404   1.504   4.984
    1MOL    O31  549   2.531   1.633   4.898
    1MOL    C38  550   2.591   1.763   4.903
    1MOL    H62  551   2.513   1.841   4.906
    1MOL    C39  552   2.668   1.779   4.774
    1MOL    H63  553   2.736   1.694   4.761
    1MOL    H64  554   2.727   1.872   4.775
    1MOL    O32  555   2.570   1.782   4.669
    1MOL    H65  556   2.615   1.803   4.586
    1MOL    C40  557   2.515   1.611   5.137
    1MOL    H66  558   2.593   1.534   5.134
    1MOL    O33  559   2.433   1.587   5.250
    1MOL    H67  560   2.339   1.587   5.224
    1MOL    C41  561   2.584   1.747   5.151
    1MOL    H68  562   2.507   1.826   5.155
    1MOL    O34  563   2.662   1.751   5.270
    1MOL    H69  564   2.605   1.717   5.341
    1MOL    C42  565   2.675   1.774   5.032
    1MOL    H70  566   2.756   1.700   5.030
    1MOL    O35  567   2.730   1.905   5.048
    1MOL    C43  568   2.870   1.922   5.044
    1MOL    H71  569   2.920   1.825   5.041
    1MOL    O36  570   2.911   1.988   4.926
    1MOL    C44  571   2.859   2.122   4.909
    1MOL    H72  572   2.749   2.119   4.907
    1MOL    C45  573   2.909   2.171   4.775
    1MOL    H73  574   3.017   2.151   4.768
    1MOL    H74  575   2.893   2.279   4.767
    1MOL    O37  576   2.837   2.101   4.673
    1MOL    H75  577   2.874   2.127   4.588
    1MOL    C46  578   2.913   2.002   5.167
    1MOL    H76  579   3.023   2.007   5.167
    1MOL    O38  580   2.876   1.942   5.290
    1MOL    H77  581   2.790   1.895   5.280
    1MOL    C47  582   2.859   2.145   5.158
    1MOL    H78  583   2.749   2.142   5.160
    1MOL    O39  584   2.907   2.222   5.268
    1MOL    H79  585   2.896   2.165   5.346
    1MOL    C48  586   2.903   2.210   5.028
    1MOL    H80  587   3.013   2.220   5.028
    1MOL    O40  588   2.843   2.340   5.021
    1MOL     C1  589   1.565   2.453   6.104
    1MOL     H1  590   1.460   2.423   6.113
    1MOL     O1  591   1.597   2.513   6.228
    1MOL     C2  592   1.731   2.566   6.237
    1MOL     H2  593   1.803   2.484   6.225
    1MOL     C3  594   1.748   2.623   6.377
    1MOL     H3  595   1.855   2.644   6.392
    1MOL     H4  596   1.717   2.546   6.450
    1MOL     O2  597   1.670   2.741   6.390
    1MOL     H5  598   1.694   2.783   6.474
    1MOL     C4  599   1.583   2.554   5.989
    1MOL     H6  600   1.515   2.637   6.008
    1MOL     O3  601   1.549   2.503   5.862
    1MOL     H7  602   1.582   2.410   5.853
    1MOL     C5  603   1.726   2.609   5.991
    1MOL     H8  604   1.797   2.527   5.972
    1MOL     O4  605   1.740   2.708   5.890
    1MOL     H9  606   1.693   2.674   5.812
    1MOL     C6  607   1.755   2.670   6.127
    1MOL    H10  608   1.688   2.755   6.142
    1MOL     O5  609   1.891   2.714   6.127
    1MOL     C7  610   1.920   2.841   6.183
    1MOL    H11  611   1.830   2.883   6.230
    1MOL     O6  612   2.014   2.829   6.288
    1MOL     C8  613   2.143   2.778   6.248
    1MOL    H12  614   2.128   2.679   6.201
    1MOL     C9  615   2.229   2.759   6.374
    1MOL    H13  616   2.301   2.679   6.354
    1MOL    H14  617   2.162   2.725   6.454
    1MOL     O7  618   2.294   2.876   6.419
    1MOL    H15  619   2.381   2.879   6.376
    1MOL    C10  620   1.973   2.933   6.072
    1MOL    H16  621   1.985   3.034   6.114
    1MOL     O8  622   1.884   2.947   5.962
    1MOL    H17  623   1.852   2.859   5.935
    1MOL    C11  624   2.111   2.886   6.025
    1MOL    H18  625   2.101   2.786   5.978
    1MOL     O9  626   2.167   2.978   5.932
    1MOL    H19  627   2.095   3.001   5.871
    1MOL    C12  628   2.204   2.874   6.145
    1MOL    H20  629   2.214   2.972   6.193
    1MOL    O10  630   2.332   2.830   6.099
    1MOL    C13  631   2.443   2.911   6.126
    1MOL    H21  632   2.412   3.011   6.159
    1MOL    O11  633   2.520   2.859   6.234
    1MOL    C14  634   2.575   2.727   6.211
    1MOL    H22  635   2.492   2.659   6.188
    1MOL    C15  636   2.644   2.680   6.339
    1MOL    H23  637   2.637   2.570   6.343
    1MOL    H24  638   2.586   2.718   6.424
    1MOL    O12  639   2.777   2.723   6.355
    1MOL    H25  640   2.834   2.653   6.319
    1MOL    C16  641   2.528   2.920   5.999
    1MOL    H26  642   2.610   2.991   6.018
    1MOL    O13  643   2.457   2.970   5.887
    1MOL    H27  644   2.362   2.949   5.897
    1MOL    C17  645   2.590   2.784   5.968
    1MOL    H28  646   2.510   2.712   5.945
    1MOL    O14  647   2.679   2.793   5.857
    1MOL    H29  648   2.632   2.844   5.789
    1MOL    C18  649   2.668   2.735   6.089
    1MOL    H30  650   2.749   2.806   6.112
    1MOL    O15  651   2.724   2.607   6.058
    1MOL    C19  652   2.863   2.588   6.072
    1MOL    H31  653   2.913   2.684   6.086
    1MOL    O16  654   2.893   2.513   6.189
    1MOL    C20  655   2.836   2.379   6.189
    1MOL    H32  656   2.727   2.389   6.178
    1MOL    C21  657   2.865   2.314   6.325
    1MOL    H33  658   2.783   2.245   6.348
    1MOL    H34  659   2.864   2.393   6.401
    1MOL    O17  660   2.990   2.249   6.333
    1MOL    H35  661   2.974   2.155   6.312
    1MOL    C22  662   2.914   2.518   5.946
    1MOL    H36  663   3.024   2.511   5.954
    1MOL    O18  664   2.887   2.588   5.827
    1MOL    H37  665   2.803   2.638   5.837
    1MOL    C23  666   2.859   2.375   5.940
    1MOL    H38  667   2.749   2.380   5.929
    1MOL    O19  668   2.916   2.304   5.831
    1MOL    H39  669   2.911   2.364   5.754
    1MOL    C24  670   2.892   2.302   6.069
    1MOL    H40  671   3.001   2.295   6.081
    1MOL    O20  672   2.836   2.171   6.062
    1MOL    C25  673   2.921   2.060   6.080
    1MOL    H41  674   3.026   2.091   6.079
    1MOL    O21  675   2.901   2.000   6.207
    1MOL    C26  676   2.768   1.948   6.229
    1MOL    H42  677   2.696   2.031   6.223
    1MOL    C27  678   2.762   1.892   6.370
    1MOL    H43  679   2.656   1.871   6.394
    1MOL    H44  680   2.800   1.968   6.440
    1MOL    O22  681   2.840   1.773   6.376
    1MOL    H45  682   2.831   1.735   6.465
    1MOL    C28  683   2.893   1.959   5.968
    1MOL    H46  684   2.962   1.875   5.980
    1MOL    O23  685   2.914   2.012   5.839
    1MOL    H47  686   2.891   2.107   5.838
    1MOL    C29  687   2.750   1.905   5.982
    1MOL    H48  688   2.679   1.988   5.969
    1MOL    O24  689   2.726   1.805   5.884
    1MOL    H49  690   2.764   1.839   5.801
    1MOL    C30  691   2.731   1.845   6.121
    1MOL    H50  692   2.796   1.757   6.131
    1MOL    O25  693   2.594   1.808   6.133
    1MOL    C31  694   2.563   1.683   6.195
    1MOL    H51  695   2.651   1.644   6.246
    1MOL    O26  696   2.466   1.702   6.295
    1MOL    C32  697   2.338   1.753   6.248
    1MOL    H52  698   2.356   1.849   6.198
    1MOL    C33  699   2.250   1.778   6.370
    1MOL    H53  700   2.173   1.852   6.342
    1MOL    H54  701   2.313   1.823   6.447
    1MOL    O27  702   2.190   1.660   6.421
    1MOL    H55  703   2.093   1.672   6.414
    1MOL    C34  704   2.513   1.585   6.087
    1MOL    H56  705   2.499   1.487   6.135
    1MOL    O28  706   2.605   1.564   5.982
    1MOL    H57  707   2.633   1.650   5.945
    1MOL    C35  708   2.378   1.632   6.033
    1MOL    H58  709   2.392   1.728   5.982
    1MOL    O29  710   2.324   1.536   5.942
    1MOL    H59  711   2.399   1.508   5.887
    1MOL    C36  712   2.280   1.651   6.148
    1MOL    H60  713   2.265   1.557   6.202
    1MOL    O30  714   2.156   1.697   6.094
    1MOL    C37  715   2.048   1.605   6.097
    1MOL    H61  716   2.085   1.504   6.116
    1MOL    O31  717   1.958   1.633   6.202
    1MOL    C38  718   1.898   1.763   6.197
    1MOL    H62  719   1.976   1.841   6.194
    1MOL    C39  720   1.821   1.779   6.326
    1MOL    H63  721   1.753   1.694   6.339
    1MOL    H64  722   1.762   1.872   6.325
    1MOL    O32  723   1.919   1.782   6.431
    1MOL    H65  724   1.874   1.803   6.514
    1MOL    C40  725   1.974   1.611   5.963
    1MOL    H66  726   1.896   1.534   5.966
    1MOL    O33  727   2.056   1.587   5.850
    1MOL    H67  728   2.150   1.587   5.876
    1MOL    C41  729   1.905   1.747   5.949
    1MOL    H68  730   1.982   1.826   5.945
    1MOL    O34  731   1.827   1.751   5.830
    1MOL    H69  732   1.884   1.717   5.759
    1MOL    C42  733   1.814   1.774   6.068
    1MOL    H70  734   1.733   1.700   6.070
    1MOL    O35  735   1.759   1.905   6.052
    1MOL    C43  736   1.619   1.922   6.056
    1MOL    H71  737   1.569   1.825   6.059
    1MOL    O36  738   1.578   1.988   6.174
    1MOL    C44  739   1.630   2.122   6.191
    1MOL    H72  740   1.740   2.119   6.193
    1MOL    C45  741   1.580   2.171   6.326
    1MOL    H73  742   1.472   2.151   6.332
    1MOL    H74  743   1.596   2.279   6.333
    1MOL    O37  744   1.652   2.101   6.427
    1MOL    H75  745   1.615   2.127   6.512
    1MOL    C46  746   1.576   2.002   5.933
    1MOL    H76  747   1.466   2.007   5.933
    1MOL    O38  748   1.613   1.942   5.810
    1MOL    H77  749   1.698   1.895   5.820
    1MOL    C47  750   1.630   2.145   5.942
    1MOL    H78  751   1.740   2.142   5.941
    1MOL    O39  752   1.582   2.222   5.832
    1MOL    H79  753   1.593   2.165   5.754
    1MOL    C48  754   1.586   2.210   6.072
    1MOL    H80  755   1.476   2.220   6.072
    1MOL    O40  756   1.646   2.340   6.079
    2SOL     OW  757   0.230   0.628   0.113
    2SOL    HW1  758   0.137   0.626   0.150
    2SOL    HW2  759   0.231   0.589   0.021
    3SOL     OW  760   0.225   0.275   0.996
    3SOL    HW1  761   0.260   0.258   1.088
    3SOL    HW2  762   0.137   0.230   0.984
    4SOL     OW  763   0.019   0.368   0.647
    4SOL    HW1  764  -0.063   0.411   0.686
    4SOL    HW2  765  -0.009   0.295   0.584
    5SOL     OW  766   0.569   1.275   1.165
    5SOL    HW1  767   0.476   1.268   1.128
    5SOL    HW2  768   0.580   1.364   1.209
    6SOL     OW  769   1.555   1.511   0.703
    6SOL    HW1  770   1.498   1.495   0.784
    6SOL    HW2  771   1.496   1.521   0.623
    7SOL     OW  772   1.135   0.703   0.717
    7SOL    HW1  773   1.192   0.781   0.692
    7SOL    HW2  774   1.075   0.729   0.793
    8SOL     OW  775   1.755   0.607   0.231
    8SOL    HW1  776   1.743   0.594   0.132
    8SOL    HW2  777   1.725   0.526   0.280
    9SOL     OW  778   0.768   1.144   1.023
    9SOL    HW1  779   0.690   1.161   1.083
    9SOL    HW2  780   0.802   1.231   0.987
   10SOL     OW  781   0.850   0.798   1.823
   10SOL    HW1  782   0.846   0.874   1.888
   10SOL    HW2  783   0.872   0.834   1.732
   11SOL     OW  784   0.685   1.012   0.665
   11SOL    HW1  785   0.754   0.996   0.735
   11SOL    HW2  786   0.612   1.069   0.703
   12SOL     OW  787   0.686   1.161   1.803
   12SOL    HW1  788   0.746   1.240   1.817
   12SOL    HW2  789   0.600   1.192   1.762
   13SOL     OW  790   0.335   1.435   1.061
   13SOL    HW1  791   0.257   1.404   1.008
   13SOL    HW2  792   0.393   1.493   1.004
   14SOL     OW  793   1.460   1.505   1.339
   14SOL    HW1  794   1.484   1.599   1.365
   14SOL    HW2  795   1.444   1.451   1.421
   15SOL     OW  796   0.438   0.392   1.499
   15SOL    HW1  797   0.520   0.336   1.508
   15SOL    HW2  798   0.357   0.334   1.503
   16SOL     OW  799   1.603   0.447   0.737
   16SOL    HW1  800   1.529   0.493   0.687
   16SOL    HW2  801   1.654   0.515   0.790
   17SOL     OW  802   0.231   1.713   0.483
   17SOL    HW1  803   0.265   1.790   0.537
   17SOL    HW2  804   0.275   1.713   0.393
   18SOL     OW  805   1.127   1.341   1.690
   18SOL    HW1  806   1.174   1.341   1.778
   18SOL    HW2  807   1.079   1.254   1.679
   19SOL     OW  808   0.230   1.434   0.538
   19SOL    HW1  809   0.204   1.530   0.538
   19SOL    HW2  810   0.159   1.380   0.583
   20SOL     OW  811   0.240   1.091   0.886
   20SOL    HW1  812   0.254   1.007   0.938
   20SOL    HW2  813   0.185   1.155   0.941
   21SOL     OW  814   0.620   1.786   1.439
   21SOL    HW1  815   0.528   1.769   1.474
   21SOL    HW2  816   0.648   1.878   1.465
   22SOL     OW  817   0.606   0.964   0.123
   22SOL    HW1  818   0.613   1.048   0.069
   22SOL    HW2  819   0.652   0.977   0.211
   23SOL     OW  820   1.594   0.114   1.480
   23SOL    HW1  821   1.576   0.181   1.408
   23SOL    HW2  822   1.591   0.160   1.569
   24SOL     OW  823   0.122   0.643   0.563
   24SOL    HW1  824   0.077   0.555   0.580
   24SOL    HW2  825   0.121   0.697   0.647
   25SOL     OW  826   1.842   1.767   0.359
   25SOL    HW1  827   1.896   1.738   0.439
   25SOL    HW2  828   1.872   1.857   0.330
   26SOL     OW  829   0.027   1.596   0.117
   26SOL    HW1  830   0.008   1.500   0.138
   26SOL    HW2  831  -0.006   1.654   0.192
   27SOL     OW  832   1.689   0.922   0.612
   27SOL    HW1  833   1.784   0.893   0.620
   27SOL    HW2  834   1.681   0.987   0.537
   28SOL     OW  835   1.641   1.108   0.432
   28SOL    HW1  836   1.727   1.110   0.380
   28SOL    HW2  837   1.655   1.155   0.520
   29SOL     OW  838   0.113   0.737   1.597
   29SOL    HW1  839   0.201   0.724   1.642
   29SOL    HW2  840   0.100   0.834   1.575
   30SOL     OW  841   0.613   1.365   0.726
   30SOL    HW1  842   0.564   1.278   0.735
   30SOL    HW2  843   0.590   1.408   0.639
   31SOL     OW  844   1.293   1.228   1.423
   31SOL    HW1  845   1.330   1.155   1.365
   31SOL    HW2  846   1.345   1.233   1.508
   32SOL     OW  847   0.809   0.004   0.502
   32SOL    HW1  848   0.849   0.095   0.493
   32SOL    HW2  849   0.709   0.012   0.508
   33SOL     OW  850   0.197   0.976   1.264
   33SOL    HW1  851   0.286   0.931   1.250
   33SOL    HW2  852   0.124   0.911   1.245
   34SOL     OW  853   1.525   0.999   0.190
   34SOL    HW1  854   1.462   0.923   0.203
   34SOL    HW2  855   1.573   1.017   0.276
   35SOL     OW  856   1.187   1.792   1.616
   35SOL    HW1  857   1.211   1.852   1.540
   35SOL    HW2  858   1.194   1.697   1.586
   36SOL     OW  859   0.317   0.251   1.801
   36SOL    HW1  860   0.388   0.322   1.807
   36SOL    HW2  861   0.229   0.290   1.829
   37SOL     OW  862   1.466   1.417   0.953
   37SOL    HW1  863   1.407   1.423   1.033
   37SOL    HW2  864   1.451   1.329   0.907
   38SOL     OW  865   1.667   1.714   0.572
   38SOL    HW1  866   1.626   1.691   0.484
   38SOL    HW2  867   1.649   1.640   0.637
   39SOL     OW  868   0.598   0.729   0.270
   39SOL    HW1  869   0.622   0.798   0.202
   39SOL    HW2  870   0.520   0.762   0.324
   40SOL     OW  871   1.281   0.345   0.944
   40SOL    HW1  872   1.195   0.295   0.931
   40SOL    HW2  873   1.343   0.291   1.000
   41SOL     OW  874   1.576   1.662   0.307
   41SOL    HW1  875   1.665   1.708   0.310
   41SOL    HW2  876   1.555   1.638   0.212
   42SOL     OW  877   0.807   0.605   1.465
   42SOL    HW1  878   0.760   0.602   1.554
   42SOL    HW2  879   0.756   0.550   1.399
   43SOL     OW  880   1.394   0.469   1.674
   43SOL    HW1  881   1.374   0.512   1.762
   43SOL    HW2  882   1.472   0.407   1.683
   44SOL     OW  883   0.973   0.890   1.572
   44SOL    HW1  884   1.019   0.806   1.543
   44SOL    HW2  885   0.917   0.924   1.497
   45SOL     OW  886   0.991   0.410   1.242
   45SOL    HW1  887   0.914   0.444   1.296
   45SOL    HW2  888   0.957   0.359   1.163
   46SOL     OW  889   1.041   0.701   0.429
   46SOL    HW1  890   1.067   0.697   0.525
   46SOL    HW2  891   0.956   0.650   0.415
   47SOL     OW  892   0.076   0.811   0.789
   47SOL    HW1  893   0.175   0.799   0.798
   47SOL    HW2  894   0.052   0.906   0.810
   48SOL     OW  895   0.130   1.821   1.571
   48SOL    HW1  896   0.120   1.806   1.670
   48SOL    HW2  897   0.044   1.857   1.535
   49SOL     OW  898   0.865   0.348   0.195
   49SOL    HW1  899   0.924   0.411   0.146
   49SOL    HW2  900   0.884   0.254   0.166
   50SOL     OW  901   1.719   0.585   1.831
   50SOL    HW1  902   1.693   0.674   1.795
   50SOL    HW2  903   1.717   0.517   1.758
   51SOL     OW  904   1.362   1.144   0.545
   51SOL    HW1  905   1.445   1.115   0.497
   51SOL    HW2  906   1.313   1.211   0.489
   52SOL     OW  907   0.550   0.196   0.885
   52SOL    HW1  908   0.545   0.191   0.985
   52SOL    HW2  909   0.552   0.292   0.856
   53SOL     OW  910   1.008   1.456   0.477
   53SOL    HW1  911   0.962   1.528   0.425
   53SOL    HW2  912   1.004   1.476   0.575
   54SOL     OW  913   0.351   1.801   0.853
   54SOL    HW1  914   0.401   1.715   0.859
   54SOL    HW2  915   0.416   1.878   0.850
   55SOL     OW  916   1.795   1.066   0.873
   55SOL    HW1  917   1.733   1.051   0.797
   55SOL    HW2  918   1.743   1.077   0.958
   56SOL     OW  919   1.227   1.550   1.506
   56SOL    HW1  920   1.233   1.473   1.570
   56SOL    HW2  921   1.175   1.524   1.426
   57SOL     OW  922   0.321   0.943   0.242
   57SOL    HW1  923   0.403   0.982   0.200
   57SOL    HW2  924   0.294   0.861   0.193
   58SOL     OW  925   1.458   0.735   0.728
   58SOL    HW1  926   1.453   0.670   0.803
   58SOL    HW2  927   1.538   0.794   0.741
   59SOL     OW  928   0.461   1.266   1.727
   59SOL    HW1  929   0.411   1.267   1.641
   59SOL    HW2  930   0.398   1.248   1.803
   60SOL     OW  931   1.111   1.776   0.237
   60SOL    HW1  932   1.051   1.714   0.287
   60SOL    HW2  933   1.142   1.732   0.152
   61SOL     OW  934   0.202   0.285   1.498
   61SOL    HW1  935   0.122   0.345   1.485
   61SOL    HW2  936   0.192   0.236   1.584
   62SOL     OW  937   1.632   1.377   0.081
   62SOL    HW1  938   1.600   1.471   0.071
   62SOL    HW2  939   1.556   1.314   0.069
   63SOL     OW  940   0.464   1.743   0.323
   63SOL    HW1  941   0.497   1.782   0.409
   63SOL    HW2  942   0.540   1.736   0.258
   64SOL     OW  943   1.400   0.107   0.426
   64SOL    HW1  944   1.376   0.070   0.336
   64SOL    HW2  945   1.499   0.123   0.430
   65SOL     OW  946   0.249   1.785   1.241
   65SOL    HW1  947   0.306   1.720   1.291
   65SOL    HW2  948   0.233   1.752   1.148
   66SOL     OW  949   0.940   1.698   0.904
   66SOL    HW1  950   1.020   1.641   0.925
   66SOL    HW2  951   0.891   1.658   0.827
   67SOL     OW  952   0.382   0.700   0.480
   67SOL    HW1  953   0.427   0.610   0.477
   67SOL    HW2  954   0.288   0.689   0.513
   68SOL     OW  955   1.547   0.222   1.729
   68SOL    HW1  956   1.542   0.259   1.821
   68SOL    HW2  957   1.475   0.153   1.717
   69SOL     OW  958   0.614   0.122   0.117
   69SOL    HW1  959   0.712   0.100   0.124
   69SOL    HW2  960   0.583   0.105   0.024
   70SOL     OW  961   0.781   0.264   1.749
   70SOL    HW1  962   0.848   0.203   1.792
   70SOL    HW2  963   0.708   0.283   1.814
   71SOL     OW  964   0.888   1.514   1.195
   71SOL    HW1  965   0.865   1.489   1.101
   71SOL    HW2  966   0.949   1.445   1.234
   72SOL     OW  967   1.351   0.590   1.433
   72SOL    HW1  968   1.379   0.547   1.518
   72SOL    HW2  969   1.376   0.686   1.434
   73SOL     OW  970   0.803   1.402   0.924
   73SOL    HW1  971   0.893   1.416   0.882
   73SOL    HW2  972   0.732   1.404   0.853
   74SOL     OW  973   0.922   0.503   0.899
   74SOL    HW1  974   0.897   0.494   0.803
   74SOL    HW2  975   0.970   0.421   0.930
   75SOL     OW  976   0.539   0.064   0.512
   75SOL    HW1  977   0.458   0.065   0.570
   75SOL    HW2  978   0.542   0.147   0.457
   76SOL     OW  979   1.434   1.188   0.041
   76SOL    HW1  980   1.466   1.112   0.098
   76SOL    HW2  981   1.342   1.215   0.071
   77SOL     OW  982   0.297   0.035   0.171
   77SOL    HW1  983   0.346   0.119   0.150
   77SOL    HW2  984   0.359  -0.030   0.216
   78SOL     OW  985   0.935   0.236   0.480
   78SOL    HW1  986   0.887   0.277   0.402
   78SOL    HW2  987   1.034   0.234   0.461
   79SOL     OW  988   1.076   0.683   1.464
   79SOL    HW1  989   0.996   0.622   1.467
   79SOL    HW2  990   1.157   0.630   1.440
   80SOL     OW  991   1.227   1.570   0.793
   80SOL    HW1  992   1.248   1.644   0.728
   80SOL    HW2  993   1.295   1.570   0.866
   81SOL     OW  994   0.459   1.152   0.741
   81SOL    HW1  995   0.388   1.125   0.806
   81SOL    HW2  996   0.433   1.124   0.648
   82SOL     OW  997   1.271   1.797   0.591
   82SOL    HW1  998   1.315   1.861   0.527
   82SOL    HW2  999   1.221   1.849   0.661
   83SOL     OW 1000   1.032   0.549   0.016
   83SOL    HW1 1001   0.991   0.631  -0.023
   83SOL    HW2 1002   1.096   0.575   0.089
   84SOL     OW 1003   0.078   0.556   1.386
   84SOL    HW1 1004   0.170   0.555   1.345
   84SOL    HW2 1005   0.072   0.630   1.453
   85SOL     OW 1006   0.561   0.222   1.147
   85SOL    HW1 1007   0.599   0.138   1.184
   85SOL    HW2 1008   0.473   0.241   1.191
   86SOL     OW 1009   0.866   0.454   0.642
   86SOL    HW1 1010   0.834   0.526   0.580
   86SOL    HW2 1011   0.890   0.373   0.589
   87SOL     OW 1012   1.017   0.039   0.753
   87SOL    HW1 1013   0.945   0.044   0.684
   87SOL    HW2 1014   0.993  -0.030   0.822
   88SOL     OW 1015   1.429   1.173   0.867
   88SOL    HW1 1016   1.374   1.089   0.860
   88SOL    HW2 1017   1.455   1.202   0.775
   89SOL     OW 1018   1.466   0.590   0.992
   89SOL    HW1 1019   1.436   0.495   0.999
   89SOL    HW2 1020   1.539   0.606   1.058
   90SOL     OW 1021   1.857   0.833   0.377
   90SOL    HW1 1022   1.899   0.769   0.441
   90SOL    HW2 1023   1.819   0.782   0.299
   91SOL     OW 1024   0.488   1.385   0.174
   91SOL    HW1 1025   0.401   1.370   0.221
   91SOL    HW2 1026   0.471   1.411   0.079
   92SOL     OW 1027   1.664   1.280   0.657
   92SOL    HW1 1028   1.763   1.288   0.671
   92SOL    HW2 1029   1.619   1.364   0.688
   93SOL     OW 1030   1.390   0.575   0.078
   93SOL    HW1 1031   1.336   0.554   0.159
   93SOL    HW2 1032   1.481   0.534   0.087
   94SOL     OW 1033   0.527   0.256   0.328
   94SOL    HW1 1034   0.554   0.197   0.253
   94SOL    HW2 1035   0.527   0.351   0.297
   95SOL     OW 1036   1.754   1.223   1.588
   95SOL    HW1 1037   1.845   1.184   1.575
   95SOL    HW2 1038   1.762   1.319   1.612
   96SOL     OW 1039   1.064   1.347   1.340
   96SOL    HW1 1040   0.984   1.324   1.395
   96SOL    HW2 1041   1.147   1.321   1.389
   97SOL     OW 1042   1.592   1.629   1.625
   97SOL    HW1 1043   1.619   1.663   1.535
   97SOL    HW2 1044   1.671   1.591   1.671
   98SOL     OW 1045   1.111   1.195   1.100
   98SOL    HW1 1046   1.071   1.239   1.181
   98SOL    HW2 1047   1.070   1.232   1.017
   99SOL     OW 1048   1.638   1.099   1.079
   99SOL    HW1 1049   1.643   1.180   1.138
   99SOL    HW2 1050   1.552   1.101   1.028
  100SOL     OW 1051   0.915   0.089   1.402
  100SOL    HW1 1052   0.940   0.069   1.307
  100SOL    HW2 1053   0.987   0.145   1.444
  101SOL     OW 1054   0.980   1.116   1.719
  101SOL    HW1 1055   0.881   1.122   1.729
  101SOL    HW2 1056   1.003   1.036   1.663
  102SOL     OW 1057   0.705   1.050   0.368
  102SOL    HW1 1058   0.691   1.057   0.467
  102SOL    HW2 1059   0.789   0.999   0.350
  103SOL     OW 1060   0.410   0.813   1.251
  103SOL    HW1 1061   0.496   0.825   1.301
  103SOL    HW2 1062   0.368   0.726   1.278
  104SOL     OW 1063   1.274   0.386   1.262
  104SOL    HW1 1064   1.295   0.460   1.326
  104SOL    HW2 1065   1.185   0.403   1.219
  105SOL     OW 1066   0.064   1.564   1.331
  105SOL    HW1 1067   0.018   1.646   1.297
  105SOL    HW2 1068   0.162   1.583   1.340
  106SOL     OW 1069   0.367   1.100   0.501
  106SOL    HW1 1070   0.360   1.183   0.445
  106SOL    HW2 1071   0.371   1.020   0.441
  107SOL     OW 1072   0.566   0.537   0.865
  107SOL    HW1 1073   0.578   0.603   0.791
  107SOL    HW2 1074   0.612   0.571   0.948
  108SOL     OW 1075   1.252   1.348   0.388
  108SOL    HW1 1076   1.302   1.425   0.428
  108SOL    HW2 1077   1.157   1.350   0.420
  109SOL     OW 1078   1.272   1.445   1.142
  109SOL    HW1 1079   1.319   1.458   1.229
  109SOL    HW2 1080   1.206   1.371   1.151
  110SOL     OW 1081   1.582   0.639   0.472
  110SOL    HW1 1082   1.551   0.700   0.545
  110SOL    HW2 1083   1.632   0.691   0.403
  111SOL     OW 1084   0.354   1.510   1.329
  111SOL    HW1 1085   0.333   1.466   1.242
  111SOL    HW2 1086   0.451   1.536   1.332
  112SOL     OW 1087   0.402   0.751   1.598
  112SOL    HW1 1088   0.470   0.806   1.551
  112SOL    HW2 1089   0.442   0.663   1.625
  113SOL     OW 1090   1.587   0.779   1.670
  113SOL    HW1 1091   1.495   0.817   1.665
  113SOL    HW2 1092   1.647   0.826   1.605
  114SOL     OW 1093   1.013   0.105   1.770
  114SOL    HW1 1094   1.019   0.190   1.718
  114SOL    HW2 1095   1.045   0.029   1.713
  115SOL     OW 1096   0.504   0.050   1.740
  115SOL    HW1 1097   0.462  -0.007   1.670
  115SOL    HW2 1098   0.438   0.119   1.772
  116SOL     OW 1099   0.573   0.870   1.029
  116SOL    HW1 1100   0.617   0.959   1.020
  116SOL    HW2 1101   0.510   0.870   1.106
  117SOL     OW 1102   1.360   0.862   1.045
  117SOL    HW1 1103   1.285   0.862   0.979
  117SOL    HW2 1104   1.397   0.770   1.054
  118SOL     OW 1105   1.209   0.525   0.275
  118SOL    HW1 1106   1.222   0.441   0.329
  118SOL    HW2 1107   1.180   0.599   0.335
  119SOL     OW 1108   0.307   0.213   1.231
  119SOL    HW1 1109   0.284   0.250   1.321
  119SOL    HW2 1110   0.277   0.118   1.225
  120SOL     OW 1111   0.037   1.310   1.282
  120SOL    HW1 1112   0.090   1.261   1.350
  120SOL    HW2 1113   0.059   1.408   1.287
  121SOL     OW 1114   0.732   0.634   1.064
  121SOL    HW1 1115   0.791   0.608   0.988
  121SOL    HW2 1116   0.704   0.730   1.053
  122SOL     OW 1117   1.728   0.935   1.854
  122SOL    HW1 1118   1.682   0.928   1.765
  122SOL    HW2 1119   1.666   0.979   1.920
  123SOL     OW 1120   0.307   0.063   0.618
  123SOL    HW1 1121   0.296   0.157   0.651
  123SOL    HW2 1122   0.302   0.000   0.695
  124SOL     OW 1123   1.622   0.367   0.374
  124SOL    HW1 1124   1.624   0.291   0.438
  124SOL    HW2 1125   1.574   0.444   0.414
  125SOL     OW 1126   1.023   0.766   0.966
  125SOL    HW1 1127   1.038   0.787   1.062
  125SOL    HW2 1128   0.993   0.671   0.957
  126SOL     OW 1129   0.980   1.573   1.700
  126SOL    HW1 1130   0.960   1.617   1.612
  126SOL    HW2 1131   1.019   1.482   1.684
  127SOL     OW 1132   1.859   1.518   1.605
  127SOL    HW1 1133   1.873   1.545   1.510
  127SOL    HW2 1134   1.942   1.540   1.658
  128SOL     OW 1135   0.350   0.898   1.804
  128SOL    HW1 1136   0.426   0.942   1.852
  128SOL    HW2 1137   0.385   0.851   1.722
  129SOL     OW 1138   1.540   0.274   0.125
  129SOL    HW1 1139   1.479   0.199   0.148
  129SOL    HW2 1140   1.562   0.326   0.208
  130SOL     OW 1141   1.303   0.838   0.042
  130SOL    HW1 1142   1.337   0.745   0.057
  130SOL    HW2 1143   1.321   0.865  -0.053
  131SOL     OW 1144   1.068   1.333   0.849
  131SOL    HW1 1145   1.075   1.249   0.794
  131SOL    HW2 1146   1.130   1.402   0.813
  132SOL     OW 1147   0.319   0.810   0.949
  132SOL    HW1 1148   0.412   0.846   0.954
  132SOL    HW2 1149   0.313   0.725   1.001
  133SOL     OW 1150   0.339   0.509   1.006
  133SOL    HW1 1151   0.287   0.426   0.989
  133SOL    HW2 1152   0.416   0.514   0.942
  134SOL     OW 1153   1.138   0.380   1.678
  134SOL    HW1 1154   1.093   0.443   1.742
  134SOL    HW2 1155   1.231   0.411   1.661
  135SOL     OW 1156   1.160   0.207   1.477
  135SOL    HW1 1157   1.160   0.271   1.554
  135SOL    HW2 1158   1.188   0.255   1.394
  136SOL     OW 1159   0.008   1.326   0.200
  136SOL    HW1 1160  -0.085   1.347   0.169
  136SOL    HW2 1161   0.018   1.227   0.213
  137SOL     OW 1162   0.088   1.801   0.927
  137SOL    HW1 1163   0.046   1.715   0.900
  137SOL    HW2 1164   0.182   1.804   0.893
  138SOL     OW 1165   0.504   1.568   0.910
  138SOL    HW1 1166   0.570   1.642   0.919
  138SOL    HW2 1167   0.548   1.489   0.868
  139SOL     OW 1168   1.002   0.796   1.238
  139SOL    HW1 1169   1.043   0.764   1.324
  139SOL    HW2 1170   0.906   0.769   1.235
  140SOL     OW 1171   0.040   0.544   1.114
  140SOL    HW1 1172   0.125   0.511   1.073
  140SOL    HW2 1173   0.053   0.559   1.212
  141SOL     OW 1174   0.189   0.520   1.722
  141SOL    HW1 1175   0.248   0.480   1.652
  141SOL    HW2 1176   0.131   0.591   1.681
  142SOL     OW 1177   1.369   0.950   1.660
  142SOL    HW1 1178   1.408   1.039   1.680
  142SOL    HW2 1179   1.379   0.930   1.563
  143SOL     OW 1180   0.815   0.572   0.325
  143SOL    HW1 1181   0.822   0.483   0.279
  143SOL    HW2 1182   0.721   0.606   0.317
  144SOL     OW 1183   1.657   0.604   1.206
  144SOL    HW1 1184   1.619   0.535   1.268
  144SOL    HW2 1185   1.739   0.568   1.162
  145SOL     OW 1186   0.252   1.564   1.744
  145SOL    HW1 1187   0.222   1.621   1.820
  145SOL    HW2 1188   0.245   1.467   1.770
  146SOL     OW 1189   0.671   0.464   1.269
  146SOL    HW1 1190   0.637   0.375   1.239
  146SOL    HW2 1191   0.697   0.518   1.189
  147SOL     OW 1192   0.930   1.678   1.465
  147SOL    HW1 1193   0.906   1.660   1.370
  147SOL    HW2 1194   0.960   1.772   1.475
  148SOL     OW 1195   0.473   0.500   0.191
  148SOL    HW1 1196   0.534   0.580   0.195
  148SOL    HW2 1197   0.378   0.531   0.198
  149SOL     OW 1198   0.159   1.137   1.466
  149SOL    HW1 1199   0.181   1.076   1.542
  149SOL    HW2 1200   0.169   1.088   1.380
  150SOL     OW 1201   1.347   1.059   1.234
  150SOL    HW1 1202   1.371   0.996   1.160
  150SOL    HW2 1203   1.257   1.099   1.216
  151SOL     OW 1204   1.302   0.855   0.309
  151SOL    HW1 1205   1.216   0.824   0.351
  151SOL    HW2 1206   1.298   0.841   0.210
  152SOL     OW 1207   1.759   1.747   1.154
  152SOL    HW1 1208   1.820   1.777   1.081
  152SOL    HW2 1209   1.721   1.658   1.132
  153SOL     OW 1210   1.252   1.731   1.128
  153SOL    HW1 1211   1.336   1.736   1.074
  153SOL    HW2 1212   1.229   1.635   1.146
  154SOL     OW 1213   0.083   1.258   1.022
  154SOL    HW1 1214   0.078   1.257   1.122
  154SOL    HW2 1215   0.000   1.217   0.984
  155SOL     OW 1216   0.688   1.662   1.716
  155SOL    HW1 1217   0.632   1.743   1.725
  155SOL    HW2 1218   0.740   1.666   1.630
  156SOL     OW 1219   0.903   0.086   0.133
  156SOL    HW1 1220   0.954   0.087   0.047
  156SOL    HW2 1221   0.959   0.044   0.204
  157SOL     OW 1222   1.726   0.135   0.523
  157SOL    HW1 1223   1.799   0.118   0.456
  157SOL    HW2 1224   1.695   0.048   0.561
  158SOL     OW 1225   1.388   1.573   0.477
  158SOL    HW1 1226   1.455   1.585   0.403
  158SOL    HW2 1227   1.348   1.662   0.500
  159SOL     OW 1228   0.130   1.794   1.851
  159SOL    HW1 1229   0.089   1.720   1.904
  159SOL    HW2 1230   0.194   1.845   1.909
  160SOL     OW 1231   1.280   0.927   0.672
  160SOL    HW1 1232   1.340   0.846   0.674
  160SOL    HW2 1233   1.320   0.996   0.612
  161SOL     OW 1234   0.830   1.273   1.422
  161SOL    HW1 1235   0.825   1.306   1.517
  161SOL    HW2 1236   0.744   1.292   1.376
  162SOL     OW 1237   0.672   1.616   0.154
  162SOL    HW1 1238   0.681   1.626   0.055
  162SOL    HW2 1239   0.632   1.527   0.175
  163SOL     OW 1240   1.650   1.720   1.394
  163SOL    HW1 1241   1.703   1.730   1.310
  163SOL    HW2 1242   1.623   1.810   1.428
  164SOL     OW 1243   1.841   0.175   0.963
  164SOL    HW1 1244   1.880   0.090   0.927
  164SOL    HW2 1245   1.743   0.177   0.944
  165SOL     OW 1246   0.263   0.326   0.720
  165SOL    HW1 1247   0.184   0.377   0.686
  165SOL    HW2 1248   0.254   0.311   0.818
  166SOL     OW 1249   1.194   1.612   0.031
  166SOL    HW1 1250   1.200   1.519   0.068
  166SOL    HW2 1251   1.135   1.612  -0.049
  167SOL     OW 1252   0.822   1.002   1.372
  167SOL    HW1 1253   0.862   1.001   1.280
  167SOL    HW2 1254   0.832   1.094   1.412
  168SOL     OW 1255   0.916   0.910   0.291
  168SOL    HW1 1256   0.979   0.948   0.223
  168SOL    HW2 1257   0.956   0.827   0.330
  169SOL     OW 1258   1.504   1.607   0.044
  169SOL    HW1 1259   1.412   1.644   0.051
  169SOL    HW2 1260   1.542   1.627  -0.046
  170SOL     OW 1261   0.372   1.288   1.490
  170SOL    HW1 1262   0.359   1.381   1.456
  170SOL    HW2 1263   0.288   1.236   1.477
  171SOL     OW 1264   1.614   1.292   1.289
  171SOL    HW1 1265   1.674   1.295   1.369
  171SOL    HW2 1266   1.539   1.356   1.302
  172SOL     OW 1267   1.039   1.098   0.696
  172SOL    HW1 1268   0.969   1.051   0.750
  172SOL    HW2 1269   1.098   1.030   0.653
  173SOL     OW 1270   1.014   0.236   0.971
  173SOL    HW1 1271   1.006   0.200   0.878
  173SOL    HW2 1272   1.012   0.160   1.036
  174SOL     OW 1273   0.590   1.487   0.491
  174SOL    HW1 1274   0.632   1.429   0.421
  174SOL    HW2 1275   0.546   1.566   0.447
  175SOL     OW 1276   1.709   0.385   1.381
  175SOL    HW1 1277   1.782   0.454   1.385
  175SOL    HW2 1278   1.737   0.310   1.322
  176SOL     OW 1279   0.255   1.348   0.290
  176SOL    HW1 1280   0.159   1.349   0.263
  176SOL    HW2 1281   0.267   1.401   0.374
  177SOL     OW 1282   0.105   1.013   1.726
  177SOL    HW1 1283   0.028   0.980   1.780
  177SOL    HW2 1284   0.190   0.983   1.768
  178SOL     OW 1285   0.672   0.203   1.489
  178SOL    HW1 1286   0.762   0.187   1.449
  178SOL    HW2 1287   0.680   0.208   1.588
  179SOL     OW 1288   0.075   0.345   0.033
  179SOL    HW1 1289  -0.017   0.317   0.004
  179SOL    HW2 1290   0.106   0.422  -0.023
  180SOL     OW 1291   1.440   0.856   1.398
  180SOL    HW1 1292   1.383   0.908   1.335
  180SOL    HW2 1293   1.536   0.868   1.374
  181SOL     OW 1294   0.072   0.166   0.318
  181SOL    HW1 1295   0.055   0.249   0.264
  181SOL    HW2 1296   0.162   0.129   0.296
  182SOL     OW 1297   1.183   1.335   0.119
  182SOL    HW1 1298   1.084   1.324   0.121
  182SOL    HW2 1299   1.217   1.350   0.212
  183SOL     OW 1300   0.613   0.842   1.431
  183SOL    HW1 1301   0.669   0.923   1.414
  183SOL    HW2 1302   0.672   0.762   1.434
  184SOL     OW 1303   1.493   1.767   0.959
  184SOL    HW1 1304   1.526   1.831   0.890
  184SOL    HW2 1305   1.559   1.761   1.034
  185SOL     OW 1306   0.716   0.565   1.708
  185SOL    HW1 1307   0.735   0.630   1.782
  185SOL    HW2 1308   0.776   0.485   1.717
  186SOL     OW 1309   1.450   1.220   1.633
  186SOL    HW1 1310   1.441   1.210   1.732
  186SOL    HW2 1311   1.546   1.213   1.607
  187SOL     OW 1312   0.390   1.741   1.560
  187SOL    HW1 1313   0.299   1.782   1.558
  187SOL    HW2 1314   0.383   1.647   1.592
  188SOL     OW 1315   1.674   0.883   1.254
  188SOL    HW1 1316   1.647   0.794   1.217
  188SOL    HW2 1317   1.675   0.951   1.181
  189SOL     OW 1318   1.225   0.325   0.449
  189SOL    HW1 1319   1.290   0.251   0.438
  189SOL    HW2 1320   1.245   0.375   0.533
  190SOL     OW 1321   0.594   0.745   0.652
  190SOL    HW1 1322   0.644   0.830   0.633
  190SOL    HW2 1323   0.506   0.747   0.604
  191SOL     OW 1324   1.777   0.342   1.642
  191SOL    HW1 1325   1.760   0.373   1.548
  191SOL    HW2 1326   1.693   0.305   1.680
  192SOL     OW 1327   1.730   0.934   1.517
  192SOL    HW1 1328   1.768   1.025   1.532
  192SOL    HW2 1329   1.722   0.917   1.418
  193SOL     OW 1330   0.859   1.374   0.016
  193SOL    HW1 1331   0.813   1.389   0.104
  193SOL    HW2 1332   0.903   1.459  -0.014
  194SOL     OW 1333   0.661   1.790   0.953
  194SOL    HW1 1334   0.615   1.878   0.940
  194SOL    HW2 1335   0.760   1.802   0.946
  195SOL     OW 1336   0.859   0.956   0.861
  195SOL    HW1 1337   0.913   0.887   0.909
  195SOL    HW2 1338   0.827   1.025   0.927
  196SOL     OW 1339   1.083   0.984   0.087
  196SOL    HW1 1340   1.060   1.037   0.005
  196SOL    HW2 1341   1.164   0.928   0.068
  197SOL     OW 1342   1.861   1.569   0.851
  197SOL    HW1 1343   1.790   1.557   0.781
  197SOL    HW2 1344   1.862   1.490   0.911
  198SOL     OW 1345   0.221   1.314   1.844
  198SOL    HW1 1346   0.156   1.241   1.823
  198SOL    HW2 1347   0.225   1.328   1.942
  199SOL     OW 1348   0.079   1.240   0.653
  199SOL    HW1 1349   0.078   1.193   0.741
  199SOL    HW2 1350   0.161   1.212   0.602
  200SOL     OW 1351   0.672   1.391   1.624
  200SOL    HW1 1352   0.594   1.341   1.662
  200SOL    HW2 1353   0.669   1.486   1.655
  201SOL     OW 1354   1.824   0.192   1.227
  201SOL    HW1 1355   1.820   0.102   1.271
  201SOL    HW2 1356   1.827   0.181   1.128
  202SOL     OW 1357   0.428   0.424   0.520
  202SOL    HW1 1358   0.458   0.352   0.458
  202SOL    HW2 1359   0.389   0.384   0.603
  203SOL     OW 1360   1.705   1.487   1.104
  203SOL    HW1 1361   1.612   1.462   1.077
  203SOL    HW2 1362   1.731   1.437   1.186
  204SOL     OW 1363   0.317   0.547   1.280
  204SOL    HW1 1364   0.355   0.488   1.352
  204SOL    HW2 1365   0.357   0.521   1.192
  205SOL     OW 1366   0.812   1.586   0.687
  205SOL    HW1 1367   0.844   1.596   0.593
  205SOL    HW2 1368   0.733   1.524   0.689
  206SOL     OW 1369   1.424   0.214   1.112
  206SOL    HW1 1370   1.476   0.149   1.167
  206SOL    HW2 1371   1.375   0.277   1.173
  207SOL     OW 1372   1.001   0.034   1.154
  207SOL    HW1 1373   0.938  -0.038   1.123
  207SOL    HW2 1374   1.094  -0.002   1.154
  208SOL     OW 1375   0.770   1.330   0.301
  208SOL    HW1 1376   0.724   1.243   0.318
  208SOL    HW2 1377   0.861   1.327   0.342
  209SOL     OW 1378   0.618   1.567   1.284
  209SOL    HW1 1379   0.613   1.649   1.341
  209SOL    HW2 1380   0.707   1.564   1.239
  210SOL     OW 1381   1.352   0.052   0.168
  210SOL    HW1 1382   1.387   0.011   0.084
  210SOL    HW2 1383   1.262   0.014   0.188
  211SOL     OW 1384   1.300   0.453   0.691
  211SOL    HW1 1385   1.241   0.533   0.695
  211SOL    HW2 1386   1.315   0.418   0.784
  212SOL     OW 1387   1.593   0.221   0.882
  212SOL    HW1 1388   1.509   0.220   0.936
  212SOL    HW2 1389   1.595   0.304   0.826
  213SOL     OW 1390   0.039   1.077   0.300
  213SOL    HW1 1391   0.138   1.066   0.291
  213SOL    HW2 1392  -0.001   0.991   0.332
  214SOL     OW 1393   0.875   1.646   0.337
  214SOL    HW1 1394   0.798   1.611   0.283
  214SOL    HW2 1395   0.843   1.717   0.399
  215SOL     OW 1396   0.230   0.628   1.975
  215SOL    HW1 1397   0.137   0.626   2.012
  215SOL    HW2 1398   0.231   0.589   1.883
  216SOL     OW 1399   0.225   0.275   2.858
  216SOL    HW1 1400   0.260   0.258   2.950
  216SOL    HW2 1401   0.137   0.230   2.846
  217SOL     OW 1402   0.019   0.368   2.509
  217SOL    HW1 1403  -0.063   0.411   2.548
  217SOL    HW2 1404  -0.009   0.295   2.446
  218SOL     OW 1405   0.569   1.275   3.027
  218SOL    HW1 1406   0.476   1.268   2.990
  218SOL    HW2 1407   0.580   1.364   3.071
  219SOL     OW 1408   1.555   1.511   2.565
  219SOL    HW1 1409   1.498   1.495   2.646
  219SOL    HW2 1410   1.496   1.521   2.485
  220SOL     OW 1411   1.135   0.703   2.579
  220SOL    HW1 1412   1.192   0.781   2.554
  220SOL    HW2 1413   1.075   0.729   2.655
  221SOL     OW 1414   1.755   0.607   2.093
  221SOL    HW1 1415   1.743   0.594   1.994
  221SOL    HW2 1416   1.725   0.526   2.142
  222SOL     OW 1417   0.768   1.144   2.885
  222SOL    HW1 1418   0.690   1.161   2.945
  222SOL    HW2 1419   0.802   1.231   2.849
  223SOL     OW 1420   0.850   0.798   3.685
  223SOL    HW1 1421   0.846   0.874   3.750
  223SOL    HW2 1422   0.872   0.834   3.594
  224SOL     OW 1423   0.685   1.012   2.527
  224SOL    HW1 1424   0.754   0.996   2.597
  224SOL    HW2 1425   0.612   1.069   2.565
  225SOL     OW 1426   0.686   1.161   3.665
  225SOL    HW1 1427   0.746   1.240   3.679
  225SOL    HW2 1428   0.600   1.192   3.624
  226SOL     OW 1429   0.335   1.435   2.923
  226SOL    HW1 1430   0.257   1.404   2.870
  226SOL    HW2 1431   0.393   1.493   2.866
  227SOL     OW 1432   1.460   1.505   3.201
  227SOL    HW1 1433   1.484   1.599   3.227
  227SOL    HW2 1434   1.444   1.451   3.283
  228SOL     OW 1435   0.438   0.392   3.361
  228SOL    HW1 1436   0.520   0.336   3.370
  228SOL    HW2 1437   0.357   0.334   3.365
  229SOL     OW 1438   1.603   0.447   2.599
  229SOL    HW1 1439   1.529   0.493   2.549
  229SOL    HW2 1440   1.654   0.515   2.652
  230SOL     OW 1441   0.231   1.713   2.345
  230SOL    HW1 1442   0.265   1.790   2.399
  230SOL    HW2 1443   0.275   1.713   2.255
  231SOL     OW 1444   1.127   1.341   3.552
  231SOL    HW1 1445   1.174   1.341   3.640
  231SOL    HW2 1446   1.079   1.254   3.541
  232SOL     OW 1447   0.230   1.434   2.400
  232SOL    HW1 1448   0.204   1.530   2.400
  232SOL    HW2 1449   0.159   1.380   2.445
  233SOL     OW 1450   0.240   1.091   2.748
  233SOL    HW1 1451   0.254   1.007   2.800
  233SOL    HW2 1452   0.185   1.155   2.803
  234SOL     OW 1453   0.620   1.786   3.301
  234SOL    HW1 1454   0.528   1.769   3.336
  234SOL    HW2 1455   0.648   1.878   3.327
  235SOL     OW 1456   0.606   0.964   1.985
  235SOL    HW1 1457   0.613   1.048   1.931
  235SOL    HW2 1458   0.652   0.977   2.073
  236SOL     OW 1459   1.594   0.114   3.342
  236SOL    HW1 1460   1.576   0.181   3.270
  236SOL    HW2 1461   1.591   0.160   3.431
  237SOL     OW 1462   0.122   0.643   2.425
  237SOL    HW1 1463   0.077   0.555   2.442
  237SOL    HW2 1464   0.121   0.697   2.509
  238SOL     OW 1465   1.842   1.767   2.221
  238SOL    HW1 1466   1.896   1.738   2.301
  238SOL    HW2 1467   1.872   1.857   2.192
  239SOL     OW 1468   0.027   1.596   1.979
  239SOL    HW1 1469   0.008   1.500   2.000
  239SOL    HW2 1470  -0.006   1.654   2.054
  240SOL     OW 1471   1.689   0.922   2.474
  240SOL    HW1 1472   1.784   0.893   2.482
  240SOL    HW2 1473   1.681   0.987   2.399
  241SOL     OW 1474   1.641   1.108   2.294
  241SOL    HW1 1475   1.727   1.110   2.242
  241SOL    HW2 1476   1.655   1.155   2.382
  242SOL     OW 1477   0.113   0.737   3.459
  242SOL    HW1 1478   0.201   0.724   3.504
  242SOL    HW2 1479   0.100   0.834   3.437
  243SOL     OW 1480   0.613   1.365   2.588
  243SOL    HW1 1481   0.564   1.278   2.597
  243SOL    HW2 1482   0.590   1.408   2.501
  244SOL     OW 1483   1.293   1.228   3.285
  244SOL    HW1 1484   1.330   1.155   3.227
  244SOL    HW2 1485   1.345   1.233   3.370
  245SOL     OW 1486   0.809   0.004   2.364
  245SOL    HW1 1487   0.849   0.095   2.355
  245SOL    HW2 1488   0.709   0.012   2.370
  246SOL     OW 1489   0.197   0.976   3.126
  246SOL    HW1 1490   0.286   0.931   3.112
  246SOL    HW2 1491   0.124   0.911   3.107
  247SOL     OW 1492   1.525   0.999   2.052
  247SOL    HW1 1493   1.462   0.923   2.065
  247SOL    HW2 1494   1.573   1.017   2.138
  248SOL     OW 1495   1.187   1.792   3.478
  248SOL    HW1 1496   1.211   1.852   3.402
  248SOL    HW2 1497   1.194   1.697   3.448
  249SOL     OW 1498   0.317   0.251   3.663
  249SOL    HW1 1499   0.388   0.322   3.669
  249SOL    HW2 1500   0.229   0.290   3.691
  250SOL     OW 1501   1.466   1.417   2.815
  250SOL    HW1 1502   1.407   1.423   2.895
  250SOL    HW2 1503   1.451   1.329   2.769
  251SOL     OW 1504   1.667   1.714   2.434
  251SOL    HW1 1505   1.626   1.691   2.346
  251SOL    HW2 1506   1.649   1.640   2.499
  252SOL     OW 1507   0.598   0.729   2.132
  252SOL    HW1 1508   0.622   0.798   2.064
  252SOL    HW2 1509   0.520   0.762   2.186
  253SOL     OW 1510   1.281   0.345   2.806
  253SOL    HW1 1511   1.195   0.295   2.793
  253SOL    HW2 1512   1.343   0.291   2.862
  254SOL     OW 1513   1.576   1.662   2.169
  254SOL    HW1 1514   1.665   1.708   2.172
  254SOL    HW2 1515   1.555   1.638   2.074
  255SOL     OW 1516   0.807   0.605   3.327
  255SOL    HW1 1517   0.760   0.602   3.416
  255SOL    HW2 1518   0.756   0.550   3.261
  256SOL     OW 1519   1.394   0.469   3.536
  256SOL    HW1 1520   1.374   0.512   3.624
  256SOL    HW2 1521   1.472   0.407   3.545
  257SOL     OW 1522   0.973   0.890   3.434
  257SOL    HW1 1523   1.019   0.806   3.405
  257SOL    HW2 1524   0.917   0.924   3.359
  258SOL     OW 1525   0.991   0.410   3.104
  258SOL    HW1 1526   0.914   0.444   3.158
  258SOL    HW2 1527   0.957   0.359   3.025
  259SOL     OW 1528   1.041   0.701   2.291
  259SOL    HW1 1529   1.067   0.697   2.387
  259SOL    HW2 1530   0.956   0.650   2.277
  260SOL     OW 1531   0.076   0.811   2.651
  260SOL    HW1 1532   0.175   0.799   2.660
  260SOL    HW2 1533   0.052   0.906   2.672
  261SOL     OW 1534   0.130   1.821   3.433
  261SOL    HW1 1535   0.120   1.806   3.532
  261SOL    HW2 1536   0.044   1.857   3.397
  262SOL     OW 1537   0.865   0.348   2.057
  262SOL    HW1 1538   0.924   0.411   2.008
  262SOL    HW2 1539   0.884   0.254   2.028
  263SOL     OW 1540   1.719   0.585   3.693
  263SOL    HW1 1541   1.693   0.674   3.657
  263SOL    HW2 1542   1.717   0.517   3.620
  264SOL     OW 1543   1.362   1.144   2.407
  264SOL    HW1 1544   1.445   1.115   2.359
  264SOL    HW2 1545   1.313   1.211   2.351
  265SOL     OW 1546   0.550   0.196   2.747
  265SOL    HW1 1547   0.545   0.191   2.847
  265SOL    HW2 1548   0.552   0.292   2.718
  266SOL     OW 1549   1.008   1.456   2.339
  266SOL    HW1 1550   0.962   1.528   2.287
  266SOL    HW2 1551   1.004   1.476   2.437
  267SOL     OW 1552   0.351   1.801   2.715
  267SOL    HW1 1553   0.401   1.715   2.721
  267SOL    HW2 1554   0.416   1.878   2.712
  268SOL     OW 1555   1.795   1.066   2.735
  268SOL    HW1 1556   1.733   1.051   2.659
  268SOL    HW2 1557   1.743   1.077   2.820
  269SOL     OW 1558   1.227   1.550   3.368
  269SOL    HW1 1559   1.233   1.473   3.432
  269SOL    HW2 1560   1.175   1.524   3.288
  270SOL     OW 1561   0.321   0.943   2.104
  270SOL    HW1 1562   0.403   0.982   2.062
  270SOL    HW2 1563   0.294   0.861   2.055
  271SOL     OW 1564   1.458   0.735   2.590
  271SOL    HW1 1565   1.453   0.670   2.665
  271SOL    HW2 1566   1.538   0.794   2.603
  272SOL     OW 1567   0.461   1.266   3.589
  272SOL    HW1 1568   0.411   1.267   3.503
  272SOL    HW2 1569   0.398   1.248   3.665
  273SOL     OW 1570   1.111   1.776   2.099
  273SOL    HW1 1571   1.051   1.714   2.149
  273SOL    HW2 1572   1.142   1.732   2.014
  274SOL     OW 1573   0.202   0.285   3.360
  274SOL    HW1 1574   0.122   0.345   3.347
  274SOL    HW2 1575   0.192   0.236   3.446
  275SOL     OW 1576   1.632   1.377   1.943
  275SOL    HW1 1577   1.600   1.471   1.933
  275SOL    HW2 1578   1.556   1.314   1.931
  276SOL     OW 1579   0.464   1.743   2.185
  276SOL    HW1 1580   0.497   1.782   2.271
  276SOL    HW2 1581   0.540   1.736   2.120
  277SOL     OW 1582   1.400   0.107   2.288
  277SOL    HW1 1583   1.376   0.070   2.198
  277SOL    HW2 1584   1.499   0.123   2.292
  278SOL     OW 1585   0.249   1.785   3.103
  278SOL    HW1 1586   0.306   1.720   3.153
  278SOL    HW2 1587   0.233   1.752   3.010
  279SOL     OW 1588   0.940   1.698   2.766
  279SOL    HW1 1589   1.020   1.641   2.787
  279SOL    HW2 1590   0.891   1.658   2.689
  280SOL     OW 1591   0.382   0.700   2.342
  280SOL    HW1 1592   0.427   0.610   2.339
  280SOL    HW2 1593   0.288   0.689   2.375
  281SOL     OW 1594   1.547   0.222   3.591
  281SOL    HW1 1595   1.542   0.259   3.683
  281SOL    HW2 1596   1.475   0.153   3.579
  282SOL     OW 1597   0.614   0.122   1.979
  282SOL    HW1 1598   0.712   0.100   1.986
  282SOL    HW2 1599   0.583   0.105   1.886
  283SOL     OW 1600   0.781   0.264   3.611
  283SOL    HW1 1601   0.848   0.203   3.654
  283SOL    HW2 1602   0.708   0.283   3.676
  284SOL     OW 1603   0.888   1.514   3.057
  284SOL    HW1 1604   0.865   1.489   2.963
  284SOL    HW2 1605   0.949   1.445   3.096
  285SOL     OW 1606   1.351   0.590   3.295
  285SOL    HW1 1607   1.379   0.547   3.380
  285SOL    HW2 1608   1.376   0.686   3.296
  286SOL     OW 1609   0.803   1.402   2.786
  286SOL    HW1 1610   0.893   1.416   2.744
  286SOL    HW2 1611   0.732   1.404   2.715
  287SOL     OW 1612   0.922   0.503   2.761
  287SOL    HW1 1613   0.897   0.494   2.665
  287SOL    HW2 1614   0.970   0.421   2.792
  288SOL     OW 1615   0.539   0.064   2.374
  288SOL    HW1 1616   0.458   0.065   2.432
  288SOL    HW2 1617   0.542   0.147   2.319
  289SOL     OW 1618   1.434   1.188   1.903
  289SOL    HW1 1619   1.466   1.112   1.960
  289SOL    HW2 1620   1.342   1.215   1.933
  290SOL     OW 1621   0.297   0.035   2.033
  290SOL    HW1 1622   0.346   0.119   2.012
  290SOL    HW2 1623   0.359  -0.030   2.078
  291SOL     OW 1624   0.935   0.236   2.342
  291SOL    HW1 1625   0.887   0.277   2.264
  291SOL    HW2 1626   1.034   0.234   2.323
  292SOL     OW 1627   1.076   0.683   3.326
  292SOL    HW1 1628   0.996   0.622   3.329
  292SOL    HW2 1629   1.157   0.630   3.302
  293SOL     OW 1630   1.227   1.570   2.655
  293SOL    HW1 1631   1.248   1.644   2.590
  293SOL    HW2 1632   1.295   1.570   2.728
  294SOL     OW 1633   0.459   1.152   2.603
  294SOL    HW1 1634   0.388   1.125   2.668
  294SOL    HW2 1635   0.433   1.124   2.510
  295SOL     OW 1636   1.271   1.797   2.453
  295SOL    HW1 1637   1.315   1.861   2.389
  295SOL    HW2 1638   1.221   1.849   2.523
  296SOL     OW 1639   1.032   0.549   1.878
  296SOL    HW1 1640   0.991   0.631   1.839
  296SOL    HW2 1641   1.096   0.575   1.951
  297SOL     OW 1642   0.078   0.556   3.248
  297SOL    HW1 1643   0.170   0.555   3.207
  297SOL    HW2 1644   0.072   0.630   3.315
  298SOL     OW 1645   0.561   0.222   3.009
  298SOL    HW1 1646   0.599   0.138   3.046
  298SOL    HW2 1647   0.473   0.241   3.053
  299SOL     OW 1648   0.866   0.454   2.504
  299SOL    HW1 1649   0.834   0.526   2.442
  299SOL    HW2 1650   0.890   0.373   2.451
  300SOL     OW 1651   1.017   0.039   2.615
  300SOL    HW1 1652   0.945   0.044   2.546
  300SOL    HW2 1653   0.993  -0.030   2.684
  301SOL     OW 1654   1.429   1.173   2.729
  301SOL    HW1 1655   1.374   1.089   2.722
  301SOL    HW2 1656   1.455   1.202   2.637
  302SOL     OW 1657   1.466   0.590   2.854
  302SOL    HW1 1658   1.436   0.495   2.861
  302SOL    HW2 1659   1.539   0.606   2.920
  303SOL     OW 1660   1.857   0.833   2.239
  303SOL    HW1 1661   1.899   0.769   2.303
  303SOL    HW2 1662   1.819   0.782   2.161
  304SOL     OW 1663   0.488   1.385   2.036
  304SOL    HW1 1664   0.401   1.370   2.083
  304SOL    HW2 1665   0.471   1.411   1.941
  305SOL     OW 1666   1.664   1.280   2.519
  305SOL    HW1 1667   1.763   1.288   2.533
  305SOL    HW2 1668   1.619   1.364   2.550
  306SOL     OW 1669   1.390   0.575   1.940
  306SOL    HW1 1670   1.336   0.554   2.021
  306SOL    HW2 1671   1.481   0.534   1.949
  307SOL     OW 1672   0.527   0.256   2.190
  307SOL    HW1 1673   0.554   0.197   2.115
  307SOL    HW2 1674   0.527   0.351   2.159
  308SOL     OW 1675   1.754   1.223   3.450
  308SOL    HW1 1676   1.845   1.184   3.437
  308SOL    HW2 1677   1.762   1.319   3.474
  309SOL     OW 1678   1.064   1.347   3.202
  309SOL    HW1 1679   0.984   1.324   3.257
  309SOL    HW2 1680   1.147   1.321   3.251
  310SOL     OW 1681   1.592   1.629   3.487
  310SOL    HW1 1682   1.619   1.663   3.397
  310SOL    HW2 1683   1.671   1.591   3.533
  311SOL     OW 1684   1.111   1.195   2.962
  311SOL    HW1 1685   1.071   1.239   3.043
  311SOL    HW2 1686   1.070   1.232   2.879
  312SOL     OW 1687   1.638   1.099   2.941
  312SOL    HW1 1688   1.643   1.180   3.000
  312SOL    HW2 1689   1.552   1.101   2.890
  313SOL     OW 1690   0.915   0.089   3.264
  313SOL    HW1 1691   0.940   0.069   3.169
  313SOL    HW2 1692   0.987   0.145   3.306
  314SOL     OW 1693   0.980   1.116   3.581
  314SOL    HW1 1694   0.881   1.122   3.591
  314SOL    HW2 1695   1.003   1.036   3.525
  315SOL     OW 1696   0.705   1.050   2.230
  315SOL    HW1 1697   0.691   1.057   2.329
  315SOL    HW2 1698   0.789   0.999   2.212
  316SOL     OW 1699   0.410   0.813   3.113
  316SOL    HW1 1700   0.496   0.825   3.163
  316SOL    HW2 1701   0.368   0.726   3.140
  317SOL     OW 1702   1.274   0.386   3.124
  317SOL    HW1 1703   1.295   0.460   3.188
  317SOL    HW2 1704   1.185   0.403   3.081
  318SOL     OW 1705   0.064   1.564   3.193
  318SOL    HW1 1706   0.018   1.646   3.159
  318SOL    HW2 1707   0.162   1.583   3.202
  319SOL     OW 1708   0.367   1.100   2.363
  319SOL    HW1 1709   0.360   1.183   2.307
  319SOL    HW2 1710   0.371   1.020   2.303
  320SOL     OW 1711   0.566   0.537   2.727
  320SOL    HW1 1712   0.578   0.603   2.653
  320SOL    HW2 1713   0.612   0.571   2.810
  321SOL     OW 1714   1.252   1.348   2.250
  321SOL    HW1 1715   1.302   1.425   2.290
  321SOL    HW2 1716   1.157   1.350   2.282
  322SOL     OW 1717   1.272   1.445   3.004
  322SOL    HW1 1718   1.319   1.458   3.091
  322SOL    HW2 1719   1.206   1.371   3.013
  323SOL     OW 1720   1.582   0.639   2.334
  323SOL    HW1 1721   1.551   0.700   2.407
  323SOL    HW2 1722   1.632   0.691   2.265
  324SOL     OW 1723   0.354   1.510   3.191
  324SOL    HW1 1724   0.333   1.466   3.104
  324SOL    HW2 1725   0.451   1.536   3.194
  325SOL     OW 1726   0.402   0.751   3.460
  325SOL    HW1 1727   0.470   0.806   3.413
  325SOL    HW2 1728   0.442   0.663   3.487
  326SOL     OW 1729   1.587   0.779   3.532
  326SOL    HW1 1730   1.495   0.817   3.527
  326SOL    HW2 1731   1.647   0.826   3.467
  327SOL     OW 1732   1.013   0.105   3.632
  327SOL    HW1 1733   1.019   0.190   3.580
  327SOL    HW2 1734   1.045   0.029   3.575
  328SOL     OW 1735   0.504   0.050   3.602
  328SOL    HW1 1736   0.462  -0.007   3.532
  328SOL    HW2 1737   0.438   0.119   3.634
  329SOL     OW 1738   0.573   0.870   2.891
  329SOL    HW1 1739   0.617   0.959   2.882
  329SOL    HW2 1740   0.510   0.870   2.968
  330SOL     OW 1741   1.360   0.862   2.907
  330SOL    HW1 1742   1.285   0.862   2.841
  330SOL    HW2 1743   1.397   0.770   2.916
  331SOL     OW 1744   1.209   0.525   2.137
  331SOL    HW1 1745   1.222   0.441   2.191
  331SOL    HW2 1746   1.180   0.599   2.197
  332SOL     OW 1747   0.307   0.213   3.093
  332SOL    HW1 1748   0.284   0.250   3.183
  332SOL    HW2 1749   0.277   0.118   3.087
  333SOL     OW 1750   0.037   1.310   3.144
  333SOL    HW1 1751   0.090   1.261   3.212
  333SOL    HW2 1752   0.059   1.408   3.149
  334SOL     OW 1753   0.732   0.634   2.926
  334SOL    HW1 1754   0.791   0.608   2.850
  334SOL    HW2 1755   0.704   0.730   2.915
  335SOL     OW 1756   1.728   0.935   3.716
  335SOL    HW1 1757   1.682   0.928   3.627
  335SOL    HW2 1758   1.666   0.979   3.782
  336SOL     OW 1759   0.307   0.063   2.480
  336SOL    HW1 1760   0.296   0.157   2.513
  336SOL    HW2 1761   0.302   0.000   2.557
  337SOL     OW 1762   1.622   0.367   2.236
  337SOL    HW1 1763   1.624   0.291   2.300
  337SOL    HW2 1764   1.574   0.444   2.276
  338SOL     OW 1765   1.023   0.766   2.828
  338SOL    HW1 1766   1.038   0.787   2.924
  338SOL    HW2 1767   0.993   0.671   2.819
  339SOL     OW 1768   0.980   1.573   3.562
  339SOL    HW1 1769   0.960   1.617   3.474
  339SOL    HW2 1770   1.019   1.482   3.546
  340SOL     OW 1771   1.859   1.518   3.467
  340SOL    HW1 1772   1.873   1.545   3.372
  340SOL    HW2 1773   1.942   1.540   3.520
  341SOL     OW 1774   0.350   0.898   3.666
  341SOL    HW1 1775   0.426   0.942   3.714
  341SOL    HW2 1776   0.385   0.851   3.584
  342SOL     OW 1777   1.540   0.274   1.987
  342SOL    HW1 1778   1.479   0.199   2.010
  342SOL    HW2 1779   1.562   0.326   2.070
  343SOL     OW 1780   1.303   0.838   1.904
  343SOL    HW1 1781   1.337   0.745   1.919
  343SOL    HW2 1782   1.321   0.865   1.809
  344SOL     OW 1783   1.068   1.333   2.711
  344SOL    HW1 1784   1.075   1.249   2.656
  344SOL    HW2 1785   1.130   1.402   2.675
  345SOL     OW 1786   0.319   0.810   2.811
  345SOL    HW1 1787   0.412   0.846   2.816
  345SOL    HW2 1788   0.313   0.725   2.863
  346SOL     OW 1789   0.339   0.509   2.868
  346SOL    HW1 1790   0.287   0.426   2.851
  346SOL    HW2 1791   0.416   0.514   2.804
  347SOL     OW 1792   1.138   0.380   3.540
  347SOL    HW1 1793   1.093   0.443   3.604
  347SOL    HW2 1794   1.231   0.411   3.523
  348SOL     OW 1795   1.160   0.207   3.339
  348SOL    HW1 1796   1.160   0.271   3.416
  348SOL    HW2 1797   1.188   0.255   3.256
  349SOL     OW 1798   0.008   1.326   2.062
  349SOL    HW1 1799  -0.085   1.347   2.031
  349SOL    HW2 1800   0.018   1.227   2.075
  350SOL     OW 1801   0.088   1.801   2.789
  350SOL    HW1 1802   0.046   1.715   2.762
  350SOL    HW2 1803   0.182   1.804   2.755
  351SOL     OW 1804   0.504   1.568   2.772
  351SOL    HW1 1805   0.570   1.642   2.781
  351SOL    HW2 1806   0.548   1.489   2.730
  352SOL     OW 1807   1.002   0.796   3.100
  352SOL    HW1 1808   1.043   0.764   3.186
  352SOL    HW2 1809   0.906   0.769   3.097
  353SOL     OW 1810   0.040   0.544   2.976
  353SOL    HW1 1811   0.125   0.511   2.935
  353SOL    HW2 1812   0.053   0.559   3.074
  354SOL     OW 1813   0.189   0.520   3.584
  354SOL    HW1 1814   0.248   0.480   3.514
  354SOL    HW2 1815   0.131   0.591   3.543
  355SOL     OW 1816   1.369   0.950   3.522
  355SOL    HW1 1817   1.408   1.039   3.542
  355SOL    HW2 1818   1.379   0.930   3.425
  356SOL     OW 1819   0.815   0.572   2.187
  356SOL    HW1 1820   0.822   0.483   2.141
  356SOL    HW2 1821   0.721   0.606   2.179
  357SOL     OW 1822   1.657   0.604   3.068
  357SOL    HW1 1823   1.619   0.535   3.130
  357SOL    HW2 1824   1.739   0.568   3.024
  358SOL     OW 1825   0.252   1.564   3.606
  358SOL    HW1 1826   0.222   1.621   3.682
  358SOL    HW2 1827   0.245   1.467   3.632
  359SOL     OW 1828   0.671   0.464   3.131
  359SOL    HW1 1829   0.637   0.375   3.101
  359SOL    HW2 1830   0.697   0.518   3.051
  360SOL     OW 1831   0.930   1.678   3.327
  360SOL    HW1 1832   0.906   1.660   3.232
  360SOL    HW2 1833   0.960   1.772   3.337
  361SOL     OW 1834   0.473   0.500   2.053
  361SOL    HW1 1835   0.534   0.580   2.057
  361SOL    HW2 1836   0.378   0.531   2.060
  362SOL     OW 1837   0.159   1.137   3.328
  362SOL    HW1 1838   0.181   1.076   3.404
  362SOL    HW2 1839   0.169   1.088   3.242
  363SOL     OW 1840   1.347   1.059   3.096
  363SOL    HW1 1841   1.371   0.996   3.022
  363SOL    HW2 1842   1.257   1.099   3.078
  364SOL     OW 1843   1.302   0.855   2.171
  364SOL    HW1 1844   1.216   0.824   2.213
  364SOL    HW2 1845   1.298   0.841   2.072
  365SOL     OW 1846   1.759   1.747   3.016
  365SOL    HW1 1847   1.820   1.777   2.943
  365SOL    HW2 1848   1.721   1.658   2.994
  366SOL     OW 1849   1.252   1.731   2.990
  366SOL    HW1 1850   1.336   1.736   2.936
  366SOL    HW2 1851   1.229   1.635   3.008
  367SOL     OW 1852   0.083   1.258   2.884
  367SOL    HW1 1853   0.078   1.257   2.984
  367SOL    HW2 1854   0.000   1.217   2.846
  368SOL     OW 1855   0.688   1.662   3.578
  368SOL    HW1 1856   0.632   1.743   3.587
  368SOL    HW2 1857   0.740   1.666   3.492
  369SOL     OW 1858   1.726   0.135   2.385
  369SOL    HW1 1859   1.799   0.118   2.318
  369SOL    HW2 1860   1.695   0.048   2.423
  370SOL     OW 1861   1.388   1.573   2.339
  370SOL    HW1 1862   1.455   1.585   2.265
  370SOL    HW2 1863   1.348   1.662   2.362
  371SOL     OW 1864   0.130   1.794   3.713
  371SOL    HW1 1865   0.089   1.720   3.766
  371SOL    HW2 1866   0.194   1.845   3.771
  372SOL     OW 1867   1.280   0.927   2.534
  372SOL    HW1 1868   1.340   0.846   2.536
  372SOL    HW2 1869   1.320   0.996   2.474
  373SOL     OW 1870   0.830   1.273   3.284
  373SOL    HW1 1871   0.825   1.306   3.379
  373SOL    HW2 1872   0.744   1.292   3.238
  374SOL     OW 1873   0.672   1.616   2.016
  374SOL    HW1 1874   0.681   1.626   1.917
  374SOL    HW2 1875   0.632   1.527   2.037
  375SOL     OW 1876   1.650   1.720   3.256
  375SOL    HW1 1877   1.703   1.730   3.172
  375SOL    HW2 1878   1.623   1.810   3.290
  376SOL     OW 1879   1.841   0.175   2.825
  376SOL    HW1 1880   1.880   0.090   2.789
  376SOL    HW2 1881   1.743   0.177   2.806
  377SOL     OW 1882   0.263   0.326   2.582
  377SOL    HW1 1883   0.184   0.377   2.548
  377SOL    HW2 1884   0.254   0.311   2.680
  378SOL     OW 1885   1.194   1.612   1.893
  378SOL    HW1 1886   1.200   1.519   1.930
  378SOL    HW2 1887   1.135   1.612   1.813
  379SOL     OW 1888   0.822   1.002   3.234
  379SOL    HW1 1889   0.862   1.001   3.142
  379SOL    HW2 1890   0.832   1.094   3.274
  380SOL     OW 1891   0.916   0.910   2.153
  380SOL    HW1 1892   0.979   0.948   2.085
  380SOL    HW2 1893   0.956   0.827   2.192
  381SOL     OW 1894   1.504   1.607   1.906
  381SOL    HW1 1895   1.412   1.644   1.913
  381SOL    HW2 1896   1.542   1.627   1.816
  382SOL     OW 1897   0.372   1.288   3.352
  382SOL    HW1 1898   0.359   1.381   3.318
  382SOL    HW2 1899   0.288   1.236   3.339
  383SOL     OW 1900   1.614   1.292   3.151
  383SOL    HW1 1901   1.674   1.295   3.231
  383SOL    HW2 1902   1.539   1.356   3.164
  384SOL     OW 1903   1.039   1.098   2.558
  384SOL    HW1 1904   0.969   1.051   2.612
  384SOL    HW2 1905   1.098   1.030   2.515
  385SOL     OW 1906   1.014   0.236   2.833
  385SOL    HW1 1907   1.006   0.200   2.740
  385SOL    HW2 1908   1.012   0.160   2.898
  386SOL     OW 1909   0.590   1.487   2.353
  386SOL    HW1 1910   0.632   1.429   2.283
  386SOL    HW2 1911   0.546   1.566   2.309
  387SOL     OW 1912   1.709   0.385   3.243
  387SOL    HW1 1913   1.782   0.454   3.247
  387SOL    HW2 1914   1.737   0.310   3.184
  388SOL     OW 1915   0.255   1.348   2.152
  388SOL    HW1 1916   0.159   1.349   2.125
  388SOL    HW2 1917   0.267   1.401   2.236
  389SOL     OW 1918   0.105   1.013   3.588
  389SOL    HW1 1919   0.028   0.980   3.642
  389SOL    HW2 1920   0.190   0.983   3.630
  390SOL     OW 1921   0.672   0.203   3.351
  390SOL    HW1 1922   0.762   0.187   3.311
  390SOL    HW2 1923   0.680   0.208   3.450
  391SOL     OW 1924   0.075   0.345   1.895
  391SOL    HW1 1925  -0.017   0.317   1.866
  391SOL    HW2 1926   0.106   0.422   1.839
  392SOL     OW 1927   1.440   0.856   3.260
  392SOL    HW1 1928   1.383   0.908   3.197
  392SOL    HW2 1929   1.536   0.868   3.236
  393SOL     OW 1930   0.072   0.166   2.180
  393SOL    HW1 1931   0.055   0.249   2.126
  393SOL    HW2 1932   0.162   0.129   2.158
  394SOL     OW 1933   1.183   1.335   1.981
  394SOL    HW1 1934   1.084   1.324   1.983
  394SOL    HW2 1935   1.217   1.350   2.074
  395SOL     OW 1936   0.613   0.842   3.293
  395SOL    HW1 1937   0.669   0.923   3.276
  395SOL    HW2 1938   0.672   0.762   3.296
  396SOL     OW 1939   1.493   1.767   2.821
  396SOL    HW1 1940   1.526   1.831   2.752
  396SOL    HW2 1941   1.559   1.761   2.896
  397SOL     OW 1942   0.716   0.565   3.570
  397SOL    HW1 1943   0.735   0.630   3.644
  397SOL    HW2 1944   0.776   0.485   3.579
  398SOL     OW 1945   1.450   1.220   3.495
  398SOL    HW1 1946   1.441   1.210   3.594
  398SOL    HW2 1947   1.546   1.213   3.469
  399SOL     OW 1948   0.390   1.741   3.422
  399SOL    HW1 1949   0.299   1.782   3.420
  399SOL    HW2 1950   0.383   1.647   3.454
  400SOL     OW 1951   1.674   0.883   3.116
  400SOL    HW1 1952   1.647   0.794   3.079
  400SOL    HW2 1953   1.675   0.951   3.043
  401SOL     OW 1954   1.225   0.325   2.311
  401SOL    HW1 1955   1.290   0.251   2.300
  401SOL    HW2 1956   1.245   0.375   2.395
  402SOL     OW 1957   0.594   0.745   2.514
  402SOL    HW1 1958   0.644   0.830   2.495
  402SOL    HW2 1959   0.506   0.747   2.466
  403SOL     OW 1960   1.777   0.342   3.504
  403SOL    HW1 1961   1.760   0.373   3.410
  403SOL    HW2 1962   1.693   0.305   3.542
  404SOL     OW 1963   1.730   0.934   3.379
  404SOL    HW1 1964   1.768   1.025   3.394
  404SOL    HW2 1965   1.722   0.917   3.280
  405SOL     OW 1966   0.859   1.374   1.878
  405SOL    HW1 1967   0.813   1.389   1.966
  405SOL    HW2 1968   0.903   1.459   1.848
  406SOL     OW 1969   0.661   1.790   2.815
  406SOL    HW1 1970   0.615   1.878   2.802
  406SOL    HW2 1971   0.760   1.802   2.808
  407SOL     OW 1972   0.859   0.956   2.723
  407SOL    HW1 1973   0.913   0.887   2.771
  407SOL    HW2 1974   0.827   1.025   2.789
  408SOL     OW 1975   1.083   0.984   1.949
  408SOL    HW1 1976   1.060   1.037   1.867
  408SOL    HW2 1977   1.164   0.928   1.930
  409SOL     OW 1978   1.861   1.569   2.713
  409SOL    HW1 1979   1.790   1.557   2.643
  409SOL    HW2 1980   1.862   1.490   2.773
  410SOL     OW 1981   0.221   1.314   3.706
  410SOL    HW1 1982   0.156   1.241   3.685
  410SOL    HW2 1983   0.225   1.328   3.804
  411SOL     OW 1984   0.079   1.240   2.515
  411SOL    HW1 1985   0.078   1.193   2.603
  411SOL    HW2 1986   0.161   1.212   2.464
  412SOL     OW 1987   0.672   1.391   3.486
  412SOL    HW1 1988   0.594   1.341   3.524
  412SOL    HW2 1989   0.669   1.486   3.517
  413SOL     OW 1990   1.824   0.192   3.089
  413SOL    HW1 1991   1.820   0.102   3.133
  413SOL    HW2 1992   1.827   0.181   2.990
  414SOL     OW 1993   0.428   0.424   2.382
  414SOL    HW1 1994   0.458   0.352   2.320
  414SOL    HW2 1995   0.389   0.384   2.465
  415SOL     OW 1996   1.705   1.487   2.966
  415SOL    HW1 1997   1.612   1.462   2.939
  415SOL    HW2 1998   1.731   1.437   3.048
  416SOL     OW 1999   0.317   0.547   3.142
  416SOL    HW1 2000   0.355   0.488   3.214
  416SOL    HW2 2001   0.357   0.521   3.054
  417SOL     OW 2002   0.812   1.586   2.549
  417SOL    HW1 2003   0.844   1.596   2.455
  417SOL    HW2 2004   0.733   1.524   2.551
  418SOL     OW 2005   1.424   0.214   2.974
  418SOL    HW1 2006   1.476   0.149   3.029
  418SOL    HW2 2007   1.375   0.277   3.035
  419SOL     OW 2008   1.001   0.034   3.016
  419SOL    HW1 2009   0.938  -0.038   2.985
  419SOL    HW2 2010   1.094  -0.002   3.016
  420SOL     OW 2011   0.770   1.330   2.163
  420SOL    HW1 2012   0.724   1.243   2.180
  420SOL    HW2 2013   0.861   1.327   2.204
  421SOL     OW 2014   0.618   1.567   3.146
  421SOL    HW1 2015   0.613   1.649   3.203
  421SOL    HW2 2016   0.707   1.564   3.101
  422SOL     OW 2017   1.352   0.052   2.030
  422SOL    HW1 2018   1.387   0.011   1.946
  422SOL    HW2 2019   1.262   0.014   2.050
  423SOL     OW 2020   1.300   0.453   2.553
  423SOL    HW1 2021   1.241   0.533   2.557
  423SOL    HW2 2022   1.315   0.418   2.646
  424SOL     OW 2023   1.593   0.221   2.744
  424SOL    HW1 2024   1.509   0.220   2.798
  424SOL    HW2 2025   1.595   0.304   2.688
  425SOL     OW 2026   0.039   1.077   2.162
  425SOL    HW1 2027   0.138   1.066   2.153
  425SOL    HW2 2028  -0.001   0.991   2.194
  426SOL     OW 2029   0.875   1.646   2.199
  426SOL    HW1 2030   0.798   1.611   2.145
  426SOL    HW2 2031   0.843   1.717   2.261
  427SOL     OW 2032   0.230   0.628   3.837
  427SOL    HW1 2033   0.137   0.626   3.874
  427SOL    HW2 2034   0.231   0.589   3.745
  428SOL     OW 2035   0.225   0.275   4.720
  428SOL    HW1 2036   0.260   0.258   4.812
  428SOL    HW2 2037   0.137   0.230   4.708
  429SOL     OW 2038   0.019   0.368   4.371
  429SOL    HW1 2039  -0.063   0.411   4.410
  429SOL    HW2 2040  -0.009   0.295   4.308
  430SOL     OW 2041   0.569   1.275   4.889
  430SOL    HW1 2042   0.476   1.268   4.852
  430SOL    HW2 2043   0.580   1.364   4.933
  431SOL     OW 2044   1.555   1.511   4.427
  431SOL    HW1 2045   1.498   1.495   4.508
  431SOL    HW2 2046   1.496   1.521   4.347
  432SOL     OW 2047   1.135   0.703   4.441
  432SOL    HW1 2048   1.192   0.781   4.416
  432SOL    HW2 2049   1.075   0.729   4.517
  433SOL     OW 2050   1.755   0.607   3.955
  433SOL    HW1 2051   1.743   0.594   3.856
  433SOL    HW2 2052   1.725   0.526   4.004
  434SOL     OW 2053   0.768   1.144   4.747
  434SOL    HW1 2054   0.690   1.161   4.807
  434SOL    HW2 2055   0.802   1.231   4.711
  435SOL     OW 2056   0.850   0.798   5.547
  435SOL    HW1 2057   0.846   0.874   5.612
  435SOL    HW2 2058   0.872   0.834   5.456
  436SOL     OW 2059   0.685   1.012   4.389
  436SOL    HW1 2060   0.754   0.996   4.459
  436SOL    HW2 2061   0.612   1.069   4.427
  437SOL     OW 2062   0.686   1.161   5.527
  437SOL    HW1 2063   0.746   1.240   5.541
  437SOL    HW2 2064   0.600   1.192   5.486
  438SOL     OW 2065   0.335   1.435   4.785
  438SOL    HW1 2066   0.257   1.404   4.732
  438SOL    HW2 2067   0.393   1.493   4.728
  439SOL     OW 2068   1.460   1.505   5.063
  439SOL    HW1 2069   1.484   1.599   5.089
  439SOL    HW2 2070   1.444   1.451   5.145
  440SOL     OW 2071   0.438   0.392   5.223
  440SOL    HW1 2072   0.520   0.336   5.232
  440SOL    HW2 2073   0.357   0.334   5.227
  441SOL     OW 2074   1.603   0.447   4.461
  441SOL    HW1 2075   1.529   0.493   4.411
  441SOL    HW2 2076   1.654   0.515   4.514
  442SOL     OW 2077   0.231   1.713   4.207
  442SOL    HW1 2078   0.265   1.790   4.261
  442SOL    HW2 2079   0.275   1.713   4.117
  443SOL     OW 2080   1.127   1.341   5.414
  443SOL    HW1 2081   1.174   1.341   5.502
  443SOL    HW2 2082   1.079   1.254   5.403
  444SOL     OW 2083   0.230   1.434   4.262
  444SOL    HW1 2084   0.204   1.530   4.262
  444SOL    HW2 2085   0.159   1.380   4.307
  445SOL     OW 2086   0.240   1.091   4.610
  445SOL    HW1 2087   0.254   1.007   4.662
  445SOL    HW2 2088   0.185   1.155   4.665
  446SOL     OW 2089   0.620   1.786   5.163
  446SOL    HW1 2090   0.528   1.769   5.198
  446SOL    HW2 2091   0.648   1.878   5.189
  447SOL     OW 2092   0.606   0.964   3.847
  447SOL    HW1 2093   0.613   1.048   3.793
  447SOL    HW2 2094   0.652   0.977   3.935
  448SOL     OW 2095   1.594   0.114   5.204
  448SOL    HW1 2096   1.576   0.181   5.132
  448SOL    HW2 2097   1.591   0.160   5.293
  449SOL     OW 2098   0.122   0.643   4.287
  449SOL    HW1 2099   0.077   0.555   4.304
  449SOL    HW2 2100   0.121   0.697   4.371
  450SOL     OW 2101   1.842   1.767   4.083
  450SOL    HW1 2102   1.896   1.738   4.163
  450SOL    HW2 2103   1.872   1.857   4.054
  451SOL     OW 2104   0.027   1.596   3.841
  451SOL    HW1 2105   0.008   1.500   3.862
  451SOL    HW2 2106  -0.006   1.654   3.916
  452SOL     OW 2107   1.689   0.922   4.336
  452SOL    HW1 2108   1.784   0.893   4.344
  452SOL    HW2 2109   1.681   0.987   4.261
  453SOL     OW 2110   1.641   1.108   4.156
  453SOL    HW1 2111   1.727   1.110   4.104
  453SOL    HW2 2112   1.655   1.155   4.244
  454SOL     OW 2113   0.113   0.737   5.321
  454SOL    HW1 2114   0.201   0.724   5.366
  454SOL    HW2 2115   0.100   0.834   5.299
  455SOL     OW 2116   0.613   1.365   4.450
  455SOL    HW1 2117   0.564   1.278   4.459
  455SOL    HW2 2118   0.590   1.408   4.363
  456SOL     OW 2119   1.293   1.228   5.147
  456SOL    HW1 2120   1.330   1.155   5.089
  456SOL    HW2 2121   1.345   1.233   5.232
  457SOL     OW 2122   0.809   0.004   4.226
  457SOL    HW1 2123   0.849   0.095   4.217
  457SOL    HW2 2124   0.709   0.012   4.232
  458SOL     OW 2125   0.197   0.976   4.988
  458SOL    HW1 2126   0.286   0.931   4.974
  458SOL    HW2 2127   0.124   0.911   4.969
  459SOL     OW 2128   1.525   0.999   3.914
  459SOL    HW1 2129   1.462   0.923   3.927
  459SOL    HW2 2130   1.573   1.017   4.000
  460SOL     OW 2131   1.187   1.792   5.340
  460SOL    HW1 2132   1.211   1.852   5.264
  460SOL    HW2 2133   1.194   1.697   5.310
  461SOL     OW 2134   0.317   0.251   5.525
  461SOL    HW1 2135   0.388   0.322   5.531
  461SOL    HW2 2136   0.229   0.290   5.553
  462SOL     OW 2137   1.466   1.417   4.677
  462SOL    HW1 2138   1.407   1.423   4.757
  462SOL    HW2 2139   1.451   1.329   4.631
  463SOL     OW 2140   1.667   1.714   4.296
  463SOL    HW1 2141   1.626   1.691   4.208
  463SOL    HW2 2142   1.649   1.640   4.361
  464SOL     OW 2143   0.598   0.729   3.994
  464SOL    HW1 2144   0.622   0.798   3.926
  464SOL    HW2 2145   0.520   0.762   4.048
  465SOL     OW 2146   1.281   0.345   4.668
  465SOL    HW1 2147   1.195   0.295   4.655
  465SOL    HW2 2148   1.343   0.291   4.724
  466SOL     OW 2149   1.576   1.662   4.031
  466SOL    HW1 2150   1.665   1.708   4.034
  466SOL    HW2 2151   1.555   1.638   3.936
  467SOL     OW 2152   0.807   0.605   5.189
  467SOL    HW1 2153   0.760   0.602   5.278
  467SOL    HW2 2154   0.756   0.550   5.123
  468SOL     OW 2155   1.394   0.469   5.398
  468SOL    HW1 2156   1.374   0.512   5.486
  468SOL    HW2 2157   1.472   0.407   5.407
  469SOL     OW 2158   0.973   0.890   5.296
  469SOL    HW1 2159   1.019   0.806   5.267
  469SOL    HW2 2160   0.917   0.924   5.221
  470SOL     OW 2161   0.991   0.410   4.966
  470SOL    HW1 2162   0.914   0.444   5.020
  470SOL    HW2 2163   0.957   0.359   4.887
  471SOL     OW 2164   1.041   0.701   4.153
  471SOL    HW1 2165   1.067   0.697   4.249
  471SOL    HW2 2166   0.956   0.650   4.139
  472SOL     OW 2167   0.076   0.811   4.513
  472SOL    HW1 2168   0.175   0.799   4.522
  472SOL    HW2 2169   0.052   0.906   4.534
  473SOL     OW 2170   0.130   1.821   5.295
  473SOL    HW1 2171   0.120   1.806   5.394
  473SOL    HW2 2172   0.044   1.857   5.259
  474SOL     OW 2173   0.865   0.348   3.919
  474SOL    HW1 2174   0.924   0.411   3.870
  474SOL    HW2 2175   0.884   0.254   3.890
  475SOL     OW 2176   1.719   0.585   5.555
  475SOL    HW1 2177   1.693   0.674   5.519
  475SOL    HW2 2178   1.717   0.517   5.482
  476SOL     OW 2179   1.362   1.144   4.269
  476SOL    HW1 2180   1.445   1.115   4.221
  476SOL    HW2 2181   1.313   1.211   4.213
  477SOL     OW 2182   0.550   0.196   4.609
  477SOL    HW1 2183   0.545   0.191   4.709
  477SOL    HW2 2184   0.552   0.292   4.580
  478SOL     OW 2185   1.008   1.456   4.201
  478SOL    HW1 2186   0.962   1.528   4.149
  478SOL    HW2 2187   1.004   1.476   4.299
  479SOL     OW 2188   0.351   1.801   4.577
  479SOL    HW1 2189   0.401   1.715   4.583
  479SOL    HW2 2190   0.416   1.878   4.574
  480SOL     OW 2191   1.795   1.066   4.597
  480SOL    HW1 2192   1.733   1.051   4.521
  480SOL    HW2 2193   1.743   1.077   4.682
  481SOL     OW 2194   1.227   1.550   5.230
  481SOL    HW1 2195   1.233   1.473   5.294
  481SOL    HW2 2196   1.175   1.524   5.150
  482SOL     OW 2197   0.321   0.943   3.966
  482SOL    HW1 2198   0.403   0.982   3.924
  482SOL    HW2 2199   0.294   0.861   3.917
  483SOL     OW 2200   1.458   0.735   4.452
  483SOL    HW1 2201   1.453   0.670   4.527
  483SOL    HW2 2202   1.538   0.794   4.465
  484SOL     OW 2203   0.461   1.266   5.451
  484SOL    HW1 2204   0.411   1.267   5.365
  484SOL    HW2 2205   0.398   1.248   5.527
  485SOL     OW 2206   1.111   1.776   3.961
  485SOL    HW1 2207   1.051   1.714   4.011
  485SOL    HW2 2208   1.142   1.732   3.876
  486SOL     OW 2209   0.202   0.285   5.222
  486SOL    HW1 2210   0.122   0.345   5.209
  486SOL    HW2 2211   0.192   0.236   5.308
  487SOL     OW 2212   1.632   1.377   3.805
  487SOL    HW1 2213   1.600   1.471   3.795
  487SOL    HW2 2214   1.556   1.314   3.793
  488SOL     OW 2215   0.464   1.743   4.047
  488SOL    HW1 2216   0.497   1.782   4.133
  488SOL    HW2 2217   0.540   1.736   3.982
  489SOL     OW 2218   1.400   0.107   4.150
  489SOL    HW1 2219   1.376   0.070   4.060
  489SOL    HW2 2220   1.499   0.123   4.154
  490SOL     OW 2221   0.249   1.785   4.965
  490SOL    HW1 2222   0.306   1.720   5.015
  490SOL    HW2 2223   0.233   1.752   4.872
  491SOL     OW 2224   0.940   1.698   4.628
  491SOL    HW1 2225   1.020   1.641   4.649
  491SOL    HW2 2226   0.891   1.658   4.551
  492SOL     OW 2227   0.382   0.700   4.204
  492SOL    HW1 2228   0.427   0.610   4.201
  492SOL    HW2 2229   0.288   0.689   4.237
  493SOL     OW 2230   1.547   0.222   5.453
  493SOL    HW1 2231   1.542   0.259   5.545
  493SOL    HW2 2232   1.475   0.153   5.441
  494SOL     OW 2233   0.614   0.122   3.841
  494SOL    HW1 2234   0.712   0.100   3.848
  494SOL    HW2 2235   0.583   0.105   3.748
  495SOL     OW 2236   0.781   0.264   5.473
  495SOL    HW1 2237   0.848   0.203   5.516
  495SOL    HW2 2238   0.708   0.283   5.538
  496SOL     OW 2239   0.888   1.514   4.919
  496SOL    HW1 2240   0.865   1.489   4.825
  496SOL    HW2 2241   0.949   1.445   4.958
  497SOL     OW 2242   1.351   0.590   5.157
  497SOL    HW1 2243   1.379   0.547   5.242
  497SOL    HW2 2244   1.376   0.686   5.158
  498SOL     OW 2245   0.803   1.402   4.648
  498SOL    HW1 2246   0.893   1.416   4.606
  498SOL    HW2 2247   0.732   1.404   4.577
  499SOL     OW 2248   0.922   0.503   4.623
  499SOL    HW1 2249   0.897   0.494   4.527
  499SOL    HW2 2250   0.970   0.421   4.654
  500SOL     OW 2251   0.539   0.064   4.236
  500SOL    HW1 2252   0.458   0.065   4.294
  500SOL    HW2 2253   0.542   0.147   4.181
  501SOL     OW 2254   1.434   1.188   3.765
  501SOL    HW1 2255   1.466   1.112   3.822
  501SOL    HW2 2256   1.342   1.215   3.795
  502SOL     OW 2257   0.297   0.035   3.895
  502SOL    HW1 2258   0.346   0.119   3.874
  502SOL    HW2 2259   0.359  -0.030   3.940
  503SOL     OW 2260   0.935   0.236   4.204
  503SOL    HW1 2261   0.887   0.277   4.126
  503SOL    HW2 2262   1.034   0.234   4.185
  504SOL     OW 2263   1.076   0.683   5.188
  504SOL    HW1 2264   0.996   0.622   5.191
  504SOL    HW2 2265   1.157   0.630   5.164
  505SOL     OW 2266   1.227   1.570   4.517
  505SOL    HW1 2267   1.248   1.644   4.452
  505SOL    HW2 2268   1.295   1.570   4.590
  506SOL     OW 2269   0.459   1.152   4.465
  506SOL    HW1 2270   0.388   1.125   4.530
  506SOL    HW2 2271   0.433   1.124   4.372
  507SOL     OW 2272   1.271   1.797   4.315
  507SOL    HW1 2273   1.315   1.861   4.251
  507SOL    HW2 2274   1.221   1.849   4.385
  508SOL     OW 2275   1.032   0.549   3.740
  508SOL    HW1 2276   0.991   0.631   3.701
  508SOL    HW2 2277   1.096   0.575   3.813
  509SOL     OW 2278   0.078   0.556   5.110
  509SOL    HW1 2279   0.170   0.555   5.069
  509SOL    HW2 2280   0.072   0.630   5.177
  510SOL     OW 2281   0.561   0.222   4.871
  510SOL    HW1 2282   0.599   0.138   4.908
  510SOL    HW2 2283   0.473   0.241   4.915
  511SOL     OW 2284   0.866   0.454   4.366
  511SOL    HW1 2285   0.834   0.526   4.304
  511SOL    HW2 2286   0.890   0.373   4.313
  512SOL     OW 2287   1.017   0.039   4.477
  512SOL    HW1 2288   0.945   0.044   4.408
  512SOL    HW2 2289   0.993  -0.030   4.546
  513SOL     OW 2290   1.429   1.173   4.591
  513SOL    HW1 2291   1.374   1.089   4.584
  513SOL    HW2 2292   1.455   1.202   4.499
  514SOL     OW 2293   1.466   0.590   4.716
  514SOL    HW1 2294   1.436   0.495   4.723
  514SOL    HW2 2295   1.539   0.606   4.782
  515SOL     OW 2296   1.857   0.833   4.101
  515SOL    HW1 2297   1.899   0.769   4.165
  515SOL    HW2 2298   1.819   0.782   4.023
  516SOL     OW 2299   0.488   1.385   3.898
  516SOL    HW1 2300   0.401   1.370   3.945
  516SOL    HW2 2301   0.471   1.411   3.803
  517SOL     OW 2302   1.664   1.280   4.381
  517SOL    HW1 2303   1.763   1.288   4.395
  517SOL    HW2 2304   1.619   1.364   4.412
  518SOL     OW 2305   1.390   0.575   3.802
  518SOL    HW1 2306   1.336   0.554   3.883
  518SOL    HW2 2307   1.481   0.534   3.811
  519SOL     OW 2308   0.527   0.256   4.052
  519SOL    HW1 2309   0.554   0.197   3.977
  519SOL    HW2 2310   0.527   0.351   4.021
  520SOL     OW 2311   1.754   1.223   5.312
  520SOL    HW1 2312   1.845   1.184   5.299
  520SOL    HW2 2313   1.762   1.319   5.336
  521SOL     OW 2314   1.064   1.347   5.064
  521SOL    HW1 2315   0.984   1.324   5.119
  521SOL    HW2 2316   1.147   1.321   5.113
  522SOL     OW 2317   1.592   1.629   5.349
  522SOL    HW1 2318   1.619   1.663   5.259
  522SOL    HW2 2319   1.671   1.591   5.395
  523SOL     OW 2320   1.111   1.195   4.824
  523SOL    HW1 2321   1.071   1.239   4.905
  523SOL    HW2 2322   1.070   1.232   4.741
  524SOL     OW 2323   1.638   1.099   4.803
  524SOL    HW1 2324   1.643   1.180   4.862
  524SOL    HW2 2325   1.552   1.101   4.752
  525SOL     OW 2326   0.915   0.089   5.126
  525SOL    HW1 2327   0.940   0.069   5.031
  525SOL    HW2 2328   0.987   0.145   5.168
  526SOL     OW 2329   0.980   1.116   5.443
  526SOL    HW1 2330   0.881   1.122   5.453
  526SOL    HW2 2331   1.003   1.036   5.387
  527SOL     OW 2332   0.705   1.050   4.092
  527SOL    HW1 2333   0.691   1.057   4.191
  527SOL    HW2 2334   0.789   0.999   4.074
  528SOL     OW 2335   0.410   0.813   4.975
  528SOL    HW1 2336   0.496   0.825   5.025
  528SOL    HW2 2337   0.368   0.726   5.002
  529SOL     OW 2338   1.274   0.386   4.986
  529SOL    HW1 2339   1.295   0.460   5.050
  529SOL    HW2 2340   1.185   0.403   4.943
  530SOL     OW 2341   0.064   1.564   5.055
  530SOL    HW1 2342   0.018   1.646   5.021
  530SOL    HW2 2343   0.162   1.583   5.064
  531SOL     OW 2344   0.367   1.100   4.225
  531SOL    HW1 2345   0.360   1.183   4.169
  531SOL    HW2 2346   0.371   1.020   4.165
  532SOL     OW 2347   0.566   0.537   4.589
  532SOL    HW1 2348   0.578   0.603   4.515
  532SOL    HW2 2349   0.612   0.571   4.672
  533SOL     OW 2350   1.252   1.348   4.112
  533SOL    HW1 2351   1.302   1.425   4.152
  533SOL    HW2 2352   1.157   1.350   4.144
  534SOL     OW 2353   1.272   1.445   4.866
  534SOL    HW1 2354   1.319   1.458   4.953
  534SOL    HW2 2355   1.206   1.371   4.875
  535SOL     OW 2356   1.582   0.639   4.196
  535SOL    HW1 2357   1.551   0.700   4.269
  535SOL    HW2 2358   1.632   0.691   4.127
  536SOL     OW 2359   0.354   1.510   5.053
  536SOL    HW1 2360   0.333   1.466   4.966
  536SOL    HW2 2361   0.451   1.536   5.056
  537SOL     OW 2362   0.402   0.751   5.322
  537SOL    HW1 2363   0.470   0.806   5.275
  537SOL    HW2 2364   0.442   0.663   5.349
  538SOL     OW 2365   1.587   0.779   5.394
  538SOL    HW1 2366   1.495   0.817   5.389
  538SOL    HW2 2367   1.647   0.826   5.329
  539SOL     OW 2368   1.013   0.105   5.494
  539SOL    HW1 2369   1.019   0.190   5.442
  539SOL    HW2 2370   1.045   0.029   5.437
  540SOL     OW 2371   0.504   0.050   5.464
  540SOL    HW1 2372   0.462  -0.007   5.394
  540SOL    HW2 2373   0.438   0.119   5.496
  541SOL     OW 2374   0.573   0.870   4.753
  541SOL    HW1 2375   0.617   0.959   4.744
  541SOL    HW2 2376   0.510   0.870   4.830
  542SOL     OW 2377   1.360   0.862   4.769
  542SOL    HW1 2378   1.285   0.862   4.703
  542SOL    HW2 2379   1.397   0.770   4.778
  543SOL     OW 2380   1.209   0.525   3.999
  543SOL    HW1 2381   1.222   0.441   4.053
  543SOL    HW2 2382   1.180   0.599   4.059
  544SOL     OW 2383   0.307   0.213   4.955
  544SOL    HW1 2384   0.284   0.250   5.045
  544SOL    HW2 2385   0.277   0.118   4.949
  545SOL     OW 2386   0.037   1.310   5.006
  545SOL    HW1 2387   0.090   1.261   5.074
  545SOL    HW2 2388   0.059   1.408   5.011
  546SOL     OW 2389   0.732   0.634   4.788
  546SOL    HW1 2390   0.791   0.608   4.712
  546SOL    HW2 2391   0.704   0.730   4.777
  547SOL     OW 2392   1.728   0.935   5.578
  547SOL    HW1 2393   1.682   0.928   5.489
  547SOL    HW2 2394   1.666   0.979   5.644
  548SOL     OW 2395   0.307   0.063   4.342
  548SOL    HW1 2396   0.296   0.157   4.375
  548SOL    HW2 2397   0.302   0.000   4.419
  549SOL     OW 2398   1.622   0.367   4.098
  549SOL    HW1 2399   1.624   0.291   4.162
  549SOL    HW2 2400   1.574   0.444   4.138
  550SOL     OW 2401   1.023   0.766   4.690
  550SOL    HW1 2402   1.038   0.787   4.786
  550SOL    HW2 2403   0.993   0.671   4.681
  551SOL     OW 2404   0.980   1.573   5.424
  551SOL    HW1 2405   0.960   1.617   5.336
  551SOL    HW2 2406   1.019   1.482   5.408
  552SOL     OW 2407   0.350   0.898   5.528
  552SOL    HW1 2408   0.426   0.942   5.576
  552SOL    HW2 2409   0.385   0.851   5.446
  553SOL     OW 2410   1.540   0.274   3.849
  553SOL    HW1 2411   1.479   0.199   3.872
  553SOL    HW2 2412   1.562   0.326   3.932
  554SOL     OW 2413   1.303   0.838   3.766
  554SOL    HW1 2414   1.337   0.745   3.781
  554SOL    HW2 2415   1.321   0.865   3.671
  555SOL     OW 2416   1.068   1.333   4.573
  555SOL    HW1 2417   1.075   1.249   4.518
  555SOL    HW2 2418   1.130   1.402   4.537
  556SOL     OW 2419   0.319   0.810   4.673
  556SOL    HW1 2420   0.412   0.846   4.678
  556SOL    HW2 2421   0.313   0.725   4.725
  557SOL     OW 2422   0.339   0.509   4.730
  557SOL    HW1 2423   0.287   0.426   4.713
  557SOL    HW2 2424   0.416   0.514   4.666
  558SOL     OW 2425   1.138   0.380   5.402
  558SOL    HW1 2426   1.093   0.443   5.466
  558SOL    HW2 2427   1.231   0.411   5.385
  559SOL     OW 2428   1.160   0.207   5.201
  559SOL    HW1 2429   1.160   0.271   5.278
  559SOL    HW2 2430   1.188   0.255   5.118
  560SOL     OW 2431   0.008   1.326   3.924
  560SOL    HW1 2432  -0.085   1.347   3.893
  560SOL    HW2 2433   0.018   1.227   3.937
  561SOL     OW 2434   0.088   1.801   4.651
  561SOL    HW1 2435   0.046   1.715   4.624
  561SOL    HW2 2436   0.182   1.804   4.617
  562SOL     OW 2437   0.504   1.568   4.634
  562SOL    HW1 2438   0.570   1.642   4.643
  562SOL    HW2 2439   0.548   1.489   4.592
  563SOL     OW 2440   1.002   0.796   4.962
  563SOL    HW1 2441   1.043   0.764   5.048
  563SOL    HW2 2442   0.906   0.769   4.959
  564SOL     OW 2443   0.040   0.544   4.838
  564SOL    HW1 2444   0.125   0.511   4.797
  564SOL    HW2 2445   0.053   0.559   4.936
  565SOL     OW 2446   0.189   0.520   5.446
  565SOL    HW1 2447   0.248   0.480   5.376
  565SOL    HW2 2448   0.131   0.591   5.405
  566SOL     OW 2449   1.369   0.950   5.384
  566SOL    HW1 2450   1.408   1.039   5.404
  566SOL    HW2 2451   1.379   0.930   5.287
  567SOL     OW 2452   0.815   0.572   4.049
  567SOL    HW1 2453   0.822   0.483   4.003
  567SOL    HW2 2454   0.721   0.606   4.041
  568SOL     OW 2455   1.657   0.604   4.930
  568SOL    HW1 2456   1.619   0.535   4.992
  568SOL    HW2 2457   1.739   0.568   4.886
  569SOL     OW 2458   0.252   1.564   5.468
  569SOL    HW1 2459   0.222   1.621   5.544
  569SOL    HW2 2460   0.245   1.467   5.494
  570SOL     OW 2461   0.671   0.464   4.993
  570SOL    HW1 2462   0.637   0.375   4.963
  570SOL    HW2 2463   0.697   0.518   4.913
  571SOL     OW 2464   0.930   1.678   5.189
  571SOL    HW1 2465   0.906   1.660   5.094
  571SOL    HW2 2466   0.960   1.772   5.199
  572SOL     OW 2467   0.473   0.500   3.915
  572SOL    HW1 2468   0.534   0.580   3.919
  572SOL    HW2 2469   0.378   0.531   3.922
  573SOL     OW 2470   0.159   1.137   5.190
  573SOL    HW1 2471   0.181   1.076   5.266
  573SOL    HW2 2472   0.169   1.088   5.104
  574SOL     OW 2473   1.347   1.059   4.958
  574SOL    HW1 2474   1.371   0.996   4.884
  574SOL    HW2 2475   1.257   1.099   4.940
  575SOL     OW 2476   1.302   0.855   4.033
  575SOL    HW1 2477   1.216   0.824   4.075
  575SOL    HW2 2478   1.298   0.841   3.934
  576SOL     OW 2479   1.252   1.731   4.852
  576SOL    HW1 2480   1.336   1.736   4.798
  576SOL    HW2 2481   1.229   1.635   4.870
  577SOL     OW 2482   0.083   1.258   4.746
  577SOL    HW1 2483   0.078   1.257   4.846
  577SOL    HW2 2484   0.000   1.217   4.708
  578SOL     OW 2485   0.688   1.662   5.440
  578SOL    HW1 2486   0.632   1.743   5.449
  578SOL    HW2 2487   0.740   1.666   5.354
  579SOL     OW 2488   1.726   0.135   4.247
  579SOL    HW1 2489   1.799   0.118   4.180
  579SOL    HW2 2490   1.695   0.048   4.285
  580SOL     OW 2491   1.388   1.573   4.201
  580SOL    HW1 2492   1.455   1.585   4.127
  580SOL    HW2 2493   1.348   1.662   4.224
  581SOL     OW 2494   0.130   1.794   5.575
  581SOL    HW1 2495   0.089   1.720   5.628
  581SOL    HW2 2496   0.194   1.845   5.633
  582SOL     OW 2497   1.280   0.927   4.396
  582SOL    HW1 2498   1.340   0.846   4.398
  582SOL    HW2 2499   1.320   0.996   4.336
  583SOL     OW 2500   0.830   1.273   5.146
  583SOL    HW1 2501   0.825   1.306   5.241
  583SOL    HW2 2502   0.744   1.292   5.100
  584SOL     OW 2503   0.672   1.616   3.878
  584SOL    HW1 2504   0.681   1.626   3.779
  584SOL    HW2 2505   0.632   1.527   3.899
  585SOL     OW 2506   1.841   0.175   4.687
  585SOL    HW1 2507   1.880   0.090   4.651
  585SOL    HW2 2508   1.743   0.177   4.668
  586SOL     OW 2509   0.263   0.326   4.444
  586SOL    HW1 2510   0.184   0.377   4.410
  586SOL    HW2 2511   0.254   0.311   4.542
  587SOL     OW 2512   1.194   1.612   3.755
  587SOL    HW1 2513   1.200   1.519   3.792
  587SOL    HW2 2514   1.135   1.612   3.675
  588SOL     OW 2515   0.822   1.002   5.096
  588SOL    HW1 2516   0.862   1.001   5.004
  588SOL    HW2 2517   0.832   1.094   5.136
  589SOL     OW 2518   0.916   0.910   4.015
  589SOL    HW1 2519   0.979   0.948   3.947
  589SOL    HW2 2520   0.956   0.827   4.054
  590SOL     OW 2521   1.504   1.607   3.768
  590SOL    HW1 2522   1.412   1.644   3.775
  590SOL    HW2 2523   1.542   1.627   3.678
  591SOL     OW 2524   0.372   1.288   5.214
  591SOL    HW1 2525   0.359   1.381   5.180
  591SOL    HW2 2526   0.288   1.236   5.201
  592SOL     OW 2527   1.614   1.292   5.013
  592SOL    HW1 2528   1.674   1.295   5.093
  592SOL    HW2 2529   1.539   1.356   5.026
  593SOL     OW 2530   1.039   1.098   4.420
  593SOL    HW1 2531   0.969   1.051   4.474
  593SOL    HW2 2532   1.098   1.030   4.377
  594SOL     OW 2533   1.014   0.236   4.695
  594SOL    HW1 2534   1.006   0.200   4.602
  594SOL    HW2 2535   1.012   0.160   4.760
  595SOL     OW 2536   0.590   1.487   4.215
  595SOL    HW1 2537   0.632   1.429   4.145
  595SOL    HW2 2538   0.546   1.566   4.171
  596SOL     OW 2539   1.709   0.385   5.105
  596SOL    HW1 2540   1.782   0.454   5.109
  596SOL    HW2 2541   1.737   0.310   5.046
  597SOL     OW 2542   0.255   1.348   4.014
  597SOL    HW1 2543   0.159   1.349   3.987
  597SOL    HW2 2544   0.267   1.401   4.098
  598SOL     OW 2545   0.105   1.013   5.450
  598SOL    HW1 2546   0.028   0.980   5.504
  598SOL    HW2 2547   0.190   0.983   5.492
  599SOL     OW 2548   0.672   0.203   5.213
  599SOL    HW1 2549   0.762   0.187   5.173
  599SOL    HW2 2550   0.680   0.208   5.312
  600SOL     OW 2551   0.075   0.345   3.757
  600SOL    HW1 2552  -0.017   0.317   3.728
  600SOL    HW2 2553   0.106   0.422   3.701
  601SOL     OW 2554   1.440   0.856   5.122
  601SOL    HW1 2555   1.383   0.908   5.059
  601SOL    HW2 2556   1.536   0.868   5.098
  602SOL     OW 2557   0.072   0.166   4.042
  602SOL    HW1 2558   0.055   0.249   3.988
  602SOL    HW2 2559   0.162   0.129   4.020
  603SOL     OW 2560   1.183   1.335   3.843
  603SOL    HW1 2561   1.084   1.324   3.845
  603SOL    HW2 2562   1.217   1.350   3.936
  604SOL     OW 2563   0.613   0.842   5.155
  604SOL    HW1 2564   0.669   0.923   5.138
  604SOL    HW2 2565   0.672   0.762   5.158
  605SOL     OW 2566   0.716   0.565   5.432
  605SOL    HW1 2567   0.735   0.630   5.506
  605SOL    HW2 2568   0.776   0.485   5.441
  606SOL     OW 2569   1.450   1.220   5.357
  606SOL    HW1 2570   1.441   1.210   5.456
  606SOL    HW2 2571   1.546   1.213   5.331
  607SOL     OW 2572   0.390   1.741   5.284
  607SOL    HW1 2573   0.299   1.782   5.282
  607SOL    HW2 2574   0.383   1.647   5.316
  608SOL     OW 2575   1.674   0.883   4.978
  608SOL    HW1 2576   1.647   0.794   4.941
  608SOL    HW2 2577   1.675   0.951   4.905
  609SOL     OW 2578   1.225   0.325   4.173
  609SOL    HW1 2579   1.290   0.251   4.162
  609SOL    HW2 2580   1.245   0.375   4.257
  610SOL     OW 2581   0.594   0.745   4.376
  610SOL    HW1 2582   0.644   0.830   4.357
  610SOL    HW2 2583   0.506   0.747   4.328
  611SOL     OW 2584   1.777   0.342   5.366
  611SOL    HW1 2585   1.760   0.373   5.272
  611SOL    HW2 2586   1.693   0.305   5.404
  612SOL     OW 2587   1.730   0.934   5.241
  612SOL    HW1 2588   1.768   1.025   5.256
  612SOL    HW2 2589   1.722   0.917   5.142
  613SOL     OW 2590   0.859   1.374   3.740
  613SOL    HW1 2591   0.813   1.389   3.828
  613SOL    HW2 2592   0.903   1.459   3.710
  614SOL     OW 2593   0.661   1.790   4.677
  614SOL    HW1 2594   0.615   1.878   4.664
  614SOL    HW2 2595   0.760   1.802   4.670
  615SOL     OW 2596   0.859   0.956   4.585
  615SOL    HW1 2597   0.913   0.887   4.633
  615SOL    HW2 2598   0.827   1.025   4.651
  616SOL     OW 2599   1.083   0.984   3.811
  616SOL    HW1 2600   1.060   1.037   3.729
  616SOL    HW2 2601   1.164   0.928   3.792
  617SOL     OW 2602   1.861   1.569   4.575
  617SOL    HW1 2603   1.790   1.557   4.505
  617SOL    HW2 2604   1.862   1.490   4.635
  618SOL     OW 2605   0.221   1.314   5.568
  618SOL    HW1 2606   0.156   1.241   5.547
  618SOL    HW2 2607   0.225   1.328   5.666
  619SOL     OW 2608   0.079   1.240   4.377
  619SOL    HW1 2609   0.078   1.193   4.465
  619SOL    HW2 2610   0.161   1.212   4.326
  620SOL     OW 2611   0.672   1.391   5.348
  620SOL    HW1 2612   0.594   1.341   5.386
  620SOL    HW2 2613   0.669   1.486   5.379
  621SOL     OW 2614   1.824   0.192   4.951
  621SOL    HW1 2615   1.820   0.102   4.995
  621SOL    HW2 2616   1.827   0.181   4.852
  622SOL     OW 2617   0.428   0.424   4.244
  622SOL    HW1 2618   0.458   0.352   4.182
  622SOL    HW2 2619   0.389   0.384   4.327
  623SOL     OW 2620   1.705   1.487   4.828
  623SOL    HW1 2621   1.612   1.462   4.801
  623SOL    HW2 2622   1.731   1.437   4.910
  624SOL     OW 2623   0.317   0.547   5.004
  624SOL    HW1 2624   0.355   0.488   5.076
  624SOL    HW2 2625   0.357   0.521   4.916
  625SOL     OW 2626   0.812   1.586   4.411
  625SOL    HW1 2627   0.844   1.596   4.317
  625SOL    HW2 2628   0.733   1.524   4.413
  626SOL     OW 2629   1.424   0.214   4.836
  626SOL    HW1 2630   1.476   0.149   4.891
  626SOL    HW2 2631   1.375   0.277   4.897
  627SOL     OW 2632   1.001   0.034   4.878
  627SOL    HW1 2633   0.938  -0.038   4.847
  627SOL    HW2 2634   1.094  -0.002   4.878
  628SOL     OW 2635   0.770   1.330   4.025
  628SOL    HW1 2636   0.724   1.243   4.042
  628SOL    HW2 2637   0.861   1.327   4.066
  629SOL     OW 2638   0.618   1.567   5.008
  629SOL    HW1 2639   0.613   1.649   5.065
  629SOL    HW2 2640   0.707   1.564   4.963
  630SOL     OW 2641   1.352   0.052   3.892
  630SOL    HW1 2642   1.387   0.011   3.808
  630SOL    HW2 2643   1.262   0.014   3.912
  631SOL     OW 2644   1.300   0.453   4.415
  631SOL    HW1 2645   1.241   0.533   4.419
  631SOL    HW2 2646   1.315   0.418   4.508
  632SOL     OW 2647   1.593   0.221   4.606
  632SOL    HW1 2648   1.509   0.220   4.660
  632SOL    HW2 2649   1.595   0.304   4.550
  633SOL     OW 2650   0.039   1.077   4.024
  633SOL    HW1 2651   0.138   1.066   4.015
  633SOL    HW2 2652  -0.001   0.991   4.056
  634SOL     OW 2653   0.875   1.646   4.061
  634SOL    HW1 2654   0.798   1.611   4.007
  634SOL    HW2 2655   0.843   1.717   4.123
  635SOL     OW 2656   0.230   0.628   5.699
  635SOL    HW1 2657   0.137   0.626   5.736
  635SOL    HW2 2658   0.231   0.589   5.607
  636SOL     OW 2659   0.225   0.275   6.582
  636SOL    HW1 2660   0.260   0.258   6.674
  636SOL    HW2 2661   0.137   0.230   6.570
  637SOL     OW 2662   0.019   0.368   6.233
  637SOL    HW1 2663  -0.063   0.411   6.272
  637SOL    HW2 2664  -0.009   0.295   6.170
  638SOL     OW 2665   0.569   1.275   6.751
  638SOL    HW1 2666   0.476   1.268   6.714
  638SOL    HW2 2667   0.580   1.364   6.795
  639SOL     OW 2668   1.555   1.511   6.289
  639SOL    HW1 2669   1.498   1.495   6.370
  639SOL    HW2 2670   1.496   1.521   6.209
  640SOL     OW 2671   1.135   0.703   6.303
  640SOL    HW1 2672   1.192   0.781   6.278
  640SOL    HW2 2673   1.075   0.729   6.379
  641SOL     OW 2674   1.755   0.607   5.817
  641SOL    HW1 2675   1.743   0.594   5.718
  641SOL    HW2 2676   1.725   0.526   5.866
  642SOL     OW 2677   0.768   1.144   6.609
  642SOL    HW1 2678   0.690   1.161   6.669
  642SOL    HW2 2679   0.802   1.231   6.573
  643SOL     OW 2680   0.850   0.798   7.409
  643SOL    HW1 2681   0.846   0.874   7.474
  643SOL    HW2 2682   0.872   0.834   7.318
  644SOL     OW 2683   0.685   1.012   6.251
  644SOL    HW1 2684   0.754   0.996   6.321
  644SOL    HW2 2685   0.612   1.069   6.289
  645SOL     OW 2686   0.686   1.161   7.389
  645SOL    HW1 2687   0.746   1.240   7.403
  645SOL    HW2 2688   0.600   1.192   7.348
  646SOL     OW 2689   0.335   1.435   6.647
  646SOL    HW1 2690   0.257   1.404   6.594
  646SOL    HW2 2691   0.393   1.493   6.590
  647SOL     OW 2692   1.460   1.505   6.925
  647SOL    HW1 2693   1.484   1.599   6.951
  647SOL    HW2 2694   1.444   1.451   7.007
  648SOL     OW 2695   0.438   0.392   7.085
  648SOL    HW1 2696   0.520   0.336   7.094
  648SOL    HW2 2697   0.357   0.334   7.089
  649SOL     OW 2698   1.603   0.447   6.323
  649SOL    HW1 2699   1.529   0.493   6.273
  649SOL    HW2 2700   1.654   0.515   6.376
  650SOL     OW 2701   0.231   1.713   6.069
  650SOL    HW1 2702   0.265   1.790   6.123
  650SOL    HW2 2703   0.275   1.713   5.979
  651SOL     OW 2704   1.127   1.341   7.276
  651SOL    HW1 2705   1.174   1.341   7.364
  651SOL    HW2 2706   1.079   1.254   7.265
  652SOL     OW 2707   0.230   1.434   6.124
  652SOL    HW1 2708   0.204   1.530   6.124
  652SOL    HW2 2709   0.159   1.380   6.169
  653SOL     OW 2710   0.240   1.091   6.472
  653SOL    HW1 2711   0.254   1.007   6.524
  653SOL    HW2 2712   0.185   1.155   6.527
  654SOL     OW 2713   0.620   1.786   7.025
  654SOL    HW1 2714   0.528   1.769   7.060
  654SOL    HW2 2715   0.648   1.878   7.051
  655SOL     OW 2716   0.606   0.964   5.709
  655SOL    HW1 2717   0.613   1.048   5.655
  655SOL    HW2 2718   0.652   0.977   5.797
  656SOL     OW 2719   1.594   0.114   7.066
  656SOL    HW1 2720   1.576   0.181   6.994
  656SOL    HW2 2721   1.591   0.160   7.155
  657SOL     OW 2722   0.122   0.643   6.149
  657SOL    HW1 2723   0.077   0.555   6.166
  657SOL    HW2 2724   0.121   0.697   6.233
  658SOL     OW 2725   0.027   1.596   5.703
  658SOL    HW1 2726   0.008   1.500   5.724
  658SOL    HW2 2727  -0.006   1.654   5.778
  659SOL     OW 2728   1.689   0.922   6.198
  659SOL    HW1 2729   1.784   0.893   6.206
  659SOL    HW2 2730   1.681   0.987   6.123
  660SOL     OW 2731   1.641   1.108   6.018
  660SOL    HW1 2732   1.727   1.110   5.966
  660SOL    HW2 2733   1.655   1.155   6.106
  661SOL     OW 2734   0.113   0.737   7.183
  661SOL    HW1 2735   0.201   0.724   7.228
  661SOL    HW2 2736   0.100   0.834   7.161
  662SOL     OW 2737   0.613   1.365   6.312
  662SOL    HW1 2738   0.564   1.278   6.321
  662SOL    HW2 2739   0.590   1.408   6.225
  663SOL     OW 2740   1.293   1.228   7.009
  663SOL    HW1 2741   1.330   1.155   6.951
  663SOL    HW2 2742   1.345   1.233   7.094
  664SOL     OW 2743   0.809   0.004   6.088
  664SOL    HW1 2744   0.849   0.095   6.079
  664SOL    HW2 2745   0.709   0.012   6.094
  665SOL     OW 2746   0.197   0.976   6.850
  665SOL    HW1 2747   0.286   0.931   6.836
  665SOL    HW2 2748   0.124   0.911   6.831
  666SOL     OW 2749   1.525   0.999   5.776
  666SOL    HW1 2750   1.462   0.923   5.789
  666SOL    HW2 2751   1.573   1.017   5.862
  667SOL     OW 2752   1.187   1.792   7.202
  667SOL    HW1 2753   1.211   1.852   7.126
  667SOL    HW2 2754   1.194   1.697   7.172
  668SOL     OW 2755   0.317   0.251   7.387
  668SOL    HW1 2756   0.388   0.322   7.393
  668SOL    HW2 2757   0.229   0.290   7.415
  669SOL     OW 2758   1.466   1.417   6.539
  669SOL    HW1 2759   1.407   1.423   6.619
  669SOL    HW2 2760   1.451   1.329   6.493
  670SOL     OW 2761   0.598   0.729   5.856
  670SOL    HW1 2762   0.622   0.798   5.788
  670SOL    HW2 2763   0.520   0.762   5.910
  671SOL     OW 2764   1.281   0.345   6.530
  671SOL    HW1 2765   1.195   0.295   6.517
  671SOL    HW2 2766   1.343   0.291   6.586
  672SOL     OW 2767   1.576   1.662   5.893
  672SOL    HW1 2768   1.665   1.708   5.896
  672SOL    HW2 2769   1.555   1.638   5.798
  673SOL     OW 2770   0.807   0.605   7.051
  673SOL    HW1 2771   0.760   0.602   7.140
  673SOL    HW2 2772   0.756   0.550   6.985
  674SOL     OW 2773   1.394   0.469   7.260
  674SOL    HW1 2774   1.374   0.512   7.348
  674SOL    HW2 2775   1.472   0.407   7.269
  675SOL     OW 2776   0.973   0.890   7.158
  675SOL    HW1 2777   1.019   0.806   7.129
  675SOL    HW2 2778   0.917   0.924   7.083
  676SOL     OW 2779   0.991   0.410   6.828
  676SOL    HW1 2780   0.914   0.444   6.882
  676SOL    HW2 2781   0.957   0.359   6.749
  677SOL     OW 2782   1.041   0.701   6.015
  677SOL    HW1 2783   1.067   0.697   6.111
  677SOL    HW2 2784   0.956   0.650   6.001
  678SOL     OW 2785   0.076   0.811   6.375
  678SOL    HW1 2786   0.175   0.799   6.384
  678SOL    HW2 2787   0.052   0.906   6.396
  679SOL     OW 2788   0.130   1.821   7.157
  679SOL    HW1 2789   0.120   1.806   7.256
  679SOL    HW2 2790   0.044   1.857   7.121
  680SOL     OW 2791   0.865   0.348   5.781
  680SOL    HW1 2792   0.924   0.411   5.732
  680SOL    HW2 2793   0.884   0.254   5.752
  681SOL     OW 2794   1.719   0.585   7.417
  681SOL    HW1 2795   1.693   0.674   7.381
  681SOL    HW2 2796   1.717   0.517   7.344
  682SOL     OW 2797   1.362   1.144   6.131
  682SOL    HW1 2798   1.445   1.115   6.083
  682SOL    HW2 2799   1.313   1.211   6.075
  683SOL     OW 2800   0.550   0.196   6.471
  683SOL    HW1 2801   0.545   0.191   6.571
  683SOL    HW2 2802   0.552   0.292   6.442
  684SOL     OW 2803   1.008   1.456   6.063
  684SOL    HW1 2804   0.962   1.528   6.011
  684SOL    HW2 2805   1.004   1.476   6.161
  685SOL     OW 2806   0.351   1.801   6.439
  685SOL    HW1 2807   0.401   1.715   6.445
  685SOL    HW2 2808   0.416   1.878   6.436
  686SOL     OW 2809   1.795   1.066   6.459
  686SOL    HW1 2810   1.733   1.051   6.383
  686SOL    HW2 2811   1.743   1.077   6.544
  687SOL     OW 2812   1.227   1.550   7.092
  687SOL    HW1 2813   1.233   1.473   7.156
  687SOL    HW2 2814   1.175   1.524   7.012
  688SOL     OW 2815   0.321   0.943   5.828
  688SOL    HW1 2816   0.403   0.982   5.786
  688SOL    HW2 2817   0.294   0.861   5.779
  689SOL     OW 2818   1.458   0.735   6.314
  689SOL    HW1 2819   1.453   0.670   6.389
  689SOL    HW2 2820   1.538   0.794   6.327
  690SOL     OW 2821   0.461   1.266   7.313
  690SOL    HW1 2822   0.411   1.267   7.227
  690SOL    HW2 2823   0.398   1.248   7.389
  691SOL     OW 2824   1.111   1.776   5.823
  691SOL    HW1 2825   1.051   1.714   5.873
  691SOL    HW2 2826   1.142   1.732   5.738
  692SOL     OW 2827   0.202   0.285   7.084
  692SOL    HW1 2828   0.122   0.345   7.071
  692SOL    HW2 2829   0.192   0.236   7.170
  693SOL     OW 2830   1.632   1.377   5.667
  693SOL    HW1 2831   1.600   1.471   5.657
  693SOL    HW2 2832   1.556   1.314   5.655
  694SOL     OW 2833   0.464   1.743   5.909
  694SOL    HW1 2834   0.497   1.782   5.995
  694SOL    HW2 2835   0.540   1.736   5.844
  695SOL     OW 2836   1.400   0.107   6.012
  695SOL    HW1 2837   1.376   0.070   5.922
  695SOL    HW2 2838   1.499   0.123   6.016
  696SOL     OW 2839   0.249   1.785   6.827
  696SOL    HW1 2840   0.306   1.720   6.877
  696SOL    HW2 2841   0.233   1.752   6.734
  697SOL     OW 2842   0.940   1.698   6.490
  697SOL    HW1 2843   1.020   1.641   6.511
  697SOL    HW2 2844   0.891   1.658   6.413
  698SOL     OW 2845   0.382   0.700   6.066
  698SOL    HW1 2846   0.427   0.610   6.063
  698SOL    HW2 2847   0.288   0.689   6.099
  699SOL     OW 2848   1.547   0.222   7.315
  699SOL    HW1 2849   1.542   0.259   7.407
  699SOL    HW2 2850   1.475   0.153   7.303
  700SOL     OW 2851   0.614   0.122   5.703
  700SOL    HW1 2852   0.712   0.100   5.710
  700SOL    HW2 2853   0.583   0.105   5.610
  701SOL     OW 2854   0.781   0.264   7.335
  701SOL    HW1 2855   0.848   0.203   7.378
  701SOL    HW2 2856   0.708   0.283   7.400
  702SOL     OW 2857   0.888   1.514   6.781
  702SOL    HW1 2858   0.865   1.489   6.687
  702SOL    HW2 2859   0.949   1.445   6.820
  703SOL     OW 2860   1.351   0.590   7.019
  703SOL    HW1 2861   1.379   0.547   7.104
  703SOL    HW2 2862   1.376   0.686   7.020
  704SOL     OW 2863   0.803   1.402   6.510
  704SOL    HW1 2864   0.893   1.416   6.468
  704SOL    HW2 2865   0.732   1.404   6.439
  705SOL     OW 2866   0.922   0.503   6.485
  705SOL    HW1 2867   0.897   0.494   6.389
  705SOL    HW2 2868   0.970   0.421   6.516
  706SOL     OW 2869   0.539   0.064   6.098
  706SOL    HW1 2870   0.458   0.065   6.156
  706SOL    HW2 2871   0.542   0.147   6.043
  707SOL     OW 2872   1.434   1.188   5.627
  707SOL    HW1 2873   1.466   1.112   5.684
  707SOL    HW2 2874   1.342   1.215   5.657
  708SOL     OW 2875   0.297   0.035   5.757
  708SOL    HW1 2876   0.346   0.119   5.736
  708SOL    HW2 2877   0.359  -0.030   5.802
  709SOL     OW 2878   0.935   0.236   6.066
  709SOL    HW1 2879   0.887   0.277   5.988
  709SOL    HW2 2880   1.034   0.234   6.047
  710SOL     OW 2881   1.076   0.683   7.050
  710SOL    HW1 2882   0.996   0.622   7.053
  710SOL    HW2 2883   1.157   0.630   7.026
  711SOL     OW 2884   1.227   1.570   6.379
  711SOL    HW1 2885   1.248   1.644   6.314
  711SOL    HW2 2886   1.295   1.570   6.452
  712SOL     OW 2887   0.459   1.152   6.327
  712SOL    HW1 2888   0.388   1.125   6.392
  712SOL    HW2 2889   0.433   1.124   6.234
  713SOL     OW 2890   1.271   1.797   6.177
  713SOL    HW1 2891   1.315   1.861   6.113
  713SOL    HW2 2892   1.221   1.849   6.247
  714SOL     OW 2893   1.032   0.549   5.602
  714SOL    HW1 2894   0.991   0.631   5.563
  714SOL    HW2 2895   1.096   0.575   5.675
  715SOL     OW 2896   0.078   0.556   6.972
  715SOL    HW1 2897   0.170   0.555   6.931
  715SOL    HW2 2898   0.072   0.630   7.039
  716SOL     OW 2899   0.561   0.222   6.733
  716SOL    HW1 2900   0.599   0.138   6.770
  716SOL    HW2 2901   0.473   0.241   6.777
  717SOL     OW 2902   0.866   0.454   6.228
  717SOL    HW1 2903   0.834   0.526   6.166
  717SOL    HW2 2904   0.890   0.373   6.175
  718SOL     OW 2905   1.017   0.039   6.339
  718SOL    HW1 2906   0.945   0.044   6.270
  718SOL    HW2 2907   0.993  -0.030   6.408
  719SOL     OW 2908   1.429   1.173   6.453
  719SOL    HW1 2909   1.374   1.089   6.446
  719SOL    HW2 2910   1.455   1.202   6.361
  720SOL     OW 2911   1.466   0.590   6.578
  720SOL    HW1 2912   1.436   0.495   6.585
  720SOL    HW2 2913   1.539   0.606   6.644
  721SOL     OW 2914   1.857   0.833   5.963
  721SOL    HW1 2915   1.899   0.769   6.027
  721SOL    HW2 2916   1.819   0.782   5.885
  722SOL     OW 2917   0.488   1.385   5.760
  722SOL    HW1 2918   0.401   1.370   5.807
  722SOL    HW2 2919   0.471   1.411   5.665
  723SOL     OW 2920   1.664   1.280   6.243
  723SOL    HW1 2921   1.763   1.288   6.257
  723SOL    HW2 2922   1.619   1.364   6.274
  724SOL     OW 2923   1.390   0.575   5.664
  724SOL    HW1 2924   1.336   0.554   5.745
  724SOL    HW2 2925   1.481   0.534   5.673
  725SOL     OW 2926   0.527   0.256   5.914
  725SOL    HW1 2927   0.554   0.197   5.839
  725SOL    HW2 2928   0.527   0.351   5.883
  726SOL     OW 2929   1.754   1.223   7.174
  726SOL    HW1 2930   1.845   1.184   7.161
  726SOL    HW2 2931   1.762   1.319   7.198
  727SOL     OW 2932   1.064   1.347   6.926
  727SOL    HW1 2933   0.984   1.324   6.981
  727SOL    HW2 2934   1.147   1.321   6.975
  728SOL     OW 2935   1.592   1.629   7.211
  728SOL    HW1 2936   1.619   1.663   7.121
  728SOL    HW2 2937   1.671   1.591   7.257
  729SOL     OW 2938   1.111   1.195   6.686
  729SOL    HW1 2939   1.071   1.239   6.767
  729SOL    HW2 2940   1.070   1.232   6.603
  730SOL     OW 2941   1.638   1.099   6.665
  730SOL    HW1 2942   1.643   1.180   6.724
  730SOL    HW2 2943   1.552   1.101   6.614
  731SOL     OW 2944   0.915   0.089   6.988
  731SOL    HW1 2945   0.940   0.069   6.893
  731SOL    HW2 2946   0.987   0.145   7.030
  732SOL     OW 2947   0.980   1.116   7.305
  732SOL    HW1 2948   0.881   1.122   7.315
  732SOL    HW2 2949   1.003   1.036   7.249
  733SOL     OW 2950   0.705   1.050   5.954
  733SOL    HW1 2951   0.691   1.057   6.053
  733SOL    HW2 2952   0.789   0.999   5.936
  734SOL     OW 2953   0.410   0.813   6.837
  734SOL    HW1 2954   0.496   0.825   6.887
  734SOL    HW2 2955   0.368   0.726   6.864
  735SOL     OW 2956   1.274   0.386   6.848
  735SOL    HW1 2957   1.295   0.460   6.912
  735SOL    HW2 2958   1.185   0.403   6.805
  736SOL     OW 2959   0.064   1.564   6.917
  736SOL    HW1 2960   0.018   1.646   6.883
  736SOL    HW2 2961   0.162   1.583   6.926
  737SOL     OW 2962   0.367   1.100   6.087
  737SOL    HW1 2963   0.360   1.183   6.031
  737SOL    HW2 2964   0.371   1.020   6.027
  738SOL     OW 2965   0.566   0.537   6.451
  738SOL    HW1 2966   0.578   0.603   6.377
  738SOL    HW2 2967   0.612   0.571   6.534
  739SOL     OW 2968   1.252   1.348   5.974
  739SOL    HW1 2969   1.302   1.425   6.014
  739SOL    HW2 2970   1.157   1.350   6.006
  740SOL     OW 2971   1.272   1.445   6.728
  740SOL    HW1 2972   1.319   1.458   6.815
  740SOL    HW2 2973   1.206   1.371   6.737
  741SOL     OW 2974   1.582   0.639   6.058
  741SOL    HW1 2975   1.551   0.700   6.131
  741SOL    HW2 2976   1.632   0.691   5.989
  742SOL     OW 2977   0.354   1.510   6.915
  742SOL    HW1 2978   0.333   1.466   6.828
  742SOL    HW2 2979   0.451   1.536   6.918
  743SOL     OW 2980   0.402   0.751   7.184
  743SOL    HW1 2981   0.470   0.806   7.137
  743SOL    HW2 2982   0.442   0.663   7.211
  744SOL     OW 2983   1.587   0.779   7.256
  744SOL    HW1 2984   1.495   0.817   7.251
  744SOL    HW2 2985   1.647   0.826   7.191
  745SOL     OW 2986   1.013   0.105   7.356
  745SOL    HW1 2987   1.019   0.190   7.304
  745SOL    HW2 2988   1.045   0.029   7.299
  746SOL     OW 2989   0.504   0.050   7.326
  746SOL    HW1 2990   0.462  -0.007   7.256
  746SOL    HW2 2991   0.438   0.119   7.358
  747SOL     OW 2992   0.573   0.870   6.615
  747SOL    HW1 2993   0.617   0.959   6.606
  747SOL    HW2 2994   0.510   0.870   6.692
  748SOL     OW 2995   1.360   0.862   6.631
  748SOL    HW1 2996   1.285   0.862   6.565
  748SOL    HW2 2997   1.397   0.770   6.640
  749SOL     OW 2998   1.209   0.525   5.861
  749SOL    HW1 2999   1.222   0.441   5.915
  749SOL    HW2 3000   1.180   0.599   5.921
  750SOL     OW 3001   0.307   0.213   6.817
  750SOL    HW1 3002   0.284   0.250   6.907
  750SOL    HW2 3003   0.277   0.118   6.811
  751SOL     OW 3004   0.037   1.310   6.868
  751SOL    HW1 3005   0.090   1.261   6.936
  751SOL    HW2 3006   0.059   1.408   6.873
  752SOL     OW 3007   0.732   0.634   6.650
  752SOL    HW1 3008   0.791   0.608   6.574
  752SOL    HW2 3009   0.704   0.730   6.639
  753SOL     OW 3010   1.728   0.935   7.440
  753SOL    HW1 3011   1.682   0.928   7.351
  753SOL    HW2 3012   1.666   0.979   7.506
  754SOL     OW 3013   0.307   0.063   6.204
  754SOL    HW1 3014   0.296   0.157   6.237
  754SOL    HW2 3015   0.302   0.000   6.281
  755SOL     OW 3016   1.622   0.367   5.960
  755SOL    HW1 3017   1.624   0.291   6.024
  755SOL    HW2 3018   1.574   0.444   6.000
  756SOL     OW 3019   1.023   0.766   6.552
  756SOL    HW1 3020   1.038   0.787   6.648
  756SOL    HW2 3021   0.993   0.671   6.543
  757SOL     OW 3022   0.980   1.573   7.286
  757SOL    HW1 3023   0.960   1.617   7.198
  757SOL    HW2 3024   1.019   1.482   7.270
  758SOL     OW 3025   1.859   1.518   7.191
  758SOL    HW1 3026   1.873   1.545   7.096
  758SOL    HW2 3027   1.942   1.540   7.244
  759SOL     OW 3028   0.350   0.898   7.390
  759SOL    HW1 3029   0.426   0.942   7.438
  759SOL    HW2 3030   0.385   0.851   7.308
  760SOL     OW 3031   1.540   0.274   5.711
  760SOL    HW1 3032   1.479   0.199   5.734
  760SOL    HW2 3033   1.562   0.326   5.794
  761SOL     OW 3034   1.303   0.838   5.628
  761SOL    HW1 3035   1.337   0.745   5.643
  761SOL    HW2 3036   1.321   0.865   5.533
  762SOL     OW 3037   1.068   1.333   6.435
  762SOL    HW1 3038   1.075   1.249   6.380
  762SOL    HW2 3039   1.130   1.402   6.399
  763SOL     OW 3040   0.319   0.810   6.535
  763SOL    HW1 3041   0.412   0.846   6.540
  763SOL    HW2 3042   0.313   0.725   6.587
  764SOL     OW 3043   0.339   0.509   6.592
  764SOL    HW1 3044   0.287   0.426   6.575
  764SOL    HW2 3045   0.416   0.514   6.528
  765SOL     OW 3046   1.138   0.380   7.264
  765SOL    HW1 3047   1.093   0.443   7.328
  765SOL    HW2 3048   1.231   0.411   7.247
  766SOL     OW 3049   1.160   0.207   7.063
  766SOL    HW1 3050   1.160   0.271   7.140
  766SOL    HW2 3051   1.188   0.255   6.980
  767SOL     OW 3052   0.008   1.326   5.786
  767SOL    HW1 3053  -0.085   1.347   5.755
  767SOL    HW2 3054   0.018   1.227   5.799
  768SOL     OW 3055   0.088   1.801   6.513
  768SOL    HW1 3056   0.046   1.715   6.486
  768SOL    HW2 3057   0.182   1.804   6.479
  769SOL     OW 3058   0.504   1.568   6.496
  769SOL    HW1 3059   0.570   1.642   6.505
  769SOL    HW2 3060   0.548   1.489   6.454
  770SOL     OW 3061   1.002   0.796   6.824
  770SOL    HW1 3062   1.043   0.764   6.910
  770SOL    HW2 3063   0.906   0.769   6.821
  771SOL     OW 3064   0.040   0.544   6.700
  771SOL    HW1 3065   0.125   0.511   6.659
  771SOL    HW2 3066   0.053   0.559   6.798
  772SOL     OW 3067   0.189   0.520   7.308
  772SOL    HW1 3068   0.248   0.480   7.238
  772SOL    HW2 3069   0.131   0.591   7.267
  773SOL     OW 3070   1.369   0.950   7.246
  773SOL    HW1 3071   1.408   1.039   7.266
  773SOL    HW2 3072   1.379   0.930   7.149
  774SOL     OW 3073   0.815   0.572   5.911
  774SOL    HW1 3074   0.822   0.483   5.865
  774SOL    HW2 3075   0.721   0.606   5.903
  775SOL     OW 3076   1.657   0.604   6.792
  775SOL    HW1 3077   1.619   0.535   6.854
  775SOL    HW2 3078   1.739   0.568   6.748
  776SOL     OW 3079   0.252   1.564   7.330
  776SOL    HW1 3080   0.222   1.621   7.406
  776SOL    HW2 3081   0.245   1.467   7.356
  777SOL     OW 3082   0.671   0.464   6.855
  777SOL    HW1 3083   0.637   0.375   6.825
  777SOL    HW2 3084   0.697   0.518   6.775
  778SOL     OW 3085   0.930   1.678   7.051
  778SOL    HW1 3086   0.906   1.660   6.956
  778SOL    HW2 3087   0.960   1.772   7.061
  779SOL     OW 3088   0.473   0.500   5.777
  779SOL    HW1 3089   0.534   0.580   5.781
  779SOL    HW2 3090   0.378   0.531   5.784
  780SOL     OW 3091   0.159   1.137   7.052
  780SOL    HW1 3092   0.181   1.076   7.128
  780SOL    HW2 3093   0.169   1.088   6.966
  781SOL     OW 3094   1.347   1.059   6.820
  781SOL    HW1 3095   1.371   0.996   6.746
  781SOL    HW2 3096   1.257   1.099   6.802
  782SOL     OW 3097   1.302   0.855   5.895
  782SOL    HW1 3098   1.216   0.824   5.937
  782SOL    HW2 3099   1.298   0.841   5.796
  783SOL     OW 3100   1.759   1.747   6.740
  783SOL    HW1 3101   1.820   1.777   6.667
  783SOL    HW2 3102   1.721   1.658   6.718
  784SOL     OW 3103   1.252   1.731   6.714
  784SOL    HW1 3104   1.336   1.736   6.660
  784SOL    HW2 3105   1.229   1.635   6.732
  785SOL     OW 3106   0.083   1.258   6.608
  785SOL    HW1 3107   0.078   1.257   6.708
  785SOL    HW2 3108   0.000   1.217   6.570
  786SOL     OW 3109   0.688   1.662   7.302
  786SOL    HW1 3110   0.632   1.743   7.311
  786SOL    HW2 3111   0.740   1.666   7.216
  787SOL     OW 3112   1.726   0.135   6.109
  787SOL    HW1 3113   1.799   0.118   6.042
  787SOL    HW2 3114   1.695   0.048   6.147
  788SOL     OW 3115   1.388   1.573   6.063
  788SOL    HW1 3116   1.455   1.585   5.989
  788SOL    HW2 3117   1.348   1.662   6.086
  789SOL     OW 3118   0.130   1.794   7.437
  789SOL    HW1 3119   0.089   1.720   7.490
  789SOL    HW2 3120   0.194   1.845   7.495
  790SOL     OW 3121   1.280   0.927   6.258
  790SOL    HW1 3122   1.340   0.846   6.260
  790SOL    HW2 3123   1.320   0.996   6.198
  791SOL     OW 3124   0.830   1.273   7.008
  791SOL    HW1 3125   0.825   1.306   7.103
  791SOL    HW2 3126   0.744   1.292   6.962
  792SOL     OW 3127   0.672   1.616   5.740
  792SOL    HW1 3128   0.681   1.626   5.641
  792SOL    HW2 3129   0.632   1.527   5.761
  793SOL     OW 3130   1.650   1.720   6.980
  793SOL    HW1 3131   1.703   1.730   6.896
  793SOL    HW2 3132   1.623   1.810   7.014
  794SOL     OW 3133   1.841   0.175   6.549
  794SOL    HW1 3134   1.880   0.090   6.513
  794SOL    HW2 3135   1.743   0.177   6.530
  795SOL     OW 3136   0.263   0.326   6.306
  795SOL    HW1 3137   0.184   0.377   6.272
  795SOL    HW2 3138   0.254   0.311   6.404
  796SOL     OW 3139   1.194   1.612   5.617
  796SOL    HW1 3140   1.200   1.519   5.654
  796SOL    HW2 3141   1.135   1.612   5.537
  797SOL     OW 3142   0.822   1.002   6.958
  797SOL    HW1 3143   0.862   1.001   6.866
  797SOL    HW2 3144   0.832   1.094   6.998
  798SOL     OW 3145   0.916   0.910   5.877
  798SOL    HW1 3146   0.979   0.948   5.809
  798SOL    HW2 3147   0.956   0.827   5.916
  799SOL     OW 3148   1.504   1.607   5.630
  799SOL    HW1 3149   1.412   1.644   5.637
  799SOL    HW2 3150   1.542   1.627   5.540
  800SOL     OW 3151   0.372   1.288   7.076
  800SOL    HW1 3152   0.359   1.381   7.042
  800SOL    HW2 3153   0.288   1.236   7.063
  801SOL     OW 3154   1.614   1.292   6.875
  801SOL    HW1 3155   1.674   1.295   6.955
  801SOL    HW2 3156   1.539   1.356   6.888
  802SOL     OW 3157   1.039   1.098   6.282
  802SOL    HW1 3158   0.969   1.051   6.336
  802SOL    HW2 3159   1.098   1.030   6.239
  803SOL     OW 3160   1.014   0.236   6.557
  803SOL    HW1 3161   1.006   0.200   6.464
  803SOL    HW2 3162   1.012   0.160   6.622
  804SOL     OW 3163   0.590   1.487   6.077
  804SOL    HW1 3164   0.632   1.429   6.007
  804SOL    HW2 3165   0.546   1.566   6.033
  805SOL     OW 3166   1.709   0.385   6.967
  805SOL    HW1 3167   1.782   0.454   6.971
  805SOL    HW2 3168   1.737   0.310   6.908
  806SOL     OW 3169   0.255   1.348   5.876
  806SOL    HW1 3170   0.159   1.349   5.849
  806SOL    HW2 3171   0.267   1.401   5.960
  807SOL     OW 3172   0.105   1.013   7.312
  807SOL    HW1 3173   0.028   0.980   7.366
  807SOL    HW2 3174   0.190   0.983   7.354
  808SOL     OW 3175   0.672   0.203   7.075
  808SOL    HW1 3176   0.762   0.187   7.035
  808SOL    HW2 3177   0.680   0.208   7.174
  809SOL     OW 3178   0.075   0.345   5.619
  809SOL    HW1 3179  -0.017   0.317   5.590
  809SOL    HW2 3180   0.106   0.422   5.563
  810SOL     OW 3181   1.440   0.856   6.984
  810SOL    HW1 3182   1.383   0.908   6.921
  810SOL    HW2 3183   1.536   0.868   6.960
  811SOL     OW 3184   0.072   0.166   5.904
  811SOL    HW1 3185   0.055   0.249   5.850
  811SOL    HW2 3186   0.162   0.129   5.882
  812SOL     OW 3187   1.183   1.335   5.705
  812SOL    HW1 3188   1.084   1.324   5.707
  812SOL    HW2 3189   1.217   1.350   5.798
  813SOL     OW 3190   0.613   0.842   7.017
  813SOL    HW1 3191   0.669   0.923   7.000
  813SOL    HW2 3192   0.672   0.762   7.020
  814SOL     OW 3193   1.493   1.767   6.545
  814SOL    HW1 3194   1.526   1.831   6.476
  814SOL    HW2 3195   1.559   1.761   6.620
  815SOL     OW 3196   0.716   0.565   7.294
  815SOL    HW1 3197   0.735   0.630   7.368
  815SOL    HW2 3198   0.776   0.485   7.303
  816SOL     OW 3199   1.450   1.220   7.219
  816SOL    HW1 3200   1.441   1.210   7.318
  816SOL    HW2 3201   1.546   1.213   7.193
  817SOL     OW 3202   0.390   1.741   7.146
  817SOL    HW1 3203   0.299   1.782   7.144
  817SOL    HW2 3204   0.383   1.647   7.178
  818SOL     OW 3205   1.674   0.883   6.840
  818SOL    HW1 3206   1.647   0.794   6.803
  818SOL    HW2 3207   1.675   0.951   6.767
  819SOL     OW 3208   1.225   0.325   6.035
  819SOL    HW1 3209   1.290   0.251   6.024
  819SOL    HW2 3210   1.245   0.375   6.119
  820SOL     OW 3211   0.594   0.745   6.238
  820SOL    HW1 3212   0.644   0.830   6.219
  820SOL    HW2 3213   0.506   0.747   6.190
  821SOL     OW 3214   1.777   0.342   7.228
  821SOL    HW1 3215   1.760   0.373   7.134
  821SOL    HW2 3216   1.693   0.305   7.266
  822SOL     OW 3217   1.730   0.934   7.103
  822SOL    HW1 3218   1.768   1.025   7.118
  822SOL    HW2 3219   1.722   0.917   7.004
  823SOL     OW 3220   0.859   1.374   5.602
  823SOL    HW1 3221   0.813   1.389   5.690
  823SOL    HW2 3222   0.903   1.459   5.572
  824SOL     OW 3223   0.661   1.790   6.539
  824SOL    HW1 3224   0.615   1.878   6.526
  824SOL    HW2 3225   0.760   1.802   6.532
  825SOL     OW 3226   0.859   0.956   6.447
  825SOL    HW1 3227   0.913   0.887   6.495
  825SOL    HW2 3228   0.827   1.025   6.513
  826SOL     OW 3229   1.083   0.984   5.673
  826SOL    HW1 3230   1.060   1.037   5.591
  826SOL    HW2 3231   1.164   0.928   5.654
  827SOL     OW 3232   1.861   1.569   6.437
  827SOL    HW1 3233   1.790   1.557   6.367
  827SOL    HW2 3234   1.862   1.490   6.497
  828SOL     OW 3235   0.221   1.314   7.430
  828SOL    HW1 3236   0.156   1.241   7.409
  828SOL    HW2 3237   0.225   1.328   7.528
  829SOL     OW 3238   0.079   1.240   6.239
  829SOL    HW1 3239   0.078   1.193   6.327
  829SOL    HW2 3240   0.161   1.212   6.188
  830SOL     OW 3241   0.672   1.391   7.210
  830SOL    HW1 3242   0.594   1.341   7.248
  830SOL    HW2 3243   0.669   1.486   7.241
  831SOL     OW 3244   1.824   0.192   6.813
  831SOL    HW1 3245   1.820   0.102   6.857
  831SOL    HW2 3246   1.827   0.181   6.714
  832SOL     OW 3247   0.428   0.424   6.106
  832SOL    HW1 3248   0.458   0.352   6.044
  832SOL    HW2 3249   0.389   0.384   6.189
  833SOL     OW 3250   1.705   1.487   6.690
  833SOL    HW1 3251   1.612   1.462   6.663
  833SOL    HW2 3252   1.731   1.437   6.772
  834SOL     OW 3253   0.317   0.547   6.866
  834SOL    HW1 3254   0.355   0.488   6.938
  834SOL    HW2 3255   0.357   0.521   6.778
  835SOL     OW 3256   0.812   1.586   6.273
  835SOL    HW1 3257   0.844   1.596   6.179
  835SOL    HW2 3258   0.733   1.524   6.275
  836SOL     OW 3259   1.424   0.214   6.698
  836SOL    HW1 3260   1.476   0.149   6.753
  836SOL    HW2 3261   1.375   0.277   6.759
  837SOL     OW 3262   1.001   0.034   6.740
  837SOL    HW1 3263   0.938  -0.038   6.709
  837SOL    HW2 3264   1.094  -0.002   6.740
  838SOL     OW 3265   0.770   1.330   5.887
  838SOL    HW1 3266   0.724   1.243   5.904
  838SOL    HW2 3267   0.861   1.327   5.928
  839SOL     OW 3268   0.618   1.567   6.870
  839SOL    HW1 3269   0.613   1.649   6.927
  839SOL    HW2 3270   0.707   1.564   6.825
  840SOL     OW 3271   1.352   0.052   5.754
  840SOL    HW1 3272   1.387   0.011   5.670
  840SOL    HW2 3273   1.262   0.014   5.774
  841SOL     OW 3274   1.300   0.453   6.277
  841SOL    HW1 3275   1.241   0.533   6.281
  841SOL    HW2 3276   1.315   0.418   6.370
  842SOL     OW 3277   1.593   0.221   6.468
  842SOL    HW1 3278   1.509   0.220   6.522
  842SOL    HW2 3279   1.595   0.304   6.412
  843SOL     OW 3280   0.039   1.077   5.886
  843SOL    HW1 3281   0.138   1.066   5.877
  843SOL    HW2 3282  -0.001   0.991   5.918
  844SOL     OW 3283   0.875   1.646   5.923
  844SOL    HW1 3284   0.798   1.611   5.869
  844SOL    HW2 3285   0.843   1.717   5.985
  845SOL     OW 3286   0.230   0.628   7.561
  845SOL    HW1 3287   0.137   0.626   7.598
  845SOL    HW2 3288   0.231   0.589   7.469
  846SOL     OW 3289   0.225   0.275   8.444
  846SOL    HW1 3290   0.260   0.258   8.536
  846SOL    HW2 3291   0.137   0.230   8.432
  847SOL     OW 3292   0.019   0.368   8.095
  847SOL    HW1 3293  -0.063   0.411   8.134
  847SOL    HW2 3294  -0.009   0.295   8.032
  848SOL     OW 3295   0.569   1.275   8.613
  848SOL    HW1 3296   0.476   1.268   8.576
  848SOL    HW2 3297   0.580   1.364   8.657
  849SOL     OW 3298   1.555   1.511   8.151
  849SOL    HW1 3299   1.498   1.495   8.232
  849SOL    HW2 3300   1.496   1.521   8.071
  850SOL     OW 3301   1.135   0.703   8.165
  850SOL    HW1 3302   1.192   0.781   8.140
  850SOL    HW2 3303   1.075   0.729   8.241
  851SOL     OW 3304   1.755   0.607   7.679
  851SOL    HW1 3305   1.743   0.594   7.580
  851SOL    HW2 3306   1.725   0.526   7.728
  852SOL     OW 3307   0.768   1.144   8.471
  852SOL    HW1 3308   0.690   1.161   8.531
  852SOL    HW2 3309   0.802   1.231   8.435
  853SOL     OW 3310   0.850   0.798   9.271
  853SOL    HW1 3311   0.846   0.874   9.336
  853SOL    HW2 3312   0.872   0.834   9.180
  854SOL     OW 3313   0.685   1.012   8.113
  854SOL    HW1 3314   0.754   0.996   8.183
  854SOL    HW2 3315   0.612   1.069   8.151
  855SOL     OW 3316   0.686   1.161   9.251
  855SOL    HW1 3317   0.746   1.240   9.265
  855SOL    HW2 3318   0.600   1.192   9.210
  856SOL     OW 3319   0.335   1.435   8.509
  856SOL    HW1 3320   0.257   1.404   8.456
  856SOL    HW2 3321   0.393   1.493   8.452
  857SOL     OW 3322   1.460   1.505   8.787
  857SOL    HW1 3323   1.484   1.599   8.813
  857SOL    HW2 3324   1.444   1.451   8.869
  858SOL     OW 3325   0.438   0.392   8.947
  858SOL    HW1 3326   0.520   0.336   8.956
  858SOL    HW2 3327   0.357   0.334   8.951
  859SOL     OW 3328   1.603   0.447   8.185
  859SOL    HW1 3329   1.529   0.493   8.135
  859SOL    HW2 3330   1.654   0.515   8.238
  860SOL     OW 3331   0.231   1.713   7.931
  860SOL    HW1 3332   0.265   1.790   7.985
  860SOL    HW2 3333   0.275   1.713   7.841
  861SOL     OW 3334   1.127   1.341   9.138
  861SOL    HW1 3335   1.174   1.341   9.226
  861SOL    HW2 3336   1.079   1.254   9.127
  862SOL     OW 3337   0.230   1.434   7.986
  862SOL    HW1 3338   0.204   1.530   7.986
  862SOL    HW2 3339   0.159   1.380   8.031
  863SOL     OW 3340   0.240   1.091   8.334
  863SOL    HW1 3341   0.254   1.007   8.386
  863SOL    HW2 3342   0.185   1.155   8.389
  864SOL     OW 3343   0.620   1.786   8.887
  864SOL    HW1 3344   0.528   1.769   8.922
  864SOL    HW2 3345   0.648   1.878   8.913
  865SOL     OW 3346   0.606   0.964   7.571
  865SOL    HW1 3347   0.613   1.048   7.517
  865SOL    HW2 3348   0.652   0.977   7.659
  866SOL     OW 3349   1.594   0.114   8.928
  866SOL    HW1 3350   1.576   0.181   8.856
  866SOL    HW2 3351   1.591   0.160   9.017
  867SOL     OW 3352   0.122   0.643   8.011
  867SOL    HW1 3353   0.077   0.555   8.028
  867SOL    HW2 3354   0.121   0.697   8.095
  868SOL     OW 3355   1.842   1.767   7.807
  868SOL    HW1 3356   1.896   1.738   7.887
  868SOL    HW2 3357   1.872   1.857   7.778
  869SOL     OW 3358   0.027   1.596   7.565
  869SOL    HW1 3359   0.008   1.500   7.586
  869SOL    HW2 3360  -0.006   1.654   7.640
  870SOL     OW 3361   1.689   0.922   8.060
  870SOL    HW1 3362   1.784   0.893   8.068
  870SOL    HW2 3363   1.681   0.987   7.985
  871SOL     OW 3364   1.641   1.108   7.880
  871SOL    HW1 3365   1.727   1.110   7.828
  871SOL    HW2 3366   1.655   1.155   7.968
  872SOL     OW 3367   0.113   0.737   9.045
  872SOL    HW1 3368   0.201   0.724   9.090
  872SOL    HW2 3369   0.100   0.834   9.023
  873SOL     OW 3370   0.613   1.365   8.174
  873SOL    HW1 3371   0.564   1.278   8.183
  873SOL    HW2 3372   0.590   1.408   8.087
  874SOL     OW 3373   1.293   1.228   8.871
  874SOL    HW1 3374   1.330   1.155   8.813
  874SOL    HW2 3375   1.345   1.233   8.956
  875SOL     OW 3376   0.809   0.004   7.950
  875SOL    HW1 3377   0.849   0.095   7.941
  875SOL    HW2 3378   0.709   0.012   7.956
  876SOL     OW 3379   0.197   0.976   8.712
  876SOL    HW1 3380   0.286   0.931   8.698
  876SOL    HW2 3381   0.124   0.911   8.693
  877SOL     OW 3382   1.525   0.999   7.638
  877SOL    HW1 3383   1.462   0.923   7.651
  877SOL    HW2 3384   1.573   1.017   7.724
  878SOL     OW 3385   1.187   1.792   9.064
  878SOL    HW1 3386   1.211   1.852   8.988
  878SOL    HW2 3387   1.194   1.697   9.034
  879SOL     OW 3388   0.317   0.251   9.249
  879SOL    HW1 3389   0.388   0.322   9.255
  879SOL    HW2 3390   0.229   0.290   9.277
  880SOL     OW 3391   1.466   1.417   8.401
  880SOL    HW1 3392   1.407   1.423   8.481
  880SOL    HW2 3393   1.451   1.329   8.355
  881SOL     OW 3394   1.667   1.714   8.020
  881SOL    HW1 3395   1.626   1.691   7.932
  881SOL    HW2 3396   1.649   1.640   8.085
  882SOL     OW 3397   0.598   0.729   7.718
  882SOL    HW1 3398   0.622   0.798   7.650
  882SOL    HW2 3399   0.520   0.762   7.772
  883SOL     OW 3400   1.281   0.345   8.392
  883SOL    HW1 3401   1.195   0.295   8.379
  883SOL    HW2 3402   1.343   0.291   8.448
  884SOL     OW 3403   1.576   1.662   7.755
  884SOL    HW1 3404   1.665   1.708   7.758
  884SOL    HW2 3405   1.555   1.638   7.660
  885SOL     OW 3406   0.807   0.605   8.913
  885SOL    HW1 3407   0.760   0.602   9.002
  885SOL    HW2 3408   0.756   0.550   8.847
  886SOL     OW 3409   1.394   0.469   9.122
  886SOL    HW1 3410   1.374   0.512   9.210
  886SOL    HW2 3411   1.472   0.407   9.131
  887SOL     OW 3412   0.973   0.890   9.020
  887SOL    HW1 3413   1.019   0.806   8.991
  887SOL    HW2 3414   0.917   0.924   8.945
  888SOL     OW 3415   0.991   0.410   8.690
  888SOL    HW1 3416   0.914   0.444   8.744
  888SOL    HW2 3417   0.957   0.359   8.611
  889SOL     OW 3418   1.041   0.701   7.877
  889SOL    HW1 3419   1.067   0.697   7.973
  889SOL    HW2 3420   0.956   0.650   7.863
  890SOL     OW 3421   0.076   0.811   8.237
  890SOL    HW1 3422   0.175   0.799   8.246
  890SOL    HW2 3423   0.052   0.906   8.258
  891SOL     OW 3424   0.130   1.821   9.019
  891SOL    HW1 3425   0.120   1.806   9.118
  891SOL    HW2 3426   0.044   1.857   8.983
  892SOL     OW 3427   0.865   0.348   7.643
  892SOL    HW1 3428   0.924   0.411   7.594
  892SOL    HW2 3429   0.884   0.254   7.614
  893SOL     OW 3430   1.719   0.585   9.279
  893SOL    HW1 3431   1.693   0.674   9.243
  893SOL    HW2 3432   1.717   0.517   9.206
  894SOL     OW 3433   1.362   1.144   7.993
  894SOL    HW1 3434   1.445   1.115   7.945
  894SOL    HW2 3435   1.313   1.211   7.937
  895SOL     OW 3436   0.550   0.196   8.333
  895SOL    HW1 3437   0.545   0.191   8.433
  895SOL    HW2 3438   0.552   0.292   8.304
  896SOL     OW 3439   1.008   1.456   7.925
  896SOL    HW1 3440   0.962   1.528   7.873
  896SOL    HW2 3441   1.004   1.476   8.023
  897SOL     OW 3442   0.351   1.801   8.301
  897SOL    HW1 3443   0.401   1.715   8.307
  897SOL    HW2 3444   0.416   1.878   8.298
  898SOL     OW 3445   1.795   1.066   8.321
  898SOL    HW1 3446   1.733   1.051   8.245
  898SOL    HW2 3447   1.743   1.077   8.406
  899SOL     OW 3448   1.227   1.550   8.954
  899SOL    HW1 3449   1.233   1.473   9.018
  899SOL    HW2 3450   1.175   1.524   8.874
  900SOL     OW 3451   0.321   0.943   7.690
  900SOL    HW1 3452   0.403   0.982   7.648
  900SOL    HW2 3453   0.294   0.861   7.641
  901SOL     OW 3454   1.458   0.735   8.176
  901SOL    HW1 3455   1.453   0.670   8.251
  901SOL    HW2 3456   1.538   0.794   8.189
  902SOL     OW 3457   0.461   1.266   9.175
  902SOL    HW1 3458   0.411   1.267   9.089
  902SOL    HW2 3459   0.398   1.248   9.251
  903SOL     OW 3460   1.111   1.776   7.685
  903SOL    HW1 3461   1.051   1.714   7.735
  903SOL    HW2 3462   1.142   1.732   7.600
  904SOL     OW 3463   0.202   0.285   8.946
  904SOL    HW1 3464   0.122   0.345   8.933
  904SOL    HW2 3465   0.192   0.236   9.032
  905SOL     OW 3466   1.632   1.377   7.529
  905SOL    HW1 3467   1.600   1.471   7.519
  905SOL    HW2 3468   1.556   1.314   7.517
  906SOL     OW 3469   0.464   1.743   7.771
  906SOL    HW1 3470   0.497   1.782   7.857
  906SOL    HW2 3471   0.540   1.736   7.706
  907SOL     OW 3472   1.400   0.107   7.874
  907SOL    HW1 3473   1.376   0.070   7.784
  907SOL    HW2 3474   1.499   0.123   7.878
  908SOL     OW 3475   0.249   1.785   8.689
  908SOL    HW1 3476   0.306   1.720   8.739
  908SOL    HW2 3477   0.233   1.752   8.596
  909SOL     OW 3478   0.940   1.698   8.352
  909SOL    HW1 3479   1.020   1.641   8.373
  909SOL    HW2 3480   0.891   1.658   8.275
  910SOL     OW 3481   0.382   0.700   7.928
  910SOL    HW1 3482   0.427   0.610   7.925
  910SOL    HW2 3483   0.288   0.689   7.961
  911SOL     OW 3484   1.547   0.222   9.177
  911SOL    HW1 3485   1.542   0.259   9.269
  911SOL    HW2 3486   1.475   0.153   9.165
  912SOL     OW 3487   0.614   0.122   7.565
  912SOL    HW1 3488   0.712   0.100   7.572
  912SOL    HW2 3489   0.583   0.105   7.472
  913SOL     OW 3490   0.781   0.264   9.197
  913SOL    HW1 3491   0.848   0.203   9.240
  913SOL    HW2 3492   0.708   0.283   9.262
  914SOL     OW 3493   0.888   1.514   8.643
  914SOL    HW1 3494   0.865   1.489   8.549
  914SOL    HW2 3495   0.949   1.445   8.682
  915SOL     OW 3496   1.351   0.590   8.881
  915SOL    HW1 3497   1.379   0.547   8.966
  915SOL    HW2 3498   1.376   0.686   8.882
  916SOL     OW 3499   0.803   1.402   8.372
  916SOL    HW1 3500   0.893   1.416   8.330
  916SOL    HW2 3501   0.732   1.404   8.301
  917SOL     OW 3502   0.922   0.503   8.347
  917SOL    HW1 3503   0.897   0.494   8.251
  917SOL    HW2 3504   0.970   0.421   8.378
  918SOL     OW 3505   0.539   0.064   7.960
  918SOL    HW1 3506   0.458   0.065   8.018
  918SOL    HW2 3507   0.542   0.147   7.905
  919SOL     OW 3508   1.434   1.188   7.489
  919SOL    HW1 3509   1.466   1.112   7.546
  919SOL    HW2 3510   1.342   1.215   7.519
  920SOL     OW 3511   0.297   0.035   7.619
  920SOL    HW1 3512   0.346   0.119   7.598
  920SOL    HW2 3513   0.359  -0.030   7.664
  921SOL     OW 3514   0.935   0.236   7.928
  921SOL    HW1 3515   0.887   0.277   7.850
  921SOL    HW2 3516   1.034   0.234   7.909
  922SOL     OW 3517   1.076   0.683   8.912
  922SOL    HW1 3518   0.996   0.622   8.915
  922SOL    HW2 3519   1.157   0.630   8.888
  923SOL     OW 3520   1.227   1.570   8.241
  923SOL    HW1 3521   1.248   1.644   8.176
  923SOL    HW2 3522   1.295   1.570   8.314
  924SOL     OW 3523   0.459   1.152   8.189
  924SOL    HW1 3524   0.388   1.125   8.254
  924SOL    HW2 3525   0.433   1.124   8.096
  925SOL     OW 3526   1.271   1.797   8.039
  925SOL    HW1 3527   1.315   1.861   7.975
  925SOL    HW2 3528   1.221   1.849   8.109
  926SOL     OW 3529   1.032   0.549   7.464
  926SOL    HW1 3530   0.991   0.631   7.425
  926SOL    HW2 3531   1.096   0.575   7.537
  927SOL     OW 3532   0.078   0.556   8.834
  927SOL    HW1 3533   0.170   0.555   8.793
  927SOL    HW2 3534   0.072   0.630   8.901
  928SOL     OW 3535   0.561   0.222   8.595
  928SOL    HW1 3536   0.599   0.138   8.632
  928SOL    HW2 3537   0.473   0.241   8.639
  929SOL     OW 3538   0.866   0.454   8.090
  929SOL    HW1 3539   0.834   0.526   8.028
  929SOL    HW2 3540   0.890   0.373   8.037
  930SOL     OW 3541   1.017   0.039   8.201
  930SOL    HW1 3542   0.945   0.044   8.132
  930SOL    HW2 3543   0.993  -0.030   8.270
  931SOL     OW 3544   1.429   1.173   8.315
  931SOL    HW1 3545   1.374   1.089   8.308
  931SOL    HW2 3546   1.455   1.202   8.223
  932SOL     OW 3547   1.466   0.590   8.440
  932SOL    HW1 3548   1.436   0.495   8.447
  932SOL    HW2 3549   1.539   0.606   8.506
  933SOL     OW 3550   1.857   0.833   7.825
  933SOL    HW1 3551   1.899   0.769   7.889
  933SOL    HW2 3552   1.819   0.782   7.747
  934SOL     OW 3553   0.488   1.385   7.622
  934SOL    HW1 3554   0.401   1.370   7.669
  934SOL    HW2 3555   0.471   1.411   7.527
  935SOL     OW 3556   1.664   1.280   8.105
  935SOL    HW1 3557   1.763   1.288   8.119
  935SOL    HW2 3558   1.619   1.364   8.136
  936SOL     OW 3559   1.390   0.575   7.526
  936SOL    HW1 3560   1.336   0.554   7.607
  936SOL    HW2 3561   1.481   0.534   7.535
  937SOL     OW 3562   0.527   0.256   7.776
  937SOL    HW1 3563   0.554   0.197   7.701
  937SOL    HW2 3564   0.527   0.351   7.745
  938SOL     OW 3565   1.754   1.223   9.036
  938SOL    HW1 3566   1.845   1.184   9.023
  938SOL    HW2 3567   1.762   1.319   9.060
  939SOL     OW 3568   1.064   1.347   8.788
  939SOL    HW1 3569   0.984   1.324   8.843
  939SOL    HW2 3570   1.147   1.321   8.837
  940SOL     OW 3571   1.592   1.629   9.073
  940SOL    HW1 3572   1.619   1.663   8.983
  940SOL    HW2 3573   1.671   1.591   9.119
  941SOL     OW 3574   1.111   1.195   8.548
  941SOL    HW1 3575   1.071   1.239   8.629
  941SOL    HW2 3576   1.070   1.232   8.465
  942SOL     OW 3577   1.638   1.099   8.527
  942SOL    HW1 3578   1.643   1.180   8.586
  942SOL    HW2 3579   1.552   1.101   8.476
  943SOL     OW 3580   0.915   0.089   8.850
  943SOL    HW1 3581   0.940   0.069   8.755
  943SOL    HW2 3582   0.987   0.145   8.892
  944SOL     OW 3583   0.980   1.116   9.167
  944SOL    HW1 3584   0.881   1.122   9.177
  944SOL    HW2 3585   1.003   1.036   9.111
  945SOL     OW 3586   0.705   1.050   7.816
  945SOL    HW1 3587   0.691   1.057   7.915
  945SOL    HW2 3588   0.789   0.999   7.798
  946SOL     OW 3589   0.410   0.813   8.699
  946SOL    HW1 3590   0.496   0.825   8.749
  946SOL    HW2 3591   0.368   0.726   8.726
  947SOL     OW 3592   1.274   0.386   8.710
  947SOL    HW1 3593   1.295   0.460   8.774
  947SOL    HW2 3594   1.185   0.403   8.667
  948SOL     OW 3595   0.064   1.564   8.779
  948SOL    HW1 3596   0.018   1.646   8.745
  948SOL    HW2 3597   0.162   1.583   8.788
  949SOL     OW 3598   0.367   1.100   7.949
  949SOL    HW1 3599   0.360   1.183   7.893
  949SOL    HW2 3600   0.371   1.020   7.889
  950SOL     OW 3601   0.566   0.537   8.313
  950SOL    HW1 3602   0.578   0.603   8.239
  950SOL    HW2 3603   0.612   0.571   8.396
  951SOL     OW 3604   1.252   1.348   7.836
  951SOL    HW1 3605   1.302   1.425   7.876
  951SOL    HW2 3606   1.157   1.350   7.868
  952SOL     OW 3607   1.272   1.445   8.590
  952SOL    HW1 3608   1.319   1.458   8.677
  952SOL    HW2 3609   1.206   1.371   8.599
  953SOL     OW 3610   1.582   0.639   7.920
  953SOL    HW1 3611   1.551   0.700   7.993
  953SOL    HW2 3612   1.632   0.691   7.851
  954SOL     OW 3613   0.354   1.510   8.777
  954SOL    HW1 3614   0.333   1.466   8.690
  954SOL    HW2 3615   0.451   1.536   8.780
  955SOL     OW 3616   0.402   0.751   9.046
  955SOL    HW1 3617   0.470   0.806   8.999
  955SOL    HW2 3618   0.442   0.663   9.073
  956SOL     OW 3619   1.587   0.779   9.118
  956SOL    HW1 3620   1.495   0.817   9.113
  956SOL    HW2 3621   1.647   0.826   9.053
  957SOL     OW 3622   1.013   0.105   9.218
  957SOL    HW1 3623   1.019   0.190   9.166
  957SOL    HW2 3624   1.045   0.029   9.161
  958SOL     OW 3625   0.504   0.050   9.188
  958SOL    HW1 3626   0.462  -0.007   9.118
  958SOL    HW2 3627   0.438   0.119   9.220
  959SOL     OW 3628   0.573   0.870   8.477
  959SOL    HW1 3629   0.617   0.959   8.468
  959SOL    HW2 3630   0.510   0.870   8.554
  960SOL     OW 3631   1.360   0.862   8.493
  960SOL    HW1 3632   1.285   0.862   8.427
  960SOL    HW2 3633   1.397   0.770   8.502
  961SOL     OW 3634   1.209   0.525   7.723
  961SOL    HW1 3635   1.222   0.441   7.777
  961SOL    HW2 3636   1.180   0.599   7.783
  962SOL     OW 3637   0.307   0.213   8.679
  962SOL    HW1 3638   0.284   0.250   8.769
  962SOL    HW2 3639   0.277   0.118   8.673
  963SOL     OW 3640   0.037   1.310   8.730
  963SOL    HW1 3641   0.090   1.261   8.798
  963SOL    HW2 3642   0.059   1.408   8.735
  964SOL     OW 3643   0.732   0.634   8.512
  964SOL    HW1 3644   0.791   0.608   8.436
  964SOL    HW2 3645   0.704   0.730   8.501
  965SOL     OW 3646   1.728   0.935   9.302
  965SOL    HW1 3647   1.682   0.928   9.213
  965SOL    HW2 3648   1.666   0.979   9.368
  966SOL     OW 3649   0.307   0.063   8.066
  966SOL    HW1 3650   0.296   0.157   8.099
  966SOL    HW2 3651   0.302   0.000   8.143
  967SOL     OW 3652   1.622   0.367   7.822
  967SOL    HW1 3653   1.624   0.291   7.886
  967SOL    HW2 3654   1.574   0.444   7.862
  968SOL     OW 3655   1.023   0.766   8.414
  968SOL    HW1 3656   1.038   0.787   8.510
  968SOL    HW2 3657   0.993   0.671   8.405
  969SOL     OW 3658   0.980   1.573   9.148
  969SOL    HW1 3659   0.960   1.617   9.060
  969SOL    HW2 3660   1.019   1.482   9.132
  970SOL     OW 3661   1.859   1.518   9.053
  970SOL    HW1 3662   1.873   1.545   8.958
  970SOL    HW2 3663   1.942   1.540   9.106
  971SOL     OW 3664   0.350   0.898   9.252
  971SOL    HW1 3665   0.426   0.942   9.300
  971SOL    HW2 3666   0.385   0.851   9.170
  972SOL     OW 3667   1.540   0.274   7.573
  972SOL    HW1 3668   1.479   0.199   7.596
  972SOL    HW2 3669   1.562   0.326   7.656
  973SOL     OW 3670   1.303   0.838   7.490
  973SOL    HW1 3671   1.337   0.745   7.505
  973SOL    HW2 3672   1.321   0.865   7.395
  974SOL     OW 3673   1.068   1.333   8.297
  974SOL    HW1 3674   1.075   1.249   8.242
  974SOL    HW2 3675   1.130   1.402   8.261
  975SOL     OW 3676   0.319   0.810   8.397
  975SOL    HW1 3677   0.412   0.846   8.402
  975SOL    HW2 3678   0.313   0.725   8.449
  976SOL     OW 3679   0.339   0.509   8.454
  976SOL    HW1 3680   0.287   0.426   8.437
  976SOL    HW2 3681   0.416   0.514   8.390
  977SOL     OW 3682   1.138   0.380   9.126
  977SOL    HW1 3683   1.093   0.443   9.190
  977SOL    HW2 3684   1.231   0.411   9.109
  978SOL     OW 3685   1.160   0.207   8.925
  978SOL    HW1 3686   1.160   0.271   9.002
  978SOL    HW2 3687   1.188   0.255   8.842
  979SOL     OW 3688   0.008   1.326   7.648
  979SOL    HW1 3689  -0.085   1.347   7.617
  979SOL    HW2 3690   0.018   1.227   7.661
  980SOL     OW 3691   0.088   1.801   8.375
  980SOL    HW1 3692   0.046   1.715   8.348
  980SOL    HW2 3693   0.182   1.804   8.341
  981SOL     OW 3694   0.504   1.568   8.358
  981SOL    HW1 3695   0.570   1.642   8.367
  981SOL    HW2 3696   0.548   1.489   8.316
  982SOL     OW 3697   1.002   0.796   8.686
  982SOL    HW1 3698   1.043   0.764   8.772
  982SOL    HW2 3699   0.906   0.769   8.683
  983SOL     OW 3700   0.040   0.544   8.562
  983SOL    HW1 3701   0.125   0.511   8.521
  983SOL    HW2 3702   0.053   0.559   8.660
  984SOL     OW 3703   0.189   0.520   9.170
  984SOL    HW1 3704   0.248   0.480   9.100
  984SOL    HW2 3705   0.131   0.591   9.129
  985SOL     OW 3706   1.369   0.950   9.108
  985SOL    HW1 3707   1.408   1.039   9.128
  985SOL    HW2 3708   1.379   0.930   9.011
  986SOL     OW 3709   0.815   0.572   7.773
  986SOL    HW1 3710   0.822   0.483   7.727
  986SOL    HW2 3711   0.721   0.606   7.765
  987SOL     OW 3712   1.657   0.604   8.654
  987SOL    HW1 3713   1.619   0.535   8.716
  987SOL    HW2 3714   1.739   0.568   8.610
  988SOL     OW 3715   0.252   1.564   9.192
  988SOL    HW1 3716   0.222   1.621   9.268
  988SOL    HW2 3717   0.245   1.467   9.218
  989SOL     OW 3718   0.671   0.464   8.717
  989SOL    HW1 3719   0.637   0.375   8.687
  989SOL    HW2 3720   0.697   0.518   8.637
  990SOL     OW 3721   0.930   1.678   8.913
  990SOL    HW1 3722   0.906   1.660   8.818
  990SOL    HW2 3723   0.960   1.772   8.923
  991SOL     OW 3724   0.473   0.500   7.639
  991SOL    HW1 3725   0.534   0.580   7.643
  991SOL    HW2 3726   0.378   0.531   7.646
  992SOL     OW 3727   0.159   1.137   8.914
  992SOL    HW1 3728   0.181   1.076   8.990
  992SOL    HW2 3729   0.169   1.088   8.828
  993SOL     OW 3730   1.347   1.059   8.682
  993SOL    HW1 3731   1.371   0.996   8.608
  993SOL    HW2 3732   1.257   1.099   8.664
  994SOL     OW 3733   1.302   0.855   7.757
  994SOL    HW1 3734   1.216   0.824   7.799
  994SOL    HW2 3735   1.298   0.841   7.658
  995SOL     OW 3736   1.759   1.747   8.602
  995SOL    HW1 3737   1.820   1.777   8.529
  995SOL    HW2 3738   1.721   1.658   8.580
  996SOL     OW 3739   1.252   1.731   8.576
  996SOL    HW1 3740   1.336   1.736   8.522
  996SOL    HW2 3741   1.229   1.635   8.594
  997SOL     OW 3742   0.083   1.258   8.470
  997SOL    HW1 3743   0.078   1.257   8.570
  997SOL    HW2 3744   0.000   1.217   8.432
  998SOL     OW 3745   0.688   1.662   9.164
  998SOL    HW1 3746   0.632   1.743   9.173
  998SOL    HW2 3747   0.740   1.666   9.078
  999SOL     OW 3748   1.726   0.135   7.971
  999SOL    HW1 3749   1.799   0.118   7.904
  999SOL    HW2 3750   1.695   0.048   8.009
 1000SOL     OW 3751   1.388   1.573   7.925
 1000SOL    HW1 3752   1.455   1.585   7.851
 1000SOL    HW2 3753   1.348   1.662   7.948
 1001SOL     OW 3754   0.130   1.794   9.299
 1001SOL    HW1 3755   0.089   1.720   9.352
 1001SOL    HW2 3756   0.194   1.845   9.357
 1002SOL     OW 3757   1.280   0.927   8.120
 1002SOL    HW1 3758   1.340   0.846   8.122
 1002SOL    HW2 3759   1.320   0.996   8.060
 1003SOL     OW 3760   0.830   1.273   8.870
 1003SOL    HW1 3761   0.825   1.306   8.965
 1003SOL    HW2 3762   0.744   1.292   8.824
 1004SOL     OW 3763   0.672   1.616   7.602
 1004SOL    HW1 3764   0.681   1.626   7.503
 1004SOL    HW2 3765   0.632   1.527   7.623
 1005SOL     OW 3766   1.650   1.720   8.842
 1005SOL    HW1 3767   1.703   1.730   8.758
 1005SOL    HW2 3768   1.623   1.810   8.876
 1006SOL     OW 3769   1.841   0.175   8.411
 1006SOL    HW1 3770   1.880   0.090   8.375
 1006SOL    HW2 3771   1.743   0.177   8.392
 1007SOL     OW 3772   0.263   0.326   8.168
 1007SOL    HW1 3773   0.184   0.377   8.134
 1007SOL    HW2 3774   0.254   0.311   8.266
 1008SOL     OW 3775   1.194   1.612   7.479
 1008SOL    HW1 3776   1.200   1.519   7.516
 1008SOL    HW2 3777   1.135   1.612   7.399
 1009SOL     OW 3778   0.822   1.002   8.820
 1009SOL    HW1 3779   0.862   1.001   8.728
 1009SOL    HW2 3780   0.832   1.094   8.860
 1010SOL     OW 3781   0.916   0.910   7.739
 1010SOL    HW1 3782   0.979   0.948   7.671
 1010SOL    HW2 3783   0.956   0.827   7.778
 1011SOL     OW 3784   1.504   1.607   7.492
 1011SOL    HW1 3785   1.412   1.644   7.499
 1011SOL    HW2 3786   1.542   1.627   7.402
 1012SOL     OW 3787   0.372   1.288   8.938
 1012SOL    HW1 3788   0.359   1.381   8.904
 1012SOL    HW2 3789   0.288   1.236   8.925
 1013SOL     OW 3790   1.614   1.292   8.737
 1013SOL    HW1 3791   1.674   1.295   8.817
 1013SOL    HW2 3792   1.539   1.356   8.750
 1014SOL     OW 3793   1.039   1.098   8.144
 1014SOL    HW1 3794   0.969   1.051   8.198
 1014SOL    HW2 3795   1.098   1.030   8.101
 1015SOL     OW 3796   1.014   0.236   8.419
 1015SOL    HW1 3797   1.006   0.200   8.326
 1015SOL    HW2 3798   1.012   0.160   8.484
 1016SOL     OW 3799   0.590   1.487   7.939
 1016SOL    HW1 3800   0.632   1.429   7.869
 1016SOL    HW2 3801   0.546   1.566   7.895
 1017SOL     OW 3802   1.709   0.385   8.829
 1017SOL    HW1 3803   1.782   0.454   8.833
 1017SOL    HW2 3804   1.737   0.310   8.770
 1018SOL     OW 3805   0.255   1.348   7.738
 1018SOL    HW1 3806   0.159   1.349   7.711
 1018SOL    HW2 3807   0.267   1.401   7.822
 1019SOL     OW 3808   0.105   1.013   9.174
 1019SOL    HW1 3809   0.028   0.980   9.228
 1019SOL    HW2 3810   0.190   0.983   9.216
 1020SOL     OW 3811   0.672   0.203   8.937
 1020SOL    HW1 3812   0.762   0.187   8.897
 1020SOL    HW2 3813   0.680   0.208   9.036
 1021SOL     OW 3814   0.075   0.345   7.481
 1021SOL    HW1 3815  -0.017   0.317   7.452
 1021SOL    HW2 3816   0.106   0.422   7.425
 1022SOL     OW 3817   1.440   0.856   8.846
 1022SOL    HW1 3818   1.383   0.908   8.783
 1022SOL    HW2 3819   1.536   0.868   8.822
 1023SOL     OW 3820   0.072   0.166   7.766
 1023SOL    HW1 3821   0.055   0.249   7.712
 1023SOL    HW2 3822   0.162   0.129   7.744
 1024SOL     OW 3823   1.183   1.335   7.567
 1024SOL    HW1 3824   1.084   1.324   7.569
 1024SOL    HW2 3825   1.217   1.350   7.660
 1025SOL     OW 3826   0.613   0.842   8.879
 1025SOL    HW1 3827   0.669   0.923   8.862
 1025SOL    HW2 3828   0.672   0.762   8.882
 1026SOL     OW 3829   1.493   1.767   8.407
 1026SOL    HW1 3830   1.526   1.831   8.338
 1026SOL    HW2 3831   1.559   1.761   8.482
 1027SOL     OW 3832   0.716   0.565   9.156
 1027SOL    HW1 3833   0.735   0.630   9.230
 1027SOL    HW2 3834   0.776   0.485   9.165
 1028SOL     OW 3835   1.450   1.220   9.081
 1028SOL    HW1 3836   1.441   1.210   9.180
 1028SOL    HW2 3837   1.546   1.213   9.055
 1029SOL     OW 3838   0.390   1.741   9.008
 1029SOL    HW1 3839   0.299   1.782   9.006
 1029SOL    HW2 3840   0.383   1.647   9.040
 1030SOL     OW 3841   1.674   0.883   8.702
 1030SOL    HW1 3842   1.647   0.794   8.665
 1030SOL    HW2 3843   1.675   0.951   8.629
 1031SOL     OW 3844   1.225   0.325   7.897
 1031SOL    HW1 3845   1.290   0.251   7.886
 1031SOL    HW2 3846   1.245   0.375   7.981
 1032SOL     OW 3847   0.594   0.745   8.100
 1032SOL    HW1 3848   0.644   0.830   8.081
 1032SOL    HW2 3849   0.506   0.747   8.052
 1033SOL     OW 3850   1.777   0.342   9.090
 1033SOL    HW1 3851   1.760   0.373   8.996
 1033SOL    HW2 3852   1.693   0.305   9.128
 1034SOL     OW 3853   1.730   0.934   8.965
 1034SOL    HW1 3854   1.768   1.025   8.980
 1034SOL    HW2 3855   1.722   0.917   8.866
 1035SOL     OW 3856   0.859   1.374   7.464
 1035SOL    HW1 3857   0.813   1.389   7.552
 1035SOL    HW2 3858   0.903   1.459   7.434
 1036SOL     OW 3859   0.661   1.790   8.401
 1036SOL    HW1 3860   0.615   1.878   8.388
 1036SOL    HW2 3861   0.760   1.802   8.394
 1037SOL     OW 3862   0.859   0.956   8.309
 1037SOL    HW1 3863   0.913   0.887   8.357
 1037SOL    HW2 3864   0.827   1.025   8.375
 1038SOL     OW 3865   1.083   0.984   7.535
 1038SOL    HW1 3866   1.060   1.037   7.453
 1038SOL    HW2 3867   1.164   0.928   7.516
 1039SOL     OW 3868   1.861   1.569   8.299
 1039SOL    HW1 3869   1.790   1.557   8.229
 1039SOL    HW2 3870   1.862   1.490   8.359
 1040SOL     OW 3871   0.221   1.314   9.292
 1040SOL    HW1 3872   0.156   1.241   9.271
 1040SOL    HW2 3873   0.225   1.328   9.390
 1041SOL     OW 3874   0.079   1.240   8.101
 1041SOL    HW1 3875   0.078   1.193   8.189
 1041SOL    HW2 3876   0.161   1.212   8.050
 1042SOL     OW 3877   0.672   1.391   9.072
 1042SOL    HW1 3878   0.594   1.341   9.110
 1042SOL    HW2 3879   0.669   1.486   9.103
 1043SOL     OW 3880   1.824   0.192   8.675
 1043SOL    HW1 3881   1.820   0.102   8.719
 1043SOL    HW2 3882   1.827   0.181   8.576
 1044SOL     OW 3883   0.428   0.424   7.968
 1044SOL    HW1 3884   0.458   0.352   7.906
 1044SOL    HW2 3885   0.389   0.384   8.051
 1045SOL     OW 3886   1.705   1.487   8.552
 1045SOL    HW1 3887   1.612   1.462   8.525
 1045SOL    HW2 3888   1.731   1.437   8.634
 1046SOL     OW 3889   0.317   0.547   8.728
 1046SOL    HW1 3890   0.355   0.488   8.800
 1046SOL    HW2 3891   0.357   0.521   8.640
 1047SOL     OW 3892   0.812   1.586   8.135
 1047SOL    HW1 3893   0.844   1.596   8.041
 1047SOL    HW2 3894   0.733   1.524   8.137
 1048SOL     OW 3895   1.424   0.214   8.560
 1048SOL    HW1 3896   1.476   0.149   8.615
 1048SOL    HW2 3897   1.375   0.277   8.621
 1049SOL     OW 3898   1.001   0.034   8.602
 1049SOL    HW1 3899   0.938  -0.038   8.571
 1049SOL    HW2 3900   1.094  -0.002   8.602
 1050SOL     OW 3901   0.770   1.330   7.749
 1050SOL    HW1 3902   0.724   1.243   7.766
 1050SOL    HW2 3903   0.861   1.327   7.790
 1051SOL     OW 3904   0.618   1.567   8.732
 1051SOL    HW1 3905   0.613   1.649   8.789
 1051SOL    HW2 3906   0.707   1.564   8.687
 1052SOL     OW 3907   1.352   0.052   7.616
 1052SOL    HW1 3908   1.387   0.011   7.532
 1052SOL    HW2 3909   1.262   0.014   7.636
 1053SOL     OW 3910   1.300   0.453   8.139
 1053SOL    HW1 3911   1.241   0.533   8.143
 1053SOL    HW2 3912   1.315   0.418   8.232
 1054SOL     OW 3913   1.593   0.221   8.330
 1054SOL    HW1 3914   1.509   0.220   8.384
 1054SOL    HW2 3915   1.595   0.304   8.274
 1055SOL     OW 3916   0.039   1.077   7.748
 1055SOL    HW1 3917   0.138   1.066   7.739
 1055SOL    HW2 3918  -0.001   0.991   7.780
 1056SOL     OW 3919   0.875   1.646   7.785
 1056SOL    HW1 3920   0.798   1.611   7.731
 1056SOL    HW2 3921   0.843   1.717   7.847
 1057SOL     OW 3922   0.230   0.628   9.423
 1057SOL    HW1 3923   0.137   0.626   9.460
 1057SOL    HW2 3924   0.231   0.589   9.331
 1058SOL     OW 3925   0.225   0.275  10.306
 1058SOL    HW1 3926   0.260   0.258  10.398
 1058SOL    HW2 3927   0.137   0.230  10.294
 1059SOL     OW 3928   0.019   0.368   9.957
 1059SOL    HW1 3929  -0.063   0.411   9.996
 1059SOL    HW2 3930  -0.009   0.295   9.894
 1060SOL     OW 3931   0.569   1.275  10.475
 1060SOL    HW1 3932   0.476   1.268  10.438
 1060SOL    HW2 3933   0.580   1.364  10.519
 1061SOL     OW 3934   1.555   1.511  10.013
 1061SOL    HW1 3935   1.498   1.495  10.094
 1061SOL    HW2 3936   1.496   1.521   9.933
 1062SOL     OW 3937   1.135   0.703  10.027
 1062SOL    HW1 3938   1.192   0.781  10.002
 1062SOL    HW2 3939   1.075   0.729  10.103
 1063SOL     OW 3940   1.755   0.607   9.541
 1063SOL    HW1 3941   1.743   0.594   9.442
 1063SOL    HW2 3942   1.725   0.526   9.590
 1064SOL     OW 3943   0.768   1.144  10.333
 1064SOL    HW1 3944   0.690   1.161  10.393
 1064SOL    HW2 3945   0.802   1.231  10.297
 1065SOL     OW 3946   0.850   0.798  11.133
 1065SOL    HW1 3947   0.846   0.874  11.198
 1065SOL    HW2 3948   0.872   0.834  11.042
 1066SOL     OW 3949   0.685   1.012   9.975
 1066SOL    HW1 3950   0.754   0.996  10.045
 1066SOL    HW2 3951   0.612   1.069  10.013
 1067SOL     OW 3952   0.335   1.435  10.371
 1067SOL    HW1 3953   0.257   1.404  10.318
 1067SOL    HW2 3954   0.393   1.493  10.314
 1068SOL     OW 3955   1.460   1.505  10.649
 1068SOL    HW1 3956   1.484   1.599  10.675
 1068SOL    HW2 3957   1.444   1.451  10.731
 1069SOL     OW 3958   0.438   0.392  10.809
 1069SOL    HW1 3959   0.520   0.336  10.818
 1069SOL    HW2 3960   0.357   0.334  10.813
 1070SOL     OW 3961   1.603   0.447  10.047
 1070SOL    HW1 3962   1.529   0.493   9.997
 1070SOL    HW2 3963   1.654   0.515  10.100
 1071SOL     OW 3964   0.231   1.713   9.793
 1071SOL    HW1 3965   0.265   1.790   9.847
 1071SOL    HW2 3966   0.275   1.713   9.703
 1072SOL     OW 3967   0.230   1.434   9.848
 1072SOL    HW1 3968   0.204   1.530   9.848
 1072SOL    HW2 3969   0.159   1.380   9.893
 1073SOL     OW 3970   0.240   1.091  10.196
 1073SOL    HW1 3971   0.254   1.007  10.248
 1073SOL    HW2 3972   0.185   1.155  10.251
 1074SOL     OW 3973   0.620   1.786  10.749
 1074SOL    HW1 3974   0.528   1.769  10.784
 1074SOL    HW2 3975   0.648   1.878  10.775
 1075SOL     OW 3976   0.606   0.964   9.433
 1075SOL    HW1 3977   0.613   1.048   9.379
 1075SOL    HW2 3978   0.652   0.977   9.521
 1076SOL     OW 3979   1.594   0.114  10.790
 1076SOL    HW1 3980   1.576   0.181  10.718
 1076SOL    HW2 3981   1.591   0.160  10.879
 1077SOL     OW 3982   0.122   0.643   9.873
 1077SOL    HW1 3983   0.077   0.555   9.890
 1077SOL    HW2 3984   0.121   0.697   9.957
 1078SOL     OW 3985   1.842   1.767   9.669
 1078SOL    HW1 3986   1.896   1.738   9.749
 1078SOL    HW2 3987   1.872   1.857   9.640
 1079SOL     OW 3988   0.027   1.596   9.427
 1079SOL    HW1 3989   0.008   1.500   9.448
 1079SOL    HW2 3990  -0.006   1.654   9.502
 1080SOL     OW 3991   1.689   0.922   9.922
 1080SOL    HW1 3992   1.784   0.893   9.930
 1080SOL    HW2 3993   1.681   0.987   9.847
 1081SOL     OW 3994   1.641   1.108   9.742
 1081SOL    HW1 3995   1.727   1.110   9.690
 1081SOL    HW2 3996   1.655   1.155   9.830
 1082SOL     OW 3997   0.113   0.737  10.907
 1082SOL    HW1 3998   0.201   0.724  10.952
 1082SOL    HW2 3999   0.100   0.834  10.885
 1083SOL     OW 4000   0.613   1.365  10.036
 1083SOL    HW1 4001   0.564   1.278  10.045
 1083SOL    HW2 4002   0.590   1.408   9.949
 1084SOL     OW 4003   1.293   1.228  10.733
 1084SOL    HW1 4004   1.330   1.155  10.675
 1084SOL    HW2 4005   1.345   1.233  10.818
 1085SOL     OW 4006   0.809   0.004   9.812
 1085SOL    HW1 4007   0.849   0.095   9.803
 1085SOL    HW2 4008   0.709   0.012   9.818
 1086SOL     OW 4009   0.197   0.976  10.574
 1086SOL    HW1 4010   0.286   0.931  10.560
 1086SOL    HW2 4011   0.124   0.911  10.555
 1087SOL     OW 4012   1.525   0.999   9.500
 1087SOL    HW1 4013   1.462   0.923   9.513
 1087SOL    HW2 4014   1.573   1.017   9.586
 1088SOL     OW 4015   1.187   1.792  10.926
 1088SOL    HW1 4016   1.211   1.852  10.850
 1088SOL    HW2 4017   1.194   1.697  10.896
 1089SOL     OW 4018   0.317   0.251  11.111
 1089SOL    HW1 4019   0.388   0.322  11.117
 1089SOL    HW2 4020   0.229   0.290  11.139
 1090SOL     OW 4021   1.466   1.417  10.263
 1090SOL    HW1 4022   1.407   1.423  10.343
 1090SOL    HW2 4023   1.451   1.329  10.217
 1091SOL     OW 4024   1.667   1.714   9.882
 1091SOL    HW1 4025   1.626   1.691   9.794
 1091SOL    HW2 4026   1.649   1.640   9.947
 1092SOL     OW 4027   0.598   0.729   9.580
 1092SOL    HW1 4028   0.622   0.798   9.512
 1092SOL    HW2 4029   0.520   0.762   9.634
 1093SOL     OW 4030   1.281   0.345  10.254
 1093SOL    HW1 4031   1.195   0.295  10.241
 1093SOL    HW2 4032   1.343   0.291  10.310
 1094SOL     OW 4033   1.576   1.662   9.617
 1094SOL    HW1 4034   1.665   1.708   9.620
 1094SOL    HW2 4035   1.555   1.638   9.522
 1095SOL     OW 4036   0.807   0.605  10.775
 1095SOL    HW1 4037   0.760   0.602  10.864
 1095SOL    HW2 4038   0.756   0.550  10.709
 1096SOL     OW 4039   0.973   0.890  10.882
 1096SOL    HW1 4040   1.019   0.806  10.853
 1096SOL    HW2 4041   0.917   0.924  10.807
 1097SOL     OW 4042   0.991   0.410  10.552
 1097SOL    HW1 4043   0.914   0.444  10.606
 1097SOL    HW2 4044   0.957   0.359  10.473
 1098SOL     OW 4045   1.041   0.701   9.739
 1098SOL    HW1 4046   1.067   0.697   9.835
 1098SOL    HW2 4047   0.956   0.650   9.725
 1099SOL     OW 4048   0.076   0.811  10.099
 1099SOL    HW1 4049   0.175   0.799  10.108
 1099SOL    HW2 4050   0.052   0.906  10.120
 1100SOL     OW 4051   0.130   1.821  10.881
 1100SOL    HW1 4052   0.120   1.806  10.980
 1100SOL    HW2 4053   0.044   1.857  10.845
 1101SOL     OW 4054   0.865   0.348   9.505
 1101SOL    HW1 4055   0.924   0.411   9.456
 1101SOL    HW2 4056   0.884   0.254   9.476
 1102SOL     OW 4057   1.362   1.144   9.855
 1102SOL    HW1 4058   1.445   1.115   9.807
 1102SOL    HW2 4059   1.313   1.211   9.799
 1103SOL     OW 4060   0.550   0.196  10.195
 1103SOL    HW1 4061   0.545   0.191  10.295
 1103SOL    HW2 4062   0.552   0.292  10.166
 1104SOL     OW 4063   1.008   1.456   9.787
 1104SOL    HW1 4064   0.962   1.528   9.735
 1104SOL    HW2 4065   1.004   1.476   9.885
 1105SOL     OW 4066   0.351   1.801  10.163
 1105SOL    HW1 4067   0.401   1.715  10.169
 1105SOL    HW2 4068   0.416   1.878  10.160
 1106SOL     OW 4069   1.795   1.066  10.183
 1106SOL    HW1 4070   1.733   1.051  10.107
 1106SOL    HW2 4071   1.743   1.077  10.268
 1107SOL     OW 4072   1.227   1.550  10.816
 1107SOL    HW1 4073   1.233   1.473  10.880
 1107SOL    HW2 4074   1.175   1.524  10.736
 1108SOL     OW 4075   0.321   0.943   9.552
 1108SOL    HW1 4076   0.403   0.982   9.510
 1108SOL    HW2 4077   0.294   0.861   9.503
 1109SOL     OW 4078   1.458   0.735  10.038
 1109SOL    HW1 4079   1.453   0.670  10.113
 1109SOL    HW2 4080   1.538   0.794  10.051
 1110SOL     OW 4081   0.461   1.266  11.037
 1110SOL    HW1 4082   0.411   1.267  10.951
 1110SOL    HW2 4083   0.398   1.248  11.113
 1111SOL     OW 4084   1.111   1.776   9.547
 1111SOL    HW1 4085   1.051   1.714   9.597
 1111SOL    HW2 4086   1.142   1.732   9.462
 1112SOL     OW 4087   0.202   0.285  10.808
 1112SOL    HW1 4088   0.122   0.345  10.795
 1112SOL    HW2 4089   0.192   0.236  10.894
 1113SOL     OW 4090   1.632   1.377   9.391
 1113SOL    HW1 4091   1.600   1.471   9.381
 1113SOL    HW2 4092   1.556   1.314   9.379
 1114SOL     OW 4093   0.464   1.743   9.633
 1114SOL    HW1 4094   0.497   1.782   9.719
 1114SOL    HW2 4095   0.540   1.736   9.568
 1115SOL     OW 4096   1.400   0.107   9.736
 1115SOL    HW1 4097   1.376   0.070   9.646
 1115SOL    HW2 4098   1.499   0.123   9.740
 1116SOL     OW 4099   0.249   1.785  10.551
 1116SOL    HW1 4100   0.306   1.720  10.601
 1116SOL    HW2 4101   0.233   1.752  10.458
 1117SOL     OW 4102   0.940   1.698  10.214
 1117SOL    HW1 4103   1.020   1.641  10.235
 1117SOL    HW2 4104   0.891   1.658  10.137
 1118SOL     OW 4105   0.382   0.700   9.790
 1118SOL    HW1 4106   0.427   0.610   9.787
 1118SOL    HW2 4107   0.288   0.689   9.823
 1119SOL     OW 4108   0.614   0.122   9.427
 1119SOL    HW1 4109   0.712   0.100   9.434
 1119SOL    HW2 4110   0.583   0.105   9.334
 1120SOL     OW 4111   0.781   0.264  11.059
 1120SOL    HW1 4112   0.848   0.203  11.102
 1120SOL    HW2 4113   0.708   0.283  11.124
 1121SOL     OW 4114   0.888   1.514  10.505
 1121SOL    HW1 4115   0.865   1.489  10.411
 1121SOL    HW2 4116   0.949   1.445  10.544
 1122SOL     OW 4117   1.351   0.590  10.743
 1122SOL    HW1 4118   1.379   0.547  10.828
 1122SOL    HW2 4119   1.376   0.686  10.744
 1123SOL     OW 4120   0.803   1.402  10.234
 1123SOL    HW1 4121   0.893   1.416  10.192
 1123SOL    HW2 4122   0.732   1.404  10.163
 1124SOL     OW 4123   0.922   0.503  10.209
 1124SOL    HW1 4124   0.897   0.494  10.113
 1124SOL    HW2 4125   0.970   0.421  10.240
 1125SOL     OW 4126   0.539   0.064   9.822
 1125SOL    HW1 4127   0.458   0.065   9.880
 1125SOL    HW2 4128   0.542   0.147   9.767
 1126SOL     OW 4129   1.434   1.188   9.351
 1126SOL    HW1 4130   1.466   1.112   9.408
 1126SOL    HW2 4131   1.342   1.215   9.381
 1127SOL     OW 4132   0.297   0.035   9.481
 1127SOL    HW1 4133   0.346   0.119   9.460
 1127SOL    HW2 4134   0.359  -0.030   9.526
 1128SOL     OW 4135   0.935   0.236   9.790
 1128SOL    HW1 4136   0.887   0.277   9.712
 1128SOL    HW2 4137   1.034   0.234   9.771
 1129SOL     OW 4138   1.076   0.683  10.774
 1129SOL    HW1 4139   0.996   0.622  10.777
 1129SOL    HW2 4140   1.157   0.630  10.750
 1130SOL     OW 4141   1.227   1.570  10.103
 1130SOL    HW1 4142   1.248   1.644  10.038
 1130SOL    HW2 4143   1.295   1.570  10.176
 1131SOL     OW 4144   0.459   1.152  10.051
 1131SOL    HW1 4145   0.388   1.125  10.116
 1131SOL    HW2 4146   0.433   1.124   9.958
 1132SOL     OW 4147   1.271   1.797   9.901
 1132SOL    HW1 4148   1.315   1.861   9.837
 1132SOL    HW2 4149   1.221   1.849   9.971
 1133SOL     OW 4150   1.032   0.549   9.326
 1133SOL    HW1 4151   0.991   0.631   9.287
 1133SOL    HW2 4152   1.096   0.575   9.399
 1134SOL     OW 4153   0.078   0.556  10.696
 1134SOL    HW1 4154   0.170   0.555  10.655
 1134SOL    HW2 4155   0.072   0.630  10.763
 1135SOL     OW 4156   0.561   0.222  10.457
 1135SOL    HW1 4157   0.599   0.138  10.494
 1135SOL    HW2 4158   0.473   0.241  10.501
 1136SOL     OW 4159   0.866   0.454   9.952
 1136SOL    HW1 4160   0.834   0.526   9.890
 1136SOL    HW2 4161   0.890   0.373   9.899
 1137SOL     OW 4162   1.017   0.039  10.063
 1137SOL    HW1 4163   0.945   0.044   9.994
 1137SOL    HW2 4164   0.993  -0.030  10.132
 1138SOL     OW 4165   1.429   1.173  10.177
 1138SOL    HW1 4166   1.374   1.089  10.170
 1138SOL    HW2 4167   1.455   1.202  10.085
 1139SOL     OW 4168   1.466   0.590  10.302
 1139SOL    HW1 4169   1.436   0.495  10.309
 1139SOL    HW2 4170   1.539   0.606  10.368
 1140SOL     OW 4171   1.857   0.833   9.687
 1140SOL    HW1 4172   1.899   0.769   9.751
 1140SOL    HW2 4173   1.819   0.782   9.609
 1141SOL     OW 4174   0.488   1.385   9.484
 1141SOL    HW1 4175   0.401   1.370   9.531
 1141SOL    HW2 4176   0.471   1.411   9.389
 1142SOL     OW 4177   1.664   1.280   9.967
 1142SOL    HW1 4178   1.763   1.288   9.981
 1142SOL    HW2 4179   1.619   1.364   9.998
 1143SOL     OW 4180   1.390   0.575   9.388
 1143SOL    HW1 4181   1.336   0.554   9.469
 1143SOL    HW2 4182   1.481   0.534   9.397
 1144SOL     OW 4183   0.527   0.256   9.638
 1144SOL    HW1 4184   0.554   0.197   9.563
 1144SOL    HW2 4185   0.527   0.351   9.607
 1145SOL     OW 4186   1.754   1.223  10.898
 1145SOL    HW1 4187   1.845   1.184  10.885
 1145SOL    HW2 4188   1.762   1.319  10.922
 1146SOL     OW 4189   1.064   1.347  10.650
 1146SOL    HW1 4190   0.984   1.324  10.705
 1146SOL    HW2 4191   1.147   1.321  10.699
 1147SOL     OW 4192   1.111   1.195  10.410
 1147SOL    HW1 4193   1.071   1.239  10.491
 1147SOL    HW2 4194   1.070   1.232  10.327
 1148SOL     OW 4195   1.638   1.099  10.389
 1148SOL    HW1 4196   1.643   1.180  10.448
 1148SOL    HW2 4197   1.552   1.101  10.338
 1149SOL     OW 4198   0.915   0.089  10.712
 1149SOL    HW1 4199   0.940   0.069  10.617
 1149SOL    HW2 4200   0.987   0.145  10.754
 1150SOL     OW 4201   0.705   1.050   9.678
 1150SOL    HW1 4202   0.691   1.057   9.777
 1150SOL    HW2 4203   0.789   0.999   9.660
 1151SOL     OW 4204   0.410   0.813  10.561
 1151SOL    HW1 4205   0.496   0.825  10.611
 1151SOL    HW2 4206   0.368   0.726  10.588
 1152SOL     OW 4207   1.274   0.386  10.572
 1152SOL    HW1 4208   1.295   0.460  10.636
 1152SOL    HW2 4209   1.185   0.403  10.529
 1153SOL     OW 4210   0.064   1.564  10.641
 1153SOL    HW1 4211   0.018   1.646  10.607
 1153SOL    HW2 4212   0.162   1.583  10.650
 1154SOL     OW 4213   0.367   1.100   9.811
 1154SOL    HW1 4214   0.360   1.183   9.755
 1154SOL    HW2 4215   0.371   1.020   9.751
 1155SOL     OW 4216   0.566   0.537  10.175
 1155SOL    HW1 4217   0.578   0.603  10.101
 1155SOL    HW2 4218   0.612   0.571  10.258
 1156SOL     OW 4219   1.252   1.348   9.698
 1156SOL    HW1 4220   1.302   1.425   9.738
 1156SOL    HW2 4221   1.157   1.350   9.730
 1157SOL     OW 4222   1.272   1.445  10.452
 1157SOL    HW1 4223   1.319   1.458  10.539
 1157SOL    HW2 4224   1.206   1.371  10.461
 1158SOL     OW 4225   1.582   0.639   9.782
 1158SOL    HW1 4226   1.551   0.700   9.855
 1158SOL    HW2 4227   1.632   0.691   9.713
 1159SOL     OW 4228   0.354   1.510  10.639
 1159SOL    HW1 4229   0.333   1.466  10.552
 1159SOL    HW2 4230   0.451   1.536  10.642
 1160SOL     OW 4231   0.402   0.751  10.908
 1160SOL    HW1 4232   0.470   0.806  10.861
 1160SOL    HW2 4233   0.442   0.663  10.935
 1161SOL     OW 4234   1.587   0.779  10.980
 1161SOL    HW1 4235   1.495   0.817  10.975
 1161SOL    HW2 4236   1.647   0.826  10.915
 1162SOL     OW 4237   0.573   0.870  10.339
 1162SOL    HW1 4238   0.617   0.959  10.330
 1162SOL    HW2 4239   0.510   0.870  10.416
 1163SOL     OW 4240   1.360   0.862  10.355
 1163SOL    HW1 4241   1.285   0.862  10.289
 1163SOL    HW2 4242   1.397   0.770  10.364
 1164SOL     OW 4243   1.209   0.525   9.585
 1164SOL    HW1 4244   1.222   0.441   9.639
 1164SOL    HW2 4245   1.180   0.599   9.645
 1165SOL     OW 4246   0.307   0.213  10.541
 1165SOL    HW1 4247   0.284   0.250  10.631
 1165SOL    HW2 4248   0.277   0.118  10.535
 1166SOL     OW 4249   0.037   1.310  10.592
 1166SOL    HW1 4250   0.090   1.261  10.660
 1166SOL    HW2 4251   0.059   1.408  10.597
 1167SOL     OW 4252   0.732   0.634  10.374
 1167SOL    HW1 4253   0.791   0.608  10.298
 1167SOL    HW2 4254   0.704   0.730  10.363
 1168SOL     OW 4255   0.307   0.063   9.928
 1168SOL    HW1 4256   0.296   0.157   9.961
 1168SOL    HW2 4257   0.302   0.000  10.005
 1169SOL     OW 4258   1.622   0.367   9.684
 1169SOL    HW1 4259   1.624   0.291   9.748
 1169SOL    HW2 4260   1.574   0.444   9.724
 1170SOL     OW 4261   1.023   0.766  10.276
 1170SOL    HW1 4262   1.038   0.787  10.372
 1170SOL    HW2 4263   0.993   0.671  10.267
 1171SOL     OW 4264   0.980   1.573  11.010
 1171SOL    HW1 4265   0.960   1.617  10.922
 1171SOL    HW2 4266   1.019   1.482  10.994
 1172SOL     OW 4267   1.859   1.518  10.915
 1172SOL    HW1 4268   1.873   1.545  10.820
 1172SOL    HW2 4269   1.942   1.540  10.968
 1173SOL     OW 4270   0.350   0.898  11.114
 1173SOL    HW1 4271   0.426   0.942  11.162
 1173SOL    HW2 4272   0.385   0.851  11.032
 1174SOL     OW 4273   1.540   0.274   9.435
 1174SOL    HW1 4274   1.479   0.199   9.458
 1174SOL    HW2 4275   1.562   0.326   9.518
 1175SOL     OW 4276   1.303   0.838   9.352
 1175SOL    HW1 4277   1.337   0.745   9.367
 1175SOL    HW2 4278   1.321   0.865   9.257
 1176SOL     OW 4279   1.068   1.333  10.159
 1176SOL    HW1 4280   1.075   1.249  10.104
 1176SOL    HW2 4281   1.130   1.402  10.123
 1177SOL     OW 4282   0.319   0.810  10.259
 1177SOL    HW1 4283   0.412   0.846  10.264
 1177SOL    HW2 4284   0.313   0.725  10.311
 1178SOL     OW 4285   0.339   0.509  10.316
 1178SOL    HW1 4286   0.287   0.426  10.299
 1178SOL    HW2 4287   0.416   0.514  10.252
 1179SOL     OW 4288   1.160   0.207  10.787
 1179SOL    HW1 4289   1.160   0.271  10.864
 1179SOL    HW2 4290   1.188   0.255  10.704
 1180SOL     OW 4291   0.008   1.326   9.510
 1180SOL    HW1 4292  -0.085   1.347   9.479
 1180SOL    HW2 4293   0.018   1.227   9.523
 1181SOL     OW 4294   0.088   1.801  10.237
 1181SOL    HW1 4295   0.046   1.715  10.210
 1181SOL    HW2 4296   0.182   1.804  10.203
 1182SOL     OW 4297   0.504   1.568  10.220
 1182SOL    HW1 4298   0.570   1.642  10.229
 1182SOL    HW2 4299   0.548   1.489  10.178
 1183SOL     OW 4300   1.002   0.796  10.548
 1183SOL    HW1 4301   1.043   0.764  10.634
 1183SOL    HW2 4302   0.906   0.769  10.545
 1184SOL     OW 4303   0.040   0.544  10.424
 1184SOL    HW1 4304   0.125   0.511  10.383
 1184SOL    HW2 4305   0.053   0.559  10.522
 1185SOL     OW 4306   0.815   0.572   9.635
 1185SOL    HW1 4307   0.822   0.483   9.589
 1185SOL    HW2 4308   0.721   0.606   9.627
 1186SOL     OW 4309   1.657   0.604  10.516
 1186SOL    HW1 4310   1.619   0.535  10.578
 1186SOL    HW2 4311   1.739   0.568  10.472
 1187SOL     OW 4312   0.252   1.564  11.054
 1187SOL    HW1 4313   0.222   1.621  11.130
 1187SOL    HW2 4314   0.245   1.467  11.080
 1188SOL     OW 4315   0.671   0.464  10.579
 1188SOL    HW1 4316   0.637   0.375  10.549
 1188SOL    HW2 4317   0.697   0.518  10.499
 1189SOL     OW 4318   0.930   1.678  10.775
 1189SOL    HW1 4319   0.906   1.660  10.680
 1189SOL    HW2 4320   0.960   1.772  10.785
 1190SOL     OW 4321   0.473   0.500   9.501
 1190SOL    HW1 4322   0.534   0.580   9.505
 1190SOL    HW2 4323   0.378   0.531   9.508
 1191SOL     OW 4324   0.159   1.137  10.776
 1191SOL    HW1 4325   0.181   1.076  10.852
 1191SOL    HW2 4326   0.169   1.088  10.690
 1192SOL     OW 4327   1.347   1.059  10.544
 1192SOL    HW1 4328   1.371   0.996  10.470
 1192SOL    HW2 4329   1.257   1.099  10.526
 1193SOL     OW 4330   1.302   0.855   9.619
 1193SOL    HW1 4331   1.216   0.824   9.661
 1193SOL    HW2 4332   1.298   0.841   9.520
 1194SOL     OW 4333   1.759   1.747  10.464
 1194SOL    HW1 4334   1.820   1.777  10.391
 1194SOL    HW2 4335   1.721   1.658  10.442
 1195SOL     OW 4336   1.252   1.731  10.438
 1195SOL    HW1 4337   1.336   1.736  10.384
 1195SOL    HW2 4338   1.229   1.635  10.456
 1196SOL     OW 4339   0.083   1.258  10.332
 1196SOL    HW1 4340   0.078   1.257  10.432
 1196SOL    HW2 4341   0.000   1.217  10.294
 1197SOL     OW 4342   1.726   0.135   9.833
 1197SOL    HW1 4343   1.799   0.118   9.766
 1197SOL    HW2 4344   1.695   0.048   9.871
 1198SOL     OW 4345   1.388   1.573   9.787
 1198SOL    HW1 4346   1.455   1.585   9.713
 1198SOL    HW2 4347   1.348   1.662   9.810
 1199SOL     OW 4348   1.280   0.927   9.982
 1199SOL    HW1 4349   1.340   0.846   9.984
 1199SOL    HW2 4350   1.320   0.996   9.922
 1200SOL     OW 4351   0.830   1.273  10.732
 1200SOL    HW1 4352   0.825   1.306  10.827
 1200SOL    HW2 4353   0.744   1.292  10.686
 1201SOL     OW 4354   0.672   1.616   9.464
 1201SOL    HW1 4355   0.681   1.626   9.365
 1201SOL    HW2 4356   0.632   1.527   9.485
 1202SOL     OW 4357   1.650   1.720  10.704
 1202SOL    HW1 4358   1.703   1.730  10.620
 1202SOL    HW2 4359   1.623   1.810  10.738
 1203SOL     OW 4360   1.841   0.175  10.273
 1203SOL    HW1 4361   1.880   0.090  10.237
 1203SOL    HW2 4362   1.743   0.177  10.254
 1204SOL     OW 4363   0.263   0.326  10.030
 1204SOL    HW1 4364   0.184   0.377   9.996
 1204SOL    HW2 4365   0.254   0.311  10.128
 1205SOL     OW 4366   1.194   1.612   9.341
 1205SOL    HW1 4367   1.200   1.519   9.378
 1205SOL    HW2 4368   1.135   1.612   9.261
 1206SOL     OW 4369   0.822   1.002  10.682
 1206SOL    HW1 4370   0.862   1.001  10.590
 1206SOL    HW2 4371   0.832   1.094  10.722
 1207SOL     OW 4372   0.916   0.910   9.601
 1207SOL    HW1 4373   0.979   0.948   9.533
 1207SOL    HW2 4374   0.956   0.827   9.640
 1208SOL     OW 4375   1.504   1.607   9.354
 1208SOL    HW1 4376   1.412   1.644   9.361
 1208SOL    HW2 4377   1.542   1.627   9.264
 1209SOL     OW 4378   0.372   1.288  10.800
 1209SOL    HW1 4379   0.359   1.381  10.766
 1209SOL    HW2 4380   0.288   1.236  10.787
 1210SOL     OW 4381   1.614   1.292  10.599
 1210SOL    HW1 4382   1.674   1.295  10.679
 1210SOL    HW2 4383   1.539   1.356  10.612
 1211SOL     OW 4384   1.039   1.098  10.006
 1211SOL    HW1 4385   0.969   1.051  10.060
 1211SOL    HW2 4386   1.098   1.030   9.963
 1212SOL     OW 4387   1.014   0.236  10.281
 1212SOL    HW1 4388   1.006   0.200  10.188
 1212SOL    HW2 4389   1.012   0.160  10.346
 1213SOL     OW 4390   0.590   1.487   9.801
 1213SOL    HW1 4391   0.632   1.429   9.731
 1213SOL    HW2 4392   0.546   1.566   9.757
 1214SOL     OW 4393   1.709   0.385  10.691
 1214SOL    HW1 4394   1.782   0.454  10.695
 1214SOL    HW2 4395   1.737   0.310  10.632
 1215SOL     OW 4396   0.255   1.348   9.600
 1215SOL    HW1 4397   0.159   1.349   9.573
 1215SOL    HW2 4398   0.267   1.401   9.684
 1216SOL     OW 4399   0.105   1.013  11.036
 1216SOL    HW1 4400   0.028   0.980  11.090
 1216SOL    HW2 4401   0.190   0.983  11.078
 1217SOL     OW 4402   0.672   0.203  10.799
 1217SOL    HW1 4403   0.762   0.187  10.759
 1217SOL    HW2 4404   0.680   0.208  10.898
 1218SOL     OW 4405   0.075   0.345   9.343
 1218SOL    HW1 4406  -0.017   0.317   9.314
 1218SOL    HW2 4407   0.106   0.422   9.287
 1219SOL     OW 4408   1.440   0.856  10.708
 1219SOL    HW1 4409   1.383   0.908  10.645
 1219SOL    HW2 4410   1.536   0.868  10.684
 1220SOL     OW 4411   0.072   0.166   9.628
 1220SOL    HW1 4412   0.055   0.249   9.574
 1220SOL    HW2 4413   0.162   0.129   9.606
 1221SOL     OW 4414   1.183   1.335   9.429
 1221SOL    HW1 4415   1.084   1.324   9.431
 1221SOL    HW2 4416   1.217   1.350   9.522
 1222SOL     OW 4417   0.613   0.842  10.741
 1222SOL    HW1 4418   0.669   0.923  10.724
 1222SOL    HW2 4419   0.672   0.762  10.744
 1223SOL     OW 4420   1.493   1.767  10.269
 1223SOL    HW1 4421   1.526   1.831  10.200
 1223SOL    HW2 4422   1.559   1.761  10.344
 1224SOL     OW 4423   0.716   0.565  11.018
 1224SOL    HW1 4424   0.735   0.630  11.092
 1224SOL    HW2 4425   0.776   0.485  11.027
 1225SOL     OW 4426   0.390   1.741  10.870
 1225SOL    HW1 4427   0.299   1.782  10.868
 1225SOL    HW2 4428   0.383   1.647  10.902
 1226SOL     OW 4429   1.674   0.883  10.564
 1226SOL    HW1 4430   1.647   0.794  10.527
 1226SOL    HW2 4431   1.675   0.951  10.491
 1227SOL     OW 4432   1.225   0.325   9.759
 1227SOL    HW1 4433   1.290   0.251   9.748
 1227SOL    HW2 4434   1.245   0.375   9.843
 1228SOL     OW 4435   0.594   0.745   9.962
 1228SOL    HW1 4436   0.644   0.830   9.943
 1228SOL    HW2 4437   0.506   0.747   9.914
 1229SOL     OW 4438   1.777   0.342  10.952
 1229SOL    HW1 4439   1.760   0.373  10.858
 1229SOL    HW2 4440   1.693   0.305  10.990
 1230SOL     OW 4441   1.730   0.934  10.827
 1230SOL    HW1 4442   1.768   1.025  10.842
 1230SOL    HW2 4443   1.722   0.917  10.728
 1231SOL     OW 4444   0.859   1.374   9.326
 1231SOL    HW1 4445   0.813   1.389   9.414
 1231SOL    HW2 4446   0.903   1.459   9.296
 1232SOL     OW 4447   0.661   1.790  10.263
 1232SOL    HW1 4448   0.615   1.878  10.250
 1232SOL    HW2 4449   0.760   1.802  10.256
 1233SOL     OW 4450   0.859   0.956  10.171
 1233SOL    HW1 4451   0.913   0.887  10.219
 1233SOL    HW2 4452   0.827   1.025  10.237
 1234SOL     OW 4453   1.083   0.984   9.397
 1234SOL    HW1 4454   1.060   1.037   9.315
 1234SOL    HW2 4455   1.164   0.928   9.378
 1235SOL     OW 4456   1.861   1.569  10.161
 1235SOL    HW1 4457   1.790   1.557  10.091
 1235SOL    HW2 4458   1.862   1.490  10.221
 1236SOL     OW 4459   0.079   1.240   9.963
 1236SOL    HW1 4460   0.078   1.193  10.051
 1236SOL    HW2 4461   0.161   1.212   9.912
 1237SOL     OW 4462   0.672   1.391  10.934
 1237SOL    HW1 4463   0.594   1.341  10.972
 1237SOL    HW2 4464   0.669   1.486  10.965
 1238SOL     OW 4465   1.824   0.192  10.537
 1238SOL    HW1 4466   1.820   0.102  10.581
 1238SOL    HW2 4467   1.827   0.181  10.438
 1239SOL     OW 4468   0.428   0.424   9.830
 1239SOL    HW1 4469   0.458   0.352   9.768
 1239SOL    HW2 4470   0.389   0.384   9.913
 1240SOL     OW 4471   1.705   1.487  10.414
 1240SOL    HW1 4472   1.612   1.462  10.387
 1240SOL    HW2 4473   1.731   1.437  10.496
 1241SOL     OW 4474   0.317   0.547  10.590
 1241SOL    HW1 4475   0.355   0.488  10.662
 1241SOL    HW2 4476   0.357   0.521  10.502
 1242SOL     OW 4477   0.812   1.586   9.997
 1242SOL    HW1 4478   0.844   1.596   9.903
 1242SOL    HW2 4479   0.733   1.524   9.999
 1243SOL     OW 4480   1.424   0.214  10.422
 1243SOL    HW1 4481   1.476   0.149  10.477
 1243SOL    HW2 4482   1.375   0.277  10.483
 1244SOL     OW 4483   1.001   0.034  10.464
 1244SOL    HW1 4484   0.938  -0.038  10.433
 1244SOL    HW2 4485   1.094  -0.002  10.464
 1245SOL     OW 4486   0.770   1.330   9.611
 1245SOL    HW1 4487   0.724   1.243   9.628
 1245SOL    HW2 4488   0.861   1.327   9.652
 1246SOL     OW 4489   0.618   1.567  10.594
 1246SOL    HW1 4490   0.613   1.649  10.651
 1246SOL    HW2 4491   0.707   1.564  10.549
 1247SOL     OW 4492   1.352   0.052   9.478
 1247SOL    HW1 4493   1.387   0.011   9.394
 1247SOL    HW2 4494   1.262   0.014   9.498
 1248SOL     OW 4495   1.300   0.453  10.001
 1248SOL    HW1 4496   1.241   0.533  10.005
 1248SOL    HW2 4497   1.315   0.418  10.094
 1249SOL     OW 4498   1.593   0.221  10.192
 1249SOL    HW1 4499   1.509   0.220  10.246
 1249SOL    HW2 4500   1.595   0.304  10.136
 1250SOL     OW 4501   0.039   1.077   9.610
 1250SOL    HW1 4502   0.138   1.066   9.601
 1250SOL    HW2 4503  -0.001   0.991   9.642
 1251SOL     OW 4504   0.875   1.646   9.647
 1251SOL    HW1 4505   0.798   1.611   9.593
 1251SOL    HW2 4506   0.843   1.717   9.709
 1252SOL     OW 4507   0.230   2.490   0.113
 1252SOL    HW1 4508   0.137   2.488   0.150
 1252SOL    HW2 4509   0.231   2.451   0.021
 1253SOL     OW 4510   0.225   2.137   0.996
 1253SOL    HW1 4511   0.260   2.120   1.088
 1253SOL    HW2 4512   0.137   2.092   0.984
 1254SOL     OW 4513   0.019   2.230   0.647
 1254SOL    HW1 4514  -0.063   2.273   0.686
 1254SOL    HW2 4515  -0.009   2.157   0.584
 1255SOL     OW 4516   0.569   3.137   1.165
 1255SOL    HW1 4517   0.476   3.130   1.128
 1255SOL    HW2 4518   0.580   3.226   1.209
 1256SOL     OW 4519   1.555   3.373   0.703
 1256SOL    HW1 4520   1.498   3.357   0.784
 1256SOL    HW2 4521   1.496   3.383   0.623
 1257SOL     OW 4522   1.135   2.565   0.717
 1257SOL    HW1 4523   1.192   2.643   0.692
 1257SOL    HW2 4524   1.075   2.591   0.793
 1258SOL     OW 4525   1.755   2.469   0.231
 1258SOL    HW1 4526   1.743   2.456   0.132
 1258SOL    HW2 4527   1.725   2.388   0.280
 1259SOL     OW 4528   0.768   3.006   1.023
 1259SOL    HW1 4529   0.690   3.023   1.083
 1259SOL    HW2 4530   0.802   3.093   0.987
 1260SOL     OW 4531   0.850   2.660   1.823
 1260SOL    HW1 4532   0.846   2.736   1.888
 1260SOL    HW2 4533   0.872   2.696   1.732
 1261SOL     OW 4534   0.685   2.874   0.665
 1261SOL    HW1 4535   0.754   2.858   0.735
 1261SOL    HW2 4536   0.612   2.931   0.703
 1262SOL     OW 4537   0.686   3.023   1.803
 1262SOL    HW1 4538   0.746   3.102   1.817
 1262SOL    HW2 4539   0.600   3.054   1.762
 1263SOL     OW 4540   0.335   3.297   1.061
 1263SOL    HW1 4541   0.257   3.266   1.008
 1263SOL    HW2 4542   0.393   3.355   1.004
 1264SOL     OW 4543   1.460   3.367   1.339
 1264SOL    HW1 4544   1.484   3.461   1.365
 1264SOL    HW2 4545   1.444   3.313   1.421
 1265SOL     OW 4546   0.438   2.254   1.499
 1265SOL    HW1 4547   0.520   2.198   1.508
 1265SOL    HW2 4548   0.357   2.196   1.503
 1266SOL     OW 4549   1.603   2.309   0.737
 1266SOL    HW1 4550   1.529   2.355   0.687
 1266SOL    HW2 4551   1.654   2.377   0.790
 1267SOL     OW 4552   0.231   3.575   0.483
 1267SOL    HW1 4553   0.265   3.652   0.537
 1267SOL    HW2 4554   0.275   3.575   0.393
 1268SOL     OW 4555   1.127   3.203   1.690
 1268SOL    HW1 4556   1.174   3.203   1.778
 1268SOL    HW2 4557   1.079   3.116   1.679
 1269SOL     OW 4558   0.230   3.296   0.538
 1269SOL    HW1 4559   0.204   3.392   0.538
 1269SOL    HW2 4560   0.159   3.242   0.583
 1270SOL     OW 4561   0.240   2.953   0.886
 1270SOL    HW1 4562   0.254   2.869   0.938
 1270SOL    HW2 4563   0.185   3.017   0.941
 1271SOL     OW 4564   0.620   3.648   1.439
 1271SOL    HW1 4565   0.528   3.631   1.474
 1271SOL    HW2 4566   0.648   3.740   1.465
 1272SOL     OW 4567   0.606   2.826   0.123
 1272SOL    HW1 4568   0.613   2.910   0.069
 1272SOL    HW2 4569   0.652   2.839   0.211
 1273SOL     OW 4570   1.594   1.976   1.480
 1273SOL    HW1 4571   1.576   2.043   1.408
 1273SOL    HW2 4572   1.591   2.022   1.569
 1274SOL     OW 4573   0.122   2.505   0.563
 1274SOL    HW1 4574   0.077   2.417   0.580
 1274SOL    HW2 4575   0.121   2.559   0.647
 1275SOL     OW 4576   1.842   3.629   0.359
 1275SOL    HW1 4577   1.896   3.600   0.439
 1275SOL    HW2 4578   1.872   3.719   0.330
 1276SOL     OW 4579   0.027   3.458   0.117
 1276SOL    HW1 4580   0.008   3.362   0.138
 1276SOL    HW2 4581  -0.006   3.516   0.192
 1277SOL     OW 4582   1.689   2.784   0.612
 1277SOL    HW1 4583   1.784   2.755   0.620
 1277SOL    HW2 4584   1.681   2.849   0.537
 1278SOL     OW 4585   1.641   2.970   0.432
 1278SOL    HW1 4586   1.727   2.972   0.380
 1278SOL    HW2 4587   1.655   3.017   0.520
 1279SOL     OW 4588   0.113   2.599   1.597
 1279SOL    HW1 4589   0.201   2.586   1.642
 1279SOL    HW2 4590   0.100   2.696   1.575
 1280SOL     OW 4591   0.613   3.227   0.726
 1280SOL    HW1 4592   0.564   3.140   0.735
 1280SOL    HW2 4593   0.590   3.270   0.639
 1281SOL     OW 4594   1.293   3.090   1.423
 1281SOL    HW1 4595   1.330   3.017   1.365
 1281SOL    HW2 4596   1.345   3.095   1.508
 1282SOL     OW 4597   0.809   1.866   0.502
 1282SOL    HW1 4598   0.849   1.957   0.493
 1282SOL    HW2 4599   0.709   1.874   0.508
 1283SOL     OW 4600   0.197   2.838   1.264
 1283SOL    HW1 4601   0.286   2.793   1.250
 1283SOL    HW2 4602   0.124   2.773   1.245
 1284SOL     OW 4603   1.525   2.861   0.190
 1284SOL    HW1 4604   1.462   2.785   0.203
 1284SOL    HW2 4605   1.573   2.879   0.276
 1285SOL     OW 4606   1.187   3.654   1.616
 1285SOL    HW1 4607   1.211   3.714   1.540
 1285SOL    HW2 4608   1.194   3.559   1.586
 1286SOL     OW 4609   0.317   2.113   1.801
 1286SOL    HW1 4610   0.388   2.184   1.807
 1286SOL    HW2 4611   0.229   2.152   1.829
 1287SOL     OW 4612   1.466   3.279   0.953
 1287SOL    HW1 4613   1.407   3.285   1.033
 1287SOL    HW2 4614   1.451   3.191   0.907
 1288SOL     OW 4615   1.667   3.576   0.572
 1288SOL    HW1 4616   1.626   3.553   0.484
 1288SOL    HW2 4617   1.649   3.502   0.637
 1289SOL     OW 4618   0.598   2.591   0.270
 1289SOL    HW1 4619   0.622   2.660   0.202
 1289SOL    HW2 4620   0.520   2.624   0.324
 1290SOL     OW 4621   1.281   2.207   0.944
 1290SOL    HW1 4622   1.195   2.157   0.931
 1290SOL    HW2 4623   1.343   2.153   1.000
 1291SOL     OW 4624   1.576   3.524   0.307
 1291SOL    HW1 4625   1.665   3.570   0.310
 1291SOL    HW2 4626   1.555   3.500   0.212
 1292SOL     OW 4627   0.807   2.467   1.465
 1292SOL    HW1 4628   0.760   2.464   1.554
 1292SOL    HW2 4629   0.756   2.412   1.399
 1293SOL     OW 4630   1.394   2.331   1.674
 1293SOL    HW1 4631   1.374   2.374   1.762
 1293SOL    HW2 4632   1.472   2.269   1.683
 1294SOL     OW 4633   0.973   2.752   1.572
 1294SOL    HW1 4634   1.019   2.668   1.543
 1294SOL    HW2 4635   0.917   2.786   1.497
 1295SOL     OW 4636   0.991   2.272   1.242
 1295SOL    HW1 4637   0.914   2.306   1.296
 1295SOL    HW2 4638   0.957   2.221   1.163
 1296SOL     OW 4639   1.041   2.563   0.429
 1296SOL    HW1 4640   1.067   2.559   0.525
 1296SOL    HW2 4641   0.956   2.512   0.415
 1297SOL     OW 4642   0.076   2.673   0.789
 1297SOL    HW1 4643   0.175   2.661   0.798
 1297SOL    HW2 4644   0.052   2.768   0.810
 1298SOL     OW 4645   0.130   3.683   1.571
 1298SOL    HW1 4646   0.120   3.668   1.670
 1298SOL    HW2 4647   0.044   3.719   1.535
 1299SOL     OW 4648   0.865   2.210   0.195
 1299SOL    HW1 4649   0.924   2.273   0.146
 1299SOL    HW2 4650   0.884   2.116   0.166
 1300SOL     OW 4651   1.719   2.447   1.831
 1300SOL    HW1 4652   1.693   2.536   1.795
 1300SOL    HW2 4653   1.717   2.379   1.758
 1301SOL     OW 4654   1.362   3.006   0.545
 1301SOL    HW1 4655   1.445   2.977   0.497
 1301SOL    HW2 4656   1.313   3.073   0.489
 1302SOL     OW 4657   0.550   2.058   0.885
 1302SOL    HW1 4658   0.545   2.053   0.985
 1302SOL    HW2 4659   0.552   2.154   0.856
 1303SOL     OW 4660   1.008   3.318   0.477
 1303SOL    HW1 4661   0.962   3.390   0.425
 1303SOL    HW2 4662   1.004   3.338   0.575
 1304SOL     OW 4663   0.351   3.663   0.853
 1304SOL    HW1 4664   0.401   3.577   0.859
 1304SOL    HW2 4665   0.416   3.740   0.850
 1305SOL     OW 4666   1.795   2.928   0.873
 1305SOL    HW1 4667   1.733   2.913   0.797
 1305SOL    HW2 4668   1.743   2.939   0.958
 1306SOL     OW 4669   1.227   3.412   1.506
 1306SOL    HW1 4670   1.233   3.335   1.570
 1306SOL    HW2 4671   1.175   3.386   1.426
 1307SOL     OW 4672   0.321   2.805   0.242
 1307SOL    HW1 4673   0.403   2.844   0.200
 1307SOL    HW2 4674   0.294   2.723   0.193
 1308SOL     OW 4675   1.458   2.597   0.728
 1308SOL    HW1 4676   1.453   2.532   0.803
 1308SOL    HW2 4677   1.538   2.656   0.741
 1309SOL     OW 4678   0.461   3.128   1.727
 1309SOL    HW1 4679   0.411   3.129   1.641
 1309SOL    HW2 4680   0.398   3.110   1.803
 1310SOL     OW 4681   1.111   3.638   0.237
 1310SOL    HW1 4682   1.051   3.576   0.287
 1310SOL    HW2 4683   1.142   3.594   0.152
 1311SOL     OW 4684   0.202   2.147   1.498
 1311SOL    HW1 4685   0.122   2.207   1.485
 1311SOL    HW2 4686   0.192   2.098   1.584
 1312SOL     OW 4687   1.632   3.239   0.081
 1312SOL    HW1 4688   1.600   3.333   0.071
 1312SOL    HW2 4689   1.556   3.176   0.069
 1313SOL     OW 4690   0.464   3.605   0.323
 1313SOL    HW1 4691   0.497   3.644   0.409
 1313SOL    HW2 4692   0.540   3.598   0.258
 1314SOL     OW 4693   1.400   1.969   0.426
 1314SOL    HW1 4694   1.376   1.932   0.336
 1314SOL    HW2 4695   1.499   1.985   0.430
 1315SOL     OW 4696   0.249   3.647   1.241
 1315SOL    HW1 4697   0.306   3.582   1.291
 1315SOL    HW2 4698   0.233   3.614   1.148
 1316SOL     OW 4699   0.940   3.560   0.904
 1316SOL    HW1 4700   1.020   3.503   0.925
 1316SOL    HW2 4701   0.891   3.520   0.827
 1317SOL     OW 4702   0.382   2.562   0.480
 1317SOL    HW1 4703   0.427   2.472   0.477
 1317SOL    HW2 4704   0.288   2.551   0.513
 1318SOL     OW 4705   1.547   2.084   1.729
 1318SOL    HW1 4706   1.542   2.121   1.821
 1318SOL    HW2 4707   1.475   2.015   1.717
 1319SOL     OW 4708   0.614   1.984   0.117
 1319SOL    HW1 4709   0.712   1.962   0.124
 1319SOL    HW2 4710   0.583   1.967   0.024
 1320SOL     OW 4711   0.781   2.126   1.749
 1320SOL    HW1 4712   0.848   2.065   1.792
 1320SOL    HW2 4713   0.708   2.145   1.814
 1321SOL     OW 4714   0.888   3.376   1.195
 1321SOL    HW1 4715   0.865   3.351   1.101
 1321SOL    HW2 4716   0.949   3.307   1.234
 1322SOL     OW 4717   1.351   2.452   1.433
 1322SOL    HW1 4718   1.379   2.409   1.518
 1322SOL    HW2 4719   1.376   2.548   1.434
 1323SOL     OW 4720   0.803   3.264   0.924
 1323SOL    HW1 4721   0.893   3.278   0.882
 1323SOL    HW2 4722   0.732   3.266   0.853
 1324SOL     OW 4723   0.922   2.365   0.899
 1324SOL    HW1 4724   0.897   2.356   0.803
 1324SOL    HW2 4725   0.970   2.283   0.930
 1325SOL     OW 4726   0.539   1.926   0.512
 1325SOL    HW1 4727   0.458   1.927   0.570
 1325SOL    HW2 4728   0.542   2.009   0.457
 1326SOL     OW 4729   1.434   3.050   0.041
 1326SOL    HW1 4730   1.466   2.974   0.098
 1326SOL    HW2 4731   1.342   3.077   0.071
 1327SOL     OW 4732   0.297   1.897   0.171
 1327SOL    HW1 4733   0.346   1.981   0.150
 1327SOL    HW2 4734   0.359   1.832   0.216
 1328SOL     OW 4735   0.935   2.098   0.480
 1328SOL    HW1 4736   0.887   2.139   0.402
 1328SOL    HW2 4737   1.034   2.096   0.461
 1329SOL     OW 4738   1.076   2.545   1.464
 1329SOL    HW1 4739   0.996   2.484   1.467
 1329SOL    HW2 4740   1.157   2.492   1.440
 1330SOL     OW 4741   1.227   3.432   0.793
 1330SOL    HW1 4742   1.248   3.506   0.728
 1330SOL    HW2 4743   1.295   3.432   0.866
 1331SOL     OW 4744   0.459   3.014   0.741
 1331SOL    HW1 4745   0.388   2.987   0.806
 1331SOL    HW2 4746   0.433   2.986   0.648
 1332SOL     OW 4747   1.271   3.659   0.591
 1332SOL    HW1 4748   1.315   3.723   0.527
 1332SOL    HW2 4749   1.221   3.711   0.661
 1333SOL     OW 4750   1.032   2.411   0.016
 1333SOL    HW1 4751   0.991   2.493  -0.023
 1333SOL    HW2 4752   1.096   2.437   0.089
 1334SOL     OW 4753   0.078   2.418   1.386
 1334SOL    HW1 4754   0.170   2.417   1.345
 1334SOL    HW2 4755   0.072   2.492   1.453
 1335SOL     OW 4756   0.561   2.084   1.147
 1335SOL    HW1 4757   0.599   2.000   1.184
 1335SOL    HW2 4758   0.473   2.103   1.191
 1336SOL     OW 4759   0.866   2.316   0.642
 1336SOL    HW1 4760   0.834   2.388   0.580
 1336SOL    HW2 4761   0.890   2.235   0.589
 1337SOL     OW 4762   1.017   1.901   0.753
 1337SOL    HW1 4763   0.945   1.906   0.684
 1337SOL    HW2 4764   0.993   1.832   0.822
 1338SOL     OW 4765   1.429   3.035   0.867
 1338SOL    HW1 4766   1.374   2.951   0.860
 1338SOL    HW2 4767   1.455   3.064   0.775
 1339SOL     OW 4768   1.466   2.452   0.992
 1339SOL    HW1 4769   1.436   2.357   0.999
 1339SOL    HW2 4770   1.539   2.468   1.058
 1340SOL     OW 4771   1.857   2.695   0.377
 1340SOL    HW1 4772   1.899   2.631   0.441
 1340SOL    HW2 4773   1.819   2.644   0.299
 1341SOL     OW 4774   0.488   3.247   0.174
 1341SOL    HW1 4775   0.401   3.232   0.221
 1341SOL    HW2 4776   0.471   3.273   0.079
 1342SOL     OW 4777   1.664   3.142   0.657
 1342SOL    HW1 4778   1.763   3.150   0.671
 1342SOL    HW2 4779   1.619   3.226   0.688
 1343SOL     OW 4780   1.390   2.437   0.078
 1343SOL    HW1 4781   1.336   2.416   0.159
 1343SOL    HW2 4782   1.481   2.396   0.087
 1344SOL     OW 4783   0.527   2.118   0.328
 1344SOL    HW1 4784   0.554   2.059   0.253
 1344SOL    HW2 4785   0.527   2.213   0.297
 1345SOL     OW 4786   1.754   3.085   1.588
 1345SOL    HW1 4787   1.845   3.046   1.575
 1345SOL    HW2 4788   1.762   3.181   1.612
 1346SOL     OW 4789   1.064   3.209   1.340
 1346SOL    HW1 4790   0.984   3.186   1.395
 1346SOL    HW2 4791   1.147   3.183   1.389
 1347SOL     OW 4792   1.592   3.491   1.625
 1347SOL    HW1 4793   1.619   3.525   1.535
 1347SOL    HW2 4794   1.671   3.453   1.671
 1348SOL     OW 4795   1.111   3.057   1.100
 1348SOL    HW1 4796   1.071   3.101   1.181
 1348SOL    HW2 4797   1.070   3.094   1.017
 1349SOL     OW 4798   1.638   2.961   1.079
 1349SOL    HW1 4799   1.643   3.042   1.138
 1349SOL    HW2 4800   1.552   2.963   1.028
 1350SOL     OW 4801   0.915   1.951   1.402
 1350SOL    HW1 4802   0.940   1.931   1.307
 1350SOL    HW2 4803   0.987   2.007   1.444
 1351SOL     OW 4804   0.980   2.978   1.719
 1351SOL    HW1 4805   0.881   2.984   1.729
 1351SOL    HW2 4806   1.003   2.898   1.663
 1352SOL     OW 4807   0.705   2.912   0.368
 1352SOL    HW1 4808   0.691   2.919   0.467
 1352SOL    HW2 4809   0.789   2.861   0.350
 1353SOL     OW 4810   0.410   2.675   1.251
 1353SOL    HW1 4811   0.496   2.687   1.301
 1353SOL    HW2 4812   0.368   2.588   1.278
 1354SOL     OW 4813   1.274   2.248   1.262
 1354SOL    HW1 4814   1.295   2.322   1.326
 1354SOL    HW2 4815   1.185   2.265   1.219
 1355SOL     OW 4816   0.064   3.426   1.331
 1355SOL    HW1 4817   0.018   3.508   1.297
 1355SOL    HW2 4818   0.162   3.445   1.340
 1356SOL     OW 4819   0.367   2.962   0.501
 1356SOL    HW1 4820   0.360   3.045   0.445
 1356SOL    HW2 4821   0.371   2.882   0.441
 1357SOL     OW 4822   0.566   2.399   0.865
 1357SOL    HW1 4823   0.578   2.465   0.791
 1357SOL    HW2 4824   0.612   2.433   0.948
 1358SOL     OW 4825   1.252   3.210   0.388
 1358SOL    HW1 4826   1.302   3.287   0.428
 1358SOL    HW2 4827   1.157   3.212   0.420
 1359SOL     OW 4828   1.272   3.307   1.142
 1359SOL    HW1 4829   1.319   3.320   1.229
 1359SOL    HW2 4830   1.206   3.233   1.151
 1360SOL     OW 4831   1.582   2.501   0.472
 1360SOL    HW1 4832   1.551   2.562   0.545
 1360SOL    HW2 4833   1.632   2.553   0.403
 1361SOL     OW 4834   0.354   3.372   1.329
 1361SOL    HW1 4835   0.333   3.328   1.242
 1361SOL    HW2 4836   0.451   3.398   1.332
 1362SOL     OW 4837   0.402   2.613   1.598
 1362SOL    HW1 4838   0.470   2.668   1.551
 1362SOL    HW2 4839   0.442   2.525   1.625
 1363SOL     OW 4840   1.587   2.641   1.670
 1363SOL    HW1 4841   1.495   2.679   1.665
 1363SOL    HW2 4842   1.647   2.688   1.605
 1364SOL     OW 4843   1.013   1.967   1.770
 1364SOL    HW1 4844   1.019   2.052   1.718
 1364SOL    HW2 4845   1.045   1.891   1.713
 1365SOL     OW 4846   0.504   1.912   1.740
 1365SOL    HW1 4847   0.462   1.855   1.670
 1365SOL    HW2 4848   0.438   1.981   1.772
 1366SOL     OW 4849   0.573   2.732   1.029
 1366SOL    HW1 4850   0.617   2.821   1.020
 1366SOL    HW2 4851   0.510   2.732   1.106
 1367SOL     OW 4852   1.360   2.724   1.045
 1367SOL    HW1 4853   1.285   2.724   0.979
 1367SOL    HW2 4854   1.397   2.632   1.054
 1368SOL     OW 4855   1.209   2.387   0.275
 1368SOL    HW1 4856   1.222   2.303   0.329
 1368SOL    HW2 4857   1.180   2.461   0.335
 1369SOL     OW 4858   0.307   2.075   1.231
 1369SOL    HW1 4859   0.284   2.112   1.321
 1369SOL    HW2 4860   0.277   1.980   1.225
 1370SOL     OW 4861   0.037   3.172   1.282
 1370SOL    HW1 4862   0.090   3.123   1.350
 1370SOL    HW2 4863   0.059   3.270   1.287
 1371SOL     OW 4864   0.732   2.496   1.064
 1371SOL    HW1 4865   0.791   2.470   0.988
 1371SOL    HW2 4866   0.704   2.592   1.053
 1372SOL     OW 4867   1.728   2.797   1.854
 1372SOL    HW1 4868   1.682   2.790   1.765
 1372SOL    HW2 4869   1.666   2.841   1.920
 1373SOL     OW 4870   0.307   1.925   0.618
 1373SOL    HW1 4871   0.296   2.019   0.651
 1373SOL    HW2 4872   0.302   1.862   0.695
 1374SOL     OW 4873   1.622   2.229   0.374
 1374SOL    HW1 4874   1.624   2.153   0.438
 1374SOL    HW2 4875   1.574   2.306   0.414
 1375SOL     OW 4876   1.023   2.628   0.966
 1375SOL    HW1 4877   1.038   2.649   1.062
 1375SOL    HW2 4878   0.993   2.533   0.957
 1376SOL     OW 4879   0.980   3.435   1.700
 1376SOL    HW1 4880   0.960   3.479   1.612
 1376SOL    HW2 4881   1.019   3.344   1.684
 1377SOL     OW 4882   1.859   3.380   1.605
 1377SOL    HW1 4883   1.873   3.407   1.510
 1377SOL    HW2 4884   1.942   3.402   1.658
 1378SOL     OW 4885   0.350   2.760   1.804
 1378SOL    HW1 4886   0.426   2.804   1.852
 1378SOL    HW2 4887   0.385   2.713   1.722
 1379SOL     OW 4888   1.540   2.136   0.125
 1379SOL    HW1 4889   1.479   2.061   0.148
 1379SOL    HW2 4890   1.562   2.188   0.208
 1380SOL     OW 4891   1.303   2.700   0.042
 1380SOL    HW1 4892   1.337   2.607   0.057
 1380SOL    HW2 4893   1.321   2.727  -0.053
 1381SOL     OW 4894   1.068   3.195   0.849
 1381SOL    HW1 4895   1.075   3.111   0.794
 1381SOL    HW2 4896   1.130   3.264   0.813
 1382SOL     OW 4897   0.319   2.672   0.949
 1382SOL    HW1 4898   0.412   2.708   0.954
 1382SOL    HW2 4899   0.313   2.587   1.001
 1383SOL     OW 4900   0.339   2.371   1.006
 1383SOL    HW1 4901   0.287   2.288   0.989
 1383SOL    HW2 4902   0.416   2.376   0.942
 1384SOL     OW 4903   1.138   2.242   1.678
 1384SOL    HW1 4904   1.093   2.305   1.742
 1384SOL    HW2 4905   1.231   2.273   1.661
 1385SOL     OW 4906   1.160   2.069   1.477
 1385SOL    HW1 4907   1.160   2.133   1.554
 1385SOL    HW2 4908   1.188   2.117   1.394
 1386SOL     OW 4909   0.008   3.188   0.200
 1386SOL    HW1 4910  -0.085   3.209   0.169
 1386SOL    HW2 4911   0.018   3.089   0.213
 1387SOL     OW 4912   0.088   3.663   0.927
 1387SOL    HW1 4913   0.046   3.577   0.900
 1387SOL    HW2 4914   0.182   3.666   0.893
 1388SOL     OW 4915   0.504   3.430   0.910
 1388SOL    HW1 4916   0.570   3.504   0.919
 1388SOL    HW2 4917   0.548   3.351   0.868
 1389SOL     OW 4918   1.002   2.658   1.238
 1389SOL    HW1 4919   1.043   2.626   1.324
 1389SOL    HW2 4920   0.906   2.631   1.235
 1390SOL     OW 4921   0.040   2.406   1.114
 1390SOL    HW1 4922   0.125   2.373   1.073
 1390SOL    HW2 4923   0.053   2.421   1.212
 1391SOL     OW 4924   0.189   2.382   1.722
 1391SOL    HW1 4925   0.248   2.342   1.652
 1391SOL    HW2 4926   0.131   2.453   1.681
 1392SOL     OW 4927   1.369   2.812   1.660
 1392SOL    HW1 4928   1.408   2.901   1.680
 1392SOL    HW2 4929   1.379   2.792   1.563
 1393SOL     OW 4930   0.815   2.434   0.325
 1393SOL    HW1 4931   0.822   2.345   0.279
 1393SOL    HW2 4932   0.721   2.468   0.317
 1394SOL     OW 4933   1.657   2.466   1.206
 1394SOL    HW1 4934   1.619   2.397   1.268
 1394SOL    HW2 4935   1.739   2.430   1.162
 1395SOL     OW 4936   0.252   3.426   1.744
 1395SOL    HW1 4937   0.222   3.483   1.820
 1395SOL    HW2 4938   0.245   3.329   1.770
 1396SOL     OW 4939   0.671   2.326   1.269
 1396SOL    HW1 4940   0.637   2.237   1.239
 1396SOL    HW2 4941   0.697   2.380   1.189
 1397SOL     OW 4942   0.930   3.540   1.465
 1397SOL    HW1 4943   0.906   3.522   1.370
 1397SOL    HW2 4944   0.960   3.634   1.475
 1398SOL     OW 4945   0.473   2.362   0.191
 1398SOL    HW1 4946   0.534   2.442   0.195
 1398SOL    HW2 4947   0.378   2.393   0.198
 1399SOL     OW 4948   0.159   2.999   1.466
 1399SOL    HW1 4949   0.181   2.938   1.542
 1399SOL    HW2 4950   0.169   2.950   1.380
 1400SOL     OW 4951   1.347   2.921   1.234
 1400SOL    HW1 4952   1.371   2.858   1.160
 1400SOL    HW2 4953   1.257   2.961   1.216
 1401SOL     OW 4954   1.302   2.717   0.309
 1401SOL    HW1 4955   1.216   2.686   0.351
 1401SOL    HW2 4956   1.298   2.703   0.210
 1402SOL     OW 4957   1.759   3.609   1.154
 1402SOL    HW1 4958   1.820   3.639   1.081
 1402SOL    HW2 4959   1.721   3.520   1.132
 1403SOL     OW 4960   1.252   3.593   1.128
 1403SOL    HW1 4961   1.336   3.598   1.074
 1403SOL    HW2 4962   1.229   3.497   1.146
 1404SOL     OW 4963   0.083   3.120   1.022
 1404SOL    HW1 4964   0.078   3.119   1.122
 1404SOL    HW2 4965   0.000   3.079   0.984
 1405SOL     OW 4966   0.688   3.524   1.716
 1405SOL    HW1 4967   0.632   3.605   1.725
 1405SOL    HW2 4968   0.740   3.528   1.630
 1406SOL     OW 4969   0.903   1.948   0.133
 1406SOL    HW1 4970   0.954   1.949   0.047
 1406SOL    HW2 4971   0.959   1.906   0.204
 1407SOL     OW 4972   1.726   1.997   0.523
 1407SOL    HW1 4973   1.799   1.980   0.456
 1407SOL    HW2 4974   1.695   1.910   0.561
 1408SOL     OW 4975   1.388   3.435   0.477
 1408SOL    HW1 4976   1.455   3.447   0.403
 1408SOL    HW2 4977   1.348   3.524   0.500
 1409SOL     OW 4978   0.130   3.656   1.851
 1409SOL    HW1 4979   0.089   3.582   1.904
 1409SOL    HW2 4980   0.194   3.707   1.909
 1410SOL     OW 4981   1.280   2.789   0.672
 1410SOL    HW1 4982   1.340   2.708   0.674
 1410SOL    HW2 4983   1.320   2.858   0.612
 1411SOL     OW 4984   0.830   3.135   1.422
 1411SOL    HW1 4985   0.825   3.168   1.517
 1411SOL    HW2 4986   0.744   3.154   1.376
 1412SOL     OW 4987   0.672   3.478   0.154
 1412SOL    HW1 4988   0.681   3.488   0.055
 1412SOL    HW2 4989   0.632   3.389   0.175
 1413SOL     OW 4990   1.650   3.582   1.394
 1413SOL    HW1 4991   1.703   3.592   1.310
 1413SOL    HW2 4992   1.623   3.672   1.428
 1414SOL     OW 4993   1.841   2.037   0.963
 1414SOL    HW1 4994   1.880   1.952   0.927
 1414SOL    HW2 4995   1.743   2.039   0.944
 1415SOL     OW 4996   0.263   2.188   0.720
 1415SOL    HW1 4997   0.184   2.239   0.686
 1415SOL    HW2 4998   0.254   2.173   0.818
 1416SOL     OW 4999   1.194   3.474   0.031
 1416SOL    HW1 5000   1.200   3.381   0.068
 1416SOL    HW2 5001   1.135   3.474  -0.049
 1417SOL     OW 5002   0.822   2.864   1.372
 1417SOL    HW1 5003   0.862   2.863   1.280
 1417SOL    HW2 5004   0.832   2.956   1.412
 1418SOL     OW 5005   0.916   2.772   0.291
 1418SOL    HW1 5006   0.979   2.810   0.223
 1418SOL    HW2 5007   0.956   2.689   0.330
 1419SOL     OW 5008   1.504   3.469   0.044
 1419SOL    HW1 5009   1.412   3.506   0.051
 1419SOL    HW2 5010   1.542   3.489  -0.046
 1420SOL     OW 5011   0.372   3.150   1.490
 1420SOL    HW1 5012   0.359   3.243   1.456
 1420SOL    HW2 5013   0.288   3.098   1.477
 1421SOL     OW 5014   1.614   3.154   1.289
 1421SOL    HW1 5015   1.674   3.157   1.369
 1421SOL    HW2 5016   1.539   3.218   1.302
 1422SOL     OW 5017   1.039   2.960   0.696
 1422SOL    HW1 5018   0.969   2.913   0.750
 1422SOL    HW2 5019   1.098   2.892   0.653
 1423SOL     OW 5020   1.014   2.098   0.971
 1423SOL    HW1 5021   1.006   2.062   0.878
 1423SOL    HW2 5022   1.012   2.022   1.036
 1424SOL     OW 5023   0.590   3.349   0.491
 1424SOL    HW1 5024   0.632   3.291   0.421
 1424SOL    HW2 5025   0.546   3.428   0.447
 1425SOL     OW 5026   1.709   2.247   1.381
 1425SOL    HW1 5027   1.782   2.316   1.385
 1425SOL    HW2 5028   1.737   2.172   1.322
 1426SOL     OW 5029   0.255   3.210   0.290
 1426SOL    HW1 5030   0.159   3.211   0.263
 1426SOL    HW2 5031   0.267   3.263   0.374
 1427SOL     OW 5032   0.105   2.875   1.726
 1427SOL    HW1 5033   0.028   2.842   1.780
 1427SOL    HW2 5034   0.190   2.845   1.768
 1428SOL     OW 5035   0.672   2.065   1.489
 1428SOL    HW1 5036   0.762   2.049   1.449
 1428SOL    HW2 5037   0.680   2.070   1.588
 1429SOL     OW 5038   0.075   2.207   0.033
 1429SOL    HW1 5039  -0.017   2.179   0.004
 1429SOL    HW2 5040   0.106   2.284  -0.023
 1430SOL     OW 5041   1.440   2.718   1.398
 1430SOL    HW1 5042   1.383   2.770   1.335
 1430SOL    HW2 5043   1.536   2.730   1.374
 1431SOL     OW 5044   0.072   2.028   0.318
 1431SOL    HW1 5045   0.055   2.111   0.264
 1431SOL    HW2 5046   0.162   1.991   0.296
 1432SOL     OW 5047   1.183   3.197   0.119
 1432SOL    HW1 5048   1.084   3.186   0.121
 1432SOL    HW2 5049   1.217   3.212   0.212
 1433SOL     OW 5050   0.613   2.704   1.431
 1433SOL    HW1 5051   0.669   2.785   1.414
 1433SOL    HW2 5052   0.672   2.624   1.434
 1434SOL     OW 5053   1.493   3.629   0.959
 1434SOL    HW1 5054   1.526   3.693   0.890
 1434SOL    HW2 5055   1.559   3.623   1.034
 1435SOL     OW 5056   0.716   2.427   1.708
 1435SOL    HW1 5057   0.735   2.492   1.782
 1435SOL    HW2 5058   0.776   2.347   1.717
 1436SOL     OW 5059   1.450   3.082   1.633
 1436SOL    HW1 5060   1.441   3.072   1.732
 1436SOL    HW2 5061   1.546   3.075   1.607
 1437SOL     OW 5062   0.390   3.603   1.560
 1437SOL    HW1 5063   0.299   3.644   1.558
 1437SOL    HW2 5064   0.383   3.509   1.592
 1438SOL     OW 5065   1.674   2.745   1.254
 1438SOL    HW1 5066   1.647   2.656   1.217
 1438SOL    HW2 5067   1.675   2.813   1.181
 1439SOL     OW 5068   1.225   2.187   0.449
 1439SOL    HW1 5069   1.290   2.113   0.438
 1439SOL    HW2 5070   1.245   2.237   0.533
 1440SOL     OW 5071   0.594   2.607   0.652
 1440SOL    HW1 5072   0.644   2.692   0.633
 1440SOL    HW2 5073   0.506   2.609   0.604
 1441SOL     OW 5074   1.777   2.204   1.642
 1441SOL    HW1 5075   1.760   2.235   1.548
 1441SOL    HW2 5076   1.693   2.167   1.680
 1442SOL     OW 5077   1.730   2.796   1.517
 1442SOL    HW1 5078   1.768   2.887   1.532
 1442SOL    HW2 5079   1.722   2.779   1.418
 1443SOL     OW 5080   0.859   3.236   0.016
 1443SOL    HW1 5081   0.813   3.251   0.104
 1443SOL    HW2 5082   0.903   3.321  -0.014
 1444SOL     OW 5083   0.661   3.652   0.953
 1444SOL    HW1 5084   0.615   3.740   0.940
 1444SOL    HW2 5085   0.760   3.664   0.946
 1445SOL     OW 5086   0.859   2.818   0.861
 1445SOL    HW1 5087   0.913   2.749   0.909
 1445SOL    HW2 5088   0.827   2.887   0.927
 1446SOL     OW 5089   1.083   2.846   0.087
 1446SOL    HW1 5090   1.060   2.899   0.005
 1446SOL    HW2 5091   1.164   2.790   0.068
 1447SOL     OW 5092   1.861   3.431   0.851
 1447SOL    HW1 5093   1.790   3.419   0.781
 1447SOL    HW2 5094   1.862   3.352   0.911
 1448SOL     OW 5095   0.221   3.176   1.844
 1448SOL    HW1 5096   0.156   3.103   1.823
 1448SOL    HW2 5097   0.225   3.190   1.942
 1449SOL     OW 5098   0.079   3.102   0.653
 1449SOL    HW1 5099   0.078   3.055   0.741
 1449SOL    HW2 5100   0.161   3.074   0.602
 1450SOL     OW 5101   0.672   3.253   1.624
 1450SOL    HW1 5102   0.594   3.203   1.662
 1450SOL    HW2 5103   0.669   3.348   1.655
 1451SOL     OW 5104   1.824   2.054   1.227
 1451SOL    HW1 5105   1.820   1.964   1.271
 1451SOL    HW2 5106   1.827   2.043   1.128
 1452SOL     OW 5107   0.428   2.286   0.520
 1452SOL    HW1 5108   0.458   2.214   0.458
 1452SOL    HW2 5109   0.389   2.246   0.603
 1453SOL     OW 5110   1.705   3.349   1.104
 1453SOL    HW1 5111   1.612   3.324   1.077
 1453SOL    HW2 5112   1.731   3.299   1.186
 1454SOL     OW 5113   0.317   2.409   1.280
 1454SOL    HW1 5114   0.355   2.350   1.352
 1454SOL    HW2 5115   0.357   2.383   1.192
 1455SOL     OW 5116   0.812   3.448   0.687
 1455SOL    HW1 5117   0.844   3.458   0.593
 1455SOL    HW2 5118   0.733   3.386   0.689
 1456SOL     OW 5119   1.424   2.076   1.112
 1456SOL    HW1 5120   1.476   2.011   1.167
 1456SOL    HW2 5121   1.375   2.139   1.173
 1457SOL     OW 5122   1.001   1.896   1.154
 1457SOL    HW1 5123   0.938   1.824   1.123
 1457SOL    HW2 5124   1.094   1.860   1.154
 1458SOL     OW 5125   0.770   3.192   0.301
 1458SOL    HW1 5126   0.724   3.105   0.318
 1458SOL    HW2 5127   0.861   3.189   0.342
 1459SOL     OW 5128   0.618   3.429   1.284
 1459SOL    HW1 5129   0.613   3.511   1.341
 1459SOL    HW2 5130   0.707   3.426   1.239
 1460SOL     OW 5131   1.352   1.914   0.168
 1460SOL    HW1 5132   1.387   1.873   0.084
 1460SOL    HW2 5133   1.262   1.876   0.188
 1461SOL     OW 5134   1.300   2.315   0.691
 1461SOL    HW1 5135   1.241   2.395   0.695
 1461SOL    HW2 5136   1.315   2.280   0.784
 1462SOL     OW 5137   1.593   2.083   0.882
 1462SOL    HW1 5138   1.509   2.082   0.936
 1462SOL    HW2 5139   1.595   2.166   0.826
 1463SOL     OW 5140   0.039   2.939   0.300
 1463SOL    HW1 5141   0.138   2.928   0.291
 1463SOL    HW2 5142  -0.001   2.853   0.332
 1464SOL     OW 5143   0.875   3.508   0.337
 1464SOL    HW1 5144   0.798   3.473   0.283
 1464SOL    HW2 5145   0.843   3.579   0.399
 1465SOL     OW 5146   0.230   2.490   1.975
 1465SOL    HW1 5147   0.137   2.488   2.012
 1465SOL    HW2 5148   0.231   2.451   1.883
 1466SOL     OW 5149   0.225   2.137   2.858
 1466SOL    HW1 5150   0.260   2.120   2.950
 1466SOL    HW2 5151   0.137   2.092   2.846
 1467SOL     OW 5152   0.019   2.230   2.509
 1467SOL    HW1 5153  -0.063   2.273   2.548
 1467SOL    HW2 5154  -0.009   2.157   2.446
 1468SOL     OW 5155   0.569   3.137   3.027
 1468SOL    HW1 5156   0.476   3.130   2.990
 1468SOL    HW2 5157   0.580   3.226   3.071
 1469SOL     OW 5158   1.555   3.373   2.565
 1469SOL    HW1 5159   1.498   3.357   2.646
 1469SOL    HW2 5160   1.496   3.383   2.485
 1470SOL     OW 5161   1.135   2.565   2.579
 1470SOL    HW1 5162   1.192   2.643   2.554
 1470SOL    HW2 5163   1.075   2.591   2.655
 1471SOL     OW 5164   1.755   2.469   2.093
 1471SOL    HW1 5165   1.743   2.456   1.994
 1471SOL    HW2 5166   1.725   2.388   2.142
 1472SOL     OW 5167   0.768   3.006   2.885
 1472SOL    HW1 5168   0.690   3.023   2.945
 1472SOL    HW2 5169   0.802   3.093   2.849
 1473SOL     OW 5170   0.850   2.660   3.685
 1473SOL    HW1 5171   0.846   2.736   3.750
 1473SOL    HW2 5172   0.872   2.696   3.594
 1474SOL     OW 5173   0.685   2.874   2.527
 1474SOL    HW1 5174   0.754   2.858   2.597
 1474SOL    HW2 5175   0.612   2.931   2.565
 1475SOL     OW 5176   0.686   3.023   3.665
 1475SOL    HW1 5177   0.746   3.102   3.679
 1475SOL    HW2 5178   0.600   3.054   3.624
 1476SOL     OW 5179   0.335   3.297   2.923
 1476SOL    HW1 5180   0.257   3.266   2.870
 1476SOL    HW2 5181   0.393   3.355   2.866
 1477SOL     OW 5182   1.460   3.367   3.201
 1477SOL    HW1 5183   1.484   3.461   3.227
 1477SOL    HW2 5184   1.444   3.313   3.283
 1478SOL     OW 5185   0.438   2.254   3.361
 1478SOL    HW1 5186   0.520   2.198   3.370
 1478SOL    HW2 5187   0.357   2.196   3.365
 1479SOL     OW 5188   1.603   2.309   2.599
 1479SOL    HW1 5189   1.529   2.355   2.549
 1479SOL    HW2 5190   1.654   2.377   2.652
 1480SOL     OW 5191   0.231   3.575   2.345
 1480SOL    HW1 5192   0.265   3.652   2.399
 1480SOL    HW2 5193   0.275   3.575   2.255
 1481SOL     OW 5194   1.127   3.203   3.552
 1481SOL    HW1 5195   1.174   3.203   3.640
 1481SOL    HW2 5196   1.079   3.116   3.541
 1482SOL     OW 5197   0.230   3.296   2.400
 1482SOL    HW1 5198   0.204   3.392   2.400
 1482SOL    HW2 5199   0.159   3.242   2.445
 1483SOL     OW 5200   0.240   2.953   2.748
 1483SOL    HW1 5201   0.254   2.869   2.800
 1483SOL    HW2 5202   0.185   3.017   2.803
 1484SOL     OW 5203   0.620   3.648   3.301
 1484SOL    HW1 5204   0.528   3.631   3.336
 1484SOL    HW2 5205   0.648   3.740   3.327
 1485SOL     OW 5206   0.606   2.826   1.985
 1485SOL    HW1 5207   0.613   2.910   1.931
 1485SOL    HW2 5208   0.652   2.839   2.073
 1486SOL     OW 5209   1.594   1.976   3.342
 1486SOL    HW1 5210   1.576   2.043   3.270
 1486SOL    HW2 5211   1.591   2.022   3.431
 1487SOL     OW 5212   0.122   2.505   2.425
 1487SOL    HW1 5213   0.077   2.417   2.442
 1487SOL    HW2 5214   0.121   2.559   2.509
 1488SOL     OW 5215   1.842   3.629   2.221
 1488SOL    HW1 5216   1.896   3.600   2.301
 1488SOL    HW2 5217   1.872   3.719   2.192
 1489SOL     OW 5218   0.027   3.458   1.979
 1489SOL    HW1 5219   0.008   3.362   2.000
 1489SOL    HW2 5220  -0.006   3.516   2.054
 1490SOL     OW 5221   1.689   2.784   2.474
 1490SOL    HW1 5222   1.784   2.755   2.482
 1490SOL    HW2 5223   1.681   2.849   2.399
 1491SOL     OW 5224   1.641   2.970   2.294
 1491SOL    HW1 5225   1.727   2.972   2.242
 1491SOL    HW2 5226   1.655   3.017   2.382
 1492SOL     OW 5227   0.113   2.599   3.459
 1492SOL    HW1 5228   0.201   2.586   3.504
 1492SOL    HW2 5229   0.100   2.696   3.437
 1493SOL     OW 5230   0.613   3.227   2.588
 1493SOL    HW1 5231   0.564   3.140   2.597
 1493SOL    HW2 5232   0.590   3.270   2.501
 1494SOL     OW 5233   1.293   3.090   3.285
 1494SOL    HW1 5234   1.330   3.017   3.227
 1494SOL    HW2 5235   1.345   3.095   3.370
 1495SOL     OW 5236   0.809   1.866   2.364
 1495SOL    HW1 5237   0.849   1.957   2.355
 1495SOL    HW2 5238   0.709   1.874   2.370
 1496SOL     OW 5239   0.197   2.838   3.126
 1496SOL    HW1 5240   0.286   2.793   3.112
 1496SOL    HW2 5241   0.124   2.773   3.107
 1497SOL     OW 5242   1.525   2.861   2.052
 1497SOL    HW1 5243   1.462   2.785   2.065
 1497SOL    HW2 5244   1.573   2.879   2.138
 1498SOL     OW 5245   1.187   3.654   3.478
 1498SOL    HW1 5246   1.211   3.714   3.402
 1498SOL    HW2 5247   1.194   3.559   3.448
 1499SOL     OW 5248   0.317   2.113   3.663
 1499SOL    HW1 5249   0.388   2.184   3.669
 1499SOL    HW2 5250   0.229   2.152   3.691
 1500SOL     OW 5251   1.466   3.279   2.815
 1500SOL    HW1 5252   1.407   3.285   2.895
 1500SOL    HW2 5253   1.451   3.191   2.769
 1501SOL     OW 5254   1.667   3.576   2.434
 1501SOL    HW1 5255   1.626   3.553   2.346
 1501SOL    HW2 5256   1.649   3.502   2.499
 1502SOL     OW 5257   0.598   2.591   2.132
 1502SOL    HW1 5258   0.622   2.660   2.064
 1502SOL    HW2 5259   0.520   2.624   2.186
 1503SOL     OW 5260   1.281   2.207   2.806
 1503SOL    HW1 5261   1.195   2.157   2.793
 1503SOL    HW2 5262   1.343   2.153   2.862
 1504SOL     OW 5263   1.576   3.524   2.169
 1504SOL    HW1 5264   1.665   3.570   2.172
 1504SOL    HW2 5265   1.555   3.500   2.074
 1505SOL     OW 5266   0.807   2.467   3.327
 1505SOL    HW1 5267   0.760   2.464   3.416
 1505SOL    HW2 5268   0.756   2.412   3.261
 1506SOL     OW 5269   1.394   2.331   3.536
 1506SOL    HW1 5270   1.374   2.374   3.624
 1506SOL    HW2 5271   1.472   2.269   3.545
 1507SOL     OW 5272   0.973   2.752   3.434
 1507SOL    HW1 5273   1.019   2.668   3.405
 1507SOL    HW2 5274   0.917   2.786   3.359
 1508SOL     OW 5275   0.991   2.272   3.104
 1508SOL    HW1 5276   0.914   2.306   3.158
 1508SOL    HW2 5277   0.957   2.221   3.025
 1509SOL     OW 5278   1.041   2.563   2.291
 1509SOL    HW1 5279   1.067   2.559   2.387
 1509SOL    HW2 5280   0.956   2.512   2.277
 1510SOL     OW 5281   0.076   2.673   2.651
 1510SOL    HW1 5282   0.175   2.661   2.660
 1510SOL    HW2 5283   0.052   2.768   2.672
 1511SOL     OW 5284   0.130   3.683   3.433
 1511SOL    HW1 5285   0.120   3.668   3.532
 1511SOL    HW2 5286   0.044   3.719   3.397
 1512SOL     OW 5287   0.865   2.210   2.057
 1512SOL    HW1 5288   0.924   2.273   2.008
 1512SOL    HW2 5289   0.884   2.116   2.028
 1513SOL     OW 5290   1.719   2.447   3.693
 1513SOL    HW1 5291   1.693   2.536   3.657
 1513SOL    HW2 5292   1.717   2.379   3.620
 1514SOL     OW 5293   1.362   3.006   2.407
 1514SOL    HW1 5294   1.445   2.977   2.359
 1514SOL    HW2 5295   1.313   3.073   2.351
 1515SOL     OW 5296   0.550   2.058   2.747
 1515SOL    HW1 5297   0.545   2.053   2.847
 1515SOL    HW2 5298   0.552   2.154   2.718
 1516SOL     OW 5299   1.008   3.318   2.339
 1516SOL    HW1 5300   0.962   3.390   2.287
 1516SOL    HW2 5301   1.004   3.338   2.437
 1517SOL     OW 5302   0.351   3.663   2.715
 1517SOL    HW1 5303   0.401   3.577   2.721
 1517SOL    HW2 5304   0.416   3.740   2.712
 1518SOL     OW 5305   1.795   2.928   2.735
 1518SOL    HW1 5306   1.733   2.913   2.659
 1518SOL    HW2 5307   1.743   2.939   2.820
 1519SOL     OW 5308   1.227   3.412   3.368
 1519SOL    HW1 5309   1.233   3.335   3.432
 1519SOL    HW2 5310   1.175   3.386   3.288
 1520SOL     OW 5311   0.321   2.805   2.104
 1520SOL    HW1 5312   0.403   2.844   2.062
 1520SOL    HW2 5313   0.294   2.723   2.055
 1521SOL     OW 5314   1.458   2.597   2.590
 1521SOL    HW1 5315   1.453   2.532   2.665
 1521SOL    HW2 5316   1.538   2.656   2.603
 1522SOL     OW 5317   0.461   3.128   3.589
 1522SOL    HW1 5318   0.411   3.129   3.503
 1522SOL    HW2 5319   0.398   3.110   3.665
 1523SOL     OW 5320   1.111   3.638   2.099
 1523SOL    HW1 5321   1.051   3.576   2.149
 1523SOL    HW2 5322   1.142   3.594   2.014
 1524SOL     OW 5323   0.202   2.147   3.360
 1524SOL    HW1 5324   0.122   2.207   3.347
 1524SOL    HW2 5325   0.192   2.098   3.446
 1525SOL     OW 5326   1.632   3.239   1.943
 1525SOL    HW1 5327   1.600   3.333   1.933
 1525SOL    HW2 5328   1.556   3.176   1.931
 1526SOL     OW 5329   0.464   3.605   2.185
 1526SOL    HW1 5330   0.497   3.644   2.271
 1526SOL    HW2 5331   0.540   3.598   2.120
 1527SOL     OW 5332   1.400   1.969   2.288
 1527SOL    HW1 5333   1.376   1.932   2.198
 1527SOL    HW2 5334   1.499   1.985   2.292
 1528SOL     OW 5335   0.249   3.647   3.103
 1528SOL    HW1 5336   0.306   3.582   3.153
 1528SOL    HW2 5337   0.233   3.614   3.010
 1529SOL     OW 5338   0.940   3.560   2.766
 1529SOL    HW1 5339   1.020   3.503   2.787
 1529SOL    HW2 5340   0.891   3.520   2.689
 1530SOL     OW 5341   0.382   2.562   2.342
 1530SOL    HW1 5342   0.427   2.472   2.339
 1530SOL    HW2 5343   0.288   2.551   2.375
 1531SOL     OW 5344   1.547   2.084   3.591
 1531SOL    HW1 5345   1.542   2.121   3.683
 1531SOL    HW2 5346   1.475   2.015   3.579
 1532SOL     OW 5347   0.614   1.984   1.979
 1532SOL    HW1 5348   0.712   1.962   1.986
 1532SOL    HW2 5349   0.583   1.967   1.886
 1533SOL     OW 5350   0.781   2.126   3.611
 1533SOL    HW1 5351   0.848   2.065   3.654
 1533SOL    HW2 5352   0.708   2.145   3.676
 1534SOL     OW 5353   0.888   3.376   3.057
 1534SOL    HW1 5354   0.865   3.351   2.963
 1534SOL    HW2 5355   0.949   3.307   3.096
 1535SOL     OW 5356   1.351   2.452   3.295
 1535SOL    HW1 5357   1.379   2.409   3.380
 1535SOL    HW2 5358   1.376   2.548   3.296
 1536SOL     OW 5359   0.803   3.264   2.786
 1536SOL    HW1 5360   0.893   3.278   2.744
 1536SOL    HW2 5361   0.732   3.266   2.715
 1537SOL     OW 5362   0.922   2.365   2.761
 1537SOL    HW1 5363   0.897   2.356   2.665
 1537SOL    HW2 5364   0.970   2.283   2.792
 1538SOL     OW 5365   0.539   1.926   2.374
 1538SOL    HW1 5366   0.458   1.927   2.432
 1538SOL    HW2 5367   0.542   2.009   2.319
 1539SOL     OW 5368   1.434   3.050   1.903
 1539SOL    HW1 5369   1.466   2.974   1.960
 1539SOL    HW2 5370   1.342   3.077   1.933
 1540SOL     OW 5371   0.297   1.897   2.033
 1540SOL    HW1 5372   0.346   1.981   2.012
 1540SOL    HW2 5373   0.359   1.832   2.078
 1541SOL     OW 5374   0.935   2.098   2.342
 1541SOL    HW1 5375   0.887   2.139   2.264
 1541SOL    HW2 5376   1.034   2.096   2.323
 1542SOL     OW 5377   1.076   2.545   3.326
 1542SOL    HW1 5378   0.996   2.484   3.329
 1542SOL    HW2 5379   1.157   2.492   3.302
 1543SOL     OW 5380   1.227   3.432   2.655
 1543SOL    HW1 5381   1.248   3.506   2.590
 1543SOL    HW2 5382   1.295   3.432   2.728
 1544SOL     OW 5383   0.459   3.014   2.603
 1544SOL    HW1 5384   0.388   2.987   2.668
 1544SOL    HW2 5385   0.433   2.986   2.510
 1545SOL     OW 5386   1.271   3.659   2.453
 1545SOL    HW1 5387   1.315   3.723   2.389
 1545SOL    HW2 5388   1.221   3.711   2.523
 1546SOL     OW 5389   1.032   2.411   1.878
 1546SOL    HW1 5390   0.991   2.493   1.839
 1546SOL    HW2 5391   1.096   2.437   1.951
 1547SOL     OW 5392   0.078   2.418   3.248
 1547SOL    HW1 5393   0.170   2.417   3.207
 1547SOL    HW2 5394   0.072   2.492   3.315
 1548SOL     OW 5395   0.561   2.084   3.009
 1548SOL    HW1 5396   0.599   2.000   3.046
 1548SOL    HW2 5397   0.473   2.103   3.053
 1549SOL     OW 5398   0.866   2.316   2.504
 1549SOL    HW1 5399   0.834   2.388   2.442
 1549SOL    HW2 5400   0.890   2.235   2.451
 1550SOL     OW 5401   1.017   1.901   2.615
 1550SOL    HW1 5402   0.945   1.906   2.546
 1550SOL    HW2 5403   0.993   1.832   2.684
 1551SOL     OW 5404   1.429   3.035   2.729
 1551SOL    HW1 5405   1.374   2.951   2.722
 1551SOL    HW2 5406   1.455   3.064   2.637
 1552SOL     OW 5407   1.466   2.452   2.854
 1552SOL    HW1 5408   1.436   2.357   2.861
 1552SOL    HW2 5409   1.539   2.468   2.920
 1553SOL     OW 5410   1.857   2.695   2.239
 1553SOL    HW1 5411   1.899   2.631   2.303
 1553SOL    HW2 5412   1.819   2.644   2.161
 1554SOL     OW 5413   0.488   3.247   2.036
 1554SOL    HW1 5414   0.401   3.232   2.083
 1554SOL    HW2 5415   0.471   3.273   1.941
 1555SOL     OW 5416   1.664   3.142   2.519
 1555SOL    HW1 5417   1.763   3.150   2.533
 1555SOL    HW2 5418   1.619   3.226   2.550
 1556SOL     OW 5419   1.390   2.437   1.940
 1556SOL    HW1 5420   1.336   2.416   2.021
 1556SOL    HW2 5421   1.481   2.396   1.949
 1557SOL     OW 5422   0.527   2.118   2.190
 1557SOL    HW1 5423   0.554   2.059   2.115
 1557SOL    HW2 5424   0.527   2.213   2.159
 1558SOL     OW 5425   1.754   3.085   3.450
 1558SOL    HW1 5426   1.845   3.046   3.437
 1558SOL    HW2 5427   1.762   3.181   3.474
 1559SOL     OW 5428   1.064   3.209   3.202
 1559SOL    HW1 5429   0.984   3.186   3.257
 1559SOL    HW2 5430   1.147   3.183   3.251
 1560SOL     OW 5431   1.592   3.491   3.487
 1560SOL    HW1 5432   1.619   3.525   3.397
 1560SOL    HW2 5433   1.671   3.453   3.533
 1561SOL     OW 5434   1.111   3.057   2.962
 1561SOL    HW1 5435   1.071   3.101   3.043
 1561SOL    HW2 5436   1.070   3.094   2.879
 1562SOL     OW 5437   1.638   2.961   2.941
 1562SOL    HW1 5438   1.643   3.042   3.000
 1562SOL    HW2 5439   1.552   2.963   2.890
 1563SOL     OW 5440   0.915   1.951   3.264
 1563SOL    HW1 5441   0.940   1.931   3.169
 1563SOL    HW2 5442   0.987   2.007   3.306
 1564SOL     OW 5443   0.980   2.978   3.581
 1564SOL    HW1 5444   0.881   2.984   3.591
 1564SOL    HW2 5445   1.003   2.898   3.525
 1565SOL     OW 5446   0.705   2.912   2.230
 1565SOL    HW1 5447   0.691   2.919   2.329
 1565SOL    HW2 5448   0.789   2.861   2.212
 1566SOL     OW 5449   0.410   2.675   3.113
 1566SOL    HW1 5450   0.496   2.687   3.163
 1566SOL    HW2 5451   0.368   2.588   3.140
 1567SOL     OW 5452   1.274   2.248   3.124
 1567SOL    HW1 5453   1.295   2.322   3.188
 1567SOL    HW2 5454   1.185   2.265   3.081
 1568SOL     OW 5455   0.064   3.426   3.193
 1568SOL    HW1 5456   0.018   3.508   3.159
 1568SOL    HW2 5457   0.162   3.445   3.202
 1569SOL     OW 5458   0.367   2.962   2.363
 1569SOL    HW1 5459   0.360   3.045   2.307
 1569SOL    HW2 5460   0.371   2.882   2.303
 1570SOL     OW 5461   0.566   2.399   2.727
 1570SOL    HW1 5462   0.578   2.465   2.653
 1570SOL    HW2 5463   0.612   2.433   2.810
 1571SOL     OW 5464   1.252   3.210   2.250
 1571SOL    HW1 5465   1.302   3.287   2.290
 1571SOL    HW2 5466   1.157   3.212   2.282
 1572SOL     OW 5467   1.272   3.307   3.004
 1572SOL    HW1 5468   1.319   3.320   3.091
 1572SOL    HW2 5469   1.206   3.233   3.013
 1573SOL     OW 5470   1.582   2.501   2.334
 1573SOL    HW1 5471   1.551   2.562   2.407
 1573SOL    HW2 5472   1.632   2.553   2.265
 1574SOL     OW 5473   0.354   3.372   3.191
 1574SOL    HW1 5474   0.333   3.328   3.104
 1574SOL    HW2 5475   0.451   3.398   3.194
 1575SOL     OW 5476   0.402   2.613   3.460
 1575SOL    HW1 5477   0.470   2.668   3.413
 1575SOL    HW2 5478   0.442   2.525   3.487
 1576SOL     OW 5479   1.587   2.641   3.532
 1576SOL    HW1 5480   1.495   2.679   3.527
 1576SOL    HW2 5481   1.647   2.688   3.467
 1577SOL     OW 5482   1.013   1.967   3.632
 1577SOL    HW1 5483   1.019   2.052   3.580
 1577SOL    HW2 5484   1.045   1.891   3.575
 1578SOL     OW 5485   0.504   1.912   3.602
 1578SOL    HW1 5486   0.462   1.855   3.532
 1578SOL    HW2 5487   0.438   1.981   3.634
 1579SOL     OW 5488   0.573   2.732   2.891
 1579SOL    HW1 5489   0.617   2.821   2.882
 1579SOL    HW2 5490   0.510   2.732   2.968
 1580SOL     OW 5491   1.360   2.724   2.907
 1580SOL    HW1 5492   1.285   2.724   2.841
 1580SOL    HW2 5493   1.397   2.632   2.916
 1581SOL     OW 5494   1.209   2.387   2.137
 1581SOL    HW1 5495   1.222   2.303   2.191
 1581SOL    HW2 5496   1.180   2.461   2.197
 1582SOL     OW 5497   0.307   2.075   3.093
 1582SOL    HW1 5498   0.284   2.112   3.183
 1582SOL    HW2 5499   0.277   1.980   3.087
 1583SOL     OW 5500   0.037   3.172   3.144
 1583SOL    HW1 5501   0.090   3.123   3.212
 1583SOL    HW2 5502   0.059   3.270   3.149
 1584SOL     OW 5503   0.732   2.496   2.926
 1584SOL    HW1 5504   0.791   2.470   2.850
 1584SOL    HW2 5505   0.704   2.592   2.915
 1585SOL     OW 5506   1.728   2.797   3.716
 1585SOL    HW1 5507   1.682   2.790   3.627
 1585SOL    HW2 5508   1.666   2.841   3.782
 1586SOL     OW 5509   0.307   1.925   2.480
 1586SOL    HW1 5510   0.296   2.019   2.513
 1586SOL    HW2 5511   0.302   1.862   2.557
 1587SOL     OW 5512   1.622   2.229   2.236
 1587SOL    HW1 5513   1.624   2.153   2.300
 1587SOL    HW2 5514   1.574   2.306   2.276
 1588SOL     OW 5515   1.023   2.628   2.828
 1588SOL    HW1 5516   1.038   2.649   2.924
 1588SOL    HW2 5517   0.993   2.533   2.819
 1589SOL     OW 5518   0.980   3.435   3.562
 1589SOL    HW1 5519   0.960   3.479   3.474
 1589SOL    HW2 5520   1.019   3.344   3.546
 1590SOL     OW 5521   1.859   3.380   3.467
 1590SOL    HW1 5522   1.873   3.407   3.372
 1590SOL    HW2 5523   1.942   3.402   3.520
 1591SOL     OW 5524   0.350   2.760   3.666
 1591SOL    HW1 5525   0.426   2.804   3.714
 1591SOL    HW2 5526   0.385   2.713   3.584
 1592SOL     OW 5527   1.540   2.136   1.987
 1592SOL    HW1 5528   1.479   2.061   2.010
 1592SOL    HW2 5529   1.562   2.188   2.070
 1593SOL     OW 5530   1.303   2.700   1.904
 1593SOL    HW1 5531   1.337   2.607   1.919
 1593SOL    HW2 5532   1.321   2.727   1.809
 1594SOL     OW 5533   1.068   3.195   2.711
 1594SOL    HW1 5534   1.075   3.111   2.656
 1594SOL    HW2 5535   1.130   3.264   2.675
 1595SOL     OW 5536   0.319   2.672   2.811
 1595SOL    HW1 5537   0.412   2.708   2.816
 1595SOL    HW2 5538   0.313   2.587   2.863
 1596SOL     OW 5539   0.339   2.371   2.868
 1596SOL    HW1 5540   0.287   2.288   2.851
 1596SOL    HW2 5541   0.416   2.376   2.804
 1597SOL     OW 5542   1.138   2.242   3.540
 1597SOL    HW1 5543   1.093   2.305   3.604
 1597SOL    HW2 5544   1.231   2.273   3.523
 1598SOL     OW 5545   1.160   2.069   3.339
 1598SOL    HW1 5546   1.160   2.133   3.416
 1598SOL    HW2 5547   1.188   2.117   3.256
 1599SOL     OW 5548   0.008   3.188   2.062
 1599SOL    HW1 5549  -0.085   3.209   2.031
 1599SOL    HW2 5550   0.018   3.089   2.075
 1600SOL     OW 5551   0.088   3.663   2.789
 1600SOL    HW1 5552   0.046   3.577   2.762
 1600SOL    HW2 5553   0.182   3.666   2.755
 1601SOL     OW 5554   0.504   3.430   2.772
 1601SOL    HW1 5555   0.570   3.504   2.781
 1601SOL    HW2 5556   0.548   3.351   2.730
 1602SOL     OW 5557   1.002   2.658   3.100
 1602SOL    HW1 5558   1.043   2.626   3.186
 1602SOL    HW2 5559   0.906   2.631   3.097
 1603SOL     OW 5560   0.040   2.406   2.976
 1603SOL    HW1 5561   0.125   2.373   2.935
 1603SOL    HW2 5562   0.053   2.421   3.074
 1604SOL     OW 5563   0.189   2.382   3.584
 1604SOL    HW1 5564   0.248   2.342   3.514
 1604SOL    HW2 5565   0.131   2.453   3.543
 1605SOL     OW 5566   1.369   2.812   3.522
 1605SOL    HW1 5567   1.408   2.901   3.542
 1605SOL    HW2 5568   1.379   2.792   3.425
 1606SOL     OW 5569   0.815   2.434   2.187
 1606SOL    HW1 5570   0.822   2.345   2.141
 1606SOL    HW2 5571   0.721   2.468   2.179
 1607SOL     OW 5572   1.657   2.466   3.068
 1607SOL    HW1 5573   1.619   2.397   3.130
 1607SOL    HW2 5574   1.739   2.430   3.024
 1608SOL     OW 5575   0.252   3.426   3.606
 1608SOL    HW1 5576   0.222   3.483   3.682
 1608SOL    HW2 5577   0.245   3.329   3.632
 1609SOL     OW 5578   0.671   2.326   3.131
 1609SOL    HW1 5579   0.637   2.237   3.101
 1609SOL    HW2 5580   0.697   2.380   3.051
 1610SOL     OW 5581   0.930   3.540   3.327
 1610SOL    HW1 5582   0.906   3.522   3.232
 1610SOL    HW2 5583   0.960   3.634   3.337
 1611SOL     OW 5584   0.473   2.362   2.053
 1611SOL    HW1 5585   0.534   2.442   2.057
 1611SOL    HW2 5586   0.378   2.393   2.060
 1612SOL     OW 5587   0.159   2.999   3.328
 1612SOL    HW1 5588   0.181   2.938   3.404
 1612SOL    HW2 5589   0.169   2.950   3.242
 1613SOL     OW 5590   1.347   2.921   3.096
 1613SOL    HW1 5591   1.371   2.858   3.022
 1613SOL    HW2 5592   1.257   2.961   3.078
 1614SOL     OW 5593   1.302   2.717   2.171
 1614SOL    HW1 5594   1.216   2.686   2.213
 1614SOL    HW2 5595   1.298   2.703   2.072
 1615SOL     OW 5596   1.759   3.609   3.016
 1615SOL    HW1 5597   1.820   3.639   2.943
 1615SOL    HW2 5598   1.721   3.520   2.994
 1616SOL     OW 5599   1.252   3.593   2.990
 1616SOL    HW1 5600   1.336   3.598   2.936
 1616SOL    HW2 5601   1.229   3.497   3.008
 1617SOL     OW 5602   0.083   3.120   2.884
 1617SOL    HW1 5603   0.078   3.119   2.984
 1617SOL    HW2 5604   0.000   3.079   2.846
 1618SOL     OW 5605   0.688   3.524   3.578
 1618SOL    HW1 5606   0.632   3.605   3.587
 1618SOL    HW2 5607   0.740   3.528   3.492
 1619SOL     OW 5608   1.726   1.997   2.385
 1619SOL    HW1 5609   1.799   1.980   2.318
 1619SOL    HW2 5610   1.695   1.910   2.423
 1620SOL     OW 5611   1.388   3.435   2.339
 1620SOL    HW1 5612   1.455   3.447   2.265
 1620SOL    HW2 5613   1.348   3.524   2.362
 1621SOL     OW 5614   0.130   3.656   3.713
 1621SOL    HW1 5615   0.089   3.582   3.766
 1621SOL    HW2 5616   0.194   3.707   3.771
 1622SOL     OW 5617   1.280   2.789   2.534
 1622SOL    HW1 5618   1.340   2.708   2.536
 1622SOL    HW2 5619   1.320   2.858   2.474
 1623SOL     OW 5620   0.830   3.135   3.284
 1623SOL    HW1 5621   0.825   3.168   3.379
 1623SOL    HW2 5622   0.744   3.154   3.238
 1624SOL     OW 5623   0.672   3.478   2.016
 1624SOL    HW1 5624   0.681   3.488   1.917
 1624SOL    HW2 5625   0.632   3.389   2.037
 1625SOL     OW 5626   1.650   3.582   3.256
 1625SOL    HW1 5627   1.703   3.592   3.172
 1625SOL    HW2 5628   1.623   3.672   3.290
 1626SOL     OW 5629   1.841   2.037   2.825
 1626SOL    HW1 5630   1.880   1.952   2.789
 1626SOL    HW2 5631   1.743   2.039   2.806
 1627SOL     OW 5632   0.263   2.188   2.582
 1627SOL    HW1 5633   0.184   2.239   2.548
 1627SOL    HW2 5634   0.254   2.173   2.680
 1628SOL     OW 5635   1.194   3.474   1.893
 1628SOL    HW1 5636   1.200   3.381   1.930
 1628SOL    HW2 5637   1.135   3.474   1.813
 1629SOL     OW 5638   0.822   2.864   3.234
 1629SOL    HW1 5639   0.862   2.863   3.142
 1629SOL    HW2 5640   0.832   2.956   3.274
 1630SOL     OW 5641   0.916   2.772   2.153
 1630SOL    HW1 5642   0.979   2.810   2.085
 1630SOL    HW2 5643   0.956   2.689   2.192
 1631SOL     OW 5644   1.504   3.469   1.906
 1631SOL    HW1 5645   1.412   3.506   1.913
 1631SOL    HW2 5646   1.542   3.489   1.816
 1632SOL     OW 5647   0.372   3.150   3.352
 1632SOL    HW1 5648   0.359   3.243   3.318
 1632SOL    HW2 5649   0.288   3.098   3.339
 1633SOL     OW 5650   1.614   3.154   3.151
 1633SOL    HW1 5651   1.674   3.157   3.231
 1633SOL    HW2 5652   1.539   3.218   3.164
 1634SOL     OW 5653   1.039   2.960   2.558
 1634SOL    HW1 5654   0.969   2.913   2.612
 1634SOL    HW2 5655   1.098   2.892   2.515
 1635SOL     OW 5656   1.014   2.098   2.833
 1635SOL    HW1 5657   1.006   2.062   2.740
 1635SOL    HW2 5658   1.012   2.022   2.898
 1636SOL     OW 5659   0.590   3.349   2.353
 1636SOL    HW1 5660   0.632   3.291   2.283
 1636SOL    HW2 5661   0.546   3.428   2.309
 1637SOL     OW 5662   1.709   2.247   3.243
 1637SOL    HW1 5663   1.782   2.316   3.247
 1637SOL    HW2 5664   1.737   2.172   3.184
 1638SOL     OW 5665   0.255   3.210   2.152
 1638SOL    HW1 5666   0.159   3.211   2.125
 1638SOL    HW2 5667   0.267   3.263   2.236
 1639SOL     OW 5668   0.105   2.875   3.588
 1639SOL    HW1 5669   0.028   2.842   3.642
 1639SOL    HW2 5670   0.190   2.845   3.630
 1640SOL     OW 5671   0.672   2.065   3.351
 1640SOL    HW1 5672   0.762   2.049   3.311
 1640SOL    HW2 5673   0.680   2.070   3.450
 1641SOL     OW 5674   0.075   2.207   1.895
 1641SOL    HW1 5675  -0.017   2.179   1.866
 1641SOL    HW2 5676   0.106   2.284   1.839
 1642SOL     OW 5677   1.440   2.718   3.260
 1642SOL    HW1 5678   1.383   2.770   3.197
 1642SOL    HW2 5679   1.536   2.730   3.236
 1643SOL     OW 5680   0.072   2.028   2.180
 1643SOL    HW1 5681   0.055   2.111   2.126
 1643SOL    HW2 5682   0.162   1.991   2.158
 1644SOL     OW 5683   1.183   3.197   1.981
 1644SOL    HW1 5684   1.084   3.186   1.983
 1644SOL    HW2 5685   1.217   3.212   2.074
 1645SOL     OW 5686   0.613   2.704   3.293
 1645SOL    HW1 5687   0.669   2.785   3.276
 1645SOL    HW2 5688   0.672   2.624   3.296
 1646SOL     OW 5689   1.493   3.629   2.821
 1646SOL    HW1 5690   1.526   3.693   2.752
 1646SOL    HW2 5691   1.559   3.623   2.896
 1647SOL     OW 5692   0.716   2.427   3.570
 1647SOL    HW1 5693   0.735   2.492   3.644
 1647SOL    HW2 5694   0.776   2.347   3.579
 1648SOL     OW 5695   1.450   3.082   3.495
 1648SOL    HW1 5696   1.441   3.072   3.594
 1648SOL    HW2 5697   1.546   3.075   3.469
 1649SOL     OW 5698   0.390   3.603   3.422
 1649SOL    HW1 5699   0.299   3.644   3.420
 1649SOL    HW2 5700   0.383   3.509   3.454
 1650SOL     OW 5701   1.674   2.745   3.116
 1650SOL    HW1 5702   1.647   2.656   3.079
 1650SOL    HW2 5703   1.675   2.813   3.043
 1651SOL     OW 5704   1.225   2.187   2.311
 1651SOL    HW1 5705   1.290   2.113   2.300
 1651SOL    HW2 5706   1.245   2.237   2.395
 1652SOL     OW 5707   0.594   2.607   2.514
 1652SOL    HW1 5708   0.644   2.692   2.495
 1652SOL    HW2 5709   0.506   2.609   2.466
 1653SOL     OW 5710   1.777   2.204   3.504
 1653SOL    HW1 5711   1.760   2.235   3.410
 1653SOL    HW2 5712   1.693   2.167   3.542
 1654SOL     OW 5713   1.730   2.796   3.379
 1654SOL    HW1 5714   1.768   2.887   3.394
 1654SOL    HW2 5715   1.722   2.779   3.280
 1655SOL     OW 5716   0.859   3.236   1.878
 1655SOL    HW1 5717   0.813   3.251   1.966
 1655SOL    HW2 5718   0.903   3.321   1.848
 1656SOL     OW 5719   0.661   3.652   2.815
 1656SOL    HW1 5720   0.615   3.740   2.802
 1656SOL    HW2 5721   0.760   3.664   2.808
 1657SOL     OW 5722   0.859   2.818   2.723
 1657SOL    HW1 5723   0.913   2.749   2.771
 1657SOL    HW2 5724   0.827   2.887   2.789
 1658SOL     OW 5725   1.083   2.846   1.949
 1658SOL    HW1 5726   1.060   2.899   1.867
 1658SOL    HW2 5727   1.164   2.790   1.930
 1659SOL     OW 5728   1.861   3.431   2.713
 1659SOL    HW1 5729   1.790   3.419   2.643
 1659SOL    HW2 5730   1.862   3.352   2.773
 1660SOL     OW 5731   0.221   3.176   3.706
 1660SOL    HW1 5732   0.156   3.103   3.685
 1660SOL    HW2 5733   0.225   3.190   3.804
 1661SOL     OW 5734   0.079   3.102   2.515
 1661SOL    HW1 5735   0.078   3.055   2.603
 1661SOL    HW2 5736   0.161   3.074   2.464
 1662SOL     OW 5737   0.672   3.253   3.486
 1662SOL    HW1 5738   0.594   3.203   3.524
 1662SOL    HW2 5739   0.669   3.348   3.517
 1663SOL     OW 5740   1.824   2.054   3.089
 1663SOL    HW1 5741   1.820   1.964   3.133
 1663SOL    HW2 5742   1.827   2.043   2.990
 1664SOL     OW 5743   0.428   2.286   2.382
 1664SOL    HW1 5744   0.458   2.214   2.320
 1664SOL    HW2 5745   0.389   2.246   2.465
 1665SOL     OW 5746   1.705   3.349   2.966
 1665SOL    HW1 5747   1.612   3.324   2.939
 1665SOL    HW2 5748   1.731   3.299   3.048
 1666SOL     OW 5749   0.317   2.409   3.142
 1666SOL    HW1 5750   0.355   2.350   3.214
 1666SOL    HW2 5751   0.357   2.383   3.054
 1667SOL     OW 5752   0.812   3.448   2.549
 1667SOL    HW1 5753   0.844   3.458   2.455
 1667SOL    HW2 5754   0.733   3.386   2.551
 1668SOL     OW 5755   1.424   2.076   2.974
 1668SOL    HW1 5756   1.476   2.011   3.029
 1668SOL    HW2 5757   1.375   2.139   3.035
 1669SOL     OW 5758   1.001   1.896   3.016
 1669SOL    HW1 5759   0.938   1.824   2.985
 1669SOL    HW2 5760   1.094   1.860   3.016
 1670SOL     OW 5761   0.770   3.192   2.163
 1670SOL    HW1 5762   0.724   3.105   2.180
 1670SOL    HW2 5763   0.861   3.189   2.204
 1671SOL     OW 5764   0.618   3.429   3.146
 1671SOL    HW1 5765   0.613   3.511   3.203
 1671SOL    HW2 5766   0.707   3.426   3.101
 1672SOL     OW 5767   1.352   1.914   2.030
 1672SOL    HW1 5768   1.387   1.873   1.946
 1672SOL    HW2 5769   1.262   1.876   2.050
 1673SOL     OW 5770   1.300   2.315   2.553
 1673SOL    HW1 5771   1.241   2.395   2.557
 1673SOL    HW2 5772   1.315   2.280   2.646
 1674SOL     OW 5773   1.593   2.083   2.744
 1674SOL    HW1 5774   1.509   2.082   2.798
 1674SOL    HW2 5775   1.595   2.166   2.688
 1675SOL     OW 5776   0.039   2.939   2.162
 1675SOL    HW1 5777   0.138   2.928   2.153
 1675SOL    HW2 5778  -0.001   2.853   2.194
 1676SOL     OW 5779   0.875   3.508   2.199
 1676SOL    HW1 5780   0.798   3.473   2.145
 1676SOL    HW2 5781   0.843   3.579   2.261
 1677SOL     OW 5782   0.230   2.490   3.837
 1677SOL    HW1 5783   0.137   2.488   3.874
 1677SOL    HW2 5784   0.231   2.451   3.745
 1678SOL     OW 5785   0.225   2.137   4.720
 1678SOL    HW1 5786   0.260   2.120   4.812
 1678SOL    HW2 5787   0.137   2.092   4.708
 1679SOL     OW 5788   0.019   2.230   4.371
 1679SOL    HW1 5789  -0.063   2.273   4.410
 1679SOL    HW2 5790  -0.009   2.157   4.308
 1680SOL     OW 5791   0.569   3.137   4.889
 1680SOL    HW1 5792   0.476   3.130   4.852
 1680SOL    HW2 5793   0.580   3.226   4.933
 1681SOL     OW 5794   1.555   3.373   4.427
 1681SOL    HW1 5795   1.498   3.357   4.508
 1681SOL    HW2 5796   1.496   3.383   4.347
 1682SOL     OW 5797   1.135   2.565   4.441
 1682SOL    HW1 5798   1.192   2.643   4.416
 1682SOL    HW2 5799   1.075   2.591   4.517
 1683SOL     OW 5800   1.755   2.469   3.955
 1683SOL    HW1 5801   1.743   2.456   3.856
 1683SOL    HW2 5802   1.725   2.388   4.004
 1684SOL     OW 5803   0.768   3.006   4.747
 1684SOL    HW1 5804   0.690   3.023   4.807
 1684SOL    HW2 5805   0.802   3.093   4.711
 1685SOL     OW 5806   0.850   2.660   5.547
 1685SOL    HW1 5807   0.846   2.736   5.612
 1685SOL    HW2 5808   0.872   2.696   5.456
 1686SOL     OW 5809   0.685   2.874   4.389
 1686SOL    HW1 5810   0.754   2.858   4.459
 1686SOL    HW2 5811   0.612   2.931   4.427
 1687SOL     OW 5812   0.686   3.023   5.527
 1687SOL    HW1 5813   0.746   3.102   5.541
 1687SOL    HW2 5814   0.600   3.054   5.486
 1688SOL     OW 5815   0.335   3.297   4.785
 1688SOL    HW1 5816   0.257   3.266   4.732
 1688SOL    HW2 5817   0.393   3.355   4.728
 1689SOL     OW 5818   1.460   3.367   5.063
 1689SOL    HW1 5819   1.484   3.461   5.089
 1689SOL    HW2 5820   1.444   3.313   5.145
 1690SOL     OW 5821   0.438   2.254   5.223
 1690SOL    HW1 5822   0.520   2.198   5.232
 1690SOL    HW2 5823   0.357   2.196   5.227
 1691SOL     OW 5824   1.603   2.309   4.461
 1691SOL    HW1 5825   1.529   2.355   4.411
 1691SOL    HW2 5826   1.654   2.377   4.514
 1692SOL     OW 5827   0.231   3.575   4.207
 1692SOL    HW1 5828   0.265   3.652   4.261
 1692SOL    HW2 5829   0.275   3.575   4.117
 1693SOL     OW 5830   1.127   3.203   5.414
 1693SOL    HW1 5831   1.174   3.203   5.502
 1693SOL    HW2 5832   1.079   3.116   5.403
 1694SOL     OW 5833   0.230   3.296   4.262
 1694SOL    HW1 5834   0.204   3.392   4.262
 1694SOL    HW2 5835   0.159   3.242   4.307
 1695SOL     OW 5836   0.240   2.953   4.610
 1695SOL    HW1 5837   0.254   2.869   4.662
 1695SOL    HW2 5838   0.185   3.017   4.665
 1696SOL     OW 5839   0.620   3.648   5.163
 1696SOL    HW1 5840   0.528   3.631   5.198
 1696SOL    HW2 5841   0.648   3.740   5.189
 1697SOL     OW 5842   0.606   2.826   3.847
 1697SOL    HW1 5843   0.613   2.910   3.793
 1697SOL    HW2 5844   0.652   2.839   3.935
 1698SOL     OW 5845   0.122   2.505   4.287
 1698SOL    HW1 5846   0.077   2.417   4.304
 1698SOL    HW2 5847   0.121   2.559   4.371
 1699SOL     OW 5848   1.842   3.629   4.083
 1699SOL    HW1 5849   1.896   3.600   4.163
 1699SOL    HW2 5850   1.872   3.719   4.054
 1700SOL     OW 5851   0.027   3.458   3.841
 1700SOL    HW1 5852   0.008   3.362   3.862
 1700SOL    HW2 5853  -0.006   3.516   3.916
 1701SOL     OW 5854   1.689   2.784   4.336
 1701SOL    HW1 5855   1.784   2.755   4.344
 1701SOL    HW2 5856   1.681   2.849   4.261
 1702SOL     OW 5857   1.641   2.970   4.156
 1702SOL    HW1 5858   1.727   2.972   4.104
 1702SOL    HW2 5859   1.655   3.017   4.244
 1703SOL     OW 5860   0.113   2.599   5.321
 1703SOL    HW1 5861   0.201   2.586   5.366
 1703SOL    HW2 5862   0.100   2.696   5.299
 1704SOL     OW 5863   0.613   3.227   4.450
 1704SOL    HW1 5864   0.564   3.140   4.459
 1704SOL    HW2 5865   0.590   3.270   4.363
 1705SOL     OW 5866   1.293   3.090   5.147
 1705SOL    HW1 5867   1.330   3.017   5.089
 1705SOL    HW2 5868   1.345   3.095   5.232
 1706SOL     OW 5869   0.809   1.866   4.226
 1706SOL    HW1 5870   0.849   1.957   4.217
 1706SOL    HW2 5871   0.709   1.874   4.232
 1707SOL     OW 5872   0.197   2.838   4.988
 1707SOL    HW1 5873   0.286   2.793   4.974
 1707SOL    HW2 5874   0.124   2.773   4.969
 1708SOL     OW 5875   1.525   2.861   3.914
 1708SOL    HW1 5876   1.462   2.785   3.927
 1708SOL    HW2 5877   1.573   2.879   4.000
 1709SOL     OW 5878   1.187   3.654   5.340
 1709SOL    HW1 5879   1.211   3.714   5.264
 1709SOL    HW2 5880   1.194   3.559   5.310
 1710SOL     OW 5881   0.317   2.113   5.525
 1710SOL    HW1 5882   0.388   2.184   5.531
 1710SOL    HW2 5883   0.229   2.152   5.553
 1711SOL     OW 5884   1.466   3.279   4.677
 1711SOL    HW1 5885   1.407   3.285   4.757
 1711SOL    HW2 5886   1.451   3.191   4.631
 1712SOL     OW 5887   1.667   3.576   4.296
 1712SOL    HW1 5888   1.626   3.553   4.208
 1712SOL    HW2 5889   1.649   3.502   4.361
 1713SOL     OW 5890   0.598   2.591   3.994
 1713SOL    HW1 5891   0.622   2.660   3.926
 1713SOL    HW2 5892   0.520   2.624   4.048
 1714SOL     OW 5893   1.281   2.207   4.668
 1714SOL    HW1 5894   1.195   2.157   4.655
 1714SOL    HW2 5895   1.343   2.153   4.724
 1715SOL     OW 5896   1.576   3.524   4.031
 1715SOL    HW1 5897   1.665   3.570   4.034
 1715SOL    HW2 5898   1.555   3.500   3.936
 1716SOL     OW 5899   0.807   2.467   5.189
 1716SOL    HW1 5900   0.760   2.464   5.278
 1716SOL    HW2 5901   0.756   2.412   5.123
 1717SOL     OW 5902   1.394   2.331   5.398
 1717SOL    HW1 5903   1.374   2.374   5.486
 1717SOL    HW2 5904   1.472   2.269   5.407
 1718SOL     OW 5905   0.973   2.752   5.296
 1718SOL    HW1 5906   1.019   2.668   5.267
 1718SOL    HW2 5907   0.917   2.786   5.221
 1719SOL     OW 5908   0.991   2.272   4.966
 1719SOL    HW1 5909   0.914   2.306   5.020
 1719SOL    HW2 5910   0.957   2.221   4.887
 1720SOL     OW 5911   1.041   2.563   4.153
 1720SOL    HW1 5912   1.067   2.559   4.249
 1720SOL    HW2 5913   0.956   2.512   4.139
 1721SOL     OW 5914   0.076   2.673   4.513
 1721SOL    HW1 5915   0.175   2.661   4.522
 1721SOL    HW2 5916   0.052   2.768   4.534
 1722SOL     OW 5917   0.130   3.683   5.295
 1722SOL    HW1 5918   0.120   3.668   5.394
 1722SOL    HW2 5919   0.044   3.719   5.259
 1723SOL     OW 5920   0.865   2.210   3.919
 1723SOL    HW1 5921   0.924   2.273   3.870
 1723SOL    HW2 5922   0.884   2.116   3.890
 1724SOL     OW 5923   1.719   2.447   5.555
 1724SOL    HW1 5924   1.693   2.536   5.519
 1724SOL    HW2 5925   1.717   2.379   5.482
 1725SOL     OW 5926   1.362   3.006   4.269
 1725SOL    HW1 5927   1.445   2.977   4.221
 1725SOL    HW2 5928   1.313   3.073   4.213
 1726SOL     OW 5929   0.550   2.058   4.609
 1726SOL    HW1 5930   0.545   2.053   4.709
 1726SOL    HW2 5931   0.552   2.154   4.580
 1727SOL     OW 5932   1.008   3.318   4.201
 1727SOL    HW1 5933   0.962   3.390   4.149
 1727SOL    HW2 5934   1.004   3.338   4.299
 1728SOL     OW 5935   0.351   3.663   4.577
 1728SOL    HW1 5936   0.401   3.577   4.583
 1728SOL    HW2 5937   0.416   3.740   4.574
 1729SOL     OW 5938   1.795   2.928   4.597
 1729SOL    HW1 5939   1.733   2.913   4.521
 1729SOL    HW2 5940   1.743   2.939   4.682
 1730SOL     OW 5941   1.227   3.412   5.230
 1730SOL    HW1 5942   1.233   3.335   5.294
 1730SOL    HW2 5943   1.175   3.386   5.150
 1731SOL     OW 5944   0.321   2.805   3.966
 1731SOL    HW1 5945   0.403   2.844   3.924
 1731SOL    HW2 5946   0.294   2.723   3.917
 1732SOL     OW 5947   1.458   2.597   4.452
 1732SOL    HW1 5948   1.453   2.532   4.527
 1732SOL    HW2 5949   1.538   2.656   4.465
 1733SOL     OW 5950   0.461   3.128   5.451
 1733SOL    HW1 5951   0.411   3.129   5.365
 1733SOL    HW2 5952   0.398   3.110   5.527
 1734SOL     OW 5953   1.111   3.638   3.961
 1734SOL    HW1 5954   1.051   3.576   4.011
 1734SOL    HW2 5955   1.142   3.594   3.876
 1735SOL     OW 5956   0.202   2.147   5.222
 1735SOL    HW1 5957   0.122   2.207   5.209
 1735SOL    HW2 5958   0.192   2.098   5.308
 1736SOL     OW 5959   1.632   3.239   3.805
 1736SOL    HW1 5960   1.600   3.333   3.795
 1736SOL    HW2 5961   1.556   3.176   3.793
 1737SOL     OW 5962   0.464   3.605   4.047
 1737SOL    HW1 5963   0.497   3.644   4.133
 1737SOL    HW2 5964   0.540   3.598   3.982
 1738SOL     OW 5965   1.400   1.969   4.150
 1738SOL    HW1 5966   1.376   1.932   4.060
 1738SOL    HW2 5967   1.499   1.985   4.154
 1739SOL     OW 5968   0.249   3.647   4.965
 1739SOL    HW1 5969   0.306   3.582   5.015
 1739SOL    HW2 5970   0.233   3.614   4.872
 1740SOL     OW 5971   0.940   3.560   4.628
 1740SOL    HW1 5972   1.020   3.503   4.649
 1740SOL    HW2 5973   0.891   3.520   4.551
 1741SOL     OW 5974   0.382   2.562   4.204
 1741SOL    HW1 5975   0.427   2.472   4.201
 1741SOL    HW2 5976   0.288   2.551   4.237
 1742SOL     OW 5977   1.547   2.084   5.453
 1742SOL    HW1 5978   1.542   2.121   5.545
 1742SOL    HW2 5979   1.475   2.015   5.441
 1743SOL     OW 5980   0.614   1.984   3.841
 1743SOL    HW1 5981   0.712   1.962   3.848
 1743SOL    HW2 5982   0.583   1.967   3.748
 1744SOL     OW 5983   0.781   2.126   5.473
 1744SOL    HW1 5984   0.848   2.065   5.516
 1744SOL    HW2 5985   0.708   2.145   5.538
 1745SOL     OW 5986   0.888   3.376   4.919
 1745SOL    HW1 5987   0.865   3.351   4.825
 1745SOL    HW2 5988   0.949   3.307   4.958
 1746SOL     OW 5989   0.803   3.264   4.648
 1746SOL    HW1 5990   0.893   3.278   4.606
 1746SOL    HW2 5991   0.732   3.266   4.577
 1747SOL     OW 5992   0.922   2.365   4.623
 1747SOL    HW1 5993   0.897   2.356   4.527
 1747SOL    HW2 5994   0.970   2.283   4.654
 1748SOL     OW 5995   0.539   1.926   4.236
 1748SOL    HW1 5996   0.458   1.927   4.294
 1748SOL    HW2 5997   0.542   2.009   4.181
 1749SOL     OW 5998   1.434   3.050   3.765
 1749SOL    HW1 5999   1.466   2.974   3.822
 1749SOL    HW2 6000   1.342   3.077   3.795
 1750SOL     OW 6001   0.297   1.897   3.895
 1750SOL    HW1 6002   0.346   1.981   3.874
 1750SOL    HW2 6003   0.359   1.832   3.940
 1751SOL     OW 6004   0.935   2.098   4.204
 1751SOL    HW1 6005   0.887   2.139   4.126
 1751SOL    HW2 6006   1.034   2.096   4.185
 1752SOL     OW 6007   1.076   2.545   5.188
 1752SOL    HW1 6008   0.996   2.484   5.191
 1752SOL    HW2 6009   1.157   2.492   5.164
 1753SOL     OW 6010   1.227   3.432   4.517
 1753SOL    HW1 6011   1.248   3.506   4.452
 1753SOL    HW2 6012   1.295   3.432   4.590
 1754SOL     OW 6013   0.459   3.014   4.465
 1754SOL    HW1 6014   0.388   2.987   4.530
 1754SOL    HW2 6015   0.433   2.986   4.372
 1755SOL     OW 6016   1.271   3.659   4.315
 1755SOL    HW1 6017   1.315   3.723   4.251
 1755SOL    HW2 6018   1.221   3.711   4.385
 1756SOL     OW 6019   1.032   2.411   3.740
 1756SOL    HW1 6020   0.991   2.493   3.701
 1756SOL    HW2 6021   1.096   2.437   3.813
 1757SOL     OW 6022   0.078   2.418   5.110
 1757SOL    HW1 6023   0.170   2.417   5.069
 1757SOL    HW2 6024   0.072   2.492   5.177
 1758SOL     OW 6025   0.561   2.084   4.871
 1758SOL    HW1 6026   0.599   2.000   4.908
 1758SOL    HW2 6027   0.473   2.103   4.915
 1759SOL     OW 6028   0.866   2.316   4.366
 1759SOL    HW1 6029   0.834   2.388   4.304
 1759SOL    HW2 6030   0.890   2.235   4.313
 1760SOL     OW 6031   1.017   1.901   4.477
 1760SOL    HW1 6032   0.945   1.906   4.408
 1760SOL    HW2 6033   0.993   1.832   4.546
 1761SOL     OW 6034   1.429   3.035   4.591
 1761SOL    HW1 6035   1.374   2.951   4.584
 1761SOL    HW2 6036   1.455   3.064   4.499
 1762SOL     OW 6037   1.857   2.695   4.101
 1762SOL    HW1 6038   1.899   2.631   4.165
 1762SOL    HW2 6039   1.819   2.644   4.023
 1763SOL     OW 6040   0.488   3.247   3.898
 1763SOL    HW1 6041   0.401   3.232   3.945
 1763SOL    HW2 6042   0.471   3.273   3.803
 1764SOL     OW 6043   1.664   3.142   4.381
 1764SOL    HW1 6044   1.763   3.150   4.395
 1764SOL    HW2 6045   1.619   3.226   4.412
 1765SOL     OW 6046   1.390   2.437   3.802
 1765SOL    HW1 6047   1.336   2.416   3.883
 1765SOL    HW2 6048   1.481   2.396   3.811
 1766SOL     OW 6049   0.527   2.118   4.052
 1766SOL    HW1 6050   0.554   2.059   3.977
 1766SOL    HW2 6051   0.527   2.213   4.021
 1767SOL     OW 6052   1.754   3.085   5.312
 1767SOL    HW1 6053   1.845   3.046   5.299
 1767SOL    HW2 6054   1.762   3.181   5.336
 1768SOL     OW 6055   1.064   3.209   5.064
 1768SOL    HW1 6056   0.984   3.186   5.119
 1768SOL    HW2 6057   1.147   3.183   5.113
 1769SOL     OW 6058   1.592   3.491   5.349
 1769SOL    HW1 6059   1.619   3.525   5.259
 1769SOL    HW2 6060   1.671   3.453   5.395
 1770SOL     OW 6061   1.111   3.057   4.824
 1770SOL    HW1 6062   1.071   3.101   4.905
 1770SOL    HW2 6063   1.070   3.094   4.741
 1771SOL     OW 6064   1.638   2.961   4.803
 1771SOL    HW1 6065   1.643   3.042   4.862
 1771SOL    HW2 6066   1.552   2.963   4.752
 1772SOL     OW 6067   0.915   1.951   5.126
 1772SOL    HW1 6068   0.940   1.931   5.031
 1772SOL    HW2 6069   0.987   2.007   5.168
 1773SOL     OW 6070   0.980   2.978   5.443
 1773SOL    HW1 6071   0.881   2.984   5.453
 1773SOL    HW2 6072   1.003   2.898   5.387
 1774SOL     OW 6073   0.705   2.912   4.092
 1774SOL    HW1 6074   0.691   2.919   4.191
 1774SOL    HW2 6075   0.789   2.861   4.074
 1775SOL     OW 6076   0.410   2.675   4.975
 1775SOL    HW1 6077   0.496   2.687   5.025
 1775SOL    HW2 6078   0.368   2.588   5.002
 1776SOL     OW 6079   1.274   2.248   4.986
 1776SOL    HW1 6080   1.295   2.322   5.050
 1776SOL    HW2 6081   1.185   2.265   4.943
 1777SOL     OW 6082   0.064   3.426   5.055
 1777SOL    HW1 6083   0.018   3.508   5.021
 1777SOL    HW2 6084   0.162   3.445   5.064
 1778SOL     OW 6085   0.367   2.962   4.225
 1778SOL    HW1 6086   0.360   3.045   4.169
 1778SOL    HW2 6087   0.371   2.882   4.165
 1779SOL     OW 6088   0.566   2.399   4.589
 1779SOL    HW1 6089   0.578   2.465   4.515
 1779SOL    HW2 6090   0.612   2.433   4.672
 1780SOL     OW 6091   1.252   3.210   4.112
 1780SOL    HW1 6092   1.302   3.287   4.152
 1780SOL    HW2 6093   1.157   3.212   4.144
 1781SOL     OW 6094   1.272   3.307   4.866
 1781SOL    HW1 6095   1.319   3.320   4.953
 1781SOL    HW2 6096   1.206   3.233   4.875
 1782SOL     OW 6097   1.582   2.501   4.196
 1782SOL    HW1 6098   1.551   2.562   4.269
 1782SOL    HW2 6099   1.632   2.553   4.127
 1783SOL     OW 6100   0.354   3.372   5.053
 1783SOL    HW1 6101   0.333   3.328   4.966
 1783SOL    HW2 6102   0.451   3.398   5.056
 1784SOL     OW 6103   0.402   2.613   5.322
 1784SOL    HW1 6104   0.470   2.668   5.275
 1784SOL    HW2 6105   0.442   2.525   5.349
 1785SOL     OW 6106   1.013   1.967   5.494
 1785SOL    HW1 6107   1.019   2.052   5.442
 1785SOL    HW2 6108   1.045   1.891   5.437
 1786SOL     OW 6109   0.504   1.912   5.464
 1786SOL    HW1 6110   0.462   1.855   5.394
 1786SOL    HW2 6111   0.438   1.981   5.496
 1787SOL     OW 6112   0.573   2.732   4.753
 1787SOL    HW1 6113   0.617   2.821   4.744
 1787SOL    HW2 6114   0.510   2.732   4.830
 1788SOL     OW 6115   1.360   2.724   4.769
 1788SOL    HW1 6116   1.285   2.724   4.703
 1788SOL    HW2 6117   1.397   2.632   4.778
 1789SOL     OW 6118   1.209   2.387   3.999
 1789SOL    HW1 6119   1.222   2.303   4.053
 1789SOL    HW2 6120   1.180   2.461   4.059
 1790SOL     OW 6121   0.307   2.075   4.955
 1790SOL    HW1 6122   0.284   2.112   5.045
 1790SOL    HW2 6123   0.277   1.980   4.949
 1791SOL     OW 6124   0.037   3.172   5.006
 1791SOL    HW1 6125   0.090   3.123   5.074
 1791SOL    HW2 6126   0.059   3.270   5.011
 1792SOL     OW 6127   0.732   2.496   4.788
 1792SOL    HW1 6128   0.791   2.470   4.712
 1792SOL    HW2 6129   0.704   2.592   4.777
 1793SOL     OW 6130   1.728   2.797   5.578
 1793SOL    HW1 6131   1.682   2.790   5.489
 1793SOL    HW2 6132   1.666   2.841   5.644
 1794SOL     OW 6133   0.307   1.925   4.342
 1794SOL    HW1 6134   0.296   2.019   4.375
 1794SOL    HW2 6135   0.302   1.862   4.419
 1795SOL     OW 6136   1.622   2.229   4.098
 1795SOL    HW1 6137   1.624   2.153   4.162
 1795SOL    HW2 6138   1.574   2.306   4.138
 1796SOL     OW 6139   1.023   2.628   4.690
 1796SOL    HW1 6140   1.038   2.649   4.786
 1796SOL    HW2 6141   0.993   2.533   4.681
 1797SOL     OW 6142   0.980   3.435   5.424
 1797SOL    HW1 6143   0.960   3.479   5.336
 1797SOL    HW2 6144   1.019   3.344   5.408
 1798SOL     OW 6145   1.859   3.380   5.329
 1798SOL    HW1 6146   1.873   3.407   5.234
 1798SOL    HW2 6147   1.942   3.402   5.382
 1799SOL     OW 6148   0.350   2.760   5.528
 1799SOL    HW1 6149   0.426   2.804   5.576
 1799SOL    HW2 6150   0.385   2.713   5.446
 1800SOL     OW 6151   1.540   2.136   3.849
 1800SOL    HW1 6152   1.479   2.061   3.872
 1800SOL    HW2 6153   1.562   2.188   3.932
 1801SOL     OW 6154   1.303   2.700   3.766
 1801SOL    HW1 6155   1.337   2.607   3.781
 1801SOL    HW2 6156   1.321   2.727   3.671
 1802SOL     OW 6157   1.068   3.195   4.573
 1802SOL    HW1 6158   1.075   3.111   4.518
 1802SOL    HW2 6159   1.130   3.264   4.537
 1803SOL     OW 6160   0.319   2.672   4.673
 1803SOL    HW1 6161   0.412   2.708   4.678
 1803SOL    HW2 6162   0.313   2.587   4.725
 1804SOL     OW 6163   0.339   2.371   4.730
 1804SOL    HW1 6164   0.287   2.288   4.713
 1804SOL    HW2 6165   0.416   2.376   4.666
 1805SOL     OW 6166   1.138   2.242   5.402
 1805SOL    HW1 6167   1.093   2.305   5.466
 1805SOL    HW2 6168   1.231   2.273   5.385
 1806SOL     OW 6169   1.160   2.069   5.201
 1806SOL    HW1 6170   1.160   2.133   5.278
 1806SOL    HW2 6171   1.188   2.117   5.118
 1807SOL     OW 6172   0.008   3.188   3.924
 1807SOL    HW1 6173  -0.085   3.209   3.893
 1807SOL    HW2 6174   0.018   3.089   3.937
 1808SOL     OW 6175   0.088   3.663   4.651
 1808SOL    HW1 6176   0.046   3.577   4.624
 1808SOL    HW2 6177   0.182   3.666   4.617
 1809SOL     OW 6178   0.504   3.430   4.634
 1809SOL    HW1 6179   0.570   3.504   4.643
 1809SOL    HW2 6180   0.548   3.351   4.592
 1810SOL     OW 6181   1.002   2.658   4.962
 1810SOL    HW1 6182   1.043   2.626   5.048
 1810SOL    HW2 6183   0.906   2.631   4.959
 1811SOL     OW 6184   0.040   2.406   4.838
 1811SOL    HW1 6185   0.125   2.373   4.797
 1811SOL    HW2 6186   0.053   2.421   4.936
 1812SOL     OW 6187   0.189   2.382   5.446
 1812SOL    HW1 6188   0.248   2.342   5.376
 1812SOL    HW2 6189   0.131   2.453   5.405
 1813SOL     OW 6190   1.369   2.812   5.384
 1813SOL    HW1 6191   1.408   2.901   5.404
 1813SOL    HW2 6192   1.379   2.792   5.287
 1814SOL     OW 6193   0.815   2.434   4.049
 1814SOL    HW1 6194   0.822   2.345   4.003
 1814SOL    HW2 6195   0.721   2.468   4.041
 1815SOL     OW 6196   0.252   3.426   5.468
 1815SOL    HW1 6197   0.222   3.483   5.544
 1815SOL    HW2 6198   0.245   3.329   5.494
 1816SOL     OW 6199   0.671   2.326   4.993
 1816SOL    HW1 6200   0.637   2.237   4.963
 1816SOL    HW2 6201   0.697   2.380   4.913
 1817SOL     OW 6202   0.930   3.540   5.189
 1817SOL    HW1 6203   0.906   3.522   5.094
 1817SOL    HW2 6204   0.960   3.634   5.199
 1818SOL     OW 6205   0.473   2.362   3.915
 1818SOL    HW1 6206   0.534   2.442   3.919
 1818SOL    HW2 6207   0.378   2.393   3.922
 1819SOL     OW 6208   0.159   2.999   5.190
 1819SOL    HW1 6209   0.181   2.938   5.266
 1819SOL    HW2 6210   0.169   2.950   5.104
 1820SOL     OW 6211   1.347   2.921   4.958
 1820SOL    HW1 6212   1.371   2.858   4.884
 1820SOL    HW2 6213   1.257   2.961   4.940
 1821SOL     OW 6214   1.302   2.717   4.033
 1821SOL    HW1 6215   1.216   2.686   4.075
 1821SOL    HW2 6216   1.298   2.703   3.934
 1822SOL     OW 6217   1.759   3.609   4.878
 1822SOL    HW1 6218   1.820   3.639   4.805
 1822SOL    HW2 6219   1.721   3.520   4.856
 1823SOL     OW 6220   1.252   3.593   4.852
 1823SOL    HW1 6221   1.336   3.598   4.798
 1823SOL    HW2 6222   1.229   3.497   4.870
 1824SOL     OW 6223   0.083   3.120   4.746
 1824SOL    HW1 6224   0.078   3.119   4.846
 1824SOL    HW2 6225   0.000   3.079   4.708
 1825SOL     OW 6226   0.688   3.524   5.440
 1825SOL    HW1 6227   0.632   3.605   5.449
 1825SOL    HW2 6228   0.740   3.528   5.354
 1826SOL     OW 6229   1.726   1.997   4.247
 1826SOL    HW1 6230   1.799   1.980   4.180
 1826SOL    HW2 6231   1.695   1.910   4.285
 1827SOL     OW 6232   1.388   3.435   4.201
 1827SOL    HW1 6233   1.455   3.447   4.127
 1827SOL    HW2 6234   1.348   3.524   4.224
 1828SOL     OW 6235   0.130   3.656   5.575
 1828SOL    HW1 6236   0.089   3.582   5.628
 1828SOL    HW2 6237   0.194   3.707   5.633
 1829SOL     OW 6238   1.280   2.789   4.396
 1829SOL    HW1 6239   1.340   2.708   4.398
 1829SOL    HW2 6240   1.320   2.858   4.336
 1830SOL     OW 6241   0.830   3.135   5.146
 1830SOL    HW1 6242   0.825   3.168   5.241
 1830SOL    HW2 6243   0.744   3.154   5.100
 1831SOL     OW 6244   0.672   3.478   3.878
 1831SOL    HW1 6245   0.681   3.488   3.779
 1831SOL    HW2 6246   0.632   3.389   3.899
 1832SOL     OW 6247   1.650   3.582   5.118
 1832SOL    HW1 6248   1.703   3.592   5.034
 1832SOL    HW2 6249   1.623   3.672   5.152
 1833SOL     OW 6250   0.263   2.188   4.444
 1833SOL    HW1 6251   0.184   2.239   4.410
 1833SOL    HW2 6252   0.254   2.173   4.542
 1834SOL     OW 6253   1.194   3.474   3.755
 1834SOL    HW1 6254   1.200   3.381   3.792
 1834SOL    HW2 6255   1.135   3.474   3.675
 1835SOL     OW 6256   0.822   2.864   5.096
 1835SOL    HW1 6257   0.862   2.863   5.004
 1835SOL    HW2 6258   0.832   2.956   5.136
 1836SOL     OW 6259   0.916   2.772   4.015
 1836SOL    HW1 6260   0.979   2.810   3.947
 1836SOL    HW2 6261   0.956   2.689   4.054
 1837SOL     OW 6262   1.504   3.469   3.768
 1837SOL    HW1 6263   1.412   3.506   3.775
 1837SOL    HW2 6264   1.542   3.489   3.678
 1838SOL     OW 6265   0.372   3.150   5.214
 1838SOL    HW1 6266   0.359   3.243   5.180
 1838SOL    HW2 6267   0.288   3.098   5.201
 1839SOL     OW 6268   1.614   3.154   5.013
 1839SOL    HW1 6269   1.674   3.157   5.093
 1839SOL    HW2 6270   1.539   3.218   5.026
 1840SOL     OW 6271   1.039   2.960   4.420
 1840SOL    HW1 6272   0.969   2.913   4.474
 1840SOL    HW2 6273   1.098   2.892   4.377
 1841SOL     OW 6274   1.014   2.098   4.695
 1841SOL    HW1 6275   1.006   2.062   4.602
 1841SOL    HW2 6276   1.012   2.022   4.760
 1842SOL     OW 6277   0.590   3.349   4.215
 1842SOL    HW1 6278   0.632   3.291   4.145
 1842SOL    HW2 6279   0.546   3.428   4.171
 1843SOL     OW 6280   0.255   3.210   4.014
 1843SOL    HW1 6281   0.159   3.211   3.987
 1843SOL    HW2 6282   0.267   3.263   4.098
 1844SOL     OW 6283   0.105   2.875   5.450
 1844SOL    HW1 6284   0.028   2.842   5.504
 1844SOL    HW2 6285   0.190   2.845   5.492
 1845SOL     OW 6286   0.672   2.065   5.213
 1845SOL    HW1 6287   0.762   2.049   5.173
 1845SOL    HW2 6288   0.680   2.070   5.312
 1846SOL     OW 6289   0.075   2.207   3.757
 1846SOL    HW1 6290  -0.017   2.179   3.728
 1846SOL    HW2 6291   0.106   2.284   3.701
 1847SOL     OW 6292   0.072   2.028   4.042
 1847SOL    HW1 6293   0.055   2.111   3.988
 1847SOL    HW2 6294   0.162   1.991   4.020
 1848SOL     OW 6295   1.183   3.197   3.843
 1848SOL    HW1 6296   1.084   3.186   3.845
 1848SOL    HW2 6297   1.217   3.212   3.936
 1849SOL     OW 6298   0.613   2.704   5.155
 1849SOL    HW1 6299   0.669   2.785   5.138
 1849SOL    HW2 6300   0.672   2.624   5.158
 1850SOL     OW 6301   1.493   3.629   4.683
 1850SOL    HW1 6302   1.526   3.693   4.614
 1850SOL    HW2 6303   1.559   3.623   4.758
 1851SOL     OW 6304   0.716   2.427   5.432
 1851SOL    HW1 6305   0.735   2.492   5.506
 1851SOL    HW2 6306   0.776   2.347   5.441
 1852SOL     OW 6307   1.450   3.082   5.357
 1852SOL    HW1 6308   1.441   3.072   5.456
 1852SOL    HW2 6309   1.546   3.075   5.331
 1853SOL     OW 6310   0.390   3.603   5.284
 1853SOL    HW1 6311   0.299   3.644   5.282
 1853SOL    HW2 6312   0.383   3.509   5.316
 1854SOL     OW 6313   1.225   2.187   4.173
 1854SOL    HW1 6314   1.290   2.113   4.162
 1854SOL    HW2 6315   1.245   2.237   4.257
 1855SOL     OW 6316   0.594   2.607   4.376
 1855SOL    HW1 6317   0.644   2.692   4.357
 1855SOL    HW2 6318   0.506   2.609   4.328
 1856SOL     OW 6319   1.777   2.204   5.366
 1856SOL    HW1 6320   1.760   2.235   5.272
 1856SOL    HW2 6321   1.693   2.167   5.404
 1857SOL     OW 6322   0.859   3.236   3.740
 1857SOL    HW1 6323   0.813   3.251   3.828
 1857SOL    HW2 6324   0.903   3.321   3.710
 1858SOL     OW 6325   0.661   3.652   4.677
 1858SOL    HW1 6326   0.615   3.740   4.664
 1858SOL    HW2 6327   0.760   3.664   4.670
 1859SOL     OW 6328   0.859   2.818   4.585
 1859SOL    HW1 6329   0.913   2.749   4.633
 1859SOL    HW2 6330   0.827   2.887   4.651
 1860SOL     OW 6331   1.083   2.846   3.811
 1860SOL    HW1 6332   1.060   2.899   3.729
 1860SOL    HW2 6333   1.164   2.790   3.792
 1861SOL     OW 6334   1.861   3.431   4.575
 1861SOL    HW1 6335   1.790   3.419   4.505
 1861SOL    HW2 6336   1.862   3.352   4.635
 1862SOL     OW 6337   0.221   3.176   5.568
 1862SOL    HW1 6338   0.156   3.103   5.547
 1862SOL    HW2 6339   0.225   3.190   5.666
 1863SOL     OW 6340   0.079   3.102   4.377
 1863SOL    HW1 6341   0.078   3.055   4.465
 1863SOL    HW2 6342   0.161   3.074   4.326
 1864SOL     OW 6343   0.672   3.253   5.348
 1864SOL    HW1 6344   0.594   3.203   5.386
 1864SOL    HW2 6345   0.669   3.348   5.379
 1865SOL     OW 6346   0.428   2.286   4.244
 1865SOL    HW1 6347   0.458   2.214   4.182
 1865SOL    HW2 6348   0.389   2.246   4.327
 1866SOL     OW 6349   1.705   3.349   4.828
 1866SOL    HW1 6350   1.612   3.324   4.801
 1866SOL    HW2 6351   1.731   3.299   4.910
 1867SOL     OW 6352   0.317   2.409   5.004
 1867SOL    HW1 6353   0.355   2.350   5.076
 1867SOL    HW2 6354   0.357   2.383   4.916
 1868SOL     OW 6355   0.812   3.448   4.411
 1868SOL    HW1 6356   0.844   3.458   4.317
 1868SOL    HW2 6357   0.733   3.386   4.413
 1869SOL     OW 6358   1.001   1.896   4.878
 1869SOL    HW1 6359   0.938   1.824   4.847
 1869SOL    HW2 6360   1.094   1.860   4.878
 1870SOL     OW 6361   0.770   3.192   4.025
 1870SOL    HW1 6362   0.724   3.105   4.042
 1870SOL    HW2 6363   0.861   3.189   4.066
 1871SOL     OW 6364   0.618   3.429   5.008
 1871SOL    HW1 6365   0.613   3.511   5.065
 1871SOL    HW2 6366   0.707   3.426   4.963
 1872SOL     OW 6367   1.352   1.914   3.892
 1872SOL    HW1 6368   1.387   1.873   3.808
 1872SOL    HW2 6369   1.262   1.876   3.912
 1873SOL     OW 6370   1.300   2.315   4.415
 1873SOL    HW1 6371   1.241   2.395   4.419
 1873SOL    HW2 6372   1.315   2.280   4.508
 1874SOL     OW 6373   1.593   2.083   4.606
 1874SOL    HW1 6374   1.509   2.082   4.660
 1874SOL    HW2 6375   1.595   2.166   4.550
 1875SOL     OW 6376   0.039   2.939   4.024
 1875SOL    HW1 6377   0.138   2.928   4.015
 1875SOL    HW2 6378  -0.001   2.853   4.056
 1876SOL     OW 6379   0.875   3.508   4.061
 1876SOL    HW1 6380   0.798   3.473   4.007
 1876SOL    HW2 6381   0.843   3.579   4.123
 1877SOL     OW 6382   0.230   2.490   5.699
 1877SOL    HW1 6383   0.137   2.488   5.736
 1877SOL    HW2 6384   0.231   2.451   5.607
 1878SOL     OW 6385   0.225   2.137   6.582
 1878SOL    HW1 6386   0.260   2.120   6.674
 1878SOL    HW2 6387   0.137   2.092   6.570
 1879SOL     OW 6388   0.019   2.230   6.233
 1879SOL    HW1 6389  -0.063   2.273   6.272
 1879SOL    HW2 6390  -0.009   2.157   6.170
 1880SOL     OW 6391   0.569   3.137   6.751
 1880SOL    HW1 6392   0.476   3.130   6.714
 1880SOL    HW2 6393   0.580   3.226   6.795
 1881SOL     OW 6394   1.555   3.373   6.289
 1881SOL    HW1 6395   1.498   3.357   6.370
 1881SOL    HW2 6396   1.496   3.383   6.209
 1882SOL     OW 6397   1.135   2.565   6.303
 1882SOL    HW1 6398   1.192   2.643   6.278
 1882SOL    HW2 6399   1.075   2.591   6.379
 1883SOL     OW 6400   1.755   2.469   5.817
 1883SOL    HW1 6401   1.743   2.456   5.718
 1883SOL    HW2 6402   1.725   2.388   5.866
 1884SOL     OW 6403   0.768   3.006   6.609
 1884SOL    HW1 6404   0.690   3.023   6.669
 1884SOL    HW2 6405   0.802   3.093   6.573
 1885SOL     OW 6406   0.850   2.660   7.409
 1885SOL    HW1 6407   0.846   2.736   7.474
 1885SOL    HW2 6408   0.872   2.696   7.318
 1886SOL     OW 6409   0.685   2.874   6.251
 1886SOL    HW1 6410   0.754   2.858   6.321
 1886SOL    HW2 6411   0.612   2.931   6.289
 1887SOL     OW 6412   0.686   3.023   7.389
 1887SOL    HW1 6413   0.746   3.102   7.403
 1887SOL    HW2 6414   0.600   3.054   7.348
 1888SOL     OW 6415   0.335   3.297   6.647
 1888SOL    HW1 6416   0.257   3.266   6.594
 1888SOL    HW2 6417   0.393   3.355   6.590
 1889SOL     OW 6418   1.460   3.367   6.925
 1889SOL    HW1 6419   1.484   3.461   6.951
 1889SOL    HW2 6420   1.444   3.313   7.007
 1890SOL     OW 6421   0.438   2.254   7.085
 1890SOL    HW1 6422   0.520   2.198   7.094
 1890SOL    HW2 6423   0.357   2.196   7.089
 1891SOL     OW 6424   0.231   3.575   6.069
 1891SOL    HW1 6425   0.265   3.652   6.123
 1891SOL    HW2 6426   0.275   3.575   5.979
 1892SOL     OW 6427   1.127   3.203   7.276
 1892SOL    HW1 6428   1.174   3.203   7.364
 1892SOL    HW2 6429   1.079   3.116   7.265
 1893SOL     OW 6430   0.230   3.296   6.124
 1893SOL    HW1 6431   0.204   3.392   6.124
 1893SOL    HW2 6432   0.159   3.242   6.169
 1894SOL     OW 6433   0.240   2.953   6.472
 1894SOL    HW1 6434   0.254   2.869   6.524
 1894SOL    HW2 6435   0.185   3.017   6.527
 1895SOL     OW 6436   0.620   3.648   7.025
 1895SOL    HW1 6437   0.528   3.631   7.060
 1895SOL    HW2 6438   0.648   3.740   7.051
 1896SOL     OW 6439   0.606   2.826   5.709
 1896SOL    HW1 6440   0.613   2.910   5.655
 1896SOL    HW2 6441   0.652   2.839   5.797
 1897SOL     OW 6442   1.594   1.976   7.066
 1897SOL    HW1 6443   1.576   2.043   6.994
 1897SOL    HW2 6444   1.591   2.022   7.155
 1898SOL     OW 6445   0.122   2.505   6.149
 1898SOL    HW1 6446   0.077   2.417   6.166
 1898SOL    HW2 6447   0.121   2.559   6.233
 1899SOL     OW 6448   1.842   3.629   5.945
 1899SOL    HW1 6449   1.896   3.600   6.025
 1899SOL    HW2 6450   1.872   3.719   5.916
 1900SOL     OW 6451   0.027   3.458   5.703
 1900SOL    HW1 6452   0.008   3.362   5.724
 1900SOL    HW2 6453  -0.006   3.516   5.778
 1901SOL     OW 6454   1.641   2.970   6.018
 1901SOL    HW1 6455   1.727   2.972   5.966
 1901SOL    HW2 6456   1.655   3.017   6.106
 1902SOL     OW 6457   0.113   2.599   7.183
 1902SOL    HW1 6458   0.201   2.586   7.228
 1902SOL    HW2 6459   0.100   2.696   7.161
 1903SOL     OW 6460   0.613   3.227   6.312
 1903SOL    HW1 6461   0.564   3.140   6.321
 1903SOL    HW2 6462   0.590   3.270   6.225
 1904SOL     OW 6463   1.293   3.090   7.009
 1904SOL    HW1 6464   1.330   3.017   6.951
 1904SOL    HW2 6465   1.345   3.095   7.094
 1905SOL     OW 6466   0.809   1.866   6.088
 1905SOL    HW1 6467   0.849   1.957   6.079
 1905SOL    HW2 6468   0.709   1.874   6.094
 1906SOL     OW 6469   0.197   2.838   6.850
 1906SOL    HW1 6470   0.286   2.793   6.836
 1906SOL    HW2 6471   0.124   2.773   6.831
 1907SOL     OW 6472   1.525   2.861   5.776
 1907SOL    HW1 6473   1.462   2.785   5.789
 1907SOL    HW2 6474   1.573   2.879   5.862
 1908SOL     OW 6475   1.187   3.654   7.202
 1908SOL    HW1 6476   1.211   3.714   7.126
 1908SOL    HW2 6477   1.194   3.559   7.172
 1909SOL     OW 6478   0.317   2.113   7.387
 1909SOL    HW1 6479   0.388   2.184   7.393
 1909SOL    HW2 6480   0.229   2.152   7.415
 1910SOL     OW 6481   1.466   3.279   6.539
 1910SOL    HW1 6482   1.407   3.285   6.619
 1910SOL    HW2 6483   1.451   3.191   6.493
 1911SOL     OW 6484   1.667   3.576   6.158
 1911SOL    HW1 6485   1.626   3.553   6.070
 1911SOL    HW2 6486   1.649   3.502   6.223
 1912SOL     OW 6487   0.598   2.591   5.856
 1912SOL    HW1 6488   0.622   2.660   5.788
 1912SOL    HW2 6489   0.520   2.624   5.910
 1913SOL     OW 6490   1.281   2.207   6.530
 1913SOL    HW1 6491   1.195   2.157   6.517
 1913SOL    HW2 6492   1.343   2.153   6.586
 1914SOL     OW 6493   1.576   3.524   5.893
 1914SOL    HW1 6494   1.665   3.570   5.896
 1914SOL    HW2 6495   1.555   3.500   5.798
 1915SOL     OW 6496   0.807   2.467   7.051
 1915SOL    HW1 6497   0.760   2.464   7.140
 1915SOL    HW2 6498   0.756   2.412   6.985
 1916SOL     OW 6499   1.394   2.331   7.260
 1916SOL    HW1 6500   1.374   2.374   7.348
 1916SOL    HW2 6501   1.472   2.269   7.269
 1917SOL     OW 6502   0.973   2.752   7.158
 1917SOL    HW1 6503   1.019   2.668   7.129
 1917SOL    HW2 6504   0.917   2.786   7.083
 1918SOL     OW 6505   0.991   2.272   6.828
 1918SOL    HW1 6506   0.914   2.306   6.882
 1918SOL    HW2 6507   0.957   2.221   6.749
 1919SOL     OW 6508   1.041   2.563   6.015
 1919SOL    HW1 6509   1.067   2.559   6.111
 1919SOL    HW2 6510   0.956   2.512   6.001
 1920SOL     OW 6511   0.076   2.673   6.375
 1920SOL    HW1 6512   0.175   2.661   6.384
 1920SOL    HW2 6513   0.052   2.768   6.396
 1921SOL     OW 6514   0.130   3.683   7.157
 1921SOL    HW1 6515   0.120   3.668   7.256
 1921SOL    HW2 6516   0.044   3.719   7.121
 1922SOL     OW 6517   0.865   2.210   5.781
 1922SOL    HW1 6518   0.924   2.273   5.732
 1922SOL    HW2 6519   0.884   2.116   5.752
 1923SOL     OW 6520   1.719   2.447   7.417
 1923SOL    HW1 6521   1.693   2.536   7.381
 1923SOL    HW2 6522   1.717   2.379   7.344
 1924SOL     OW 6523   1.362   3.006   6.131
 1924SOL    HW1 6524   1.445   2.977   6.083
 1924SOL    HW2 6525   1.313   3.073   6.075
 1925SOL     OW 6526   0.550   2.058   6.471
 1925SOL    HW1 6527   0.545   2.053   6.571
 1925SOL    HW2 6528   0.552   2.154   6.442
 1926SOL     OW 6529   1.008   3.318   6.063
 1926SOL    HW1 6530   0.962   3.390   6.011
 1926SOL    HW2 6531   1.004   3.338   6.161
 1927SOL     OW 6532   0.351   3.663   6.439
 1927SOL    HW1 6533   0.401   3.577   6.445
 1927SOL    HW2 6534   0.416   3.740   6.436
 1928SOL     OW 6535   1.795   2.928   6.459
 1928SOL    HW1 6536   1.733   2.913   6.383
 1928SOL    HW2 6537   1.743   2.939   6.544
 1929SOL     OW 6538   1.227   3.412   7.092
 1929SOL    HW1 6539   1.233   3.335   7.156
 1929SOL    HW2 6540   1.175   3.386   7.012
 1930SOL     OW 6541   0.321   2.805   5.828
 1930SOL    HW1 6542   0.403   2.844   5.786
 1930SOL    HW2 6543   0.294   2.723   5.779
 1931SOL     OW 6544   1.458   2.597   6.314
 1931SOL    HW1 6545   1.453   2.532   6.389
 1931SOL    HW2 6546   1.538   2.656   6.327
 1932SOL     OW 6547   0.461   3.128   7.313
 1932SOL    HW1 6548   0.411   3.129   7.227
 1932SOL    HW2 6549   0.398   3.110   7.389
 1933SOL     OW 6550   1.111   3.638   5.823
 1933SOL    HW1 6551   1.051   3.576   5.873
 1933SOL    HW2 6552   1.142   3.594   5.738
 1934SOL     OW 6553   0.202   2.147   7.084
 1934SOL    HW1 6554   0.122   2.207   7.071
 1934SOL    HW2 6555   0.192   2.098   7.170
 1935SOL     OW 6556   1.632   3.239   5.667
 1935SOL    HW1 6557   1.600   3.333   5.657
 1935SOL    HW2 6558   1.556   3.176   5.655
 1936SOL     OW 6559   0.464   3.605   5.909
 1936SOL    HW1 6560   0.497   3.644   5.995
 1936SOL    HW2 6561   0.540   3.598   5.844
 1937SOL     OW 6562   0.249   3.647   6.827
 1937SOL    HW1 6563   0.306   3.582   6.877
 1937SOL    HW2 6564   0.233   3.614   6.734
 1938SOL     OW 6565   0.940   3.560   6.490
 1938SOL    HW1 6566   1.020   3.503   6.511
 1938SOL    HW2 6567   0.891   3.520   6.413
 1939SOL     OW 6568   0.382   2.562   6.066
 1939SOL    HW1 6569   0.427   2.472   6.063
 1939SOL    HW2 6570   0.288   2.551   6.099
 1940SOL     OW 6571   1.547   2.084   7.315
 1940SOL    HW1 6572   1.542   2.121   7.407
 1940SOL    HW2 6573   1.475   2.015   7.303
 1941SOL     OW 6574   0.614   1.984   5.703
 1941SOL    HW1 6575   0.712   1.962   5.710
 1941SOL    HW2 6576   0.583   1.967   5.610
 1942SOL     OW 6577   0.781   2.126   7.335
 1942SOL    HW1 6578   0.848   2.065   7.378
 1942SOL    HW2 6579   0.708   2.145   7.400
 1943SOL     OW 6580   0.888   3.376   6.781
 1943SOL    HW1 6581   0.865   3.351   6.687
 1943SOL    HW2 6582   0.949   3.307   6.820
 1944SOL     OW 6583   1.351   2.452   7.019
 1944SOL    HW1 6584   1.379   2.409   7.104
 1944SOL    HW2 6585   1.376   2.548   7.020
 1945SOL     OW 6586   0.803   3.264   6.510
 1945SOL    HW1 6587   0.893   3.278   6.468
 1945SOL    HW2 6588   0.732   3.266   6.439
 1946SOL     OW 6589   0.922   2.365   6.485
 1946SOL    HW1 6590   0.897   2.356   6.389
 1946SOL    HW2 6591   0.970   2.283   6.516
 1947SOL     OW 6592   0.539   1.926   6.098
 1947SOL    HW1 6593   0.458   1.927   6.156
 1947SOL    HW2 6594   0.542   2.009   6.043
 1948SOL     OW 6595   1.434   3.050   5.627
 1948SOL    HW1 6596   1.466   2.974   5.684
 1948SOL    HW2 6597   1.342   3.077   5.657
 1949SOL     OW 6598   0.297   1.897   5.757
 1949SOL    HW1 6599   0.346   1.981   5.736
 1949SOL    HW2 6600   0.359   1.832   5.802
 1950SOL     OW 6601   0.935   2.098   6.066
 1950SOL    HW1 6602   0.887   2.139   5.988
 1950SOL    HW2 6603   1.034   2.096   6.047
 1951SOL     OW 6604   1.076   2.545   7.050
 1951SOL    HW1 6605   0.996   2.484   7.053
 1951SOL    HW2 6606   1.157   2.492   7.026
 1952SOL     OW 6607   1.227   3.432   6.379
 1952SOL    HW1 6608   1.248   3.506   6.314
 1952SOL    HW2 6609   1.295   3.432   6.452
 1953SOL     OW 6610   0.459   3.014   6.327
 1953SOL    HW1 6611   0.388   2.987   6.392
 1953SOL    HW2 6612   0.433   2.986   6.234
 1954SOL     OW 6613   1.271   3.659   6.177
 1954SOL    HW1 6614   1.315   3.723   6.113
 1954SOL    HW2 6615   1.221   3.711   6.247
 1955SOL     OW 6616   1.032   2.411   5.602
 1955SOL    HW1 6617   0.991   2.493   5.563
 1955SOL    HW2 6618   1.096   2.437   5.675
 1956SOL     OW 6619   0.078   2.418   6.972
 1956SOL    HW1 6620   0.170   2.417   6.931
 1956SOL    HW2 6621   0.072   2.492   7.039
 1957SOL     OW 6622   0.561   2.084   6.733
 1957SOL    HW1 6623   0.599   2.000   6.770
 1957SOL    HW2 6624   0.473   2.103   6.777
 1958SOL     OW 6625   0.866   2.316   6.228
 1958SOL    HW1 6626   0.834   2.388   6.166
 1958SOL    HW2 6627   0.890   2.235   6.175
 1959SOL     OW 6628   1.017   1.901   6.339
 1959SOL    HW1 6629   0.945   1.906   6.270
 1959SOL    HW2 6630   0.993   1.832   6.408
 1960SOL     OW 6631   1.429   3.035   6.453
 1960SOL    HW1 6632   1.374   2.951   6.446
 1960SOL    HW2 6633   1.455   3.064   6.361
 1961SOL     OW 6634   1.466   2.452   6.578
 1961SOL    HW1 6635   1.436   2.357   6.585
 1961SOL    HW2 6636   1.539   2.468   6.644
 1962SOL     OW 6637   0.488   3.247   5.760
 1962SOL    HW1 6638   0.401   3.232   5.807
 1962SOL    HW2 6639   0.471   3.273   5.665
 1963SOL     OW 6640   1.664   3.142   6.243
 1963SOL    HW1 6641   1.763   3.150   6.257
 1963SOL    HW2 6642   1.619   3.226   6.274
 1964SOL     OW 6643   1.390   2.437   5.664
 1964SOL    HW1 6644   1.336   2.416   5.745
 1964SOL    HW2 6645   1.481   2.396   5.673
 1965SOL     OW 6646   0.527   2.118   5.914
 1965SOL    HW1 6647   0.554   2.059   5.839
 1965SOL    HW2 6648   0.527   2.213   5.883
 1966SOL     OW 6649   1.754   3.085   7.174
 1966SOL    HW1 6650   1.845   3.046   7.161
 1966SOL    HW2 6651   1.762   3.181   7.198
 1967SOL     OW 6652   1.064   3.209   6.926
 1967SOL    HW1 6653   0.984   3.186   6.981
 1967SOL    HW2 6654   1.147   3.183   6.975
 1968SOL     OW 6655   1.592   3.491   7.211
 1968SOL    HW1 6656   1.619   3.525   7.121
 1968SOL    HW2 6657   1.671   3.453   7.257
 1969SOL     OW 6658   1.111   3.057   6.686
 1969SOL    HW1 6659   1.071   3.101   6.767
 1969SOL    HW2 6660   1.070   3.094   6.603
 1970SOL     OW 6661   1.638   2.961   6.665
 1970SOL    HW1 6662   1.643   3.042   6.724
 1970SOL    HW2 6663   1.552   2.963   6.614
 1971SOL     OW 6664   0.915   1.951   6.988
 1971SOL    HW1 6665   0.940   1.931   6.893
 1971SOL    HW2 6666   0.987   2.007   7.030
 1972SOL     OW 6667   0.980   2.978   7.305
 1972SOL    HW1 6668   0.881   2.984   7.315
 1972SOL    HW2 6669   1.003   2.898   7.249
 1973SOL     OW 6670   0.705   2.912   5.954
 1973SOL    HW1 6671   0.691   2.919   6.053
 1973SOL    HW2 6672   0.789   2.861   5.936
 1974SOL     OW 6673   0.410   2.675   6.837
 1974SOL    HW1 6674   0.496   2.687   6.887
 1974SOL    HW2 6675   0.368   2.588   6.864
 1975SOL     OW 6676   1.274   2.248   6.848
 1975SOL    HW1 6677   1.295   2.322   6.912
 1975SOL    HW2 6678   1.185   2.265   6.805
 1976SOL     OW 6679   0.064   3.426   6.917
 1976SOL    HW1 6680   0.018   3.508   6.883
 1976SOL    HW2 6681   0.162   3.445   6.926
 1977SOL     OW 6682   0.367   2.962   6.087
 1977SOL    HW1 6683   0.360   3.045   6.031
 1977SOL    HW2 6684   0.371   2.882   6.027
 1978SOL     OW 6685   0.566   2.399   6.451
 1978SOL    HW1 6686   0.578   2.465   6.377
 1978SOL    HW2 6687   0.612   2.433   6.534
 1979SOL     OW 6688   1.252   3.210   5.974
 1979SOL    HW1 6689   1.302   3.287   6.014
 1979SOL    HW2 6690   1.157   3.212   6.006
 1980SOL     OW 6691   1.272   3.307   6.728
 1980SOL    HW1 6692   1.319   3.320   6.815
 1980SOL    HW2 6693   1.206   3.233   6.737
 1981SOL     OW 6694   0.354   3.372   6.915
 1981SOL    HW1 6695   0.333   3.328   6.828
 1981SOL    HW2 6696   0.451   3.398   6.918
 1982SOL     OW 6697   0.402   2.613   7.184
 1982SOL    HW1 6698   0.470   2.668   7.137
 1982SOL    HW2 6699   0.442   2.525   7.211
 1983SOL     OW 6700   1.587   2.641   7.256
 1983SOL    HW1 6701   1.495   2.679   7.251
 1983SOL    HW2 6702   1.647   2.688   7.191
 1984SOL     OW 6703   1.013   1.967   7.356
 1984SOL    HW1 6704   1.019   2.052   7.304
 1984SOL    HW2 6705   1.045   1.891   7.299
 1985SOL     OW 6706   0.504   1.912   7.326
 1985SOL    HW1 6707   0.462   1.855   7.256
 1985SOL    HW2 6708   0.438   1.981   7.358
 1986SOL     OW 6709   0.573   2.732   6.615
 1986SOL    HW1 6710   0.617   2.821   6.606
 1986SOL    HW2 6711   0.510   2.732   6.692
 1987SOL     OW 6712   1.360   2.724   6.631
 1987SOL    HW1 6713   1.285   2.724   6.565
 1987SOL    HW2 6714   1.397   2.632   6.640
 1988SOL     OW 6715   1.209   2.387   5.861
 1988SOL    HW1 6716   1.222   2.303   5.915
 1988SOL    HW2 6717   1.180   2.461   5.921
 1989SOL     OW 6718   0.307   2.075   6.817
 1989SOL    HW1 6719   0.284   2.112   6.907
 1989SOL    HW2 6720   0.277   1.980   6.811
 1990SOL     OW 6721   0.037   3.172   6.868
 1990SOL    HW1 6722   0.090   3.123   6.936
 1990SOL    HW2 6723   0.059   3.270   6.873
 1991SOL     OW 6724   0.732   2.496   6.650
 1991SOL    HW1 6725   0.791   2.470   6.574
 1991SOL    HW2 6726   0.704   2.592   6.639
 1992SOL     OW 6727   1.728   2.797   7.440
 1992SOL    HW1 6728   1.682   2.790   7.351
 1992SOL    HW2 6729   1.666   2.841   7.506
 1993SOL     OW 6730   0.307   1.925   6.204
 1993SOL    HW1 6731   0.296   2.019   6.237
 1993SOL    HW2 6732   0.302   1.862   6.281
 1994SOL     OW 6733   1.023   2.628   6.552
 1994SOL    HW1 6734   1.038   2.649   6.648
 1994SOL    HW2 6735   0.993   2.533   6.543
 1995SOL     OW 6736   0.980   3.435   7.286
 1995SOL    HW1 6737   0.960   3.479   7.198
 1995SOL    HW2 6738   1.019   3.344   7.270
 1996SOL     OW 6739   1.859   3.380   7.191
 1996SOL    HW1 6740   1.873   3.407   7.096
 1996SOL    HW2 6741   1.942   3.402   7.244
 1997SOL     OW 6742   0.350   2.760   7.390
 1997SOL    HW1 6743   0.426   2.804   7.438
 1997SOL    HW2 6744   0.385   2.713   7.308
 1998SOL     OW 6745   1.303   2.700   5.628
 1998SOL    HW1 6746   1.337   2.607   5.643
 1998SOL    HW2 6747   1.321   2.727   5.533
 1999SOL     OW 6748   1.068   3.195   6.435
 1999SOL    HW1 6749   1.075   3.111   6.380
 1999SOL    HW2 6750   1.130   3.264   6.399
 2000SOL     OW 6751   0.319   2.672   6.535
 2000SOL    HW1 6752   0.412   2.708   6.540
 2000SOL    HW2 6753   0.313   2.587   6.587
 2001SOL     OW 6754   0.339   2.371   6.592
 2001SOL    HW1 6755   0.287   2.288   6.575
 2001SOL    HW2 6756   0.416   2.376   6.528
 2002SOL     OW 6757   1.138   2.242   7.264
 2002SOL    HW1 6758   1.093   2.305   7.328
 2002SOL    HW2 6759   1.231   2.273   7.247
 2003SOL     OW 6760   1.160   2.069   7.063
 2003SOL    HW1 6761   1.160   2.133   7.140
 2003SOL    HW2 6762   1.188   2.117   6.980
 2004SOL     OW 6763   0.008   3.188   5.786
 2004SOL    HW1 6764  -0.085   3.209   5.755
 2004SOL    HW2 6765   0.018   3.089   5.799
 2005SOL     OW 6766   0.088   3.663   6.513
 2005SOL    HW1 6767   0.046   3.577   6.486
 2005SOL    HW2 6768   0.182   3.666   6.479
 2006SOL     OW 6769   0.504   3.430   6.496
 2006SOL    HW1 6770   0.570   3.504   6.505
 2006SOL    HW2 6771   0.548   3.351   6.454
 2007SOL     OW 6772   1.002   2.658   6.824
 2007SOL    HW1 6773   1.043   2.626   6.910
 2007SOL    HW2 6774   0.906   2.631   6.821
 2008SOL     OW 6775   0.040   2.406   6.700
 2008SOL    HW1 6776   0.125   2.373   6.659
 2008SOL    HW2 6777   0.053   2.421   6.798
 2009SOL     OW 6778   0.189   2.382   7.308
 2009SOL    HW1 6779   0.248   2.342   7.238
 2009SOL    HW2 6780   0.131   2.453   7.267
 2010SOL     OW 6781   1.369   2.812   7.246
 2010SOL    HW1 6782   1.408   2.901   7.266
 2010SOL    HW2 6783   1.379   2.792   7.149
 2011SOL     OW 6784   0.815   2.434   5.911
 2011SOL    HW1 6785   0.822   2.345   5.865
 2011SOL    HW2 6786   0.721   2.468   5.903
 2012SOL     OW 6787   1.657   2.466   6.792
 2012SOL    HW1 6788   1.619   2.397   6.854
 2012SOL    HW2 6789   1.739   2.430   6.748
 2013SOL     OW 6790   0.252   3.426   7.330
 2013SOL    HW1 6791   0.222   3.483   7.406
 2013SOL    HW2 6792   0.245   3.329   7.356
 2014SOL     OW 6793   0.671   2.326   6.855
 2014SOL    HW1 6794   0.637   2.237   6.825
 2014SOL    HW2 6795   0.697   2.380   6.775
 2015SOL     OW 6796   0.930   3.540   7.051
 2015SOL    HW1 6797   0.906   3.522   6.956
 2015SOL    HW2 6798   0.960   3.634   7.061
 2016SOL     OW 6799   0.473   2.362   5.777
 2016SOL    HW1 6800   0.534   2.442   5.781
 2016SOL    HW2 6801   0.378   2.393   5.784
 2017SOL     OW 6802   0.159   2.999   7.052
 2017SOL    HW1 6803   0.181   2.938   7.128
 2017SOL    HW2 6804   0.169   2.950   6.966
 2018SOL     OW 6805   1.347   2.921   6.820
 2018SOL    HW1 6806   1.371   2.858   6.746
 2018SOL    HW2 6807   1.257   2.961   6.802
 2019SOL     OW 6808   1.302   2.717   5.895
 2019SOL    HW1 6809   1.216   2.686   5.937
 2019SOL    HW2 6810   1.298   2.703   5.796
 2020SOL     OW 6811   1.759   3.609   6.740
 2020SOL    HW1 6812   1.820   3.639   6.667
 2020SOL    HW2 6813   1.721   3.520   6.718
 2021SOL     OW 6814   1.252   3.593   6.714
 2021SOL    HW1 6815   1.336   3.598   6.660
 2021SOL    HW2 6816   1.229   3.497   6.732
 2022SOL     OW 6817   0.083   3.120   6.608
 2022SOL    HW1 6818   0.078   3.119   6.708
 2022SOL    HW2 6819   0.000   3.079   6.570
 2023SOL     OW 6820   0.688   3.524   7.302
 2023SOL    HW1 6821   0.632   3.605   7.311
 2023SOL    HW2 6822   0.740   3.528   7.216
 2024SOL     OW 6823   1.388   3.435   6.063
 2024SOL    HW1 6824   1.455   3.447   5.989
 2024SOL    HW2 6825   1.348   3.524   6.086
 2025SOL     OW 6826   0.130   3.656   7.437
 2025SOL    HW1 6827   0.089   3.582   7.490
 2025SOL    HW2 6828   0.194   3.707   7.495
 2026SOL     OW 6829   1.280   2.789   6.258
 2026SOL    HW1 6830   1.340   2.708   6.260
 2026SOL    HW2 6831   1.320   2.858   6.198
 2027SOL     OW 6832   0.830   3.135   7.008
 2027SOL    HW1 6833   0.825   3.168   7.103
 2027SOL    HW2 6834   0.744   3.154   6.962
 2028SOL     OW 6835   0.672   3.478   5.740
 2028SOL    HW1 6836   0.681   3.488   5.641
 2028SOL    HW2 6837   0.632   3.389   5.761
 2029SOL     OW 6838   1.650   3.582   6.980
 2029SOL    HW1 6839   1.703   3.592   6.896
 2029SOL    HW2 6840   1.623   3.672   7.014
 2030SOL     OW 6841   0.263   2.188   6.306
 2030SOL    HW1 6842   0.184   2.239   6.272
 2030SOL    HW2 6843   0.254   2.173   6.404
 2031SOL     OW 6844   1.194   3.474   5.617
 2031SOL    HW1 6845   1.200   3.381   5.654
 2031SOL    HW2 6846   1.135   3.474   5.537
 2032SOL     OW 6847   0.822   2.864   6.958
 2032SOL    HW1 6848   0.862   2.863   6.866
 2032SOL    HW2 6849   0.832   2.956   6.998
 2033SOL     OW 6850   0.916   2.772   5.877
 2033SOL    HW1 6851   0.979   2.810   5.809
 2033SOL    HW2 6852   0.956   2.689   5.916
 2034SOL     OW 6853   1.504   3.469   5.630
 2034SOL    HW1 6854   1.412   3.506   5.637
 2034SOL    HW2 6855   1.542   3.489   5.540
 2035SOL     OW 6856   0.372   3.150   7.076
 2035SOL    HW1 6857   0.359   3.243   7.042
 2035SOL    HW2 6858   0.288   3.098   7.063
 2036SOL     OW 6859   1.614   3.154   6.875
 2036SOL    HW1 6860   1.674   3.157   6.955
 2036SOL    HW2 6861   1.539   3.218   6.888
 2037SOL     OW 6862   1.039   2.960   6.282
 2037SOL    HW1 6863   0.969   2.913   6.336
 2037SOL    HW2 6864   1.098   2.892   6.239
 2038SOL     OW 6865   1.014   2.098   6.557
 2038SOL    HW1 6866   1.006   2.062   6.464
 2038SOL    HW2 6867   1.012   2.022   6.622
 2039SOL     OW 6868   0.590   3.349   6.077
 2039SOL    HW1 6869   0.632   3.291   6.007
 2039SOL    HW2 6870   0.546   3.428   6.033
 2040SOL     OW 6871   1.709   2.247   6.967
 2040SOL    HW1 6872   1.782   2.316   6.971
 2040SOL    HW2 6873   1.737   2.172   6.908
 2041SOL     OW 6874   0.255   3.210   5.876
 2041SOL    HW1 6875   0.159   3.211   5.849
 2041SOL    HW2 6876   0.267   3.263   5.960
 2042SOL     OW 6877   0.105   2.875   7.312
 2042SOL    HW1 6878   0.028   2.842   7.366
 2042SOL    HW2 6879   0.190   2.845   7.354
 2043SOL     OW 6880   0.672   2.065   7.075
 2043SOL    HW1 6881   0.762   2.049   7.035
 2043SOL    HW2 6882   0.680   2.070   7.174
 2044SOL     OW 6883   0.075   2.207   5.619
 2044SOL    HW1 6884  -0.017   2.179   5.590
 2044SOL    HW2 6885   0.106   2.284   5.563
 2045SOL     OW 6886   1.440   2.718   6.984
 2045SOL    HW1 6887   1.383   2.770   6.921
 2045SOL    HW2 6888   1.536   2.730   6.960
 2046SOL     OW 6889   0.072   2.028   5.904
 2046SOL    HW1 6890   0.055   2.111   5.850
 2046SOL    HW2 6891   0.162   1.991   5.882
 2047SOL     OW 6892   1.183   3.197   5.705
 2047SOL    HW1 6893   1.084   3.186   5.707
 2047SOL    HW2 6894   1.217   3.212   5.798
 2048SOL     OW 6895   0.613   2.704   7.017
 2048SOL    HW1 6896   0.669   2.785   7.000
 2048SOL    HW2 6897   0.672   2.624   7.020
 2049SOL     OW 6898   1.493   3.629   6.545
 2049SOL    HW1 6899   1.526   3.693   6.476
 2049SOL    HW2 6900   1.559   3.623   6.620
 2050SOL     OW 6901   0.716   2.427   7.294
 2050SOL    HW1 6902   0.735   2.492   7.368
 2050SOL    HW2 6903   0.776   2.347   7.303
 2051SOL     OW 6904   1.450   3.082   7.219
 2051SOL    HW1 6905   1.441   3.072   7.318
 2051SOL    HW2 6906   1.546   3.075   7.193
 2052SOL     OW 6907   0.390   3.603   7.146
 2052SOL    HW1 6908   0.299   3.644   7.144
 2052SOL    HW2 6909   0.383   3.509   7.178
 2053SOL     OW 6910   1.674   2.745   6.840
 2053SOL    HW1 6911   1.647   2.656   6.803
 2053SOL    HW2 6912   1.675   2.813   6.767
 2054SOL     OW 6913   1.225   2.187   6.035
 2054SOL    HW1 6914   1.290   2.113   6.024
 2054SOL    HW2 6915   1.245   2.237   6.119
 2055SOL     OW 6916   0.594   2.607   6.238
 2055SOL    HW1 6917   0.644   2.692   6.219
 2055SOL    HW2 6918   0.506   2.609   6.190
 2056SOL     OW 6919   1.777   2.204   7.228
 2056SOL    HW1 6920   1.760   2.235   7.134
 2056SOL    HW2 6921   1.693   2.167   7.266
 2057SOL     OW 6922   1.730   2.796   7.103
 2057SOL    HW1 6923   1.768   2.887   7.118
 2057SOL    HW2 6924   1.722   2.779   7.004
 2058SOL     OW 6925   0.859   3.236   5.602
 2058SOL    HW1 6926   0.813   3.251   5.690
 2058SOL    HW2 6927   0.903   3.321   5.572
 2059SOL     OW 6928   0.661   3.652   6.539
 2059SOL    HW1 6929   0.615   3.740   6.526
 2059SOL    HW2 6930   0.760   3.664   6.532
 2060SOL     OW 6931   0.859   2.818   6.447
 2060SOL    HW1 6932   0.913   2.749   6.495
 2060SOL    HW2 6933   0.827   2.887   6.513
 2061SOL     OW 6934   1.083   2.846   5.673
 2061SOL    HW1 6935   1.060   2.899   5.591
 2061SOL    HW2 6936   1.164   2.790   5.654
 2062SOL     OW 6937   1.861   3.431   6.437
 2062SOL    HW1 6938   1.790   3.419   6.367
 2062SOL    HW2 6939   1.862   3.352   6.497
 2063SOL     OW 6940   0.221   3.176   7.430
 2063SOL    HW1 6941   0.156   3.103   7.409
 2063SOL    HW2 6942   0.225   3.190   7.528
 2064SOL     OW 6943   0.079   3.102   6.239
 2064SOL    HW1 6944   0.078   3.055   6.327
 2064SOL    HW2 6945   0.161   3.074   6.188
 2065SOL     OW 6946   0.672   3.253   7.210
 2065SOL    HW1 6947   0.594   3.203   7.248
 2065SOL    HW2 6948   0.669   3.348   7.241
 2066SOL     OW 6949   1.824   2.054   6.813
 2066SOL    HW1 6950   1.820   1.964   6.857
 2066SOL    HW2 6951   1.827   2.043   6.714
 2067SOL     OW 6952   0.428   2.286   6.106
 2067SOL    HW1 6953   0.458   2.214   6.044
 2067SOL    HW2 6954   0.389   2.246   6.189
 2068SOL     OW 6955   1.705   3.349   6.690
 2068SOL    HW1 6956   1.612   3.324   6.663
 2068SOL    HW2 6957   1.731   3.299   6.772
 2069SOL     OW 6958   0.317   2.409   6.866
 2069SOL    HW1 6959   0.355   2.350   6.938
 2069SOL    HW2 6960   0.357   2.383   6.778
 2070SOL     OW 6961   0.812   3.448   6.273
 2070SOL    HW1 6962   0.844   3.458   6.179
 2070SOL    HW2 6963   0.733   3.386   6.275
 2071SOL     OW 6964   1.424   2.076   6.698
 2071SOL    HW1 6965   1.476   2.011   6.753
 2071SOL    HW2 6966   1.375   2.139   6.759
 2072SOL     OW 6967   1.001   1.896   6.740
 2072SOL    HW1 6968   0.938   1.824   6.709
 2072SOL    HW2 6969   1.094   1.860   6.740
 2073SOL     OW 6970   0.770   3.192   5.887
 2073SOL    HW1 6971   0.724   3.105   5.904
 2073SOL    HW2 6972   0.861   3.189   5.928
 2074SOL     OW 6973   0.618   3.429   6.870
 2074SOL    HW1 6974   0.613   3.511   6.927
 2074SOL    HW2 6975   0.707   3.426   6.825
 2075SOL     OW 6976   1.352   1.914   5.754
 2075SOL    HW1 6977   1.387   1.873   5.670
 2075SOL    HW2 6978   1.262   1.876   5.774
 2076SOL     OW 6979   1.300   2.315   6.277
 2076SOL    HW1 6980   1.241   2.395   6.281
 2076SOL    HW2 6981   1.315   2.280   6.370
 2077SOL     OW 6982   0.039   2.939   5.886
 2077SOL    HW1 6983   0.138   2.928   5.877
 2077SOL    HW2 6984  -0.001   2.853   5.918
 2078SOL     OW 6985   0.875   3.508   5.923
 2078SOL    HW1 6986   0.798   3.473   5.869
 2078SOL    HW2 6987   0.843   3.579   5.985
 2079SOL     OW 6988   0.230   2.490   7.561
 2079SOL    HW1 6989   0.137   2.488   7.598
 2079SOL    HW2 6990   0.231   2.451   7.469
 2080SOL     OW 6991   0.225   2.137   8.444
 2080SOL    HW1 6992   0.260   2.120   8.536
 2080SOL    HW2 6993   0.137   2.092   8.432
 2081SOL     OW 6994   0.019   2.230   8.095
 2081SOL    HW1 6995  -0.063   2.273   8.134
 2081SOL    HW2 6996  -0.009   2.157   8.032
 2082SOL     OW 6997   0.569   3.137   8.613
 2082SOL    HW1 6998   0.476   3.130   8.576
 2082SOL    HW2 6999   0.580   3.226   8.657
 2083SOL     OW 7000   1.555   3.373   8.151
 2083SOL    HW1 7001   1.498   3.357   8.232
 2083SOL    HW2 7002   1.496   3.383   8.071
 2084SOL     OW 7003   1.135   2.565   8.165
 2084SOL    HW1 7004   1.192   2.643   8.140
 2084SOL    HW2 7005   1.075   2.591   8.241
 2085SOL     OW 7006   1.755   2.469   7.679
 2085SOL    HW1 7007   1.743   2.456   7.580
 2085SOL    HW2 7008   1.725   2.388   7.728
 2086SOL     OW 7009   0.768   3.006   8.471
 2086SOL    HW1 7010   0.690   3.023   8.531
 2086SOL    HW2 7011   0.802   3.093   8.435
 2087SOL     OW 7012   0.850   2.660   9.271
 2087SOL    HW1 7013   0.846   2.736   9.336
 2087SOL    HW2 7014   0.872   2.696   9.180
 2088SOL     OW 7015   0.685   2.874   8.113
 2088SOL    HW1 7016   0.754   2.858   8.183
 2088SOL    HW2 7017   0.612   2.931   8.151
 2089SOL     OW 7018   0.686   3.023   9.251
 2089SOL    HW1 7019   0.746   3.102   9.265
 2089SOL    HW2 7020   0.600   3.054   9.210
 2090SOL     OW 7021   0.335   3.297   8.509
 2090SOL    HW1 7022   0.257   3.266   8.456
 2090SOL    HW2 7023   0.393   3.355   8.452
 2091SOL     OW 7024   1.460   3.367   8.787
 2091SOL    HW1 7025   1.484   3.461   8.813
 2091SOL    HW2 7026   1.444   3.313   8.869
 2092SOL     OW 7027   0.438   2.254   8.947
 2092SOL    HW1 7028   0.520   2.198   8.956
 2092SOL    HW2 7029   0.357   2.196   8.951
 2093SOL     OW 7030   1.603   2.309   8.185
 2093SOL    HW1 7031   1.529   2.355   8.135
 2093SOL    HW2 7032   1.654   2.377   8.238
 2094SOL     OW 7033   0.231   3.575   7.931
 2094SOL    HW1 7034   0.265   3.652   7.985
 2094SOL    HW2 7035   0.275   3.575   7.841
 2095SOL     OW 7036   1.127   3.203   9.138
 2095SOL    HW1 7037   1.174   3.203   9.226
 2095SOL    HW2 7038   1.079   3.116   9.127
 2096SOL     OW 7039   0.230   3.296   7.986
 2096SOL    HW1 7040   0.204   3.392   7.986
 2096SOL    HW2 7041   0.159   3.242   8.031
 2097SOL     OW 7042   0.240   2.953   8.334
 2097SOL    HW1 7043   0.254   2.869   8.386
 2097SOL    HW2 7044   0.185   3.017   8.389
 2098SOL     OW 7045   0.620   3.648   8.887
 2098SOL    HW1 7046   0.528   3.631   8.922
 2098SOL    HW2 7047   0.648   3.740   8.913
 2099SOL     OW 7048   0.606   2.826   7.571
 2099SOL    HW1 7049   0.613   2.910   7.517
 2099SOL    HW2 7050   0.652   2.839   7.659
 2100SOL     OW 7051   1.594   1.976   8.928
 2100SOL    HW1 7052   1.576   2.043   8.856
 2100SOL    HW2 7053   1.591   2.022   9.017
 2101SOL     OW 7054   0.122   2.505   8.011
 2101SOL    HW1 7055   0.077   2.417   8.028
 2101SOL    HW2 7056   0.121   2.559   8.095
 2102SOL     OW 7057   1.842   3.629   7.807
 2102SOL    HW1 7058   1.896   3.600   7.887
 2102SOL    HW2 7059   1.872   3.719   7.778
 2103SOL     OW 7060   0.027   3.458   7.565
 2103SOL    HW1 7061   0.008   3.362   7.586
 2103SOL    HW2 7062  -0.006   3.516   7.640
 2104SOL     OW 7063   1.689   2.784   8.060
 2104SOL    HW1 7064   1.784   2.755   8.068
 2104SOL    HW2 7065   1.681   2.849   7.985
 2105SOL     OW 7066   1.641   2.970   7.880
 2105SOL    HW1 7067   1.727   2.972   7.828
 2105SOL    HW2 7068   1.655   3.017   7.968
 2106SOL     OW 7069   0.113   2.599   9.045
 2106SOL    HW1 7070   0.201   2.586   9.090
 2106SOL    HW2 7071   0.100   2.696   9.023
 2107SOL     OW 7072   0.613   3.227   8.174
 2107SOL    HW1 7073   0.564   3.140   8.183
 2107SOL    HW2 7074   0.590   3.270   8.087
 2108SOL     OW 7075   1.293   3.090   8.871
 2108SOL    HW1 7076   1.330   3.017   8.813
 2108SOL    HW2 7077   1.345   3.095   8.956
 2109SOL     OW 7078   0.809   1.866   7.950
 2109SOL    HW1 7079   0.849   1.957   7.941
 2109SOL    HW2 7080   0.709   1.874   7.956
 2110SOL     OW 7081   0.197   2.838   8.712
 2110SOL    HW1 7082   0.286   2.793   8.698
 2110SOL    HW2 7083   0.124   2.773   8.693
 2111SOL     OW 7084   1.525   2.861   7.638
 2111SOL    HW1 7085   1.462   2.785   7.651
 2111SOL    HW2 7086   1.573   2.879   7.724
 2112SOL     OW 7087   1.187   3.654   9.064
 2112SOL    HW1 7088   1.211   3.714   8.988
 2112SOL    HW2 7089   1.194   3.559   9.034
 2113SOL     OW 7090   0.317   2.113   9.249
 2113SOL    HW1 7091   0.388   2.184   9.255
 2113SOL    HW2 7092   0.229   2.152   9.277
 2114SOL     OW 7093   1.466   3.279   8.401
 2114SOL    HW1 7094   1.407   3.285   8.481
 2114SOL    HW2 7095   1.451   3.191   8.355
 2115SOL     OW 7096   1.667   3.576   8.020
 2115SOL    HW1 7097   1.626   3.553   7.932
 2115SOL    HW2 7098   1.649   3.502   8.085
 2116SOL     OW 7099   0.598   2.591   7.718
 2116SOL    HW1 7100   0.622   2.660   7.650
 2116SOL    HW2 7101   0.520   2.624   7.772
 2117SOL     OW 7102   1.281   2.207   8.392
 2117SOL    HW1 7103   1.195   2.157   8.379
 2117SOL    HW2 7104   1.343   2.153   8.448
 2118SOL     OW 7105   1.576   3.524   7.755
 2118SOL    HW1 7106   1.665   3.570   7.758
 2118SOL    HW2 7107   1.555   3.500   7.660
 2119SOL     OW 7108   0.807   2.467   8.913
 2119SOL    HW1 7109   0.760   2.464   9.002
 2119SOL    HW2 7110   0.756   2.412   8.847
 2120SOL     OW 7111   1.394   2.331   9.122
 2120SOL    HW1 7112   1.374   2.374   9.210
 2120SOL    HW2 7113   1.472   2.269   9.131
 2121SOL     OW 7114   0.973   2.752   9.020
 2121SOL    HW1 7115   1.019   2.668   8.991
 2121SOL    HW2 7116   0.917   2.786   8.945
 2122SOL     OW 7117   0.991   2.272   8.690
 2122SOL    HW1 7118   0.914   2.306   8.744
 2122SOL    HW2 7119   0.957   2.221   8.611
 2123SOL     OW 7120   1.041   2.563   7.877
 2123SOL    HW1 7121   1.067   2.559   7.973
 2123SOL    HW2 7122   0.956   2.512   7.863
 2124SOL     OW 7123   0.076   2.673   8.237
 2124SOL    HW1 7124   0.175   2.661   8.246
 2124SOL    HW2 7125   0.052   2.768   8.258
 2125SOL     OW 7126   0.130   3.683   9.019
 2125SOL    HW1 7127   0.120   3.668   9.118
 2125SOL    HW2 7128   0.044   3.719   8.983
 2126SOL     OW 7129   0.865   2.210   7.643
 2126SOL    HW1 7130   0.924   2.273   7.594
 2126SOL    HW2 7131   0.884   2.116   7.614
 2127SOL     OW 7132   1.719   2.447   9.279
 2127SOL    HW1 7133   1.693   2.536   9.243
 2127SOL    HW2 7134   1.717   2.379   9.206
 2128SOL     OW 7135   1.362   3.006   7.993
 2128SOL    HW1 7136   1.445   2.977   7.945
 2128SOL    HW2 7137   1.313   3.073   7.937
 2129SOL     OW 7138   0.550   2.058   8.333
 2129SOL    HW1 7139   0.545   2.053   8.433
 2129SOL    HW2 7140   0.552   2.154   8.304
 2130SOL     OW 7141   1.008   3.318   7.925
 2130SOL    HW1 7142   0.962   3.390   7.873
 2130SOL    HW2 7143   1.004   3.338   8.023
 2131SOL     OW 7144   0.351   3.663   8.301
 2131SOL    HW1 7145   0.401   3.577   8.307
 2131SOL    HW2 7146   0.416   3.740   8.298
 2132SOL     OW 7147   1.795   2.928   8.321
 2132SOL    HW1 7148   1.733   2.913   8.245
 2132SOL    HW2 7149   1.743   2.939   8.406
 2133SOL     OW 7150   1.227   3.412   8.954
 2133SOL    HW1 7151   1.233   3.335   9.018
 2133SOL    HW2 7152   1.175   3.386   8.874
 2134SOL     OW 7153   0.321   2.805   7.690
 2134SOL    HW1 7154   0.403   2.844   7.648
 2134SOL    HW2 7155   0.294   2.723   7.641
 2135SOL     OW 7156   1.458   2.597   8.176
 2135SOL    HW1 7157   1.453   2.532   8.251
 2135SOL    HW2 7158   1.538   2.656   8.189
 2136SOL     OW 7159   0.461   3.128   9.175
 2136SOL    HW1 7160   0.411   3.129   9.089
 2136SOL    HW2 7161   0.398   3.110   9.251
 2137SOL     OW 7162   1.111   3.638   7.685
 2137SOL    HW1 7163   1.051   3.576   7.735
 2137SOL    HW2 7164   1.142   3.594   7.600
 2138SOL     OW 7165   0.202   2.147   8.946
 2138SOL    HW1 7166   0.122   2.207   8.933
 2138SOL    HW2 7167   0.192   2.098   9.032
 2139SOL     OW 7168   1.632   3.239   7.529
 2139SOL    HW1 7169   1.600   3.333   7.519
 2139SOL    HW2 7170   1.556   3.176   7.517
 2140SOL     OW 7171   0.464   3.605   7.771
 2140SOL    HW1 7172   0.497   3.644   7.857
 2140SOL    HW2 7173   0.540   3.598   7.706
 2141SOL     OW 7174   1.400   1.969   7.874
 2141SOL    HW1 7175   1.376   1.932   7.784
 2141SOL    HW2 7176   1.499   1.985   7.878
 2142SOL     OW 7177   0.249   3.647   8.689
 2142SOL    HW1 7178   0.306   3.582   8.739
 2142SOL    HW2 7179   0.233   3.614   8.596
 2143SOL     OW 7180   0.940   3.560   8.352
 2143SOL    HW1 7181   1.020   3.503   8.373
 2143SOL    HW2 7182   0.891   3.520   8.275
 2144SOL     OW 7183   0.382   2.562   7.928
 2144SOL    HW1 7184   0.427   2.472   7.925
 2144SOL    HW2 7185   0.288   2.551   7.961
 2145SOL     OW 7186   1.547   2.084   9.177
 2145SOL    HW1 7187   1.542   2.121   9.269
 2145SOL    HW2 7188   1.475   2.015   9.165
 2146SOL     OW 7189   0.614   1.984   7.565
 2146SOL    HW1 7190   0.712   1.962   7.572
 2146SOL    HW2 7191   0.583   1.967   7.472
 2147SOL     OW 7192   0.781   2.126   9.197
 2147SOL    HW1 7193   0.848   2.065   9.240
 2147SOL    HW2 7194   0.708   2.145   9.262
 2148SOL     OW 7195   0.888   3.376   8.643
 2148SOL    HW1 7196   0.865   3.351   8.549
 2148SOL    HW2 7197   0.949   3.307   8.682
 2149SOL     OW 7198   1.351   2.452   8.881
 2149SOL    HW1 7199   1.379   2.409   8.966
 2149SOL    HW2 7200   1.376   2.548   8.882
 2150SOL     OW 7201   0.803   3.264   8.372
 2150SOL    HW1 7202   0.893   3.278   8.330
 2150SOL    HW2 7203   0.732   3.266   8.301
 2151SOL     OW 7204   0.922   2.365   8.347
 2151SOL    HW1 7205   0.897   2.356   8.251
 2151SOL    HW2 7206   0.970   2.283   8.378
 2152SOL     OW 7207   0.539   1.926   7.960
 2152SOL    HW1 7208   0.458   1.927   8.018
 2152SOL    HW2 7209   0.542   2.009   7.905
 2153SOL     OW 7210   1.434   3.050   7.489
 2153SOL    HW1 7211   1.466   2.974   7.546
 2153SOL    HW2 7212   1.342   3.077   7.519
 2154SOL     OW 7213   0.297   1.897   7.619
 2154SOL    HW1 7214   0.346   1.981   7.598
 2154SOL    HW2 7215   0.359   1.832   7.664
 2155SOL     OW 7216   0.935   2.098   7.928
 2155SOL    HW1 7217   0.887   2.139   7.850
 2155SOL    HW2 7218   1.034   2.096   7.909
 2156SOL     OW 7219   1.076   2.545   8.912
 2156SOL    HW1 7220   0.996   2.484   8.915
 2156SOL    HW2 7221   1.157   2.492   8.888
 2157SOL     OW 7222   1.227   3.432   8.241
 2157SOL    HW1 7223   1.248   3.506   8.176
 2157SOL    HW2 7224   1.295   3.432   8.314
 2158SOL     OW 7225   0.459   3.014   8.189
 2158SOL    HW1 7226   0.388   2.987   8.254
 2158SOL    HW2 7227   0.433   2.986   8.096
 2159SOL     OW 7228   1.271   3.659   8.039
 2159SOL    HW1 7229   1.315   3.723   7.975
 2159SOL    HW2 7230   1.221   3.711   8.109
 2160SOL     OW 7231   1.032   2.411   7.464
 2160SOL    HW1 7232   0.991   2.493   7.425
 2160SOL    HW2 7233   1.096   2.437   7.537
 2161SOL     OW 7234   0.078   2.418   8.834
 2161SOL    HW1 7235   0.170   2.417   8.793
 2161SOL    HW2 7236   0.072   2.492   8.901
 2162SOL     OW 7237   0.561   2.084   8.595
 2162SOL    HW1 7238   0.599   2.000   8.632
 2162SOL    HW2 7239   0.473   2.103   8.639
 2163SOL     OW 7240   0.866   2.316   8.090
 2163SOL    HW1 7241   0.834   2.388   8.028
 2163SOL    HW2 7242   0.890   2.235   8.037
 2164SOL     OW 7243   1.017   1.901   8.201
 2164SOL    HW1 7244   0.945   1.906   8.132
 2164SOL    HW2 7245   0.993   1.832   8.270
 2165SOL     OW 7246   1.429   3.035   8.315
 2165SOL    HW1 7247   1.374   2.951   8.308
 2165SOL    HW2 7248   1.455   3.064   8.223
 2166SOL     OW 7249   1.466   2.452   8.440
 2166SOL    HW1 7250   1.436   2.357   8.447
 2166SOL    HW2 7251   1.539   2.468   8.506
 2167SOL     OW 7252   1.857   2.695   7.825
 2167SOL    HW1 7253   1.899   2.631   7.889
 2167SOL    HW2 7254   1.819   2.644   7.747
 2168SOL     OW 7255   0.488   3.247   7.622
 2168SOL    HW1 7256   0.401   3.232   7.669
 2168SOL    HW2 7257   0.471   3.273   7.527
 2169SOL     OW 7258   1.664   3.142   8.105
 2169SOL    HW1 7259   1.763   3.150   8.119
 2169SOL    HW2 7260   1.619   3.226   8.136
 2170SOL     OW 7261   1.390   2.437   7.526
 2170SOL    HW1 7262   1.336   2.416   7.607
 2170SOL    HW2 7263   1.481   2.396   7.535
 2171SOL     OW 7264   0.527   2.118   7.776
 2171SOL    HW1 7265   0.554   2.059   7.701
 2171SOL    HW2 7266   0.527   2.213   7.745
 2172SOL     OW 7267   1.754   3.085   9.036
 2172SOL    HW1 7268   1.845   3.046   9.023
 2172SOL    HW2 7269   1.762   3.181   9.060
 2173SOL     OW 7270   1.064   3.209   8.788
 2173SOL    HW1 7271   0.984   3.186   8.843
 2173SOL    HW2 7272   1.147   3.183   8.837
 2174SOL     OW 7273   1.592   3.491   9.073
 2174SOL    HW1 7274   1.619   3.525   8.983
 2174SOL    HW2 7275   1.671   3.453   9.119
 2175SOL     OW 7276   1.111   3.057   8.548
 2175SOL    HW1 7277   1.071   3.101   8.629
 2175SOL    HW2 7278   1.070   3.094   8.465
 2176SOL     OW 7279   1.638   2.961   8.527
 2176SOL    HW1 7280   1.643   3.042   8.586
 2176SOL    HW2 7281   1.552   2.963   8.476
 2177SOL     OW 7282   0.915   1.951   8.850
 2177SOL    HW1 7283   0.940   1.931   8.755
 2177SOL    HW2 7284   0.987   2.007   8.892
 2178SOL     OW 7285   0.980   2.978   9.167
 2178SOL    HW1 7286   0.881   2.984   9.177
 2178SOL    HW2 7287   1.003   2.898   9.111
 2179SOL     OW 7288   0.705   2.912   7.816
 2179SOL    HW1 7289   0.691   2.919   7.915
 2179SOL    HW2 7290   0.789   2.861   7.798
 2180SOL     OW 7291   0.410   2.675   8.699
 2180SOL    HW1 7292   0.496   2.687   8.749
 2180SOL    HW2 7293   0.368   2.588   8.726
 2181SOL     OW 7294   1.274   2.248   8.710
 2181SOL    HW1 7295   1.295   2.322   8.774
 2181SOL    HW2 7296   1.185   2.265   8.667
 2182SOL     OW 7297   0.064   3.426   8.779
 2182SOL    HW1 7298   0.018   3.508   8.745
 2182SOL    HW2 7299   0.162   3.445   8.788
 2183SOL     OW 7300   0.367   2.962   7.949
 2183SOL    HW1 7301   0.360   3.045   7.893
 2183SOL    HW2 7302   0.371   2.882   7.889
 2184SOL     OW 7303   0.566   2.399   8.313
 2184SOL    HW1 7304   0.578   2.465   8.239
 2184SOL    HW2 7305   0.612   2.433   8.396
 2185SOL     OW 7306   1.252   3.210   7.836
 2185SOL    HW1 7307   1.302   3.287   7.876
 2185SOL    HW2 7308   1.157   3.212   7.868
 2186SOL     OW 7309   1.272   3.307   8.590
 2186SOL    HW1 7310   1.319   3.320   8.677
 2186SOL    HW2 7311   1.206   3.233   8.599
 2187SOL     OW 7312   1.582   2.501   7.920
 2187SOL    HW1 7313   1.551   2.562   7.993
 2187SOL    HW2 7314   1.632   2.553   7.851
 2188SOL     OW 7315   0.354   3.372   8.777
 2188SOL    HW1 7316   0.333   3.328   8.690
 2188SOL    HW2 7317   0.451   3.398   8.780
 2189SOL     OW 7318   0.402   2.613   9.046
 2189SOL    HW1 7319   0.470   2.668   8.999
 2189SOL    HW2 7320   0.442   2.525   9.073
 2190SOL     OW 7321   1.587   2.641   9.118
 2190SOL    HW1 7322   1.495   2.679   9.113
 2190SOL    HW2 7323   1.647   2.688   9.053
 2191SOL     OW 7324   1.013   1.967   9.218
 2191SOL    HW1 7325   1.019   2.052   9.166
 2191SOL    HW2 7326   1.045   1.891   9.161
 2192SOL     OW 7327   0.504   1.912   9.188
 2192SOL    HW1 7328   0.462   1.855   9.118
 2192SOL    HW2 7329   0.438   1.981   9.220
 2193SOL     OW 7330   0.573   2.732   8.477
 2193SOL    HW1 7331   0.617   2.821   8.468
 2193SOL    HW2 7332   0.510   2.732   8.554
 2194SOL     OW 7333   1.360   2.724   8.493
 2194SOL    HW1 7334   1.285   2.724   8.427
 2194SOL    HW2 7335   1.397   2.632   8.502
 2195SOL     OW 7336   1.209   2.387   7.723
 2195SOL    HW1 7337   1.222   2.303   7.777
 2195SOL    HW2 7338   1.180   2.461   7.783
 2196SOL     OW 7339   0.307   2.075   8.679
 2196SOL    HW1 7340   0.284   2.112   8.769
 2196SOL    HW2 7341   0.277   1.980   8.673
 2197SOL     OW 7342   0.037   3.172   8.730
 2197SOL    HW1 7343   0.090   3.123   8.798
 2197SOL    HW2 7344   0.059   3.270   8.735
 2198SOL     OW 7345   0.732   2.496   8.512
 2198SOL    HW1 7346   0.791   2.470   8.436
 2198SOL    HW2 7347   0.704   2.592   8.501
 2199SOL     OW 7348   1.728   2.797   9.302
 2199SOL    HW1 7349   1.682   2.790   9.213
 2199SOL    HW2 7350   1.666   2.841   9.368
 2200SOL     OW 7351   0.307   1.925   8.066
 2200SOL    HW1 7352   0.296   2.019   8.099
 2200SOL    HW2 7353   0.302   1.862   8.143
 2201SOL     OW 7354   1.622   2.229   7.822
 2201SOL    HW1 7355   1.624   2.153   7.886
 2201SOL    HW2 7356   1.574   2.306   7.862
 2202SOL     OW 7357   1.023   2.628   8.414
 2202SOL    HW1 7358   1.038   2.649   8.510
 2202SOL    HW2 7359   0.993   2.533   8.405
 2203SOL     OW 7360   0.980   3.435   9.148
 2203SOL    HW1 7361   0.960   3.479   9.060
 2203SOL    HW2 7362   1.019   3.344   9.132
 2204SOL     OW 7363   1.859   3.380   9.053
 2204SOL    HW1 7364   1.873   3.407   8.958
 2204SOL    HW2 7365   1.942   3.402   9.106
 2205SOL     OW 7366   0.350   2.760   9.252
 2205SOL    HW1 7367   0.426   2.804   9.300
 2205SOL    HW2 7368   0.385   2.713   9.170
 2206SOL     OW 7369   1.540   2.136   7.573
 2206SOL    HW1 7370   1.479   2.061   7.596
 2206SOL    HW2 7371   1.562   2.188   7.656
 2207SOL     OW 7372   1.303   2.700   7.490
 2207SOL    HW1 7373   1.337   2.607   7.505
 2207SOL    HW2 7374   1.321   2.727   7.395
 2208SOL     OW 7375   1.068   3.195   8.297
 2208SOL    HW1 7376   1.075   3.111   8.242
 2208SOL    HW2 7377   1.130   3.264   8.261
 2209SOL     OW 7378   0.319   2.672   8.397
 2209SOL    HW1 7379   0.412   2.708   8.402
 2209SOL    HW2 7380   0.313   2.587   8.449
 2210SOL     OW 7381   0.339   2.371   8.454
 2210SOL    HW1 7382   0.287   2.288   8.437
 2210SOL    HW2 7383   0.416   2.376   8.390
 2211SOL     OW 7384   1.138   2.242   9.126
 2211SOL    HW1 7385   1.093   2.305   9.190
 2211SOL    HW2 7386   1.231   2.273   9.109
 2212SOL     OW 7387   1.160   2.069   8.925
 2212SOL    HW1 7388   1.160   2.133   9.002
 2212SOL    HW2 7389   1.188   2.117   8.842
 2213SOL     OW 7390   0.008   3.188   7.648
 2213SOL    HW1 7391  -0.085   3.209   7.617
 2213SOL    HW2 7392   0.018   3.089   7.661
 2214SOL     OW 7393   0.088   3.663   8.375
 2214SOL    HW1 7394   0.046   3.577   8.348
 2214SOL    HW2 7395   0.182   3.666   8.341
 2215SOL     OW 7396   0.504   3.430   8.358
 2215SOL    HW1 7397   0.570   3.504   8.367
 2215SOL    HW2 7398   0.548   3.351   8.316
 2216SOL     OW 7399   1.002   2.658   8.686
 2216SOL    HW1 7400   1.043   2.626   8.772
 2216SOL    HW2 7401   0.906   2.631   8.683
 2217SOL     OW 7402   0.040   2.406   8.562
 2217SOL    HW1 7403   0.125   2.373   8.521
 2217SOL    HW2 7404   0.053   2.421   8.660
 2218SOL     OW 7405   0.189   2.382   9.170
 2218SOL    HW1 7406   0.248   2.342   9.100
 2218SOL    HW2 7407   0.131   2.453   9.129
 2219SOL     OW 7408   1.369   2.812   9.108
 2219SOL    HW1 7409   1.408   2.901   9.128
 2219SOL    HW2 7410   1.379   2.792   9.011
 2220SOL     OW 7411   0.815   2.434   7.773
 2220SOL    HW1 7412   0.822   2.345   7.727
 2220SOL    HW2 7413   0.721   2.468   7.765
 2221SOL     OW 7414   1.657   2.466   8.654
 2221SOL    HW1 7415   1.619   2.397   8.716
 2221SOL    HW2 7416   1.739   2.430   8.610
 2222SOL     OW 7417   0.252   3.426   9.192
 2222SOL    HW1 7418   0.222   3.483   9.268
 2222SOL    HW2 7419   0.245   3.329   9.218
 2223SOL     OW 7420   0.671   2.326   8.717
 2223SOL    HW1 7421   0.637   2.237   8.687
 2223SOL    HW2 7422   0.697   2.380   8.637
 2224SOL     OW 7423   0.930   3.540   8.913
 2224SOL    HW1 7424   0.906   3.522   8.818
 2224SOL    HW2 7425   0.960   3.634   8.923
 2225SOL     OW 7426   0.473   2.362   7.639
 2225SOL    HW1 7427   0.534   2.442   7.643
 2225SOL    HW2 7428   0.378   2.393   7.646
 2226SOL     OW 7429   0.159   2.999   8.914
 2226SOL    HW1 7430   0.181   2.938   8.990
 2226SOL    HW2 7431   0.169   2.950   8.828
 2227SOL     OW 7432   1.347   2.921   8.682
 2227SOL    HW1 7433   1.371   2.858   8.608
 2227SOL    HW2 7434   1.257   2.961   8.664
 2228SOL     OW 7435   1.302   2.717   7.757
 2228SOL    HW1 7436   1.216   2.686   7.799
 2228SOL    HW2 7437   1.298   2.703   7.658
 2229SOL     OW 7438   1.759   3.609   8.602
 2229SOL    HW1 7439   1.820   3.639   8.529
 2229SOL    HW2 7440   1.721   3.520   8.580
 2230SOL     OW 7441   1.252   3.593   8.576
 2230SOL    HW1 7442   1.336   3.598   8.522
 2230SOL    HW2 7443   1.229   3.497   8.594
 2231SOL     OW 7444   0.083   3.120   8.470
 2231SOL    HW1 7445   0.078   3.119   8.570
 2231SOL    HW2 7446   0.000   3.079   8.432
 2232SOL     OW 7447   0.688   3.524   9.164
 2232SOL    HW1 7448   0.632   3.605   9.173
 2232SOL    HW2 7449   0.740   3.528   9.078
 2233SOL     OW 7450   1.726   1.997   7.971
 2233SOL    HW1 7451   1.799   1.980   7.904
 2233SOL    HW2 7452   1.695   1.910   8.009
 2234SOL     OW 7453   1.388   3.435   7.925
 2234SOL    HW1 7454   1.455   3.447   7.851
 2234SOL    HW2 7455   1.348   3.524   7.948
 2235SOL     OW 7456   0.130   3.656   9.299
 2235SOL    HW1 7457   0.089   3.582   9.352
 2235SOL    HW2 7458   0.194   3.707   9.357
 2236SOL     OW 7459   1.280   2.789   8.120
 2236SOL    HW1 7460   1.340   2.708   8.122
 2236SOL    HW2 7461   1.320   2.858   8.060
 2237SOL     OW 7462   0.830   3.135   8.870
 2237SOL    HW1 7463   0.825   3.168   8.965
 2237SOL    HW2 7464   0.744   3.154   8.824
 2238SOL     OW 7465   0.672   3.478   7.602
 2238SOL    HW1 7466   0.681   3.488   7.503
 2238SOL    HW2 7467   0.632   3.389   7.623
 2239SOL     OW 7468   1.650   3.582   8.842
 2239SOL    HW1 7469   1.703   3.592   8.758
 2239SOL    HW2 7470   1.623   3.672   8.876
 2240SOL     OW 7471   1.841   2.037   8.411
 2240SOL    HW1 7472   1.880   1.952   8.375
 2240SOL    HW2 7473   1.743   2.039   8.392
 2241SOL     OW 7474   0.263   2.188   8.168
 2241SOL    HW1 7475   0.184   2.239   8.134
 2241SOL    HW2 7476   0.254   2.173   8.266
 2242SOL     OW 7477   1.194   3.474   7.479
 2242SOL    HW1 7478   1.200   3.381   7.516
 2242SOL    HW2 7479   1.135   3.474   7.399
 2243SOL     OW 7480   0.822   2.864   8.820
 2243SOL    HW1 7481   0.862   2.863   8.728
 2243SOL    HW2 7482   0.832   2.956   8.860
 2244SOL     OW 7483   0.916   2.772   7.739
 2244SOL    HW1 7484   0.979   2.810   7.671
 2244SOL    HW2 7485   0.956   2.689   7.778
 2245SOL     OW 7486   1.504   3.469   7.492
 2245SOL    HW1 7487   1.412   3.506   7.499
 2245SOL    HW2 7488   1.542   3.489   7.402
 2246SOL     OW 7489   0.372   3.150   8.938
 2246SOL    HW1 7490   0.359   3.243   8.904
 2246SOL    HW2 7491   0.288   3.098   8.925
 2247SOL     OW 7492   1.614   3.154   8.737
 2247SOL    HW1 7493   1.674   3.157   8.817
 2247SOL    HW2 7494   1.539   3.218   8.750
 2248SOL     OW 7495   1.039   2.960   8.144
 2248SOL    HW1 7496   0.969   2.913   8.198
 2248SOL    HW2 7497   1.098   2.892   8.101
 2249SOL     OW 7498   1.014   2.098   8.419
 2249SOL    HW1 7499   1.006   2.062   8.326
 2249SOL    HW2 7500   1.012   2.022   8.484
 2250SOL     OW 7501   0.590   3.349   7.939
 2250SOL    HW1 7502   0.632   3.291   7.869
 2250SOL    HW2 7503   0.546   3.428   7.895
 2251SOL     OW 7504   1.709   2.247   8.829
 2251SOL    HW1 7505   1.782   2.316   8.833
 2251SOL    HW2 7506   1.737   2.172   8.770
 2252SOL     OW 7507   0.255   3.210   7.738
 2252SOL    HW1 7508   0.159   3.211   7.711
 2252SOL    HW2 7509   0.267   3.263   7.822
 2253SOL     OW 7510   0.105   2.875   9.174
 2253SOL    HW1 7511   0.028   2.842   9.228
 2253SOL    HW2 7512   0.190   2.845   9.216
 2254SOL     OW 7513   0.672   2.065   8.937
 2254SOL    HW1 7514   0.762   2.049   8.897
 2254SOL    HW2 7515   0.680   2.070   9.036
 2255SOL     OW 7516   0.075   2.207   7.481
 2255SOL    HW1 7517  -0.017   2.179   7.452
 2255SOL    HW2 7518   0.106   2.284   7.425
 2256SOL     OW 7519   1.440   2.718   8.846
 2256SOL    HW1 7520   1.383   2.770   8.783
 2256SOL    HW2 7521   1.536   2.730   8.822
 2257SOL     OW 7522   0.072   2.028   7.766
 2257SOL    HW1 7523   0.055   2.111   7.712
 2257SOL    HW2 7524   0.162   1.991   7.744
 2258SOL     OW 7525   1.183   3.197   7.567
 2258SOL    HW1 7526   1.084   3.186   7.569
 2258SOL    HW2 7527   1.217   3.212   7.660
 2259SOL     OW 7528   0.613   2.704   8.879
 2259SOL    HW1 7529   0.669   2.785   8.862
 2259SOL    HW2 7530   0.672   2.624   8.882
 2260SOL     OW 7531   1.493   3.629   8.407
 2260SOL    HW1 7532   1.526   3.693   8.338
 2260SOL    HW2 7533   1.559   3.623   8.482
 2261SOL     OW 7534   0.716   2.427   9.156
 2261SOL    HW1 7535   0.735   2.492   9.230
 2261SOL    HW2 7536   0.776   2.347   9.165
 2262SOL     OW 7537   1.450   3.082   9.081
 2262SOL    HW1 7538   1.441   3.072   9.180
 2262SOL    HW2 7539   1.546   3.075   9.055
 2263SOL     OW 7540   0.390   3.603   9.008
 2263SOL    HW1 7541   0.299   3.644   9.006
 2263SOL    HW2 7542   0.383   3.509   9.040
 2264SOL     OW 7543   1.674   2.745   8.702
 2264SOL    HW1 7544   1.647   2.656   8.665
 2264SOL    HW2 7545   1.675   2.813   8.629
 2265SOL     OW 7546   1.225   2.187   7.897
 2265SOL    HW1 7547   1.290   2.113   7.886
 2265SOL    HW2 7548   1.245   2.237   7.981
 2266SOL     OW 7549   0.594   2.607   8.100
 2266SOL    HW1 7550   0.644   2.692   8.081
 2266SOL    HW2 7551   0.506   2.609   8.052
 2267SOL     OW 7552   1.777   2.204   9.090
 2267SOL    HW1 7553   1.760   2.235   8.996
 2267SOL    HW2 7554   1.693   2.167   9.128
 2268SOL     OW 7555   1.730   2.796   8.965
 2268SOL    HW1 7556   1.768   2.887   8.980
 2268SOL    HW2 7557   1.722   2.779   8.866
 2269SOL     OW 7558   0.859   3.236   7.464
 2269SOL    HW1 7559   0.813   3.251   7.552
 2269SOL    HW2 7560   0.903   3.321   7.434
 2270SOL     OW 7561   0.661   3.652   8.401
 2270SOL    HW1 7562   0.615   3.740   8.388
 2270SOL    HW2 7563   0.760   3.664   8.394
 2271SOL     OW 7564   0.859   2.818   8.309
 2271SOL    HW1 7565   0.913   2.749   8.357
 2271SOL    HW2 7566   0.827   2.887   8.375
 2272SOL     OW 7567   1.083   2.846   7.535
 2272SOL    HW1 7568   1.060   2.899   7.453
 2272SOL    HW2 7569   1.164   2.790   7.516
 2273SOL     OW 7570   1.861   3.431   8.299
 2273SOL    HW1 7571   1.790   3.419   8.229
 2273SOL    HW2 7572   1.862   3.352   8.359
 2274SOL     OW 7573   0.221   3.176   9.292
 2274SOL    HW1 7574   0.156   3.103   9.271
 2274SOL    HW2 7575   0.225   3.190   9.390
 2275SOL     OW 7576   0.079   3.102   8.101
 2275SOL    HW1 7577   0.078   3.055   8.189
 2275SOL    HW2 7578   0.161   3.074   8.050
 2276SOL     OW 7579   0.672   3.253   9.072
 2276SOL    HW1 7580   0.594   3.203   9.110
 2276SOL    HW2 7581   0.669   3.348   9.103
 2277SOL     OW 7582   1.824   2.054   8.675
 2277SOL    HW1 7583   1.820   1.964   8.719
 2277SOL    HW2 7584   1.827   2.043   8.576
 2278SOL     OW 7585   0.428   2.286   7.968
 2278SOL    HW1 7586   0.458   2.214   7.906
 2278SOL    HW2 7587   0.389   2.246   8.051
 2279SOL     OW 7588   1.705   3.349   8.552
 2279SOL    HW1 7589   1.612   3.324   8.525
 2279SOL    HW2 7590   1.731   3.299   8.634
 2280SOL     OW 7591   0.317   2.409   8.728
 2280SOL    HW1 7592   0.355   2.350   8.800
 2280SOL    HW2 7593   0.357   2.383   8.640
 2281SOL     OW 7594   0.812   3.448   8.135
 2281SOL    HW1 7595   0.844   3.458   8.041
 2281SOL    HW2 7596   0.733   3.386   8.137
 2282SOL     OW 7597   1.424   2.076   8.560
 2282SOL    HW1 7598   1.476   2.011   8.615
 2282SOL    HW2 7599   1.375   2.139   8.621
 2283SOL     OW 7600   1.001   1.896   8.602
 2283SOL    HW1 7601   0.938   1.824   8.571
 2283SOL    HW2 7602   1.094   1.860   8.602
 2284SOL     OW 7603   0.770   3.192   7.749
 2284SOL    HW1 7604   0.724   3.105   7.766
 2284SOL    HW2 7605   0.861   3.189   7.790
 2285SOL     OW 7606   0.618   3.429   8.732
 2285SOL    HW1 7607   0.613   3.511   8.789
 2285SOL    HW2 7608   0.707   3.426   8.687
 2286SOL     OW 7609   1.352   1.914   7.616
 2286SOL    HW1 7610   1.387   1.873   7.532
 2286SOL    HW2 7611   1.262   1.876   7.636
 2287SOL     OW 7612   1.300   2.315   8.139
 2287SOL    HW1 7613   1.241   2.395   8.143
 2287SOL    HW2 7614   1.315   2.280   8.232
 2288SOL     OW 7615   1.593   2.083   8.330
 2288SOL    HW1 7616   1.509   2.082   8.384
 2288SOL    HW2 7617   1.595   2.166   8.274
 2289SOL     OW 7618   0.039   2.939   7.748
 2289SOL    HW1 7619   0.138   2.928   7.739
 2289SOL    HW2 7620  -0.001   2.853   7.780
 2290SOL     OW 7621   0.875   3.508   7.785
 2290SOL    HW1 7622   0.798   3.473   7.731
 2290SOL    HW2 7623   0.843   3.579   7.847
 2291SOL     OW 7624   0.230   2.490   9.423
 2291SOL    HW1 7625   0.137   2.488   9.460
 2291SOL    HW2 7626   0.231   2.451   9.331
 2292SOL     OW 7627   0.225   2.137  10.306
 2292SOL    HW1 7628   0.260   2.120  10.398
 2292SOL    HW2 7629   0.137   2.092  10.294
 2293SOL     OW 7630   0.019   2.230   9.957
 2293SOL    HW1 7631  -0.063   2.273   9.996
 2293SOL    HW2 7632  -0.009   2.157   9.894
 2294SOL     OW 7633   0.569   3.137  10.475
 2294SOL    HW1 7634   0.476   3.130  10.438
 2294SOL    HW2 7635   0.580   3.226  10.519
 2295SOL     OW 7636   1.555   3.373  10.013
 2295SOL    HW1 7637   1.498   3.357  10.094
 2295SOL    HW2 7638   1.496   3.383   9.933
 2296SOL     OW 7639   1.135   2.565  10.027
 2296SOL    HW1 7640   1.192   2.643  10.002
 2296SOL    HW2 7641   1.075   2.591  10.103
 2297SOL     OW 7642   1.755   2.469   9.541
 2297SOL    HW1 7643   1.743   2.456   9.442
 2297SOL    HW2 7644   1.725   2.388   9.590
 2298SOL     OW 7645   0.768   3.006  10.333
 2298SOL    HW1 7646   0.690   3.023  10.393
 2298SOL    HW2 7647   0.802   3.093  10.297
 2299SOL     OW 7648   0.850   2.660  11.133
 2299SOL    HW1 7649   0.846   2.736  11.198
 2299SOL    HW2 7650   0.872   2.696  11.042
 2300SOL     OW 7651   0.685   2.874   9.975
 2300SOL    HW1 7652   0.754   2.858  10.045
 2300SOL    HW2 7653   0.612   2.931  10.013
 2301SOL     OW 7654   0.335   3.297  10.371
 2301SOL    HW1 7655   0.257   3.266  10.318
 2301SOL    HW2 7656   0.393   3.355  10.314
 2302SOL     OW 7657   1.460   3.367  10.649
 2302SOL    HW1 7658   1.484   3.461  10.675
 2302SOL    HW2 7659   1.444   3.313  10.731
 2303SOL     OW 7660   0.438   2.254  10.809
 2303SOL    HW1 7661   0.520   2.198  10.818
 2303SOL    HW2 7662   0.357   2.196  10.813
 2304SOL     OW 7663   1.603   2.309  10.047
 2304SOL    HW1 7664   1.529   2.355   9.997
 2304SOL    HW2 7665   1.654   2.377  10.100
 2305SOL     OW 7666   0.231   3.575   9.793
 2305SOL    HW1 7667   0.265   3.652   9.847
 2305SOL    HW2 7668   0.275   3.575   9.703
 2306SOL     OW 7669   0.230   3.296   9.848
 2306SOL    HW1 7670   0.204   3.392   9.848
 2306SOL    HW2 7671   0.159   3.242   9.893
 2307SOL     OW 7672   0.240   2.953  10.196
 2307SOL    HW1 7673   0.254   2.869  10.248
 2307SOL    HW2 7674   0.185   3.017  10.251
 2308SOL     OW 7675   0.620   3.648  10.749
 2308SOL    HW1 7676   0.528   3.631  10.784
 2308SOL    HW2 7677   0.648   3.740  10.775
 2309SOL     OW 7678   0.606   2.826   9.433
 2309SOL    HW1 7679   0.613   2.910   9.379
 2309SOL    HW2 7680   0.652   2.839   9.521
 2310SOL     OW 7681   1.594   1.976  10.790
 2310SOL    HW1 7682   1.576   2.043  10.718
 2310SOL    HW2 7683   1.591   2.022  10.879
 2311SOL     OW 7684   0.122   2.505   9.873
 2311SOL    HW1 7685   0.077   2.417   9.890
 2311SOL    HW2 7686   0.121   2.559   9.957
 2312SOL     OW 7687   1.842   3.629   9.669
 2312SOL    HW1 7688   1.896   3.600   9.749
 2312SOL    HW2 7689   1.872   3.719   9.640
 2313SOL     OW 7690   0.027   3.458   9.427
 2313SOL    HW1 7691   0.008   3.362   9.448
 2313SOL    HW2 7692  -0.006   3.516   9.502
 2314SOL     OW 7693   1.689   2.784   9.922
 2314SOL    HW1 7694   1.784   2.755   9.930
 2314SOL    HW2 7695   1.681   2.849   9.847
 2315SOL     OW 7696   1.641   2.970   9.742
 2315SOL    HW1 7697   1.727   2.972   9.690
 2315SOL    HW2 7698   1.655   3.017   9.830
 2316SOL     OW 7699   0.113   2.599  10.907
 2316SOL    HW1 7700   0.201   2.586  10.952
 2316SOL    HW2 7701   0.100   2.696  10.885
 2317SOL     OW 7702   0.613   3.227  10.036
 2317SOL    HW1 7703   0.564   3.140  10.045
 2317SOL    HW2 7704   0.590   3.270   9.949
 2318SOL     OW 7705   1.293   3.090  10.733
 2318SOL    HW1 7706   1.330   3.017  10.675
 2318SOL    HW2 7707   1.345   3.095  10.818
 2319SOL     OW 7708   0.809   1.866   9.812
 2319SOL    HW1 7709   0.849   1.957   9.803
 2319SOL    HW2 7710   0.709   1.874   9.818
 2320SOL     OW 7711   0.197   2.838  10.574
 2320SOL    HW1 7712   0.286   2.793  10.560
 2320SOL    HW2 7713   0.124   2.773  10.555
 2321SOL     OW 7714   1.525   2.861   9.500
 2321SOL    HW1 7715   1.462   2.785   9.513
 2321SOL    HW2 7716   1.573   2.879   9.586
 2322SOL     OW 7717   1.187   3.654  10.926
 2322SOL    HW1 7718   1.211   3.714  10.850
 2322SOL    HW2 7719   1.194   3.559  10.896
 2323SOL     OW 7720   0.317   2.113  11.111
 2323SOL    HW1 7721   0.388   2.184  11.117
 2323SOL    HW2 7722   0.229   2.152  11.139
 2324SOL     OW 7723   1.466   3.279  10.263
 2324SOL    HW1 7724   1.407   3.285  10.343
 2324SOL    HW2 7725   1.451   3.191  10.217
 2325SOL     OW 7726   1.667   3.576   9.882
 2325SOL    HW1 7727   1.626   3.553   9.794
 2325SOL    HW2 7728   1.649   3.502   9.947
 2326SOL     OW 7729   0.598   2.591   9.580
 2326SOL    HW1 7730   0.622   2.660   9.512
 2326SOL    HW2 7731   0.520   2.624   9.634
 2327SOL     OW 7732   1.281   2.207  10.254
 2327SOL    HW1 7733   1.195   2.157  10.241
 2327SOL    HW2 7734   1.343   2.153  10.310
 2328SOL     OW 7735   1.576   3.524   9.617
 2328SOL    HW1 7736   1.665   3.570   9.620
 2328SOL    HW2 7737   1.555   3.500   9.522
 2329SOL     OW 7738   0.807   2.467  10.775
 2329SOL    HW1 7739   0.760   2.464  10.864
 2329SOL    HW2 7740   0.756   2.412  10.709
 2330SOL     OW 7741   0.973   2.752  10.882
 2330SOL    HW1 7742   1.019   2.668  10.853
 2330SOL    HW2 7743   0.917   2.786  10.807
 2331SOL     OW 7744   0.991   2.272  10.552
 2331SOL    HW1 7745   0.914   2.306  10.606
 2331SOL    HW2 7746   0.957   2.221  10.473
 2332SOL     OW 7747   1.041   2.563   9.739
 2332SOL    HW1 7748   1.067   2.559   9.835
 2332SOL    HW2 7749   0.956   2.512   9.725
 2333SOL     OW 7750   0.076   2.673  10.099
 2333SOL    HW1 7751   0.175   2.661  10.108
 2333SOL    HW2 7752   0.052   2.768  10.120
 2334SOL     OW 7753   0.130   3.683  10.881
 2334SOL    HW1 7754   0.120   3.668  10.980
 2334SOL    HW2 7755   0.044   3.719  10.845
 2335SOL     OW 7756   0.865   2.210   9.505
 2335SOL    HW1 7757   0.924   2.273   9.456
 2335SOL    HW2 7758   0.884   2.116   9.476
 2336SOL     OW 7759   1.362   3.006   9.855
 2336SOL    HW1 7760   1.445   2.977   9.807
 2336SOL    HW2 7761   1.313   3.073   9.799
 2337SOL     OW 7762   0.550   2.058  10.195
 2337SOL    HW1 7763   0.545   2.053  10.295
 2337SOL    HW2 7764   0.552   2.154  10.166
 2338SOL     OW 7765   1.008   3.318   9.787
 2338SOL    HW1 7766   0.962   3.390   9.735
 2338SOL    HW2 7767   1.004   3.338   9.885
 2339SOL     OW 7768   0.351   3.663  10.163
 2339SOL    HW1 7769   0.401   3.577  10.169
 2339SOL    HW2 7770   0.416   3.740  10.160
 2340SOL     OW 7771   1.795   2.928  10.183
 2340SOL    HW1 7772   1.733   2.913  10.107
 2340SOL    HW2 7773   1.743   2.939  10.268
 2341SOL     OW 7774   1.227   3.412  10.816
 2341SOL    HW1 7775   1.233   3.335  10.880
 2341SOL    HW2 7776   1.175   3.386  10.736
 2342SOL     OW 7777   0.321   2.805   9.552
 2342SOL    HW1 7778   0.403   2.844   9.510
 2342SOL    HW2 7779   0.294   2.723   9.503
 2343SOL     OW 7780   1.458   2.597  10.038
 2343SOL    HW1 7781   1.453   2.532  10.113
 2343SOL    HW2 7782   1.538   2.656  10.051
 2344SOL     OW 7783   0.461   3.128  11.037
 2344SOL    HW1 7784   0.411   3.129  10.951
 2344SOL    HW2 7785   0.398   3.110  11.113
 2345SOL     OW 7786   1.111   3.638   9.547
 2345SOL    HW1 7787   1.051   3.576   9.597
 2345SOL    HW2 7788   1.142   3.594   9.462
 2346SOL     OW 7789   0.202   2.147  10.808
 2346SOL    HW1 7790   0.122   2.207  10.795
 2346SOL    HW2 7791   0.192   2.098  10.894
 2347SOL     OW 7792   1.632   3.239   9.391
 2347SOL    HW1 7793   1.600   3.333   9.381
 2347SOL    HW2 7794   1.556   3.176   9.379
 2348SOL     OW 7795   0.464   3.605   9.633
 2348SOL    HW1 7796   0.497   3.644   9.719
 2348SOL    HW2 7797   0.540   3.598   9.568
 2349SOL     OW 7798   1.400   1.969   9.736
 2349SOL    HW1 7799   1.376   1.932   9.646
 2349SOL    HW2 7800   1.499   1.985   9.740
 2350SOL     OW 7801   0.249   3.647  10.551
 2350SOL    HW1 7802   0.306   3.582  10.601
 2350SOL    HW2 7803   0.233   3.614  10.458
 2351SOL     OW 7804   0.940   3.560  10.214
 2351SOL    HW1 7805   1.020   3.503  10.235
 2351SOL    HW2 7806   0.891   3.520  10.137
 2352SOL     OW 7807   0.382   2.562   9.790
 2352SOL    HW1 7808   0.427   2.472   9.787
 2352SOL    HW2 7809   0.288   2.551   9.823
 2353SOL     OW 7810   0.614   1.984   9.427
 2353SOL    HW1 7811   0.712   1.962   9.434
 2353SOL    HW2 7812   0.583   1.967   9.334
 2354SOL     OW 7813   0.781   2.126  11.059
 2354SOL    HW1 7814   0.848   2.065  11.102
 2354SOL    HW2 7815   0.708   2.145  11.124
 2355SOL     OW 7816   0.888   3.376  10.505
 2355SOL    HW1 7817   0.865   3.351  10.411
 2355SOL    HW2 7818   0.949   3.307  10.544
 2356SOL     OW 7819   1.351   2.452  10.743
 2356SOL    HW1 7820   1.379   2.409  10.828
 2356SOL    HW2 7821   1.376   2.548  10.744
 2357SOL     OW 7822   0.803   3.264  10.234
 2357SOL    HW1 7823   0.893   3.278  10.192
 2357SOL    HW2 7824   0.732   3.266  10.163
 2358SOL     OW 7825   0.922   2.365  10.209
 2358SOL    HW1 7826   0.897   2.356  10.113
 2358SOL    HW2 7827   0.970   2.283  10.240
 2359SOL     OW 7828   0.539   1.926   9.822
 2359SOL    HW1 7829   0.458   1.927   9.880
 2359SOL    HW2 7830   0.542   2.009   9.767
 2360SOL     OW 7831   1.434   3.050   9.351
 2360SOL    HW1 7832   1.466   2.974   9.408
 2360SOL    HW2 7833   1.342   3.077   9.381
 2361SOL     OW 7834   0.297   1.897   9.481
 2361SOL    HW1 7835   0.346   1.981   9.460
 2361SOL    HW2 7836   0.359   1.832   9.526
 2362SOL     OW 7837   0.935   2.098   9.790
 2362SOL    HW1 7838   0.887   2.139   9.712
 2362SOL    HW2 7839   1.034   2.096   9.771
 2363SOL     OW 7840   1.076   2.545  10.774
 2363SOL    HW1 7841   0.996   2.484  10.777
 2363SOL    HW2 7842   1.157   2.492  10.750
 2364SOL     OW 7843   1.227   3.432  10.103
 2364SOL    HW1 7844   1.248   3.506  10.038
 2364SOL    HW2 7845   1.295   3.432  10.176
 2365SOL     OW 7846   0.459   3.014  10.051
 2365SOL    HW1 7847   0.388   2.987  10.116
 2365SOL    HW2 7848   0.433   2.986   9.958
 2366SOL     OW 7849   1.271   3.659   9.901
 2366SOL    HW1 7850   1.315   3.723   9.837
 2366SOL    HW2 7851   1.221   3.711   9.971
 2367SOL     OW 7852   1.032   2.411   9.326
 2367SOL    HW1 7853   0.991   2.493   9.287
 2367SOL    HW2 7854   1.096   2.437   9.399
 2368SOL     OW 7855   0.078   2.418  10.696
 2368SOL    HW1 7856   0.170   2.417  10.655
 2368SOL    HW2 7857   0.072   2.492  10.763
 2369SOL     OW 7858   0.561   2.084  10.457
 2369SOL    HW1 7859   0.599   2.000  10.494
 2369SOL    HW2 7860   0.473   2.103  10.501
 2370SOL     OW 7861   0.866   2.316   9.952
 2370SOL    HW1 7862   0.834   2.388   9.890
 2370SOL    HW2 7863   0.890   2.235   9.899
 2371SOL     OW 7864   1.017   1.901  10.063
 2371SOL    HW1 7865   0.945   1.906   9.994
 2371SOL    HW2 7866   0.993   1.832  10.132
 2372SOL     OW 7867   1.429   3.035  10.177
 2372SOL    HW1 7868   1.374   2.951  10.170
 2372SOL    HW2 7869   1.455   3.064  10.085
 2373SOL     OW 7870   1.466   2.452  10.302
 2373SOL    HW1 7871   1.436   2.357  10.309
 2373SOL    HW2 7872   1.539   2.468  10.368
 2374SOL     OW 7873   1.857   2.695   9.687
 2374SOL    HW1 7874   1.899   2.631   9.751
 2374SOL    HW2 7875   1.819   2.644   9.609
 2375SOL     OW 7876   0.488   3.247   9.484
 2375SOL    HW1 7877   0.401   3.232   9.531
 2375SOL    HW2 7878   0.471   3.273   9.389
 2376SOL     OW 7879   1.664   3.142   9.967
 2376SOL    HW1 7880   1.763   3.150   9.981
 2376SOL    HW2 7881   1.619   3.226   9.998
 2377SOL     OW 7882   1.390   2.437   9.388
 2377SOL    HW1 7883   1.336   2.416   9.469
 2377SOL    HW2 7884   1.481   2.396   9.397
 2378SOL     OW 7885   0.527   2.118   9.638
 2378SOL    HW1 7886   0.554   2.059   9.563
 2378SOL    HW2 7887   0.527   2.213   9.607
 2379SOL     OW 7888   1.754   3.085  10.898
 2379SOL    HW1 7889   1.845   3.046  10.885
 2379SOL    HW2 7890   1.762   3.181  10.922
 2380SOL     OW 7891   1.064   3.209  10.650
 2380SOL    HW1 7892   0.984   3.186  10.705
 2380SOL    HW2 7893   1.147   3.183  10.699
 2381SOL     OW 7894   1.111   3.057  10.410
 2381SOL    HW1 7895   1.071   3.101  10.491
 2381SOL    HW2 7896   1.070   3.094  10.327
 2382SOL     OW 7897   1.638   2.961  10.389
 2382SOL    HW1 7898   1.643   3.042  10.448
 2382SOL    HW2 7899   1.552   2.963  10.338
 2383SOL     OW 7900   0.915   1.951  10.712
 2383SOL    HW1 7901   0.940   1.931  10.617
 2383SOL    HW2 7902   0.987   2.007  10.754
 2384SOL     OW 7903   0.705   2.912   9.678
 2384SOL    HW1 7904   0.691   2.919   9.777
 2384SOL    HW2 7905   0.789   2.861   9.660
 2385SOL     OW 7906   0.410   2.675  10.561
 2385SOL    HW1 7907   0.496   2.687  10.611
 2385SOL    HW2 7908   0.368   2.588  10.588
 2386SOL     OW 7909   1.274   2.248  10.572
 2386SOL    HW1 7910   1.295   2.322  10.636
 2386SOL    HW2 7911   1.185   2.265  10.529
 2387SOL     OW 7912   0.064   3.426  10.641
 2387SOL    HW1 7913   0.018   3.508  10.607
 2387SOL    HW2 7914   0.162   3.445  10.650
 2388SOL     OW 7915   0.367   2.962   9.811
 2388SOL    HW1 7916   0.360   3.045   9.755
 2388SOL    HW2 7917   0.371   2.882   9.751
 2389SOL     OW 7918   0.566   2.399  10.175
 2389SOL    HW1 7919   0.578   2.465  10.101
 2389SOL    HW2 7920   0.612   2.433  10.258
 2390SOL     OW 7921   1.252   3.210   9.698
 2390SOL    HW1 7922   1.302   3.287   9.738
 2390SOL    HW2 7923   1.157   3.212   9.730
 2391SOL     OW 7924   1.272   3.307  10.452
 2391SOL    HW1 7925   1.319   3.320  10.539
 2391SOL    HW2 7926   1.206   3.233  10.461
 2392SOL     OW 7927   1.582   2.501   9.782
 2392SOL    HW1 7928   1.551   2.562   9.855
 2392SOL    HW2 7929   1.632   2.553   9.713
 2393SOL     OW 7930   0.354   3.372  10.639
 2393SOL    HW1 7931   0.333   3.328  10.552
 2393SOL    HW2 7932   0.451   3.398  10.642
 2394SOL     OW 7933   0.402   2.613  10.908
 2394SOL    HW1 7934   0.470   2.668  10.861
 2394SOL    HW2 7935   0.442   2.525  10.935
 2395SOL     OW 7936   1.587   2.641  10.980
 2395SOL    HW1 7937   1.495   2.679  10.975
 2395SOL    HW2 7938   1.647   2.688  10.915
 2396SOL     OW 7939   0.573   2.732  10.339
 2396SOL    HW1 7940   0.617   2.821  10.330
 2396SOL    HW2 7941   0.510   2.732  10.416
 2397SOL     OW 7942   1.360   2.724  10.355
 2397SOL    HW1 7943   1.285   2.724  10.289
 2397SOL    HW2 7944   1.397   2.632  10.364
 2398SOL     OW 7945   1.209   2.387   9.585
 2398SOL    HW1 7946   1.222   2.303   9.639
 2398SOL    HW2 7947   1.180   2.461   9.645
 2399SOL     OW 7948   0.307   2.075  10.541
 2399SOL    HW1 7949   0.284   2.112  10.631
 2399SOL    HW2 7950   0.277   1.980  10.535
 2400SOL     OW 7951   0.037   3.172  10.592
 2400SOL    HW1 7952   0.090   3.123  10.660
 2400SOL    HW2 7953   0.059   3.270  10.597
 2401SOL     OW 7954   0.732   2.496  10.374
 2401SOL    HW1 7955   0.791   2.470  10.298
 2401SOL    HW2 7956   0.704   2.592  10.363
 2402SOL     OW 7957   0.307   1.925   9.928
 2402SOL    HW1 7958   0.296   2.019   9.961
 2402SOL    HW2 7959   0.302   1.862  10.005
 2403SOL     OW 7960   1.622   2.229   9.684
 2403SOL    HW1 7961   1.624   2.153   9.748
 2403SOL    HW2 7962   1.574   2.306   9.724
 2404SOL     OW 7963   1.023   2.628  10.276
 2404SOL    HW1 7964   1.038   2.649  10.372
 2404SOL    HW2 7965   0.993   2.533  10.267
 2405SOL     OW 7966   0.980   3.435  11.010
 2405SOL    HW1 7967   0.960   3.479  10.922
 2405SOL    HW2 7968   1.019   3.344  10.994
 2406SOL     OW 7969   1.859   3.380  10.915
 2406SOL    HW1 7970   1.873   3.407  10.820
 2406SOL    HW2 7971   1.942   3.402  10.968
 2407SOL     OW 7972   0.350   2.760  11.114
 2407SOL    HW1 7973   0.426   2.804  11.162
 2407SOL    HW2 7974   0.385   2.713  11.032
 2408SOL     OW 7975   1.540   2.136   9.435
 2408SOL    HW1 7976   1.479   2.061   9.458
 2408SOL    HW2 7977   1.562   2.188   9.518
 2409SOL     OW 7978   1.303   2.700   9.352
 2409SOL    HW1 7979   1.337   2.607   9.367
 2409SOL    HW2 7980   1.321   2.727   9.257
 2410SOL     OW 7981   1.068   3.195  10.159
 2410SOL    HW1 7982   1.075   3.111  10.104
 2410SOL    HW2 7983   1.130   3.264  10.123
 2411SOL     OW 7984   0.319   2.672  10.259
 2411SOL    HW1 7985   0.412   2.708  10.264
 2411SOL    HW2 7986   0.313   2.587  10.311
 2412SOL     OW 7987   0.339   2.371  10.316
 2412SOL    HW1 7988   0.287   2.288  10.299
 2412SOL    HW2 7989   0.416   2.376  10.252
 2413SOL     OW 7990   1.160   2.069  10.787
 2413SOL    HW1 7991   1.160   2.133  10.864
 2413SOL    HW2 7992   1.188   2.117  10.704
 2414SOL     OW 7993   0.008   3.188   9.510
 2414SOL    HW1 7994  -0.085   3.209   9.479
 2414SOL    HW2 7995   0.018   3.089   9.523
 2415SOL     OW 7996   0.088   3.663  10.237
 2415SOL    HW1 7997   0.046   3.577  10.210
 2415SOL    HW2 7998   0.182   3.666  10.203
 2416SOL     OW 7999   0.504   3.430  10.220
 2416SOL    HW1 8000   0.570   3.504  10.229
 2416SOL    HW2 8001   0.548   3.351  10.178
 2417SOL     OW 8002   1.002   2.658  10.548
 2417SOL    HW1 8003   1.043   2.626  10.634
 2417SOL    HW2 8004   0.906   2.631  10.545
 2418SOL     OW 8005   0.040   2.406  10.424
 2418SOL    HW1 8006   0.125   2.373  10.383
 2418SOL    HW2 8007   0.053   2.421  10.522
 2419SOL     OW 8008   0.815   2.434   9.635
 2419SOL    HW1 8009   0.822   2.345   9.589
 2419SOL    HW2 8010   0.721   2.468   9.627
 2420SOL     OW 8011   1.657   2.466  10.516
 2420SOL    HW1 8012   1.619   2.397  10.578
 2420SOL    HW2 8013   1.739   2.430  10.472
 2421SOL     OW 8014   0.252   3.426  11.054
 2421SOL    HW1 8015   0.222   3.483  11.130
 2421SOL    HW2 8016   0.245   3.329  11.080
 2422SOL     OW 8017   0.671   2.326  10.579
 2422SOL    HW1 8018   0.637   2.237  10.549
 2422SOL    HW2 8019   0.697   2.380  10.499
 2423SOL     OW 8020   0.930   3.540  10.775
 2423SOL    HW1 8021   0.906   3.522  10.680
 2423SOL    HW2 8022   0.960   3.634  10.785
 2424SOL     OW 8023   0.473   2.362   9.501
 2424SOL    HW1 8024   0.534   2.442   9.505
 2424SOL    HW2 8025   0.378   2.393   9.508
 2425SOL     OW 8026   0.159   2.999  10.776
 2425SOL    HW1 8027   0.181   2.938  10.852
 2425SOL    HW2 8028   0.169   2.950  10.690
 2426SOL     OW 8029   1.347   2.921  10.544
 2426SOL    HW1 8030   1.371   2.858  10.470
 2426SOL    HW2 8031   1.257   2.961  10.526
 2427SOL     OW 8032   1.302   2.717   9.619
 2427SOL    HW1 8033   1.216   2.686   9.661
 2427SOL    HW2 8034   1.298   2.703   9.520
 2428SOL     OW 8035   1.759   3.609  10.464
 2428SOL    HW1 8036   1.820   3.639  10.391
 2428SOL    HW2 8037   1.721   3.520  10.442
 2429SOL     OW 8038   1.252   3.593  10.438
 2429SOL    HW1 8039   1.336   3.598  10.384
 2429SOL    HW2 8040   1.229   3.497  10.456
 2430SOL     OW 8041   0.083   3.120  10.332
 2430SOL    HW1 8042   0.078   3.119  10.432
 2430SOL    HW2 8043   0.000   3.079  10.294
 2431SOL     OW 8044   1.726   1.997   9.833
 2431SOL    HW1 8045   1.799   1.980   9.766
 2431SOL    HW2 8046   1.695   1.910   9.871
 2432SOL     OW 8047   1.388   3.435   9.787
 2432SOL    HW1 8048   1.455   3.447   9.713
 2432SOL    HW2 8049   1.348   3.524   9.810
 2433SOL     OW 8050   1.280   2.789   9.982
 2433SOL    HW1 8051   1.340   2.708   9.984
 2433SOL    HW2 8052   1.320   2.858   9.922
 2434SOL     OW 8053   0.830   3.135  10.732
 2434SOL    HW1 8054   0.825   3.168  10.827
 2434SOL    HW2 8055   0.744   3.154  10.686
 2435SOL     OW 8056   0.672   3.478   9.464
 2435SOL    HW1 8057   0.681   3.488   9.365
 2435SOL    HW2 8058   0.632   3.389   9.485
 2436SOL     OW 8059   1.650   3.582  10.704
 2436SOL    HW1 8060   1.703   3.592  10.620
 2436SOL    HW2 8061   1.623   3.672  10.738
 2437SOL     OW 8062   1.841   2.037  10.273
 2437SOL    HW1 8063   1.880   1.952  10.237
 2437SOL    HW2 8064   1.743   2.039  10.254
 2438SOL     OW 8065   0.263   2.188  10.030
 2438SOL    HW1 8066   0.184   2.239   9.996
 2438SOL    HW2 8067   0.254   2.173  10.128
 2439SOL     OW 8068   1.194   3.474   9.341
 2439SOL    HW1 8069   1.200   3.381   9.378
 2439SOL    HW2 8070   1.135   3.474   9.261
 2440SOL     OW 8071   0.822   2.864  10.682
 2440SOL    HW1 8072   0.862   2.863  10.590
 2440SOL    HW2 8073   0.832   2.956  10.722
 2441SOL     OW 8074   0.916   2.772   9.601
 2441SOL    HW1 8075   0.979   2.810   9.533
 2441SOL    HW2 8076   0.956   2.689   9.640
 2442SOL     OW 8077   1.504   3.469   9.354
 2442SOL    HW1 8078   1.412   3.506   9.361
 2442SOL    HW2 8079   1.542   3.489   9.264
 2443SOL     OW 8080   0.372   3.150  10.800
 2443SOL    HW1 8081   0.359   3.243  10.766
 2443SOL    HW2 8082   0.288   3.098  10.787
 2444SOL     OW 8083   1.614   3.154  10.599
 2444SOL    HW1 8084   1.674   3.157  10.679
 2444SOL    HW2 8085   1.539   3.218  10.612
 2445SOL     OW 8086   1.039   2.960  10.006
 2445SOL    HW1 8087   0.969   2.913  10.060
 2445SOL    HW2 8088   1.098   2.892   9.963
 2446SOL     OW 8089   1.014   2.098  10.281
 2446SOL    HW1 8090   1.006   2.062  10.188
 2446SOL    HW2 8091   1.012   2.022  10.346
 2447SOL     OW 8092   0.590   3.349   9.801
 2447SOL    HW1 8093   0.632   3.291   9.731
 2447SOL    HW2 8094   0.546   3.428   9.757
 2448SOL     OW 8095   1.709   2.247  10.691
 2448SOL    HW1 8096   1.782   2.316  10.695
 2448SOL    HW2 8097   1.737   2.172  10.632
 2449SOL     OW 8098   0.255   3.210   9.600
 2449SOL    HW1 8099   0.159   3.211   9.573
 2449SOL    HW2 8100   0.267   3.263   9.684
 2450SOL     OW 8101   0.105   2.875  11.036
 2450SOL    HW1 8102   0.028   2.842  11.090
 2450SOL    HW2 8103   0.190   2.845  11.078
 2451SOL     OW 8104   0.672   2.065  10.799
 2451SOL    HW1 8105   0.762   2.049  10.759
 2451SOL    HW2 8106   0.680   2.070  10.898
 2452SOL     OW 8107   0.075   2.207   9.343
 2452SOL    HW1 8108  -0.017   2.179   9.314
 2452SOL    HW2 8109   0.106   2.284   9.287
 2453SOL     OW 8110   1.440   2.718  10.708
 2453SOL    HW1 8111   1.383   2.770  10.645
 2453SOL    HW2 8112   1.536   2.730  10.684
 2454SOL     OW 8113   0.072   2.028   9.628
 2454SOL    HW1 8114   0.055   2.111   9.574
 2454SOL    HW2 8115   0.162   1.991   9.606
 2455SOL     OW 8116   1.183   3.197   9.429
 2455SOL    HW1 8117   1.084   3.186   9.431
 2455SOL    HW2 8118   1.217   3.212   9.522
 2456SOL     OW 8119   0.613   2.704  10.741
 2456SOL    HW1 8120   0.669   2.785  10.724
 2456SOL    HW2 8121   0.672   2.624  10.744
 2457SOL     OW 8122   1.493   3.629  10.269
 2457SOL    HW1 8123   1.526   3.693  10.200
 2457SOL    HW2 8124   1.559   3.623  10.344
 2458SOL     OW 8125   0.716   2.427  11.018
 2458SOL    HW1 8126   0.735   2.492  11.092
 2458SOL    HW2 8127   0.776   2.347  11.027
 2459SOL     OW 8128   0.390   3.603  10.870
 2459SOL    HW1 8129   0.299   3.644  10.868
 2459SOL    HW2 8130   0.383   3.509  10.902
 2460SOL     OW 8131   1.674   2.745  10.564
 2460SOL    HW1 8132   1.647   2.656  10.527
 2460SOL    HW2 8133   1.675   2.813  10.491
 2461SOL     OW 8134   1.225   2.187   9.759
 2461SOL    HW1 8135   1.290   2.113   9.748
 2461SOL    HW2 8136   1.245   2.237   9.843
 2462SOL     OW 8137   0.594   2.607   9.962
 2462SOL    HW1 8138   0.644   2.692   9.943
 2462SOL    HW2 8139   0.506   2.609   9.914
 2463SOL     OW 8140   1.777   2.204  10.952
 2463SOL    HW1 8141   1.760   2.235  10.858
 2463SOL    HW2 8142   1.693   2.167  10.990
 2464SOL     OW 8143   1.730   2.796  10.827
 2464SOL    HW1 8144   1.768   2.887  10.842
 2464SOL    HW2 8145   1.722   2.779  10.728
 2465SOL     OW 8146   0.859   3.236   9.326
 2465SOL    HW1 8147   0.813   3.251   9.414
 2465SOL    HW2 8148   0.903   3.321   9.296
 2466SOL     OW 8149   0.661   3.652  10.263
 2466SOL    HW1 8150   0.615   3.740  10.250
 2466SOL    HW2 8151   0.760   3.664  10.256
 2467SOL     OW 8152   0.859   2.818  10.171
 2467SOL    HW1 8153   0.913   2.749  10.219
 2467SOL    HW2 8154   0.827   2.887  10.237
 2468SOL     OW 8155   1.083   2.846   9.397
 2468SOL    HW1 8156   1.060   2.899   9.315
 2468SOL    HW2 8157   1.164   2.790   9.378
 2469SOL     OW 8158   1.861   3.431  10.161
 2469SOL    HW1 8159   1.790   3.419  10.091
 2469SOL    HW2 8160   1.862   3.352  10.221
 2470SOL     OW 8161   0.079   3.102   9.963
 2470SOL    HW1 8162   0.078   3.055  10.051
 2470SOL    HW2 8163   0.161   3.074   9.912
 2471SOL     OW 8164   0.672   3.253  10.934
 2471SOL    HW1 8165   0.594   3.203  10.972
 2471SOL    HW2 8166   0.669   3.348  10.965
 2472SOL     OW 8167   1.824   2.054  10.537
 2472SOL    HW1 8168   1.820   1.964  10.581
 2472SOL    HW2 8169   1.827   2.043  10.438
 2473SOL     OW 8170   0.428   2.286   9.830
 2473SOL    HW1 8171   0.458   2.214   9.768
 2473SOL    HW2 8172   0.389   2.246   9.913
 2474SOL     OW 8173   1.705   3.349  10.414
 2474SOL    HW1 8174   1.612   3.324  10.387
 2474SOL    HW2 8175   1.731   3.299  10.496
 2475SOL     OW 8176   0.317   2.409  10.590
 2475SOL    HW1 8177   0.355   2.350  10.662
 2475SOL    HW2 8178   0.357   2.383  10.502
 2476SOL     OW 8179   0.812   3.448   9.997
 2476SOL    HW1 8180   0.844   3.458   9.903
 2476SOL    HW2 8181   0.733   3.386   9.999
 2477SOL     OW 8182   1.424   2.076  10.422
 2477SOL    HW1 8183   1.476   2.011  10.477
 2477SOL    HW2 8184   1.375   2.139  10.483
 2478SOL     OW 8185   1.001   1.896  10.464
 2478SOL    HW1 8186   0.938   1.824  10.433
 2478SOL    HW2 8187   1.094   1.860  10.464
 2479SOL     OW 8188   0.770   3.192   9.611
 2479SOL    HW1 8189   0.724   3.105   9.628
 2479SOL    HW2 8190   0.861   3.189   9.652
 2480SOL     OW 8191   0.618   3.429  10.594
 2480SOL    HW1 8192   0.613   3.511  10.651
 2480SOL    HW2 8193   0.707   3.426  10.549
 2481SOL     OW 8194   1.352   1.914   9.478
 2481SOL    HW1 8195   1.387   1.873   9.394
 2481SOL    HW2 8196   1.262   1.876   9.498
 2482SOL     OW 8197   1.300   2.315  10.001
 2482SOL    HW1 8198   1.241   2.395  10.005
 2482SOL    HW2 8199   1.315   2.280  10.094
 2483SOL     OW 8200   1.593   2.083  10.192
 2483SOL    HW1 8201   1.509   2.082  10.246
 2483SOL    HW2 8202   1.595   2.166  10.136
 2484SOL     OW 8203   0.039   2.939   9.610
 2484SOL    HW1 8204   0.138   2.928   9.601
 2484SOL    HW2 8205  -0.001   2.853   9.642
 2485SOL     OW 8206   0.875   3.508   9.647
 2485SOL    HW1 8207   0.798   3.473   9.593
 2485SOL    HW2 8208   0.843   3.579   9.709
 2486SOL     OW 8209   0.230   4.352   0.113
 2486SOL    HW1 8210   0.137   4.350   0.150
 2486SOL    HW2 8211   0.231   4.313   0.021
 2487SOL     OW 8212   0.225   3.999   0.996
 2487SOL    HW1 8213   0.260   3.982   1.088
 2487SOL    HW2 8214   0.137   3.954   0.984
 2488SOL     OW 8215   0.019   4.092   0.647
 2488SOL    HW1 8216  -0.063   4.135   0.686
 2488SOL    HW2 8217  -0.009   4.019   0.584
 2489SOL     OW 8218   1.755   4.331   0.231
 2489SOL    HW1 8219   1.743   4.318   0.132
 2489SOL    HW2 8220   1.725   4.250   0.280
 2490SOL     OW 8221   0.685   4.736   0.665
 2490SOL    HW1 8222   0.754   4.720   0.735
 2490SOL    HW2 8223   0.612   4.793   0.703
 2491SOL     OW 8224   0.438   4.116   1.499
 2491SOL    HW1 8225   0.520   4.060   1.508
 2491SOL    HW2 8226   0.357   4.058   1.503
 2492SOL     OW 8227   1.603   4.171   0.737
 2492SOL    HW1 8228   1.529   4.217   0.687
 2492SOL    HW2 8229   1.654   4.239   0.790
 2493SOL     OW 8230   1.594   3.838   1.480
 2493SOL    HW1 8231   1.576   3.905   1.408
 2493SOL    HW2 8232   1.591   3.884   1.569
 2494SOL     OW 8233   0.122   4.367   0.563
 2494SOL    HW1 8234   0.077   4.279   0.580
 2494SOL    HW2 8235   0.121   4.421   0.647
 2495SOL     OW 8236   0.113   4.461   1.597
 2495SOL    HW1 8237   0.201   4.448   1.642
 2495SOL    HW2 8238   0.100   4.558   1.575
 2496SOL     OW 8239   0.809   3.728   0.502
 2496SOL    HW1 8240   0.849   3.819   0.493
 2496SOL    HW2 8241   0.709   3.736   0.508
 2497SOL     OW 8242   0.317   3.975   1.801
 2497SOL    HW1 8243   0.388   4.046   1.807
 2497SOL    HW2 8244   0.229   4.014   1.829
 2498SOL     OW 8245   1.281   4.069   0.944
 2498SOL    HW1 8246   1.195   4.019   0.931
 2498SOL    HW2 8247   1.343   4.015   1.000
 2499SOL     OW 8248   0.807   4.329   1.465
 2499SOL    HW1 8249   0.760   4.326   1.554
 2499SOL    HW2 8250   0.756   4.274   1.399
 2500SOL     OW 8251   1.394   4.193   1.674
 2500SOL    HW1 8252   1.374   4.236   1.762
 2500SOL    HW2 8253   1.472   4.131   1.683
 2501SOL     OW 8254   0.991   4.134   1.242
 2501SOL    HW1 8255   0.914   4.168   1.296
 2501SOL    HW2 8256   0.957   4.083   1.163
 2502SOL     OW 8257   1.041   4.425   0.429
 2502SOL    HW1 8258   1.067   4.421   0.525
 2502SOL    HW2 8259   0.956   4.374   0.415
 2503SOL     OW 8260   0.076   4.535   0.789
 2503SOL    HW1 8261   0.175   4.523   0.798
 2503SOL    HW2 8262   0.052   4.630   0.810
 2504SOL     OW 8263   0.865   4.072   0.195
 2504SOL    HW1 8264   0.924   4.135   0.146
 2504SOL    HW2 8265   0.884   3.978   0.166
 2505SOL     OW 8266   1.719   4.309   1.831
 2505SOL    HW1 8267   1.693   4.398   1.795
 2505SOL    HW2 8268   1.717   4.241   1.758
 2506SOL     OW 8269   0.550   3.920   0.885
 2506SOL    HW1 8270   0.545   3.915   0.985
 2506SOL    HW2 8271   0.552   4.016   0.856
 2507SOL     OW 8272   1.458   4.459   0.728
 2507SOL    HW1 8273   1.453   4.394   0.803
 2507SOL    HW2 8274   1.538   4.518   0.741
 2508SOL     OW 8275   0.202   4.009   1.498
 2508SOL    HW1 8276   0.122   4.069   1.485
 2508SOL    HW2 8277   0.192   3.960   1.584
 2509SOL     OW 8278   1.400   3.831   0.426
 2509SOL    HW1 8279   1.376   3.794   0.336
 2509SOL    HW2 8280   1.499   3.847   0.430
 2510SOL     OW 8281   0.382   4.424   0.480
 2510SOL    HW1 8282   0.427   4.334   0.477
 2510SOL    HW2 8283   0.288   4.413   0.513
 2511SOL     OW 8284   1.547   3.946   1.729
 2511SOL    HW1 8285   1.542   3.983   1.821
 2511SOL    HW2 8286   1.475   3.877   1.717
 2512SOL     OW 8287   0.614   3.846   0.117
 2512SOL    HW1 8288   0.712   3.824   0.124
 2512SOL    HW2 8289   0.583   3.829   0.024
 2513SOL     OW 8290   0.781   3.988   1.749
 2513SOL    HW1 8291   0.848   3.927   1.792
 2513SOL    HW2 8292   0.708   4.007   1.814
 2514SOL     OW 8293   1.351   4.314   1.433
 2514SOL    HW1 8294   1.379   4.271   1.518
 2514SOL    HW2 8295   1.376   4.410   1.434
 2515SOL     OW 8296   0.922   4.227   0.899
 2515SOL    HW1 8297   0.897   4.218   0.803
 2515SOL    HW2 8298   0.970   4.145   0.930
 2516SOL     OW 8299   0.539   3.788   0.512
 2516SOL    HW1 8300   0.458   3.789   0.570
 2516SOL    HW2 8301   0.542   3.871   0.457
 2517SOL     OW 8302   0.297   3.759   0.171
 2517SOL    HW1 8303   0.346   3.843   0.150
 2517SOL    HW2 8304   0.359   3.694   0.216
 2518SOL     OW 8305   0.935   3.960   0.480
 2518SOL    HW1 8306   0.887   4.001   0.402
 2518SOL    HW2 8307   1.034   3.958   0.461
 2519SOL     OW 8308   1.076   4.407   1.464
 2519SOL    HW1 8309   0.996   4.346   1.467
 2519SOL    HW2 8310   1.157   4.354   1.440
 2520SOL     OW 8311   1.032   4.273   0.016
 2520SOL    HW1 8312   0.991   4.355  -0.023
 2520SOL    HW2 8313   1.096   4.299   0.089
 2521SOL     OW 8314   0.078   4.280   1.386
 2521SOL    HW1 8315   0.170   4.279   1.345
 2521SOL    HW2 8316   0.072   4.354   1.453
 2522SOL     OW 8317   0.561   3.946   1.147
 2522SOL    HW1 8318   0.599   3.862   1.184
 2522SOL    HW2 8319   0.473   3.965   1.191
 2523SOL     OW 8320   0.866   4.178   0.642
 2523SOL    HW1 8321   0.834   4.250   0.580
 2523SOL    HW2 8322   0.890   4.097   0.589
 2524SOL     OW 8323   1.017   3.763   0.753
 2524SOL    HW1 8324   0.945   3.768   0.684
 2524SOL    HW2 8325   0.993   3.694   0.822
 2525SOL     OW 8326   1.466   4.314   0.992
 2525SOL    HW1 8327   1.436   4.219   0.999
 2525SOL    HW2 8328   1.539   4.330   1.058
 2526SOL     OW 8329   1.390   4.299   0.078
 2526SOL    HW1 8330   1.336   4.278   0.159
 2526SOL    HW2 8331   1.481   4.258   0.087
 2527SOL     OW 8332   0.527   3.980   0.328
 2527SOL    HW1 8333   0.554   3.921   0.253
 2527SOL    HW2 8334   0.527   4.075   0.297
 2528SOL     OW 8335   0.915   3.813   1.402
 2528SOL    HW1 8336   0.940   3.793   1.307
 2528SOL    HW2 8337   0.987   3.869   1.444
 2529SOL     OW 8338   0.410   4.537   1.251
 2529SOL    HW1 8339   0.496   4.549   1.301
 2529SOL    HW2 8340   0.368   4.450   1.278
 2530SOL     OW 8341   1.274   4.110   1.262
 2530SOL    HW1 8342   1.295   4.184   1.326
 2530SOL    HW2 8343   1.185   4.127   1.219
 2531SOL     OW 8344   0.566   4.261   0.865
 2531SOL    HW1 8345   0.578   4.327   0.791
 2531SOL    HW2 8346   0.612   4.295   0.948
 2532SOL     OW 8347   1.582   4.363   0.472
 2532SOL    HW1 8348   1.551   4.424   0.545
 2532SOL    HW2 8349   1.632   4.415   0.403
 2533SOL     OW 8350   1.013   3.829   1.770
 2533SOL    HW1 8351   1.019   3.914   1.718
 2533SOL    HW2 8352   1.045   3.753   1.713
 2534SOL     OW 8353   0.504   3.774   1.740
 2534SOL    HW1 8354   0.462   3.717   1.670
 2534SOL    HW2 8355   0.438   3.843   1.772
 2535SOL     OW 8356   1.209   4.249   0.275
 2535SOL    HW1 8357   1.222   4.165   0.329
 2535SOL    HW2 8358   1.180   4.323   0.335
 2536SOL     OW 8359   0.307   3.937   1.231
 2536SOL    HW1 8360   0.284   3.974   1.321
 2536SOL    HW2 8361   0.277   3.842   1.225
 2537SOL     OW 8362   0.732   4.358   1.064
 2537SOL    HW1 8363   0.791   4.332   0.988
 2537SOL    HW2 8364   0.704   4.454   1.053
 2538SOL     OW 8365   1.728   4.659   1.854
 2538SOL    HW1 8366   1.682   4.652   1.765
 2538SOL    HW2 8367   1.666   4.703   1.920
 2539SOL     OW 8368   0.307   3.787   0.618
 2539SOL    HW1 8369   0.296   3.881   0.651
 2539SOL    HW2 8370   0.302   3.724   0.695
 2540SOL     OW 8371   1.622   4.091   0.374
 2540SOL    HW1 8372   1.624   4.015   0.438
 2540SOL    HW2 8373   1.574   4.168   0.414
 2541SOL     OW 8374   1.540   3.998   0.125
 2541SOL    HW1 8375   1.479   3.923   0.148
 2541SOL    HW2 8376   1.562   4.050   0.208
 2542SOL     OW 8377   0.319   4.534   0.949
 2542SOL    HW1 8378   0.412   4.570   0.954
 2542SOL    HW2 8379   0.313   4.449   1.001
 2543SOL     OW 8380   0.339   4.233   1.006
 2543SOL    HW1 8381   0.287   4.150   0.989
 2543SOL    HW2 8382   0.416   4.238   0.942
 2544SOL     OW 8383   1.138   4.104   1.678
 2544SOL    HW1 8384   1.093   4.167   1.742
 2544SOL    HW2 8385   1.231   4.135   1.661
 2545SOL     OW 8386   1.160   3.931   1.477
 2545SOL    HW1 8387   1.160   3.995   1.554
 2545SOL    HW2 8388   1.188   3.979   1.394
 2546SOL     OW 8389   0.040   4.268   1.114
 2546SOL    HW1 8390   0.125   4.235   1.073
 2546SOL    HW2 8391   0.053   4.283   1.212
 2547SOL     OW 8392   0.189   4.244   1.722
 2547SOL    HW1 8393   0.248   4.204   1.652
 2547SOL    HW2 8394   0.131   4.315   1.681
 2548SOL     OW 8395   0.815   4.296   0.325
 2548SOL    HW1 8396   0.822   4.207   0.279
 2548SOL    HW2 8397   0.721   4.330   0.317
 2549SOL     OW 8398   1.657   4.328   1.206
 2549SOL    HW1 8399   1.619   4.259   1.268
 2549SOL    HW2 8400   1.739   4.292   1.162
 2550SOL     OW 8401   0.671   4.188   1.269
 2550SOL    HW1 8402   0.637   4.099   1.239
 2550SOL    HW2 8403   0.697   4.242   1.189
 2551SOL     OW 8404   0.473   4.224   0.191
 2551SOL    HW1 8405   0.534   4.304   0.195
 2551SOL    HW2 8406   0.378   4.255   0.198
 2552SOL     OW 8407   0.903   3.810   0.133
 2552SOL    HW1 8408   0.954   3.811   0.047
 2552SOL    HW2 8409   0.959   3.768   0.204
 2553SOL     OW 8410   1.726   3.859   0.523
 2553SOL    HW1 8411   1.799   3.842   0.456
 2553SOL    HW2 8412   1.695   3.772   0.561
 2554SOL     OW 8413   1.280   4.651   0.672
 2554SOL    HW1 8414   1.340   4.570   0.674
 2554SOL    HW2 8415   1.320   4.720   0.612
 2555SOL     OW 8416   1.841   3.899   0.963
 2555SOL    HW1 8417   1.880   3.814   0.927
 2555SOL    HW2 8418   1.743   3.901   0.944
 2556SOL     OW 8419   0.263   4.050   0.720
 2556SOL    HW1 8420   0.184   4.101   0.686
 2556SOL    HW2 8421   0.254   4.035   0.818
 2557SOL     OW 8422   1.039   4.822   0.696
 2557SOL    HW1 8423   0.969   4.775   0.750
 2557SOL    HW2 8424   1.098   4.754   0.653
 2558SOL     OW 8425   1.014   3.960   0.971
 2558SOL    HW1 8426   1.006   3.924   0.878
 2558SOL    HW2 8427   1.012   3.884   1.036
 2559SOL     OW 8428   1.709   4.109   1.381
 2559SOL    HW1 8429   1.782   4.178   1.385
 2559SOL    HW2 8430   1.737   4.034   1.322
 2560SOL     OW 8431   0.672   3.927   1.489
 2560SOL    HW1 8432   0.762   3.911   1.449
 2560SOL    HW2 8433   0.680   3.932   1.588
 2561SOL     OW 8434   0.075   4.069   0.033
 2561SOL    HW1 8435  -0.017   4.041   0.004
 2561SOL    HW2 8436   0.106   4.146  -0.023
 2562SOL     OW 8437   0.072   3.890   0.318
 2562SOL    HW1 8438   0.055   3.973   0.264
 2562SOL    HW2 8439   0.162   3.853   0.296
 2563SOL     OW 8440   0.716   4.289   1.708
 2563SOL    HW1 8441   0.735   4.354   1.782
 2563SOL    HW2 8442   0.776   4.209   1.717
 2564SOL     OW 8443   1.225   4.049   0.449
 2564SOL    HW1 8444   1.290   3.975   0.438
 2564SOL    HW2 8445   1.245   4.099   0.533
 2565SOL     OW 8446   1.777   4.066   1.642
 2565SOL    HW1 8447   1.760   4.097   1.548
 2565SOL    HW2 8448   1.693   4.029   1.680
 2566SOL     OW 8449   1.083   4.708   0.087
 2566SOL    HW1 8450   1.060   4.761   0.005
 2566SOL    HW2 8451   1.164   4.652   0.068
 2567SOL     OW 8452   1.824   3.916   1.227
 2567SOL    HW1 8453   1.820   3.826   1.271
 2567SOL    HW2 8454   1.827   3.905   1.128
 2568SOL     OW 8455   0.428   4.148   0.520
 2568SOL    HW1 8456   0.458   4.076   0.458
 2568SOL    HW2 8457   0.389   4.108   0.603
 2569SOL     OW 8458   0.317   4.271   1.280
 2569SOL    HW1 8459   0.355   4.212   1.352
 2569SOL    HW2 8460   0.357   4.245   1.192
 2570SOL     OW 8461   1.424   3.938   1.112
 2570SOL    HW1 8462   1.476   3.873   1.167
 2570SOL    HW2 8463   1.375   4.001   1.173
 2571SOL     OW 8464   1.001   3.758   1.154
 2571SOL    HW1 8465   0.938   3.686   1.123
 2571SOL    HW2 8466   1.094   3.722   1.154
 2572SOL     OW 8467   1.352   3.776   0.168
 2572SOL    HW1 8468   1.387   3.735   0.084
 2572SOL    HW2 8469   1.262   3.738   0.188
 2573SOL     OW 8470   1.300   4.177   0.691
 2573SOL    HW1 8471   1.241   4.257   0.695
 2573SOL    HW2 8472   1.315   4.142   0.784
 2574SOL     OW 8473   1.593   3.945   0.882
 2574SOL    HW1 8474   1.509   3.944   0.936
 2574SOL    HW2 8475   1.595   4.028   0.826
 2575SOL     OW 8476   0.230   4.352   1.975
 2575SOL    HW1 8477   0.137   4.350   2.012
 2575SOL    HW2 8478   0.231   4.313   1.883
 2576SOL     OW 8479   0.225   3.999   2.858
 2576SOL    HW1 8480   0.260   3.982   2.950
 2576SOL    HW2 8481   0.137   3.954   2.846
 2577SOL     OW 8482   0.019   4.092   2.509
 2577SOL    HW1 8483  -0.063   4.135   2.548
 2577SOL    HW2 8484  -0.009   4.019   2.446
 2578SOL     OW 8485   1.755   4.331   2.093
 2578SOL    HW1 8486   1.743   4.318   1.994
 2578SOL    HW2 8487   1.725   4.250   2.142
 2579SOL     OW 8488   0.685   4.736   2.527
 2579SOL    HW1 8489   0.754   4.720   2.597
 2579SOL    HW2 8490   0.612   4.793   2.565
 2580SOL     OW 8491   0.438   4.116   3.361
 2580SOL    HW1 8492   0.520   4.060   3.370
 2580SOL    HW2 8493   0.357   4.058   3.365
 2581SOL     OW 8494   1.603   4.171   2.599
 2581SOL    HW1 8495   1.529   4.217   2.549
 2581SOL    HW2 8496   1.654   4.239   2.652
 2582SOL     OW 8497   1.594   3.838   3.342
 2582SOL    HW1 8498   1.576   3.905   3.270
 2582SOL    HW2 8499   1.591   3.884   3.431
 2583SOL     OW 8500   0.122   4.367   2.425
 2583SOL    HW1 8501   0.077   4.279   2.442
 2583SOL    HW2 8502   0.121   4.421   2.509
 2584SOL     OW 8503   0.113   4.461   3.459
 2584SOL    HW1 8504   0.201   4.448   3.504
 2584SOL    HW2 8505   0.100   4.558   3.437
 2585SOL     OW 8506   0.809   3.728   2.364
 2585SOL    HW1 8507   0.849   3.819   2.355
 2585SOL    HW2 8508   0.709   3.736   2.370
 2586SOL     OW 8509   0.317   3.975   3.663
 2586SOL    HW1 8510   0.388   4.046   3.669
 2586SOL    HW2 8511   0.229   4.014   3.691
 2587SOL     OW 8512   1.281   4.069   2.806
 2587SOL    HW1 8513   1.195   4.019   2.793
 2587SOL    HW2 8514   1.343   4.015   2.862
 2588SOL     OW 8515   0.807   4.329   3.327
 2588SOL    HW1 8516   0.760   4.326   3.416
 2588SOL    HW2 8517   0.756   4.274   3.261
 2589SOL     OW 8518   1.394   4.193   3.536
 2589SOL    HW1 8519   1.374   4.236   3.624
 2589SOL    HW2 8520   1.472   4.131   3.545
 2590SOL     OW 8521   0.991   4.134   3.104
 2590SOL    HW1 8522   0.914   4.168   3.158
 2590SOL    HW2 8523   0.957   4.083   3.025
 2591SOL     OW 8524   1.041   4.425   2.291
 2591SOL    HW1 8525   1.067   4.421   2.387
 2591SOL    HW2 8526   0.956   4.374   2.277
 2592SOL     OW 8527   0.076   4.535   2.651
 2592SOL    HW1 8528   0.175   4.523   2.660
 2592SOL    HW2 8529   0.052   4.630   2.672
 2593SOL     OW 8530   0.865   4.072   2.057
 2593SOL    HW1 8531   0.924   4.135   2.008
 2593SOL    HW2 8532   0.884   3.978   2.028
 2594SOL     OW 8533   1.719   4.309   3.693
 2594SOL    HW1 8534   1.693   4.398   3.657
 2594SOL    HW2 8535   1.717   4.241   3.620
 2595SOL     OW 8536   0.550   3.920   2.747
 2595SOL    HW1 8537   0.545   3.915   2.847
 2595SOL    HW2 8538   0.552   4.016   2.718
 2596SOL     OW 8539   1.458   4.459   2.590
 2596SOL    HW1 8540   1.453   4.394   2.665
 2596SOL    HW2 8541   1.538   4.518   2.603
 2597SOL     OW 8542   0.202   4.009   3.360
 2597SOL    HW1 8543   0.122   4.069   3.347
 2597SOL    HW2 8544   0.192   3.960   3.446
 2598SOL     OW 8545   1.400   3.831   2.288
 2598SOL    HW1 8546   1.376   3.794   2.198
 2598SOL    HW2 8547   1.499   3.847   2.292
 2599SOL     OW 8548   0.382   4.424   2.342
 2599SOL    HW1 8549   0.427   4.334   2.339
 2599SOL    HW2 8550   0.288   4.413   2.375
 2600SOL     OW 8551   1.547   3.946   3.591
 2600SOL    HW1 8552   1.542   3.983   3.683
 2600SOL    HW2 8553   1.475   3.877   3.579
 2601SOL     OW 8554   0.614   3.846   1.979
 2601SOL    HW1 8555   0.712   3.824   1.986
 2601SOL    HW2 8556   0.583   3.829   1.886
 2602SOL     OW 8557   0.781   3.988   3.611
 2602SOL    HW1 8558   0.848   3.927   3.654
 2602SOL    HW2 8559   0.708   4.007   3.676
 2603SOL     OW 8560   1.351   4.314   3.295
 2603SOL    HW1 8561   1.379   4.271   3.380
 2603SOL    HW2 8562   1.376   4.410   3.296
 2604SOL     OW 8563   0.922   4.227   2.761
 2604SOL    HW1 8564   0.897   4.218   2.665
 2604SOL    HW2 8565   0.970   4.145   2.792
 2605SOL     OW 8566   0.539   3.788   2.374
 2605SOL    HW1 8567   0.458   3.789   2.432
 2605SOL    HW2 8568   0.542   3.871   2.319
 2606SOL     OW 8569   0.297   3.759   2.033
 2606SOL    HW1 8570   0.346   3.843   2.012
 2606SOL    HW2 8571   0.359   3.694   2.078
 2607SOL     OW 8572   0.935   3.960   2.342
 2607SOL    HW1 8573   0.887   4.001   2.264
 2607SOL    HW2 8574   1.034   3.958   2.323
 2608SOL     OW 8575   1.076   4.407   3.326
 2608SOL    HW1 8576   0.996   4.346   3.329
 2608SOL    HW2 8577   1.157   4.354   3.302
 2609SOL     OW 8578   1.032   4.273   1.878
 2609SOL    HW1 8579   0.991   4.355   1.839
 2609SOL    HW2 8580   1.096   4.299   1.951
 2610SOL     OW 8581   0.078   4.280   3.248
 2610SOL    HW1 8582   0.170   4.279   3.207
 2610SOL    HW2 8583   0.072   4.354   3.315
 2611SOL     OW 8584   0.561   3.946   3.009
 2611SOL    HW1 8585   0.599   3.862   3.046
 2611SOL    HW2 8586   0.473   3.965   3.053
 2612SOL     OW 8587   0.866   4.178   2.504
 2612SOL    HW1 8588   0.834   4.250   2.442
 2612SOL    HW2 8589   0.890   4.097   2.451
 2613SOL     OW 8590   1.017   3.763   2.615
 2613SOL    HW1 8591   0.945   3.768   2.546
 2613SOL    HW2 8592   0.993   3.694   2.684
 2614SOL     OW 8593   1.466   4.314   2.854
 2614SOL    HW1 8594   1.436   4.219   2.861
 2614SOL    HW2 8595   1.539   4.330   2.920
 2615SOL     OW 8596   1.390   4.299   1.940
 2615SOL    HW1 8597   1.336   4.278   2.021
 2615SOL    HW2 8598   1.481   4.258   1.949
 2616SOL     OW 8599   0.527   3.980   2.190
 2616SOL    HW1 8600   0.554   3.921   2.115
 2616SOL    HW2 8601   0.527   4.075   2.159
 2617SOL     OW 8602   0.915   3.813   3.264
 2617SOL    HW1 8603   0.940   3.793   3.169
 2617SOL    HW2 8604   0.987   3.869   3.306
 2618SOL     OW 8605   0.410   4.537   3.113
 2618SOL    HW1 8606   0.496   4.549   3.163
 2618SOL    HW2 8607   0.368   4.450   3.140
 2619SOL     OW 8608   1.274   4.110   3.124
 2619SOL    HW1 8609   1.295   4.184   3.188
 2619SOL    HW2 8610   1.185   4.127   3.081
 2620SOL     OW 8611   0.566   4.261   2.727
 2620SOL    HW1 8612   0.578   4.327   2.653
 2620SOL    HW2 8613   0.612   4.295   2.810
 2621SOL     OW 8614   1.582   4.363   2.334
 2621SOL    HW1 8615   1.551   4.424   2.407
 2621SOL    HW2 8616   1.632   4.415   2.265
 2622SOL     OW 8617   1.013   3.829   3.632
 2622SOL    HW1 8618   1.019   3.914   3.580
 2622SOL    HW2 8619   1.045   3.753   3.575
 2623SOL     OW 8620   0.504   3.774   3.602
 2623SOL    HW1 8621   0.462   3.717   3.532
 2623SOL    HW2 8622   0.438   3.843   3.634
 2624SOL     OW 8623   1.209   4.249   2.137
 2624SOL    HW1 8624   1.222   4.165   2.191
 2624SOL    HW2 8625   1.180   4.323   2.197
 2625SOL     OW 8626   0.307   3.937   3.093
 2625SOL    HW1 8627   0.284   3.974   3.183
 2625SOL    HW2 8628   0.277   3.842   3.087
 2626SOL     OW 8629   0.732   4.358   2.926
 2626SOL    HW1 8630   0.791   4.332   2.850
 2626SOL    HW2 8631   0.704   4.454   2.915
 2627SOL     OW 8632   1.728   4.659   3.716
 2627SOL    HW1 8633   1.682   4.652   3.627
 2627SOL    HW2 8634   1.666   4.703   3.782
 2628SOL     OW 8635   0.307   3.787   2.480
 2628SOL    HW1 8636   0.296   3.881   2.513
 2628SOL    HW2 8637   0.302   3.724   2.557
 2629SOL     OW 8638   1.622   4.091   2.236
 2629SOL    HW1 8639   1.624   4.015   2.300
 2629SOL    HW2 8640   1.574   4.168   2.276
 2630SOL     OW 8641   1.540   3.998   1.987
 2630SOL    HW1 8642   1.479   3.923   2.010
 2630SOL    HW2 8643   1.562   4.050   2.070
 2631SOL     OW 8644   0.319   4.534   2.811
 2631SOL    HW1 8645   0.412   4.570   2.816
 2631SOL    HW2 8646   0.313   4.449   2.863
 2632SOL     OW 8647   0.339   4.233   2.868
 2632SOL    HW1 8648   0.287   4.150   2.851
 2632SOL    HW2 8649   0.416   4.238   2.804
 2633SOL     OW 8650   1.138   4.104   3.540
 2633SOL    HW1 8651   1.093   4.167   3.604
 2633SOL    HW2 8652   1.231   4.135   3.523
 2634SOL     OW 8653   1.160   3.931   3.339
 2634SOL    HW1 8654   1.160   3.995   3.416
 2634SOL    HW2 8655   1.188   3.979   3.256
 2635SOL     OW 8656   0.040   4.268   2.976
 2635SOL    HW1 8657   0.125   4.235   2.935
 2635SOL    HW2 8658   0.053   4.283   3.074
 2636SOL     OW 8659   0.189   4.244   3.584
 2636SOL    HW1 8660   0.248   4.204   3.514
 2636SOL    HW2 8661   0.131   4.315   3.543
 2637SOL     OW 8662   0.815   4.296   2.187
 2637SOL    HW1 8663   0.822   4.207   2.141
 2637SOL    HW2 8664   0.721   4.330   2.179
 2638SOL     OW 8665   1.657   4.328   3.068
 2638SOL    HW1 8666   1.619   4.259   3.130
 2638SOL    HW2 8667   1.739   4.292   3.024
 2639SOL     OW 8668   0.671   4.188   3.131
 2639SOL    HW1 8669   0.637   4.099   3.101
 2639SOL    HW2 8670   0.697   4.242   3.051
 2640SOL     OW 8671   0.473   4.224   2.053
 2640SOL    HW1 8672   0.534   4.304   2.057
 2640SOL    HW2 8673   0.378   4.255   2.060
 2641SOL     OW 8674   1.726   3.859   2.385
 2641SOL    HW1 8675   1.799   3.842   2.318
 2641SOL    HW2 8676   1.695   3.772   2.423
 2642SOL     OW 8677   1.280   4.651   2.534
 2642SOL    HW1 8678   1.340   4.570   2.536
 2642SOL    HW2 8679   1.320   4.720   2.474
 2643SOL     OW 8680   1.841   3.899   2.825
 2643SOL    HW1 8681   1.880   3.814   2.789
 2643SOL    HW2 8682   1.743   3.901   2.806
 2644SOL     OW 8683   0.263   4.050   2.582
 2644SOL    HW1 8684   0.184   4.101   2.548
 2644SOL    HW2 8685   0.254   4.035   2.680
 2645SOL     OW 8686   0.916   4.634   2.153
 2645SOL    HW1 8687   0.979   4.672   2.085
 2645SOL    HW2 8688   0.956   4.551   2.192
 2646SOL     OW 8689   1.039   4.822   2.558
 2646SOL    HW1 8690   0.969   4.775   2.612
 2646SOL    HW2 8691   1.098   4.754   2.515
 2647SOL     OW 8692   1.014   3.960   2.833
 2647SOL    HW1 8693   1.006   3.924   2.740
 2647SOL    HW2 8694   1.012   3.884   2.898
 2648SOL     OW 8695   1.709   4.109   3.243
 2648SOL    HW1 8696   1.782   4.178   3.247
 2648SOL    HW2 8697   1.737   4.034   3.184
 2649SOL     OW 8698   0.672   3.927   3.351
 2649SOL    HW1 8699   0.762   3.911   3.311
 2649SOL    HW2 8700   0.680   3.932   3.450
 2650SOL     OW 8701   0.075   4.069   1.895
 2650SOL    HW1 8702  -0.017   4.041   1.866
 2650SOL    HW2 8703   0.106   4.146   1.839
 2651SOL     OW 8704   0.072   3.890   2.180
 2651SOL    HW1 8705   0.055   3.973   2.126
 2651SOL    HW2 8706   0.162   3.853   2.158
 2652SOL     OW 8707   0.716   4.289   3.570
 2652SOL    HW1 8708   0.735   4.354   3.644
 2652SOL    HW2 8709   0.776   4.209   3.579
 2653SOL     OW 8710   1.225   4.049   2.311
 2653SOL    HW1 8711   1.290   3.975   2.300
 2653SOL    HW2 8712   1.245   4.099   2.395
 2654SOL     OW 8713   1.777   4.066   3.504
 2654SOL    HW1 8714   1.760   4.097   3.410
 2654SOL    HW2 8715   1.693   4.029   3.542
 2655SOL     OW 8716   1.083   4.708   1.949
 2655SOL    HW1 8717   1.060   4.761   1.867
 2655SOL    HW2 8718   1.164   4.652   1.930
 2656SOL     OW 8719   1.824   3.916   3.089
 2656SOL    HW1 8720   1.820   3.826   3.133
 2656SOL    HW2 8721   1.827   3.905   2.990
 2657SOL     OW 8722   0.428   4.148   2.382
 2657SOL    HW1 8723   0.458   4.076   2.320
 2657SOL    HW2 8724   0.389   4.108   2.465
 2658SOL     OW 8725   0.317   4.271   3.142
 2658SOL    HW1 8726   0.355   4.212   3.214
 2658SOL    HW2 8727   0.357   4.245   3.054
 2659SOL     OW 8728   1.424   3.938   2.974
 2659SOL    HW1 8729   1.476   3.873   3.029
 2659SOL    HW2 8730   1.375   4.001   3.035
 2660SOL     OW 8731   1.001   3.758   3.016
 2660SOL    HW1 8732   0.938   3.686   2.985
 2660SOL    HW2 8733   1.094   3.722   3.016
 2661SOL     OW 8734   1.352   3.776   2.030
 2661SOL    HW1 8735   1.387   3.735   1.946
 2661SOL    HW2 8736   1.262   3.738   2.050
 2662SOL     OW 8737   1.300   4.177   2.553
 2662SOL    HW1 8738   1.241   4.257   2.557
 2662SOL    HW2 8739   1.315   4.142   2.646
 2663SOL     OW 8740   1.593   3.945   2.744
 2663SOL    HW1 8741   1.509   3.944   2.798
 2663SOL    HW2 8742   1.595   4.028   2.688
 2664SOL     OW 8743   0.230   4.352   3.837
 2664SOL    HW1 8744   0.137   4.350   3.874
 2664SOL    HW2 8745   0.231   4.313   3.745
 2665SOL     OW 8746   0.225   3.999   4.720
 2665SOL    HW1 8747   0.260   3.982   4.812
 2665SOL    HW2 8748   0.137   3.954   4.708
 2666SOL     OW 8749   0.019   4.092   4.371
 2666SOL    HW1 8750  -0.063   4.135   4.410
 2666SOL    HW2 8751  -0.009   4.019   4.308
 2667SOL     OW 8752   1.755   4.331   3.955
 2667SOL    HW1 8753   1.743   4.318   3.856
 2667SOL    HW2 8754   1.725   4.250   4.004
 2668SOL     OW 8755   0.685   4.736   4.389
 2668SOL    HW1 8756   0.754   4.720   4.459
 2668SOL    HW2 8757   0.612   4.793   4.427
 2669SOL     OW 8758   0.438   4.116   5.223
 2669SOL    HW1 8759   0.520   4.060   5.232
 2669SOL    HW2 8760   0.357   4.058   5.227
 2670SOL     OW 8761   1.603   4.171   4.461
 2670SOL    HW1 8762   1.529   4.217   4.411
 2670SOL    HW2 8763   1.654   4.239   4.514
 2671SOL     OW 8764   1.594   3.838   5.204
 2671SOL    HW1 8765   1.576   3.905   5.132
 2671SOL    HW2 8766   1.591   3.884   5.293
 2672SOL     OW 8767   0.122   4.367   4.287
 2672SOL    HW1 8768   0.077   4.279   4.304
 2672SOL    HW2 8769   0.121   4.421   4.371
 2673SOL     OW 8770   0.113   4.461   5.321
 2673SOL    HW1 8771   0.201   4.448   5.366
 2673SOL    HW2 8772   0.100   4.558   5.299
 2674SOL     OW 8773   0.809   3.728   4.226
 2674SOL    HW1 8774   0.849   3.819   4.217
 2674SOL    HW2 8775   0.709   3.736   4.232
 2675SOL     OW 8776   0.317   3.975   5.525
 2675SOL    HW1 8777   0.388   4.046   5.531
 2675SOL    HW2 8778   0.229   4.014   5.553
 2676SOL     OW 8779   1.281   4.069   4.668
 2676SOL    HW1 8780   1.195   4.019   4.655
 2676SOL    HW2 8781   1.343   4.015   4.724
 2677SOL     OW 8782   0.807   4.329   5.189
 2677SOL    HW1 8783   0.760   4.326   5.278
 2677SOL    HW2 8784   0.756   4.274   5.123
 2678SOL     OW 8785   1.394   4.193   5.398
 2678SOL    HW1 8786   1.374   4.236   5.486
 2678SOL    HW2 8787   1.472   4.131   5.407
 2679SOL     OW 8788   0.991   4.134   4.966
 2679SOL    HW1 8789   0.914   4.168   5.020
 2679SOL    HW2 8790   0.957   4.083   4.887
 2680SOL     OW 8791   1.041   4.425   4.153
 2680SOL    HW1 8792   1.067   4.421   4.249
 2680SOL    HW2 8793   0.956   4.374   4.139
 2681SOL     OW 8794   0.076   4.535   4.513
 2681SOL    HW1 8795   0.175   4.523   4.522
 2681SOL    HW2 8796   0.052   4.630   4.534
 2682SOL     OW 8797   0.865   4.072   3.919
 2682SOL    HW1 8798   0.924   4.135   3.870
 2682SOL    HW2 8799   0.884   3.978   3.890
 2683SOL     OW 8800   1.719   4.309   5.555
 2683SOL    HW1 8801   1.693   4.398   5.519
 2683SOL    HW2 8802   1.717   4.241   5.482
 2684SOL     OW 8803   0.550   3.920   4.609
 2684SOL    HW1 8804   0.545   3.915   4.709
 2684SOL    HW2 8805   0.552   4.016   4.580
 2685SOL     OW 8806   1.458   4.459   4.452
 2685SOL    HW1 8807   1.453   4.394   4.527
 2685SOL    HW2 8808   1.538   4.518   4.465
 2686SOL     OW 8809   0.202   4.009   5.222
 2686SOL    HW1 8810   0.122   4.069   5.209
 2686SOL    HW2 8811   0.192   3.960   5.308
 2687SOL     OW 8812   1.400   3.831   4.150
 2687SOL    HW1 8813   1.376   3.794   4.060
 2687SOL    HW2 8814   1.499   3.847   4.154
 2688SOL     OW 8815   0.382   4.424   4.204
 2688SOL    HW1 8816   0.427   4.334   4.201
 2688SOL    HW2 8817   0.288   4.413   4.237
 2689SOL     OW 8818   1.547   3.946   5.453
 2689SOL    HW1 8819   1.542   3.983   5.545
 2689SOL    HW2 8820   1.475   3.877   5.441
 2690SOL     OW 8821   0.614   3.846   3.841
 2690SOL    HW1 8822   0.712   3.824   3.848
 2690SOL    HW2 8823   0.583   3.829   3.748
 2691SOL     OW 8824   0.781   3.988   5.473
 2691SOL    HW1 8825   0.848   3.927   5.516
 2691SOL    HW2 8826   0.708   4.007   5.538
 2692SOL     OW 8827   1.351   4.314   5.157
 2692SOL    HW1 8828   1.379   4.271   5.242
 2692SOL    HW2 8829   1.376   4.410   5.158
 2693SOL     OW 8830   0.922   4.227   4.623
 2693SOL    HW1 8831   0.897   4.218   4.527
 2693SOL    HW2 8832   0.970   4.145   4.654
 2694SOL     OW 8833   0.539   3.788   4.236
 2694SOL    HW1 8834   0.458   3.789   4.294
 2694SOL    HW2 8835   0.542   3.871   4.181
 2695SOL     OW 8836   0.297   3.759   3.895
 2695SOL    HW1 8837   0.346   3.843   3.874
 2695SOL    HW2 8838   0.359   3.694   3.940
 2696SOL     OW 8839   0.935   3.960   4.204
 2696SOL    HW1 8840   0.887   4.001   4.126
 2696SOL    HW2 8841   1.034   3.958   4.185
 2697SOL     OW 8842   1.076   4.407   5.188
 2697SOL    HW1 8843   0.996   4.346   5.191
 2697SOL    HW2 8844   1.157   4.354   5.164
 2698SOL     OW 8845   1.032   4.273   3.740
 2698SOL    HW1 8846   0.991   4.355   3.701
 2698SOL    HW2 8847   1.096   4.299   3.813
 2699SOL     OW 8848   0.078   4.280   5.110
 2699SOL    HW1 8849   0.170   4.279   5.069
 2699SOL    HW2 8850   0.072   4.354   5.177
 2700SOL     OW 8851   0.561   3.946   4.871
 2700SOL    HW1 8852   0.599   3.862   4.908
 2700SOL    HW2 8853   0.473   3.965   4.915
 2701SOL     OW 8854   0.866   4.178   4.366
 2701SOL    HW1 8855   0.834   4.250   4.304
 2701SOL    HW2 8856   0.890   4.097   4.313
 2702SOL     OW 8857   1.017   3.763   4.477
 2702SOL    HW1 8858   0.945   3.768   4.408
 2702SOL    HW2 8859   0.993   3.694   4.546
 2703SOL     OW 8860   1.466   4.314   4.716
 2703SOL    HW1 8861   1.436   4.219   4.723
 2703SOL    HW2 8862   1.539   4.330   4.782
 2704SOL     OW 8863   1.390   4.299   3.802
 2704SOL    HW1 8864   1.336   4.278   3.883
 2704SOL    HW2 8865   1.481   4.258   3.811
 2705SOL     OW 8866   0.527   3.980   4.052
 2705SOL    HW1 8867   0.554   3.921   3.977
 2705SOL    HW2 8868   0.527   4.075   4.021
 2706SOL     OW 8869   0.915   3.813   5.126
 2706SOL    HW1 8870   0.940   3.793   5.031
 2706SOL    HW2 8871   0.987   3.869   5.168
 2707SOL     OW 8872   0.410   4.537   4.975
 2707SOL    HW1 8873   0.496   4.549   5.025
 2707SOL    HW2 8874   0.368   4.450   5.002
 2708SOL     OW 8875   1.274   4.110   4.986
 2708SOL    HW1 8876   1.295   4.184   5.050
 2708SOL    HW2 8877   1.185   4.127   4.943
 2709SOL     OW 8878   0.566   4.261   4.589
 2709SOL    HW1 8879   0.578   4.327   4.515
 2709SOL    HW2 8880   0.612   4.295   4.672
 2710SOL     OW 8881   1.582   4.363   4.196
 2710SOL    HW1 8882   1.551   4.424   4.269
 2710SOL    HW2 8883   1.632   4.415   4.127
 2711SOL     OW 8884   1.013   3.829   5.494
 2711SOL    HW1 8885   1.019   3.914   5.442
 2711SOL    HW2 8886   1.045   3.753   5.437
 2712SOL     OW 8887   0.504   3.774   5.464
 2712SOL    HW1 8888   0.462   3.717   5.394
 2712SOL    HW2 8889   0.438   3.843   5.496
 2713SOL     OW 8890   1.209   4.249   3.999
 2713SOL    HW1 8891   1.222   4.165   4.053
 2713SOL    HW2 8892   1.180   4.323   4.059
 2714SOL     OW 8893   0.307   3.937   4.955
 2714SOL    HW1 8894   0.284   3.974   5.045
 2714SOL    HW2 8895   0.277   3.842   4.949
 2715SOL     OW 8896   0.732   4.358   4.788
 2715SOL    HW1 8897   0.791   4.332   4.712
 2715SOL    HW2 8898   0.704   4.454   4.777
 2716SOL     OW 8899   1.728   4.659   5.578
 2716SOL    HW1 8900   1.682   4.652   5.489
 2716SOL    HW2 8901   1.666   4.703   5.644
 2717SOL     OW 8902   0.307   3.787   4.342
 2717SOL    HW1 8903   0.296   3.881   4.375
 2717SOL    HW2 8904   0.302   3.724   4.419
 2718SOL     OW 8905   1.622   4.091   4.098
 2718SOL    HW1 8906   1.624   4.015   4.162
 2718SOL    HW2 8907   1.574   4.168   4.138
 2719SOL     OW 8908   1.540   3.998   3.849
 2719SOL    HW1 8909   1.479   3.923   3.872
 2719SOL    HW2 8910   1.562   4.050   3.932
 2720SOL     OW 8911   0.319   4.534   4.673
 2720SOL    HW1 8912   0.412   4.570   4.678
 2720SOL    HW2 8913   0.313   4.449   4.725
 2721SOL     OW 8914   0.339   4.233   4.730
 2721SOL    HW1 8915   0.287   4.150   4.713
 2721SOL    HW2 8916   0.416   4.238   4.666
 2722SOL     OW 8917   1.138   4.104   5.402
 2722SOL    HW1 8918   1.093   4.167   5.466
 2722SOL    HW2 8919   1.231   4.135   5.385
 2723SOL     OW 8920   1.160   3.931   5.201
 2723SOL    HW1 8921   1.160   3.995   5.278
 2723SOL    HW2 8922   1.188   3.979   5.118
 2724SOL     OW 8923   0.040   4.268   4.838
 2724SOL    HW1 8924   0.125   4.235   4.797
 2724SOL    HW2 8925   0.053   4.283   4.936
 2725SOL     OW 8926   0.189   4.244   5.446
 2725SOL    HW1 8927   0.248   4.204   5.376
 2725SOL    HW2 8928   0.131   4.315   5.405
 2726SOL     OW 8929   0.815   4.296   4.049
 2726SOL    HW1 8930   0.822   4.207   4.003
 2726SOL    HW2 8931   0.721   4.330   4.041
 2727SOL     OW 8932   1.657   4.328   4.930
 2727SOL    HW1 8933   1.619   4.259   4.992
 2727SOL    HW2 8934   1.739   4.292   4.886
 2728SOL     OW 8935   0.671   4.188   4.993
 2728SOL    HW1 8936   0.637   4.099   4.963
 2728SOL    HW2 8937   0.697   4.242   4.913
 2729SOL     OW 8938   0.473   4.224   3.915
 2729SOL    HW1 8939   0.534   4.304   3.919
 2729SOL    HW2 8940   0.378   4.255   3.922
 2730SOL     OW 8941   1.726   3.859   4.247
 2730SOL    HW1 8942   1.799   3.842   4.180
 2730SOL    HW2 8943   1.695   3.772   4.285
 2731SOL     OW 8944   1.280   4.651   4.396
 2731SOL    HW1 8945   1.340   4.570   4.398
 2731SOL    HW2 8946   1.320   4.720   4.336
 2732SOL     OW 8947   1.841   3.899   4.687
 2732SOL    HW1 8948   1.880   3.814   4.651
 2732SOL    HW2 8949   1.743   3.901   4.668
 2733SOL     OW 8950   0.263   4.050   4.444
 2733SOL    HW1 8951   0.184   4.101   4.410
 2733SOL    HW2 8952   0.254   4.035   4.542
 2734SOL     OW 8953   0.916   4.634   4.015
 2734SOL    HW1 8954   0.979   4.672   3.947
 2734SOL    HW2 8955   0.956   4.551   4.054
 2735SOL     OW 8956   1.039   4.822   4.420
 2735SOL    HW1 8957   0.969   4.775   4.474
 2735SOL    HW2 8958   1.098   4.754   4.377
 2736SOL     OW 8959   1.014   3.960   4.695
 2736SOL    HW1 8960   1.006   3.924   4.602
 2736SOL    HW2 8961   1.012   3.884   4.760
 2737SOL     OW 8962   1.709   4.109   5.105
 2737SOL    HW1 8963   1.782   4.178   5.109
 2737SOL    HW2 8964   1.737   4.034   5.046
 2738SOL     OW 8965   0.672   3.927   5.213
 2738SOL    HW1 8966   0.762   3.911   5.173
 2738SOL    HW2 8967   0.680   3.932   5.312
 2739SOL     OW 8968   0.075   4.069   3.757
 2739SOL    HW1 8969  -0.017   4.041   3.728
 2739SOL    HW2 8970   0.106   4.146   3.701
 2740SOL     OW 8971   0.072   3.890   4.042
 2740SOL    HW1 8972   0.055   3.973   3.988
 2740SOL    HW2 8973   0.162   3.853   4.020
 2741SOL     OW 8974   0.716   4.289   5.432
 2741SOL    HW1 8975   0.735   4.354   5.506
 2741SOL    HW2 8976   0.776   4.209   5.441
 2742SOL     OW 8977   1.225   4.049   4.173
 2742SOL    HW1 8978   1.290   3.975   4.162
 2742SOL    HW2 8979   1.245   4.099   4.257
 2743SOL     OW 8980   1.777   4.066   5.366
 2743SOL    HW1 8981   1.760   4.097   5.272
 2743SOL    HW2 8982   1.693   4.029   5.404
 2744SOL     OW 8983   1.083   4.708   3.811
 2744SOL    HW1 8984   1.060   4.761   3.729
 2744SOL    HW2 8985   1.164   4.652   3.792
 2745SOL     OW 8986   1.824   3.916   4.951
 2745SOL    HW1 8987   1.820   3.826   4.995
 2745SOL    HW2 8988   1.827   3.905   4.852
 2746SOL     OW 8989   0.428   4.148   4.244
 2746SOL    HW1 8990   0.458   4.076   4.182
 2746SOL    HW2 8991   0.389   4.108   4.327
 2747SOL     OW 8992   0.317   4.271   5.004
 2747SOL    HW1 8993   0.355   4.212   5.076
 2747SOL    HW2 8994   0.357   4.245   4.916
 2748SOL     OW 8995   1.424   3.938   4.836
 2748SOL    HW1 8996   1.476   3.873   4.891
 2748SOL    HW2 8997   1.375   4.001   4.897
 2749SOL     OW 8998   1.001   3.758   4.878
 2749SOL    HW1 8999   0.938   3.686   4.847
 2749SOL    HW2 9000   1.094   3.722   4.878
 2750SOL     OW 9001   1.352   3.776   3.892
 2750SOL    HW1 9002   1.387   3.735   3.808
 2750SOL    HW2 9003   1.262   3.738   3.912
 2751SOL     OW 9004   1.300   4.177   4.415
 2751SOL    HW1 9005   1.241   4.257   4.419
 2751SOL    HW2 9006   1.315   4.142   4.508
 2752SOL     OW 9007   1.593   3.945   4.606
 2752SOL    HW1 9008   1.509   3.944   4.660
 2752SOL    HW2 9009   1.595   4.028   4.550
 2753SOL     OW 9010   0.230   4.352   5.699
 2753SOL    HW1 9011   0.137   4.350   5.736
 2753SOL    HW2 9012   0.231   4.313   5.607
 2754SOL     OW 9013   0.225   3.999   6.582
 2754SOL    HW1 9014   0.260   3.982   6.674
 2754SOL    HW2 9015   0.137   3.954   6.570
 2755SOL     OW 9016   0.019   4.092   6.233
 2755SOL    HW1 9017  -0.063   4.135   6.272
 2755SOL    HW2 9018  -0.009   4.019   6.170
 2756SOL     OW 9019   1.755   4.331   5.817
 2756SOL    HW1 9020   1.743   4.318   5.718
 2756SOL    HW2 9021   1.725   4.250   5.866
 2757SOL     OW 9022   0.685   4.736   6.251
 2757SOL    HW1 9023   0.754   4.720   6.321
 2757SOL    HW2 9024   0.612   4.793   6.289
 2758SOL     OW 9025   0.438   4.116   7.085
 2758SOL    HW1 9026   0.520   4.060   7.094
 2758SOL    HW2 9027   0.357   4.058   7.089
 2759SOL     OW 9028   1.603   4.171   6.323
 2759SOL    HW1 9029   1.529   4.217   6.273
 2759SOL    HW2 9030   1.654   4.239   6.376
 2760SOL     OW 9031   1.594   3.838   7.066
 2760SOL    HW1 9032   1.576   3.905   6.994
 2760SOL    HW2 9033   1.591   3.884   7.155
 2761SOL     OW 9034   0.122   4.367   6.149
 2761SOL    HW1 9035   0.077   4.279   6.166
 2761SOL    HW2 9036   0.121   4.421   6.233
 2762SOL     OW 9037   0.113   4.461   7.183
 2762SOL    HW1 9038   0.201   4.448   7.228
 2762SOL    HW2 9039   0.100   4.558   7.161
 2763SOL     OW 9040   0.809   3.728   6.088
 2763SOL    HW1 9041   0.849   3.819   6.079
 2763SOL    HW2 9042   0.709   3.736   6.094
 2764SOL     OW 9043   0.317   3.975   7.387
 2764SOL    HW1 9044   0.388   4.046   7.393
 2764SOL    HW2 9045   0.229   4.014   7.415
 2765SOL     OW 9046   1.281   4.069   6.530
 2765SOL    HW1 9047   1.195   4.019   6.517
 2765SOL    HW2 9048   1.343   4.015   6.586
 2766SOL     OW 9049   0.807   4.329   7.051
 2766SOL    HW1 9050   0.760   4.326   7.140
 2766SOL    HW2 9051   0.756   4.274   6.985
 2767SOL     OW 9052   1.394   4.193   7.260
 2767SOL    HW1 9053   1.374   4.236   7.348
 2767SOL    HW2 9054   1.472   4.131   7.269
 2768SOL     OW 9055   0.991   4.134   6.828
 2768SOL    HW1 9056   0.914   4.168   6.882
 2768SOL    HW2 9057   0.957   4.083   6.749
 2769SOL     OW 9058   1.041   4.425   6.015
 2769SOL    HW1 9059   1.067   4.421   6.111
 2769SOL    HW2 9060   0.956   4.374   6.001
 2770SOL     OW 9061   0.076   4.535   6.375
 2770SOL    HW1 9062   0.175   4.523   6.384
 2770SOL    HW2 9063   0.052   4.630   6.396
 2771SOL     OW 9064   0.865   4.072   5.781
 2771SOL    HW1 9065   0.924   4.135   5.732
 2771SOL    HW2 9066   0.884   3.978   5.752
 2772SOL     OW 9067   1.719   4.309   7.417
 2772SOL    HW1 9068   1.693   4.398   7.381
 2772SOL    HW2 9069   1.717   4.241   7.344
 2773SOL     OW 9070   0.550   3.920   6.471
 2773SOL    HW1 9071   0.545   3.915   6.571
 2773SOL    HW2 9072   0.552   4.016   6.442
 2774SOL     OW 9073   1.458   4.459   6.314
 2774SOL    HW1 9074   1.453   4.394   6.389
 2774SOL    HW2 9075   1.538   4.518   6.327
 2775SOL     OW 9076   0.202   4.009   7.084
 2775SOL    HW1 9077   0.122   4.069   7.071
 2775SOL    HW2 9078   0.192   3.960   7.170
 2776SOL     OW 9079   1.400   3.831   6.012
 2776SOL    HW1 9080   1.376   3.794   5.922
 2776SOL    HW2 9081   1.499   3.847   6.016
 2777SOL     OW 9082   0.382   4.424   6.066
 2777SOL    HW1 9083   0.427   4.334   6.063
 2777SOL    HW2 9084   0.288   4.413   6.099
 2778SOL     OW 9085   1.547   3.946   7.315
 2778SOL    HW1 9086   1.542   3.983   7.407
 2778SOL    HW2 9087   1.475   3.877   7.303
 2779SOL     OW 9088   0.614   3.846   5.703
 2779SOL    HW1 9089   0.712   3.824   5.710
 2779SOL    HW2 9090   0.583   3.829   5.610
 2780SOL     OW 9091   0.781   3.988   7.335
 2780SOL    HW1 9092   0.848   3.927   7.378
 2780SOL    HW2 9093   0.708   4.007   7.400
 2781SOL     OW 9094   1.351   4.314   7.019
 2781SOL    HW1 9095   1.379   4.271   7.104
 2781SOL    HW2 9096   1.376   4.410   7.020
 2782SOL     OW 9097   0.922   4.227   6.485
 2782SOL    HW1 9098   0.897   4.218   6.389
 2782SOL    HW2 9099   0.970   4.145   6.516
 2783SOL     OW 9100   0.539   3.788   6.098
 2783SOL    HW1 9101   0.458   3.789   6.156
 2783SOL    HW2 9102   0.542   3.871   6.043
 2784SOL     OW 9103   0.297   3.759   5.757
 2784SOL    HW1 9104   0.346   3.843   5.736
 2784SOL    HW2 9105   0.359   3.694   5.802
 2785SOL     OW 9106   0.935   3.960   6.066
 2785SOL    HW1 9107   0.887   4.001   5.988
 2785SOL    HW2 9108   1.034   3.958   6.047
 2786SOL     OW 9109   1.076   4.407   7.050
 2786SOL    HW1 9110   0.996   4.346   7.053
 2786SOL    HW2 9111   1.157   4.354   7.026
 2787SOL     OW 9112   1.032   4.273   5.602
 2787SOL    HW1 9113   0.991   4.355   5.563
 2787SOL    HW2 9114   1.096   4.299   5.675
 2788SOL     OW 9115   0.078   4.280   6.972
 2788SOL    HW1 9116   0.170   4.279   6.931
 2788SOL    HW2 9117   0.072   4.354   7.039
 2789SOL     OW 9118   0.561   3.946   6.733
 2789SOL    HW1 9119   0.599   3.862   6.770
 2789SOL    HW2 9120   0.473   3.965   6.777
 2790SOL     OW 9121   0.866   4.178   6.228
 2790SOL    HW1 9122   0.834   4.250   6.166
 2790SOL    HW2 9123   0.890   4.097   6.175
 2791SOL     OW 9124   1.017   3.763   6.339
 2791SOL    HW1 9125   0.945   3.768   6.270
 2791SOL    HW2 9126   0.993   3.694   6.408
 2792SOL     OW 9127   1.466   4.314   6.578
 2792SOL    HW1 9128   1.436   4.219   6.585
 2792SOL    HW2 9129   1.539   4.330   6.644
 2793SOL     OW 9130   1.390   4.299   5.664
 2793SOL    HW1 9131   1.336   4.278   5.745
 2793SOL    HW2 9132   1.481   4.258   5.673
 2794SOL     OW 9133   0.527   3.980   5.914
 2794SOL    HW1 9134   0.554   3.921   5.839
 2794SOL    HW2 9135   0.527   4.075   5.883
 2795SOL     OW 9136   0.915   3.813   6.988
 2795SOL    HW1 9137   0.940   3.793   6.893
 2795SOL    HW2 9138   0.987   3.869   7.030
 2796SOL     OW 9139   0.410   4.537   6.837
 2796SOL    HW1 9140   0.496   4.549   6.887
 2796SOL    HW2 9141   0.368   4.450   6.864
 2797SOL     OW 9142   1.274   4.110   6.848
 2797SOL    HW1 9143   1.295   4.184   6.912
 2797SOL    HW2 9144   1.185   4.127   6.805
 2798SOL     OW 9145   0.566   4.261   6.451
 2798SOL    HW1 9146   0.578   4.327   6.377
 2798SOL    HW2 9147   0.612   4.295   6.534
 2799SOL     OW 9148   1.582   4.363   6.058
 2799SOL    HW1 9149   1.551   4.424   6.131
 2799SOL    HW2 9150   1.632   4.415   5.989
 2800SOL     OW 9151   1.013   3.829   7.356
 2800SOL    HW1 9152   1.019   3.914   7.304
 2800SOL    HW2 9153   1.045   3.753   7.299
 2801SOL     OW 9154   0.504   3.774   7.326
 2801SOL    HW1 9155   0.462   3.717   7.256
 2801SOL    HW2 9156   0.438   3.843   7.358
 2802SOL     OW 9157   1.209   4.249   5.861
 2802SOL    HW1 9158   1.222   4.165   5.915
 2802SOL    HW2 9159   1.180   4.323   5.921
 2803SOL     OW 9160   0.307   3.937   6.817
 2803SOL    HW1 9161   0.284   3.974   6.907
 2803SOL    HW2 9162   0.277   3.842   6.811
 2804SOL     OW 9163   0.732   4.358   6.650
 2804SOL    HW1 9164   0.791   4.332   6.574
 2804SOL    HW2 9165   0.704   4.454   6.639
 2805SOL     OW 9166   1.728   4.659   7.440
 2805SOL    HW1 9167   1.682   4.652   7.351
 2805SOL    HW2 9168   1.666   4.703   7.506
 2806SOL     OW 9169   0.307   3.787   6.204
 2806SOL    HW1 9170   0.296   3.881   6.237
 2806SOL    HW2 9171   0.302   3.724   6.281
 2807SOL     OW 9172   1.622   4.091   5.960
 2807SOL    HW1 9173   1.624   4.015   6.024
 2807SOL    HW2 9174   1.574   4.168   6.000
 2808SOL     OW 9175   1.540   3.998   5.711
 2808SOL    HW1 9176   1.479   3.923   5.734
 2808SOL    HW2 9177   1.562   4.050   5.794
 2809SOL     OW 9178   0.319   4.534   6.535
 2809SOL    HW1 9179   0.412   4.570   6.540
 2809SOL    HW2 9180   0.313   4.449   6.587
 2810SOL     OW 9181   0.339   4.233   6.592
 2810SOL    HW1 9182   0.287   4.150   6.575
 2810SOL    HW2 9183   0.416   4.238   6.528
 2811SOL     OW 9184   1.138   4.104   7.264
 2811SOL    HW1 9185   1.093   4.167   7.328
 2811SOL    HW2 9186   1.231   4.135   7.247
 2812SOL     OW 9187   1.160   3.931   7.063
 2812SOL    HW1 9188   1.160   3.995   7.140
 2812SOL    HW2 9189   1.188   3.979   6.980
 2813SOL     OW 9190   0.040   4.268   6.700
 2813SOL    HW1 9191   0.125   4.235   6.659
 2813SOL    HW2 9192   0.053   4.283   6.798
 2814SOL     OW 9193   0.189   4.244   7.308
 2814SOL    HW1 9194   0.248   4.204   7.238
 2814SOL    HW2 9195   0.131   4.315   7.267
 2815SOL     OW 9196   0.815   4.296   5.911
 2815SOL    HW1 9197   0.822   4.207   5.865
 2815SOL    HW2 9198   0.721   4.330   5.903
 2816SOL     OW 9199   1.657   4.328   6.792
 2816SOL    HW1 9200   1.619   4.259   6.854
 2816SOL    HW2 9201   1.739   4.292   6.748
 2817SOL     OW 9202   0.671   4.188   6.855
 2817SOL    HW1 9203   0.637   4.099   6.825
 2817SOL    HW2 9204   0.697   4.242   6.775
 2818SOL     OW 9205   0.473   4.224   5.777
 2818SOL    HW1 9206   0.534   4.304   5.781
 2818SOL    HW2 9207   0.378   4.255   5.784
 2819SOL     OW 9208   1.726   3.859   6.109
 2819SOL    HW1 9209   1.799   3.842   6.042
 2819SOL    HW2 9210   1.695   3.772   6.147
 2820SOL     OW 9211   1.280   4.651   6.258
 2820SOL    HW1 9212   1.340   4.570   6.260
 2820SOL    HW2 9213   1.320   4.720   6.198
 2821SOL     OW 9214   1.841   3.899   6.549
 2821SOL    HW1 9215   1.880   3.814   6.513
 2821SOL    HW2 9216   1.743   3.901   6.530
 2822SOL     OW 9217   0.263   4.050   6.306
 2822SOL    HW1 9218   0.184   4.101   6.272
 2822SOL    HW2 9219   0.254   4.035   6.404
 2823SOL     OW 9220   0.916   4.634   5.877
 2823SOL    HW1 9221   0.979   4.672   5.809
 2823SOL    HW2 9222   0.956   4.551   5.916
 2824SOL     OW 9223   1.039   4.822   6.282
 2824SOL    HW1 9224   0.969   4.775   6.336
 2824SOL    HW2 9225   1.098   4.754   6.239
 2825SOL     OW 9226   1.014   3.960   6.557
 2825SOL    HW1 9227   1.006   3.924   6.464
 2825SOL    HW2 9228   1.012   3.884   6.622
 2826SOL     OW 9229   1.709   4.109   6.967
 2826SOL    HW1 9230   1.782   4.178   6.971
 2826SOL    HW2 9231   1.737   4.034   6.908
 2827SOL     OW 9232   0.672   3.927   7.075
 2827SOL    HW1 9233   0.762   3.911   7.035
 2827SOL    HW2 9234   0.680   3.932   7.174
 2828SOL     OW 9235   0.075   4.069   5.619
 2828SOL    HW1 9236  -0.017   4.041   5.590
 2828SOL    HW2 9237   0.106   4.146   5.563
 2829SOL     OW 9238   0.072   3.890   5.904
 2829SOL    HW1 9239   0.055   3.973   5.850
 2829SOL    HW2 9240   0.162   3.853   5.882
 2830SOL     OW 9241   0.716   4.289   7.294
 2830SOL    HW1 9242   0.735   4.354   7.368
 2830SOL    HW2 9243   0.776   4.209   7.303
 2831SOL     OW 9244   1.225   4.049   6.035
 2831SOL    HW1 9245   1.290   3.975   6.024
 2831SOL    HW2 9246   1.245   4.099   6.119
 2832SOL     OW 9247   1.777   4.066   7.228
 2832SOL    HW1 9248   1.760   4.097   7.134
 2832SOL    HW2 9249   1.693   4.029   7.266
 2833SOL     OW 9250   1.083   4.708   5.673
 2833SOL    HW1 9251   1.060   4.761   5.591
 2833SOL    HW2 9252   1.164   4.652   5.654
 2834SOL     OW 9253   1.824   3.916   6.813
 2834SOL    HW1 9254   1.820   3.826   6.857
 2834SOL    HW2 9255   1.827   3.905   6.714
 2835SOL     OW 9256   0.428   4.148   6.106
 2835SOL    HW1 9257   0.458   4.076   6.044
 2835SOL    HW2 9258   0.389   4.108   6.189
 2836SOL     OW 9259   0.317   4.271   6.866
 2836SOL    HW1 9260   0.355   4.212   6.938
 2836SOL    HW2 9261   0.357   4.245   6.778
 2837SOL     OW 9262   1.424   3.938   6.698
 2837SOL    HW1 9263   1.476   3.873   6.753
 2837SOL    HW2 9264   1.375   4.001   6.759
 2838SOL     OW 9265   1.001   3.758   6.740
 2838SOL    HW1 9266   0.938   3.686   6.709
 2838SOL    HW2 9267   1.094   3.722   6.740
 2839SOL     OW 9268   1.352   3.776   5.754
 2839SOL    HW1 9269   1.387   3.735   5.670
 2839SOL    HW2 9270   1.262   3.738   5.774
 2840SOL     OW 9271   1.300   4.177   6.277
 2840SOL    HW1 9272   1.241   4.257   6.281
 2840SOL    HW2 9273   1.315   4.142   6.370
 2841SOL     OW 9274   1.593   3.945   6.468
 2841SOL    HW1 9275   1.509   3.944   6.522
 2841SOL    HW2 9276   1.595   4.028   6.412
 2842SOL     OW 9277   0.230   4.352   7.561
 2842SOL    HW1 9278   0.137   4.350   7.598
 2842SOL    HW2 9279   0.231   4.313   7.469
 2843SOL     OW 9280   0.225   3.999   8.444
 2843SOL    HW1 9281   0.260   3.982   8.536
 2843SOL    HW2 9282   0.137   3.954   8.432
 2844SOL     OW 9283   0.019   4.092   8.095
 2844SOL    HW1 9284  -0.063   4.135   8.134
 2844SOL    HW2 9285  -0.009   4.019   8.032
 2845SOL     OW 9286   1.755   4.331   7.679
 2845SOL    HW1 9287   1.743   4.318   7.580
 2845SOL    HW2 9288   1.725   4.250   7.728
 2846SOL     OW 9289   0.685   4.736   8.113
 2846SOL    HW1 9290   0.754   4.720   8.183
 2846SOL    HW2 9291   0.612   4.793   8.151
 2847SOL     OW 9292   0.438   4.116   8.947
 2847SOL    HW1 9293   0.520   4.060   8.956
 2847SOL    HW2 9294   0.357   4.058   8.951
 2848SOL     OW 9295   1.603   4.171   8.185
 2848SOL    HW1 9296   1.529   4.217   8.135
 2848SOL    HW2 9297   1.654   4.239   8.238
 2849SOL     OW 9298   1.594   3.838   8.928
 2849SOL    HW1 9299   1.576   3.905   8.856
 2849SOL    HW2 9300   1.591   3.884   9.017
 2850SOL     OW 9301   0.122   4.367   8.011
 2850SOL    HW1 9302   0.077   4.279   8.028
 2850SOL    HW2 9303   0.121   4.421   8.095
 2851SOL     OW 9304   0.113   4.461   9.045
 2851SOL    HW1 9305   0.201   4.448   9.090
 2851SOL    HW2 9306   0.100   4.558   9.023
 2852SOL     OW 9307   0.809   3.728   7.950
 2852SOL    HW1 9308   0.849   3.819   7.941
 2852SOL    HW2 9309   0.709   3.736   7.956
 2853SOL     OW 9310   0.317   3.975   9.249
 2853SOL    HW1 9311   0.388   4.046   9.255
 2853SOL    HW2 9312   0.229   4.014   9.277
 2854SOL     OW 9313   1.281   4.069   8.392
 2854SOL    HW1 9314   1.195   4.019   8.379
 2854SOL    HW2 9315   1.343   4.015   8.448
 2855SOL     OW 9316   0.807   4.329   8.913
 2855SOL    HW1 9317   0.760   4.326   9.002
 2855SOL    HW2 9318   0.756   4.274   8.847
 2856SOL     OW 9319   1.394   4.193   9.122
 2856SOL    HW1 9320   1.374   4.236   9.210
 2856SOL    HW2 9321   1.472   4.131   9.131
 2857SOL     OW 9322   0.991   4.134   8.690
 2857SOL    HW1 9323   0.914   4.168   8.744
 2857SOL    HW2 9324   0.957   4.083   8.611
 2858SOL     OW 9325   1.041   4.425   7.877
 2858SOL    HW1 9326   1.067   4.421   7.973
 2858SOL    HW2 9327   0.956   4.374   7.863
 2859SOL     OW 9328   0.076   4.535   8.237
 2859SOL    HW1 9329   0.175   4.523   8.246
 2859SOL    HW2 9330   0.052   4.630   8.258
 2860SOL     OW 9331   0.865   4.072   7.643
 2860SOL    HW1 9332   0.924   4.135   7.594
 2860SOL    HW2 9333   0.884   3.978   7.614
 2861SOL     OW 9334   1.719   4.309   9.279
 2861SOL    HW1 9335   1.693   4.398   9.243
 2861SOL    HW2 9336   1.717   4.241   9.206
 2862SOL     OW 9337   0.550   3.920   8.333
 2862SOL    HW1 9338   0.545   3.915   8.433
 2862SOL    HW2 9339   0.552   4.016   8.304
 2863SOL     OW 9340   1.458   4.459   8.176
 2863SOL    HW1 9341   1.453   4.394   8.251
 2863SOL    HW2 9342   1.538   4.518   8.189
 2864SOL     OW 9343   0.202   4.009   8.946
 2864SOL    HW1 9344   0.122   4.069   8.933
 2864SOL    HW2 9345   0.192   3.960   9.032
 2865SOL     OW 9346   1.400   3.831   7.874
 2865SOL    HW1 9347   1.376   3.794   7.784
 2865SOL    HW2 9348   1.499   3.847   7.878
 2866SOL     OW 9349   0.382   4.424   7.928
 2866SOL    HW1 9350   0.427   4.334   7.925
 2866SOL    HW2 9351   0.288   4.413   7.961
 2867SOL     OW 9352   1.547   3.946   9.177
 2867SOL    HW1 9353   1.542   3.983   9.269
 2867SOL    HW2 9354   1.475   3.877   9.165
 2868SOL     OW 9355   0.614   3.846   7.565
 2868SOL    HW1 9356   0.712   3.824   7.572
 2868SOL    HW2 9357   0.583   3.829   7.472
 2869SOL     OW 9358   0.781   3.988   9.197
 2869SOL    HW1 9359   0.848   3.927   9.240
 2869SOL    HW2 9360   0.708   4.007   9.262
 2870SOL     OW 9361   1.351   4.314   8.881
 2870SOL    HW1 9362   1.379   4.271   8.966
 2870SOL    HW2 9363   1.376   4.410   8.882
 2871SOL     OW 9364   0.922   4.227   8.347
 2871SOL    HW1 9365   0.897   4.218   8.251
 2871SOL    HW2 9366   0.970   4.145   8.378
 2872SOL     OW 9367   0.539   3.788   7.960
 2872SOL    HW1 9368   0.458   3.789   8.018
 2872SOL    HW2 9369   0.542   3.871   7.905
 2873SOL     OW 9370   0.297   3.759   7.619
 2873SOL    HW1 9371   0.346   3.843   7.598
 2873SOL    HW2 9372   0.359   3.694   7.664
 2874SOL     OW 9373   0.935   3.960   7.928
 2874SOL    HW1 9374   0.887   4.001   7.850
 2874SOL    HW2 9375   1.034   3.958   7.909
 2875SOL     OW 9376   1.076   4.407   8.912
 2875SOL    HW1 9377   0.996   4.346   8.915
 2875SOL    HW2 9378   1.157   4.354   8.888
 2876SOL     OW 9379   1.032   4.273   7.464
 2876SOL    HW1 9380   0.991   4.355   7.425
 2876SOL    HW2 9381   1.096   4.299   7.537
 2877SOL     OW 9382   0.078   4.280   8.834
 2877SOL    HW1 9383   0.170   4.279   8.793
 2877SOL    HW2 9384   0.072   4.354   8.901
 2878SOL     OW 9385   0.561   3.946   8.595
 2878SOL    HW1 9386   0.599   3.862   8.632
 2878SOL    HW2 9387   0.473   3.965   8.639
 2879SOL     OW 9388   0.866   4.178   8.090
 2879SOL    HW1 9389   0.834   4.250   8.028
 2879SOL    HW2 9390   0.890   4.097   8.037
 2880SOL     OW 9391   1.017   3.763   8.201
 2880SOL    HW1 9392   0.945   3.768   8.132
 2880SOL    HW2 9393   0.993   3.694   8.270
 2881SOL     OW 9394   1.466   4.314   8.440
 2881SOL    HW1 9395   1.436   4.219   8.447
 2881SOL    HW2 9396   1.539   4.330   8.506
 2882SOL     OW 9397   1.390   4.299   7.526
 2882SOL    HW1 9398   1.336   4.278   7.607
 2882SOL    HW2 9399   1.481   4.258   7.535
 2883SOL     OW 9400   0.527   3.980   7.776
 2883SOL    HW1 9401   0.554   3.921   7.701
 2883SOL    HW2 9402   0.527   4.075   7.745
 2884SOL     OW 9403   0.915   3.813   8.850
 2884SOL    HW1 9404   0.940   3.793   8.755
 2884SOL    HW2 9405   0.987   3.869   8.892
 2885SOL     OW 9406   0.410   4.537   8.699
 2885SOL    HW1 9407   0.496   4.549   8.749
 2885SOL    HW2 9408   0.368   4.450   8.726
 2886SOL     OW 9409   1.274   4.110   8.710
 2886SOL    HW1 9410   1.295   4.184   8.774
 2886SOL    HW2 9411   1.185   4.127   8.667
 2887SOL     OW 9412   0.566   4.261   8.313
 2887SOL    HW1 9413   0.578   4.327   8.239
 2887SOL    HW2 9414   0.612   4.295   8.396
 2888SOL     OW 9415   1.582   4.363   7.920
 2888SOL    HW1 9416   1.551   4.424   7.993
 2888SOL    HW2 9417   1.632   4.415   7.851
 2889SOL     OW 9418   1.013   3.829   9.218
 2889SOL    HW1 9419   1.019   3.914   9.166
 2889SOL    HW2 9420   1.045   3.753   9.161
 2890SOL     OW 9421   0.504   3.774   9.188
 2890SOL    HW1 9422   0.462   3.717   9.118
 2890SOL    HW2 9423   0.438   3.843   9.220
 2891SOL     OW 9424   1.209   4.249   7.723
 2891SOL    HW1 9425   1.222   4.165   7.777
 2891SOL    HW2 9426   1.180   4.323   7.783
 2892SOL     OW 9427   0.307   3.937   8.679
 2892SOL    HW1 9428   0.284   3.974   8.769
 2892SOL    HW2 9429   0.277   3.842   8.673
 2893SOL     OW 9430   0.732   4.358   8.512
 2893SOL    HW1 9431   0.791   4.332   8.436
 2893SOL    HW2 9432   0.704   4.454   8.501
 2894SOL     OW 9433   1.728   4.659   9.302
 2894SOL    HW1 9434   1.682   4.652   9.213
 2894SOL    HW2 9435   1.666   4.703   9.368
 2895SOL     OW 9436   0.307   3.787   8.066
 2895SOL    HW1 9437   0.296   3.881   8.099
 2895SOL    HW2 9438   0.302   3.724   8.143
 2896SOL     OW 9439   1.622   4.091   7.822
 2896SOL    HW1 9440   1.624   4.015   7.886
 2896SOL    HW2 9441   1.574   4.168   7.862
 2897SOL     OW 9442   1.540   3.998   7.573
 2897SOL    HW1 9443   1.479   3.923   7.596
 2897SOL    HW2 9444   1.562   4.050   7.656
 2898SOL     OW 9445   0.319   4.534   8.397
 2898SOL    HW1 9446   0.412   4.570   8.402
 2898SOL    HW2 9447   0.313   4.449   8.449
 2899SOL     OW 9448   0.339   4.233   8.454
 2899SOL    HW1 9449   0.287   4.150   8.437
 2899SOL    HW2 9450   0.416   4.238   8.390
 2900SOL     OW 9451   1.138   4.104   9.126
 2900SOL    HW1 9452   1.093   4.167   9.190
 2900SOL    HW2 9453   1.231   4.135   9.109
 2901SOL     OW 9454   1.160   3.931   8.925
 2901SOL    HW1 9455   1.160   3.995   9.002
 2901SOL    HW2 9456   1.188   3.979   8.842
 2902SOL     OW 9457   0.040   4.268   8.562
 2902SOL    HW1 9458   0.125   4.235   8.521
 2902SOL    HW2 9459   0.053   4.283   8.660
 2903SOL     OW 9460   0.189   4.244   9.170
 2903SOL    HW1 9461   0.248   4.204   9.100
 2903SOL    HW2 9462   0.131   4.315   9.129
 2904SOL     OW 9463   0.815   4.296   7.773
 2904SOL    HW1 9464   0.822   4.207   7.727
 2904SOL    HW2 9465   0.721   4.330   7.765
 2905SOL     OW 9466   1.657   4.328   8.654
 2905SOL    HW1 9467   1.619   4.259   8.716
 2905SOL    HW2 9468   1.739   4.292   8.610
 2906SOL     OW 9469   0.671   4.188   8.717
 2906SOL    HW1 9470   0.637   4.099   8.687
 2906SOL    HW2 9471   0.697   4.242   8.637
 2907SOL     OW 9472   0.473   4.224   7.639
 2907SOL    HW1 9473   0.534   4.304   7.643
 2907SOL    HW2 9474   0.378   4.255   7.646
 2908SOL     OW 9475   1.726   3.859   7.971
 2908SOL    HW1 9476   1.799   3.842   7.904
 2908SOL    HW2 9477   1.695   3.772   8.009
 2909SOL     OW 9478   1.280   4.651   8.120
 2909SOL    HW1 9479   1.340   4.570   8.122
 2909SOL    HW2 9480   1.320   4.720   8.060
 2910SOL     OW 9481   1.841   3.899   8.411
 2910SOL    HW1 9482   1.880   3.814   8.375
 2910SOL    HW2 9483   1.743   3.901   8.392
 2911SOL     OW 9484   0.263   4.050   8.168
 2911SOL    HW1 9485   0.184   4.101   8.134
 2911SOL    HW2 9486   0.254   4.035   8.266
 2912SOL     OW 9487   0.916   4.634   7.739
 2912SOL    HW1 9488   0.979   4.672   7.671
 2912SOL    HW2 9489   0.956   4.551   7.778
 2913SOL     OW 9490   1.039   4.822   8.144
 2913SOL    HW1 9491   0.969   4.775   8.198
 2913SOL    HW2 9492   1.098   4.754   8.101
 2914SOL     OW 9493   1.014   3.960   8.419
 2914SOL    HW1 9494   1.006   3.924   8.326
 2914SOL    HW2 9495   1.012   3.884   8.484
 2915SOL     OW 9496   1.709   4.109   8.829
 2915SOL    HW1 9497   1.782   4.178   8.833
 2915SOL    HW2 9498   1.737   4.034   8.770
 2916SOL     OW 9499   0.672   3.927   8.937
 2916SOL    HW1 9500   0.762   3.911   8.897
 2916SOL    HW2 9501   0.680   3.932   9.036
 2917SOL     OW 9502   0.075   4.069   7.481
 2917SOL    HW1 9503  -0.017   4.041   7.452
 2917SOL    HW2 9504   0.106   4.146   7.425
 2918SOL     OW 9505   0.072   3.890   7.766
 2918SOL    HW1 9506   0.055   3.973   7.712
 2918SOL    HW2 9507   0.162   3.853   7.744
 2919SOL     OW 9508   0.716   4.289   9.156
 2919SOL    HW1 9509   0.735   4.354   9.230
 2919SOL    HW2 9510   0.776   4.209   9.165
 2920SOL     OW 9511   1.225   4.049   7.897
 2920SOL    HW1 9512   1.290   3.975   7.886
 2920SOL    HW2 9513   1.245   4.099   7.981
 2921SOL     OW 9514   1.777   4.066   9.090
 2921SOL    HW1 9515   1.760   4.097   8.996
 2921SOL    HW2 9516   1.693   4.029   9.128
 2922SOL     OW 9517   1.083   4.708   7.535
 2922SOL    HW1 9518   1.060   4.761   7.453
 2922SOL    HW2 9519   1.164   4.652   7.516
 2923SOL     OW 9520   1.824   3.916   8.675
 2923SOL    HW1 9521   1.820   3.826   8.719
 2923SOL    HW2 9522   1.827   3.905   8.576
 2924SOL     OW 9523   0.428   4.148   7.968
 2924SOL    HW1 9524   0.458   4.076   7.906
 2924SOL    HW2 9525   0.389   4.108   8.051
 2925SOL     OW 9526   0.317   4.271   8.728
 2925SOL    HW1 9527   0.355   4.212   8.800
 2925SOL    HW2 9528   0.357   4.245   8.640
 2926SOL     OW 9529   1.424   3.938   8.560
 2926SOL    HW1 9530   1.476   3.873   8.615
 2926SOL    HW2 9531   1.375   4.001   8.621
 2927SOL     OW 9532   1.001   3.758   8.602
 2927SOL    HW1 9533   0.938   3.686   8.571
 2927SOL    HW2 9534   1.094   3.722   8.602
 2928SOL     OW 9535   1.352   3.776   7.616
 2928SOL    HW1 9536   1.387   3.735   7.532
 2928SOL    HW2 9537   1.262   3.738   7.636
 2929SOL     OW 9538   1.300   4.177   8.139
 2929SOL    HW1 9539   1.241   4.257   8.143
 2929SOL    HW2 9540   1.315   4.142   8.232
 2930SOL     OW 9541   1.593   3.945   8.330
 2930SOL    HW1 9542   1.509   3.944   8.384
 2930SOL    HW2 9543   1.595   4.028   8.274
 2931SOL     OW 9544   0.230   4.352   9.423
 2931SOL    HW1 9545   0.137   4.350   9.460
 2931SOL    HW2 9546   0.231   4.313   9.331
 2932SOL     OW 9547   0.225   3.999  10.306
 2932SOL    HW1 9548   0.260   3.982  10.398
 2932SOL    HW2 9549   0.137   3.954  10.294
 2933SOL     OW 9550   0.019   4.092   9.957
 2933SOL    HW1 9551  -0.063   4.135   9.996
 2933SOL    HW2 9552  -0.009   4.019   9.894
 2934SOL     OW 9553   1.755   4.331   9.541
 2934SOL    HW1 9554   1.743   4.318   9.442
 2934SOL    HW2 9555   1.725   4.250   9.590
 2935SOL     OW 9556   0.685   4.736   9.975
 2935SOL    HW1 9557   0.754   4.720  10.045
 2935SOL    HW2 9558   0.612   4.793  10.013
 2936SOL     OW 9559   0.438   4.116  10.809
 2936SOL    HW1 9560   0.520   4.060  10.818
 2936SOL    HW2 9561   0.357   4.058  10.813
 2937SOL     OW 9562   1.603   4.171  10.047
 2937SOL    HW1 9563   1.529   4.217   9.997
 2937SOL    HW2 9564   1.654   4.239  10.100
 2938SOL     OW 9565   1.594   3.838  10.790
 2938SOL    HW1 9566   1.576   3.905  10.718
 2938SOL    HW2 9567   1.591   3.884  10.879
 2939SOL     OW 9568   0.122   4.367   9.873
 2939SOL    HW1 9569   0.077   4.279   9.890
 2939SOL    HW2 9570   0.121   4.421   9.957
 2940SOL     OW 9571   0.113   4.461  10.907
 2940SOL    HW1 9572   0.201   4.448  10.952
 2940SOL    HW2 9573   0.100   4.558  10.885
 2941SOL     OW 9574   0.809   3.728   9.812
 2941SOL    HW1 9575   0.849   3.819   9.803
 2941SOL    HW2 9576   0.709   3.736   9.818
 2942SOL     OW 9577   0.317   3.975  11.111
 2942SOL    HW1 9578   0.388   4.046  11.117
 2942SOL    HW2 9579   0.229   4.014  11.139
 2943SOL     OW 9580   1.281   4.069  10.254
 2943SOL    HW1 9581   1.195   4.019  10.241
 2943SOL    HW2 9582   1.343   4.015  10.310
 2944SOL     OW 9583   0.807   4.329  10.775
 2944SOL    HW1 9584   0.760   4.326  10.864
 2944SOL    HW2 9585   0.756   4.274  10.709
 2945SOL     OW 9586   0.991   4.134  10.552
 2945SOL    HW1 9587   0.914   4.168  10.606
 2945SOL    HW2 9588   0.957   4.083  10.473
 2946SOL     OW 9589   1.041   4.425   9.739
 2946SOL    HW1 9590   1.067   4.421   9.835
 2946SOL    HW2 9591   0.956   4.374   9.725
 2947SOL     OW 9592   0.076   4.535  10.099
 2947SOL    HW1 9593   0.175   4.523  10.108
 2947SOL    HW2 9594   0.052   4.630  10.120
 2948SOL     OW 9595   0.865   4.072   9.505
 2948SOL    HW1 9596   0.924   4.135   9.456
 2948SOL    HW2 9597   0.884   3.978   9.476
 2949SOL     OW 9598   0.550   3.920  10.195
 2949SOL    HW1 9599   0.545   3.915  10.295
 2949SOL    HW2 9600   0.552   4.016  10.166
 2950SOL     OW 9601   1.458   4.459  10.038
 2950SOL    HW1 9602   1.453   4.394  10.113
 2950SOL    HW2 9603   1.538   4.518  10.051
 2951SOL     OW 9604   0.202   4.009  10.808
 2951SOL    HW1 9605   0.122   4.069  10.795
 2951SOL    HW2 9606   0.192   3.960  10.894
 2952SOL     OW 9607   1.400   3.831   9.736
 2952SOL    HW1 9608   1.376   3.794   9.646
 2952SOL    HW2 9609   1.499   3.847   9.740
 2953SOL     OW 9610   0.382   4.424   9.790
 2953SOL    HW1 9611   0.427   4.334   9.787
 2953SOL    HW2 9612   0.288   4.413   9.823
 2954SOL     OW 9613   0.614   3.846   9.427
 2954SOL    HW1 9614   0.712   3.824   9.434
 2954SOL    HW2 9615   0.583   3.829   9.334
 2955SOL     OW 9616   0.781   3.988  11.059
 2955SOL    HW1 9617   0.848   3.927  11.102
 2955SOL    HW2 9618   0.708   4.007  11.124
 2956SOL     OW 9619   1.351   4.314  10.743
 2956SOL    HW1 9620   1.379   4.271  10.828
 2956SOL    HW2 9621   1.376   4.410  10.744
 2957SOL     OW 9622   0.922   4.227  10.209
 2957SOL    HW1 9623   0.897   4.218  10.113
 2957SOL    HW2 9624   0.970   4.145  10.240
 2958SOL     OW 9625   0.539   3.788   9.822
 2958SOL    HW1 9626   0.458   3.789   9.880
 2958SOL    HW2 9627   0.542   3.871   9.767
 2959SOL     OW 9628   0.297   3.759   9.481
 2959SOL    HW1 9629   0.346   3.843   9.460
 2959SOL    HW2 9630   0.359   3.694   9.526
 2960SOL     OW 9631   0.935   3.960   9.790
 2960SOL    HW1 9632   0.887   4.001   9.712
 2960SOL    HW2 9633   1.034   3.958   9.771
 2961SOL     OW 9634   1.076   4.407  10.774
 2961SOL    HW1 9635   0.996   4.346  10.777
 2961SOL    HW2 9636   1.157   4.354  10.750
 2962SOL     OW 9637   1.032   4.273   9.326
 2962SOL    HW1 9638   0.991   4.355   9.287
 2962SOL    HW2 9639   1.096   4.299   9.399
 2963SOL     OW 9640   0.078   4.280  10.696
 2963SOL    HW1 9641   0.170   4.279  10.655
 2963SOL    HW2 9642   0.072   4.354  10.763
 2964SOL     OW 9643   0.561   3.946  10.457
 2964SOL    HW1 9644   0.599   3.862  10.494
 2964SOL    HW2 9645   0.473   3.965  10.501
 2965SOL     OW 9646   0.866   4.178   9.952
 2965SOL    HW1 9647   0.834   4.250   9.890
 2965SOL    HW2 9648   0.890   4.097   9.899
 2966SOL     OW 9649   1.017   3.763  10.063
 2966SOL    HW1 9650   0.945   3.768   9.994
 2966SOL    HW2 9651   0.993   3.694  10.132
 2967SOL     OW 9652   1.466   4.314  10.302
 2967SOL    HW1 9653   1.436   4.219  10.309
 2967SOL    HW2 9654   1.539   4.330  10.368
 2968SOL     OW 9655   1.390   4.299   9.388
 2968SOL    HW1 9656   1.336   4.278   9.469
 2968SOL    HW2 9657   1.481   4.258   9.397
 2969SOL     OW 9658   0.527   3.980   9.638
 2969SOL    HW1 9659   0.554   3.921   9.563
 2969SOL    HW2 9660   0.527   4.075   9.607
 2970SOL     OW 9661   0.915   3.813  10.712
 2970SOL    HW1 9662   0.940   3.793  10.617
 2970SOL    HW2 9663   0.987   3.869  10.754
 2971SOL     OW 9664   0.410   4.537  10.561
 2971SOL    HW1 9665   0.496   4.549  10.611
 2971SOL    HW2 9666   0.368   4.450  10.588
 2972SOL     OW 9667   1.274   4.110  10.572
 2972SOL    HW1 9668   1.295   4.184  10.636
 2972SOL    HW2 9669   1.185   4.127  10.529
 2973SOL     OW 9670   0.566   4.261  10.175
 2973SOL    HW1 9671   0.578   4.327  10.101
 2973SOL    HW2 9672   0.612   4.295  10.258
 2974SOL     OW 9673   1.582   4.363   9.782
 2974SOL    HW1 9674   1.551   4.424   9.855
 2974SOL    HW2 9675   1.632   4.415   9.713
 2975SOL     OW 9676   0.402   4.475  10.908
 2975SOL    HW1 9677   0.470   4.530  10.861
 2975SOL    HW2 9678   0.442   4.387  10.935
 2976SOL     OW 9679   1.209   4.249   9.585
 2976SOL    HW1 9680   1.222   4.165   9.639
 2976SOL    HW2 9681   1.180   4.323   9.645
 2977SOL     OW 9682   0.307   3.937  10.541
 2977SOL    HW1 9683   0.284   3.974  10.631
 2977SOL    HW2 9684   0.277   3.842  10.535
 2978SOL     OW 9685   0.732   4.358  10.374
 2978SOL    HW1 9686   0.791   4.332  10.298
 2978SOL    HW2 9687   0.704   4.454  10.363
 2979SOL     OW 9688   0.307   3.787   9.928
 2979SOL    HW1 9689   0.296   3.881   9.961
 2979SOL    HW2 9690   0.302   3.724  10.005
 2980SOL     OW 9691   1.622   4.091   9.684
 2980SOL    HW1 9692   1.624   4.015   9.748
 2980SOL    HW2 9693   1.574   4.168   9.724
 2981SOL     OW 9694   1.540   3.998   9.435
 2981SOL    HW1 9695   1.479   3.923   9.458
 2981SOL    HW2 9696   1.562   4.050   9.518
 2982SOL     OW 9697   0.319   4.534  10.259
 2982SOL    HW1 9698   0.412   4.570  10.264
 2982SOL    HW2 9699   0.313   4.449  10.311
 2983SOL     OW 9700   0.339   4.233  10.316
 2983SOL    HW1 9701   0.287   4.150  10.299
 2983SOL    HW2 9702   0.416   4.238  10.252
 2984SOL     OW 9703   1.160   3.931  10.787
 2984SOL    HW1 9704   1.160   3.995  10.864
 2984SOL    HW2 9705   1.188   3.979  10.704
 2985SOL     OW 9706   0.040   4.268  10.424
 2985SOL    HW1 9707   0.125   4.235  10.383
 2985SOL    HW2 9708   0.053   4.283  10.522
 2986SOL     OW 9709   1.369   4.674  10.970
 2986SOL    HW1 9710   1.408   4.763  10.990
 2986SOL    HW2 9711   1.379   4.654  10.873
 2987SOL     OW 9712   0.815   4.296   9.635
 2987SOL    HW1 9713   0.822   4.207   9.589
 2987SOL    HW2 9714   0.721   4.330   9.627
 2988SOL     OW 9715   1.657   4.328  10.516
 2988SOL    HW1 9716   1.619   4.259  10.578
 2988SOL    HW2 9717   1.739   4.292  10.472
 2989SOL     OW 9718   0.671   4.188  10.579
 2989SOL    HW1 9719   0.637   4.099  10.549
 2989SOL    HW2 9720   0.697   4.242  10.499
 2990SOL     OW 9721   0.473   4.224   9.501
 2990SOL    HW1 9722   0.534   4.304   9.505
 2990SOL    HW2 9723   0.378   4.255   9.508
 2991SOL     OW 9724   1.726   3.859   9.833
 2991SOL    HW1 9725   1.799   3.842   9.766
 2991SOL    HW2 9726   1.695   3.772   9.871
 2992SOL     OW 9727   1.280   4.651   9.982
 2992SOL    HW1 9728   1.340   4.570   9.984
 2992SOL    HW2 9729   1.320   4.720   9.922
 2993SOL     OW 9730   1.841   3.899  10.273
 2993SOL    HW1 9731   1.880   3.814  10.237
 2993SOL    HW2 9732   1.743   3.901  10.254
 2994SOL     OW 9733   0.263   4.050  10.030
 2994SOL    HW1 9734   0.184   4.101   9.996
 2994SOL    HW2 9735   0.254   4.035  10.128
 2995SOL     OW 9736   0.916   4.634   9.601
 2995SOL    HW1 9737   0.979   4.672   9.533
 2995SOL    HW2 9738   0.956   4.551   9.640
 2996SOL     OW 9739   1.039   4.822  10.006
 2996SOL    HW1 9740   0.969   4.775  10.060
 2996SOL    HW2 9741   1.098   4.754   9.963
 2997SOL     OW 9742   1.014   3.960  10.281
 2997SOL    HW1 9743   1.006   3.924  10.188
 2997SOL    HW2 9744   1.012   3.884  10.346
 2998SOL     OW 9745   1.709   4.109  10.691
 2998SOL    HW1 9746   1.782   4.178  10.695
 2998SOL    HW2 9747   1.737   4.034  10.632
 2999SOL     OW 9748   0.672   3.927  10.799
 2999SOL    HW1 9749   0.762   3.911  10.759
 2999SOL    HW2 9750   0.680   3.932  10.898
 3000SOL     OW 9751   0.075   4.069   9.343
 3000SOL    HW1 9752  -0.017   4.041   9.314
 3000SOL    HW2 9753   0.106   4.146   9.287
 3001SOL     OW 9754   0.072   3.890   9.628
 3001SOL    HW1 9755   0.055   3.973   9.574
 3001SOL    HW2 9756   0.162   3.853   9.606
 3002SOL     OW 9757   0.716   4.289  11.018
 3002SOL    HW1 9758   0.735   4.354  11.092
 3002SOL    HW2 9759   0.776   4.209  11.027
 3003SOL     OW 9760   1.225   4.049   9.759
 3003SOL    HW1 9761   1.290   3.975   9.748
 3003SOL    HW2 9762   1.245   4.099   9.843
 3004SOL     OW 9763   1.777   4.066  10.952
 3004SOL    HW1 9764   1.760   4.097  10.858
 3004SOL    HW2 9765   1.693   4.029  10.990
 3005SOL     OW 9766   1.083   4.708   9.397
 3005SOL    HW1 9767   1.060   4.761   9.315
 3005SOL    HW2 9768   1.164   4.652   9.378
 3006SOL     OW 9769   1.824   3.916  10.537
 3006SOL    HW1 9770   1.820   3.826  10.581
 3006SOL    HW2 9771   1.827   3.905  10.438
 3007SOL     OW 9772   0.428   4.148   9.830
 3007SOL    HW1 9773   0.458   4.076   9.768
 3007SOL    HW2 9774   0.389   4.108   9.913
 3008SOL     OW 9775   0.317   4.271  10.590
 3008SOL    HW1 9776   0.355   4.212  10.662
 3008SOL    HW2 9777   0.357   4.245  10.502
 3009SOL     OW 9778   1.424   3.938  10.422
 3009SOL    HW1 9779   1.476   3.873  10.477
 3009SOL    HW2 9780   1.375   4.001  10.483
 3010SOL     OW 9781   1.001   3.758  10.464
 3010SOL    HW1 9782   0.938   3.686  10.433
 3010SOL    HW2 9783   1.094   3.722  10.464
 3011SOL     OW 9784   1.352   3.776   9.478
 3011SOL    HW1 9785   1.387   3.735   9.394
 3011SOL    HW2 9786   1.262   3.738   9.498
 3012SOL     OW 9787   1.300   4.177  10.001
 3012SOL    HW1 9788   1.241   4.257  10.005
 3012SOL    HW2 9789   1.315   4.142  10.094
 3013SOL     OW 9790   1.593   3.945  10.192
 3013SOL    HW1 9791   1.509   3.944  10.246
 3013SOL    HW2 9792   1.595   4.028  10.136
 3014SOL     OW 9793   2.092   0.628   0.113
 3014SOL    HW1 9794   1.999   0.626   0.150
 3014SOL    HW2 9795   2.093   0.589   0.021
 3015SOL     OW 9796   2.087   0.275   0.996
 3015SOL    HW1 9797   2.122   0.258   1.088
 3015SOL    HW2 9798   1.999   0.230   0.984
 3016SOL     OW 9799   1.881   0.368   0.647
 3016SOL    HW1 9800   1.799   0.411   0.686
 3016SOL    HW2 9801   1.853   0.295   0.584
 3017SOL     OW 9802   2.431   1.275   1.165
 3017SOL    HW1 9803   2.338   1.268   1.128
 3017SOL    HW2 9804   2.442   1.364   1.209
 3018SOL     OW 9805   3.417   1.511   0.703
 3018SOL    HW1 9806   3.360   1.495   0.784
 3018SOL    HW2 9807   3.358   1.521   0.623
 3019SOL     OW 9808   2.997   0.703   0.717
 3019SOL    HW1 9809   3.054   0.781   0.692
 3019SOL    HW2 9810   2.937   0.729   0.793
 3020SOL     OW 9811   3.617   0.607   0.231
 3020SOL    HW1 9812   3.605   0.594   0.132
 3020SOL    HW2 9813   3.587   0.526   0.280
 3021SOL     OW 9814   2.630   1.144   1.023
 3021SOL    HW1 9815   2.552   1.161   1.083
 3021SOL    HW2 9816   2.664   1.231   0.987
 3022SOL     OW 9817   2.712   0.798   1.823
 3022SOL    HW1 9818   2.708   0.874   1.888
 3022SOL    HW2 9819   2.734   0.834   1.732
 3023SOL     OW 9820   2.547   1.012   0.665
 3023SOL    HW1 9821   2.616   0.996   0.735
 3023SOL    HW2 9822   2.474   1.069   0.703
 3024SOL     OW 9823   2.548   1.161   1.803
 3024SOL    HW1 9824   2.608   1.240   1.817
 3024SOL    HW2 9825   2.462   1.192   1.762
 3025SOL     OW 9826   2.197   1.435   1.061
 3025SOL    HW1 9827   2.119   1.404   1.008
 3025SOL    HW2 9828   2.255   1.493   1.004
 3026SOL     OW 9829   3.322   1.505   1.339
 3026SOL    HW1 9830   3.346   1.599   1.365
 3026SOL    HW2 9831   3.306   1.451   1.421
 3027SOL     OW 9832   2.300   0.392   1.499
 3027SOL    HW1 9833   2.382   0.336   1.508
 3027SOL    HW2 9834   2.219   0.334   1.503
 3028SOL     OW 9835   3.465   0.447   0.737
 3028SOL    HW1 9836   3.391   0.493   0.687
 3028SOL    HW2 9837   3.516   0.515   0.790
 3029SOL     OW 9838   2.093   1.713   0.483
 3029SOL    HW1 9839   2.127   1.790   0.537
 3029SOL    HW2 9840   2.137   1.713   0.393
 3030SOL     OW 9841   2.989   1.341   1.690
 3030SOL    HW1 9842   3.036   1.341   1.778
 3030SOL    HW2 9843   2.941   1.254   1.679
 3031SOL     OW 9844   2.092   1.434   0.538
 3031SOL    HW1 9845   2.066   1.530   0.538
 3031SOL    HW2 9846   2.021   1.380   0.583
 3032SOL     OW 9847   2.102   1.091   0.886
 3032SOL    HW1 9848   2.116   1.007   0.938
 3032SOL    HW2 9849   2.047   1.155   0.941
 3033SOL     OW 9850   2.482   1.786   1.439
 3033SOL    HW1 9851   2.390   1.769   1.474
 3033SOL    HW2 9852   2.510   1.878   1.465
 3034SOL     OW 9853   2.468   0.964   0.123
 3034SOL    HW1 9854   2.475   1.048   0.069
 3034SOL    HW2 9855   2.514   0.977   0.211
 3035SOL     OW 9856   3.456   0.114   1.480
 3035SOL    HW1 9857   3.438   0.181   1.408
 3035SOL    HW2 9858   3.453   0.160   1.569
 3036SOL     OW 9859   1.984   0.643   0.563
 3036SOL    HW1 9860   1.939   0.555   0.580
 3036SOL    HW2 9861   1.983   0.697   0.647
 3037SOL     OW 9862   3.704   1.767   0.359
 3037SOL    HW1 9863   3.758   1.738   0.439
 3037SOL    HW2 9864   3.734   1.857   0.330
 3038SOL     OW 9865   1.889   1.596   0.117
 3038SOL    HW1 9866   1.870   1.500   0.138
 3038SOL    HW2 9867   1.856   1.654   0.192
 3039SOL     OW 9868   3.551   0.922   0.612
 3039SOL    HW1 9869   3.646   0.893   0.620
 3039SOL    HW2 9870   3.543   0.987   0.537
 3040SOL     OW 9871   3.503   1.108   0.432
 3040SOL    HW1 9872   3.589   1.110   0.380
 3040SOL    HW2 9873   3.517   1.155   0.520
 3041SOL     OW 9874   1.975   0.737   1.597
 3041SOL    HW1 9875   2.063   0.724   1.642
 3041SOL    HW2 9876   1.962   0.834   1.575
 3042SOL     OW 9877   2.475   1.365   0.726
 3042SOL    HW1 9878   2.426   1.278   0.735
 3042SOL    HW2 9879   2.452   1.408   0.639
 3043SOL     OW 9880   3.155   1.228   1.423
 3043SOL    HW1 9881   3.192   1.155   1.365
 3043SOL    HW2 9882   3.207   1.233   1.508
 3044SOL     OW 9883   2.671   0.004   0.502
 3044SOL    HW1 9884   2.711   0.095   0.493
 3044SOL    HW2 9885   2.571   0.012   0.508
 3045SOL     OW 9886   2.059   0.976   1.264
 3045SOL    HW1 9887   2.148   0.931   1.250
 3045SOL    HW2 9888   1.986   0.911   1.245
 3046SOL     OW 9889   3.387   0.999   0.190
 3046SOL    HW1 9890   3.324   0.923   0.203
 3046SOL    HW2 9891   3.435   1.017   0.276
 3047SOL     OW 9892   3.049   1.792   1.616
 3047SOL    HW1 9893   3.073   1.852   1.540
 3047SOL    HW2 9894   3.056   1.697   1.586
 3048SOL     OW 9895   2.179   0.251   1.801
 3048SOL    HW1 9896   2.250   0.322   1.807
 3048SOL    HW2 9897   2.091   0.290   1.829
 3049SOL     OW 9898   3.328   1.417   0.953
 3049SOL    HW1 9899   3.269   1.423   1.033
 3049SOL    HW2 9900   3.313   1.329   0.907
 3050SOL     OW 9901   3.529   1.714   0.572
 3050SOL    HW1 9902   3.488   1.691   0.484
 3050SOL    HW2 9903   3.511   1.640   0.637
 3051SOL     OW 9904   2.460   0.729   0.270
 3051SOL    HW1 9905   2.484   0.798   0.202
 3051SOL    HW2 9906   2.382   0.762   0.324
 3052SOL     OW 9907   3.143   0.345   0.944
 3052SOL    HW1 9908   3.057   0.295   0.931
 3052SOL    HW2 9909   3.205   0.291   1.000
 3053SOL     OW 9910   3.438   1.662   0.307
 3053SOL    HW1 9911   3.527   1.708   0.310
 3053SOL    HW2 9912   3.417   1.638   0.212
 3054SOL     OW 9913   2.669   0.605   1.465
 3054SOL    HW1 9914   2.622   0.602   1.554
 3054SOL    HW2 9915   2.618   0.550   1.399
 3055SOL     OW 9916   3.256   0.469   1.674
 3055SOL    HW1 9917   3.236   0.512   1.762
 3055SOL    HW2 9918   3.334   0.407   1.683
 3056SOL     OW 9919   2.835   0.890   1.572
 3056SOL    HW1 9920   2.881   0.806   1.543
 3056SOL    HW2 9921   2.779   0.924   1.497
 3057SOL     OW 9922   2.853   0.410   1.242
 3057SOL    HW1 9923   2.776   0.444   1.296
 3057SOL    HW2 9924   2.819   0.359   1.163
 3058SOL     OW 9925   2.903   0.701   0.429
 3058SOL    HW1 9926   2.929   0.697   0.525
 3058SOL    HW2 9927   2.818   0.650   0.415
 3059SOL     OW 9928   1.938   0.811   0.789
 3059SOL    HW1 9929   2.037   0.799   0.798
 3059SOL    HW2 9930   1.914   0.906   0.810
 3060SOL     OW 9931   1.992   1.821   1.571
 3060SOL    HW1 9932   1.982   1.806   1.670
 3060SOL    HW2 9933   1.906   1.857   1.535
 3061SOL     OW 9934   2.727   0.348   0.195
 3061SOL    HW1 9935   2.786   0.411   0.146
 3061SOL    HW2 9936   2.746   0.254   0.166
 3062SOL     OW 9937   3.581   0.585   1.831
 3062SOL    HW1 9938   3.555   0.674   1.795
 3062SOL    HW2 9939   3.579   0.517   1.758
 3063SOL     OW 9940   3.224   1.144   0.545
 3063SOL    HW1 9941   3.307   1.115   0.497
 3063SOL    HW2 9942   3.175   1.211   0.489
 3064SOL     OW 9943   2.412   0.196   0.885
 3064SOL    HW1 9944   2.407   0.191   0.985
 3064SOL    HW2 9945   2.414   0.292   0.856
 3065SOL     OW 9946   2.870   1.456   0.477
 3065SOL    HW1 9947   2.824   1.528   0.425
 3065SOL    HW2 9948   2.866   1.476   0.575
 3066SOL     OW 9949   2.213   1.801   0.853
 3066SOL    HW1 9950   2.263   1.715   0.859
 3066SOL    HW2 9951   2.278   1.878   0.850
 3067SOL     OW 9952   3.657   1.066   0.873
 3067SOL    HW1 9953   3.595   1.051   0.797
 3067SOL    HW2 9954   3.605   1.077   0.958
 3068SOL     OW 9955   3.089   1.550   1.506
 3068SOL    HW1 9956   3.095   1.473   1.570
 3068SOL    HW2 9957   3.037   1.524   1.426
 3069SOL     OW 9958   2.183   0.943   0.242
 3069SOL    HW1 9959   2.265   0.982   0.200
 3069SOL    HW2 9960   2.156   0.861   0.193
 3070SOL     OW 9961   3.320   0.735   0.728
 3070SOL    HW1 9962   3.315   0.670   0.803
 3070SOL    HW2 9963   3.400   0.794   0.741
 3071SOL     OW 9964   2.323   1.266   1.727
 3071SOL    HW1 9965   2.273   1.267   1.641
 3071SOL    HW2 9966   2.260   1.248   1.803
 3072SOL     OW 9967   2.973   1.776   0.237
 3072SOL    HW1 9968   2.913   1.714   0.287
 3072SOL    HW2 9969   3.004   1.732   0.152
 3073SOL     OW 9970   2.064   0.285   1.498
 3073SOL    HW1 9971   1.984   0.345   1.485
 3073SOL    HW2 9972   2.054   0.236   1.584
 3074SOL     OW 9973   3.494   1.377   0.081
 3074SOL    HW1 9974   3.462   1.471   0.071
 3074SOL    HW2 9975   3.418   1.314   0.069
 3075SOL     OW 9976   2.326   1.743   0.323
 3075SOL    HW1 9977   2.359   1.782   0.409
 3075SOL    HW2 9978   2.402   1.736   0.258
 3076SOL     OW 9979   3.262   0.107   0.426
 3076SOL    HW1 9980   3.238   0.070   0.336
 3076SOL    HW2 9981   3.361   0.123   0.430
 3077SOL     OW 9982   2.111   1.785   1.241
 3077SOL    HW1 9983   2.168   1.720   1.291
 3077SOL    HW2 9984   2.095   1.752   1.148
 3078SOL     OW 9985   2.802   1.698   0.904
 3078SOL    HW1 9986   2.882   1.641   0.925
 3078SOL    HW2 9987   2.753   1.658   0.827
 3079SOL     OW 9988   2.244   0.700   0.480
 3079SOL    HW1 9989   2.289   0.610   0.477
 3079SOL    HW2 9990   2.150   0.689   0.513
 3080SOL     OW 9991   3.409   0.222   1.729
 3080SOL    HW1 9992   3.404   0.259   1.821
 3080SOL    HW2 9993   3.337   0.153   1.717
 3081SOL     OW 9994   2.476   0.122   0.117
 3081SOL    HW1 9995   2.574   0.100   0.124
 3081SOL    HW2 9996   2.445   0.105   0.024
 3082SOL     OW 9997   2.643   0.264   1.749
 3082SOL    HW1 9998   2.710   0.203   1.792
 3082SOL    HW2 9999   2.570   0.283   1.814
 3083SOL     OW10000   2.750   1.514   1.195
 3083SOL    HW110001   2.727   1.489   1.101
 3083SOL    HW210002   2.811   1.445   1.234
 3084SOL     OW10003   3.213   0.590   1.433
 3084SOL    HW110004   3.241   0.547   1.518
 3084SOL    HW210005   3.238   0.686   1.434
 3085SOL     OW10006   2.665   1.402   0.924
 3085SOL    HW110007   2.755   1.416   0.882
 3085SOL    HW210008   2.594   1.404   0.853
 3086SOL     OW10009   2.784   0.503   0.899
 3086SOL    HW110010   2.759   0.494   0.803
 3086SOL    HW210011   2.832   0.421   0.930
 3087SOL     OW10012   2.401   0.064   0.512
 3087SOL    HW110013   2.320   0.065   0.570
 3087SOL    HW210014   2.404   0.147   0.457
 3088SOL     OW10015   3.296   1.188   0.041
 3088SOL    HW110016   3.328   1.112   0.098
 3088SOL    HW210017   3.204   1.215   0.071
 3089SOL     OW10018   2.159   0.035   0.171
 3089SOL    HW110019   2.208   0.119   0.150
 3089SOL    HW210020   2.221  -0.030   0.216
 3090SOL     OW10021   2.797   0.236   0.480
 3090SOL    HW110022   2.749   0.277   0.402
 3090SOL    HW210023   2.896   0.234   0.461
 3091SOL     OW10024   2.938   0.683   1.464
 3091SOL    HW110025   2.858   0.622   1.467
 3091SOL    HW210026   3.019   0.630   1.440
 3092SOL     OW10027   3.089   1.570   0.793
 3092SOL    HW110028   3.110   1.644   0.728
 3092SOL    HW210029   3.157   1.570   0.866
 3093SOL     OW10030   2.321   1.152   0.741
 3093SOL    HW110031   2.250   1.125   0.806
 3093SOL    HW210032   2.295   1.124   0.648
 3094SOL     OW10033   3.133   1.797   0.591
 3094SOL    HW110034   3.177   1.861   0.527
 3094SOL    HW210035   3.083   1.849   0.661
 3095SOL     OW10036   2.894   0.549   0.016
 3095SOL    HW110037   2.853   0.631  -0.023
 3095SOL    HW210038   2.958   0.575   0.089
 3096SOL     OW10039   1.940   0.556   1.386
 3096SOL    HW110040   2.032   0.555   1.345
 3096SOL    HW210041   1.934   0.630   1.453
 3097SOL     OW10042   2.423   0.222   1.147
 3097SOL    HW110043   2.461   0.138   1.184
 3097SOL    HW210044   2.335   0.241   1.191
 3098SOL     OW10045   2.728   0.454   0.642
 3098SOL    HW110046   2.696   0.526   0.580
 3098SOL    HW210047   2.752   0.373   0.589
 3099SOL     OW10048   2.879   0.039   0.753
 3099SOL    HW110049   2.807   0.044   0.684
 3099SOL    HW210050   2.855  -0.030   0.822
 3100SOL     OW10051   3.291   1.173   0.867
 3100SOL    HW110052   3.236   1.089   0.860
 3100SOL    HW210053   3.317   1.202   0.775
 3101SOL     OW10054   3.328   0.590   0.992
 3101SOL    HW110055   3.298   0.495   0.999
 3101SOL    HW210056   3.401   0.606   1.058
 3102SOL     OW10057   3.719   0.833   0.377
 3102SOL    HW110058   3.761   0.769   0.441
 3102SOL    HW210059   3.681   0.782   0.299
 3103SOL     OW10060   2.350   1.385   0.174
 3103SOL    HW110061   2.263   1.370   0.221
 3103SOL    HW210062   2.333   1.411   0.079
 3104SOL     OW10063   3.526   1.280   0.657
 3104SOL    HW110064   3.625   1.288   0.671
 3104SOL    HW210065   3.481   1.364   0.688
 3105SOL     OW10066   3.252   0.575   0.078
 3105SOL    HW110067   3.198   0.554   0.159
 3105SOL    HW210068   3.343   0.534   0.087
 3106SOL     OW10069   2.389   0.256   0.328
 3106SOL    HW110070   2.416   0.197   0.253
 3106SOL    HW210071   2.389   0.351   0.297
 3107SOL     OW10072   3.616   1.223   1.588
 3107SOL    HW110073   3.707   1.184   1.575
 3107SOL    HW210074   3.624   1.319   1.612
 3108SOL     OW10075   2.926   1.347   1.340
 3108SOL    HW110076   2.846   1.324   1.395
 3108SOL    HW210077   3.009   1.321   1.389
 3109SOL     OW10078   3.454   1.629   1.625
 3109SOL    HW110079   3.481   1.663   1.535
 3109SOL    HW210080   3.533   1.591   1.671
 3110SOL     OW10081   2.973   1.195   1.100
 3110SOL    HW110082   2.933   1.239   1.181
 3110SOL    HW210083   2.932   1.232   1.017
 3111SOL     OW10084   3.500   1.099   1.079
 3111SOL    HW110085   3.505   1.180   1.138
 3111SOL    HW210086   3.414   1.101   1.028
 3112SOL     OW10087   2.777   0.089   1.402
 3112SOL    HW110088   2.802   0.069   1.307
 3112SOL    HW210089   2.849   0.145   1.444
 3113SOL     OW10090   2.842   1.116   1.719
 3113SOL    HW110091   2.743   1.122   1.729
 3113SOL    HW210092   2.865   1.036   1.663
 3114SOL     OW10093   2.567   1.050   0.368
 3114SOL    HW110094   2.553   1.057   0.467
 3114SOL    HW210095   2.651   0.999   0.350
 3115SOL     OW10096   2.272   0.813   1.251
 3115SOL    HW110097   2.358   0.825   1.301
 3115SOL    HW210098   2.230   0.726   1.278
 3116SOL     OW10099   3.136   0.386   1.262
 3116SOL    HW110100   3.157   0.460   1.326
 3116SOL    HW210101   3.047   0.403   1.219
 3117SOL     OW10102   1.926   1.564   1.331
 3117SOL    HW110103   1.880   1.646   1.297
 3117SOL    HW210104   2.024   1.583   1.340
 3118SOL     OW10105   2.229   1.100   0.501
 3118SOL    HW110106   2.222   1.183   0.445
 3118SOL    HW210107   2.233   1.020   0.441
 3119SOL     OW10108   2.428   0.537   0.865
 3119SOL    HW110109   2.440   0.603   0.791
 3119SOL    HW210110   2.474   0.571   0.948
 3120SOL     OW10111   3.114   1.348   0.388
 3120SOL    HW110112   3.164   1.425   0.428
 3120SOL    HW210113   3.019   1.350   0.420
 3121SOL     OW10114   3.134   1.445   1.142
 3121SOL    HW110115   3.181   1.458   1.229
 3121SOL    HW210116   3.068   1.371   1.151
 3122SOL     OW10117   3.444   0.639   0.472
 3122SOL    HW110118   3.413   0.700   0.545
 3122SOL    HW210119   3.494   0.691   0.403
 3123SOL     OW10120   2.216   1.510   1.329
 3123SOL    HW110121   2.195   1.466   1.242
 3123SOL    HW210122   2.313   1.536   1.332
 3124SOL     OW10123   2.264   0.751   1.598
 3124SOL    HW110124   2.332   0.806   1.551
 3124SOL    HW210125   2.304   0.663   1.625
 3125SOL     OW10126   3.449   0.779   1.670
 3125SOL    HW110127   3.357   0.817   1.665
 3125SOL    HW210128   3.509   0.826   1.605
 3126SOL     OW10129   2.875   0.105   1.770
 3126SOL    HW110130   2.881   0.190   1.718
 3126SOL    HW210131   2.907   0.029   1.713
 3127SOL     OW10132   2.366   0.050   1.740
 3127SOL    HW110133   2.324  -0.007   1.670
 3127SOL    HW210134   2.300   0.119   1.772
 3128SOL     OW10135   2.435   0.870   1.029
 3128SOL    HW110136   2.479   0.959   1.020
 3128SOL    HW210137   2.372   0.870   1.106
 3129SOL     OW10138   3.222   0.862   1.045
 3129SOL    HW110139   3.147   0.862   0.979
 3129SOL    HW210140   3.259   0.770   1.054
 3130SOL     OW10141   3.071   0.525   0.275
 3130SOL    HW110142   3.084   0.441   0.329
 3130SOL    HW210143   3.042   0.599   0.335
 3131SOL     OW10144   2.169   0.213   1.231
 3131SOL    HW110145   2.146   0.250   1.321
 3131SOL    HW210146   2.139   0.118   1.225
 3132SOL     OW10147   1.899   1.310   1.282
 3132SOL    HW110148   1.952   1.261   1.350
 3132SOL    HW210149   1.921   1.408   1.287
 3133SOL     OW10150   2.594   0.634   1.064
 3133SOL    HW110151   2.653   0.608   0.988
 3133SOL    HW210152   2.566   0.730   1.053
 3134SOL     OW10153   3.590   0.935   1.854
 3134SOL    HW110154   3.544   0.928   1.765
 3134SOL    HW210155   3.528   0.979   1.920
 3135SOL     OW10156   2.169   0.063   0.618
 3135SOL    HW110157   2.158   0.157   0.651
 3135SOL    HW210158   2.164   0.000   0.695
 3136SOL     OW10159   3.484   0.367   0.374
 3136SOL    HW110160   3.486   0.291   0.438
 3136SOL    HW210161   3.436   0.444   0.414
 3137SOL     OW10162   2.885   0.766   0.966
 3137SOL    HW110163   2.900   0.787   1.062
 3137SOL    HW210164   2.855   0.671   0.957
 3138SOL     OW10165   2.842   1.573   1.700
 3138SOL    HW110166   2.822   1.617   1.612
 3138SOL    HW210167   2.881   1.482   1.684
 3139SOL     OW10168   3.721   1.518   1.605
 3139SOL    HW110169   3.735   1.545   1.510
 3139SOL    HW210170   3.804   1.540   1.658
 3140SOL     OW10171   2.212   0.898   1.804
 3140SOL    HW110172   2.288   0.942   1.852
 3140SOL    HW210173   2.247   0.851   1.722
 3141SOL     OW10174   3.402   0.274   0.125
 3141SOL    HW110175   3.341   0.199   0.148
 3141SOL    HW210176   3.424   0.326   0.208
 3142SOL     OW10177   3.165   0.838   0.042
 3142SOL    HW110178   3.199   0.745   0.057
 3142SOL    HW210179   3.183   0.865  -0.053
 3143SOL     OW10180   2.930   1.333   0.849
 3143SOL    HW110181   2.937   1.249   0.794
 3143SOL    HW210182   2.992   1.402   0.813
 3144SOL     OW10183   2.181   0.810   0.949
 3144SOL    HW110184   2.274   0.846   0.954
 3144SOL    HW210185   2.175   0.725   1.001
 3145SOL     OW10186   2.201   0.509   1.006
 3145SOL    HW110187   2.149   0.426   0.989
 3145SOL    HW210188   2.278   0.514   0.942
 3146SOL     OW10189   3.000   0.380   1.678
 3146SOL    HW110190   2.955   0.443   1.742
 3146SOL    HW210191   3.093   0.411   1.661
 3147SOL     OW10192   3.022   0.207   1.477
 3147SOL    HW110193   3.022   0.271   1.554
 3147SOL    HW210194   3.050   0.255   1.394
 3148SOL     OW10195   1.870   1.326   0.200
 3148SOL    HW110196   1.777   1.347   0.169
 3148SOL    HW210197   1.880   1.227   0.213
 3149SOL     OW10198   1.950   1.801   0.927
 3149SOL    HW110199   1.908   1.715   0.900
 3149SOL    HW210200   2.044   1.804   0.893
 3150SOL     OW10201   2.366   1.568   0.910
 3150SOL    HW110202   2.432   1.642   0.919
 3150SOL    HW210203   2.410   1.489   0.868
 3151SOL     OW10204   2.864   0.796   1.238
 3151SOL    HW110205   2.905   0.764   1.324
 3151SOL    HW210206   2.768   0.769   1.235
 3152SOL     OW10207   1.902   0.544   1.114
 3152SOL    HW110208   1.987   0.511   1.073
 3152SOL    HW210209   1.915   0.559   1.212
 3153SOL     OW10210   2.051   0.520   1.722
 3153SOL    HW110211   2.110   0.480   1.652
 3153SOL    HW210212   1.993   0.591   1.681
 3154SOL     OW10213   3.231   0.950   1.660
 3154SOL    HW110214   3.270   1.039   1.680
 3154SOL    HW210215   3.241   0.930   1.563
 3155SOL     OW10216   2.677   0.572   0.325
 3155SOL    HW110217   2.684   0.483   0.279
 3155SOL    HW210218   2.583   0.606   0.317
 3156SOL     OW10219   3.519   0.604   1.206
 3156SOL    HW110220   3.481   0.535   1.268
 3156SOL    HW210221   3.601   0.568   1.162
 3157SOL     OW10222   2.114   1.564   1.744
 3157SOL    HW110223   2.084   1.621   1.820
 3157SOL    HW210224   2.107   1.467   1.770
 3158SOL     OW10225   2.533   0.464   1.269
 3158SOL    HW110226   2.499   0.375   1.239
 3158SOL    HW210227   2.559   0.518   1.189
 3159SOL     OW10228   2.792   1.678   1.465
 3159SOL    HW110229   2.768   1.660   1.370
 3159SOL    HW210230   2.822   1.772   1.475
 3160SOL     OW10231   2.335   0.500   0.191
 3160SOL    HW110232   2.396   0.580   0.195
 3160SOL    HW210233   2.240   0.531   0.198
 3161SOL     OW10234   2.021   1.137   1.466
 3161SOL    HW110235   2.043   1.076   1.542
 3161SOL    HW210236   2.031   1.088   1.380
 3162SOL     OW10237   3.209   1.059   1.234
 3162SOL    HW110238   3.233   0.996   1.160
 3162SOL    HW210239   3.119   1.099   1.216
 3163SOL     OW10240   3.164   0.855   0.309
 3163SOL    HW110241   3.078   0.824   0.351
 3163SOL    HW210242   3.160   0.841   0.210
 3164SOL     OW10243   3.621   1.747   1.154
 3164SOL    HW110244   3.682   1.777   1.081
 3164SOL    HW210245   3.583   1.658   1.132
 3165SOL     OW10246   3.114   1.731   1.128
 3165SOL    HW110247   3.198   1.736   1.074
 3165SOL    HW210248   3.091   1.635   1.146
 3166SOL     OW10249   1.945   1.258   1.022
 3166SOL    HW110250   1.940   1.257   1.122
 3166SOL    HW210251   1.862   1.217   0.984
 3167SOL     OW10252   2.550   1.662   1.716
 3167SOL    HW110253   2.494   1.743   1.725
 3167SOL    HW210254   2.602   1.666   1.630
 3168SOL     OW10255   2.765   0.086   0.133
 3168SOL    HW110256   2.816   0.087   0.047
 3168SOL    HW210257   2.821   0.044   0.204
 3169SOL     OW10258   3.588   0.135   0.523
 3169SOL    HW110259   3.661   0.118   0.456
 3169SOL    HW210260   3.557   0.048   0.561
 3170SOL     OW10261   3.250   1.573   0.477
 3170SOL    HW110262   3.317   1.585   0.403
 3170SOL    HW210263   3.210   1.662   0.500
 3171SOL     OW10264   1.992   1.794   1.851
 3171SOL    HW110265   1.951   1.720   1.904
 3171SOL    HW210266   2.056   1.845   1.909
 3172SOL     OW10267   3.142   0.927   0.672
 3172SOL    HW110268   3.202   0.846   0.674
 3172SOL    HW210269   3.182   0.996   0.612
 3173SOL     OW10270   2.692   1.273   1.422
 3173SOL    HW110271   2.687   1.306   1.517
 3173SOL    HW210272   2.606   1.292   1.376
 3174SOL     OW10273   2.534   1.616   0.154
 3174SOL    HW110274   2.543   1.626   0.055
 3174SOL    HW210275   2.494   1.527   0.175
 3175SOL     OW10276   3.512   1.720   1.394
 3175SOL    HW110277   3.565   1.730   1.310
 3175SOL    HW210278   3.485   1.810   1.428
 3176SOL     OW10279   3.703   0.175   0.963
 3176SOL    HW110280   3.742   0.090   0.927
 3176SOL    HW210281   3.605   0.177   0.944
 3177SOL     OW10282   2.125   0.326   0.720
 3177SOL    HW110283   2.046   0.377   0.686
 3177SOL    HW210284   2.116   0.311   0.818
 3178SOL     OW10285   3.056   1.612   0.031
 3178SOL    HW110286   3.062   1.519   0.068
 3178SOL    HW210287   2.997   1.612  -0.049
 3179SOL     OW10288   2.684   1.002   1.372
 3179SOL    HW110289   2.724   1.001   1.280
 3179SOL    HW210290   2.694   1.094   1.412
 3180SOL     OW10291   2.778   0.910   0.291
 3180SOL    HW110292   2.841   0.948   0.223
 3180SOL    HW210293   2.818   0.827   0.330
 3181SOL     OW10294   3.366   1.607   0.044
 3181SOL    HW110295   3.274   1.644   0.051
 3181SOL    HW210296   3.404   1.627  -0.046
 3182SOL     OW10297   2.234   1.288   1.490
 3182SOL    HW110298   2.221   1.381   1.456
 3182SOL    HW210299   2.150   1.236   1.477
 3183SOL     OW10300   3.476   1.292   1.289
 3183SOL    HW110301   3.536   1.295   1.369
 3183SOL    HW210302   3.401   1.356   1.302
 3184SOL     OW10303   2.901   1.098   0.696
 3184SOL    HW110304   2.831   1.051   0.750
 3184SOL    HW210305   2.960   1.030   0.653
 3185SOL     OW10306   2.876   0.236   0.971
 3185SOL    HW110307   2.868   0.200   0.878
 3185SOL    HW210308   2.874   0.160   1.036
 3186SOL     OW10309   2.452   1.487   0.491
 3186SOL    HW110310   2.494   1.429   0.421
 3186SOL    HW210311   2.408   1.566   0.447
 3187SOL     OW10312   3.571   0.385   1.381
 3187SOL    HW110313   3.644   0.454   1.385
 3187SOL    HW210314   3.599   0.310   1.322
 3188SOL     OW10315   2.117   1.348   0.290
 3188SOL    HW110316   2.021   1.349   0.263
 3188SOL    HW210317   2.129   1.401   0.374
 3189SOL     OW10318   1.967   1.013   1.726
 3189SOL    HW110319   1.890   0.980   1.780
 3189SOL    HW210320   2.052   0.983   1.768
 3190SOL     OW10321   2.534   0.203   1.489
 3190SOL    HW110322   2.624   0.187   1.449
 3190SOL    HW210323   2.542   0.208   1.588
 3191SOL     OW10324   1.937   0.345   0.033
 3191SOL    HW110325   1.845   0.317   0.004
 3191SOL    HW210326   1.968   0.422  -0.023
 3192SOL     OW10327   3.302   0.856   1.398
 3192SOL    HW110328   3.245   0.908   1.335
 3192SOL    HW210329   3.398   0.868   1.374
 3193SOL     OW10330   1.934   0.166   0.318
 3193SOL    HW110331   1.917   0.249   0.264
 3193SOL    HW210332   2.024   0.129   0.296
 3194SOL     OW10333   3.045   1.335   0.119
 3194SOL    HW110334   2.946   1.324   0.121
 3194SOL    HW210335   3.079   1.350   0.212
 3195SOL     OW10336   2.475   0.842   1.431
 3195SOL    HW110337   2.531   0.923   1.414
 3195SOL    HW210338   2.534   0.762   1.434
 3196SOL     OW10339   3.355   1.767   0.959
 3196SOL    HW110340   3.388   1.831   0.890
 3196SOL    HW210341   3.421   1.761   1.034
 3197SOL     OW10342   2.578   0.565   1.708
 3197SOL    HW110343   2.597   0.630   1.782
 3197SOL    HW210344   2.638   0.485   1.717
 3198SOL     OW10345   3.312   1.220   1.633
 3198SOL    HW110346   3.303   1.210   1.732
 3198SOL    HW210347   3.408   1.213   1.607
 3199SOL     OW10348   2.252   1.741   1.560
 3199SOL    HW110349   2.161   1.782   1.558
 3199SOL    HW210350   2.245   1.647   1.592
 3200SOL     OW10351   3.536   0.883   1.254
 3200SOL    HW110352   3.509   0.794   1.217
 3200SOL    HW210353   3.537   0.951   1.181
 3201SOL     OW10354   3.087   0.325   0.449
 3201SOL    HW110355   3.152   0.251   0.438
 3201SOL    HW210356   3.107   0.375   0.533
 3202SOL     OW10357   2.456   0.745   0.652
 3202SOL    HW110358   2.506   0.830   0.633
 3202SOL    HW210359   2.368   0.747   0.604
 3203SOL     OW10360   3.639   0.342   1.642
 3203SOL    HW110361   3.622   0.373   1.548
 3203SOL    HW210362   3.555   0.305   1.680
 3204SOL     OW10363   3.592   0.934   1.517
 3204SOL    HW110364   3.630   1.025   1.532
 3204SOL    HW210365   3.584   0.917   1.418
 3205SOL     OW10366   2.721   1.374   0.016
 3205SOL    HW110367   2.675   1.389   0.104
 3205SOL    HW210368   2.765   1.459  -0.014
 3206SOL     OW10369   2.523   1.790   0.953
 3206SOL    HW110370   2.477   1.878   0.940
 3206SOL    HW210371   2.622   1.802   0.946
 3207SOL     OW10372   2.721   0.956   0.861
 3207SOL    HW110373   2.775   0.887   0.909
 3207SOL    HW210374   2.689   1.025   0.927
 3208SOL     OW10375   2.945   0.984   0.087
 3208SOL    HW110376   2.922   1.037   0.005
 3208SOL    HW210377   3.026   0.928   0.068
 3209SOL     OW10378   3.723   1.569   0.851
 3209SOL    HW110379   3.652   1.557   0.781
 3209SOL    HW210380   3.724   1.490   0.911
 3210SOL     OW10381   2.083   1.314   1.844
 3210SOL    HW110382   2.018   1.241   1.823
 3210SOL    HW210383   2.087   1.328   1.942
 3211SOL     OW10384   1.941   1.240   0.653
 3211SOL    HW110385   1.940   1.193   0.741
 3211SOL    HW210386   2.023   1.212   0.602
 3212SOL     OW10387   2.534   1.391   1.624
 3212SOL    HW110388   2.456   1.341   1.662
 3212SOL    HW210389   2.531   1.486   1.655
 3213SOL     OW10390   3.686   0.192   1.227
 3213SOL    HW110391   3.682   0.102   1.271
 3213SOL    HW210392   3.689   0.181   1.128
 3214SOL     OW10393   2.290   0.424   0.520
 3214SOL    HW110394   2.320   0.352   0.458
 3214SOL    HW210395   2.251   0.384   0.603
 3215SOL     OW10396   3.567   1.487   1.104
 3215SOL    HW110397   3.474   1.462   1.077
 3215SOL    HW210398   3.593   1.437   1.186
 3216SOL     OW10399   2.179   0.547   1.280
 3216SOL    HW110400   2.217   0.488   1.352
 3216SOL    HW210401   2.219   0.521   1.192
 3217SOL     OW10402   2.674   1.586   0.687
 3217SOL    HW110403   2.706   1.596   0.593
 3217SOL    HW210404   2.595   1.524   0.689
 3218SOL     OW10405   3.286   0.214   1.112
 3218SOL    HW110406   3.338   0.149   1.167
 3218SOL    HW210407   3.237   0.277   1.173
 3219SOL     OW10408   2.863   0.034   1.154
 3219SOL    HW110409   2.800  -0.038   1.123
 3219SOL    HW210410   2.956  -0.002   1.154
 3220SOL     OW10411   2.632   1.330   0.301
 3220SOL    HW110412   2.586   1.243   0.318
 3220SOL    HW210413   2.723   1.327   0.342
 3221SOL     OW10414   2.480   1.567   1.284
 3221SOL    HW110415   2.475   1.649   1.341
 3221SOL    HW210416   2.569   1.564   1.239
 3222SOL     OW10417   3.214   0.052   0.168
 3222SOL    HW110418   3.249   0.011   0.084
 3222SOL    HW210419   3.124   0.014   0.188
 3223SOL     OW10420   3.162   0.453   0.691
 3223SOL    HW110421   3.103   0.533   0.695
 3223SOL    HW210422   3.177   0.418   0.784
 3224SOL     OW10423   3.455   0.221   0.882
 3224SOL    HW110424   3.371   0.220   0.936
 3224SOL    HW210425   3.457   0.304   0.826
 3225SOL     OW10426   1.901   1.077   0.300
 3225SOL    HW110427   2.000   1.066   0.291
 3225SOL    HW210428   1.861   0.991   0.332
 3226SOL     OW10429   2.737   1.646   0.337
 3226SOL    HW110430   2.660   1.611   0.283
 3226SOL    HW210431   2.705   1.717   0.399
 3227SOL     OW10432   2.092   0.628   1.975
 3227SOL    HW110433   1.999   0.626   2.012
 3227SOL    HW210434   2.093   0.589   1.883
 3228SOL     OW10435   2.087   0.275   2.858
 3228SOL    HW110436   2.122   0.258   2.950
 3228SOL    HW210437   1.999   0.230   2.846
 3229SOL     OW10438   1.881   0.368   2.509
 3229SOL    HW110439   1.799   0.411   2.548
 3229SOL    HW210440   1.853   0.295   2.446
 3230SOL     OW10441   2.431   1.275   3.027
 3230SOL    HW110442   2.338   1.268   2.990
 3230SOL    HW210443   2.442   1.364   3.071
 3231SOL     OW10444   3.417   1.511   2.565
 3231SOL    HW110445   3.360   1.495   2.646
 3231SOL    HW210446   3.358   1.521   2.485
 3232SOL     OW10447   2.997   0.703   2.579
 3232SOL    HW110448   3.054   0.781   2.554
 3232SOL    HW210449   2.937   0.729   2.655
 3233SOL     OW10450   3.617   0.607   2.093
 3233SOL    HW110451   3.605   0.594   1.994
 3233SOL    HW210452   3.587   0.526   2.142
 3234SOL     OW10453   2.630   1.144   2.885
 3234SOL    HW110454   2.552   1.161   2.945
 3234SOL    HW210455   2.664   1.231   2.849
 3235SOL     OW10456   2.712   0.798   3.685
 3235SOL    HW110457   2.708   0.874   3.750
 3235SOL    HW210458   2.734   0.834   3.594
 3236SOL     OW10459   2.547   1.012   2.527
 3236SOL    HW110460   2.616   0.996   2.597
 3236SOL    HW210461   2.474   1.069   2.565
 3237SOL     OW10462   2.548   1.161   3.665
 3237SOL    HW110463   2.608   1.240   3.679
 3237SOL    HW210464   2.462   1.192   3.624
 3238SOL     OW10465   2.197   1.435   2.923
 3238SOL    HW110466   2.119   1.404   2.870
 3238SOL    HW210467   2.255   1.493   2.866
 3239SOL     OW10468   3.322   1.505   3.201
 3239SOL    HW110469   3.346   1.599   3.227
 3239SOL    HW210470   3.306   1.451   3.283
 3240SOL     OW10471   2.300   0.392   3.361
 3240SOL    HW110472   2.382   0.336   3.370
 3240SOL    HW210473   2.219   0.334   3.365
 3241SOL     OW10474   3.465   0.447   2.599
 3241SOL    HW110475   3.391   0.493   2.549
 3241SOL    HW210476   3.516   0.515   2.652
 3242SOL     OW10477   2.093   1.713   2.345
 3242SOL    HW110478   2.127   1.790   2.399
 3242SOL    HW210479   2.137   1.713   2.255
 3243SOL     OW10480   2.989   1.341   3.552
 3243SOL    HW110481   3.036   1.341   3.640
 3243SOL    HW210482   2.941   1.254   3.541
 3244SOL     OW10483   2.092   1.434   2.400
 3244SOL    HW110484   2.066   1.530   2.400
 3244SOL    HW210485   2.021   1.380   2.445
 3245SOL     OW10486   2.102   1.091   2.748
 3245SOL    HW110487   2.116   1.007   2.800
 3245SOL    HW210488   2.047   1.155   2.803
 3246SOL     OW10489   2.482   1.786   3.301
 3246SOL    HW110490   2.390   1.769   3.336
 3246SOL    HW210491   2.510   1.878   3.327
 3247SOL     OW10492   2.468   0.964   1.985
 3247SOL    HW110493   2.475   1.048   1.931
 3247SOL    HW210494   2.514   0.977   2.073
 3248SOL     OW10495   3.456   0.114   3.342
 3248SOL    HW110496   3.438   0.181   3.270
 3248SOL    HW210497   3.453   0.160   3.431
 3249SOL     OW10498   1.984   0.643   2.425
 3249SOL    HW110499   1.939   0.555   2.442
 3249SOL    HW210500   1.983   0.697   2.509
 3250SOL     OW10501   3.704   1.767   2.221
 3250SOL    HW110502   3.758   1.738   2.301
 3250SOL    HW210503   3.734   1.857   2.192
 3251SOL     OW10504   1.889   1.596   1.979
 3251SOL    HW110505   1.870   1.500   2.000
 3251SOL    HW210506   1.856   1.654   2.054
 3252SOL     OW10507   3.551   0.922   2.474
 3252SOL    HW110508   3.646   0.893   2.482
 3252SOL    HW210509   3.543   0.987   2.399
 3253SOL     OW10510   3.503   1.108   2.294
 3253SOL    HW110511   3.589   1.110   2.242
 3253SOL    HW210512   3.517   1.155   2.382
 3254SOL     OW10513   1.975   0.737   3.459
 3254SOL    HW110514   2.063   0.724   3.504
 3254SOL    HW210515   1.962   0.834   3.437
 3255SOL     OW10516   2.475   1.365   2.588
 3255SOL    HW110517   2.426   1.278   2.597
 3255SOL    HW210518   2.452   1.408   2.501
 3256SOL     OW10519   3.155   1.228   3.285
 3256SOL    HW110520   3.192   1.155   3.227
 3256SOL    HW210521   3.207   1.233   3.370
 3257SOL     OW10522   2.671   0.004   2.364
 3257SOL    HW110523   2.711   0.095   2.355
 3257SOL    HW210524   2.571   0.012   2.370
 3258SOL     OW10525   2.059   0.976   3.126
 3258SOL    HW110526   2.148   0.931   3.112
 3258SOL    HW210527   1.986   0.911   3.107
 3259SOL     OW10528   3.387   0.999   2.052
 3259SOL    HW110529   3.324   0.923   2.065
 3259SOL    HW210530   3.435   1.017   2.138
 3260SOL     OW10531   3.049   1.792   3.478
 3260SOL    HW110532   3.073   1.852   3.402
 3260SOL    HW210533   3.056   1.697   3.448
 3261SOL     OW10534   2.179   0.251   3.663
 3261SOL    HW110535   2.250   0.322   3.669
 3261SOL    HW210536   2.091   0.290   3.691
 3262SOL     OW10537   3.328   1.417   2.815
 3262SOL    HW110538   3.269   1.423   2.895
 3262SOL    HW210539   3.313   1.329   2.769
 3263SOL     OW10540   3.529   1.714   2.434
 3263SOL    HW110541   3.488   1.691   2.346
 3263SOL    HW210542   3.511   1.640   2.499
 3264SOL     OW10543   2.460   0.729   2.132
 3264SOL    HW110544   2.484   0.798   2.064
 3264SOL    HW210545   2.382   0.762   2.186
 3265SOL     OW10546   3.143   0.345   2.806
 3265SOL    HW110547   3.057   0.295   2.793
 3265SOL    HW210548   3.205   0.291   2.862
 3266SOL     OW10549   3.438   1.662   2.169
 3266SOL    HW110550   3.527   1.708   2.172
 3266SOL    HW210551   3.417   1.638   2.074
 3267SOL     OW10552   2.669   0.605   3.327
 3267SOL    HW110553   2.622   0.602   3.416
 3267SOL    HW210554   2.618   0.550   3.261
 3268SOL     OW10555   3.256   0.469   3.536
 3268SOL    HW110556   3.236   0.512   3.624
 3268SOL    HW210557   3.334   0.407   3.545
 3269SOL     OW10558   2.835   0.890   3.434
 3269SOL    HW110559   2.881   0.806   3.405
 3269SOL    HW210560   2.779   0.924   3.359
 3270SOL     OW10561   2.853   0.410   3.104
 3270SOL    HW110562   2.776   0.444   3.158
 3270SOL    HW210563   2.819   0.359   3.025
 3271SOL     OW10564   2.903   0.701   2.291
 3271SOL    HW110565   2.929   0.697   2.387
 3271SOL    HW210566   2.818   0.650   2.277
 3272SOL     OW10567   1.938   0.811   2.651
 3272SOL    HW110568   2.037   0.799   2.660
 3272SOL    HW210569   1.914   0.906   2.672
 3273SOL     OW10570   1.992   1.821   3.433
 3273SOL    HW110571   1.982   1.806   3.532
 3273SOL    HW210572   1.906   1.857   3.397
 3274SOL     OW10573   2.727   0.348   2.057
 3274SOL    HW110574   2.786   0.411   2.008
 3274SOL    HW210575   2.746   0.254   2.028
 3275SOL     OW10576   3.581   0.585   3.693
 3275SOL    HW110577   3.555   0.674   3.657
 3275SOL    HW210578   3.579   0.517   3.620
 3276SOL     OW10579   3.224   1.144   2.407
 3276SOL    HW110580   3.307   1.115   2.359
 3276SOL    HW210581   3.175   1.211   2.351
 3277SOL     OW10582   2.412   0.196   2.747
 3277SOL    HW110583   2.407   0.191   2.847
 3277SOL    HW210584   2.414   0.292   2.718
 3278SOL     OW10585   2.870   1.456   2.339
 3278SOL    HW110586   2.824   1.528   2.287
 3278SOL    HW210587   2.866   1.476   2.437
 3279SOL     OW10588   2.213   1.801   2.715
 3279SOL    HW110589   2.263   1.715   2.721
 3279SOL    HW210590   2.278   1.878   2.712
 3280SOL     OW10591   3.657   1.066   2.735
 3280SOL    HW110592   3.595   1.051   2.659
 3280SOL    HW210593   3.605   1.077   2.820
 3281SOL     OW10594   3.089   1.550   3.368
 3281SOL    HW110595   3.095   1.473   3.432
 3281SOL    HW210596   3.037   1.524   3.288
 3282SOL     OW10597   2.183   0.943   2.104
 3282SOL    HW110598   2.265   0.982   2.062
 3282SOL    HW210599   2.156   0.861   2.055
 3283SOL     OW10600   3.320   0.735   2.590
 3283SOL    HW110601   3.315   0.670   2.665
 3283SOL    HW210602   3.400   0.794   2.603
 3284SOL     OW10603   2.323   1.266   3.589
 3284SOL    HW110604   2.273   1.267   3.503
 3284SOL    HW210605   2.260   1.248   3.665
 3285SOL     OW10606   2.973   1.776   2.099
 3285SOL    HW110607   2.913   1.714   2.149
 3285SOL    HW210608   3.004   1.732   2.014
 3286SOL     OW10609   2.064   0.285   3.360
 3286SOL    HW110610   1.984   0.345   3.347
 3286SOL    HW210611   2.054   0.236   3.446
 3287SOL     OW10612   3.494   1.377   1.943
 3287SOL    HW110613   3.462   1.471   1.933
 3287SOL    HW210614   3.418   1.314   1.931
 3288SOL     OW10615   2.326   1.743   2.185
 3288SOL    HW110616   2.359   1.782   2.271
 3288SOL    HW210617   2.402   1.736   2.120
 3289SOL     OW10618   3.262   0.107   2.288
 3289SOL    HW110619   3.238   0.070   2.198
 3289SOL    HW210620   3.361   0.123   2.292
 3290SOL     OW10621   2.111   1.785   3.103
 3290SOL    HW110622   2.168   1.720   3.153
 3290SOL    HW210623   2.095   1.752   3.010
 3291SOL     OW10624   2.802   1.698   2.766
 3291SOL    HW110625   2.882   1.641   2.787
 3291SOL    HW210626   2.753   1.658   2.689
 3292SOL     OW10627   2.244   0.700   2.342
 3292SOL    HW110628   2.289   0.610   2.339
 3292SOL    HW210629   2.150   0.689   2.375
 3293SOL     OW10630   3.409   0.222   3.591
 3293SOL    HW110631   3.404   0.259   3.683
 3293SOL    HW210632   3.337   0.153   3.579
 3294SOL     OW10633   2.476   0.122   1.979
 3294SOL    HW110634   2.574   0.100   1.986
 3294SOL    HW210635   2.445   0.105   1.886
 3295SOL     OW10636   2.643   0.264   3.611
 3295SOL    HW110637   2.710   0.203   3.654
 3295SOL    HW210638   2.570   0.283   3.676
 3296SOL     OW10639   2.750   1.514   3.057
 3296SOL    HW110640   2.727   1.489   2.963
 3296SOL    HW210641   2.811   1.445   3.096
 3297SOL     OW10642   3.213   0.590   3.295
 3297SOL    HW110643   3.241   0.547   3.380
 3297SOL    HW210644   3.238   0.686   3.296
 3298SOL     OW10645   2.665   1.402   2.786
 3298SOL    HW110646   2.755   1.416   2.744
 3298SOL    HW210647   2.594   1.404   2.715
 3299SOL     OW10648   2.784   0.503   2.761
 3299SOL    HW110649   2.759   0.494   2.665
 3299SOL    HW210650   2.832   0.421   2.792
 3300SOL     OW10651   2.401   0.064   2.374
 3300SOL    HW110652   2.320   0.065   2.432
 3300SOL    HW210653   2.404   0.147   2.319
 3301SOL     OW10654   3.296   1.188   1.903
 3301SOL    HW110655   3.328   1.112   1.960
 3301SOL    HW210656   3.204   1.215   1.933
 3302SOL     OW10657   2.159   0.035   2.033
 3302SOL    HW110658   2.208   0.119   2.012
 3302SOL    HW210659   2.221  -0.030   2.078
 3303SOL     OW10660   2.797   0.236   2.342
 3303SOL    HW110661   2.749   0.277   2.264
 3303SOL    HW210662   2.896   0.234   2.323
 3304SOL     OW10663   2.938   0.683   3.326
 3304SOL    HW110664   2.858   0.622   3.329
 3304SOL    HW210665   3.019   0.630   3.302
 3305SOL     OW10666   3.089   1.570   2.655
 3305SOL    HW110667   3.110   1.644   2.590
 3305SOL    HW210668   3.157   1.570   2.728
 3306SOL     OW10669   2.321   1.152   2.603
 3306SOL    HW110670   2.250   1.125   2.668
 3306SOL    HW210671   2.295   1.124   2.510
 3307SOL     OW10672   3.133   1.797   2.453
 3307SOL    HW110673   3.177   1.861   2.389
 3307SOL    HW210674   3.083   1.849   2.523
 3308SOL     OW10675   2.894   0.549   1.878
 3308SOL    HW110676   2.853   0.631   1.839
 3308SOL    HW210677   2.958   0.575   1.951
 3309SOL     OW10678   1.940   0.556   3.248
 3309SOL    HW110679   2.032   0.555   3.207
 3309SOL    HW210680   1.934   0.630   3.315
 3310SOL     OW10681   2.423   0.222   3.009
 3310SOL    HW110682   2.461   0.138   3.046
 3310SOL    HW210683   2.335   0.241   3.053
 3311SOL     OW10684   2.728   0.454   2.504
 3311SOL    HW110685   2.696   0.526   2.442
 3311SOL    HW210686   2.752   0.373   2.451
 3312SOL     OW10687   2.879   0.039   2.615
 3312SOL    HW110688   2.807   0.044   2.546
 3312SOL    HW210689   2.855  -0.030   2.684
 3313SOL     OW10690   3.291   1.173   2.729
 3313SOL    HW110691   3.236   1.089   2.722
 3313SOL    HW210692   3.317   1.202   2.637
 3314SOL     OW10693   3.328   0.590   2.854
 3314SOL    HW110694   3.298   0.495   2.861
 3314SOL    HW210695   3.401   0.606   2.920
 3315SOL     OW10696   3.719   0.833   2.239
 3315SOL    HW110697   3.761   0.769   2.303
 3315SOL    HW210698   3.681   0.782   2.161
 3316SOL     OW10699   2.350   1.385   2.036
 3316SOL    HW110700   2.263   1.370   2.083
 3316SOL    HW210701   2.333   1.411   1.941
 3317SOL     OW10702   3.526   1.280   2.519
 3317SOL    HW110703   3.625   1.288   2.533
 3317SOL    HW210704   3.481   1.364   2.550
 3318SOL     OW10705   3.252   0.575   1.940
 3318SOL    HW110706   3.198   0.554   2.021
 3318SOL    HW210707   3.343   0.534   1.949
 3319SOL     OW10708   2.389   0.256   2.190
 3319SOL    HW110709   2.416   0.197   2.115
 3319SOL    HW210710   2.389   0.351   2.159
 3320SOL     OW10711   3.616   1.223   3.450
 3320SOL    HW110712   3.707   1.184   3.437
 3320SOL    HW210713   3.624   1.319   3.474
 3321SOL     OW10714   2.926   1.347   3.202
 3321SOL    HW110715   2.846   1.324   3.257
 3321SOL    HW210716   3.009   1.321   3.251
 3322SOL     OW10717   3.454   1.629   3.487
 3322SOL    HW110718   3.481   1.663   3.397
 3322SOL    HW210719   3.533   1.591   3.533
 3323SOL     OW10720   2.973   1.195   2.962
 3323SOL    HW110721   2.933   1.239   3.043
 3323SOL    HW210722   2.932   1.232   2.879
 3324SOL     OW10723   3.500   1.099   2.941
 3324SOL    HW110724   3.505   1.180   3.000
 3324SOL    HW210725   3.414   1.101   2.890
 3325SOL     OW10726   2.777   0.089   3.264
 3325SOL    HW110727   2.802   0.069   3.169
 3325SOL    HW210728   2.849   0.145   3.306
 3326SOL     OW10729   2.842   1.116   3.581
 3326SOL    HW110730   2.743   1.122   3.591
 3326SOL    HW210731   2.865   1.036   3.525
 3327SOL     OW10732   2.567   1.050   2.230
 3327SOL    HW110733   2.553   1.057   2.329
 3327SOL    HW210734   2.651   0.999   2.212
 3328SOL     OW10735   2.272   0.813   3.113
 3328SOL    HW110736   2.358   0.825   3.163
 3328SOL    HW210737   2.230   0.726   3.140
 3329SOL     OW10738   3.136   0.386   3.124
 3329SOL    HW110739   3.157   0.460   3.188
 3329SOL    HW210740   3.047   0.403   3.081
 3330SOL     OW10741   1.926   1.564   3.193
 3330SOL    HW110742   1.880   1.646   3.159
 3330SOL    HW210743   2.024   1.583   3.202
 3331SOL     OW10744   2.229   1.100   2.363
 3331SOL    HW110745   2.222   1.183   2.307
 3331SOL    HW210746   2.233   1.020   2.303
 3332SOL     OW10747   2.428   0.537   2.727
 3332SOL    HW110748   2.440   0.603   2.653
 3332SOL    HW210749   2.474   0.571   2.810
 3333SOL     OW10750   3.114   1.348   2.250
 3333SOL    HW110751   3.164   1.425   2.290
 3333SOL    HW210752   3.019   1.350   2.282
 3334SOL     OW10753   3.134   1.445   3.004
 3334SOL    HW110754   3.181   1.458   3.091
 3334SOL    HW210755   3.068   1.371   3.013
 3335SOL     OW10756   3.444   0.639   2.334
 3335SOL    HW110757   3.413   0.700   2.407
 3335SOL    HW210758   3.494   0.691   2.265
 3336SOL     OW10759   2.216   1.510   3.191
 3336SOL    HW110760   2.195   1.466   3.104
 3336SOL    HW210761   2.313   1.536   3.194
 3337SOL     OW10762   2.264   0.751   3.460
 3337SOL    HW110763   2.332   0.806   3.413
 3337SOL    HW210764   2.304   0.663   3.487
 3338SOL     OW10765   3.449   0.779   3.532
 3338SOL    HW110766   3.357   0.817   3.527
 3338SOL    HW210767   3.509   0.826   3.467
 3339SOL     OW10768   2.875   0.105   3.632
 3339SOL    HW110769   2.881   0.190   3.580
 3339SOL    HW210770   2.907   0.029   3.575
 3340SOL     OW10771   2.366   0.050   3.602
 3340SOL    HW110772   2.324  -0.007   3.532
 3340SOL    HW210773   2.300   0.119   3.634
 3341SOL     OW10774   2.435   0.870   2.891
 3341SOL    HW110775   2.479   0.959   2.882
 3341SOL    HW210776   2.372   0.870   2.968
 3342SOL     OW10777   3.222   0.862   2.907
 3342SOL    HW110778   3.147   0.862   2.841
 3342SOL    HW210779   3.259   0.770   2.916
 3343SOL     OW10780   3.071   0.525   2.137
 3343SOL    HW110781   3.084   0.441   2.191
 3343SOL    HW210782   3.042   0.599   2.197
 3344SOL     OW10783   2.169   0.213   3.093
 3344SOL    HW110784   2.146   0.250   3.183
 3344SOL    HW210785   2.139   0.118   3.087
 3345SOL     OW10786   1.899   1.310   3.144
 3345SOL    HW110787   1.952   1.261   3.212
 3345SOL    HW210788   1.921   1.408   3.149
 3346SOL     OW10789   2.594   0.634   2.926
 3346SOL    HW110790   2.653   0.608   2.850
 3346SOL    HW210791   2.566   0.730   2.915
 3347SOL     OW10792   3.590   0.935   3.716
 3347SOL    HW110793   3.544   0.928   3.627
 3347SOL    HW210794   3.528   0.979   3.782
 3348SOL     OW10795   2.169   0.063   2.480
 3348SOL    HW110796   2.158   0.157   2.513
 3348SOL    HW210797   2.164   0.000   2.557
 3349SOL     OW10798   3.484   0.367   2.236
 3349SOL    HW110799   3.486   0.291   2.300
 3349SOL    HW210800   3.436   0.444   2.276
 3350SOL     OW10801   2.885   0.766   2.828
 3350SOL    HW110802   2.900   0.787   2.924
 3350SOL    HW210803   2.855   0.671   2.819
 3351SOL     OW10804   2.842   1.573   3.562
 3351SOL    HW110805   2.822   1.617   3.474
 3351SOL    HW210806   2.881   1.482   3.546
 3352SOL     OW10807   3.721   1.518   3.467
 3352SOL    HW110808   3.735   1.545   3.372
 3352SOL    HW210809   3.804   1.540   3.520
 3353SOL     OW10810   2.212   0.898   3.666
 3353SOL    HW110811   2.288   0.942   3.714
 3353SOL    HW210812   2.247   0.851   3.584
 3354SOL     OW10813   3.402   0.274   1.987
 3354SOL    HW110814   3.341   0.199   2.010
 3354SOL    HW210815   3.424   0.326   2.070
 3355SOL     OW10816   3.165   0.838   1.904
 3355SOL    HW110817   3.199   0.745   1.919
 3355SOL    HW210818   3.183   0.865   1.809
 3356SOL     OW10819   2.930   1.333   2.711
 3356SOL    HW110820   2.937   1.249   2.656
 3356SOL    HW210821   2.992   1.402   2.675
 3357SOL     OW10822   2.181   0.810   2.811
 3357SOL    HW110823   2.274   0.846   2.816
 3357SOL    HW210824   2.175   0.725   2.863
 3358SOL     OW10825   2.201   0.509   2.868
 3358SOL    HW110826   2.149   0.426   2.851
 3358SOL    HW210827   2.278   0.514   2.804
 3359SOL     OW10828   3.000   0.380   3.540
 3359SOL    HW110829   2.955   0.443   3.604
 3359SOL    HW210830   3.093   0.411   3.523
 3360SOL     OW10831   3.022   0.207   3.339
 3360SOL    HW110832   3.022   0.271   3.416
 3360SOL    HW210833   3.050   0.255   3.256
 3361SOL     OW10834   1.870   1.326   2.062
 3361SOL    HW110835   1.777   1.347   2.031
 3361SOL    HW210836   1.880   1.227   2.075
 3362SOL     OW10837   1.950   1.801   2.789
 3362SOL    HW110838   1.908   1.715   2.762
 3362SOL    HW210839   2.044   1.804   2.755
 3363SOL     OW10840   2.366   1.568   2.772
 3363SOL    HW110841   2.432   1.642   2.781
 3363SOL    HW210842   2.410   1.489   2.730
 3364SOL     OW10843   2.864   0.796   3.100
 3364SOL    HW110844   2.905   0.764   3.186
 3364SOL    HW210845   2.768   0.769   3.097
 3365SOL     OW10846   1.902   0.544   2.976
 3365SOL    HW110847   1.987   0.511   2.935
 3365SOL    HW210848   1.915   0.559   3.074
 3366SOL     OW10849   2.051   0.520   3.584
 3366SOL    HW110850   2.110   0.480   3.514
 3366SOL    HW210851   1.993   0.591   3.543
 3367SOL     OW10852   3.231   0.950   3.522
 3367SOL    HW110853   3.270   1.039   3.542
 3367SOL    HW210854   3.241   0.930   3.425
 3368SOL     OW10855   2.677   0.572   2.187
 3368SOL    HW110856   2.684   0.483   2.141
 3368SOL    HW210857   2.583   0.606   2.179
 3369SOL     OW10858   3.519   0.604   3.068
 3369SOL    HW110859   3.481   0.535   3.130
 3369SOL    HW210860   3.601   0.568   3.024
 3370SOL     OW10861   2.114   1.564   3.606
 3370SOL    HW110862   2.084   1.621   3.682
 3370SOL    HW210863   2.107   1.467   3.632
 3371SOL     OW10864   2.533   0.464   3.131
 3371SOL    HW110865   2.499   0.375   3.101
 3371SOL    HW210866   2.559   0.518   3.051
 3372SOL     OW10867   2.792   1.678   3.327
 3372SOL    HW110868   2.768   1.660   3.232
 3372SOL    HW210869   2.822   1.772   3.337
 3373SOL     OW10870   2.335   0.500   2.053
 3373SOL    HW110871   2.396   0.580   2.057
 3373SOL    HW210872   2.240   0.531   2.060
 3374SOL     OW10873   2.021   1.137   3.328
 3374SOL    HW110874   2.043   1.076   3.404
 3374SOL    HW210875   2.031   1.088   3.242
 3375SOL     OW10876   3.209   1.059   3.096
 3375SOL    HW110877   3.233   0.996   3.022
 3375SOL    HW210878   3.119   1.099   3.078
 3376SOL     OW10879   3.164   0.855   2.171
 3376SOL    HW110880   3.078   0.824   2.213
 3376SOL    HW210881   3.160   0.841   2.072
 3377SOL     OW10882   3.621   1.747   3.016
 3377SOL    HW110883   3.682   1.777   2.943
 3377SOL    HW210884   3.583   1.658   2.994
 3378SOL     OW10885   3.114   1.731   2.990
 3378SOL    HW110886   3.198   1.736   2.936
 3378SOL    HW210887   3.091   1.635   3.008
 3379SOL     OW10888   1.945   1.258   2.884
 3379SOL    HW110889   1.940   1.257   2.984
 3379SOL    HW210890   1.862   1.217   2.846
 3380SOL     OW10891   2.550   1.662   3.578
 3380SOL    HW110892   2.494   1.743   3.587
 3380SOL    HW210893   2.602   1.666   3.492
 3381SOL     OW10894   3.588   0.135   2.385
 3381SOL    HW110895   3.661   0.118   2.318
 3381SOL    HW210896   3.557   0.048   2.423
 3382SOL     OW10897   3.250   1.573   2.339
 3382SOL    HW110898   3.317   1.585   2.265
 3382SOL    HW210899   3.210   1.662   2.362
 3383SOL     OW10900   1.992   1.794   3.713
 3383SOL    HW110901   1.951   1.720   3.766
 3383SOL    HW210902   2.056   1.845   3.771
 3384SOL     OW10903   3.142   0.927   2.534
 3384SOL    HW110904   3.202   0.846   2.536
 3384SOL    HW210905   3.182   0.996   2.474
 3385SOL     OW10906   2.692   1.273   3.284
 3385SOL    HW110907   2.687   1.306   3.379
 3385SOL    HW210908   2.606   1.292   3.238
 3386SOL     OW10909   2.534   1.616   2.016
 3386SOL    HW110910   2.543   1.626   1.917
 3386SOL    HW210911   2.494   1.527   2.037
 3387SOL     OW10912   3.512   1.720   3.256
 3387SOL    HW110913   3.565   1.730   3.172
 3387SOL    HW210914   3.485   1.810   3.290
 3388SOL     OW10915   3.703   0.175   2.825
 3388SOL    HW110916   3.742   0.090   2.789
 3388SOL    HW210917   3.605   0.177   2.806
 3389SOL     OW10918   2.125   0.326   2.582
 3389SOL    HW110919   2.046   0.377   2.548
 3389SOL    HW210920   2.116   0.311   2.680
 3390SOL     OW10921   3.056   1.612   1.893
 3390SOL    HW110922   3.062   1.519   1.930
 3390SOL    HW210923   2.997   1.612   1.813
 3391SOL     OW10924   2.684   1.002   3.234
 3391SOL    HW110925   2.724   1.001   3.142
 3391SOL    HW210926   2.694   1.094   3.274
 3392SOL     OW10927   2.778   0.910   2.153
 3392SOL    HW110928   2.841   0.948   2.085
 3392SOL    HW210929   2.818   0.827   2.192
 3393SOL     OW10930   3.366   1.607   1.906
 3393SOL    HW110931   3.274   1.644   1.913
 3393SOL    HW210932   3.404   1.627   1.816
 3394SOL     OW10933   2.234   1.288   3.352
 3394SOL    HW110934   2.221   1.381   3.318
 3394SOL    HW210935   2.150   1.236   3.339
 3395SOL     OW10936   3.476   1.292   3.151
 3395SOL    HW110937   3.536   1.295   3.231
 3395SOL    HW210938   3.401   1.356   3.164
 3396SOL     OW10939   2.901   1.098   2.558
 3396SOL    HW110940   2.831   1.051   2.612
 3396SOL    HW210941   2.960   1.030   2.515
 3397SOL     OW10942   2.876   0.236   2.833
 3397SOL    HW110943   2.868   0.200   2.740
 3397SOL    HW210944   2.874   0.160   2.898
 3398SOL     OW10945   2.452   1.487   2.353
 3398SOL    HW110946   2.494   1.429   2.283
 3398SOL    HW210947   2.408   1.566   2.309
 3399SOL     OW10948   3.571   0.385   3.243
 3399SOL    HW110949   3.644   0.454   3.247
 3399SOL    HW210950   3.599   0.310   3.184
 3400SOL     OW10951   2.117   1.348   2.152
 3400SOL    HW110952   2.021   1.349   2.125
 3400SOL    HW210953   2.129   1.401   2.236
 3401SOL     OW10954   1.967   1.013   3.588
 3401SOL    HW110955   1.890   0.980   3.642
 3401SOL    HW210956   2.052   0.983   3.630
 3402SOL     OW10957   2.534   0.203   3.351
 3402SOL    HW110958   2.624   0.187   3.311
 3402SOL    HW210959   2.542   0.208   3.450
 3403SOL     OW10960   1.937   0.345   1.895
 3403SOL    HW110961   1.845   0.317   1.866
 3403SOL    HW210962   1.968   0.422   1.839
 3404SOL     OW10963   3.302   0.856   3.260
 3404SOL    HW110964   3.245   0.908   3.197
 3404SOL    HW210965   3.398   0.868   3.236
 3405SOL     OW10966   1.934   0.166   2.180
 3405SOL    HW110967   1.917   0.249   2.126
 3405SOL    HW210968   2.024   0.129   2.158
 3406SOL     OW10969   3.045   1.335   1.981
 3406SOL    HW110970   2.946   1.324   1.983
 3406SOL    HW210971   3.079   1.350   2.074
 3407SOL     OW10972   2.475   0.842   3.293
 3407SOL    HW110973   2.531   0.923   3.276
 3407SOL    HW210974   2.534   0.762   3.296
 3408SOL     OW10975   3.355   1.767   2.821
 3408SOL    HW110976   3.388   1.831   2.752
 3408SOL    HW210977   3.421   1.761   2.896
 3409SOL     OW10978   2.578   0.565   3.570
 3409SOL    HW110979   2.597   0.630   3.644
 3409SOL    HW210980   2.638   0.485   3.579
 3410SOL     OW10981   3.312   1.220   3.495
 3410SOL    HW110982   3.303   1.210   3.594
 3410SOL    HW210983   3.408   1.213   3.469
 3411SOL     OW10984   2.252   1.741   3.422
 3411SOL    HW110985   2.161   1.782   3.420
 3411SOL    HW210986   2.245   1.647   3.454
 3412SOL     OW10987   3.536   0.883   3.116
 3412SOL    HW110988   3.509   0.794   3.079
 3412SOL    HW210989   3.537   0.951   3.043
 3413SOL     OW10990   3.087   0.325   2.311
 3413SOL    HW110991   3.152   0.251   2.300
 3413SOL    HW210992   3.107   0.375   2.395
 3414SOL     OW10993   2.456   0.745   2.514
 3414SOL    HW110994   2.506   0.830   2.495
 3414SOL    HW210995   2.368   0.747   2.466
 3415SOL     OW10996   3.639   0.342   3.504
 3415SOL    HW110997   3.622   0.373   3.410
 3415SOL    HW210998   3.555   0.305   3.542
 3416SOL     OW10999   3.592   0.934   3.379
 3416SOL    HW111000   3.630   1.025   3.394
 3416SOL    HW211001   3.584   0.917   3.280
 3417SOL     OW11002   2.721   1.374   1.878
 3417SOL    HW111003   2.675   1.389   1.966
 3417SOL    HW211004   2.765   1.459   1.848
 3418SOL     OW11005   2.523   1.790   2.815
 3418SOL    HW111006   2.477   1.878   2.802
 3418SOL    HW211007   2.622   1.802   2.808
 3419SOL     OW11008   2.721   0.956   2.723
 3419SOL    HW111009   2.775   0.887   2.771
 3419SOL    HW211010   2.689   1.025   2.789
 3420SOL     OW11011   2.945   0.984   1.949
 3420SOL    HW111012   2.922   1.037   1.867
 3420SOL    HW211013   3.026   0.928   1.930
 3421SOL     OW11014   3.723   1.569   2.713
 3421SOL    HW111015   3.652   1.557   2.643
 3421SOL    HW211016   3.724   1.490   2.773
 3422SOL     OW11017   2.083   1.314   3.706
 3422SOL    HW111018   2.018   1.241   3.685
 3422SOL    HW211019   2.087   1.328   3.804
 3423SOL     OW11020   1.941   1.240   2.515
 3423SOL    HW111021   1.940   1.193   2.603
 3423SOL    HW211022   2.023   1.212   2.464
 3424SOL     OW11023   2.534   1.391   3.486
 3424SOL    HW111024   2.456   1.341   3.524
 3424SOL    HW211025   2.531   1.486   3.517
 3425SOL     OW11026   3.686   0.192   3.089
 3425SOL    HW111027   3.682   0.102   3.133
 3425SOL    HW211028   3.689   0.181   2.990
 3426SOL     OW11029   2.290   0.424   2.382
 3426SOL    HW111030   2.320   0.352   2.320
 3426SOL    HW211031   2.251   0.384   2.465
 3427SOL     OW11032   3.567   1.487   2.966
 3427SOL    HW111033   3.474   1.462   2.939
 3427SOL    HW211034   3.593   1.437   3.048
 3428SOL     OW11035   2.179   0.547   3.142
 3428SOL    HW111036   2.217   0.488   3.214
 3428SOL    HW211037   2.219   0.521   3.054
 3429SOL     OW11038   2.674   1.586   2.549
 3429SOL    HW111039   2.706   1.596   2.455
 3429SOL    HW211040   2.595   1.524   2.551
 3430SOL     OW11041   3.286   0.214   2.974
 3430SOL    HW111042   3.338   0.149   3.029
 3430SOL    HW211043   3.237   0.277   3.035
 3431SOL     OW11044   2.863   0.034   3.016
 3431SOL    HW111045   2.800  -0.038   2.985
 3431SOL    HW211046   2.956  -0.002   3.016
 3432SOL     OW11047   2.632   1.330   2.163
 3432SOL    HW111048   2.586   1.243   2.180
 3432SOL    HW211049   2.723   1.327   2.204
 3433SOL     OW11050   2.480   1.567   3.146
 3433SOL    HW111051   2.475   1.649   3.203
 3433SOL    HW211052   2.569   1.564   3.101
 3434SOL     OW11053   3.214   0.052   2.030
 3434SOL    HW111054   3.249   0.011   1.946
 3434SOL    HW211055   3.124   0.014   2.050
 3435SOL     OW11056   3.162   0.453   2.553
 3435SOL    HW111057   3.103   0.533   2.557
 3435SOL    HW211058   3.177   0.418   2.646
 3436SOL     OW11059   3.455   0.221   2.744
 3436SOL    HW111060   3.371   0.220   2.798
 3436SOL    HW211061   3.457   0.304   2.688
 3437SOL     OW11062   1.901   1.077   2.162
 3437SOL    HW111063   2.000   1.066   2.153
 3437SOL    HW211064   1.861   0.991   2.194
 3438SOL     OW11065   2.737   1.646   2.199
 3438SOL    HW111066   2.660   1.611   2.145
 3438SOL    HW211067   2.705   1.717   2.261
 3439SOL     OW11068   2.092   0.628   3.837
 3439SOL    HW111069   1.999   0.626   3.874
 3439SOL    HW211070   2.093   0.589   3.745
 3440SOL     OW11071   2.087   0.275   4.720
 3440SOL    HW111072   2.122   0.258   4.812
 3440SOL    HW211073   1.999   0.230   4.708
 3441SOL     OW11074   1.881   0.368   4.371
 3441SOL    HW111075   1.799   0.411   4.410
 3441SOL    HW211076   1.853   0.295   4.308
 3442SOL     OW11077   2.431   1.275   4.889
 3442SOL    HW111078   2.338   1.268   4.852
 3442SOL    HW211079   2.442   1.364   4.933
 3443SOL     OW11080   3.417   1.511   4.427
 3443SOL    HW111081   3.360   1.495   4.508
 3443SOL    HW211082   3.358   1.521   4.347
 3444SOL     OW11083   2.997   0.703   4.441
 3444SOL    HW111084   3.054   0.781   4.416
 3444SOL    HW211085   2.937   0.729   4.517
 3445SOL     OW11086   3.617   0.607   3.955
 3445SOL    HW111087   3.605   0.594   3.856
 3445SOL    HW211088   3.587   0.526   4.004
 3446SOL     OW11089   2.630   1.144   4.747
 3446SOL    HW111090   2.552   1.161   4.807
 3446SOL    HW211091   2.664   1.231   4.711
 3447SOL     OW11092   2.712   0.798   5.547
 3447SOL    HW111093   2.708   0.874   5.612
 3447SOL    HW211094   2.734   0.834   5.456
 3448SOL     OW11095   2.547   1.012   4.389
 3448SOL    HW111096   2.616   0.996   4.459
 3448SOL    HW211097   2.474   1.069   4.427
 3449SOL     OW11098   2.548   1.161   5.527
 3449SOL    HW111099   2.608   1.240   5.541
 3449SOL    HW211100   2.462   1.192   5.486
 3450SOL     OW11101   2.197   1.435   4.785
 3450SOL    HW111102   2.119   1.404   4.732
 3450SOL    HW211103   2.255   1.493   4.728
 3451SOL     OW11104   3.322   1.505   5.063
 3451SOL    HW111105   3.346   1.599   5.089
 3451SOL    HW211106   3.306   1.451   5.145
 3452SOL     OW11107   2.300   0.392   5.223
 3452SOL    HW111108   2.382   0.336   5.232
 3452SOL    HW211109   2.219   0.334   5.227
 3453SOL     OW11110   3.465   0.447   4.461
 3453SOL    HW111111   3.391   0.493   4.411
 3453SOL    HW211112   3.516   0.515   4.514
 3454SOL     OW11113   2.093   1.713   4.207
 3454SOL    HW111114   2.127   1.790   4.261
 3454SOL    HW211115   2.137   1.713   4.117
 3455SOL     OW11116   2.989   1.341   5.414
 3455SOL    HW111117   3.036   1.341   5.502
 3455SOL    HW211118   2.941   1.254   5.403
 3456SOL     OW11119   2.092   1.434   4.262
 3456SOL    HW111120   2.066   1.530   4.262
 3456SOL    HW211121   2.021   1.380   4.307
 3457SOL     OW11122   2.102   1.091   4.610
 3457SOL    HW111123   2.116   1.007   4.662
 3457SOL    HW211124   2.047   1.155   4.665
 3458SOL     OW11125   2.468   0.964   3.847
 3458SOL    HW111126   2.475   1.048   3.793
 3458SOL    HW211127   2.514   0.977   3.935
 3459SOL     OW11128   3.456   0.114   5.204
 3459SOL    HW111129   3.438   0.181   5.132
 3459SOL    HW211130   3.453   0.160   5.293
 3460SOL     OW11131   1.984   0.643   4.287
 3460SOL    HW111132   1.939   0.555   4.304
 3460SOL    HW211133   1.983   0.697   4.371
 3461SOL     OW11134   3.704   1.767   4.083
 3461SOL    HW111135   3.758   1.738   4.163
 3461SOL    HW211136   3.734   1.857   4.054
 3462SOL     OW11137   1.889   1.596   3.841
 3462SOL    HW111138   1.870   1.500   3.862
 3462SOL    HW211139   1.856   1.654   3.916
 3463SOL     OW11140   3.551   0.922   4.336
 3463SOL    HW111141   3.646   0.893   4.344
 3463SOL    HW211142   3.543   0.987   4.261
 3464SOL     OW11143   3.503   1.108   4.156
 3464SOL    HW111144   3.589   1.110   4.104
 3464SOL    HW211145   3.517   1.155   4.244
 3465SOL     OW11146   1.975   0.737   5.321
 3465SOL    HW111147   2.063   0.724   5.366
 3465SOL    HW211148   1.962   0.834   5.299
 3466SOL     OW11149   2.475   1.365   4.450
 3466SOL    HW111150   2.426   1.278   4.459
 3466SOL    HW211151   2.452   1.408   4.363
 3467SOL     OW11152   3.155   1.228   5.147
 3467SOL    HW111153   3.192   1.155   5.089
 3467SOL    HW211154   3.207   1.233   5.232
 3468SOL     OW11155   2.671   0.004   4.226
 3468SOL    HW111156   2.711   0.095   4.217
 3468SOL    HW211157   2.571   0.012   4.232
 3469SOL     OW11158   2.059   0.976   4.988
 3469SOL    HW111159   2.148   0.931   4.974
 3469SOL    HW211160   1.986   0.911   4.969
 3470SOL     OW11161   3.387   0.999   3.914
 3470SOL    HW111162   3.324   0.923   3.927
 3470SOL    HW211163   3.435   1.017   4.000
 3471SOL     OW11164   3.049   1.792   5.340
 3471SOL    HW111165   3.073   1.852   5.264
 3471SOL    HW211166   3.056   1.697   5.310
 3472SOL     OW11167   2.179   0.251   5.525
 3472SOL    HW111168   2.250   0.322   5.531
 3472SOL    HW211169   2.091   0.290   5.553
 3473SOL     OW11170   3.328   1.417   4.677
 3473SOL    HW111171   3.269   1.423   4.757
 3473SOL    HW211172   3.313   1.329   4.631
 3474SOL     OW11173   3.529   1.714   4.296
 3474SOL    HW111174   3.488   1.691   4.208
 3474SOL    HW211175   3.511   1.640   4.361
 3475SOL     OW11176   2.460   0.729   3.994
 3475SOL    HW111177   2.484   0.798   3.926
 3475SOL    HW211178   2.382   0.762   4.048
 3476SOL     OW11179   3.143   0.345   4.668
 3476SOL    HW111180   3.057   0.295   4.655
 3476SOL    HW211181   3.205   0.291   4.724
 3477SOL     OW11182   3.438   1.662   4.031
 3477SOL    HW111183   3.527   1.708   4.034
 3477SOL    HW211184   3.417   1.638   3.936
 3478SOL     OW11185   2.669   0.605   5.189
 3478SOL    HW111186   2.622   0.602   5.278
 3478SOL    HW211187   2.618   0.550   5.123
 3479SOL     OW11188   3.256   0.469   5.398
 3479SOL    HW111189   3.236   0.512   5.486
 3479SOL    HW211190   3.334   0.407   5.407
 3480SOL     OW11191   2.835   0.890   5.296
 3480SOL    HW111192   2.881   0.806   5.267
 3480SOL    HW211193   2.779   0.924   5.221
 3481SOL     OW11194   2.853   0.410   4.966
 3481SOL    HW111195   2.776   0.444   5.020
 3481SOL    HW211196   2.819   0.359   4.887
 3482SOL     OW11197   2.903   0.701   4.153
 3482SOL    HW111198   2.929   0.697   4.249
 3482SOL    HW211199   2.818   0.650   4.139
 3483SOL     OW11200   1.938   0.811   4.513
 3483SOL    HW111201   2.037   0.799   4.522
 3483SOL    HW211202   1.914   0.906   4.534
 3484SOL     OW11203   1.992   1.821   5.295
 3484SOL    HW111204   1.982   1.806   5.394
 3484SOL    HW211205   1.906   1.857   5.259
 3485SOL     OW11206   2.727   0.348   3.919
 3485SOL    HW111207   2.786   0.411   3.870
 3485SOL    HW211208   2.746   0.254   3.890
 3486SOL     OW11209   3.581   0.585   5.555
 3486SOL    HW111210   3.555   0.674   5.519
 3486SOL    HW211211   3.579   0.517   5.482
 3487SOL     OW11212   3.224   1.144   4.269
 3487SOL    HW111213   3.307   1.115   4.221
 3487SOL    HW211214   3.175   1.211   4.213
 3488SOL     OW11215   2.412   0.196   4.609
 3488SOL    HW111216   2.407   0.191   4.709
 3488SOL    HW211217   2.414   0.292   4.580
 3489SOL     OW11218   2.870   1.456   4.201
 3489SOL    HW111219   2.824   1.528   4.149
 3489SOL    HW211220   2.866   1.476   4.299
 3490SOL     OW11221   3.657   1.066   4.597
 3490SOL    HW111222   3.595   1.051   4.521
 3490SOL    HW211223   3.605   1.077   4.682
 3491SOL     OW11224   3.089   1.550   5.230
 3491SOL    HW111225   3.095   1.473   5.294
 3491SOL    HW211226   3.037   1.524   5.150
 3492SOL     OW11227   2.183   0.943   3.966
 3492SOL    HW111228   2.265   0.982   3.924
 3492SOL    HW211229   2.156   0.861   3.917
 3493SOL     OW11230   3.320   0.735   4.452
 3493SOL    HW111231   3.315   0.670   4.527
 3493SOL    HW211232   3.400   0.794   4.465
 3494SOL     OW11233   2.323   1.266   5.451
 3494SOL    HW111234   2.273   1.267   5.365
 3494SOL    HW211235   2.260   1.248   5.527
 3495SOL     OW11236   2.973   1.776   3.961
 3495SOL    HW111237   2.913   1.714   4.011
 3495SOL    HW211238   3.004   1.732   3.876
 3496SOL     OW11239   2.064   0.285   5.222
 3496SOL    HW111240   1.984   0.345   5.209
 3496SOL    HW211241   2.054   0.236   5.308
 3497SOL     OW11242   3.494   1.377   3.805
 3497SOL    HW111243   3.462   1.471   3.795
 3497SOL    HW211244   3.418   1.314   3.793
 3498SOL     OW11245   2.326   1.743   4.047
 3498SOL    HW111246   2.359   1.782   4.133
 3498SOL    HW211247   2.402   1.736   3.982
 3499SOL     OW11248   3.262   0.107   4.150
 3499SOL    HW111249   3.238   0.070   4.060
 3499SOL    HW211250   3.361   0.123   4.154
 3500SOL     OW11251   2.244   0.700   4.204
 3500SOL    HW111252   2.289   0.610   4.201
 3500SOL    HW211253   2.150   0.689   4.237
 3501SOL     OW11254   3.409   0.222   5.453
 3501SOL    HW111255   3.404   0.259   5.545
 3501SOL    HW211256   3.337   0.153   5.441
 3502SOL     OW11257   2.476   0.122   3.841
 3502SOL    HW111258   2.574   0.100   3.848
 3502SOL    HW211259   2.445   0.105   3.748
 3503SOL     OW11260   2.643   0.264   5.473
 3503SOL    HW111261   2.710   0.203   5.516
 3503SOL    HW211262   2.570   0.283   5.538
 3504SOL     OW11263   2.750   1.514   4.919
 3504SOL    HW111264   2.727   1.489   4.825
 3504SOL    HW211265   2.811   1.445   4.958
 3505SOL     OW11266   3.213   0.590   5.157
 3505SOL    HW111267   3.241   0.547   5.242
 3505SOL    HW211268   3.238   0.686   5.158
 3506SOL     OW11269   2.665   1.402   4.648
 3506SOL    HW111270   2.755   1.416   4.606
 3506SOL    HW211271   2.594   1.404   4.577
 3507SOL     OW11272   2.784   0.503   4.623
 3507SOL    HW111273   2.759   0.494   4.527
 3507SOL    HW211274   2.832   0.421   4.654
 3508SOL     OW11275   2.401   0.064   4.236
 3508SOL    HW111276   2.320   0.065   4.294
 3508SOL    HW211277   2.404   0.147   4.181
 3509SOL     OW11278   3.296   1.188   3.765
 3509SOL    HW111279   3.328   1.112   3.822
 3509SOL    HW211280   3.204   1.215   3.795
 3510SOL     OW11281   2.159   0.035   3.895
 3510SOL    HW111282   2.208   0.119   3.874
 3510SOL    HW211283   2.221  -0.030   3.940
 3511SOL     OW11284   2.797   0.236   4.204
 3511SOL    HW111285   2.749   0.277   4.126
 3511SOL    HW211286   2.896   0.234   4.185
 3512SOL     OW11287   2.938   0.683   5.188
 3512SOL    HW111288   2.858   0.622   5.191
 3512SOL    HW211289   3.019   0.630   5.164
 3513SOL     OW11290   3.089   1.570   4.517
 3513SOL    HW111291   3.110   1.644   4.452
 3513SOL    HW211292   3.157   1.570   4.590
 3514SOL     OW11293   2.321   1.152   4.465
 3514SOL    HW111294   2.250   1.125   4.530
 3514SOL    HW211295   2.295   1.124   4.372
 3515SOL     OW11296   3.133   1.797   4.315
 3515SOL    HW111297   3.177   1.861   4.251
 3515SOL    HW211298   3.083   1.849   4.385
 3516SOL     OW11299   2.894   0.549   3.740
 3516SOL    HW111300   2.853   0.631   3.701
 3516SOL    HW211301   2.958   0.575   3.813
 3517SOL     OW11302   1.940   0.556   5.110
 3517SOL    HW111303   2.032   0.555   5.069
 3517SOL    HW211304   1.934   0.630   5.177
 3518SOL     OW11305   2.423   0.222   4.871
 3518SOL    HW111306   2.461   0.138   4.908
 3518SOL    HW211307   2.335   0.241   4.915
 3519SOL     OW11308   2.728   0.454   4.366
 3519SOL    HW111309   2.696   0.526   4.304
 3519SOL    HW211310   2.752   0.373   4.313
 3520SOL     OW11311   2.879   0.039   4.477
 3520SOL    HW111312   2.807   0.044   4.408
 3520SOL    HW211313   2.855  -0.030   4.546
 3521SOL     OW11314   3.291   1.173   4.591
 3521SOL    HW111315   3.236   1.089   4.584
 3521SOL    HW211316   3.317   1.202   4.499
 3522SOL     OW11317   3.328   0.590   4.716
 3522SOL    HW111318   3.298   0.495   4.723
 3522SOL    HW211319   3.401   0.606   4.782
 3523SOL     OW11320   3.719   0.833   4.101
 3523SOL    HW111321   3.761   0.769   4.165
 3523SOL    HW211322   3.681   0.782   4.023
 3524SOL     OW11323   2.350   1.385   3.898
 3524SOL    HW111324   2.263   1.370   3.945
 3524SOL    HW211325   2.333   1.411   3.803
 3525SOL     OW11326   3.526   1.280   4.381
 3525SOL    HW111327   3.625   1.288   4.395
 3525SOL    HW211328   3.481   1.364   4.412
 3526SOL     OW11329   3.252   0.575   3.802
 3526SOL    HW111330   3.198   0.554   3.883
 3526SOL    HW211331   3.343   0.534   3.811
 3527SOL     OW11332   2.389   0.256   4.052
 3527SOL    HW111333   2.416   0.197   3.977
 3527SOL    HW211334   2.389   0.351   4.021
 3528SOL     OW11335   3.616   1.223   5.312
 3528SOL    HW111336   3.707   1.184   5.299
 3528SOL    HW211337   3.624   1.319   5.336
 3529SOL     OW11338   2.926   1.347   5.064
 3529SOL    HW111339   2.846   1.324   5.119
 3529SOL    HW211340   3.009   1.321   5.113
 3530SOL     OW11341   3.454   1.629   5.349
 3530SOL    HW111342   3.481   1.663   5.259
 3530SOL    HW211343   3.533   1.591   5.395
 3531SOL     OW11344   2.973   1.195   4.824
 3531SOL    HW111345   2.933   1.239   4.905
 3531SOL    HW211346   2.932   1.232   4.741
 3532SOL     OW11347   3.500   1.099   4.803
 3532SOL    HW111348   3.505   1.180   4.862
 3532SOL    HW211349   3.414   1.101   4.752
 3533SOL     OW11350   2.777   0.089   5.126
 3533SOL    HW111351   2.802   0.069   5.031
 3533SOL    HW211352   2.849   0.145   5.168
 3534SOL     OW11353   2.842   1.116   5.443
 3534SOL    HW111354   2.743   1.122   5.453
 3534SOL    HW211355   2.865   1.036   5.387
 3535SOL     OW11356   2.567   1.050   4.092
 3535SOL    HW111357   2.553   1.057   4.191
 3535SOL    HW211358   2.651   0.999   4.074
 3536SOL     OW11359   2.272   0.813   4.975
 3536SOL    HW111360   2.358   0.825   5.025
 3536SOL    HW211361   2.230   0.726   5.002
 3537SOL     OW11362   3.136   0.386   4.986
 3537SOL    HW111363   3.157   0.460   5.050
 3537SOL    HW211364   3.047   0.403   4.943
 3538SOL     OW11365   2.229   1.100   4.225
 3538SOL    HW111366   2.222   1.183   4.169
 3538SOL    HW211367   2.233   1.020   4.165
 3539SOL     OW11368   2.428   0.537   4.589
 3539SOL    HW111369   2.440   0.603   4.515
 3539SOL    HW211370   2.474   0.571   4.672
 3540SOL     OW11371   3.114   1.348   4.112
 3540SOL    HW111372   3.164   1.425   4.152
 3540SOL    HW211373   3.019   1.350   4.144
 3541SOL     OW11374   3.134   1.445   4.866
 3541SOL    HW111375   3.181   1.458   4.953
 3541SOL    HW211376   3.068   1.371   4.875
 3542SOL     OW11377   3.444   0.639   4.196
 3542SOL    HW111378   3.413   0.700   4.269
 3542SOL    HW211379   3.494   0.691   4.127
 3543SOL     OW11380   2.264   0.751   5.322
 3543SOL    HW111381   2.332   0.806   5.275
 3543SOL    HW211382   2.304   0.663   5.349
 3544SOL     OW11383   3.449   0.779   5.394
 3544SOL    HW111384   3.357   0.817   5.389
 3544SOL    HW211385   3.509   0.826   5.329
 3545SOL     OW11386   2.875   0.105   5.494
 3545SOL    HW111387   2.881   0.190   5.442
 3545SOL    HW211388   2.907   0.029   5.437
 3546SOL     OW11389   2.366   0.050   5.464
 3546SOL    HW111390   2.324  -0.007   5.394
 3546SOL    HW211391   2.300   0.119   5.496
 3547SOL     OW11392   2.435   0.870   4.753
 3547SOL    HW111393   2.479   0.959   4.744
 3547SOL    HW211394   2.372   0.870   4.830
 3548SOL     OW11395   3.222   0.862   4.769
 3548SOL    HW111396   3.147   0.862   4.703
 3548SOL    HW211397   3.259   0.770   4.778
 3549SOL     OW11398   3.071   0.525   3.999
 3549SOL    HW111399   3.084   0.441   4.053
 3549SOL    HW211400   3.042   0.599   4.059
 3550SOL     OW11401   2.169   0.213   4.955
 3550SOL    HW111402   2.146   0.250   5.045
 3550SOL    HW211403   2.139   0.118   4.949
 3551SOL     OW11404   2.594   0.634   4.788
 3551SOL    HW111405   2.653   0.608   4.712
 3551SOL    HW211406   2.566   0.730   4.777
 3552SOL     OW11407   3.590   0.935   5.578
 3552SOL    HW111408   3.544   0.928   5.489
 3552SOL    HW211409   3.528   0.979   5.644
 3553SOL     OW11410   2.169   0.063   4.342
 3553SOL    HW111411   2.158   0.157   4.375
 3553SOL    HW211412   2.164   0.000   4.419
 3554SOL     OW11413   3.484   0.367   4.098
 3554SOL    HW111414   3.486   0.291   4.162
 3554SOL    HW211415   3.436   0.444   4.138
 3555SOL     OW11416   2.885   0.766   4.690
 3555SOL    HW111417   2.900   0.787   4.786
 3555SOL    HW211418   2.855   0.671   4.681
 3556SOL     OW11419   2.842   1.573   5.424
 3556SOL    HW111420   2.822   1.617   5.336
 3556SOL    HW211421   2.881   1.482   5.408
 3557SOL     OW11422   3.721   1.518   5.329
 3557SOL    HW111423   3.735   1.545   5.234
 3557SOL    HW211424   3.804   1.540   5.382
 3558SOL     OW11425   2.212   0.898   5.528
 3558SOL    HW111426   2.288   0.942   5.576
 3558SOL    HW211427   2.247   0.851   5.446
 3559SOL     OW11428   3.402   0.274   3.849
 3559SOL    HW111429   3.341   0.199   3.872
 3559SOL    HW211430   3.424   0.326   3.932
 3560SOL     OW11431   3.165   0.838   3.766
 3560SOL    HW111432   3.199   0.745   3.781
 3560SOL    HW211433   3.183   0.865   3.671
 3561SOL     OW11434   2.930   1.333   4.573
 3561SOL    HW111435   2.937   1.249   4.518
 3561SOL    HW211436   2.992   1.402   4.537
 3562SOL     OW11437   2.181   0.810   4.673
 3562SOL    HW111438   2.274   0.846   4.678
 3562SOL    HW211439   2.175   0.725   4.725
 3563SOL     OW11440   2.201   0.509   4.730
 3563SOL    HW111441   2.149   0.426   4.713
 3563SOL    HW211442   2.278   0.514   4.666
 3564SOL     OW11443   3.000   0.380   5.402
 3564SOL    HW111444   2.955   0.443   5.466
 3564SOL    HW211445   3.093   0.411   5.385
 3565SOL     OW11446   3.022   0.207   5.201
 3565SOL    HW111447   3.022   0.271   5.278
 3565SOL    HW211448   3.050   0.255   5.118
 3566SOL     OW11449   1.870   1.326   3.924
 3566SOL    HW111450   1.777   1.347   3.893
 3566SOL    HW211451   1.880   1.227   3.937
 3567SOL     OW11452   2.864   0.796   4.962
 3567SOL    HW111453   2.905   0.764   5.048
 3567SOL    HW211454   2.768   0.769   4.959
 3568SOL     OW11455   1.902   0.544   4.838
 3568SOL    HW111456   1.987   0.511   4.797
 3568SOL    HW211457   1.915   0.559   4.936
 3569SOL     OW11458   2.051   0.520   5.446
 3569SOL    HW111459   2.110   0.480   5.376
 3569SOL    HW211460   1.993   0.591   5.405
 3570SOL     OW11461   3.231   0.950   5.384
 3570SOL    HW111462   3.270   1.039   5.404
 3570SOL    HW211463   3.241   0.930   5.287
 3571SOL     OW11464   2.677   0.572   4.049
 3571SOL    HW111465   2.684   0.483   4.003
 3571SOL    HW211466   2.583   0.606   4.041
 3572SOL     OW11467   3.519   0.604   4.930
 3572SOL    HW111468   3.481   0.535   4.992
 3572SOL    HW211469   3.601   0.568   4.886
 3573SOL     OW11470   2.114   1.564   5.468
 3573SOL    HW111471   2.084   1.621   5.544
 3573SOL    HW211472   2.107   1.467   5.494
 3574SOL     OW11473   2.533   0.464   4.993
 3574SOL    HW111474   2.499   0.375   4.963
 3574SOL    HW211475   2.559   0.518   4.913
 3575SOL     OW11476   2.335   0.500   3.915
 3575SOL    HW111477   2.396   0.580   3.919
 3575SOL    HW211478   2.240   0.531   3.922
 3576SOL     OW11479   2.021   1.137   5.190
 3576SOL    HW111480   2.043   1.076   5.266
 3576SOL    HW211481   2.031   1.088   5.104
 3577SOL     OW11482   3.209   1.059   4.958
 3577SOL    HW111483   3.233   0.996   4.884
 3577SOL    HW211484   3.119   1.099   4.940
 3578SOL     OW11485   3.164   0.855   4.033
 3578SOL    HW111486   3.078   0.824   4.075
 3578SOL    HW211487   3.160   0.841   3.934
 3579SOL     OW11488   3.621   1.747   4.878
 3579SOL    HW111489   3.682   1.777   4.805
 3579SOL    HW211490   3.583   1.658   4.856
 3580SOL     OW11491   3.114   1.731   4.852
 3580SOL    HW111492   3.198   1.736   4.798
 3580SOL    HW211493   3.091   1.635   4.870
 3581SOL     OW11494   1.945   1.258   4.746
 3581SOL    HW111495   1.940   1.257   4.846
 3581SOL    HW211496   1.862   1.217   4.708
 3582SOL     OW11497   3.588   0.135   4.247
 3582SOL    HW111498   3.661   0.118   4.180
 3582SOL    HW211499   3.557   0.048   4.285
 3583SOL     OW11500   3.250   1.573   4.201
 3583SOL    HW111501   3.317   1.585   4.127
 3583SOL    HW211502   3.210   1.662   4.224
 3584SOL     OW11503   1.992   1.794   5.575
 3584SOL    HW111504   1.951   1.720   5.628
 3584SOL    HW211505   2.056   1.845   5.633
 3585SOL     OW11506   3.142   0.927   4.396
 3585SOL    HW111507   3.202   0.846   4.398
 3585SOL    HW211508   3.182   0.996   4.336
 3586SOL     OW11509   2.692   1.273   5.146
 3586SOL    HW111510   2.687   1.306   5.241
 3586SOL    HW211511   2.606   1.292   5.100
 3587SOL     OW11512   2.534   1.616   3.878
 3587SOL    HW111513   2.543   1.626   3.779
 3587SOL    HW211514   2.494   1.527   3.899
 3588SOL     OW11515   3.512   1.720   5.118
 3588SOL    HW111516   3.565   1.730   5.034
 3588SOL    HW211517   3.485   1.810   5.152
 3589SOL     OW11518   3.703   0.175   4.687
 3589SOL    HW111519   3.742   0.090   4.651
 3589SOL    HW211520   3.605   0.177   4.668
 3590SOL     OW11521   2.125   0.326   4.444
 3590SOL    HW111522   2.046   0.377   4.410
 3590SOL    HW211523   2.116   0.311   4.542
 3591SOL     OW11524   3.056   1.612   3.755
 3591SOL    HW111525   3.062   1.519   3.792
 3591SOL    HW211526   2.997   1.612   3.675
 3592SOL     OW11527   2.684   1.002   5.096
 3592SOL    HW111528   2.724   1.001   5.004
 3592SOL    HW211529   2.694   1.094   5.136
 3593SOL     OW11530   2.778   0.910   4.015
 3593SOL    HW111531   2.841   0.948   3.947
 3593SOL    HW211532   2.818   0.827   4.054
 3594SOL     OW11533   3.366   1.607   3.768
 3594SOL    HW111534   3.274   1.644   3.775
 3594SOL    HW211535   3.404   1.627   3.678
 3595SOL     OW11536   2.234   1.288   5.214
 3595SOL    HW111537   2.221   1.381   5.180
 3595SOL    HW211538   2.150   1.236   5.201
 3596SOL     OW11539   3.476   1.292   5.013
 3596SOL    HW111540   3.536   1.295   5.093
 3596SOL    HW211541   3.401   1.356   5.026
 3597SOL     OW11542   2.901   1.098   4.420
 3597SOL    HW111543   2.831   1.051   4.474
 3597SOL    HW211544   2.960   1.030   4.377
 3598SOL     OW11545   2.876   0.236   4.695
 3598SOL    HW111546   2.868   0.200   4.602
 3598SOL    HW211547   2.874   0.160   4.760
 3599SOL     OW11548   2.452   1.487   4.215
 3599SOL    HW111549   2.494   1.429   4.145
 3599SOL    HW211550   2.408   1.566   4.171
 3600SOL     OW11551   3.571   0.385   5.105
 3600SOL    HW111552   3.644   0.454   5.109
 3600SOL    HW211553   3.599   0.310   5.046
 3601SOL     OW11554   2.117   1.348   4.014
 3601SOL    HW111555   2.021   1.349   3.987
 3601SOL    HW211556   2.129   1.401   4.098
 3602SOL     OW11557   1.967   1.013   5.450
 3602SOL    HW111558   1.890   0.980   5.504
 3602SOL    HW211559   2.052   0.983   5.492
 3603SOL     OW11560   2.534   0.203   5.213
 3603SOL    HW111561   2.624   0.187   5.173
 3603SOL    HW211562   2.542   0.208   5.312
 3604SOL     OW11563   1.937   0.345   3.757
 3604SOL    HW111564   1.845   0.317   3.728
 3604SOL    HW211565   1.968   0.422   3.701
 3605SOL     OW11566   3.302   0.856   5.122
 3605SOL    HW111567   3.245   0.908   5.059
 3605SOL    HW211568   3.398   0.868   5.098
 3606SOL     OW11569   1.934   0.166   4.042
 3606SOL    HW111570   1.917   0.249   3.988
 3606SOL    HW211571   2.024   0.129   4.020
 3607SOL     OW11572   3.045   1.335   3.843
 3607SOL    HW111573   2.946   1.324   3.845
 3607SOL    HW211574   3.079   1.350   3.936
 3608SOL     OW11575   2.475   0.842   5.155
 3608SOL    HW111576   2.531   0.923   5.138
 3608SOL    HW211577   2.534   0.762   5.158
 3609SOL     OW11578   3.355   1.767   4.683
 3609SOL    HW111579   3.388   1.831   4.614
 3609SOL    HW211580   3.421   1.761   4.758
 3610SOL     OW11581   2.578   0.565   5.432
 3610SOL    HW111582   2.597   0.630   5.506
 3610SOL    HW211583   2.638   0.485   5.441
 3611SOL     OW11584   3.312   1.220   5.357
 3611SOL    HW111585   3.303   1.210   5.456
 3611SOL    HW211586   3.408   1.213   5.331
 3612SOL     OW11587   2.252   1.741   5.284
 3612SOL    HW111588   2.161   1.782   5.282
 3612SOL    HW211589   2.245   1.647   5.316
 3613SOL     OW11590   3.536   0.883   4.978
 3613SOL    HW111591   3.509   0.794   4.941
 3613SOL    HW211592   3.537   0.951   4.905
 3614SOL     OW11593   3.087   0.325   4.173
 3614SOL    HW111594   3.152   0.251   4.162
 3614SOL    HW211595   3.107   0.375   4.257
 3615SOL     OW11596   2.456   0.745   4.376
 3615SOL    HW111597   2.506   0.830   4.357
 3615SOL    HW211598   2.368   0.747   4.328
 3616SOL     OW11599   3.639   0.342   5.366
 3616SOL    HW111600   3.622   0.373   5.272
 3616SOL    HW211601   3.555   0.305   5.404
 3617SOL     OW11602   3.592   0.934   5.241
 3617SOL    HW111603   3.630   1.025   5.256
 3617SOL    HW211604   3.584   0.917   5.142
 3618SOL     OW11605   2.721   1.374   3.740
 3618SOL    HW111606   2.675   1.389   3.828
 3618SOL    HW211607   2.765   1.459   3.710
 3619SOL     OW11608   2.721   0.956   4.585
 3619SOL    HW111609   2.775   0.887   4.633
 3619SOL    HW211610   2.689   1.025   4.651
 3620SOL     OW11611   2.945   0.984   3.811
 3620SOL    HW111612   2.922   1.037   3.729
 3620SOL    HW211613   3.026   0.928   3.792
 3621SOL     OW11614   3.723   1.569   4.575
 3621SOL    HW111615   3.652   1.557   4.505
 3621SOL    HW211616   3.724   1.490   4.635
 3622SOL     OW11617   2.083   1.314   5.568
 3622SOL    HW111618   2.018   1.241   5.547
 3622SOL    HW211619   2.087   1.328   5.666
 3623SOL     OW11620   1.941   1.240   4.377
 3623SOL    HW111621   1.940   1.193   4.465
 3623SOL    HW211622   2.023   1.212   4.326
 3624SOL     OW11623   2.534   1.391   5.348
 3624SOL    HW111624   2.456   1.341   5.386
 3624SOL    HW211625   2.531   1.486   5.379
 3625SOL     OW11626   3.686   0.192   4.951
 3625SOL    HW111627   3.682   0.102   4.995
 3625SOL    HW211628   3.689   0.181   4.852
 3626SOL     OW11629   2.290   0.424   4.244
 3626SOL    HW111630   2.320   0.352   4.182
 3626SOL    HW211631   2.251   0.384   4.327
 3627SOL     OW11632   3.567   1.487   4.828
 3627SOL    HW111633   3.474   1.462   4.801
 3627SOL    HW211634   3.593   1.437   4.910
 3628SOL     OW11635   2.179   0.547   5.004
 3628SOL    HW111636   2.217   0.488   5.076
 3628SOL    HW211637   2.219   0.521   4.916
 3629SOL     OW11638   2.674   1.586   4.411
 3629SOL    HW111639   2.706   1.596   4.317
 3629SOL    HW211640   2.595   1.524   4.413
 3630SOL     OW11641   3.286   0.214   4.836
 3630SOL    HW111642   3.338   0.149   4.891
 3630SOL    HW211643   3.237   0.277   4.897
 3631SOL     OW11644   2.863   0.034   4.878
 3631SOL    HW111645   2.800  -0.038   4.847
 3631SOL    HW211646   2.956  -0.002   4.878
 3632SOL     OW11647   2.632   1.330   4.025
 3632SOL    HW111648   2.586   1.243   4.042
 3632SOL    HW211649   2.723   1.327   4.066
 3633SOL     OW11650   3.214   0.052   3.892
 3633SOL    HW111651   3.249   0.011   3.808
 3633SOL    HW211652   3.124   0.014   3.912
 3634SOL     OW11653   3.162   0.453   4.415
 3634SOL    HW111654   3.103   0.533   4.419
 3634SOL    HW211655   3.177   0.418   4.508
 3635SOL     OW11656   3.455   0.221   4.606
 3635SOL    HW111657   3.371   0.220   4.660
 3635SOL    HW211658   3.457   0.304   4.550
 3636SOL     OW11659   1.901   1.077   4.024
 3636SOL    HW111660   2.000   1.066   4.015
 3636SOL    HW211661   1.861   0.991   4.056
 3637SOL     OW11662   2.737   1.646   4.061
 3637SOL    HW111663   2.660   1.611   4.007
 3637SOL    HW211664   2.705   1.717   4.123
 3638SOL     OW11665   2.092   0.628   5.699
 3638SOL    HW111666   1.999   0.626   5.736
 3638SOL    HW211667   2.093   0.589   5.607
 3639SOL     OW11668   2.087   0.275   6.582
 3639SOL    HW111669   2.122   0.258   6.674
 3639SOL    HW211670   1.999   0.230   6.570
 3640SOL     OW11671   1.881   0.368   6.233
 3640SOL    HW111672   1.799   0.411   6.272
 3640SOL    HW211673   1.853   0.295   6.170
 3641SOL     OW11674   2.431   1.275   6.751
 3641SOL    HW111675   2.338   1.268   6.714
 3641SOL    HW211676   2.442   1.364   6.795
 3642SOL     OW11677   3.417   1.511   6.289
 3642SOL    HW111678   3.360   1.495   6.370
 3642SOL    HW211679   3.358   1.521   6.209
 3643SOL     OW11680   2.997   0.703   6.303
 3643SOL    HW111681   3.054   0.781   6.278
 3643SOL    HW211682   2.937   0.729   6.379
 3644SOL     OW11683   3.617   0.607   5.817
 3644SOL    HW111684   3.605   0.594   5.718
 3644SOL    HW211685   3.587   0.526   5.866
 3645SOL     OW11686   2.630   1.144   6.609
 3645SOL    HW111687   2.552   1.161   6.669
 3645SOL    HW211688   2.664   1.231   6.573
 3646SOL     OW11689   2.712   0.798   7.409
 3646SOL    HW111690   2.708   0.874   7.474
 3646SOL    HW211691   2.734   0.834   7.318
 3647SOL     OW11692   2.547   1.012   6.251
 3647SOL    HW111693   2.616   0.996   6.321
 3647SOL    HW211694   2.474   1.069   6.289
 3648SOL     OW11695   2.548   1.161   7.389
 3648SOL    HW111696   2.608   1.240   7.403
 3648SOL    HW211697   2.462   1.192   7.348
 3649SOL     OW11698   2.197   1.435   6.647
 3649SOL    HW111699   2.119   1.404   6.594
 3649SOL    HW211700   2.255   1.493   6.590
 3650SOL     OW11701   3.322   1.505   6.925
 3650SOL    HW111702   3.346   1.599   6.951
 3650SOL    HW211703   3.306   1.451   7.007
 3651SOL     OW11704   2.300   0.392   7.085
 3651SOL    HW111705   2.382   0.336   7.094
 3651SOL    HW211706   2.219   0.334   7.089
 3652SOL     OW11707   3.465   0.447   6.323
 3652SOL    HW111708   3.391   0.493   6.273
 3652SOL    HW211709   3.516   0.515   6.376
 3653SOL     OW11710   2.989   1.341   7.276
 3653SOL    HW111711   3.036   1.341   7.364
 3653SOL    HW211712   2.941   1.254   7.265
 3654SOL     OW11713   2.102   1.091   6.472
 3654SOL    HW111714   2.116   1.007   6.524
 3654SOL    HW211715   2.047   1.155   6.527
 3655SOL     OW11716   2.482   1.786   7.025
 3655SOL    HW111717   2.390   1.769   7.060
 3655SOL    HW211718   2.510   1.878   7.051
 3656SOL     OW11719   2.468   0.964   5.709
 3656SOL    HW111720   2.475   1.048   5.655
 3656SOL    HW211721   2.514   0.977   5.797
 3657SOL     OW11722   3.456   0.114   7.066
 3657SOL    HW111723   3.438   0.181   6.994
 3657SOL    HW211724   3.453   0.160   7.155
 3658SOL     OW11725   1.984   0.643   6.149
 3658SOL    HW111726   1.939   0.555   6.166
 3658SOL    HW211727   1.983   0.697   6.233
 3659SOL     OW11728   3.704   1.767   5.945
 3659SOL    HW111729   3.758   1.738   6.025
 3659SOL    HW211730   3.734   1.857   5.916
 3660SOL     OW11731   3.551   0.922   6.198
 3660SOL    HW111732   3.646   0.893   6.206
 3660SOL    HW211733   3.543   0.987   6.123
 3661SOL     OW11734   3.503   1.108   6.018
 3661SOL    HW111735   3.589   1.110   5.966
 3661SOL    HW211736   3.517   1.155   6.106
 3662SOL     OW11737   1.975   0.737   7.183
 3662SOL    HW111738   2.063   0.724   7.228
 3662SOL    HW211739   1.962   0.834   7.161
 3663SOL     OW11740   3.155   1.228   7.009
 3663SOL    HW111741   3.192   1.155   6.951
 3663SOL    HW211742   3.207   1.233   7.094
 3664SOL     OW11743   2.671   0.004   6.088
 3664SOL    HW111744   2.711   0.095   6.079
 3664SOL    HW211745   2.571   0.012   6.094
 3665SOL     OW11746   2.059   0.976   6.850
 3665SOL    HW111747   2.148   0.931   6.836
 3665SOL    HW211748   1.986   0.911   6.831
 3666SOL     OW11749   3.387   0.999   5.776
 3666SOL    HW111750   3.324   0.923   5.789
 3666SOL    HW211751   3.435   1.017   5.862
 3667SOL     OW11752   3.049   1.792   7.202
 3667SOL    HW111753   3.073   1.852   7.126
 3667SOL    HW211754   3.056   1.697   7.172
 3668SOL     OW11755   2.179   0.251   7.387
 3668SOL    HW111756   2.250   0.322   7.393
 3668SOL    HW211757   2.091   0.290   7.415
 3669SOL     OW11758   3.328   1.417   6.539
 3669SOL    HW111759   3.269   1.423   6.619
 3669SOL    HW211760   3.313   1.329   6.493
 3670SOL     OW11761   3.529   1.714   6.158
 3670SOL    HW111762   3.488   1.691   6.070
 3670SOL    HW211763   3.511   1.640   6.223
 3671SOL     OW11764   2.460   0.729   5.856
 3671SOL    HW111765   2.484   0.798   5.788
 3671SOL    HW211766   2.382   0.762   5.910
 3672SOL     OW11767   3.143   0.345   6.530
 3672SOL    HW111768   3.057   0.295   6.517
 3672SOL    HW211769   3.205   0.291   6.586
 3673SOL     OW11770   3.438   1.662   5.893
 3673SOL    HW111771   3.527   1.708   5.896
 3673SOL    HW211772   3.417   1.638   5.798
 3674SOL     OW11773   2.669   0.605   7.051
 3674SOL    HW111774   2.622   0.602   7.140
 3674SOL    HW211775   2.618   0.550   6.985
 3675SOL     OW11776   3.256   0.469   7.260
 3675SOL    HW111777   3.236   0.512   7.348
 3675SOL    HW211778   3.334   0.407   7.269
 3676SOL     OW11779   2.835   0.890   7.158
 3676SOL    HW111780   2.881   0.806   7.129
 3676SOL    HW211781   2.779   0.924   7.083
 3677SOL     OW11782   2.853   0.410   6.828
 3677SOL    HW111783   2.776   0.444   6.882
 3677SOL    HW211784   2.819   0.359   6.749
 3678SOL     OW11785   2.903   0.701   6.015
 3678SOL    HW111786   2.929   0.697   6.111
 3678SOL    HW211787   2.818   0.650   6.001
 3679SOL     OW11788   1.938   0.811   6.375
 3679SOL    HW111789   2.037   0.799   6.384
 3679SOL    HW211790   1.914   0.906   6.396
 3680SOL     OW11791   1.992   1.821   7.157
 3680SOL    HW111792   1.982   1.806   7.256
 3680SOL    HW211793   1.906   1.857   7.121
 3681SOL     OW11794   2.727   0.348   5.781
 3681SOL    HW111795   2.786   0.411   5.732
 3681SOL    HW211796   2.746   0.254   5.752
 3682SOL     OW11797   3.581   0.585   7.417
 3682SOL    HW111798   3.555   0.674   7.381
 3682SOL    HW211799   3.579   0.517   7.344
 3683SOL     OW11800   3.224   1.144   6.131
 3683SOL    HW111801   3.307   1.115   6.083
 3683SOL    HW211802   3.175   1.211   6.075
 3684SOL     OW11803   2.412   0.196   6.471
 3684SOL    HW111804   2.407   0.191   6.571
 3684SOL    HW211805   2.414   0.292   6.442
 3685SOL     OW11806   2.870   1.456   6.063
 3685SOL    HW111807   2.824   1.528   6.011
 3685SOL    HW211808   2.866   1.476   6.161
 3686SOL     OW11809   3.657   1.066   6.459
 3686SOL    HW111810   3.595   1.051   6.383
 3686SOL    HW211811   3.605   1.077   6.544
 3687SOL     OW11812   3.089   1.550   7.092
 3687SOL    HW111813   3.095   1.473   7.156
 3687SOL    HW211814   3.037   1.524   7.012
 3688SOL     OW11815   2.183   0.943   5.828
 3688SOL    HW111816   2.265   0.982   5.786
 3688SOL    HW211817   2.156   0.861   5.779
 3689SOL     OW11818   3.320   0.735   6.314
 3689SOL    HW111819   3.315   0.670   6.389
 3689SOL    HW211820   3.400   0.794   6.327
 3690SOL     OW11821   2.323   1.266   7.313
 3690SOL    HW111822   2.273   1.267   7.227
 3690SOL    HW211823   2.260   1.248   7.389
 3691SOL     OW11824   2.973   1.776   5.823
 3691SOL    HW111825   2.913   1.714   5.873
 3691SOL    HW211826   3.004   1.732   5.738
 3692SOL     OW11827   2.064   0.285   7.084
 3692SOL    HW111828   1.984   0.345   7.071
 3692SOL    HW211829   2.054   0.236   7.170
 3693SOL     OW11830   3.494   1.377   5.667
 3693SOL    HW111831   3.462   1.471   5.657
 3693SOL    HW211832   3.418   1.314   5.655
 3694SOL     OW11833   3.262   0.107   6.012
 3694SOL    HW111834   3.238   0.070   5.922
 3694SOL    HW211835   3.361   0.123   6.016
 3695SOL     OW11836   2.111   1.785   6.827
 3695SOL    HW111837   2.168   1.720   6.877
 3695SOL    HW211838   2.095   1.752   6.734
 3696SOL     OW11839   2.244   0.700   6.066
 3696SOL    HW111840   2.289   0.610   6.063
 3696SOL    HW211841   2.150   0.689   6.099
 3697SOL     OW11842   3.409   0.222   7.315
 3697SOL    HW111843   3.404   0.259   7.407
 3697SOL    HW211844   3.337   0.153   7.303
 3698SOL     OW11845   2.476   0.122   5.703
 3698SOL    HW111846   2.574   0.100   5.710
 3698SOL    HW211847   2.445   0.105   5.610
 3699SOL     OW11848   2.643   0.264   7.335
 3699SOL    HW111849   2.710   0.203   7.378
 3699SOL    HW211850   2.570   0.283   7.400
 3700SOL     OW11851   2.750   1.514   6.781
 3700SOL    HW111852   2.727   1.489   6.687
 3700SOL    HW211853   2.811   1.445   6.820
 3701SOL     OW11854   3.213   0.590   7.019
 3701SOL    HW111855   3.241   0.547   7.104
 3701SOL    HW211856   3.238   0.686   7.020
 3702SOL     OW11857   2.665   1.402   6.510
 3702SOL    HW111858   2.755   1.416   6.468
 3702SOL    HW211859   2.594   1.404   6.439
 3703SOL     OW11860   2.784   0.503   6.485
 3703SOL    HW111861   2.759   0.494   6.389
 3703SOL    HW211862   2.832   0.421   6.516
 3704SOL     OW11863   2.401   0.064   6.098
 3704SOL    HW111864   2.320   0.065   6.156
 3704SOL    HW211865   2.404   0.147   6.043
 3705SOL     OW11866   3.296   1.188   5.627
 3705SOL    HW111867   3.328   1.112   5.684
 3705SOL    HW211868   3.204   1.215   5.657
 3706SOL     OW11869   2.159   0.035   5.757
 3706SOL    HW111870   2.208   0.119   5.736
 3706SOL    HW211871   2.221  -0.030   5.802
 3707SOL     OW11872   2.797   0.236   6.066
 3707SOL    HW111873   2.749   0.277   5.988
 3707SOL    HW211874   2.896   0.234   6.047
 3708SOL     OW11875   2.938   0.683   7.050
 3708SOL    HW111876   2.858   0.622   7.053
 3708SOL    HW211877   3.019   0.630   7.026
 3709SOL     OW11878   3.089   1.570   6.379
 3709SOL    HW111879   3.110   1.644   6.314
 3709SOL    HW211880   3.157   1.570   6.452
 3710SOL     OW11881   2.321   1.152   6.327
 3710SOL    HW111882   2.250   1.125   6.392
 3710SOL    HW211883   2.295   1.124   6.234
 3711SOL     OW11884   3.133   1.797   6.177
 3711SOL    HW111885   3.177   1.861   6.113
 3711SOL    HW211886   3.083   1.849   6.247
 3712SOL     OW11887   2.894   0.549   5.602
 3712SOL    HW111888   2.853   0.631   5.563
 3712SOL    HW211889   2.958   0.575   5.675
 3713SOL     OW11890   1.940   0.556   6.972
 3713SOL    HW111891   2.032   0.555   6.931
 3713SOL    HW211892   1.934   0.630   7.039
 3714SOL     OW11893   2.423   0.222   6.733
 3714SOL    HW111894   2.461   0.138   6.770
 3714SOL    HW211895   2.335   0.241   6.777
 3715SOL     OW11896   2.728   0.454   6.228
 3715SOL    HW111897   2.696   0.526   6.166
 3715SOL    HW211898   2.752   0.373   6.175
 3716SOL     OW11899   2.879   0.039   6.339
 3716SOL    HW111900   2.807   0.044   6.270
 3716SOL    HW211901   2.855  -0.030   6.408
 3717SOL     OW11902   3.291   1.173   6.453
 3717SOL    HW111903   3.236   1.089   6.446
 3717SOL    HW211904   3.317   1.202   6.361
 3718SOL     OW11905   3.328   0.590   6.578
 3718SOL    HW111906   3.298   0.495   6.585
 3718SOL    HW211907   3.401   0.606   6.644
 3719SOL     OW11908   3.719   0.833   5.963
 3719SOL    HW111909   3.761   0.769   6.027
 3719SOL    HW211910   3.681   0.782   5.885
 3720SOL     OW11911   2.350   1.385   5.760
 3720SOL    HW111912   2.263   1.370   5.807
 3720SOL    HW211913   2.333   1.411   5.665
 3721SOL     OW11914   3.526   1.280   6.243
 3721SOL    HW111915   3.625   1.288   6.257
 3721SOL    HW211916   3.481   1.364   6.274
 3722SOL     OW11917   3.252   0.575   5.664
 3722SOL    HW111918   3.198   0.554   5.745
 3722SOL    HW211919   3.343   0.534   5.673
 3723SOL     OW11920   2.389   0.256   5.914
 3723SOL    HW111921   2.416   0.197   5.839
 3723SOL    HW211922   2.389   0.351   5.883
 3724SOL     OW11923   3.616   1.223   7.174
 3724SOL    HW111924   3.707   1.184   7.161
 3724SOL    HW211925   3.624   1.319   7.198
 3725SOL     OW11926   2.926   1.347   6.926
 3725SOL    HW111927   2.846   1.324   6.981
 3725SOL    HW211928   3.009   1.321   6.975
 3726SOL     OW11929   3.454   1.629   7.211
 3726SOL    HW111930   3.481   1.663   7.121
 3726SOL    HW211931   3.533   1.591   7.257
 3727SOL     OW11932   2.973   1.195   6.686
 3727SOL    HW111933   2.933   1.239   6.767
 3727SOL    HW211934   2.932   1.232   6.603
 3728SOL     OW11935   3.500   1.099   6.665
 3728SOL    HW111936   3.505   1.180   6.724
 3728SOL    HW211937   3.414   1.101   6.614
 3729SOL     OW11938   2.777   0.089   6.988
 3729SOL    HW111939   2.802   0.069   6.893
 3729SOL    HW211940   2.849   0.145   7.030
 3730SOL     OW11941   2.842   1.116   7.305
 3730SOL    HW111942   2.743   1.122   7.315
 3730SOL    HW211943   2.865   1.036   7.249
 3731SOL     OW11944   2.567   1.050   5.954
 3731SOL    HW111945   2.553   1.057   6.053
 3731SOL    HW211946   2.651   0.999   5.936
 3732SOL     OW11947   2.272   0.813   6.837
 3732SOL    HW111948   2.358   0.825   6.887
 3732SOL    HW211949   2.230   0.726   6.864
 3733SOL     OW11950   3.136   0.386   6.848
 3733SOL    HW111951   3.157   0.460   6.912
 3733SOL    HW211952   3.047   0.403   6.805
 3734SOL     OW11953   1.926   1.564   6.917
 3734SOL    HW111954   1.880   1.646   6.883
 3734SOL    HW211955   2.024   1.583   6.926
 3735SOL     OW11956   2.229   1.100   6.087
 3735SOL    HW111957   2.222   1.183   6.031
 3735SOL    HW211958   2.233   1.020   6.027
 3736SOL     OW11959   2.428   0.537   6.451
 3736SOL    HW111960   2.440   0.603   6.377
 3736SOL    HW211961   2.474   0.571   6.534
 3737SOL     OW11962   3.114   1.348   5.974
 3737SOL    HW111963   3.164   1.425   6.014
 3737SOL    HW211964   3.019   1.350   6.006
 3738SOL     OW11965   3.134   1.445   6.728
 3738SOL    HW111966   3.181   1.458   6.815
 3738SOL    HW211967   3.068   1.371   6.737
 3739SOL     OW11968   3.444   0.639   6.058
 3739SOL    HW111969   3.413   0.700   6.131
 3739SOL    HW211970   3.494   0.691   5.989
 3740SOL     OW11971   2.216   1.510   6.915
 3740SOL    HW111972   2.195   1.466   6.828
 3740SOL    HW211973   2.313   1.536   6.918
 3741SOL     OW11974   2.264   0.751   7.184
 3741SOL    HW111975   2.332   0.806   7.137
 3741SOL    HW211976   2.304   0.663   7.211
 3742SOL     OW11977   3.449   0.779   7.256
 3742SOL    HW111978   3.357   0.817   7.251
 3742SOL    HW211979   3.509   0.826   7.191
 3743SOL     OW11980   2.875   0.105   7.356
 3743SOL    HW111981   2.881   0.190   7.304
 3743SOL    HW211982   2.907   0.029   7.299
 3744SOL     OW11983   2.366   0.050   7.326
 3744SOL    HW111984   2.324  -0.007   7.256
 3744SOL    HW211985   2.300   0.119   7.358
 3745SOL     OW11986   2.435   0.870   6.615
 3745SOL    HW111987   2.479   0.959   6.606
 3745SOL    HW211988   2.372   0.870   6.692
 3746SOL     OW11989   3.222   0.862   6.631
 3746SOL    HW111990   3.147   0.862   6.565
 3746SOL    HW211991   3.259   0.770   6.640
 3747SOL     OW11992   3.071   0.525   5.861
 3747SOL    HW111993   3.084   0.441   5.915
 3747SOL    HW211994   3.042   0.599   5.921
 3748SOL     OW11995   2.169   0.213   6.817
 3748SOL    HW111996   2.146   0.250   6.907
 3748SOL    HW211997   2.139   0.118   6.811
 3749SOL     OW11998   1.899   1.310   6.868
 3749SOL    HW111999   1.952   1.261   6.936
 3749SOL    HW212000   1.921   1.408   6.873
 3750SOL     OW12001   2.594   0.634   6.650
 3750SOL    HW112002   2.653   0.608   6.574
 3750SOL    HW212003   2.566   0.730   6.639
 3751SOL     OW12004   3.590   0.935   7.440
 3751SOL    HW112005   3.544   0.928   7.351
 3751SOL    HW212006   3.528   0.979   7.506
 3752SOL     OW12007   2.169   0.063   6.204
 3752SOL    HW112008   2.158   0.157   6.237
 3752SOL    HW212009   2.164   0.000   6.281
 3753SOL     OW12010   3.484   0.367   5.960
 3753SOL    HW112011   3.486   0.291   6.024
 3753SOL    HW212012   3.436   0.444   6.000
 3754SOL     OW12013   2.885   0.766   6.552
 3754SOL    HW112014   2.900   0.787   6.648
 3754SOL    HW212015   2.855   0.671   6.543
 3755SOL     OW12016   2.842   1.573   7.286
 3755SOL    HW112017   2.822   1.617   7.198
 3755SOL    HW212018   2.881   1.482   7.270
 3756SOL     OW12019   3.721   1.518   7.191
 3756SOL    HW112020   3.735   1.545   7.096
 3756SOL    HW212021   3.804   1.540   7.244
 3757SOL     OW12022   2.212   0.898   7.390
 3757SOL    HW112023   2.288   0.942   7.438
 3757SOL    HW212024   2.247   0.851   7.308
 3758SOL     OW12025   3.402   0.274   5.711
 3758SOL    HW112026   3.341   0.199   5.734
 3758SOL    HW212027   3.424   0.326   5.794
 3759SOL     OW12028   3.165   0.838   5.628
 3759SOL    HW112029   3.199   0.745   5.643
 3759SOL    HW212030   3.183   0.865   5.533
 3760SOL     OW12031   2.930   1.333   6.435
 3760SOL    HW112032   2.937   1.249   6.380
 3760SOL    HW212033   2.992   1.402   6.399
 3761SOL     OW12034   2.181   0.810   6.535
 3761SOL    HW112035   2.274   0.846   6.540
 3761SOL    HW212036   2.175   0.725   6.587
 3762SOL     OW12037   2.201   0.509   6.592
 3762SOL    HW112038   2.149   0.426   6.575
 3762SOL    HW212039   2.278   0.514   6.528
 3763SOL     OW12040   3.000   0.380   7.264
 3763SOL    HW112041   2.955   0.443   7.328
 3763SOL    HW212042   3.093   0.411   7.247
 3764SOL     OW12043   3.022   0.207   7.063
 3764SOL    HW112044   3.022   0.271   7.140
 3764SOL    HW212045   3.050   0.255   6.980
 3765SOL     OW12046   1.870   1.326   5.786
 3765SOL    HW112047   1.777   1.347   5.755
 3765SOL    HW212048   1.880   1.227   5.799
 3766SOL     OW12049   2.366   1.568   6.496
 3766SOL    HW112050   2.432   1.642   6.505
 3766SOL    HW212051   2.410   1.489   6.454
 3767SOL     OW12052   2.864   0.796   6.824
 3767SOL    HW112053   2.905   0.764   6.910
 3767SOL    HW212054   2.768   0.769   6.821
 3768SOL     OW12055   1.902   0.544   6.700
 3768SOL    HW112056   1.987   0.511   6.659
 3768SOL    HW212057   1.915   0.559   6.798
 3769SOL     OW12058   2.051   0.520   7.308
 3769SOL    HW112059   2.110   0.480   7.238
 3769SOL    HW212060   1.993   0.591   7.267
 3770SOL     OW12061   3.231   0.950   7.246
 3770SOL    HW112062   3.270   1.039   7.266
 3770SOL    HW212063   3.241   0.930   7.149
 3771SOL     OW12064   2.677   0.572   5.911
 3771SOL    HW112065   2.684   0.483   5.865
 3771SOL    HW212066   2.583   0.606   5.903
 3772SOL     OW12067   3.519   0.604   6.792
 3772SOL    HW112068   3.481   0.535   6.854
 3772SOL    HW212069   3.601   0.568   6.748
 3773SOL     OW12070   2.114   1.564   7.330
 3773SOL    HW112071   2.084   1.621   7.406
 3773SOL    HW212072   2.107   1.467   7.356
 3774SOL     OW12073   2.533   0.464   6.855
 3774SOL    HW112074   2.499   0.375   6.825
 3774SOL    HW212075   2.559   0.518   6.775
 3775SOL     OW12076   2.792   1.678   7.051
 3775SOL    HW112077   2.768   1.660   6.956
 3775SOL    HW212078   2.822   1.772   7.061
 3776SOL     OW12079   2.335   0.500   5.777
 3776SOL    HW112080   2.396   0.580   5.781
 3776SOL    HW212081   2.240   0.531   5.784
 3777SOL     OW12082   2.021   1.137   7.052
 3777SOL    HW112083   2.043   1.076   7.128
 3777SOL    HW212084   2.031   1.088   6.966
 3778SOL     OW12085   3.209   1.059   6.820
 3778SOL    HW112086   3.233   0.996   6.746
 3778SOL    HW212087   3.119   1.099   6.802
 3779SOL     OW12088   3.164   0.855   5.895
 3779SOL    HW112089   3.078   0.824   5.937
 3779SOL    HW212090   3.160   0.841   5.796
 3780SOL     OW12091   3.621   1.747   6.740
 3780SOL    HW112092   3.682   1.777   6.667
 3780SOL    HW212093   3.583   1.658   6.718
 3781SOL     OW12094   3.114   1.731   6.714
 3781SOL    HW112095   3.198   1.736   6.660
 3781SOL    HW212096   3.091   1.635   6.732
 3782SOL     OW12097   1.945   1.258   6.608
 3782SOL    HW112098   1.940   1.257   6.708
 3782SOL    HW212099   1.862   1.217   6.570
 3783SOL     OW12100   2.550   1.662   7.302
 3783SOL    HW112101   2.494   1.743   7.311
 3783SOL    HW212102   2.602   1.666   7.216
 3784SOL     OW12103   3.588   0.135   6.109
 3784SOL    HW112104   3.661   0.118   6.042
 3784SOL    HW212105   3.557   0.048   6.147
 3785SOL     OW12106   3.250   1.573   6.063
 3785SOL    HW112107   3.317   1.585   5.989
 3785SOL    HW212108   3.210   1.662   6.086
 3786SOL     OW12109   1.992   1.794   7.437
 3786SOL    HW112110   1.951   1.720   7.490
 3786SOL    HW212111   2.056   1.845   7.495
 3787SOL     OW12112   3.142   0.927   6.258
 3787SOL    HW112113   3.202   0.846   6.260
 3787SOL    HW212114   3.182   0.996   6.198
 3788SOL     OW12115   2.692   1.273   7.008
 3788SOL    HW112116   2.687   1.306   7.103
 3788SOL    HW212117   2.606   1.292   6.962
 3789SOL     OW12118   2.534   1.616   5.740
 3789SOL    HW112119   2.543   1.626   5.641
 3789SOL    HW212120   2.494   1.527   5.761
 3790SOL     OW12121   3.512   1.720   6.980
 3790SOL    HW112122   3.565   1.730   6.896
 3790SOL    HW212123   3.485   1.810   7.014
 3791SOL     OW12124   3.703   0.175   6.549
 3791SOL    HW112125   3.742   0.090   6.513
 3791SOL    HW212126   3.605   0.177   6.530
 3792SOL     OW12127   2.125   0.326   6.306
 3792SOL    HW112128   2.046   0.377   6.272
 3792SOL    HW212129   2.116   0.311   6.404
 3793SOL     OW12130   3.056   1.612   5.617
 3793SOL    HW112131   3.062   1.519   5.654
 3793SOL    HW212132   2.997   1.612   5.537
 3794SOL     OW12133   2.684   1.002   6.958
 3794SOL    HW112134   2.724   1.001   6.866
 3794SOL    HW212135   2.694   1.094   6.998
 3795SOL     OW12136   2.778   0.910   5.877
 3795SOL    HW112137   2.841   0.948   5.809
 3795SOL    HW212138   2.818   0.827   5.916
 3796SOL     OW12139   3.366   1.607   5.630
 3796SOL    HW112140   3.274   1.644   5.637
 3796SOL    HW212141   3.404   1.627   5.540
 3797SOL     OW12142   2.234   1.288   7.076
 3797SOL    HW112143   2.221   1.381   7.042
 3797SOL    HW212144   2.150   1.236   7.063
 3798SOL     OW12145   3.476   1.292   6.875
 3798SOL    HW112146   3.536   1.295   6.955
 3798SOL    HW212147   3.401   1.356   6.888
 3799SOL     OW12148   2.901   1.098   6.282
 3799SOL    HW112149   2.831   1.051   6.336
 3799SOL    HW212150   2.960   1.030   6.239
 3800SOL     OW12151   2.876   0.236   6.557
 3800SOL    HW112152   2.868   0.200   6.464
 3800SOL    HW212153   2.874   0.160   6.622
 3801SOL     OW12154   3.571   0.385   6.967
 3801SOL    HW112155   3.644   0.454   6.971
 3801SOL    HW212156   3.599   0.310   6.908
 3802SOL     OW12157   2.117   1.348   5.876
 3802SOL    HW112158   2.021   1.349   5.849
 3802SOL    HW212159   2.129   1.401   5.960
 3803SOL     OW12160   1.967   1.013   7.312
 3803SOL    HW112161   1.890   0.980   7.366
 3803SOL    HW212162   2.052   0.983   7.354
 3804SOL     OW12163   2.534   0.203   7.075
 3804SOL    HW112164   2.624   0.187   7.035
 3804SOL    HW212165   2.542   0.208   7.174
 3805SOL     OW12166   1.937   0.345   5.619
 3805SOL    HW112167   1.845   0.317   5.590
 3805SOL    HW212168   1.968   0.422   5.563
 3806SOL     OW12169   3.302   0.856   6.984
 3806SOL    HW112170   3.245   0.908   6.921
 3806SOL    HW212171   3.398   0.868   6.960
 3807SOL     OW12172   1.934   0.166   5.904
 3807SOL    HW112173   1.917   0.249   5.850
 3807SOL    HW212174   2.024   0.129   5.882
 3808SOL     OW12175   3.045   1.335   5.705
 3808SOL    HW112176   2.946   1.324   5.707
 3808SOL    HW212177   3.079   1.350   5.798
 3809SOL     OW12178   2.475   0.842   7.017
 3809SOL    HW112179   2.531   0.923   7.000
 3809SOL    HW212180   2.534   0.762   7.020
 3810SOL     OW12181   3.355   1.767   6.545
 3810SOL    HW112182   3.388   1.831   6.476
 3810SOL    HW212183   3.421   1.761   6.620
 3811SOL     OW12184   2.578   0.565   7.294
 3811SOL    HW112185   2.597   0.630   7.368
 3811SOL    HW212186   2.638   0.485   7.303
 3812SOL     OW12187   3.312   1.220   7.219
 3812SOL    HW112188   3.303   1.210   7.318
 3812SOL    HW212189   3.408   1.213   7.193
 3813SOL     OW12190   2.252   1.741   7.146
 3813SOL    HW112191   2.161   1.782   7.144
 3813SOL    HW212192   2.245   1.647   7.178
 3814SOL     OW12193   3.536   0.883   6.840
 3814SOL    HW112194   3.509   0.794   6.803
 3814SOL    HW212195   3.537   0.951   6.767
 3815SOL     OW12196   3.087   0.325   6.035
 3815SOL    HW112197   3.152   0.251   6.024
 3815SOL    HW212198   3.107   0.375   6.119
 3816SOL     OW12199   2.456   0.745   6.238
 3816SOL    HW112200   2.506   0.830   6.219
 3816SOL    HW212201   2.368   0.747   6.190
 3817SOL     OW12202   3.639   0.342   7.228
 3817SOL    HW112203   3.622   0.373   7.134
 3817SOL    HW212204   3.555   0.305   7.266
 3818SOL     OW12205   3.592   0.934   7.103
 3818SOL    HW112206   3.630   1.025   7.118
 3818SOL    HW212207   3.584   0.917   7.004
 3819SOL     OW12208   2.721   1.374   5.602
 3819SOL    HW112209   2.675   1.389   5.690
 3819SOL    HW212210   2.765   1.459   5.572
 3820SOL     OW12211   2.523   1.790   6.539
 3820SOL    HW112212   2.477   1.878   6.526
 3820SOL    HW212213   2.622   1.802   6.532
 3821SOL     OW12214   2.721   0.956   6.447
 3821SOL    HW112215   2.775   0.887   6.495
 3821SOL    HW212216   2.689   1.025   6.513
 3822SOL     OW12217   2.945   0.984   5.673
 3822SOL    HW112218   2.922   1.037   5.591
 3822SOL    HW212219   3.026   0.928   5.654
 3823SOL     OW12220   3.723   1.569   6.437
 3823SOL    HW112221   3.652   1.557   6.367
 3823SOL    HW212222   3.724   1.490   6.497
 3824SOL     OW12223   2.083   1.314   7.430
 3824SOL    HW112224   2.018   1.241   7.409
 3824SOL    HW212225   2.087   1.328   7.528
 3825SOL     OW12226   1.941   1.240   6.239
 3825SOL    HW112227   1.940   1.193   6.327
 3825SOL    HW212228   2.023   1.212   6.188
 3826SOL     OW12229   2.534   1.391   7.210
 3826SOL    HW112230   2.456   1.341   7.248
 3826SOL    HW212231   2.531   1.486   7.241
 3827SOL     OW12232   3.686   0.192   6.813
 3827SOL    HW112233   3.682   0.102   6.857
 3827SOL    HW212234   3.689   0.181   6.714
 3828SOL     OW12235   2.290   0.424   6.106
 3828SOL    HW112236   2.320   0.352   6.044
 3828SOL    HW212237   2.251   0.384   6.189
 3829SOL     OW12238   3.567   1.487   6.690
 3829SOL    HW112239   3.474   1.462   6.663
 3829SOL    HW212240   3.593   1.437   6.772
 3830SOL     OW12241   2.179   0.547   6.866
 3830SOL    HW112242   2.217   0.488   6.938
 3830SOL    HW212243   2.219   0.521   6.778
 3831SOL     OW12244   3.286   0.214   6.698
 3831SOL    HW112245   3.338   0.149   6.753
 3831SOL    HW212246   3.237   0.277   6.759
 3832SOL     OW12247   2.863   0.034   6.740
 3832SOL    HW112248   2.800  -0.038   6.709
 3832SOL    HW212249   2.956  -0.002   6.740
 3833SOL     OW12250   2.632   1.330   5.887
 3833SOL    HW112251   2.586   1.243   5.904
 3833SOL    HW212252   2.723   1.327   5.928
 3834SOL     OW12253   2.480   1.567   6.870
 3834SOL    HW112254   2.475   1.649   6.927
 3834SOL    HW212255   2.569   1.564   6.825
 3835SOL     OW12256   3.214   0.052   5.754
 3835SOL    HW112257   3.249   0.011   5.670
 3835SOL    HW212258   3.124   0.014   5.774
 3836SOL     OW12259   3.162   0.453   6.277
 3836SOL    HW112260   3.103   0.533   6.281
 3836SOL    HW212261   3.177   0.418   6.370
 3837SOL     OW12262   3.455   0.221   6.468
 3837SOL    HW112263   3.371   0.220   6.522
 3837SOL    HW212264   3.457   0.304   6.412
 3838SOL     OW12265   1.901   1.077   5.886
 3838SOL    HW112266   2.000   1.066   5.877
 3838SOL    HW212267   1.861   0.991   5.918
 3839SOL     OW12268   2.092   0.628   7.561
 3839SOL    HW112269   1.999   0.626   7.598
 3839SOL    HW212270   2.093   0.589   7.469
 3840SOL     OW12271   2.087   0.275   8.444
 3840SOL    HW112272   2.122   0.258   8.536
 3840SOL    HW212273   1.999   0.230   8.432
 3841SOL     OW12274   1.881   0.368   8.095
 3841SOL    HW112275   1.799   0.411   8.134
 3841SOL    HW212276   1.853   0.295   8.032
 3842SOL     OW12277   2.431   1.275   8.613
 3842SOL    HW112278   2.338   1.268   8.576
 3842SOL    HW212279   2.442   1.364   8.657
 3843SOL     OW12280   3.417   1.511   8.151
 3843SOL    HW112281   3.360   1.495   8.232
 3843SOL    HW212282   3.358   1.521   8.071
 3844SOL     OW12283   2.997   0.703   8.165
 3844SOL    HW112284   3.054   0.781   8.140
 3844SOL    HW212285   2.937   0.729   8.241
 3845SOL     OW12286   3.617   0.607   7.679
 3845SOL    HW112287   3.605   0.594   7.580
 3845SOL    HW212288   3.587   0.526   7.728
 3846SOL     OW12289   2.630   1.144   8.471
 3846SOL    HW112290   2.552   1.161   8.531
 3846SOL    HW212291   2.664   1.231   8.435
 3847SOL     OW12292   2.712   0.798   9.271
 3847SOL    HW112293   2.708   0.874   9.336
 3847SOL    HW212294   2.734   0.834   9.180
 3848SOL     OW12295   2.547   1.012   8.113
 3848SOL    HW112296   2.616   0.996   8.183
 3848SOL    HW212297   2.474   1.069   8.151
 3849SOL     OW12298   2.548   1.161   9.251
 3849SOL    HW112299   2.608   1.240   9.265
 3849SOL    HW212300   2.462   1.192   9.210
 3850SOL     OW12301   2.197   1.435   8.509
 3850SOL    HW112302   2.119   1.404   8.456
 3850SOL    HW212303   2.255   1.493   8.452
 3851SOL     OW12304   3.322   1.505   8.787
 3851SOL    HW112305   3.346   1.599   8.813
 3851SOL    HW212306   3.306   1.451   8.869
 3852SOL     OW12307   2.300   0.392   8.947
 3852SOL    HW112308   2.382   0.336   8.956
 3852SOL    HW212309   2.219   0.334   8.951
 3853SOL     OW12310   3.465   0.447   8.185
 3853SOL    HW112311   3.391   0.493   8.135
 3853SOL    HW212312   3.516   0.515   8.238
 3854SOL     OW12313   2.093   1.713   7.931
 3854SOL    HW112314   2.127   1.790   7.985
 3854SOL    HW212315   2.137   1.713   7.841
 3855SOL     OW12316   2.989   1.341   9.138
 3855SOL    HW112317   3.036   1.341   9.226
 3855SOL    HW212318   2.941   1.254   9.127
 3856SOL     OW12319   2.092   1.434   7.986
 3856SOL    HW112320   2.066   1.530   7.986
 3856SOL    HW212321   2.021   1.380   8.031
 3857SOL     OW12322   2.102   1.091   8.334
 3857SOL    HW112323   2.116   1.007   8.386
 3857SOL    HW212324   2.047   1.155   8.389
 3858SOL     OW12325   2.482   1.786   8.887
 3858SOL    HW112326   2.390   1.769   8.922
 3858SOL    HW212327   2.510   1.878   8.913
 3859SOL     OW12328   2.468   0.964   7.571
 3859SOL    HW112329   2.475   1.048   7.517
 3859SOL    HW212330   2.514   0.977   7.659
 3860SOL     OW12331   3.456   0.114   8.928
 3860SOL    HW112332   3.438   0.181   8.856
 3860SOL    HW212333   3.453   0.160   9.017
 3861SOL     OW12334   1.984   0.643   8.011
 3861SOL    HW112335   1.939   0.555   8.028
 3861SOL    HW212336   1.983   0.697   8.095
 3862SOL     OW12337   3.704   1.767   7.807
 3862SOL    HW112338   3.758   1.738   7.887
 3862SOL    HW212339   3.734   1.857   7.778
 3863SOL     OW12340   1.889   1.596   7.565
 3863SOL    HW112341   1.870   1.500   7.586
 3863SOL    HW212342   1.856   1.654   7.640
 3864SOL     OW12343   3.551   0.922   8.060
 3864SOL    HW112344   3.646   0.893   8.068
 3864SOL    HW212345   3.543   0.987   7.985
 3865SOL     OW12346   3.503   1.108   7.880
 3865SOL    HW112347   3.589   1.110   7.828
 3865SOL    HW212348   3.517   1.155   7.968
 3866SOL     OW12349   1.975   0.737   9.045
 3866SOL    HW112350   2.063   0.724   9.090
 3866SOL    HW212351   1.962   0.834   9.023
 3867SOL     OW12352   2.475   1.365   8.174
 3867SOL    HW112353   2.426   1.278   8.183
 3867SOL    HW212354   2.452   1.408   8.087
 3868SOL     OW12355   3.155   1.228   8.871
 3868SOL    HW112356   3.192   1.155   8.813
 3868SOL    HW212357   3.207   1.233   8.956
 3869SOL     OW12358   2.671   0.004   7.950
 3869SOL    HW112359   2.711   0.095   7.941
 3869SOL    HW212360   2.571   0.012   7.956
 3870SOL     OW12361   2.059   0.976   8.712
 3870SOL    HW112362   2.148   0.931   8.698
 3870SOL    HW212363   1.986   0.911   8.693
 3871SOL     OW12364   3.387   0.999   7.638
 3871SOL    HW112365   3.324   0.923   7.651
 3871SOL    HW212366   3.435   1.017   7.724
 3872SOL     OW12367   3.049   1.792   9.064
 3872SOL    HW112368   3.073   1.852   8.988
 3872SOL    HW212369   3.056   1.697   9.034
 3873SOL     OW12370   2.179   0.251   9.249
 3873SOL    HW112371   2.250   0.322   9.255
 3873SOL    HW212372   2.091   0.290   9.277
 3874SOL     OW12373   3.328   1.417   8.401
 3874SOL    HW112374   3.269   1.423   8.481
 3874SOL    HW212375   3.313   1.329   8.355
 3875SOL     OW12376   3.529   1.714   8.020
 3875SOL    HW112377   3.488   1.691   7.932
 3875SOL    HW212378   3.511   1.640   8.085
 3876SOL     OW12379   2.460   0.729   7.718
 3876SOL    HW112380   2.484   0.798   7.650
 3876SOL    HW212381   2.382   0.762   7.772
 3877SOL     OW12382   3.143   0.345   8.392
 3877SOL    HW112383   3.057   0.295   8.379
 3877SOL    HW212384   3.205   0.291   8.448
 3878SOL     OW12385   3.438   1.662   7.755
 3878SOL    HW112386   3.527   1.708   7.758
 3878SOL    HW212387   3.417   1.638   7.660
 3879SOL     OW12388   2.669   0.605   8.913
 3879SOL    HW112389   2.622   0.602   9.002
 3879SOL    HW212390   2.618   0.550   8.847
 3880SOL     OW12391   3.256   0.469   9.122
 3880SOL    HW112392   3.236   0.512   9.210
 3880SOL    HW212393   3.334   0.407   9.131
 3881SOL     OW12394   2.835   0.890   9.020
 3881SOL    HW112395   2.881   0.806   8.991
 3881SOL    HW212396   2.779   0.924   8.945
 3882SOL     OW12397   2.853   0.410   8.690
 3882SOL    HW112398   2.776   0.444   8.744
 3882SOL    HW212399   2.819   0.359   8.611
 3883SOL     OW12400   2.903   0.701   7.877
 3883SOL    HW112401   2.929   0.697   7.973
 3883SOL    HW212402   2.818   0.650   7.863
 3884SOL     OW12403   1.938   0.811   8.237
 3884SOL    HW112404   2.037   0.799   8.246
 3884SOL    HW212405   1.914   0.906   8.258
 3885SOL     OW12406   1.992   1.821   9.019
 3885SOL    HW112407   1.982   1.806   9.118
 3885SOL    HW212408   1.906   1.857   8.983
 3886SOL     OW12409   2.727   0.348   7.643
 3886SOL    HW112410   2.786   0.411   7.594
 3886SOL    HW212411   2.746   0.254   7.614
 3887SOL     OW12412   3.581   0.585   9.279
 3887SOL    HW112413   3.555   0.674   9.243
 3887SOL    HW212414   3.579   0.517   9.206
 3888SOL     OW12415   3.224   1.144   7.993
 3888SOL    HW112416   3.307   1.115   7.945
 3888SOL    HW212417   3.175   1.211   7.937
 3889SOL     OW12418   2.412   0.196   8.333
 3889SOL    HW112419   2.407   0.191   8.433
 3889SOL    HW212420   2.414   0.292   8.304
 3890SOL     OW12421   2.870   1.456   7.925
 3890SOL    HW112422   2.824   1.528   7.873
 3890SOL    HW212423   2.866   1.476   8.023
 3891SOL     OW12424   2.213   1.801   8.301
 3891SOL    HW112425   2.263   1.715   8.307
 3891SOL    HW212426   2.278   1.878   8.298
 3892SOL     OW12427   3.657   1.066   8.321
 3892SOL    HW112428   3.595   1.051   8.245
 3892SOL    HW212429   3.605   1.077   8.406
 3893SOL     OW12430   3.089   1.550   8.954
 3893SOL    HW112431   3.095   1.473   9.018
 3893SOL    HW212432   3.037   1.524   8.874
 3894SOL     OW12433   2.183   0.943   7.690
 3894SOL    HW112434   2.265   0.982   7.648
 3894SOL    HW212435   2.156   0.861   7.641
 3895SOL     OW12436   3.320   0.735   8.176
 3895SOL    HW112437   3.315   0.670   8.251
 3895SOL    HW212438   3.400   0.794   8.189
 3896SOL     OW12439   2.323   1.266   9.175
 3896SOL    HW112440   2.273   1.267   9.089
 3896SOL    HW212441   2.260   1.248   9.251
 3897SOL     OW12442   2.973   1.776   7.685
 3897SOL    HW112443   2.913   1.714   7.735
 3897SOL    HW212444   3.004   1.732   7.600
 3898SOL     OW12445   2.064   0.285   8.946
 3898SOL    HW112446   1.984   0.345   8.933
 3898SOL    HW212447   2.054   0.236   9.032
 3899SOL     OW12448   3.494   1.377   7.529
 3899SOL    HW112449   3.462   1.471   7.519
 3899SOL    HW212450   3.418   1.314   7.517
 3900SOL     OW12451   2.326   1.743   7.771
 3900SOL    HW112452   2.359   1.782   7.857
 3900SOL    HW212453   2.402   1.736   7.706
 3901SOL     OW12454   3.262   0.107   7.874
 3901SOL    HW112455   3.238   0.070   7.784
 3901SOL    HW212456   3.361   0.123   7.878
 3902SOL     OW12457   2.111   1.785   8.689
 3902SOL    HW112458   2.168   1.720   8.739
 3902SOL    HW212459   2.095   1.752   8.596
 3903SOL     OW12460   2.802   1.698   8.352
 3903SOL    HW112461   2.882   1.641   8.373
 3903SOL    HW212462   2.753   1.658   8.275
 3904SOL     OW12463   2.244   0.700   7.928
 3904SOL    HW112464   2.289   0.610   7.925
 3904SOL    HW212465   2.150   0.689   7.961
 3905SOL     OW12466   3.409   0.222   9.177
 3905SOL    HW112467   3.404   0.259   9.269
 3905SOL    HW212468   3.337   0.153   9.165
 3906SOL     OW12469   2.476   0.122   7.565
 3906SOL    HW112470   2.574   0.100   7.572
 3906SOL    HW212471   2.445   0.105   7.472
 3907SOL     OW12472   2.643   0.264   9.197
 3907SOL    HW112473   2.710   0.203   9.240
 3907SOL    HW212474   2.570   0.283   9.262
 3908SOL     OW12475   2.750   1.514   8.643
 3908SOL    HW112476   2.727   1.489   8.549
 3908SOL    HW212477   2.811   1.445   8.682
 3909SOL     OW12478   3.213   0.590   8.881
 3909SOL    HW112479   3.241   0.547   8.966
 3909SOL    HW212480   3.238   0.686   8.882
 3910SOL     OW12481   2.665   1.402   8.372
 3910SOL    HW112482   2.755   1.416   8.330
 3910SOL    HW212483   2.594   1.404   8.301
 3911SOL     OW12484   2.784   0.503   8.347
 3911SOL    HW112485   2.759   0.494   8.251
 3911SOL    HW212486   2.832   0.421   8.378
 3912SOL     OW12487   2.401   0.064   7.960
 3912SOL    HW112488   2.320   0.065   8.018
 3912SOL    HW212489   2.404   0.147   7.905
 3913SOL     OW12490   3.296   1.188   7.489
 3913SOL    HW112491   3.328   1.112   7.546
 3913SOL    HW212492   3.204   1.215   7.519
 3914SOL     OW12493   2.159   0.035   7.619
 3914SOL    HW112494   2.208   0.119   7.598
 3914SOL    HW212495   2.221  -0.030   7.664
 3915SOL     OW12496   2.797   0.236   7.928
 3915SOL    HW112497   2.749   0.277   7.850
 3915SOL    HW212498   2.896   0.234   7.909
 3916SOL     OW12499   2.938   0.683   8.912
 3916SOL    HW112500   2.858   0.622   8.915
 3916SOL    HW212501   3.019   0.630   8.888
 3917SOL     OW12502   3.089   1.570   8.241
 3917SOL    HW112503   3.110   1.644   8.176
 3917SOL    HW212504   3.157   1.570   8.314
 3918SOL     OW12505   2.321   1.152   8.189
 3918SOL    HW112506   2.250   1.125   8.254
 3918SOL    HW212507   2.295   1.124   8.096
 3919SOL     OW12508   3.133   1.797   8.039
 3919SOL    HW112509   3.177   1.861   7.975
 3919SOL    HW212510   3.083   1.849   8.109
 3920SOL     OW12511   2.894   0.549   7.464
 3920SOL    HW112512   2.853   0.631   7.425
 3920SOL    HW212513   2.958   0.575   7.537
 3921SOL     OW12514   1.940   0.556   8.834
 3921SOL    HW112515   2.032   0.555   8.793
 3921SOL    HW212516   1.934   0.630   8.901
 3922SOL     OW12517   2.423   0.222   8.595
 3922SOL    HW112518   2.461   0.138   8.632
 3922SOL    HW212519   2.335   0.241   8.639
 3923SOL     OW12520   2.728   0.454   8.090
 3923SOL    HW112521   2.696   0.526   8.028
 3923SOL    HW212522   2.752   0.373   8.037
 3924SOL     OW12523   2.879   0.039   8.201
 3924SOL    HW112524   2.807   0.044   8.132
 3924SOL    HW212525   2.855  -0.030   8.270
 3925SOL     OW12526   3.291   1.173   8.315
 3925SOL    HW112527   3.236   1.089   8.308
 3925SOL    HW212528   3.317   1.202   8.223
 3926SOL     OW12529   3.328   0.590   8.440
 3926SOL    HW112530   3.298   0.495   8.447
 3926SOL    HW212531   3.401   0.606   8.506
 3927SOL     OW12532   3.719   0.833   7.825
 3927SOL    HW112533   3.761   0.769   7.889
 3927SOL    HW212534   3.681   0.782   7.747
 3928SOL     OW12535   2.350   1.385   7.622
 3928SOL    HW112536   2.263   1.370   7.669
 3928SOL    HW212537   2.333   1.411   7.527
 3929SOL     OW12538   3.526   1.280   8.105
 3929SOL    HW112539   3.625   1.288   8.119
 3929SOL    HW212540   3.481   1.364   8.136
 3930SOL     OW12541   3.252   0.575   7.526
 3930SOL    HW112542   3.198   0.554   7.607
 3930SOL    HW212543   3.343   0.534   7.535
 3931SOL     OW12544   2.389   0.256   7.776
 3931SOL    HW112545   2.416   0.197   7.701
 3931SOL    HW212546   2.389   0.351   7.745
 3932SOL     OW12547   3.616   1.223   9.036
 3932SOL    HW112548   3.707   1.184   9.023
 3932SOL    HW212549   3.624   1.319   9.060
 3933SOL     OW12550   2.926   1.347   8.788
 3933SOL    HW112551   2.846   1.324   8.843
 3933SOL    HW212552   3.009   1.321   8.837
 3934SOL     OW12553   3.454   1.629   9.073
 3934SOL    HW112554   3.481   1.663   8.983
 3934SOL    HW212555   3.533   1.591   9.119
 3935SOL     OW12556   2.973   1.195   8.548
 3935SOL    HW112557   2.933   1.239   8.629
 3935SOL    HW212558   2.932   1.232   8.465
 3936SOL     OW12559   3.500   1.099   8.527
 3936SOL    HW112560   3.505   1.180   8.586
 3936SOL    HW212561   3.414   1.101   8.476
 3937SOL     OW12562   2.777   0.089   8.850
 3937SOL    HW112563   2.802   0.069   8.755
 3937SOL    HW212564   2.849   0.145   8.892
 3938SOL     OW12565   2.842   1.116   9.167
 3938SOL    HW112566   2.743   1.122   9.177
 3938SOL    HW212567   2.865   1.036   9.111
 3939SOL     OW12568   2.567   1.050   7.816
 3939SOL    HW112569   2.553   1.057   7.915
 3939SOL    HW212570   2.651   0.999   7.798
 3940SOL     OW12571   2.272   0.813   8.699
 3940SOL    HW112572   2.358   0.825   8.749
 3940SOL    HW212573   2.230   0.726   8.726
 3941SOL     OW12574   3.136   0.386   8.710
 3941SOL    HW112575   3.157   0.460   8.774
 3941SOL    HW212576   3.047   0.403   8.667
 3942SOL     OW12577   1.926   1.564   8.779
 3942SOL    HW112578   1.880   1.646   8.745
 3942SOL    HW212579   2.024   1.583   8.788
 3943SOL     OW12580   2.229   1.100   7.949
 3943SOL    HW112581   2.222   1.183   7.893
 3943SOL    HW212582   2.233   1.020   7.889
 3944SOL     OW12583   2.428   0.537   8.313
 3944SOL    HW112584   2.440   0.603   8.239
 3944SOL    HW212585   2.474   0.571   8.396
 3945SOL     OW12586   3.114   1.348   7.836
 3945SOL    HW112587   3.164   1.425   7.876
 3945SOL    HW212588   3.019   1.350   7.868
 3946SOL     OW12589   3.134   1.445   8.590
 3946SOL    HW112590   3.181   1.458   8.677
 3946SOL    HW212591   3.068   1.371   8.599
 3947SOL     OW12592   3.444   0.639   7.920
 3947SOL    HW112593   3.413   0.700   7.993
 3947SOL    HW212594   3.494   0.691   7.851
 3948SOL     OW12595   2.216   1.510   8.777
 3948SOL    HW112596   2.195   1.466   8.690
 3948SOL    HW212597   2.313   1.536   8.780
 3949SOL     OW12598   2.264   0.751   9.046
 3949SOL    HW112599   2.332   0.806   8.999
 3949SOL    HW212600   2.304   0.663   9.073
 3950SOL     OW12601   3.449   0.779   9.118
 3950SOL    HW112602   3.357   0.817   9.113
 3950SOL    HW212603   3.509   0.826   9.053
 3951SOL     OW12604   2.875   0.105   9.218
 3951SOL    HW112605   2.881   0.190   9.166
 3951SOL    HW212606   2.907   0.029   9.161
 3952SOL     OW12607   2.366   0.050   9.188
 3952SOL    HW112608   2.324  -0.007   9.118
 3952SOL    HW212609   2.300   0.119   9.220
 3953SOL     OW12610   2.435   0.870   8.477
 3953SOL    HW112611   2.479   0.959   8.468
 3953SOL    HW212612   2.372   0.870   8.554
 3954SOL     OW12613   3.222   0.862   8.493
 3954SOL    HW112614   3.147   0.862   8.427
 3954SOL    HW212615   3.259   0.770   8.502
 3955SOL     OW12616   3.071   0.525   7.723
 3955SOL    HW112617   3.084   0.441   7.777
 3955SOL    HW212618   3.042   0.599   7.783
 3956SOL     OW12619   2.169   0.213   8.679
 3956SOL    HW112620   2.146   0.250   8.769
 3956SOL    HW212621   2.139   0.118   8.673
 3957SOL     OW12622   1.899   1.310   8.730
 3957SOL    HW112623   1.952   1.261   8.798
 3957SOL    HW212624   1.921   1.408   8.735
 3958SOL     OW12625   2.594   0.634   8.512
 3958SOL    HW112626   2.653   0.608   8.436
 3958SOL    HW212627   2.566   0.730   8.501
 3959SOL     OW12628   3.590   0.935   9.302
 3959SOL    HW112629   3.544   0.928   9.213
 3959SOL    HW212630   3.528   0.979   9.368
 3960SOL     OW12631   2.169   0.063   8.066
 3960SOL    HW112632   2.158   0.157   8.099
 3960SOL    HW212633   2.164   0.000   8.143
 3961SOL     OW12634   3.484   0.367   7.822
 3961SOL    HW112635   3.486   0.291   7.886
 3961SOL    HW212636   3.436   0.444   7.862
 3962SOL     OW12637   2.885   0.766   8.414
 3962SOL    HW112638   2.900   0.787   8.510
 3962SOL    HW212639   2.855   0.671   8.405
 3963SOL     OW12640   2.842   1.573   9.148
 3963SOL    HW112641   2.822   1.617   9.060
 3963SOL    HW212642   2.881   1.482   9.132
 3964SOL     OW12643   3.721   1.518   9.053
 3964SOL    HW112644   3.735   1.545   8.958
 3964SOL    HW212645   3.804   1.540   9.106
 3965SOL     OW12646   2.212   0.898   9.252
 3965SOL    HW112647   2.288   0.942   9.300
 3965SOL    HW212648   2.247   0.851   9.170
 3966SOL     OW12649   3.402   0.274   7.573
 3966SOL    HW112650   3.341   0.199   7.596
 3966SOL    HW212651   3.424   0.326   7.656
 3967SOL     OW12652   3.165   0.838   7.490
 3967SOL    HW112653   3.199   0.745   7.505
 3967SOL    HW212654   3.183   0.865   7.395
 3968SOL     OW12655   2.930   1.333   8.297
 3968SOL    HW112656   2.937   1.249   8.242
 3968SOL    HW212657   2.992   1.402   8.261
 3969SOL     OW12658   2.181   0.810   8.397
 3969SOL    HW112659   2.274   0.846   8.402
 3969SOL    HW212660   2.175   0.725   8.449
 3970SOL     OW12661   2.201   0.509   8.454
 3970SOL    HW112662   2.149   0.426   8.437
 3970SOL    HW212663   2.278   0.514   8.390
 3971SOL     OW12664   3.000   0.380   9.126
 3971SOL    HW112665   2.955   0.443   9.190
 3971SOL    HW212666   3.093   0.411   9.109
 3972SOL     OW12667   3.022   0.207   8.925
 3972SOL    HW112668   3.022   0.271   9.002
 3972SOL    HW212669   3.050   0.255   8.842
 3973SOL     OW12670   1.870   1.326   7.648
 3973SOL    HW112671   1.777   1.347   7.617
 3973SOL    HW212672   1.880   1.227   7.661
 3974SOL     OW12673   1.950   1.801   8.375
 3974SOL    HW112674   1.908   1.715   8.348
 3974SOL    HW212675   2.044   1.804   8.341
 3975SOL     OW12676   2.366   1.568   8.358
 3975SOL    HW112677   2.432   1.642   8.367
 3975SOL    HW212678   2.410   1.489   8.316
 3976SOL     OW12679   2.864   0.796   8.686
 3976SOL    HW112680   2.905   0.764   8.772
 3976SOL    HW212681   2.768   0.769   8.683
 3977SOL     OW12682   1.902   0.544   8.562
 3977SOL    HW112683   1.987   0.511   8.521
 3977SOL    HW212684   1.915   0.559   8.660
 3978SOL     OW12685   2.051   0.520   9.170
 3978SOL    HW112686   2.110   0.480   9.100
 3978SOL    HW212687   1.993   0.591   9.129
 3979SOL     OW12688   3.231   0.950   9.108
 3979SOL    HW112689   3.270   1.039   9.128
 3979SOL    HW212690   3.241   0.930   9.011
 3980SOL     OW12691   2.677   0.572   7.773
 3980SOL    HW112692   2.684   0.483   7.727
 3980SOL    HW212693   2.583   0.606   7.765
 3981SOL     OW12694   3.519   0.604   8.654
 3981SOL    HW112695   3.481   0.535   8.716
 3981SOL    HW212696   3.601   0.568   8.610
 3982SOL     OW12697   2.114   1.564   9.192
 3982SOL    HW112698   2.084   1.621   9.268
 3982SOL    HW212699   2.107   1.467   9.218
 3983SOL     OW12700   2.533   0.464   8.717
 3983SOL    HW112701   2.499   0.375   8.687
 3983SOL    HW212702   2.559   0.518   8.637
 3984SOL     OW12703   2.792   1.678   8.913
 3984SOL    HW112704   2.768   1.660   8.818
 3984SOL    HW212705   2.822   1.772   8.923
 3985SOL     OW12706   2.335   0.500   7.639
 3985SOL    HW112707   2.396   0.580   7.643
 3985SOL    HW212708   2.240   0.531   7.646
 3986SOL     OW12709   2.021   1.137   8.914
 3986SOL    HW112710   2.043   1.076   8.990
 3986SOL    HW212711   2.031   1.088   8.828
 3987SOL     OW12712   3.209   1.059   8.682
 3987SOL    HW112713   3.233   0.996   8.608
 3987SOL    HW212714   3.119   1.099   8.664
 3988SOL     OW12715   3.164   0.855   7.757
 3988SOL    HW112716   3.078   0.824   7.799
 3988SOL    HW212717   3.160   0.841   7.658
 3989SOL     OW12718   3.621   1.747   8.602
 3989SOL    HW112719   3.682   1.777   8.529
 3989SOL    HW212720   3.583   1.658   8.580
 3990SOL     OW12721   3.114   1.731   8.576
 3990SOL    HW112722   3.198   1.736   8.522
 3990SOL    HW212723   3.091   1.635   8.594
 3991SOL     OW12724   1.945   1.258   8.470
 3991SOL    HW112725   1.940   1.257   8.570
 3991SOL    HW212726   1.862   1.217   8.432
 3992SOL     OW12727   2.550   1.662   9.164
 3992SOL    HW112728   2.494   1.743   9.173
 3992SOL    HW212729   2.602   1.666   9.078
 3993SOL     OW12730   3.588   0.135   7.971
 3993SOL    HW112731   3.661   0.118   7.904
 3993SOL    HW212732   3.557   0.048   8.009
 3994SOL     OW12733   3.250   1.573   7.925
 3994SOL    HW112734   3.317   1.585   7.851
 3994SOL    HW212735   3.210   1.662   7.948
 3995SOL     OW12736   1.992   1.794   9.299
 3995SOL    HW112737   1.951   1.720   9.352
 3995SOL    HW212738   2.056   1.845   9.357
 3996SOL     OW12739   3.142   0.927   8.120
 3996SOL    HW112740   3.202   0.846   8.122
 3996SOL    HW212741   3.182   0.996   8.060
 3997SOL     OW12742   2.692   1.273   8.870
 3997SOL    HW112743   2.687   1.306   8.965
 3997SOL    HW212744   2.606   1.292   8.824
 3998SOL     OW12745   2.534   1.616   7.602
 3998SOL    HW112746   2.543   1.626   7.503
 3998SOL    HW212747   2.494   1.527   7.623
 3999SOL     OW12748   3.512   1.720   8.842
 3999SOL    HW112749   3.565   1.730   8.758
 3999SOL    HW212750   3.485   1.810   8.876
 4000SOL     OW12751   3.703   0.175   8.411
 4000SOL    HW112752   3.742   0.090   8.375
 4000SOL    HW212753   3.605   0.177   8.392
 4001SOL     OW12754   2.125   0.326   8.168
 4001SOL    HW112755   2.046   0.377   8.134
 4001SOL    HW212756   2.116   0.311   8.266
 4002SOL     OW12757   3.056   1.612   7.479
 4002SOL    HW112758   3.062   1.519   7.516
 4002SOL    HW212759   2.997   1.612   7.399
 4003SOL     OW12760   2.684   1.002   8.820
 4003SOL    HW112761   2.724   1.001   8.728
 4003SOL    HW212762   2.694   1.094   8.860
 4004SOL     OW12763   2.778   0.910   7.739
 4004SOL    HW112764   2.841   0.948   7.671
 4004SOL    HW212765   2.818   0.827   7.778
 4005SOL     OW12766   3.366   1.607   7.492
 4005SOL    HW112767   3.274   1.644   7.499
 4005SOL    HW212768   3.404   1.627   7.402
 4006SOL     OW12769   2.234   1.288   8.938
 4006SOL    HW112770   2.221   1.381   8.904
 4006SOL    HW212771   2.150   1.236   8.925
 4007SOL     OW12772   3.476   1.292   8.737
 4007SOL    HW112773   3.536   1.295   8.817
 4007SOL    HW212774   3.401   1.356   8.750
 4008SOL     OW12775   2.901   1.098   8.144
 4008SOL    HW112776   2.831   1.051   8.198
 4008SOL    HW212777   2.960   1.030   8.101
 4009SOL     OW12778   2.876   0.236   8.419
 4009SOL    HW112779   2.868   0.200   8.326
 4009SOL    HW212780   2.874   0.160   8.484
 4010SOL     OW12781   2.452   1.487   7.939
 4010SOL    HW112782   2.494   1.429   7.869
 4010SOL    HW212783   2.408   1.566   7.895
 4011SOL     OW12784   3.571   0.385   8.829
 4011SOL    HW112785   3.644   0.454   8.833
 4011SOL    HW212786   3.599   0.310   8.770
 4012SOL     OW12787   2.117   1.348   7.738
 4012SOL    HW112788   2.021   1.349   7.711
 4012SOL    HW212789   2.129   1.401   7.822
 4013SOL     OW12790   1.967   1.013   9.174
 4013SOL    HW112791   1.890   0.980   9.228
 4013SOL    HW212792   2.052   0.983   9.216
 4014SOL     OW12793   2.534   0.203   8.937
 4014SOL    HW112794   2.624   0.187   8.897
 4014SOL    HW212795   2.542   0.208   9.036
 4015SOL     OW12796   1.937   0.345   7.481
 4015SOL    HW112797   1.845   0.317   7.452
 4015SOL    HW212798   1.968   0.422   7.425
 4016SOL     OW12799   3.302   0.856   8.846
 4016SOL    HW112800   3.245   0.908   8.783
 4016SOL    HW212801   3.398   0.868   8.822
 4017SOL     OW12802   1.934   0.166   7.766
 4017SOL    HW112803   1.917   0.249   7.712
 4017SOL    HW212804   2.024   0.129   7.744
 4018SOL     OW12805   3.045   1.335   7.567
 4018SOL    HW112806   2.946   1.324   7.569
 4018SOL    HW212807   3.079   1.350   7.660
 4019SOL     OW12808   2.475   0.842   8.879
 4019SOL    HW112809   2.531   0.923   8.862
 4019SOL    HW212810   2.534   0.762   8.882
 4020SOL     OW12811   3.355   1.767   8.407
 4020SOL    HW112812   3.388   1.831   8.338
 4020SOL    HW212813   3.421   1.761   8.482
 4021SOL     OW12814   2.578   0.565   9.156
 4021SOL    HW112815   2.597   0.630   9.230
 4021SOL    HW212816   2.638   0.485   9.165
 4022SOL     OW12817   3.312   1.220   9.081
 4022SOL    HW112818   3.303   1.210   9.180
 4022SOL    HW212819   3.408   1.213   9.055
 4023SOL     OW12820   2.252   1.741   9.008
 4023SOL    HW112821   2.161   1.782   9.006
 4023SOL    HW212822   2.245   1.647   9.040
 4024SOL     OW12823   3.536   0.883   8.702
 4024SOL    HW112824   3.509   0.794   8.665
 4024SOL    HW212825   3.537   0.951   8.629
 4025SOL     OW12826   3.087   0.325   7.897
 4025SOL    HW112827   3.152   0.251   7.886
 4025SOL    HW212828   3.107   0.375   7.981
 4026SOL     OW12829   2.456   0.745   8.100
 4026SOL    HW112830   2.506   0.830   8.081
 4026SOL    HW212831   2.368   0.747   8.052
 4027SOL     OW12832   3.639   0.342   9.090
 4027SOL    HW112833   3.622   0.373   8.996
 4027SOL    HW212834   3.555   0.305   9.128
 4028SOL     OW12835   3.592   0.934   8.965
 4028SOL    HW112836   3.630   1.025   8.980
 4028SOL    HW212837   3.584   0.917   8.866
 4029SOL     OW12838   2.721   1.374   7.464
 4029SOL    HW112839   2.675   1.389   7.552
 4029SOL    HW212840   2.765   1.459   7.434
 4030SOL     OW12841   2.523   1.790   8.401
 4030SOL    HW112842   2.477   1.878   8.388
 4030SOL    HW212843   2.622   1.802   8.394
 4031SOL     OW12844   2.721   0.956   8.309
 4031SOL    HW112845   2.775   0.887   8.357
 4031SOL    HW212846   2.689   1.025   8.375
 4032SOL     OW12847   2.945   0.984   7.535
 4032SOL    HW112848   2.922   1.037   7.453
 4032SOL    HW212849   3.026   0.928   7.516
 4033SOL     OW12850   3.723   1.569   8.299
 4033SOL    HW112851   3.652   1.557   8.229
 4033SOL    HW212852   3.724   1.490   8.359
 4034SOL     OW12853   2.083   1.314   9.292
 4034SOL    HW112854   2.018   1.241   9.271
 4034SOL    HW212855   2.087   1.328   9.390
 4035SOL     OW12856   1.941   1.240   8.101
 4035SOL    HW112857   1.940   1.193   8.189
 4035SOL    HW212858   2.023   1.212   8.050
 4036SOL     OW12859   2.534   1.391   9.072
 4036SOL    HW112860   2.456   1.341   9.110
 4036SOL    HW212861   2.531   1.486   9.103
 4037SOL     OW12862   3.686   0.192   8.675
 4037SOL    HW112863   3.682   0.102   8.719
 4037SOL    HW212864   3.689   0.181   8.576
 4038SOL     OW12865   2.290   0.424   7.968
 4038SOL    HW112866   2.320   0.352   7.906
 4038SOL    HW212867   2.251   0.384   8.051
 4039SOL     OW12868   3.567   1.487   8.552
 4039SOL    HW112869   3.474   1.462   8.525
 4039SOL    HW212870   3.593   1.437   8.634
 4040SOL     OW12871   2.179   0.547   8.728
 4040SOL    HW112872   2.217   0.488   8.800
 4040SOL    HW212873   2.219   0.521   8.640
 4041SOL     OW12874   2.674   1.586   8.135
 4041SOL    HW112875   2.706   1.596   8.041
 4041SOL    HW212876   2.595   1.524   8.137
 4042SOL     OW12877   3.286   0.214   8.560
 4042SOL    HW112878   3.338   0.149   8.615
 4042SOL    HW212879   3.237   0.277   8.621
 4043SOL     OW12880   2.863   0.034   8.602
 4043SOL    HW112881   2.800  -0.038   8.571
 4043SOL    HW212882   2.956  -0.002   8.602
 4044SOL     OW12883   2.632   1.330   7.749
 4044SOL    HW112884   2.586   1.243   7.766
 4044SOL    HW212885   2.723   1.327   7.790
 4045SOL     OW12886   2.480   1.567   8.732
 4045SOL    HW112887   2.475   1.649   8.789
 4045SOL    HW212888   2.569   1.564   8.687
 4046SOL     OW12889   3.214   0.052   7.616
 4046SOL    HW112890   3.249   0.011   7.532
 4046SOL    HW212891   3.124   0.014   7.636
 4047SOL     OW12892   3.162   0.453   8.139
 4047SOL    HW112893   3.103   0.533   8.143
 4047SOL    HW212894   3.177   0.418   8.232
 4048SOL     OW12895   3.455   0.221   8.330
 4048SOL    HW112896   3.371   0.220   8.384
 4048SOL    HW212897   3.457   0.304   8.274
 4049SOL     OW12898   1.901   1.077   7.748
 4049SOL    HW112899   2.000   1.066   7.739
 4049SOL    HW212900   1.861   0.991   7.780
 4050SOL     OW12901   2.737   1.646   7.785
 4050SOL    HW112902   2.660   1.611   7.731
 4050SOL    HW212903   2.705   1.717   7.847
 4051SOL     OW12904   2.092   0.628   9.423
 4051SOL    HW112905   1.999   0.626   9.460
 4051SOL    HW212906   2.093   0.589   9.331
 4052SOL     OW12907   2.087   0.275  10.306
 4052SOL    HW112908   2.122   0.258  10.398
 4052SOL    HW212909   1.999   0.230  10.294
 4053SOL     OW12910   1.881   0.368   9.957
 4053SOL    HW112911   1.799   0.411   9.996
 4053SOL    HW212912   1.853   0.295   9.894
 4054SOL     OW12913   2.431   1.275  10.475
 4054SOL    HW112914   2.338   1.268  10.438
 4054SOL    HW212915   2.442   1.364  10.519
 4055SOL     OW12916   3.417   1.511  10.013
 4055SOL    HW112917   3.360   1.495  10.094
 4055SOL    HW212918   3.358   1.521   9.933
 4056SOL     OW12919   2.997   0.703  10.027
 4056SOL    HW112920   3.054   0.781  10.002
 4056SOL    HW212921   2.937   0.729  10.103
 4057SOL     OW12922   3.617   0.607   9.541
 4057SOL    HW112923   3.605   0.594   9.442
 4057SOL    HW212924   3.587   0.526   9.590
 4058SOL     OW12925   2.630   1.144  10.333
 4058SOL    HW112926   2.552   1.161  10.393
 4058SOL    HW212927   2.664   1.231  10.297
 4059SOL     OW12928   2.712   0.798  11.133
 4059SOL    HW112929   2.708   0.874  11.198
 4059SOL    HW212930   2.734   0.834  11.042
 4060SOL     OW12931   2.547   1.012   9.975
 4060SOL    HW112932   2.616   0.996  10.045
 4060SOL    HW212933   2.474   1.069  10.013
 4061SOL     OW12934   2.197   1.435  10.371
 4061SOL    HW112935   2.119   1.404  10.318
 4061SOL    HW212936   2.255   1.493  10.314
 4062SOL     OW12937   3.322   1.505  10.649
 4062SOL    HW112938   3.346   1.599  10.675
 4062SOL    HW212939   3.306   1.451  10.731
 4063SOL     OW12940   2.300   0.392  10.809
 4063SOL    HW112941   2.382   0.336  10.818
 4063SOL    HW212942   2.219   0.334  10.813
 4064SOL     OW12943   3.465   0.447  10.047
 4064SOL    HW112944   3.391   0.493   9.997
 4064SOL    HW212945   3.516   0.515  10.100
 4065SOL     OW12946   2.093   1.713   9.793
 4065SOL    HW112947   2.127   1.790   9.847
 4065SOL    HW212948   2.137   1.713   9.703
 4066SOL     OW12949   2.092   1.434   9.848
 4066SOL    HW112950   2.066   1.530   9.848
 4066SOL    HW212951   2.021   1.380   9.893
 4067SOL     OW12952   2.102   1.091  10.196
 4067SOL    HW112953   2.116   1.007  10.248
 4067SOL    HW212954   2.047   1.155  10.251
 4068SOL     OW12955   2.482   1.786  10.749
 4068SOL    HW112956   2.390   1.769  10.784
 4068SOL    HW212957   2.510   1.878  10.775
 4069SOL     OW12958   2.468   0.964   9.433
 4069SOL    HW112959   2.475   1.048   9.379
 4069SOL    HW212960   2.514   0.977   9.521
 4070SOL     OW12961   3.456   0.114  10.790
 4070SOL    HW112962   3.438   0.181  10.718
 4070SOL    HW212963   3.453   0.160  10.879
 4071SOL     OW12964   1.984   0.643   9.873
 4071SOL    HW112965   1.939   0.555   9.890
 4071SOL    HW212966   1.983   0.697   9.957
 4072SOL     OW12967   3.704   1.767   9.669
 4072SOL    HW112968   3.758   1.738   9.749
 4072SOL    HW212969   3.734   1.857   9.640
 4073SOL     OW12970   1.889   1.596   9.427
 4073SOL    HW112971   1.870   1.500   9.448
 4073SOL    HW212972   1.856   1.654   9.502
 4074SOL     OW12973   3.551   0.922   9.922
 4074SOL    HW112974   3.646   0.893   9.930
 4074SOL    HW212975   3.543   0.987   9.847
 4075SOL     OW12976   3.503   1.108   9.742
 4075SOL    HW112977   3.589   1.110   9.690
 4075SOL    HW212978   3.517   1.155   9.830
 4076SOL     OW12979   1.975   0.737  10.907
 4076SOL    HW112980   2.063   0.724  10.952
 4076SOL    HW212981   1.962   0.834  10.885
 4077SOL     OW12982   2.475   1.365  10.036
 4077SOL    HW112983   2.426   1.278  10.045
 4077SOL    HW212984   2.452   1.408   9.949
 4078SOL     OW12985   3.155   1.228  10.733
 4078SOL    HW112986   3.192   1.155  10.675
 4078SOL    HW212987   3.207   1.233  10.818
 4079SOL     OW12988   2.671   0.004   9.812
 4079SOL    HW112989   2.711   0.095   9.803
 4079SOL    HW212990   2.571   0.012   9.818
 4080SOL     OW12991   2.059   0.976  10.574
 4080SOL    HW112992   2.148   0.931  10.560
 4080SOL    HW212993   1.986   0.911  10.555
 4081SOL     OW12994   3.387   0.999   9.500
 4081SOL    HW112995   3.324   0.923   9.513
 4081SOL    HW212996   3.435   1.017   9.586
 4082SOL     OW12997   3.049   1.792  10.926
 4082SOL    HW112998   3.073   1.852  10.850
 4082SOL    HW212999   3.056   1.697  10.896
 4083SOL     OW13000   2.179   0.251  11.111
 4083SOL    HW113001   2.250   0.322  11.117
 4083SOL    HW213002   2.091   0.290  11.139
 4084SOL     OW13003   3.328   1.417  10.263
 4084SOL    HW113004   3.269   1.423  10.343
 4084SOL    HW213005   3.313   1.329  10.217
 4085SOL     OW13006   3.529   1.714   9.882
 4085SOL    HW113007   3.488   1.691   9.794
 4085SOL    HW213008   3.511   1.640   9.947
 4086SOL     OW13009   2.460   0.729   9.580
 4086SOL    HW113010   2.484   0.798   9.512
 4086SOL    HW213011   2.382   0.762   9.634
 4087SOL     OW13012   3.143   0.345  10.254
 4087SOL    HW113013   3.057   0.295  10.241
 4087SOL    HW213014   3.205   0.291  10.310
 4088SOL     OW13015   3.438   1.662   9.617
 4088SOL    HW113016   3.527   1.708   9.620
 4088SOL    HW213017   3.417   1.638   9.522
 4089SOL     OW13018   2.669   0.605  10.775
 4089SOL    HW113019   2.622   0.602  10.864
 4089SOL    HW213020   2.618   0.550  10.709
 4090SOL     OW13021   2.835   0.890  10.882
 4090SOL    HW113022   2.881   0.806  10.853
 4090SOL    HW213023   2.779   0.924  10.807
 4091SOL     OW13024   2.853   0.410  10.552
 4091SOL    HW113025   2.776   0.444  10.606
 4091SOL    HW213026   2.819   0.359  10.473
 4092SOL     OW13027   2.903   0.701   9.739
 4092SOL    HW113028   2.929   0.697   9.835
 4092SOL    HW213029   2.818   0.650   9.725
 4093SOL     OW13030   1.938   0.811  10.099
 4093SOL    HW113031   2.037   0.799  10.108
 4093SOL    HW213032   1.914   0.906  10.120
 4094SOL     OW13033   1.992   1.821  10.881
 4094SOL    HW113034   1.982   1.806  10.980
 4094SOL    HW213035   1.906   1.857  10.845
 4095SOL     OW13036   2.727   0.348   9.505
 4095SOL    HW113037   2.786   0.411   9.456
 4095SOL    HW213038   2.746   0.254   9.476
 4096SOL     OW13039   3.224   1.144   9.855
 4096SOL    HW113040   3.307   1.115   9.807
 4096SOL    HW213041   3.175   1.211   9.799
 4097SOL     OW13042   2.412   0.196  10.195
 4097SOL    HW113043   2.407   0.191  10.295
 4097SOL    HW213044   2.414   0.292  10.166
 4098SOL     OW13045   2.870   1.456   9.787
 4098SOL    HW113046   2.824   1.528   9.735
 4098SOL    HW213047   2.866   1.476   9.885
 4099SOL     OW13048   2.213   1.801  10.163
 4099SOL    HW113049   2.263   1.715  10.169
 4099SOL    HW213050   2.278   1.878  10.160
 4100SOL     OW13051   3.657   1.066  10.183
 4100SOL    HW113052   3.595   1.051  10.107
 4100SOL    HW213053   3.605   1.077  10.268
 4101SOL     OW13054   3.089   1.550  10.816
 4101SOL    HW113055   3.095   1.473  10.880
 4101SOL    HW213056   3.037   1.524  10.736
 4102SOL     OW13057   2.183   0.943   9.552
 4102SOL    HW113058   2.265   0.982   9.510
 4102SOL    HW213059   2.156   0.861   9.503
 4103SOL     OW13060   3.320   0.735  10.038
 4103SOL    HW113061   3.315   0.670  10.113
 4103SOL    HW213062   3.400   0.794  10.051
 4104SOL     OW13063   2.323   1.266  11.037
 4104SOL    HW113064   2.273   1.267  10.951
 4104SOL    HW213065   2.260   1.248  11.113
 4105SOL     OW13066   2.973   1.776   9.547
 4105SOL    HW113067   2.913   1.714   9.597
 4105SOL    HW213068   3.004   1.732   9.462
 4106SOL     OW13069   2.064   0.285  10.808
 4106SOL    HW113070   1.984   0.345  10.795
 4106SOL    HW213071   2.054   0.236  10.894
 4107SOL     OW13072   3.494   1.377   9.391
 4107SOL    HW113073   3.462   1.471   9.381
 4107SOL    HW213074   3.418   1.314   9.379
 4108SOL     OW13075   2.326   1.743   9.633
 4108SOL    HW113076   2.359   1.782   9.719
 4108SOL    HW213077   2.402   1.736   9.568
 4109SOL     OW13078   3.262   0.107   9.736
 4109SOL    HW113079   3.238   0.070   9.646
 4109SOL    HW213080   3.361   0.123   9.740
 4110SOL     OW13081   2.111   1.785  10.551
 4110SOL    HW113082   2.168   1.720  10.601
 4110SOL    HW213083   2.095   1.752  10.458
 4111SOL     OW13084   2.802   1.698  10.214
 4111SOL    HW113085   2.882   1.641  10.235
 4111SOL    HW213086   2.753   1.658  10.137
 4112SOL     OW13087   2.244   0.700   9.790
 4112SOL    HW113088   2.289   0.610   9.787
 4112SOL    HW213089   2.150   0.689   9.823
 4113SOL     OW13090   2.476   0.122   9.427
 4113SOL    HW113091   2.574   0.100   9.434
 4113SOL    HW213092   2.445   0.105   9.334
 4114SOL     OW13093   2.643   0.264  11.059
 4114SOL    HW113094   2.710   0.203  11.102
 4114SOL    HW213095   2.570   0.283  11.124
 4115SOL     OW13096   2.750   1.514  10.505
 4115SOL    HW113097   2.727   1.489  10.411
 4115SOL    HW213098   2.811   1.445  10.544
 4116SOL     OW13099   3.213   0.590  10.743
 4116SOL    HW113100   3.241   0.547  10.828
 4116SOL    HW213101   3.238   0.686  10.744
 4117SOL     OW13102   2.665   1.402  10.234
 4117SOL    HW113103   2.755   1.416  10.192
 4117SOL    HW213104   2.594   1.404  10.163
 4118SOL     OW13105   2.784   0.503  10.209
 4118SOL    HW113106   2.759   0.494  10.113
 4118SOL    HW213107   2.832   0.421  10.240
 4119SOL     OW13108   2.401   0.064   9.822
 4119SOL    HW113109   2.320   0.065   9.880
 4119SOL    HW213110   2.404   0.147   9.767
 4120SOL     OW13111   3.296   1.188   9.351
 4120SOL    HW113112   3.328   1.112   9.408
 4120SOL    HW213113   3.204   1.215   9.381
 4121SOL     OW13114   2.159   0.035   9.481
 4121SOL    HW113115   2.208   0.119   9.460
 4121SOL    HW213116   2.221  -0.030   9.526
 4122SOL     OW13117   2.797   0.236   9.790
 4122SOL    HW113118   2.749   0.277   9.712
 4122SOL    HW213119   2.896   0.234   9.771
 4123SOL     OW13120   2.938   0.683  10.774
 4123SOL    HW113121   2.858   0.622  10.777
 4123SOL    HW213122   3.019   0.630  10.750
 4124SOL     OW13123   3.089   1.570  10.103
 4124SOL    HW113124   3.110   1.644  10.038
 4124SOL    HW213125   3.157   1.570  10.176
 4125SOL     OW13126   2.321   1.152  10.051
 4125SOL    HW113127   2.250   1.125  10.116
 4125SOL    HW213128   2.295   1.124   9.958
 4126SOL     OW13129   3.133   1.797   9.901
 4126SOL    HW113130   3.177   1.861   9.837
 4126SOL    HW213131   3.083   1.849   9.971
 4127SOL     OW13132   2.894   0.549   9.326
 4127SOL    HW113133   2.853   0.631   9.287
 4127SOL    HW213134   2.958   0.575   9.399
 4128SOL     OW13135   1.940   0.556  10.696
 4128SOL    HW113136   2.032   0.555  10.655
 4128SOL    HW213137   1.934   0.630  10.763
 4129SOL     OW13138   2.423   0.222  10.457
 4129SOL    HW113139   2.461   0.138  10.494
 4129SOL    HW213140   2.335   0.241  10.501
 4130SOL     OW13141   2.728   0.454   9.952
 4130SOL    HW113142   2.696   0.526   9.890
 4130SOL    HW213143   2.752   0.373   9.899
 4131SOL     OW13144   2.879   0.039  10.063
 4131SOL    HW113145   2.807   0.044   9.994
 4131SOL    HW213146   2.855  -0.030  10.132
 4132SOL     OW13147   3.291   1.173  10.177
 4132SOL    HW113148   3.236   1.089  10.170
 4132SOL    HW213149   3.317   1.202  10.085
 4133SOL     OW13150   3.328   0.590  10.302
 4133SOL    HW113151   3.298   0.495  10.309
 4133SOL    HW213152   3.401   0.606  10.368
 4134SOL     OW13153   3.719   0.833   9.687
 4134SOL    HW113154   3.761   0.769   9.751
 4134SOL    HW213155   3.681   0.782   9.609
 4135SOL     OW13156   2.350   1.385   9.484
 4135SOL    HW113157   2.263   1.370   9.531
 4135SOL    HW213158   2.333   1.411   9.389
 4136SOL     OW13159   3.526   1.280   9.967
 4136SOL    HW113160   3.625   1.288   9.981
 4136SOL    HW213161   3.481   1.364   9.998
 4137SOL     OW13162   3.252   0.575   9.388
 4137SOL    HW113163   3.198   0.554   9.469
 4137SOL    HW213164   3.343   0.534   9.397
 4138SOL     OW13165   2.389   0.256   9.638
 4138SOL    HW113166   2.416   0.197   9.563
 4138SOL    HW213167   2.389   0.351   9.607
 4139SOL     OW13168   3.616   1.223  10.898
 4139SOL    HW113169   3.707   1.184  10.885
 4139SOL    HW213170   3.624   1.319  10.922
 4140SOL     OW13171   2.926   1.347  10.650
 4140SOL    HW113172   2.846   1.324  10.705
 4140SOL    HW213173   3.009   1.321  10.699
 4141SOL     OW13174   2.973   1.195  10.410
 4141SOL    HW113175   2.933   1.239  10.491
 4141SOL    HW213176   2.932   1.232  10.327
 4142SOL     OW13177   3.500   1.099  10.389
 4142SOL    HW113178   3.505   1.180  10.448
 4142SOL    HW213179   3.414   1.101  10.338
 4143SOL     OW13180   2.777   0.089  10.712
 4143SOL    HW113181   2.802   0.069  10.617
 4143SOL    HW213182   2.849   0.145  10.754
 4144SOL     OW13183   2.567   1.050   9.678
 4144SOL    HW113184   2.553   1.057   9.777
 4144SOL    HW213185   2.651   0.999   9.660
 4145SOL     OW13186   2.272   0.813  10.561
 4145SOL    HW113187   2.358   0.825  10.611
 4145SOL    HW213188   2.230   0.726  10.588
 4146SOL     OW13189   3.136   0.386  10.572
 4146SOL    HW113190   3.157   0.460  10.636
 4146SOL    HW213191   3.047   0.403  10.529
 4147SOL     OW13192   1.926   1.564  10.641
 4147SOL    HW113193   1.880   1.646  10.607
 4147SOL    HW213194   2.024   1.583  10.650
 4148SOL     OW13195   2.229   1.100   9.811
 4148SOL    HW113196   2.222   1.183   9.755
 4148SOL    HW213197   2.233   1.020   9.751
 4149SOL     OW13198   2.428   0.537  10.175
 4149SOL    HW113199   2.440   0.603  10.101
 4149SOL    HW213200   2.474   0.571  10.258
 4150SOL     OW13201   3.114   1.348   9.698
 4150SOL    HW113202   3.164   1.425   9.738
 4150SOL    HW213203   3.019   1.350   9.730
 4151SOL     OW13204   3.134   1.445  10.452
 4151SOL    HW113205   3.181   1.458  10.539
 4151SOL    HW213206   3.068   1.371  10.461
 4152SOL     OW13207   3.444   0.639   9.782
 4152SOL    HW113208   3.413   0.700   9.855
 4152SOL    HW213209   3.494   0.691   9.713
 4153SOL     OW13210   2.216   1.510  10.639
 4153SOL    HW113211   2.195   1.466  10.552
 4153SOL    HW213212   2.313   1.536  10.642
 4154SOL     OW13213   2.264   0.751  10.908
 4154SOL    HW113214   2.332   0.806  10.861
 4154SOL    HW213215   2.304   0.663  10.935
 4155SOL     OW13216   3.449   0.779  10.980
 4155SOL    HW113217   3.357   0.817  10.975
 4155SOL    HW213218   3.509   0.826  10.915
 4156SOL     OW13219   2.435   0.870  10.339
 4156SOL    HW113220   2.479   0.959  10.330
 4156SOL    HW213221   2.372   0.870  10.416
 4157SOL     OW13222   3.222   0.862  10.355
 4157SOL    HW113223   3.147   0.862  10.289
 4157SOL    HW213224   3.259   0.770  10.364
 4158SOL     OW13225   3.071   0.525   9.585
 4158SOL    HW113226   3.084   0.441   9.639
 4158SOL    HW213227   3.042   0.599   9.645
 4159SOL     OW13228   2.169   0.213  10.541
 4159SOL    HW113229   2.146   0.250  10.631
 4159SOL    HW213230   2.139   0.118  10.535
 4160SOL     OW13231   1.899   1.310  10.592
 4160SOL    HW113232   1.952   1.261  10.660
 4160SOL    HW213233   1.921   1.408  10.597
 4161SOL     OW13234   2.594   0.634  10.374
 4161SOL    HW113235   2.653   0.608  10.298
 4161SOL    HW213236   2.566   0.730  10.363
 4162SOL     OW13237   2.169   0.063   9.928
 4162SOL    HW113238   2.158   0.157   9.961
 4162SOL    HW213239   2.164   0.000  10.005
 4163SOL     OW13240   3.484   0.367   9.684
 4163SOL    HW113241   3.486   0.291   9.748
 4163SOL    HW213242   3.436   0.444   9.724
 4164SOL     OW13243   2.885   0.766  10.276
 4164SOL    HW113244   2.900   0.787  10.372
 4164SOL    HW213245   2.855   0.671  10.267
 4165SOL     OW13246   2.842   1.573  11.010
 4165SOL    HW113247   2.822   1.617  10.922
 4165SOL    HW213248   2.881   1.482  10.994
 4166SOL     OW13249   3.721   1.518  10.915
 4166SOL    HW113250   3.735   1.545  10.820
 4166SOL    HW213251   3.804   1.540  10.968
 4167SOL     OW13252   2.212   0.898  11.114
 4167SOL    HW113253   2.288   0.942  11.162
 4167SOL    HW213254   2.247   0.851  11.032
 4168SOL     OW13255   3.402   0.274   9.435
 4168SOL    HW113256   3.341   0.199   9.458
 4168SOL    HW213257   3.424   0.326   9.518
 4169SOL     OW13258   3.165   0.838   9.352
 4169SOL    HW113259   3.199   0.745   9.367
 4169SOL    HW213260   3.183   0.865   9.257
 4170SOL     OW13261   2.930   1.333  10.159
 4170SOL    HW113262   2.937   1.249  10.104
 4170SOL    HW213263   2.992   1.402  10.123
 4171SOL     OW13264   2.181   0.810  10.259
 4171SOL    HW113265   2.274   0.846  10.264
 4171SOL    HW213266   2.175   0.725  10.311
 4172SOL     OW13267   2.201   0.509  10.316
 4172SOL    HW113268   2.149   0.426  10.299
 4172SOL    HW213269   2.278   0.514  10.252
 4173SOL     OW13270   3.022   0.207  10.787
 4173SOL    HW113271   3.022   0.271  10.864
 4173SOL    HW213272   3.050   0.255  10.704
 4174SOL     OW13273   1.870   1.326   9.510
 4174SOL    HW113274   1.777   1.347   9.479
 4174SOL    HW213275   1.880   1.227   9.523
 4175SOL     OW13276   1.950   1.801  10.237
 4175SOL    HW113277   1.908   1.715  10.210
 4175SOL    HW213278   2.044   1.804  10.203
 4176SOL     OW13279   2.366   1.568  10.220
 4176SOL    HW113280   2.432   1.642  10.229
 4176SOL    HW213281   2.410   1.489  10.178
 4177SOL     OW13282   2.864   0.796  10.548
 4177SOL    HW113283   2.905   0.764  10.634
 4177SOL    HW213284   2.768   0.769  10.545
 4178SOL     OW13285   1.902   0.544  10.424
 4178SOL    HW113286   1.987   0.511  10.383
 4178SOL    HW213287   1.915   0.559  10.522
 4179SOL     OW13288   2.677   0.572   9.635
 4179SOL    HW113289   2.684   0.483   9.589
 4179SOL    HW213290   2.583   0.606   9.627
 4180SOL     OW13291   3.519   0.604  10.516
 4180SOL    HW113292   3.481   0.535  10.578
 4180SOL    HW213293   3.601   0.568  10.472
 4181SOL     OW13294   2.114   1.564  11.054
 4181SOL    HW113295   2.084   1.621  11.130
 4181SOL    HW213296   2.107   1.467  11.080
 4182SOL     OW13297   2.533   0.464  10.579
 4182SOL    HW113298   2.499   0.375  10.549
 4182SOL    HW213299   2.559   0.518  10.499
 4183SOL     OW13300   2.792   1.678  10.775
 4183SOL    HW113301   2.768   1.660  10.680
 4183SOL    HW213302   2.822   1.772  10.785
 4184SOL     OW13303   2.335   0.500   9.501
 4184SOL    HW113304   2.396   0.580   9.505
 4184SOL    HW213305   2.240   0.531   9.508
 4185SOL     OW13306   2.021   1.137  10.776
 4185SOL    HW113307   2.043   1.076  10.852
 4185SOL    HW213308   2.031   1.088  10.690
 4186SOL     OW13309   3.209   1.059  10.544
 4186SOL    HW113310   3.233   0.996  10.470
 4186SOL    HW213311   3.119   1.099  10.526
 4187SOL     OW13312   3.164   0.855   9.619
 4187SOL    HW113313   3.078   0.824   9.661
 4187SOL    HW213314   3.160   0.841   9.520
 4188SOL     OW13315   3.621   1.747  10.464
 4188SOL    HW113316   3.682   1.777  10.391
 4188SOL    HW213317   3.583   1.658  10.442
 4189SOL     OW13318   3.114   1.731  10.438
 4189SOL    HW113319   3.198   1.736  10.384
 4189SOL    HW213320   3.091   1.635  10.456
 4190SOL     OW13321   1.945   1.258  10.332
 4190SOL    HW113322   1.940   1.257  10.432
 4190SOL    HW213323   1.862   1.217  10.294
 4191SOL     OW13324   3.588   0.135   9.833
 4191SOL    HW113325   3.661   0.118   9.766
 4191SOL    HW213326   3.557   0.048   9.871
 4192SOL     OW13327   3.250   1.573   9.787
 4192SOL    HW113328   3.317   1.585   9.713
 4192SOL    HW213329   3.210   1.662   9.810
 4193SOL     OW13330   3.142   0.927   9.982
 4193SOL    HW113331   3.202   0.846   9.984
 4193SOL    HW213332   3.182   0.996   9.922
 4194SOL     OW13333   2.692   1.273  10.732
 4194SOL    HW113334   2.687   1.306  10.827
 4194SOL    HW213335   2.606   1.292  10.686
 4195SOL     OW13336   2.534   1.616   9.464
 4195SOL    HW113337   2.543   1.626   9.365
 4195SOL    HW213338   2.494   1.527   9.485
 4196SOL     OW13339   3.512   1.720  10.704
 4196SOL    HW113340   3.565   1.730  10.620
 4196SOL    HW213341   3.485   1.810  10.738
 4197SOL     OW13342   3.703   0.175  10.273
 4197SOL    HW113343   3.742   0.090  10.237
 4197SOL    HW213344   3.605   0.177  10.254
 4198SOL     OW13345   2.125   0.326  10.030
 4198SOL    HW113346   2.046   0.377   9.996
 4198SOL    HW213347   2.116   0.311  10.128
 4199SOL     OW13348   3.056   1.612   9.341
 4199SOL    HW113349   3.062   1.519   9.378
 4199SOL    HW213350   2.997   1.612   9.261
 4200SOL     OW13351   2.684   1.002  10.682
 4200SOL    HW113352   2.724   1.001  10.590
 4200SOL    HW213353   2.694   1.094  10.722
 4201SOL     OW13354   2.778   0.910   9.601
 4201SOL    HW113355   2.841   0.948   9.533
 4201SOL    HW213356   2.818   0.827   9.640
 4202SOL     OW13357   3.366   1.607   9.354
 4202SOL    HW113358   3.274   1.644   9.361
 4202SOL    HW213359   3.404   1.627   9.264
 4203SOL     OW13360   2.234   1.288  10.800
 4203SOL    HW113361   2.221   1.381  10.766
 4203SOL    HW213362   2.150   1.236  10.787
 4204SOL     OW13363   3.476   1.292  10.599
 4204SOL    HW113364   3.536   1.295  10.679
 4204SOL    HW213365   3.401   1.356  10.612
 4205SOL     OW13366   2.901   1.098  10.006
 4205SOL    HW113367   2.831   1.051  10.060
 4205SOL    HW213368   2.960   1.030   9.963
 4206SOL     OW13369   2.876   0.236  10.281
 4206SOL    HW113370   2.868   0.200  10.188
 4206SOL    HW213371   2.874   0.160  10.346
 4207SOL     OW13372   2.452   1.487   9.801
 4207SOL    HW113373   2.494   1.429   9.731
 4207SOL    HW213374   2.408   1.566   9.757
 4208SOL     OW13375   3.571   0.385  10.691
 4208SOL    HW113376   3.644   0.454  10.695
 4208SOL    HW213377   3.599   0.310  10.632
 4209SOL     OW13378   2.117   1.348   9.600
 4209SOL    HW113379   2.021   1.349   9.573
 4209SOL    HW213380   2.129   1.401   9.684
 4210SOL     OW13381   1.967   1.013  11.036
 4210SOL    HW113382   1.890   0.980  11.090
 4210SOL    HW213383   2.052   0.983  11.078
 4211SOL     OW13384   2.534   0.203  10.799
 4211SOL    HW113385   2.624   0.187  10.759
 4211SOL    HW213386   2.542   0.208  10.898
 4212SOL     OW13387   1.937   0.345   9.343
 4212SOL    HW113388   1.845   0.317   9.314
 4212SOL    HW213389   1.968   0.422   9.287
 4213SOL     OW13390   3.302   0.856  10.708
 4213SOL    HW113391   3.245   0.908  10.645
 4213SOL    HW213392   3.398   0.868  10.684
 4214SOL     OW13393   1.934   0.166   9.628
 4214SOL    HW113394   1.917   0.249   9.574
 4214SOL    HW213395   2.024   0.129   9.606
 4215SOL     OW13396   3.045   1.335   9.429
 4215SOL    HW113397   2.946   1.324   9.431
 4215SOL    HW213398   3.079   1.350   9.522
 4216SOL     OW13399   2.475   0.842  10.741
 4216SOL    HW113400   2.531   0.923  10.724
 4216SOL    HW213401   2.534   0.762  10.744
 4217SOL     OW13402   3.355   1.767  10.269
 4217SOL    HW113403   3.388   1.831  10.200
 4217SOL    HW213404   3.421   1.761  10.344
 4218SOL     OW13405   2.578   0.565  11.018
 4218SOL    HW113406   2.597   0.630  11.092
 4218SOL    HW213407   2.638   0.485  11.027
 4219SOL     OW13408   2.252   1.741  10.870
 4219SOL    HW113409   2.161   1.782  10.868
 4219SOL    HW213410   2.245   1.647  10.902
 4220SOL     OW13411   3.536   0.883  10.564
 4220SOL    HW113412   3.509   0.794  10.527
 4220SOL    HW213413   3.537   0.951  10.491
 4221SOL     OW13414   3.087   0.325   9.759
 4221SOL    HW113415   3.152   0.251   9.748
 4221SOL    HW213416   3.107   0.375   9.843
 4222SOL     OW13417   2.456   0.745   9.962
 4222SOL    HW113418   2.506   0.830   9.943
 4222SOL    HW213419   2.368   0.747   9.914
 4223SOL     OW13420   3.639   0.342  10.952
 4223SOL    HW113421   3.622   0.373  10.858
 4223SOL    HW213422   3.555   0.305  10.990
 4224SOL     OW13423   3.592   0.934  10.827
 4224SOL    HW113424   3.630   1.025  10.842
 4224SOL    HW213425   3.584   0.917  10.728
 4225SOL     OW13426   2.721   1.374   9.326
 4225SOL    HW113427   2.675   1.389   9.414
 4225SOL    HW213428   2.765   1.459   9.296
 4226SOL     OW13429   2.523   1.790  10.263
 4226SOL    HW113430   2.477   1.878  10.250
 4226SOL    HW213431   2.622   1.802  10.256
 4227SOL     OW13432   2.721   0.956  10.171
 4227SOL    HW113433   2.775   0.887  10.219
 4227SOL    HW213434   2.689   1.025  10.237
 4228SOL     OW13435   2.945   0.984   9.397
 4228SOL    HW113436   2.922   1.037   9.315
 4228SOL    HW213437   3.026   0.928   9.378
 4229SOL     OW13438   3.723   1.569  10.161
 4229SOL    HW113439   3.652   1.557  10.091
 4229SOL    HW213440   3.724   1.490  10.221
 4230SOL     OW13441   1.941   1.240   9.963
 4230SOL    HW113442   1.940   1.193  10.051
 4230SOL    HW213443   2.023   1.212   9.912
 4231SOL     OW13444   2.534   1.391  10.934
 4231SOL    HW113445   2.456   1.341  10.972
 4231SOL    HW213446   2.531   1.486  10.965
 4232SOL     OW13447   3.686   0.192  10.537
 4232SOL    HW113448   3.682   0.102  10.581
 4232SOL    HW213449   3.689   0.181  10.438
 4233SOL     OW13450   2.290   0.424   9.830
 4233SOL    HW113451   2.320   0.352   9.768
 4233SOL    HW213452   2.251   0.384   9.913
 4234SOL     OW13453   3.567   1.487  10.414
 4234SOL    HW113454   3.474   1.462  10.387
 4234SOL    HW213455   3.593   1.437  10.496
 4235SOL     OW13456   2.179   0.547  10.590
 4235SOL    HW113457   2.217   0.488  10.662
 4235SOL    HW213458   2.219   0.521  10.502
 4236SOL     OW13459   2.674   1.586   9.997
 4236SOL    HW113460   2.706   1.596   9.903
 4236SOL    HW213461   2.595   1.524   9.999
 4237SOL     OW13462   3.286   0.214  10.422
 4237SOL    HW113463   3.338   0.149  10.477
 4237SOL    HW213464   3.237   0.277  10.483
 4238SOL     OW13465   2.863   0.034  10.464
 4238SOL    HW113466   2.800  -0.038  10.433
 4238SOL    HW213467   2.956  -0.002  10.464
 4239SOL     OW13468   2.632   1.330   9.611
 4239SOL    HW113469   2.586   1.243   9.628
 4239SOL    HW213470   2.723   1.327   9.652
 4240SOL     OW13471   2.480   1.567  10.594
 4240SOL    HW113472   2.475   1.649  10.651
 4240SOL    HW213473   2.569   1.564  10.549
 4241SOL     OW13474   3.214   0.052   9.478
 4241SOL    HW113475   3.249   0.011   9.394
 4241SOL    HW213476   3.124   0.014   9.498
 4242SOL     OW13477   3.162   0.453  10.001
 4242SOL    HW113478   3.103   0.533  10.005
 4242SOL    HW213479   3.177   0.418  10.094
 4243SOL     OW13480   3.455   0.221  10.192
 4243SOL    HW113481   3.371   0.220  10.246
 4243SOL    HW213482   3.457   0.304  10.136
 4244SOL     OW13483   1.901   1.077   9.610
 4244SOL    HW113484   2.000   1.066   9.601
 4244SOL    HW213485   1.861   0.991   9.642
 4245SOL     OW13486   2.737   1.646   9.647
 4245SOL    HW113487   2.660   1.611   9.593
 4245SOL    HW213488   2.705   1.717   9.709
 4246SOL     OW13489   2.092   2.490   0.113
 4246SOL    HW113490   1.999   2.488   0.150
 4246SOL    HW213491   2.093   2.451   0.021
 4247SOL     OW13492   1.881   2.230   0.647
 4247SOL    HW113493   1.799   2.273   0.686
 4247SOL    HW213494   1.853   2.157   0.584
 4248SOL     OW13495   2.431   3.137   1.165
 4248SOL    HW113496   2.338   3.130   1.128
 4248SOL    HW213497   2.442   3.226   1.209
 4249SOL     OW13498   3.417   3.373   0.703
 4249SOL    HW113499   3.360   3.357   0.784
 4249SOL    HW213500   3.358   3.383   0.623
 4250SOL     OW13501   2.997   2.565   0.717
 4250SOL    HW113502   3.054   2.643   0.692
 4250SOL    HW213503   2.937   2.591   0.793
 4251SOL     OW13504   3.617   2.469   0.231
 4251SOL    HW113505   3.605   2.456   0.132
 4251SOL    HW213506   3.587   2.388   0.280
 4252SOL     OW13507   2.630   3.006   1.023
 4252SOL    HW113508   2.552   3.023   1.083
 4252SOL    HW213509   2.664   3.093   0.987
 4253SOL     OW13510   2.712   2.660   1.823
 4253SOL    HW113511   2.708   2.736   1.888
 4253SOL    HW213512   2.734   2.696   1.732
 4254SOL     OW13513   2.547   2.874   0.665
 4254SOL    HW113514   2.616   2.858   0.735
 4254SOL    HW213515   2.474   2.931   0.703
 4255SOL     OW13516   2.548   3.023   1.803
 4255SOL    HW113517   2.608   3.102   1.817
 4255SOL    HW213518   2.462   3.054   1.762
 4256SOL     OW13519   2.197   3.297   1.061
 4256SOL    HW113520   2.119   3.266   1.008
 4256SOL    HW213521   2.255   3.355   1.004
 4257SOL     OW13522   3.322   3.367   1.339
 4257SOL    HW113523   3.346   3.461   1.365
 4257SOL    HW213524   3.306   3.313   1.421
 4258SOL     OW13525   3.465   2.309   0.737
 4258SOL    HW113526   3.391   2.355   0.687
 4258SOL    HW213527   3.516   2.377   0.790
 4259SOL     OW13528   2.093   3.575   0.483
 4259SOL    HW113529   2.127   3.652   0.537
 4259SOL    HW213530   2.137   3.575   0.393
 4260SOL     OW13531   2.989   3.203   1.690
 4260SOL    HW113532   3.036   3.203   1.778
 4260SOL    HW213533   2.941   3.116   1.679
 4261SOL     OW13534   2.092   3.296   0.538
 4261SOL    HW113535   2.066   3.392   0.538
 4261SOL    HW213536   2.021   3.242   0.583
 4262SOL     OW13537   2.102   2.953   0.886
 4262SOL    HW113538   2.116   2.869   0.938
 4262SOL    HW213539   2.047   3.017   0.941
 4263SOL     OW13540   2.482   3.648   1.439
 4263SOL    HW113541   2.390   3.631   1.474
 4263SOL    HW213542   2.510   3.740   1.465
 4264SOL     OW13543   2.468   2.826   0.123
 4264SOL    HW113544   2.475   2.910   0.069
 4264SOL    HW213545   2.514   2.839   0.211
 4265SOL     OW13546   3.456   1.976   1.480
 4265SOL    HW113547   3.438   2.043   1.408
 4265SOL    HW213548   3.453   2.022   1.569
 4266SOL     OW13549   1.984   2.505   0.563
 4266SOL    HW113550   1.939   2.417   0.580
 4266SOL    HW213551   1.983   2.559   0.647
 4267SOL     OW13552   3.704   3.629   0.359
 4267SOL    HW113553   3.758   3.600   0.439
 4267SOL    HW213554   3.734   3.719   0.330
 4268SOL     OW13555   1.889   3.458   0.117
 4268SOL    HW113556   1.870   3.362   0.138
 4268SOL    HW213557   1.856   3.516   0.192
 4269SOL     OW13558   3.551   2.784   0.612
 4269SOL    HW113559   3.646   2.755   0.620
 4269SOL    HW213560   3.543   2.849   0.537
 4270SOL     OW13561   3.503   2.970   0.432
 4270SOL    HW113562   3.589   2.972   0.380
 4270SOL    HW213563   3.517   3.017   0.520
 4271SOL     OW13564   1.975   2.599   1.597
 4271SOL    HW113565   2.063   2.586   1.642
 4271SOL    HW213566   1.962   2.696   1.575
 4272SOL     OW13567   2.475   3.227   0.726
 4272SOL    HW113568   2.426   3.140   0.735
 4272SOL    HW213569   2.452   3.270   0.639
 4273SOL     OW13570   3.155   3.090   1.423
 4273SOL    HW113571   3.192   3.017   1.365
 4273SOL    HW213572   3.207   3.095   1.508
 4274SOL     OW13573   2.671   1.866   0.502
 4274SOL    HW113574   2.711   1.957   0.493
 4274SOL    HW213575   2.571   1.874   0.508
 4275SOL     OW13576   2.059   2.838   1.264
 4275SOL    HW113577   2.148   2.793   1.250
 4275SOL    HW213578   1.986   2.773   1.245
 4276SOL     OW13579   3.387   2.861   0.190
 4276SOL    HW113580   3.324   2.785   0.203
 4276SOL    HW213581   3.435   2.879   0.276
 4277SOL     OW13582   3.049   3.654   1.616
 4277SOL    HW113583   3.073   3.714   1.540
 4277SOL    HW213584   3.056   3.559   1.586
 4278SOL     OW13585   3.328   3.279   0.953
 4278SOL    HW113586   3.269   3.285   1.033
 4278SOL    HW213587   3.313   3.191   0.907
 4279SOL     OW13588   3.529   3.576   0.572
 4279SOL    HW113589   3.488   3.553   0.484
 4279SOL    HW213590   3.511   3.502   0.637
 4280SOL     OW13591   2.460   2.591   0.270
 4280SOL    HW113592   2.484   2.660   0.202
 4280SOL    HW213593   2.382   2.624   0.324
 4281SOL     OW13594   3.143   2.207   0.944
 4281SOL    HW113595   3.057   2.157   0.931
 4281SOL    HW213596   3.205   2.153   1.000
 4282SOL     OW13597   3.438   3.524   0.307
 4282SOL    HW113598   3.527   3.570   0.310
 4282SOL    HW213599   3.417   3.500   0.212
 4283SOL     OW13600   2.669   2.467   1.465
 4283SOL    HW113601   2.622   2.464   1.554
 4283SOL    HW213602   2.618   2.412   1.399
 4284SOL     OW13603   3.256   2.331   1.674
 4284SOL    HW113604   3.236   2.374   1.762
 4284SOL    HW213605   3.334   2.269   1.683
 4285SOL     OW13606   2.835   2.752   1.572
 4285SOL    HW113607   2.881   2.668   1.543
 4285SOL    HW213608   2.779   2.786   1.497
 4286SOL     OW13609   2.853   2.272   1.242
 4286SOL    HW113610   2.776   2.306   1.296
 4286SOL    HW213611   2.819   2.221   1.163
 4287SOL     OW13612   2.903   2.563   0.429
 4287SOL    HW113613   2.929   2.559   0.525
 4287SOL    HW213614   2.818   2.512   0.415
 4288SOL     OW13615   1.938   2.673   0.789
 4288SOL    HW113616   2.037   2.661   0.798
 4288SOL    HW213617   1.914   2.768   0.810
 4289SOL     OW13618   1.992   3.683   1.571
 4289SOL    HW113619   1.982   3.668   1.670
 4289SOL    HW213620   1.906   3.719   1.535
 4290SOL     OW13621   2.727   2.210   0.195
 4290SOL    HW113622   2.786   2.273   0.146
 4290SOL    HW213623   2.746   2.116   0.166
 4291SOL     OW13624   3.581   2.447   1.831
 4291SOL    HW113625   3.555   2.536   1.795
 4291SOL    HW213626   3.579   2.379   1.758
 4292SOL     OW13627   3.224   3.006   0.545
 4292SOL    HW113628   3.307   2.977   0.497
 4292SOL    HW213629   3.175   3.073   0.489
 4293SOL     OW13630   2.412   2.058   0.885
 4293SOL    HW113631   2.407   2.053   0.985
 4293SOL    HW213632   2.414   2.154   0.856
 4294SOL     OW13633   2.870   3.318   0.477
 4294SOL    HW113634   2.824   3.390   0.425
 4294SOL    HW213635   2.866   3.338   0.575
 4295SOL     OW13636   2.213   3.663   0.853
 4295SOL    HW113637   2.263   3.577   0.859
 4295SOL    HW213638   2.278   3.740   0.850
 4296SOL     OW13639   3.657   2.928   0.873
 4296SOL    HW113640   3.595   2.913   0.797
 4296SOL    HW213641   3.605   2.939   0.958
 4297SOL     OW13642   3.089   3.412   1.506
 4297SOL    HW113643   3.095   3.335   1.570
 4297SOL    HW213644   3.037   3.386   1.426
 4298SOL     OW13645   2.183   2.805   0.242
 4298SOL    HW113646   2.265   2.844   0.200
 4298SOL    HW213647   2.156   2.723   0.193
 4299SOL     OW13648   3.320   2.597   0.728
 4299SOL    HW113649   3.315   2.532   0.803
 4299SOL    HW213650   3.400   2.656   0.741
 4300SOL     OW13651   2.323   3.128   1.727
 4300SOL    HW113652   2.273   3.129   1.641
 4300SOL    HW213653   2.260   3.110   1.803
 4301SOL     OW13654   2.973   3.638   0.237
 4301SOL    HW113655   2.913   3.576   0.287
 4301SOL    HW213656   3.004   3.594   0.152
 4302SOL     OW13657   3.494   3.239   0.081
 4302SOL    HW113658   3.462   3.333   0.071
 4302SOL    HW213659   3.418   3.176   0.069
 4303SOL     OW13660   2.326   3.605   0.323
 4303SOL    HW113661   2.359   3.644   0.409
 4303SOL    HW213662   2.402   3.598   0.258
 4304SOL     OW13663   3.262   1.969   0.426
 4304SOL    HW113664   3.238   1.932   0.336
 4304SOL    HW213665   3.361   1.985   0.430
 4305SOL     OW13666   2.111   3.647   1.241
 4305SOL    HW113667   2.168   3.582   1.291
 4305SOL    HW213668   2.095   3.614   1.148
 4306SOL     OW13669   2.802   3.560   0.904
 4306SOL    HW113670   2.882   3.503   0.925
 4306SOL    HW213671   2.753   3.520   0.827
 4307SOL     OW13672   3.409   2.084   1.729
 4307SOL    HW113673   3.404   2.121   1.821
 4307SOL    HW213674   3.337   2.015   1.717
 4308SOL     OW13675   2.476   1.984   0.117
 4308SOL    HW113676   2.574   1.962   0.124
 4308SOL    HW213677   2.445   1.967   0.024
 4309SOL     OW13678   2.643   2.126   1.749
 4309SOL    HW113679   2.710   2.065   1.792
 4309SOL    HW213680   2.570   2.145   1.814
 4310SOL     OW13681   2.750   3.376   1.195
 4310SOL    HW113682   2.727   3.351   1.101
 4310SOL    HW213683   2.811   3.307   1.234
 4311SOL     OW13684   3.213   2.452   1.433
 4311SOL    HW113685   3.241   2.409   1.518
 4311SOL    HW213686   3.238   2.548   1.434
 4312SOL     OW13687   2.665   3.264   0.924
 4312SOL    HW113688   2.755   3.278   0.882
 4312SOL    HW213689   2.594   3.266   0.853
 4313SOL     OW13690   2.784   2.365   0.899
 4313SOL    HW113691   2.759   2.356   0.803
 4313SOL    HW213692   2.832   2.283   0.930
 4314SOL     OW13693   2.401   1.926   0.512
 4314SOL    HW113694   2.320   1.927   0.570
 4314SOL    HW213695   2.404   2.009   0.457
 4315SOL     OW13696   3.296   3.050   0.041
 4315SOL    HW113697   3.328   2.974   0.098
 4315SOL    HW213698   3.204   3.077   0.071
 4316SOL     OW13699   2.159   1.897   0.171
 4316SOL    HW113700   2.208   1.981   0.150
 4316SOL    HW213701   2.221   1.832   0.216
 4317SOL     OW13702   2.797   2.098   0.480
 4317SOL    HW113703   2.749   2.139   0.402
 4317SOL    HW213704   2.896   2.096   0.461
 4318SOL     OW13705   2.938   2.545   1.464
 4318SOL    HW113706   2.858   2.484   1.467
 4318SOL    HW213707   3.019   2.492   1.440
 4319SOL     OW13708   3.089   3.432   0.793
 4319SOL    HW113709   3.110   3.506   0.728
 4319SOL    HW213710   3.157   3.432   0.866
 4320SOL     OW13711   2.321   3.014   0.741
 4320SOL    HW113712   2.250   2.987   0.806
 4320SOL    HW213713   2.295   2.986   0.648
 4321SOL     OW13714   3.133   3.659   0.591
 4321SOL    HW113715   3.177   3.723   0.527
 4321SOL    HW213716   3.083   3.711   0.661
 4322SOL     OW13717   2.894   2.411   0.016
 4322SOL    HW113718   2.853   2.493  -0.023
 4322SOL    HW213719   2.958   2.437   0.089
 4323SOL     OW13720   1.940   2.418   1.386
 4323SOL    HW113721   2.032   2.417   1.345
 4323SOL    HW213722   1.934   2.492   1.453
 4324SOL     OW13723   2.423   2.084   1.147
 4324SOL    HW113724   2.461   2.000   1.184
 4324SOL    HW213725   2.335   2.103   1.191
 4325SOL     OW13726   2.728   2.316   0.642
 4325SOL    HW113727   2.696   2.388   0.580
 4325SOL    HW213728   2.752   2.235   0.589
 4326SOL     OW13729   2.879   1.901   0.753
 4326SOL    HW113730   2.807   1.906   0.684
 4326SOL    HW213731   2.855   1.832   0.822
 4327SOL     OW13732   3.291   3.035   0.867
 4327SOL    HW113733   3.236   2.951   0.860
 4327SOL    HW213734   3.317   3.064   0.775
 4328SOL     OW13735   3.328   2.452   0.992
 4328SOL    HW113736   3.298   2.357   0.999
 4328SOL    HW213737   3.401   2.468   1.058
 4329SOL     OW13738   3.719   2.695   0.377
 4329SOL    HW113739   3.761   2.631   0.441
 4329SOL    HW213740   3.681   2.644   0.299
 4330SOL     OW13741   2.350   3.247   0.174
 4330SOL    HW113742   2.263   3.232   0.221
 4330SOL    HW213743   2.333   3.273   0.079
 4331SOL     OW13744   3.526   3.142   0.657
 4331SOL    HW113745   3.625   3.150   0.671
 4331SOL    HW213746   3.481   3.226   0.688
 4332SOL     OW13747   3.252   2.437   0.078
 4332SOL    HW113748   3.198   2.416   0.159
 4332SOL    HW213749   3.343   2.396   0.087
 4333SOL     OW13750   3.616   3.085   1.588
 4333SOL    HW113751   3.707   3.046   1.575
 4333SOL    HW213752   3.624   3.181   1.612
 4334SOL     OW13753   2.926   3.209   1.340
 4334SOL    HW113754   2.846   3.186   1.395
 4334SOL    HW213755   3.009   3.183   1.389
 4335SOL     OW13756   3.454   3.491   1.625
 4335SOL    HW113757   3.481   3.525   1.535
 4335SOL    HW213758   3.533   3.453   1.671
 4336SOL     OW13759   2.973   3.057   1.100
 4336SOL    HW113760   2.933   3.101   1.181
 4336SOL    HW213761   2.932   3.094   1.017
 4337SOL     OW13762   3.500   2.961   1.079
 4337SOL    HW113763   3.505   3.042   1.138
 4337SOL    HW213764   3.414   2.963   1.028
 4338SOL     OW13765   2.777   1.951   1.402
 4338SOL    HW113766   2.802   1.931   1.307
 4338SOL    HW213767   2.849   2.007   1.444
 4339SOL     OW13768   2.842   2.978   1.719
 4339SOL    HW113769   2.743   2.984   1.729
 4339SOL    HW213770   2.865   2.898   1.663
 4340SOL     OW13771   2.567   2.912   0.368
 4340SOL    HW113772   2.553   2.919   0.467
 4340SOL    HW213773   2.651   2.861   0.350
 4341SOL     OW13774   2.272   2.675   1.251
 4341SOL    HW113775   2.358   2.687   1.301
 4341SOL    HW213776   2.230   2.588   1.278
 4342SOL     OW13777   3.136   2.248   1.262
 4342SOL    HW113778   3.157   2.322   1.326
 4342SOL    HW213779   3.047   2.265   1.219
 4343SOL     OW13780   1.926   3.426   1.331
 4343SOL    HW113781   1.880   3.508   1.297
 4343SOL    HW213782   2.024   3.445   1.340
 4344SOL     OW13783   2.229   2.962   0.501
 4344SOL    HW113784   2.222   3.045   0.445
 4344SOL    HW213785   2.233   2.882   0.441
 4345SOL     OW13786   3.114   3.210   0.388
 4345SOL    HW113787   3.164   3.287   0.428
 4345SOL    HW213788   3.019   3.212   0.420
 4346SOL     OW13789   3.134   3.307   1.142
 4346SOL    HW113790   3.181   3.320   1.229
 4346SOL    HW213791   3.068   3.233   1.151
 4347SOL     OW13792   3.444   2.501   0.472
 4347SOL    HW113793   3.413   2.562   0.545
 4347SOL    HW213794   3.494   2.553   0.403
 4348SOL     OW13795   2.216   3.372   1.329
 4348SOL    HW113796   2.195   3.328   1.242
 4348SOL    HW213797   2.313   3.398   1.332
 4349SOL     OW13798   3.449   2.641   1.670
 4349SOL    HW113799   3.357   2.679   1.665
 4349SOL    HW213800   3.509   2.688   1.605
 4350SOL     OW13801   2.875   1.967   1.770
 4350SOL    HW113802   2.881   2.052   1.718
 4350SOL    HW213803   2.907   1.891   1.713
 4351SOL     OW13804   2.366   1.912   1.740
 4351SOL    HW113805   2.324   1.855   1.670
 4351SOL    HW213806   2.300   1.981   1.772
 4352SOL     OW13807   2.435   2.732   1.029
 4352SOL    HW113808   2.479   2.821   1.020
 4352SOL    HW213809   2.372   2.732   1.106
 4353SOL     OW13810   3.222   2.724   1.045
 4353SOL    HW113811   3.147   2.724   0.979
 4353SOL    HW213812   3.259   2.632   1.054
 4354SOL     OW13813   3.071   2.387   0.275
 4354SOL    HW113814   3.084   2.303   0.329
 4354SOL    HW213815   3.042   2.461   0.335
 4355SOL     OW13816   1.899   3.172   1.282
 4355SOL    HW113817   1.952   3.123   1.350
 4355SOL    HW213818   1.921   3.270   1.287
 4356SOL     OW13819   3.590   2.797   1.854
 4356SOL    HW113820   3.544   2.790   1.765
 4356SOL    HW213821   3.528   2.841   1.920
 4357SOL     OW13822   3.484   2.229   0.374
 4357SOL    HW113823   3.486   2.153   0.438
 4357SOL    HW213824   3.436   2.306   0.414
 4358SOL     OW13825   2.885   2.628   0.966
 4358SOL    HW113826   2.900   2.649   1.062
 4358SOL    HW213827   2.855   2.533   0.957
 4359SOL     OW13828   2.842   3.435   1.700
 4359SOL    HW113829   2.822   3.479   1.612
 4359SOL    HW213830   2.881   3.344   1.684
 4360SOL     OW13831   3.721   3.380   1.605
 4360SOL    HW113832   3.735   3.407   1.510
 4360SOL    HW213833   3.804   3.402   1.658
 4361SOL     OW13834   2.212   2.760   1.804
 4361SOL    HW113835   2.288   2.804   1.852
 4361SOL    HW213836   2.247   2.713   1.722
 4362SOL     OW13837   3.402   2.136   0.125
 4362SOL    HW113838   3.341   2.061   0.148
 4362SOL    HW213839   3.424   2.188   0.208
 4363SOL     OW13840   3.165   2.700   0.042
 4363SOL    HW113841   3.199   2.607   0.057
 4363SOL    HW213842   3.183   2.727  -0.053
 4364SOL     OW13843   2.930   3.195   0.849
 4364SOL    HW113844   2.937   3.111   0.794
 4364SOL    HW213845   2.992   3.264   0.813
 4365SOL     OW13846   2.181   2.672   0.949
 4365SOL    HW113847   2.274   2.708   0.954
 4365SOL    HW213848   2.175   2.587   1.001
 4366SOL     OW13849   3.000   2.242   1.678
 4366SOL    HW113850   2.955   2.305   1.742
 4366SOL    HW213851   3.093   2.273   1.661
 4367SOL     OW13852   3.022   2.069   1.477
 4367SOL    HW113853   3.022   2.133   1.554
 4367SOL    HW213854   3.050   2.117   1.394
 4368SOL     OW13855   1.870   3.188   0.200
 4368SOL    HW113856   1.777   3.209   0.169
 4368SOL    HW213857   1.880   3.089   0.213
 4369SOL     OW13858   1.950   3.663   0.927
 4369SOL    HW113859   1.908   3.577   0.900
 4369SOL    HW213860   2.044   3.666   0.893
 4370SOL     OW13861   2.366   3.430   0.910
 4370SOL    HW113862   2.432   3.504   0.919
 4370SOL    HW213863   2.410   3.351   0.868
 4371SOL     OW13864   2.864   2.658   1.238
 4371SOL    HW113865   2.905   2.626   1.324
 4371SOL    HW213866   2.768   2.631   1.235
 4372SOL     OW13867   1.902   2.406   1.114
 4372SOL    HW113868   1.987   2.373   1.073
 4372SOL    HW213869   1.915   2.421   1.212
 4373SOL     OW13870   3.231   2.812   1.660
 4373SOL    HW113871   3.270   2.901   1.680
 4373SOL    HW213872   3.241   2.792   1.563
 4374SOL     OW13873   3.519   2.466   1.206
 4374SOL    HW113874   3.481   2.397   1.268
 4374SOL    HW213875   3.601   2.430   1.162
 4375SOL     OW13876   2.114   3.426   1.744
 4375SOL    HW113877   2.084   3.483   1.820
 4375SOL    HW213878   2.107   3.329   1.770
 4376SOL     OW13879   2.792   3.540   1.465
 4376SOL    HW113880   2.768   3.522   1.370
 4376SOL    HW213881   2.822   3.634   1.475
 4377SOL     OW13882   2.021   2.999   1.466
 4377SOL    HW113883   2.043   2.938   1.542
 4377SOL    HW213884   2.031   2.950   1.380
 4378SOL     OW13885   3.209   2.921   1.234
 4378SOL    HW113886   3.233   2.858   1.160
 4378SOL    HW213887   3.119   2.961   1.216
 4379SOL     OW13888   3.164   2.717   0.309
 4379SOL    HW113889   3.078   2.686   0.351
 4379SOL    HW213890   3.160   2.703   0.210
 4380SOL     OW13891   3.621   3.609   1.154
 4380SOL    HW113892   3.682   3.639   1.081
 4380SOL    HW213893   3.583   3.520   1.132
 4381SOL     OW13894   3.114   3.593   1.128
 4381SOL    HW113895   3.198   3.598   1.074
 4381SOL    HW213896   3.091   3.497   1.146
 4382SOL     OW13897   1.945   3.120   1.022
 4382SOL    HW113898   1.940   3.119   1.122
 4382SOL    HW213899   1.862   3.079   0.984
 4383SOL     OW13900   2.550   3.524   1.716
 4383SOL    HW113901   2.494   3.605   1.725
 4383SOL    HW213902   2.602   3.528   1.630
 4384SOL     OW13903   2.765   1.948   0.133
 4384SOL    HW113904   2.816   1.949   0.047
 4384SOL    HW213905   2.821   1.906   0.204
 4385SOL     OW13906   3.588   1.997   0.523
 4385SOL    HW113907   3.661   1.980   0.456
 4385SOL    HW213908   3.557   1.910   0.561
 4386SOL     OW13909   3.250   3.435   0.477
 4386SOL    HW113910   3.317   3.447   0.403
 4386SOL    HW213911   3.210   3.524   0.500
 4387SOL     OW13912   1.992   3.656   1.851
 4387SOL    HW113913   1.951   3.582   1.904
 4387SOL    HW213914   2.056   3.707   1.909
 4388SOL     OW13915   3.142   2.789   0.672
 4388SOL    HW113916   3.202   2.708   0.674
 4388SOL    HW213917   3.182   2.858   0.612
 4389SOL     OW13918   2.692   3.135   1.422
 4389SOL    HW113919   2.687   3.168   1.517
 4389SOL    HW213920   2.606   3.154   1.376
 4390SOL     OW13921   2.534   3.478   0.154
 4390SOL    HW113922   2.543   3.488   0.055
 4390SOL    HW213923   2.494   3.389   0.175
 4391SOL     OW13924   3.512   3.582   1.394
 4391SOL    HW113925   3.565   3.592   1.310
 4391SOL    HW213926   3.485   3.672   1.428
 4392SOL     OW13927   3.703   2.037   0.963
 4392SOL    HW113928   3.742   1.952   0.927
 4392SOL    HW213929   3.605   2.039   0.944
 4393SOL     OW13930   3.056   3.474   0.031
 4393SOL    HW113931   3.062   3.381   0.068
 4393SOL    HW213932   2.997   3.474  -0.049
 4394SOL     OW13933   2.684   2.864   1.372
 4394SOL    HW113934   2.724   2.863   1.280
 4394SOL    HW213935   2.694   2.956   1.412
 4395SOL     OW13936   2.778   2.772   0.291
 4395SOL    HW113937   2.841   2.810   0.223
 4395SOL    HW213938   2.818   2.689   0.330
 4396SOL     OW13939   3.366   3.469   0.044
 4396SOL    HW113940   3.274   3.506   0.051
 4396SOL    HW213941   3.404   3.489  -0.046
 4397SOL     OW13942   2.234   3.150   1.490
 4397SOL    HW113943   2.221   3.243   1.456
 4397SOL    HW213944   2.150   3.098   1.477
 4398SOL     OW13945   3.476   3.154   1.289
 4398SOL    HW113946   3.536   3.157   1.369
 4398SOL    HW213947   3.401   3.218   1.302
 4399SOL     OW13948   2.901   2.960   0.696
 4399SOL    HW113949   2.831   2.913   0.750
 4399SOL    HW213950   2.960   2.892   0.653
 4400SOL     OW13951   2.876   2.098   0.971
 4400SOL    HW113952   2.868   2.062   0.878
 4400SOL    HW213953   2.874   2.022   1.036
 4401SOL     OW13954   2.452   3.349   0.491
 4401SOL    HW113955   2.494   3.291   0.421
 4401SOL    HW213956   2.408   3.428   0.447
 4402SOL     OW13957   3.571   2.247   1.381
 4402SOL    HW113958   3.644   2.316   1.385
 4402SOL    HW213959   3.599   2.172   1.322
 4403SOL     OW13960   2.117   3.210   0.290
 4403SOL    HW113961   2.021   3.211   0.263
 4403SOL    HW213962   2.129   3.263   0.374
 4404SOL     OW13963   1.967   2.875   1.726
 4404SOL    HW113964   1.890   2.842   1.780
 4404SOL    HW213965   2.052   2.845   1.768
 4405SOL     OW13966   2.534   2.065   1.489
 4405SOL    HW113967   2.624   2.049   1.449
 4405SOL    HW213968   2.542   2.070   1.588
 4406SOL     OW13969   1.937   2.207   0.033
 4406SOL    HW113970   1.845   2.179   0.004
 4406SOL    HW213971   1.968   2.284  -0.023
 4407SOL     OW13972   3.302   2.718   1.398
 4407SOL    HW113973   3.245   2.770   1.335
 4407SOL    HW213974   3.398   2.730   1.374
 4408SOL     OW13975   3.045   3.197   0.119
 4408SOL    HW113976   2.946   3.186   0.121
 4408SOL    HW213977   3.079   3.212   0.212
 4409SOL     OW13978   2.475   2.704   1.431
 4409SOL    HW113979   2.531   2.785   1.414
 4409SOL    HW213980   2.534   2.624   1.434
 4410SOL     OW13981   3.355   3.629   0.959
 4410SOL    HW113982   3.388   3.693   0.890
 4410SOL    HW213983   3.421   3.623   1.034
 4411SOL     OW13984   3.312   3.082   1.633
 4411SOL    HW113985   3.303   3.072   1.732
 4411SOL    HW213986   3.408   3.075   1.607
 4412SOL     OW13987   2.252   3.603   1.560
 4412SOL    HW113988   2.161   3.644   1.558
 4412SOL    HW213989   2.245   3.509   1.592
 4413SOL     OW13990   3.536   2.745   1.254
 4413SOL    HW113991   3.509   2.656   1.217
 4413SOL    HW213992   3.537   2.813   1.181
 4414SOL     OW13993   3.087   2.187   0.449
 4414SOL    HW113994   3.152   2.113   0.438
 4414SOL    HW213995   3.107   2.237   0.533
 4415SOL     OW13996   2.456   2.607   0.652
 4415SOL    HW113997   2.506   2.692   0.633
 4415SOL    HW213998   2.368   2.609   0.604
 4416SOL     OW13999   3.639   2.204   1.642
 4416SOL    HW114000   3.622   2.235   1.548
 4416SOL    HW214001   3.555   2.167   1.680
 4417SOL     OW14002   3.592   2.796   1.517
 4417SOL    HW114003   3.630   2.887   1.532
 4417SOL    HW214004   3.584   2.779   1.418
 4418SOL     OW14005   2.721   3.236   0.016
 4418SOL    HW114006   2.675   3.251   0.104
 4418SOL    HW214007   2.765   3.321  -0.014
 4419SOL     OW14008   2.523   3.652   0.953
 4419SOL    HW114009   2.477   3.740   0.940
 4419SOL    HW214010   2.622   3.664   0.946
 4420SOL     OW14011   2.721   2.818   0.861
 4420SOL    HW114012   2.775   2.749   0.909
 4420SOL    HW214013   2.689   2.887   0.927
 4421SOL     OW14014   2.945   2.846   0.087
 4421SOL    HW114015   2.922   2.899   0.005
 4421SOL    HW214016   3.026   2.790   0.068
 4422SOL     OW14017   3.723   3.431   0.851
 4422SOL    HW114018   3.652   3.419   0.781
 4422SOL    HW214019   3.724   3.352   0.911
 4423SOL     OW14020   2.083   3.176   1.844
 4423SOL    HW114021   2.018   3.103   1.823
 4423SOL    HW214022   2.087   3.190   1.942
 4424SOL     OW14023   1.941   3.102   0.653
 4424SOL    HW114024   1.940   3.055   0.741
 4424SOL    HW214025   2.023   3.074   0.602
 4425SOL     OW14026   2.534   3.253   1.624
 4425SOL    HW114027   2.456   3.203   1.662
 4425SOL    HW214028   2.531   3.348   1.655
 4426SOL     OW14029   3.686   2.054   1.227
 4426SOL    HW114030   3.682   1.964   1.271
 4426SOL    HW214031   3.689   2.043   1.128
 4427SOL     OW14032   3.567   3.349   1.104
 4427SOL    HW114033   3.474   3.324   1.077
 4427SOL    HW214034   3.593   3.299   1.186
 4428SOL     OW14035   2.674   3.448   0.687
 4428SOL    HW114036   2.706   3.458   0.593
 4428SOL    HW214037   2.595   3.386   0.689
 4429SOL     OW14038   3.286   2.076   1.112
 4429SOL    HW114039   3.338   2.011   1.167
 4429SOL    HW214040   3.237   2.139   1.173
 4430SOL     OW14041   2.863   1.896   1.154
 4430SOL    HW114042   2.800   1.824   1.123
 4430SOL    HW214043   2.956   1.860   1.154
 4431SOL     OW14044   2.632   3.192   0.301
 4431SOL    HW114045   2.586   3.105   0.318
 4431SOL    HW214046   2.723   3.189   0.342
 4432SOL     OW14047   2.480   3.429   1.284
 4432SOL    HW114048   2.475   3.511   1.341
 4432SOL    HW214049   2.569   3.426   1.239
 4433SOL     OW14050   3.214   1.914   0.168
 4433SOL    HW114051   3.249   1.873   0.084
 4433SOL    HW214052   3.124   1.876   0.188
 4434SOL     OW14053   3.162   2.315   0.691
 4434SOL    HW114054   3.103   2.395   0.695
 4434SOL    HW214055   3.177   2.280   0.784
 4435SOL     OW14056   3.455   2.083   0.882
 4435SOL    HW114057   3.371   2.082   0.936
 4435SOL    HW214058   3.457   2.166   0.826
 4436SOL     OW14059   1.901   2.939   0.300
 4436SOL    HW114060   2.000   2.928   0.291
 4436SOL    HW214061   1.861   2.853   0.332
 4437SOL     OW14062   2.737   3.508   0.337
 4437SOL    HW114063   2.660   3.473   0.283
 4437SOL    HW214064   2.705   3.579   0.399
 4438SOL     OW14065   2.092   2.490   1.975
 4438SOL    HW114066   1.999   2.488   2.012
 4438SOL    HW214067   2.093   2.451   1.883
 4439SOL     OW14068   2.431   3.137   3.027
 4439SOL    HW114069   2.338   3.130   2.990
 4439SOL    HW214070   2.442   3.226   3.071
 4440SOL     OW14071   3.417   3.373   2.565
 4440SOL    HW114072   3.360   3.357   2.646
 4440SOL    HW214073   3.358   3.383   2.485
 4441SOL     OW14074   2.997   2.565   2.579
 4441SOL    HW114075   3.054   2.643   2.554
 4441SOL    HW214076   2.937   2.591   2.655
 4442SOL     OW14077   3.617   2.469   2.093
 4442SOL    HW114078   3.605   2.456   1.994
 4442SOL    HW214079   3.587   2.388   2.142
 4443SOL     OW14080   2.630   3.006   2.885
 4443SOL    HW114081   2.552   3.023   2.945
 4443SOL    HW214082   2.664   3.093   2.849
 4444SOL     OW14083   2.712   2.660   3.685
 4444SOL    HW114084   2.708   2.736   3.750
 4444SOL    HW214085   2.734   2.696   3.594
 4445SOL     OW14086   2.547   2.874   2.527
 4445SOL    HW114087   2.616   2.858   2.597
 4445SOL    HW214088   2.474   2.931   2.565
 4446SOL     OW14089   2.548   3.023   3.665
 4446SOL    HW114090   2.608   3.102   3.679
 4446SOL    HW214091   2.462   3.054   3.624
 4447SOL     OW14092   2.197   3.297   2.923
 4447SOL    HW114093   2.119   3.266   2.870
 4447SOL    HW214094   2.255   3.355   2.866
 4448SOL     OW14095   3.322   3.367   3.201
 4448SOL    HW114096   3.346   3.461   3.227
 4448SOL    HW214097   3.306   3.313   3.283
 4449SOL     OW14098   3.465   2.309   2.599
 4449SOL    HW114099   3.391   2.355   2.549
 4449SOL    HW214100   3.516   2.377   2.652
 4450SOL     OW14101   2.093   3.575   2.345
 4450SOL    HW114102   2.127   3.652   2.399
 4450SOL    HW214103   2.137   3.575   2.255
 4451SOL     OW14104   2.989   3.203   3.552
 4451SOL    HW114105   3.036   3.203   3.640
 4451SOL    HW214106   2.941   3.116   3.541
 4452SOL     OW14107   2.092   3.296   2.400
 4452SOL    HW114108   2.066   3.392   2.400
 4452SOL    HW214109   2.021   3.242   2.445
 4453SOL     OW14110   2.102   2.953   2.748
 4453SOL    HW114111   2.116   2.869   2.800
 4453SOL    HW214112   2.047   3.017   2.803
 4454SOL     OW14113   2.482   3.648   3.301
 4454SOL    HW114114   2.390   3.631   3.336
 4454SOL    HW214115   2.510   3.740   3.327
 4455SOL     OW14116   2.468   2.826   1.985
 4455SOL    HW114117   2.475   2.910   1.931
 4455SOL    HW214118   2.514   2.839   2.073
 4456SOL     OW14119   3.456   1.976   3.342
 4456SOL    HW114120   3.438   2.043   3.270
 4456SOL    HW214121   3.453   2.022   3.431
 4457SOL     OW14122   1.984   2.505   2.425
 4457SOL    HW114123   1.939   2.417   2.442
 4457SOL    HW214124   1.983   2.559   2.509
 4458SOL     OW14125   3.704   3.629   2.221
 4458SOL    HW114126   3.758   3.600   2.301
 4458SOL    HW214127   3.734   3.719   2.192
 4459SOL     OW14128   1.889   3.458   1.979
 4459SOL    HW114129   1.870   3.362   2.000
 4459SOL    HW214130   1.856   3.516   2.054
 4460SOL     OW14131   3.551   2.784   2.474
 4460SOL    HW114132   3.646   2.755   2.482
 4460SOL    HW214133   3.543   2.849   2.399
 4461SOL     OW14134   3.503   2.970   2.294
 4461SOL    HW114135   3.589   2.972   2.242
 4461SOL    HW214136   3.517   3.017   2.382
 4462SOL     OW14137   1.975   2.599   3.459
 4462SOL    HW114138   2.063   2.586   3.504
 4462SOL    HW214139   1.962   2.696   3.437
 4463SOL     OW14140   2.475   3.227   2.588
 4463SOL    HW114141   2.426   3.140   2.597
 4463SOL    HW214142   2.452   3.270   2.501
 4464SOL     OW14143   3.155   3.090   3.285
 4464SOL    HW114144   3.192   3.017   3.227
 4464SOL    HW214145   3.207   3.095   3.370
 4465SOL     OW14146   2.671   1.866   2.364
 4465SOL    HW114147   2.711   1.957   2.355
 4465SOL    HW214148   2.571   1.874   2.370
 4466SOL     OW14149   2.059   2.838   3.126
 4466SOL    HW114150   2.148   2.793   3.112
 4466SOL    HW214151   1.986   2.773   3.107
 4467SOL     OW14152   3.387   2.861   2.052
 4467SOL    HW114153   3.324   2.785   2.065
 4467SOL    HW214154   3.435   2.879   2.138
 4468SOL     OW14155   3.049   3.654   3.478
 4468SOL    HW114156   3.073   3.714   3.402
 4468SOL    HW214157   3.056   3.559   3.448
 4469SOL     OW14158   3.328   3.279   2.815
 4469SOL    HW114159   3.269   3.285   2.895
 4469SOL    HW214160   3.313   3.191   2.769
 4470SOL     OW14161   3.529   3.576   2.434
 4470SOL    HW114162   3.488   3.553   2.346
 4470SOL    HW214163   3.511   3.502   2.499
 4471SOL     OW14164   2.460   2.591   2.132
 4471SOL    HW114165   2.484   2.660   2.064
 4471SOL    HW214166   2.382   2.624   2.186
 4472SOL     OW14167   3.143   2.207   2.806
 4472SOL    HW114168   3.057   2.157   2.793
 4472SOL    HW214169   3.205   2.153   2.862
 4473SOL     OW14170   3.438   3.524   2.169
 4473SOL    HW114171   3.527   3.570   2.172
 4473SOL    HW214172   3.417   3.500   2.074
 4474SOL     OW14173   3.256   2.331   3.536
 4474SOL    HW114174   3.236   2.374   3.624
 4474SOL    HW214175   3.334   2.269   3.545
 4475SOL     OW14176   2.835   2.752   3.434
 4475SOL    HW114177   2.881   2.668   3.405
 4475SOL    HW214178   2.779   2.786   3.359
 4476SOL     OW14179   2.853   2.272   3.104
 4476SOL    HW114180   2.776   2.306   3.158
 4476SOL    HW214181   2.819   2.221   3.025
 4477SOL     OW14182   2.903   2.563   2.291
 4477SOL    HW114183   2.929   2.559   2.387
 4477SOL    HW214184   2.818   2.512   2.277
 4478SOL     OW14185   1.938   2.673   2.651
 4478SOL    HW114186   2.037   2.661   2.660
 4478SOL    HW214187   1.914   2.768   2.672
 4479SOL     OW14188   1.992   3.683   3.433
 4479SOL    HW114189   1.982   3.668   3.532
 4479SOL    HW214190   1.906   3.719   3.397
 4480SOL     OW14191   2.727   2.210   2.057
 4480SOL    HW114192   2.786   2.273   2.008
 4480SOL    HW214193   2.746   2.116   2.028
 4481SOL     OW14194   3.581   2.447   3.693
 4481SOL    HW114195   3.555   2.536   3.657
 4481SOL    HW214196   3.579   2.379   3.620
 4482SOL     OW14197   3.224   3.006   2.407
 4482SOL    HW114198   3.307   2.977   2.359
 4482SOL    HW214199   3.175   3.073   2.351
 4483SOL     OW14200   2.870   3.318   2.339
 4483SOL    HW114201   2.824   3.390   2.287
 4483SOL    HW214202   2.866   3.338   2.437
 4484SOL     OW14203   2.213   3.663   2.715
 4484SOL    HW114204   2.263   3.577   2.721
 4484SOL    HW214205   2.278   3.740   2.712
 4485SOL     OW14206   3.657   2.928   2.735
 4485SOL    HW114207   3.595   2.913   2.659
 4485SOL    HW214208   3.605   2.939   2.820
 4486SOL     OW14209   3.089   3.412   3.368
 4486SOL    HW114210   3.095   3.335   3.432
 4486SOL    HW214211   3.037   3.386   3.288
 4487SOL     OW14212   2.183   2.805   2.104
 4487SOL    HW114213   2.265   2.844   2.062
 4487SOL    HW214214   2.156   2.723   2.055
 4488SOL     OW14215   3.320   2.597   2.590
 4488SOL    HW114216   3.315   2.532   2.665
 4488SOL    HW214217   3.400   2.656   2.603
 4489SOL     OW14218   2.323   3.128   3.589
 4489SOL    HW114219   2.273   3.129   3.503
 4489SOL    HW214220   2.260   3.110   3.665
 4490SOL     OW14221   2.973   3.638   2.099
 4490SOL    HW114222   2.913   3.576   2.149
 4490SOL    HW214223   3.004   3.594   2.014
 4491SOL     OW14224   3.494   3.239   1.943
 4491SOL    HW114225   3.462   3.333   1.933
 4491SOL    HW214226   3.418   3.176   1.931
 4492SOL     OW14227   2.326   3.605   2.185
 4492SOL    HW114228   2.359   3.644   2.271
 4492SOL    HW214229   2.402   3.598   2.120
 4493SOL     OW14230   3.262   1.969   2.288
 4493SOL    HW114231   3.238   1.932   2.198
 4493SOL    HW214232   3.361   1.985   2.292
 4494SOL     OW14233   2.111   3.647   3.103
 4494SOL    HW114234   2.168   3.582   3.153
 4494SOL    HW214235   2.095   3.614   3.010
 4495SOL     OW14236   2.802   3.560   2.766
 4495SOL    HW114237   2.882   3.503   2.787
 4495SOL    HW214238   2.753   3.520   2.689
 4496SOL     OW14239   3.409   2.084   3.591
 4496SOL    HW114240   3.404   2.121   3.683
 4496SOL    HW214241   3.337   2.015   3.579
 4497SOL     OW14242   2.476   1.984   1.979
 4497SOL    HW114243   2.574   1.962   1.986
 4497SOL    HW214244   2.445   1.967   1.886
 4498SOL     OW14245   2.643   2.126   3.611
 4498SOL    HW114246   2.710   2.065   3.654
 4498SOL    HW214247   2.570   2.145   3.676
 4499SOL     OW14248   2.750   3.376   3.057
 4499SOL    HW114249   2.727   3.351   2.963
 4499SOL    HW214250   2.811   3.307   3.096
 4500SOL     OW14251   3.213   2.452   3.295
 4500SOL    HW114252   3.241   2.409   3.380
 4500SOL    HW214253   3.238   2.548   3.296
 4501SOL     OW14254   2.665   3.264   2.786
 4501SOL    HW114255   2.755   3.278   2.744
 4501SOL    HW214256   2.594   3.266   2.715
 4502SOL     OW14257   2.784   2.365   2.761
 4502SOL    HW114258   2.759   2.356   2.665
 4502SOL    HW214259   2.832   2.283   2.792
 4503SOL     OW14260   2.401   1.926   2.374
 4503SOL    HW114261   2.320   1.927   2.432
 4503SOL    HW214262   2.404   2.009   2.319
 4504SOL     OW14263   3.296   3.050   1.903
 4504SOL    HW114264   3.328   2.974   1.960
 4504SOL    HW214265   3.204   3.077   1.933
 4505SOL     OW14266   2.797   2.098   2.342
 4505SOL    HW114267   2.749   2.139   2.264
 4505SOL    HW214268   2.896   2.096   2.323
 4506SOL     OW14269   2.938   2.545   3.326
 4506SOL    HW114270   2.858   2.484   3.329
 4506SOL    HW214271   3.019   2.492   3.302
 4507SOL     OW14272   3.089   3.432   2.655
 4507SOL    HW114273   3.110   3.506   2.590
 4507SOL    HW214274   3.157   3.432   2.728
 4508SOL     OW14275   2.321   3.014   2.603
 4508SOL    HW114276   2.250   2.987   2.668
 4508SOL    HW214277   2.295   2.986   2.510
 4509SOL     OW14278   3.133   3.659   2.453
 4509SOL    HW114279   3.177   3.723   2.389
 4509SOL    HW214280   3.083   3.711   2.523
 4510SOL     OW14281   2.894   2.411   1.878
 4510SOL    HW114282   2.853   2.493   1.839
 4510SOL    HW214283   2.958   2.437   1.951
 4511SOL     OW14284   1.940   2.418   3.248
 4511SOL    HW114285   2.032   2.417   3.207
 4511SOL    HW214286   1.934   2.492   3.315
 4512SOL     OW14287   2.728   2.316   2.504
 4512SOL    HW114288   2.696   2.388   2.442
 4512SOL    HW214289   2.752   2.235   2.451
 4513SOL     OW14290   2.879   1.901   2.615
 4513SOL    HW114291   2.807   1.906   2.546
 4513SOL    HW214292   2.855   1.832   2.684
 4514SOL     OW14293   3.291   3.035   2.729
 4514SOL    HW114294   3.236   2.951   2.722
 4514SOL    HW214295   3.317   3.064   2.637
 4515SOL     OW14296   3.328   2.452   2.854
 4515SOL    HW114297   3.298   2.357   2.861
 4515SOL    HW214298   3.401   2.468   2.920
 4516SOL     OW14299   3.719   2.695   2.239
 4516SOL    HW114300   3.761   2.631   2.303
 4516SOL    HW214301   3.681   2.644   2.161
 4517SOL     OW14302   2.350   3.247   2.036
 4517SOL    HW114303   2.263   3.232   2.083
 4517SOL    HW214304   2.333   3.273   1.941
 4518SOL     OW14305   3.526   3.142   2.519
 4518SOL    HW114306   3.625   3.150   2.533
 4518SOL    HW214307   3.481   3.226   2.550
 4519SOL     OW14308   3.252   2.437   1.940
 4519SOL    HW114309   3.198   2.416   2.021
 4519SOL    HW214310   3.343   2.396   1.949
 4520SOL     OW14311   3.616   3.085   3.450
 4520SOL    HW114312   3.707   3.046   3.437
 4520SOL    HW214313   3.624   3.181   3.474
 4521SOL     OW14314   2.926   3.209   3.202
 4521SOL    HW114315   2.846   3.186   3.257
 4521SOL    HW214316   3.009   3.183   3.251
 4522SOL     OW14317   3.454   3.491   3.487
 4522SOL    HW114318   3.481   3.525   3.397
 4522SOL    HW214319   3.533   3.453   3.533
 4523SOL     OW14320   2.973   3.057   2.962
 4523SOL    HW114321   2.933   3.101   3.043
 4523SOL    HW214322   2.932   3.094   2.879
 4524SOL     OW14323   3.500   2.961   2.941
 4524SOL    HW114324   3.505   3.042   3.000
 4524SOL    HW214325   3.414   2.963   2.890
 4525SOL     OW14326   2.777   1.951   3.264
 4525SOL    HW114327   2.802   1.931   3.169
 4525SOL    HW214328   2.849   2.007   3.306
 4526SOL     OW14329   2.842   2.978   3.581
 4526SOL    HW114330   2.743   2.984   3.591
 4526SOL    HW214331   2.865   2.898   3.525
 4527SOL     OW14332   2.567   2.912   2.230
 4527SOL    HW114333   2.553   2.919   2.329
 4527SOL    HW214334   2.651   2.861   2.212
 4528SOL     OW14335   2.272   2.675   3.113
 4528SOL    HW114336   2.358   2.687   3.163
 4528SOL    HW214337   2.230   2.588   3.140
 4529SOL     OW14338   3.136   2.248   3.124
 4529SOL    HW114339   3.157   2.322   3.188
 4529SOL    HW214340   3.047   2.265   3.081
 4530SOL     OW14341   1.926   3.426   3.193
 4530SOL    HW114342   1.880   3.508   3.159
 4530SOL    HW214343   2.024   3.445   3.202
 4531SOL     OW14344   2.229   2.962   2.363
 4531SOL    HW114345   2.222   3.045   2.307
 4531SOL    HW214346   2.233   2.882   2.303
 4532SOL     OW14347   3.114   3.210   2.250
 4532SOL    HW114348   3.164   3.287   2.290
 4532SOL    HW214349   3.019   3.212   2.282
 4533SOL     OW14350   3.134   3.307   3.004
 4533SOL    HW114351   3.181   3.320   3.091
 4533SOL    HW214352   3.068   3.233   3.013
 4534SOL     OW14353   3.444   2.501   2.334
 4534SOL    HW114354   3.413   2.562   2.407
 4534SOL    HW214355   3.494   2.553   2.265
 4535SOL     OW14356   2.216   3.372   3.191
 4535SOL    HW114357   2.195   3.328   3.104
 4535SOL    HW214358   2.313   3.398   3.194
 4536SOL     OW14359   2.264   2.613   3.460
 4536SOL    HW114360   2.332   2.668   3.413
 4536SOL    HW214361   2.304   2.525   3.487
 4537SOL     OW14362   3.449   2.641   3.532
 4537SOL    HW114363   3.357   2.679   3.527
 4537SOL    HW214364   3.509   2.688   3.467
 4538SOL     OW14365   2.875   1.967   3.632
 4538SOL    HW114366   2.881   2.052   3.580
 4538SOL    HW214367   2.907   1.891   3.575
 4539SOL     OW14368   2.366   1.912   3.602
 4539SOL    HW114369   2.324   1.855   3.532
 4539SOL    HW214370   2.300   1.981   3.634
 4540SOL     OW14371   2.435   2.732   2.891
 4540SOL    HW114372   2.479   2.821   2.882
 4540SOL    HW214373   2.372   2.732   2.968
 4541SOL     OW14374   3.222   2.724   2.907
 4541SOL    HW114375   3.147   2.724   2.841
 4541SOL    HW214376   3.259   2.632   2.916
 4542SOL     OW14377   3.071   2.387   2.137
 4542SOL    HW114378   3.084   2.303   2.191
 4542SOL    HW214379   3.042   2.461   2.197
 4543SOL     OW14380   1.899   3.172   3.144
 4543SOL    HW114381   1.952   3.123   3.212
 4543SOL    HW214382   1.921   3.270   3.149
 4544SOL     OW14383   2.594   2.496   2.926
 4544SOL    HW114384   2.653   2.470   2.850
 4544SOL    HW214385   2.566   2.592   2.915
 4545SOL     OW14386   3.590   2.797   3.716
 4545SOL    HW114387   3.544   2.790   3.627
 4545SOL    HW214388   3.528   2.841   3.782
 4546SOL     OW14389   3.484   2.229   2.236
 4546SOL    HW114390   3.486   2.153   2.300
 4546SOL    HW214391   3.436   2.306   2.276
 4547SOL     OW14392   2.885   2.628   2.828
 4547SOL    HW114393   2.900   2.649   2.924
 4547SOL    HW214394   2.855   2.533   2.819
 4548SOL     OW14395   2.842   3.435   3.562
 4548SOL    HW114396   2.822   3.479   3.474
 4548SOL    HW214397   2.881   3.344   3.546
 4549SOL     OW14398   3.721   3.380   3.467
 4549SOL    HW114399   3.735   3.407   3.372
 4549SOL    HW214400   3.804   3.402   3.520
 4550SOL     OW14401   2.212   2.760   3.666
 4550SOL    HW114402   2.288   2.804   3.714
 4550SOL    HW214403   2.247   2.713   3.584
 4551SOL     OW14404   3.402   2.136   1.987
 4551SOL    HW114405   3.341   2.061   2.010
 4551SOL    HW214406   3.424   2.188   2.070
 4552SOL     OW14407   3.165   2.700   1.904
 4552SOL    HW114408   3.199   2.607   1.919
 4552SOL    HW214409   3.183   2.727   1.809
 4553SOL     OW14410   2.930   3.195   2.711
 4553SOL    HW114411   2.937   3.111   2.656
 4553SOL    HW214412   2.992   3.264   2.675
 4554SOL     OW14413   2.181   2.672   2.811
 4554SOL    HW114414   2.274   2.708   2.816
 4554SOL    HW214415   2.175   2.587   2.863
 4555SOL     OW14416   3.000   2.242   3.540
 4555SOL    HW114417   2.955   2.305   3.604
 4555SOL    HW214418   3.093   2.273   3.523
 4556SOL     OW14419   3.022   2.069   3.339
 4556SOL    HW114420   3.022   2.133   3.416
 4556SOL    HW214421   3.050   2.117   3.256
 4557SOL     OW14422   1.870   3.188   2.062
 4557SOL    HW114423   1.777   3.209   2.031
 4557SOL    HW214424   1.880   3.089   2.075
 4558SOL     OW14425   1.950   3.663   2.789
 4558SOL    HW114426   1.908   3.577   2.762
 4558SOL    HW214427   2.044   3.666   2.755
 4559SOL     OW14428   2.366   3.430   2.772
 4559SOL    HW114429   2.432   3.504   2.781
 4559SOL    HW214430   2.410   3.351   2.730
 4560SOL     OW14431   2.864   2.658   3.100
 4560SOL    HW114432   2.905   2.626   3.186
 4560SOL    HW214433   2.768   2.631   3.097
 4561SOL     OW14434   1.902   2.406   2.976
 4561SOL    HW114435   1.987   2.373   2.935
 4561SOL    HW214436   1.915   2.421   3.074
 4562SOL     OW14437   3.231   2.812   3.522
 4562SOL    HW114438   3.270   2.901   3.542
 4562SOL    HW214439   3.241   2.792   3.425
 4563SOL     OW14440   2.677   2.434   2.187
 4563SOL    HW114441   2.684   2.345   2.141
 4563SOL    HW214442   2.583   2.468   2.179
 4564SOL     OW14443   3.519   2.466   3.068
 4564SOL    HW114444   3.481   2.397   3.130
 4564SOL    HW214445   3.601   2.430   3.024
 4565SOL     OW14446   2.114   3.426   3.606
 4565SOL    HW114447   2.084   3.483   3.682
 4565SOL    HW214448   2.107   3.329   3.632
 4566SOL     OW14449   2.792   3.540   3.327
 4566SOL    HW114450   2.768   3.522   3.232
 4566SOL    HW214451   2.822   3.634   3.337
 4567SOL     OW14452   2.021   2.999   3.328
 4567SOL    HW114453   2.043   2.938   3.404
 4567SOL    HW214454   2.031   2.950   3.242
 4568SOL     OW14455   3.209   2.921   3.096
 4568SOL    HW114456   3.233   2.858   3.022
 4568SOL    HW214457   3.119   2.961   3.078
 4569SOL     OW14458   3.164   2.717   2.171
 4569SOL    HW114459   3.078   2.686   2.213
 4569SOL    HW214460   3.160   2.703   2.072
 4570SOL     OW14461   3.621   3.609   3.016
 4570SOL    HW114462   3.682   3.639   2.943
 4570SOL    HW214463   3.583   3.520   2.994
 4571SOL     OW14464   3.114   3.593   2.990
 4571SOL    HW114465   3.198   3.598   2.936
 4571SOL    HW214466   3.091   3.497   3.008
 4572SOL     OW14467   1.945   3.120   2.884
 4572SOL    HW114468   1.940   3.119   2.984
 4572SOL    HW214469   1.862   3.079   2.846
 4573SOL     OW14470   2.550   3.524   3.578
 4573SOL    HW114471   2.494   3.605   3.587
 4573SOL    HW214472   2.602   3.528   3.492
 4574SOL     OW14473   3.588   1.997   2.385
 4574SOL    HW114474   3.661   1.980   2.318
 4574SOL    HW214475   3.557   1.910   2.423
 4575SOL     OW14476   3.250   3.435   2.339
 4575SOL    HW114477   3.317   3.447   2.265
 4575SOL    HW214478   3.210   3.524   2.362
 4576SOL     OW14479   1.992   3.656   3.713
 4576SOL    HW114480   1.951   3.582   3.766
 4576SOL    HW214481   2.056   3.707   3.771
 4577SOL     OW14482   3.142   2.789   2.534
 4577SOL    HW114483   3.202   2.708   2.536
 4577SOL    HW214484   3.182   2.858   2.474
 4578SOL     OW14485   2.692   3.135   3.284
 4578SOL    HW114486   2.687   3.168   3.379
 4578SOL    HW214487   2.606   3.154   3.238
 4579SOL     OW14488   2.534   3.478   2.016
 4579SOL    HW114489   2.543   3.488   1.917
 4579SOL    HW214490   2.494   3.389   2.037
 4580SOL     OW14491   3.512   3.582   3.256
 4580SOL    HW114492   3.565   3.592   3.172
 4580SOL    HW214493   3.485   3.672   3.290
 4581SOL     OW14494   3.703   2.037   2.825
 4581SOL    HW114495   3.742   1.952   2.789
 4581SOL    HW214496   3.605   2.039   2.806
 4582SOL     OW14497   3.056   3.474   1.893
 4582SOL    HW114498   3.062   3.381   1.930
 4582SOL    HW214499   2.997   3.474   1.813
 4583SOL     OW14500   2.684   2.864   3.234
 4583SOL    HW114501   2.724   2.863   3.142
 4583SOL    HW214502   2.694   2.956   3.274
 4584SOL     OW14503   2.778   2.772   2.153
 4584SOL    HW114504   2.841   2.810   2.085
 4584SOL    HW214505   2.818   2.689   2.192
 4585SOL     OW14506   3.366   3.469   1.906
 4585SOL    HW114507   3.274   3.506   1.913
 4585SOL    HW214508   3.404   3.489   1.816
 4586SOL     OW14509   2.234   3.150   3.352
 4586SOL    HW114510   2.221   3.243   3.318
 4586SOL    HW214511   2.150   3.098   3.339
 4587SOL     OW14512   3.476   3.154   3.151
 4587SOL    HW114513   3.536   3.157   3.231
 4587SOL    HW214514   3.401   3.218   3.164
 4588SOL     OW14515   2.901   2.960   2.558
 4588SOL    HW114516   2.831   2.913   2.612
 4588SOL    HW214517   2.960   2.892   2.515
 4589SOL     OW14518   2.876   2.098   2.833
 4589SOL    HW114519   2.868   2.062   2.740
 4589SOL    HW214520   2.874   2.022   2.898
 4590SOL     OW14521   2.452   3.349   2.353
 4590SOL    HW114522   2.494   3.291   2.283
 4590SOL    HW214523   2.408   3.428   2.309
 4591SOL     OW14524   3.571   2.247   3.243
 4591SOL    HW114525   3.644   2.316   3.247
 4591SOL    HW214526   3.599   2.172   3.184
 4592SOL     OW14527   2.117   3.210   2.152
 4592SOL    HW114528   2.021   3.211   2.125
 4592SOL    HW214529   2.129   3.263   2.236
 4593SOL     OW14530   1.967   2.875   3.588
 4593SOL    HW114531   1.890   2.842   3.642
 4593SOL    HW214532   2.052   2.845   3.630
 4594SOL     OW14533   2.534   2.065   3.351
 4594SOL    HW114534   2.624   2.049   3.311
 4594SOL    HW214535   2.542   2.070   3.450
 4595SOL     OW14536   3.302   2.718   3.260
 4595SOL    HW114537   3.245   2.770   3.197
 4595SOL    HW214538   3.398   2.730   3.236
 4596SOL     OW14539   1.934   2.028   2.180
 4596SOL    HW114540   1.917   2.111   2.126
 4596SOL    HW214541   2.024   1.991   2.158
 4597SOL     OW14542   3.045   3.197   1.981
 4597SOL    HW114543   2.946   3.186   1.983
 4597SOL    HW214544   3.079   3.212   2.074
 4598SOL     OW14545   2.475   2.704   3.293
 4598SOL    HW114546   2.531   2.785   3.276
 4598SOL    HW214547   2.534   2.624   3.296
 4599SOL     OW14548   3.355   3.629   2.821
 4599SOL    HW114549   3.388   3.693   2.752
 4599SOL    HW214550   3.421   3.623   2.896
 4600SOL     OW14551   3.312   3.082   3.495
 4600SOL    HW114552   3.303   3.072   3.594
 4600SOL    HW214553   3.408   3.075   3.469
 4601SOL     OW14554   2.252   3.603   3.422
 4601SOL    HW114555   2.161   3.644   3.420
 4601SOL    HW214556   2.245   3.509   3.454
 4602SOL     OW14557   3.536   2.745   3.116
 4602SOL    HW114558   3.509   2.656   3.079
 4602SOL    HW214559   3.537   2.813   3.043
 4603SOL     OW14560   3.087   2.187   2.311
 4603SOL    HW114561   3.152   2.113   2.300
 4603SOL    HW214562   3.107   2.237   2.395
 4604SOL     OW14563   2.456   2.607   2.514
 4604SOL    HW114564   2.506   2.692   2.495
 4604SOL    HW214565   2.368   2.609   2.466
 4605SOL     OW14566   3.639   2.204   3.504
 4605SOL    HW114567   3.622   2.235   3.410
 4605SOL    HW214568   3.555   2.167   3.542
 4606SOL     OW14569   3.592   2.796   3.379
 4606SOL    HW114570   3.630   2.887   3.394
 4606SOL    HW214571   3.584   2.779   3.280
 4607SOL     OW14572   2.721   3.236   1.878
 4607SOL    HW114573   2.675   3.251   1.966
 4607SOL    HW214574   2.765   3.321   1.848
 4608SOL     OW14575   2.523   3.652   2.815
 4608SOL    HW114576   2.477   3.740   2.802
 4608SOL    HW214577   2.622   3.664   2.808
 4609SOL     OW14578   2.721   2.818   2.723
 4609SOL    HW114579   2.775   2.749   2.771
 4609SOL    HW214580   2.689   2.887   2.789
 4610SOL     OW14581   2.945   2.846   1.949
 4610SOL    HW114582   2.922   2.899   1.867
 4610SOL    HW214583   3.026   2.790   1.930
 4611SOL     OW14584   3.723   3.431   2.713
 4611SOL    HW114585   3.652   3.419   2.643
 4611SOL    HW214586   3.724   3.352   2.773
 4612SOL     OW14587   2.083   3.176   3.706
 4612SOL    HW114588   2.018   3.103   3.685
 4612SOL    HW214589   2.087   3.190   3.804
 4613SOL     OW14590   1.941   3.102   2.515
 4613SOL    HW114591   1.940   3.055   2.603
 4613SOL    HW214592   2.023   3.074   2.464
 4614SOL     OW14593   2.534   3.253   3.486
 4614SOL    HW114594   2.456   3.203   3.524
 4614SOL    HW214595   2.531   3.348   3.517
 4615SOL     OW14596   3.686   2.054   3.089
 4615SOL    HW114597   3.682   1.964   3.133
 4615SOL    HW214598   3.689   2.043   2.990
 4616SOL     OW14599   3.567   3.349   2.966
 4616SOL    HW114600   3.474   3.324   2.939
 4616SOL    HW214601   3.593   3.299   3.048
 4617SOL     OW14602   2.674   3.448   2.549
 4617SOL    HW114603   2.706   3.458   2.455
 4617SOL    HW214604   2.595   3.386   2.551
 4618SOL     OW14605   3.286   2.076   2.974
 4618SOL    HW114606   3.338   2.011   3.029
 4618SOL    HW214607   3.237   2.139   3.035
 4619SOL     OW14608   2.863   1.896   3.016
 4619SOL    HW114609   2.800   1.824   2.985
 4619SOL    HW214610   2.956   1.860   3.016
 4620SOL     OW14611   2.632   3.192   2.163
 4620SOL    HW114612   2.586   3.105   2.180
 4620SOL    HW214613   2.723   3.189   2.204
 4621SOL     OW14614   2.480   3.429   3.146
 4621SOL    HW114615   2.475   3.511   3.203
 4621SOL    HW214616   2.569   3.426   3.101
 4622SOL     OW14617   3.214   1.914   2.030
 4622SOL    HW114618   3.249   1.873   1.946
 4622SOL    HW214619   3.124   1.876   2.050
 4623SOL     OW14620   3.162   2.315   2.553
 4623SOL    HW114621   3.103   2.395   2.557
 4623SOL    HW214622   3.177   2.280   2.646
 4624SOL     OW14623   3.455   2.083   2.744
 4624SOL    HW114624   3.371   2.082   2.798
 4624SOL    HW214625   3.457   2.166   2.688
 4625SOL     OW14626   1.901   2.939   2.162
 4625SOL    HW114627   2.000   2.928   2.153
 4625SOL    HW214628   1.861   2.853   2.194
 4626SOL     OW14629   2.737   3.508   2.199
 4626SOL    HW114630   2.660   3.473   2.145
 4626SOL    HW214631   2.705   3.579   2.261
 4627SOL     OW14632   2.092   2.490   3.837
 4627SOL    HW114633   1.999   2.488   3.874
 4627SOL    HW214634   2.093   2.451   3.745
 4628SOL     OW14635   1.881   2.230   4.371
 4628SOL    HW114636   1.799   2.273   4.410
 4628SOL    HW214637   1.853   2.157   4.308
 4629SOL     OW14638   2.431   3.137   4.889
 4629SOL    HW114639   2.338   3.130   4.852
 4629SOL    HW214640   2.442   3.226   4.933
 4630SOL     OW14641   3.417   3.373   4.427
 4630SOL    HW114642   3.360   3.357   4.508
 4630SOL    HW214643   3.358   3.383   4.347
 4631SOL     OW14644   2.997   2.565   4.441
 4631SOL    HW114645   3.054   2.643   4.416
 4631SOL    HW214646   2.937   2.591   4.517
 4632SOL     OW14647   3.617   2.469   3.955
 4632SOL    HW114648   3.605   2.456   3.856
 4632SOL    HW214649   3.587   2.388   4.004
 4633SOL     OW14650   2.630   3.006   4.747
 4633SOL    HW114651   2.552   3.023   4.807
 4633SOL    HW214652   2.664   3.093   4.711
 4634SOL     OW14653   2.712   2.660   5.547
 4634SOL    HW114654   2.708   2.736   5.612
 4634SOL    HW214655   2.734   2.696   5.456
 4635SOL     OW14656   2.547   2.874   4.389
 4635SOL    HW114657   2.616   2.858   4.459
 4635SOL    HW214658   2.474   2.931   4.427
 4636SOL     OW14659   2.548   3.023   5.527
 4636SOL    HW114660   2.608   3.102   5.541
 4636SOL    HW214661   2.462   3.054   5.486
 4637SOL     OW14662   2.197   3.297   4.785
 4637SOL    HW114663   2.119   3.266   4.732
 4637SOL    HW214664   2.255   3.355   4.728
 4638SOL     OW14665   3.322   3.367   5.063
 4638SOL    HW114666   3.346   3.461   5.089
 4638SOL    HW214667   3.306   3.313   5.145
 4639SOL     OW14668   3.465   2.309   4.461
 4639SOL    HW114669   3.391   2.355   4.411
 4639SOL    HW214670   3.516   2.377   4.514
 4640SOL     OW14671   2.093   3.575   4.207
 4640SOL    HW114672   2.127   3.652   4.261
 4640SOL    HW214673   2.137   3.575   4.117
 4641SOL     OW14674   2.989   3.203   5.414
 4641SOL    HW114675   3.036   3.203   5.502
 4641SOL    HW214676   2.941   3.116   5.403
 4642SOL     OW14677   2.092   3.296   4.262
 4642SOL    HW114678   2.066   3.392   4.262
 4642SOL    HW214679   2.021   3.242   4.307
 4643SOL     OW14680   2.482   3.648   5.163
 4643SOL    HW114681   2.390   3.631   5.198
 4643SOL    HW214682   2.510   3.740   5.189
 4644SOL     OW14683   2.468   2.826   3.847
 4644SOL    HW114684   2.475   2.910   3.793
 4644SOL    HW214685   2.514   2.839   3.935
 4645SOL     OW14686   3.456   1.976   5.204
 4645SOL    HW114687   3.438   2.043   5.132
 4645SOL    HW214688   3.453   2.022   5.293
 4646SOL     OW14689   1.984   2.505   4.287
 4646SOL    HW114690   1.939   2.417   4.304
 4646SOL    HW214691   1.983   2.559   4.371
 4647SOL     OW14692   3.704   3.629   4.083
 4647SOL    HW114693   3.758   3.600   4.163
 4647SOL    HW214694   3.734   3.719   4.054
 4648SOL     OW14695   1.889   3.458   3.841
 4648SOL    HW114696   1.870   3.362   3.862
 4648SOL    HW214697   1.856   3.516   3.916
 4649SOL     OW14698   3.551   2.784   4.336
 4649SOL    HW114699   3.646   2.755   4.344
 4649SOL    HW214700   3.543   2.849   4.261
 4650SOL     OW14701   3.503   2.970   4.156
 4650SOL    HW114702   3.589   2.972   4.104
 4650SOL    HW214703   3.517   3.017   4.244
 4651SOL     OW14704   1.975   2.599   5.321
 4651SOL    HW114705   2.063   2.586   5.366
 4651SOL    HW214706   1.962   2.696   5.299
 4652SOL     OW14707   2.475   3.227   4.450
 4652SOL    HW114708   2.426   3.140   4.459
 4652SOL    HW214709   2.452   3.270   4.363
 4653SOL     OW14710   3.155   3.090   5.147
 4653SOL    HW114711   3.192   3.017   5.089
 4653SOL    HW214712   3.207   3.095   5.232
 4654SOL     OW14713   2.671   1.866   4.226
 4654SOL    HW114714   2.711   1.957   4.217
 4654SOL    HW214715   2.571   1.874   4.232
 4655SOL     OW14716   3.387   2.861   3.914
 4655SOL    HW114717   3.324   2.785   3.927
 4655SOL    HW214718   3.435   2.879   4.000
 4656SOL     OW14719   3.049   3.654   5.340
 4656SOL    HW114720   3.073   3.714   5.264
 4656SOL    HW214721   3.056   3.559   5.310
 4657SOL     OW14722   3.328   3.279   4.677
 4657SOL    HW114723   3.269   3.285   4.757
 4657SOL    HW214724   3.313   3.191   4.631
 4658SOL     OW14725   3.529   3.576   4.296
 4658SOL    HW114726   3.488   3.553   4.208
 4658SOL    HW214727   3.511   3.502   4.361
 4659SOL     OW14728   2.460   2.591   3.994
 4659SOL    HW114729   2.484   2.660   3.926
 4659SOL    HW214730   2.382   2.624   4.048
 4660SOL     OW14731   3.438   3.524   4.031
 4660SOL    HW114732   3.527   3.570   4.034
 4660SOL    HW214733   3.417   3.500   3.936
 4661SOL     OW14734   3.256   2.331   5.398
 4661SOL    HW114735   3.236   2.374   5.486
 4661SOL    HW214736   3.334   2.269   5.407
 4662SOL     OW14737   2.903   2.563   4.153
 4662SOL    HW114738   2.929   2.559   4.249
 4662SOL    HW214739   2.818   2.512   4.139
 4663SOL     OW14740   1.938   2.673   4.513
 4663SOL    HW114741   2.037   2.661   4.522
 4663SOL    HW214742   1.914   2.768   4.534
 4664SOL     OW14743   1.992   3.683   5.295
 4664SOL    HW114744   1.982   3.668   5.394
 4664SOL    HW214745   1.906   3.719   5.259
 4665SOL     OW14746   2.727   2.210   3.919
 4665SOL    HW114747   2.786   2.273   3.870
 4665SOL    HW214748   2.746   2.116   3.890
 4666SOL     OW14749   3.581   2.447   5.555
 4666SOL    HW114750   3.555   2.536   5.519
 4666SOL    HW214751   3.579   2.379   5.482
 4667SOL     OW14752   3.224   3.006   4.269
 4667SOL    HW114753   3.307   2.977   4.221
 4667SOL    HW214754   3.175   3.073   4.213
 4668SOL     OW14755   2.412   2.058   4.609
 4668SOL    HW114756   2.407   2.053   4.709
 4668SOL    HW214757   2.414   2.154   4.580
 4669SOL     OW14758   2.870   3.318   4.201
 4669SOL    HW114759   2.824   3.390   4.149
 4669SOL    HW214760   2.866   3.338   4.299
 4670SOL     OW14761   2.213   3.663   4.577
 4670SOL    HW114762   2.263   3.577   4.583
 4670SOL    HW214763   2.278   3.740   4.574
 4671SOL     OW14764   3.657   2.928   4.597
 4671SOL    HW114765   3.595   2.913   4.521
 4671SOL    HW214766   3.605   2.939   4.682
 4672SOL     OW14767   3.089   3.412   5.230
 4672SOL    HW114768   3.095   3.335   5.294
 4672SOL    HW214769   3.037   3.386   5.150
 4673SOL     OW14770   2.183   2.805   3.966
 4673SOL    HW114771   2.265   2.844   3.924
 4673SOL    HW214772   2.156   2.723   3.917
 4674SOL     OW14773   3.320   2.597   4.452
 4674SOL    HW114774   3.315   2.532   4.527
 4674SOL    HW214775   3.400   2.656   4.465
 4675SOL     OW14776   2.323   3.128   5.451
 4675SOL    HW114777   2.273   3.129   5.365
 4675SOL    HW214778   2.260   3.110   5.527
 4676SOL     OW14779   2.973   3.638   3.961
 4676SOL    HW114780   2.913   3.576   4.011
 4676SOL    HW214781   3.004   3.594   3.876
 4677SOL     OW14782   3.494   3.239   3.805
 4677SOL    HW114783   3.462   3.333   3.795
 4677SOL    HW214784   3.418   3.176   3.793
 4678SOL     OW14785   2.326   3.605   4.047
 4678SOL    HW114786   2.359   3.644   4.133
 4678SOL    HW214787   2.402   3.598   3.982
 4679SOL     OW14788   3.262   1.969   4.150
 4679SOL    HW114789   3.238   1.932   4.060
 4679SOL    HW214790   3.361   1.985   4.154
 4680SOL     OW14791   2.111   3.647   4.965
 4680SOL    HW114792   2.168   3.582   5.015
 4680SOL    HW214793   2.095   3.614   4.872
 4681SOL     OW14794   2.802   3.560   4.628
 4681SOL    HW114795   2.882   3.503   4.649
 4681SOL    HW214796   2.753   3.520   4.551
 4682SOL     OW14797   2.244   2.562   4.204
 4682SOL    HW114798   2.289   2.472   4.201
 4682SOL    HW214799   2.150   2.551   4.237
 4683SOL     OW14800   3.409   2.084   5.453
 4683SOL    HW114801   3.404   2.121   5.545
 4683SOL    HW214802   3.337   2.015   5.441
 4684SOL     OW14803   2.476   1.984   3.841
 4684SOL    HW114804   2.574   1.962   3.848
 4684SOL    HW214805   2.445   1.967   3.748
 4685SOL     OW14806   2.643   2.126   5.473
 4685SOL    HW114807   2.710   2.065   5.516
 4685SOL    HW214808   2.570   2.145   5.538
 4686SOL     OW14809   2.750   3.376   4.919
 4686SOL    HW114810   2.727   3.351   4.825
 4686SOL    HW214811   2.811   3.307   4.958
 4687SOL     OW14812   3.213   2.452   5.157
 4687SOL    HW114813   3.241   2.409   5.242
 4687SOL    HW214814   3.238   2.548   5.158
 4688SOL     OW14815   2.665   3.264   4.648
 4688SOL    HW114816   2.755   3.278   4.606
 4688SOL    HW214817   2.594   3.266   4.577
 4689SOL     OW14818   2.401   1.926   4.236
 4689SOL    HW114819   2.320   1.927   4.294
 4689SOL    HW214820   2.404   2.009   4.181
 4690SOL     OW14821   3.296   3.050   3.765
 4690SOL    HW114822   3.328   2.974   3.822
 4690SOL    HW214823   3.204   3.077   3.795
 4691SOL     OW14824   2.159   1.897   3.895
 4691SOL    HW114825   2.208   1.981   3.874
 4691SOL    HW214826   2.221   1.832   3.940
 4692SOL     OW14827   2.797   2.098   4.204
 4692SOL    HW114828   2.749   2.139   4.126
 4692SOL    HW214829   2.896   2.096   4.185
 4693SOL     OW14830   3.089   3.432   4.517
 4693SOL    HW114831   3.110   3.506   4.452
 4693SOL    HW214832   3.157   3.432   4.590
 4694SOL     OW14833   2.321   3.014   4.465
 4694SOL    HW114834   2.250   2.987   4.530
 4694SOL    HW214835   2.295   2.986   4.372
 4695SOL     OW14836   3.133   3.659   4.315
 4695SOL    HW114837   3.177   3.723   4.251
 4695SOL    HW214838   3.083   3.711   4.385
 4696SOL     OW14839   2.894   2.411   3.740
 4696SOL    HW114840   2.853   2.493   3.701
 4696SOL    HW214841   2.958   2.437   3.813
 4697SOL     OW14842   1.940   2.418   5.110
 4697SOL    HW114843   2.032   2.417   5.069
 4697SOL    HW214844   1.934   2.492   5.177
 4698SOL     OW14845   2.423   2.084   4.871
 4698SOL    HW114846   2.461   2.000   4.908
 4698SOL    HW214847   2.335   2.103   4.915
 4699SOL     OW14848   2.728   2.316   4.366
 4699SOL    HW114849   2.696   2.388   4.304
 4699SOL    HW214850   2.752   2.235   4.313
 4700SOL     OW14851   2.879   1.901   4.477
 4700SOL    HW114852   2.807   1.906   4.408
 4700SOL    HW214853   2.855   1.832   4.546
 4701SOL     OW14854   3.291   3.035   4.591
 4701SOL    HW114855   3.236   2.951   4.584
 4701SOL    HW214856   3.317   3.064   4.499
 4702SOL     OW14857   3.328   2.452   4.716
 4702SOL    HW114858   3.298   2.357   4.723
 4702SOL    HW214859   3.401   2.468   4.782
 4703SOL     OW14860   3.719   2.695   4.101
 4703SOL    HW114861   3.761   2.631   4.165
 4703SOL    HW214862   3.681   2.644   4.023
 4704SOL     OW14863   2.350   3.247   3.898
 4704SOL    HW114864   2.263   3.232   3.945
 4704SOL    HW214865   2.333   3.273   3.803
 4705SOL     OW14866   3.526   3.142   4.381
 4705SOL    HW114867   3.625   3.150   4.395
 4705SOL    HW214868   3.481   3.226   4.412
 4706SOL     OW14869   3.252   2.437   3.802
 4706SOL    HW114870   3.198   2.416   3.883
 4706SOL    HW214871   3.343   2.396   3.811
 4707SOL     OW14872   3.616   3.085   5.312
 4707SOL    HW114873   3.707   3.046   5.299
 4707SOL    HW214874   3.624   3.181   5.336
 4708SOL     OW14875   2.926   3.209   5.064
 4708SOL    HW114876   2.846   3.186   5.119
 4708SOL    HW214877   3.009   3.183   5.113
 4709SOL     OW14878   3.454   3.491   5.349
 4709SOL    HW114879   3.481   3.525   5.259
 4709SOL    HW214880   3.533   3.453   5.395
 4710SOL     OW14881   2.973   3.057   4.824
 4710SOL    HW114882   2.933   3.101   4.905
 4710SOL    HW214883   2.932   3.094   4.741
 4711SOL     OW14884   3.500   2.961   4.803
 4711SOL    HW114885   3.505   3.042   4.862
 4711SOL    HW214886   3.414   2.963   4.752
 4712SOL     OW14887   2.842   2.978   5.443
 4712SOL    HW114888   2.743   2.984   5.453
 4712SOL    HW214889   2.865   2.898   5.387
 4713SOL     OW14890   2.567   2.912   4.092
 4713SOL    HW114891   2.553   2.919   4.191
 4713SOL    HW214892   2.651   2.861   4.074
 4714SOL     OW14893   1.926   3.426   5.055
 4714SOL    HW114894   1.880   3.508   5.021
 4714SOL    HW214895   2.024   3.445   5.064
 4715SOL     OW14896   2.229   2.962   4.225
 4715SOL    HW114897   2.222   3.045   4.169
 4715SOL    HW214898   2.233   2.882   4.165
 4716SOL     OW14899   3.114   3.210   4.112
 4716SOL    HW114900   3.164   3.287   4.152
 4716SOL    HW214901   3.019   3.212   4.144
 4717SOL     OW14902   3.134   3.307   4.866
 4717SOL    HW114903   3.181   3.320   4.953
 4717SOL    HW214904   3.068   3.233   4.875
 4718SOL     OW14905   3.444   2.501   4.196
 4718SOL    HW114906   3.413   2.562   4.269
 4718SOL    HW214907   3.494   2.553   4.127
 4719SOL     OW14908   2.216   3.372   5.053
 4719SOL    HW114909   2.195   3.328   4.966
 4719SOL    HW214910   2.313   3.398   5.056
 4720SOL     OW14911   3.449   2.641   5.394
 4720SOL    HW114912   3.357   2.679   5.389
 4720SOL    HW214913   3.509   2.688   5.329
 4721SOL     OW14914   2.875   1.967   5.494
 4721SOL    HW114915   2.881   2.052   5.442
 4721SOL    HW214916   2.907   1.891   5.437
 4722SOL     OW14917   2.366   1.912   5.464
 4722SOL    HW114918   2.324   1.855   5.394
 4722SOL    HW214919   2.300   1.981   5.496
 4723SOL     OW14920   3.222   2.724   4.769
 4723SOL    HW114921   3.147   2.724   4.703
 4723SOL    HW214922   3.259   2.632   4.778
 4724SOL     OW14923   3.071   2.387   3.999
 4724SOL    HW114924   3.084   2.303   4.053
 4724SOL    HW214925   3.042   2.461   4.059
 4725SOL     OW14926   1.899   3.172   5.006
 4725SOL    HW114927   1.952   3.123   5.074
 4725SOL    HW214928   1.921   3.270   5.011
 4726SOL     OW14929   3.590   2.797   5.578
 4726SOL    HW114930   3.544   2.790   5.489
 4726SOL    HW214931   3.528   2.841   5.644
 4727SOL     OW14932   3.484   2.229   4.098
 4727SOL    HW114933   3.486   2.153   4.162
 4727SOL    HW214934   3.436   2.306   4.138
 4728SOL     OW14935   2.842   3.435   5.424
 4728SOL    HW114936   2.822   3.479   5.336
 4728SOL    HW214937   2.881   3.344   5.408
 4729SOL     OW14938   3.721   3.380   5.329
 4729SOL    HW114939   3.735   3.407   5.234
 4729SOL    HW214940   3.804   3.402   5.382
 4730SOL     OW14941   2.212   2.760   5.528
 4730SOL    HW114942   2.288   2.804   5.576
 4730SOL    HW214943   2.247   2.713   5.446
 4731SOL     OW14944   3.402   2.136   3.849
 4731SOL    HW114945   3.341   2.061   3.872
 4731SOL    HW214946   3.424   2.188   3.932
 4732SOL     OW14947   3.165   2.700   3.766
 4732SOL    HW114948   3.199   2.607   3.781
 4732SOL    HW214949   3.183   2.727   3.671
 4733SOL     OW14950   2.930   3.195   4.573
 4733SOL    HW114951   2.937   3.111   4.518
 4733SOL    HW214952   2.992   3.264   4.537
 4734SOL     OW14953   1.870   3.188   3.924
 4734SOL    HW114954   1.777   3.209   3.893
 4734SOL    HW214955   1.880   3.089   3.937
 4735SOL     OW14956   1.950   3.663   4.651
 4735SOL    HW114957   1.908   3.577   4.624
 4735SOL    HW214958   2.044   3.666   4.617
 4736SOL     OW14959   2.366   3.430   4.634
 4736SOL    HW114960   2.432   3.504   4.643
 4736SOL    HW214961   2.410   3.351   4.592
 4737SOL     OW14962   1.902   2.406   4.838
 4737SOL    HW114963   1.987   2.373   4.797
 4737SOL    HW214964   1.915   2.421   4.936
 4738SOL     OW14965   3.231   2.812   5.384
 4738SOL    HW114966   3.270   2.901   5.404
 4738SOL    HW214967   3.241   2.792   5.287
 4739SOL     OW14968   2.677   2.434   4.049
 4739SOL    HW114969   2.684   2.345   4.003
 4739SOL    HW214970   2.583   2.468   4.041
 4740SOL     OW14971   3.519   2.466   4.930
 4740SOL    HW114972   3.481   2.397   4.992
 4740SOL    HW214973   3.601   2.430   4.886
 4741SOL     OW14974   2.114   3.426   5.468
 4741SOL    HW114975   2.084   3.483   5.544
 4741SOL    HW214976   2.107   3.329   5.494
 4742SOL     OW14977   2.792   3.540   5.189
 4742SOL    HW114978   2.768   3.522   5.094
 4742SOL    HW214979   2.822   3.634   5.199
 4743SOL     OW14980   3.209   2.921   4.958
 4743SOL    HW114981   3.233   2.858   4.884
 4743SOL    HW214982   3.119   2.961   4.940
 4744SOL     OW14983   3.164   2.717   4.033
 4744SOL    HW114984   3.078   2.686   4.075
 4744SOL    HW214985   3.160   2.703   3.934
 4745SOL     OW14986   3.621   3.609   4.878
 4745SOL    HW114987   3.682   3.639   4.805
 4745SOL    HW214988   3.583   3.520   4.856
 4746SOL     OW14989   3.114   3.593   4.852
 4746SOL    HW114990   3.198   3.598   4.798
 4746SOL    HW214991   3.091   3.497   4.870
 4747SOL     OW14992   1.945   3.120   4.746
 4747SOL    HW114993   1.940   3.119   4.846
 4747SOL    HW214994   1.862   3.079   4.708
 4748SOL     OW14995   2.550   3.524   5.440
 4748SOL    HW114996   2.494   3.605   5.449
 4748SOL    HW214997   2.602   3.528   5.354
 4749SOL     OW14998   3.588   1.997   4.247
 4749SOL    HW114999   3.661   1.980   4.180
 4749SOL    HW215000   3.557   1.910   4.285
 4750SOL     OW15001   3.250   3.435   4.201
 4750SOL    HW115002   3.317   3.447   4.127
 4750SOL    HW215003   3.210   3.524   4.224
 4751SOL     OW15004   1.992   3.656   5.575
 4751SOL    HW115005   1.951   3.582   5.628
 4751SOL    HW215006   2.056   3.707   5.633
 4752SOL     OW15007   3.142   2.789   4.396
 4752SOL    HW115008   3.202   2.708   4.398
 4752SOL    HW215009   3.182   2.858   4.336
 4753SOL     OW15010   2.692   3.135   5.146
 4753SOL    HW115011   2.687   3.168   5.241
 4753SOL    HW215012   2.606   3.154   5.100
 4754SOL     OW15013   2.534   3.478   3.878
 4754SOL    HW115014   2.543   3.488   3.779
 4754SOL    HW215015   2.494   3.389   3.899
 4755SOL     OW15016   3.512   3.582   5.118
 4755SOL    HW115017   3.565   3.592   5.034
 4755SOL    HW215018   3.485   3.672   5.152
 4756SOL     OW15019   3.703   2.037   4.687
 4756SOL    HW115020   3.742   1.952   4.651
 4756SOL    HW215021   3.605   2.039   4.668
 4757SOL     OW15022   3.056   3.474   3.755
 4757SOL    HW115023   3.062   3.381   3.792
 4757SOL    HW215024   2.997   3.474   3.675
 4758SOL     OW15025   2.778   2.772   4.015
 4758SOL    HW115026   2.841   2.810   3.947
 4758SOL    HW215027   2.818   2.689   4.054
 4759SOL     OW15028   3.366   3.469   3.768
 4759SOL    HW115029   3.274   3.506   3.775
 4759SOL    HW215030   3.404   3.489   3.678
 4760SOL     OW15031   2.234   3.150   5.214
 4760SOL    HW115032   2.221   3.243   5.180
 4760SOL    HW215033   2.150   3.098   5.201
 4761SOL     OW15034   3.476   3.154   5.013
 4761SOL    HW115035   3.536   3.157   5.093
 4761SOL    HW215036   3.401   3.218   5.026
 4762SOL     OW15037   2.901   2.960   4.420
 4762SOL    HW115038   2.831   2.913   4.474
 4762SOL    HW215039   2.960   2.892   4.377
 4763SOL     OW15040   2.452   3.349   4.215
 4763SOL    HW115041   2.494   3.291   4.145
 4763SOL    HW215042   2.408   3.428   4.171
 4764SOL     OW15043   3.571   2.247   5.105
 4764SOL    HW115044   3.644   2.316   5.109
 4764SOL    HW215045   3.599   2.172   5.046
 4765SOL     OW15046   2.117   3.210   4.014
 4765SOL    HW115047   2.021   3.211   3.987
 4765SOL    HW215048   2.129   3.263   4.098
 4766SOL     OW15049   1.967   2.875   5.450
 4766SOL    HW115050   1.890   2.842   5.504
 4766SOL    HW215051   2.052   2.845   5.492
 4767SOL     OW15052   2.534   2.065   5.213
 4767SOL    HW115053   2.624   2.049   5.173
 4767SOL    HW215054   2.542   2.070   5.312
 4768SOL     OW15055   1.937   2.207   3.757
 4768SOL    HW115056   1.845   2.179   3.728
 4768SOL    HW215057   1.968   2.284   3.701
 4769SOL     OW15058   3.302   2.718   5.122
 4769SOL    HW115059   3.245   2.770   5.059
 4769SOL    HW215060   3.398   2.730   5.098
 4770SOL     OW15061   3.045   3.197   3.843
 4770SOL    HW115062   2.946   3.186   3.845
 4770SOL    HW215063   3.079   3.212   3.936
 4771SOL     OW15064   3.355   3.629   4.683
 4771SOL    HW115065   3.388   3.693   4.614
 4771SOL    HW215066   3.421   3.623   4.758
 4772SOL     OW15067   3.312   3.082   5.357
 4772SOL    HW115068   3.303   3.072   5.456
 4772SOL    HW215069   3.408   3.075   5.331
 4773SOL     OW15070   2.252   3.603   5.284
 4773SOL    HW115071   2.161   3.644   5.282
 4773SOL    HW215072   2.245   3.509   5.316
 4774SOL     OW15073   3.536   2.745   4.978
 4774SOL    HW115074   3.509   2.656   4.941
 4774SOL    HW215075   3.537   2.813   4.905
 4775SOL     OW15076   3.087   2.187   4.173
 4775SOL    HW115077   3.152   2.113   4.162
 4775SOL    HW215078   3.107   2.237   4.257
 4776SOL     OW15079   2.456   2.607   4.376
 4776SOL    HW115080   2.506   2.692   4.357
 4776SOL    HW215081   2.368   2.609   4.328
 4777SOL     OW15082   3.639   2.204   5.366
 4777SOL    HW115083   3.622   2.235   5.272
 4777SOL    HW215084   3.555   2.167   5.404
 4778SOL     OW15085   3.592   2.796   5.241
 4778SOL    HW115086   3.630   2.887   5.256
 4778SOL    HW215087   3.584   2.779   5.142
 4779SOL     OW15088   2.721   3.236   3.740
 4779SOL    HW115089   2.675   3.251   3.828
 4779SOL    HW215090   2.765   3.321   3.710
 4780SOL     OW15091   2.523   3.652   4.677
 4780SOL    HW115092   2.477   3.740   4.664
 4780SOL    HW215093   2.622   3.664   4.670
 4781SOL     OW15094   2.945   2.846   3.811
 4781SOL    HW115095   2.922   2.899   3.729
 4781SOL    HW215096   3.026   2.790   3.792
 4782SOL     OW15097   3.723   3.431   4.575
 4782SOL    HW115098   3.652   3.419   4.505
 4782SOL    HW215099   3.724   3.352   4.635
 4783SOL     OW15100   2.083   3.176   5.568
 4783SOL    HW115101   2.018   3.103   5.547
 4783SOL    HW215102   2.087   3.190   5.666
 4784SOL     OW15103   1.941   3.102   4.377
 4784SOL    HW115104   1.940   3.055   4.465
 4784SOL    HW215105   2.023   3.074   4.326
 4785SOL     OW15106   2.534   3.253   5.348
 4785SOL    HW115107   2.456   3.203   5.386
 4785SOL    HW215108   2.531   3.348   5.379
 4786SOL     OW15109   3.686   2.054   4.951
 4786SOL    HW115110   3.682   1.964   4.995
 4786SOL    HW215111   3.689   2.043   4.852
 4787SOL     OW15112   3.567   3.349   4.828
 4787SOL    HW115113   3.474   3.324   4.801
 4787SOL    HW215114   3.593   3.299   4.910
 4788SOL     OW15115   2.674   3.448   4.411
 4788SOL    HW115116   2.706   3.458   4.317
 4788SOL    HW215117   2.595   3.386   4.413
 4789SOL     OW15118   3.286   2.076   4.836
 4789SOL    HW115119   3.338   2.011   4.891
 4789SOL    HW215120   3.237   2.139   4.897
 4790SOL     OW15121   2.632   3.192   4.025
 4790SOL    HW115122   2.586   3.105   4.042
 4790SOL    HW215123   2.723   3.189   4.066
 4791SOL     OW15124   2.480   3.429   5.008
 4791SOL    HW115125   2.475   3.511   5.065
 4791SOL    HW215126   2.569   3.426   4.963
 4792SOL     OW15127   3.214   1.914   3.892
 4792SOL    HW115128   3.249   1.873   3.808
 4792SOL    HW215129   3.124   1.876   3.912
 4793SOL     OW15130   3.162   2.315   4.415
 4793SOL    HW115131   3.103   2.395   4.419
 4793SOL    HW215132   3.177   2.280   4.508
 4794SOL     OW15133   3.455   2.083   4.606
 4794SOL    HW115134   3.371   2.082   4.660
 4794SOL    HW215135   3.457   2.166   4.550
 4795SOL     OW15136   1.901   2.939   4.024
 4795SOL    HW115137   2.000   2.928   4.015
 4795SOL    HW215138   1.861   2.853   4.056
 4796SOL     OW15139   2.737   3.508   4.061
 4796SOL    HW115140   2.660   3.473   4.007
 4796SOL    HW215141   2.705   3.579   4.123
 4797SOL     OW15142   2.092   2.490   5.699
 4797SOL    HW115143   1.999   2.488   5.736
 4797SOL    HW215144   2.093   2.451   5.607
 4798SOL     OW15145   2.431   3.137   6.751
 4798SOL    HW115146   2.338   3.130   6.714
 4798SOL    HW215147   2.442   3.226   6.795
 4799SOL     OW15148   3.417   3.373   6.289
 4799SOL    HW115149   3.360   3.357   6.370
 4799SOL    HW215150   3.358   3.383   6.209
 4800SOL     OW15151   3.617   2.469   5.817
 4800SOL    HW115152   3.605   2.456   5.718
 4800SOL    HW215153   3.587   2.388   5.866
 4801SOL     OW15154   2.630   3.006   6.609
 4801SOL    HW115155   2.552   3.023   6.669
 4801SOL    HW215156   2.664   3.093   6.573
 4802SOL     OW15157   2.712   2.660   7.409
 4802SOL    HW115158   2.708   2.736   7.474
 4802SOL    HW215159   2.734   2.696   7.318
 4803SOL     OW15160   2.548   3.023   7.389
 4803SOL    HW115161   2.608   3.102   7.403
 4803SOL    HW215162   2.462   3.054   7.348
 4804SOL     OW15163   2.197   3.297   6.647
 4804SOL    HW115164   2.119   3.266   6.594
 4804SOL    HW215165   2.255   3.355   6.590
 4805SOL     OW15166   3.322   3.367   6.925
 4805SOL    HW115167   3.346   3.461   6.951
 4805SOL    HW215168   3.306   3.313   7.007
 4806SOL     OW15169   3.465   2.309   6.323
 4806SOL    HW115170   3.391   2.355   6.273
 4806SOL    HW215171   3.516   2.377   6.376
 4807SOL     OW15172   2.093   3.575   6.069
 4807SOL    HW115173   2.127   3.652   6.123
 4807SOL    HW215174   2.137   3.575   5.979
 4808SOL     OW15175   2.989   3.203   7.276
 4808SOL    HW115176   3.036   3.203   7.364
 4808SOL    HW215177   2.941   3.116   7.265
 4809SOL     OW15178   2.092   3.296   6.124
 4809SOL    HW115179   2.066   3.392   6.124
 4809SOL    HW215180   2.021   3.242   6.169
 4810SOL     OW15181   2.102   2.953   6.472
 4810SOL    HW115182   2.116   2.869   6.524
 4810SOL    HW215183   2.047   3.017   6.527
 4811SOL     OW15184   2.482   3.648   7.025
 4811SOL    HW115185   2.390   3.631   7.060
 4811SOL    HW215186   2.510   3.740   7.051
 4812SOL     OW15187   3.456   1.976   7.066
 4812SOL    HW115188   3.438   2.043   6.994
 4812SOL    HW215189   3.453   2.022   7.155
 4813SOL     OW15190   1.984   2.505   6.149
 4813SOL    HW115191   1.939   2.417   6.166
 4813SOL    HW215192   1.983   2.559   6.233
 4814SOL     OW15193   3.704   3.629   5.945
 4814SOL    HW115194   3.758   3.600   6.025
 4814SOL    HW215195   3.734   3.719   5.916
 4815SOL     OW15196   1.889   3.458   5.703
 4815SOL    HW115197   1.870   3.362   5.724
 4815SOL    HW215198   1.856   3.516   5.778
 4816SOL     OW15199   3.551   2.784   6.198
 4816SOL    HW115200   3.646   2.755   6.206
 4816SOL    HW215201   3.543   2.849   6.123
 4817SOL     OW15202   3.503   2.970   6.018
 4817SOL    HW115203   3.589   2.972   5.966
 4817SOL    HW215204   3.517   3.017   6.106
 4818SOL     OW15205   1.975   2.599   7.183
 4818SOL    HW115206   2.063   2.586   7.228
 4818SOL    HW215207   1.962   2.696   7.161
 4819SOL     OW15208   2.475   3.227   6.312
 4819SOL    HW115209   2.426   3.140   6.321
 4819SOL    HW215210   2.452   3.270   6.225
 4820SOL     OW15211   3.155   3.090   7.009
 4820SOL    HW115212   3.192   3.017   6.951
 4820SOL    HW215213   3.207   3.095   7.094
 4821SOL     OW15214   2.059   2.838   6.850
 4821SOL    HW115215   2.148   2.793   6.836
 4821SOL    HW215216   1.986   2.773   6.831
 4822SOL     OW15217   3.387   2.861   5.776
 4822SOL    HW115218   3.324   2.785   5.789
 4822SOL    HW215219   3.435   2.879   5.862
 4823SOL     OW15220   3.049   3.654   7.202
 4823SOL    HW115221   3.073   3.714   7.126
 4823SOL    HW215222   3.056   3.559   7.172
 4824SOL     OW15223   3.328   3.279   6.539
 4824SOL    HW115224   3.269   3.285   6.619
 4824SOL    HW215225   3.313   3.191   6.493
 4825SOL     OW15226   3.529   3.576   6.158
 4825SOL    HW115227   3.488   3.553   6.070
 4825SOL    HW215228   3.511   3.502   6.223
 4826SOL     OW15229   2.460   2.591   5.856
 4826SOL    HW115230   2.484   2.660   5.788
 4826SOL    HW215231   2.382   2.624   5.910
 4827SOL     OW15232   3.143   2.207   6.530
 4827SOL    HW115233   3.057   2.157   6.517
 4827SOL    HW215234   3.205   2.153   6.586
 4828SOL     OW15235   3.438   3.524   5.893
 4828SOL    HW115236   3.527   3.570   5.896
 4828SOL    HW215237   3.417   3.500   5.798
 4829SOL     OW15238   3.256   2.331   7.260
 4829SOL    HW115239   3.236   2.374   7.348
 4829SOL    HW215240   3.334   2.269   7.269
 4830SOL     OW15241   2.835   2.752   7.158
 4830SOL    HW115242   2.881   2.668   7.129
 4830SOL    HW215243   2.779   2.786   7.083
 4831SOL     OW15244   2.853   2.272   6.828
 4831SOL    HW115245   2.776   2.306   6.882
 4831SOL    HW215246   2.819   2.221   6.749
 4832SOL     OW15247   1.992   3.683   7.157
 4832SOL    HW115248   1.982   3.668   7.256
 4832SOL    HW215249   1.906   3.719   7.121
 4833SOL     OW15250   2.727   2.210   5.781
 4833SOL    HW115251   2.786   2.273   5.732
 4833SOL    HW215252   2.746   2.116   5.752
 4834SOL     OW15253   3.581   2.447   7.417
 4834SOL    HW115254   3.555   2.536   7.381
 4834SOL    HW215255   3.579   2.379   7.344
 4835SOL     OW15256   3.224   3.006   6.131
 4835SOL    HW115257   3.307   2.977   6.083
 4835SOL    HW215258   3.175   3.073   6.075
 4836SOL     OW15259   2.870   3.318   6.063
 4836SOL    HW115260   2.824   3.390   6.011
 4836SOL    HW215261   2.866   3.338   6.161
 4837SOL     OW15262   2.213   3.663   6.439
 4837SOL    HW115263   2.263   3.577   6.445
 4837SOL    HW215264   2.278   3.740   6.436
 4838SOL     OW15265   3.657   2.928   6.459
 4838SOL    HW115266   3.595   2.913   6.383
 4838SOL    HW215267   3.605   2.939   6.544
 4839SOL     OW15268   3.089   3.412   7.092
 4839SOL    HW115269   3.095   3.335   7.156
 4839SOL    HW215270   3.037   3.386   7.012
 4840SOL     OW15271   2.183   2.805   5.828
 4840SOL    HW115272   2.265   2.844   5.786
 4840SOL    HW215273   2.156   2.723   5.779
 4841SOL     OW15274   3.320   2.597   6.314
 4841SOL    HW115275   3.315   2.532   6.389
 4841SOL    HW215276   3.400   2.656   6.327
 4842SOL     OW15277   2.323   3.128   7.313
 4842SOL    HW115278   2.273   3.129   7.227
 4842SOL    HW215279   2.260   3.110   7.389
 4843SOL     OW15280   2.973   3.638   5.823
 4843SOL    HW115281   2.913   3.576   5.873
 4843SOL    HW215282   3.004   3.594   5.738
 4844SOL     OW15283   3.494   3.239   5.667
 4844SOL    HW115284   3.462   3.333   5.657
 4844SOL    HW215285   3.418   3.176   5.655
 4845SOL     OW15286   2.326   3.605   5.909
 4845SOL    HW115287   2.359   3.644   5.995
 4845SOL    HW215288   2.402   3.598   5.844
 4846SOL     OW15289   3.262   1.969   6.012
 4846SOL    HW115290   3.238   1.932   5.922
 4846SOL    HW215291   3.361   1.985   6.016
 4847SOL     OW15292   2.111   3.647   6.827
 4847SOL    HW115293   2.168   3.582   6.877
 4847SOL    HW215294   2.095   3.614   6.734
 4848SOL     OW15295   2.802   3.560   6.490
 4848SOL    HW115296   2.882   3.503   6.511
 4848SOL    HW215297   2.753   3.520   6.413
 4849SOL     OW15298   3.409   2.084   7.315
 4849SOL    HW115299   3.404   2.121   7.407
 4849SOL    HW215300   3.337   2.015   7.303
 4850SOL     OW15301   2.476   1.984   5.703
 4850SOL    HW115302   2.574   1.962   5.710
 4850SOL    HW215303   2.445   1.967   5.610
 4851SOL     OW15304   2.643   2.126   7.335
 4851SOL    HW115305   2.710   2.065   7.378
 4851SOL    HW215306   2.570   2.145   7.400
 4852SOL     OW15307   2.750   3.376   6.781
 4852SOL    HW115308   2.727   3.351   6.687
 4852SOL    HW215309   2.811   3.307   6.820
 4853SOL     OW15310   3.213   2.452   7.019
 4853SOL    HW115311   3.241   2.409   7.104
 4853SOL    HW215312   3.238   2.548   7.020
 4854SOL     OW15313   2.665   3.264   6.510
 4854SOL    HW115314   2.755   3.278   6.468
 4854SOL    HW215315   2.594   3.266   6.439
 4855SOL     OW15316   3.296   3.050   5.627
 4855SOL    HW115317   3.328   2.974   5.684
 4855SOL    HW215318   3.204   3.077   5.657
 4856SOL     OW15319   2.938   2.545   7.050
 4856SOL    HW115320   2.858   2.484   7.053
 4856SOL    HW215321   3.019   2.492   7.026
 4857SOL     OW15322   3.089   3.432   6.379
 4857SOL    HW115323   3.110   3.506   6.314
 4857SOL    HW215324   3.157   3.432   6.452
 4858SOL     OW15325   3.133   3.659   6.177
 4858SOL    HW115326   3.177   3.723   6.113
 4858SOL    HW215327   3.083   3.711   6.247
 4859SOL     OW15328   1.940   2.418   6.972
 4859SOL    HW115329   2.032   2.417   6.931
 4859SOL    HW215330   1.934   2.492   7.039
 4860SOL     OW15331   3.291   3.035   6.453
 4860SOL    HW115332   3.236   2.951   6.446
 4860SOL    HW215333   3.317   3.064   6.361
 4861SOL     OW15334   3.328   2.452   6.578
 4861SOL    HW115335   3.298   2.357   6.585
 4861SOL    HW215336   3.401   2.468   6.644
 4862SOL     OW15337   3.719   2.695   5.963
 4862SOL    HW115338   3.761   2.631   6.027
 4862SOL    HW215339   3.681   2.644   5.885
 4863SOL     OW15340   2.350   3.247   5.760
 4863SOL    HW115341   2.263   3.232   5.807
 4863SOL    HW215342   2.333   3.273   5.665
 4864SOL     OW15343   3.526   3.142   6.243
 4864SOL    HW115344   3.625   3.150   6.257
 4864SOL    HW215345   3.481   3.226   6.274
 4865SOL     OW15346   3.252   2.437   5.664
 4865SOL    HW115347   3.198   2.416   5.745
 4865SOL    HW215348   3.343   2.396   5.673
 4866SOL     OW15349   3.616   3.085   7.174
 4866SOL    HW115350   3.707   3.046   7.161
 4866SOL    HW215351   3.624   3.181   7.198
 4867SOL     OW15352   2.926   3.209   6.926
 4867SOL    HW115353   2.846   3.186   6.981
 4867SOL    HW215354   3.009   3.183   6.975
 4868SOL     OW15355   3.454   3.491   7.211
 4868SOL    HW115356   3.481   3.525   7.121
 4868SOL    HW215357   3.533   3.453   7.257
 4869SOL     OW15358   2.973   3.057   6.686
 4869SOL    HW115359   2.933   3.101   6.767
 4869SOL    HW215360   2.932   3.094   6.603
 4870SOL     OW15361   3.500   2.961   6.665
 4870SOL    HW115362   3.505   3.042   6.724
 4870SOL    HW215363   3.414   2.963   6.614
 4871SOL     OW15364   2.777   1.951   6.988
 4871SOL    HW115365   2.802   1.931   6.893
 4871SOL    HW215366   2.849   2.007   7.030
 4872SOL     OW15367   2.842   2.978   7.305
 4872SOL    HW115368   2.743   2.984   7.315
 4872SOL    HW215369   2.865   2.898   7.249
 4873SOL     OW15370   2.272   2.675   6.837
 4873SOL    HW115371   2.358   2.687   6.887
 4873SOL    HW215372   2.230   2.588   6.864
 4874SOL     OW15373   3.136   2.248   6.848
 4874SOL    HW115374   3.157   2.322   6.912
 4874SOL    HW215375   3.047   2.265   6.805
 4875SOL     OW15376   1.926   3.426   6.917
 4875SOL    HW115377   1.880   3.508   6.883
 4875SOL    HW215378   2.024   3.445   6.926
 4876SOL     OW15379   3.114   3.210   5.974
 4876SOL    HW115380   3.164   3.287   6.014
 4876SOL    HW215381   3.019   3.212   6.006
 4877SOL     OW15382   3.134   3.307   6.728
 4877SOL    HW115383   3.181   3.320   6.815
 4877SOL    HW215384   3.068   3.233   6.737
 4878SOL     OW15385   3.444   2.501   6.058
 4878SOL    HW115386   3.413   2.562   6.131
 4878SOL    HW215387   3.494   2.553   5.989
 4879SOL     OW15388   2.216   3.372   6.915
 4879SOL    HW115389   2.195   3.328   6.828
 4879SOL    HW215390   2.313   3.398   6.918
 4880SOL     OW15391   3.449   2.641   7.256
 4880SOL    HW115392   3.357   2.679   7.251
 4880SOL    HW215393   3.509   2.688   7.191
 4881SOL     OW15394   2.875   1.967   7.356
 4881SOL    HW115395   2.881   2.052   7.304
 4881SOL    HW215396   2.907   1.891   7.299
 4882SOL     OW15397   2.366   1.912   7.326
 4882SOL    HW115398   2.324   1.855   7.256
 4882SOL    HW215399   2.300   1.981   7.358
 4883SOL     OW15400   2.435   2.732   6.615
 4883SOL    HW115401   2.479   2.821   6.606
 4883SOL    HW215402   2.372   2.732   6.692
 4884SOL     OW15403   3.222   2.724   6.631
 4884SOL    HW115404   3.147   2.724   6.565
 4884SOL    HW215405   3.259   2.632   6.640
 4885SOL     OW15406   1.899   3.172   6.868
 4885SOL    HW115407   1.952   3.123   6.936
 4885SOL    HW215408   1.921   3.270   6.873
 4886SOL     OW15409   2.594   2.496   6.650
 4886SOL    HW115410   2.653   2.470   6.574
 4886SOL    HW215411   2.566   2.592   6.639
 4887SOL     OW15412   3.590   2.797   7.440
 4887SOL    HW115413   3.544   2.790   7.351
 4887SOL    HW215414   3.528   2.841   7.506
 4888SOL     OW15415   3.484   2.229   5.960
 4888SOL    HW115416   3.486   2.153   6.024
 4888SOL    HW215417   3.436   2.306   6.000
 4889SOL     OW15418   2.885   2.628   6.552
 4889SOL    HW115419   2.900   2.649   6.648
 4889SOL    HW215420   2.855   2.533   6.543
 4890SOL     OW15421   2.842   3.435   7.286
 4890SOL    HW115422   2.822   3.479   7.198
 4890SOL    HW215423   2.881   3.344   7.270
 4891SOL     OW15424   3.721   3.380   7.191
 4891SOL    HW115425   3.735   3.407   7.096
 4891SOL    HW215426   3.804   3.402   7.244
 4892SOL     OW15427   2.212   2.760   7.390
 4892SOL    HW115428   2.288   2.804   7.438
 4892SOL    HW215429   2.247   2.713   7.308
 4893SOL     OW15430   3.402   2.136   5.711
 4893SOL    HW115431   3.341   2.061   5.734
 4893SOL    HW215432   3.424   2.188   5.794
 4894SOL     OW15433   3.165   2.700   5.628
 4894SOL    HW115434   3.199   2.607   5.643
 4894SOL    HW215435   3.183   2.727   5.533
 4895SOL     OW15436   2.930   3.195   6.435
 4895SOL    HW115437   2.937   3.111   6.380
 4895SOL    HW215438   2.992   3.264   6.399
 4896SOL     OW15439   3.000   2.242   7.264
 4896SOL    HW115440   2.955   2.305   7.328
 4896SOL    HW215441   3.093   2.273   7.247
 4897SOL     OW15442   3.022   2.069   7.063
 4897SOL    HW115443   3.022   2.133   7.140
 4897SOL    HW215444   3.050   2.117   6.980
 4898SOL     OW15445   1.870   3.188   5.786
 4898SOL    HW115446   1.777   3.209   5.755
 4898SOL    HW215447   1.880   3.089   5.799
 4899SOL     OW15448   1.950   3.663   6.513
 4899SOL    HW115449   1.908   3.577   6.486
 4899SOL    HW215450   2.044   3.666   6.479
 4900SOL     OW15451   2.366   3.430   6.496
 4900SOL    HW115452   2.432   3.504   6.505
 4900SOL    HW215453   2.410   3.351   6.454
 4901SOL     OW15454   2.864   2.658   6.824
 4901SOL    HW115455   2.905   2.626   6.910
 4901SOL    HW215456   2.768   2.631   6.821
 4902SOL     OW15457   1.902   2.406   6.700
 4902SOL    HW115458   1.987   2.373   6.659
 4902SOL    HW215459   1.915   2.421   6.798
 4903SOL     OW15460   3.231   2.812   7.246
 4903SOL    HW115461   3.270   2.901   7.266
 4903SOL    HW215462   3.241   2.792   7.149
 4904SOL     OW15463   3.519   2.466   6.792
 4904SOL    HW115464   3.481   2.397   6.854
 4904SOL    HW215465   3.601   2.430   6.748
 4905SOL     OW15466   2.114   3.426   7.330
 4905SOL    HW115467   2.084   3.483   7.406
 4905SOL    HW215468   2.107   3.329   7.356
 4906SOL     OW15469   2.792   3.540   7.051
 4906SOL    HW115470   2.768   3.522   6.956
 4906SOL    HW215471   2.822   3.634   7.061
 4907SOL     OW15472   2.021   2.999   7.052
 4907SOL    HW115473   2.043   2.938   7.128
 4907SOL    HW215474   2.031   2.950   6.966
 4908SOL     OW15475   3.209   2.921   6.820
 4908SOL    HW115476   3.233   2.858   6.746
 4908SOL    HW215477   3.119   2.961   6.802
 4909SOL     OW15478   3.164   2.717   5.895
 4909SOL    HW115479   3.078   2.686   5.937
 4909SOL    HW215480   3.160   2.703   5.796
 4910SOL     OW15481   3.621   3.609   6.740
 4910SOL    HW115482   3.682   3.639   6.667
 4910SOL    HW215483   3.583   3.520   6.718
 4911SOL     OW15484   3.114   3.593   6.714
 4911SOL    HW115485   3.198   3.598   6.660
 4911SOL    HW215486   3.091   3.497   6.732
 4912SOL     OW15487   1.945   3.120   6.608
 4912SOL    HW115488   1.940   3.119   6.708
 4912SOL    HW215489   1.862   3.079   6.570
 4913SOL     OW15490   2.550   3.524   7.302
 4913SOL    HW115491   2.494   3.605   7.311
 4913SOL    HW215492   2.602   3.528   7.216
 4914SOL     OW15493   3.588   1.997   6.109
 4914SOL    HW115494   3.661   1.980   6.042
 4914SOL    HW215495   3.557   1.910   6.147
 4915SOL     OW15496   3.250   3.435   6.063
 4915SOL    HW115497   3.317   3.447   5.989
 4915SOL    HW215498   3.210   3.524   6.086
 4916SOL     OW15499   1.992   3.656   7.437
 4916SOL    HW115500   1.951   3.582   7.490
 4916SOL    HW215501   2.056   3.707   7.495
 4917SOL     OW15502   3.142   2.789   6.258
 4917SOL    HW115503   3.202   2.708   6.260
 4917SOL    HW215504   3.182   2.858   6.198
 4918SOL     OW15505   2.692   3.135   7.008
 4918SOL    HW115506   2.687   3.168   7.103
 4918SOL    HW215507   2.606   3.154   6.962
 4919SOL     OW15508   2.534   3.478   5.740
 4919SOL    HW115509   2.543   3.488   5.641
 4919SOL    HW215510   2.494   3.389   5.761
 4920SOL     OW15511   3.512   3.582   6.980
 4920SOL    HW115512   3.565   3.592   6.896
 4920SOL    HW215513   3.485   3.672   7.014
 4921SOL     OW15514   3.703   2.037   6.549
 4921SOL    HW115515   3.742   1.952   6.513
 4921SOL    HW215516   3.605   2.039   6.530
 4922SOL     OW15517   3.056   3.474   5.617
 4922SOL    HW115518   3.062   3.381   5.654
 4922SOL    HW215519   2.997   3.474   5.537
 4923SOL     OW15520   2.684   2.864   6.958
 4923SOL    HW115521   2.724   2.863   6.866
 4923SOL    HW215522   2.694   2.956   6.998
 4924SOL     OW15523   3.366   3.469   5.630
 4924SOL    HW115524   3.274   3.506   5.637
 4924SOL    HW215525   3.404   3.489   5.540
 4925SOL     OW15526   2.234   3.150   7.076
 4925SOL    HW115527   2.221   3.243   7.042
 4925SOL    HW215528   2.150   3.098   7.063
 4926SOL     OW15529   3.476   3.154   6.875
 4926SOL    HW115530   3.536   3.157   6.955
 4926SOL    HW215531   3.401   3.218   6.888
 4927SOL     OW15532   2.901   2.960   6.282
 4927SOL    HW115533   2.831   2.913   6.336
 4927SOL    HW215534   2.960   2.892   6.239
 4928SOL     OW15535   2.452   3.349   6.077
 4928SOL    HW115536   2.494   3.291   6.007
 4928SOL    HW215537   2.408   3.428   6.033
 4929SOL     OW15538   3.571   2.247   6.967
 4929SOL    HW115539   3.644   2.316   6.971
 4929SOL    HW215540   3.599   2.172   6.908
 4930SOL     OW15541   2.117   3.210   5.876
 4930SOL    HW115542   2.021   3.211   5.849
 4930SOL    HW215543   2.129   3.263   5.960
 4931SOL     OW15544   1.967   2.875   7.312
 4931SOL    HW115545   1.890   2.842   7.366
 4931SOL    HW215546   2.052   2.845   7.354
 4932SOL     OW15547   2.534   2.065   7.075
 4932SOL    HW115548   2.624   2.049   7.035
 4932SOL    HW215549   2.542   2.070   7.174
 4933SOL     OW15550   3.302   2.718   6.984
 4933SOL    HW115551   3.245   2.770   6.921
 4933SOL    HW215552   3.398   2.730   6.960
 4934SOL     OW15553   1.934   2.028   5.904
 4934SOL    HW115554   1.917   2.111   5.850
 4934SOL    HW215555   2.024   1.991   5.882
 4935SOL     OW15556   3.045   3.197   5.705
 4935SOL    HW115557   2.946   3.186   5.707
 4935SOL    HW215558   3.079   3.212   5.798
 4936SOL     OW15559   2.475   2.704   7.017
 4936SOL    HW115560   2.531   2.785   7.000
 4936SOL    HW215561   2.534   2.624   7.020
 4937SOL     OW15562   3.355   3.629   6.545
 4937SOL    HW115563   3.388   3.693   6.476
 4937SOL    HW215564   3.421   3.623   6.620
 4938SOL     OW15565   3.312   3.082   7.219
 4938SOL    HW115566   3.303   3.072   7.318
 4938SOL    HW215567   3.408   3.075   7.193
 4939SOL     OW15568   2.252   3.603   7.146
 4939SOL    HW115569   2.161   3.644   7.144
 4939SOL    HW215570   2.245   3.509   7.178
 4940SOL     OW15571   3.536   2.745   6.840
 4940SOL    HW115572   3.509   2.656   6.803
 4940SOL    HW215573   3.537   2.813   6.767
 4941SOL     OW15574   3.639   2.204   7.228
 4941SOL    HW115575   3.622   2.235   7.134
 4941SOL    HW215576   3.555   2.167   7.266
 4942SOL     OW15577   3.592   2.796   7.103
 4942SOL    HW115578   3.630   2.887   7.118
 4942SOL    HW215579   3.584   2.779   7.004
 4943SOL     OW15580   2.721   3.236   5.602
 4943SOL    HW115581   2.675   3.251   5.690
 4943SOL    HW215582   2.765   3.321   5.572
 4944SOL     OW15583   2.523   3.652   6.539
 4944SOL    HW115584   2.477   3.740   6.526
 4944SOL    HW215585   2.622   3.664   6.532
 4945SOL     OW15586   2.945   2.846   5.673
 4945SOL    HW115587   2.922   2.899   5.591
 4945SOL    HW215588   3.026   2.790   5.654
 4946SOL     OW15589   3.723   3.431   6.437
 4946SOL    HW115590   3.652   3.419   6.367
 4946SOL    HW215591   3.724   3.352   6.497
 4947SOL     OW15592   2.083   3.176   7.430
 4947SOL    HW115593   2.018   3.103   7.409
 4947SOL    HW215594   2.087   3.190   7.528
 4948SOL     OW15595   2.534   3.253   7.210
 4948SOL    HW115596   2.456   3.203   7.248
 4948SOL    HW215597   2.531   3.348   7.241
 4949SOL     OW15598   3.686   2.054   6.813
 4949SOL    HW115599   3.682   1.964   6.857
 4949SOL    HW215600   3.689   2.043   6.714
 4950SOL     OW15601   3.567   3.349   6.690
 4950SOL    HW115602   3.474   3.324   6.663
 4950SOL    HW215603   3.593   3.299   6.772
 4951SOL     OW15604   2.674   3.448   6.273
 4951SOL    HW115605   2.706   3.458   6.179
 4951SOL    HW215606   2.595   3.386   6.275
 4952SOL     OW15607   3.286   2.076   6.698
 4952SOL    HW115608   3.338   2.011   6.753
 4952SOL    HW215609   3.237   2.139   6.759
 4953SOL     OW15610   2.863   1.896   6.740
 4953SOL    HW115611   2.800   1.824   6.709
 4953SOL    HW215612   2.956   1.860   6.740
 4954SOL     OW15613   2.632   3.192   5.887
 4954SOL    HW115614   2.586   3.105   5.904
 4954SOL    HW215615   2.723   3.189   5.928
 4955SOL     OW15616   2.480   3.429   6.870
 4955SOL    HW115617   2.475   3.511   6.927
 4955SOL    HW215618   2.569   3.426   6.825
 4956SOL     OW15619   3.214   1.914   5.754
 4956SOL    HW115620   3.249   1.873   5.670
 4956SOL    HW215621   3.124   1.876   5.774
 4957SOL     OW15622   3.162   2.315   6.277
 4957SOL    HW115623   3.103   2.395   6.281
 4957SOL    HW215624   3.177   2.280   6.370
 4958SOL     OW15625   3.455   2.083   6.468
 4958SOL    HW115626   3.371   2.082   6.522
 4958SOL    HW215627   3.457   2.166   6.412
 4959SOL     OW15628   2.737   3.508   5.923
 4959SOL    HW115629   2.660   3.473   5.869
 4959SOL    HW215630   2.705   3.579   5.985
 4960SOL     OW15631   2.092   2.490   7.561
 4960SOL    HW115632   1.999   2.488   7.598
 4960SOL    HW215633   2.093   2.451   7.469
 4961SOL     OW15634   1.881   2.230   8.095
 4961SOL    HW115635   1.799   2.273   8.134
 4961SOL    HW215636   1.853   2.157   8.032
 4962SOL     OW15637   2.431   3.137   8.613
 4962SOL    HW115638   2.338   3.130   8.576
 4962SOL    HW215639   2.442   3.226   8.657
 4963SOL     OW15640   3.417   3.373   8.151
 4963SOL    HW115641   3.360   3.357   8.232
 4963SOL    HW215642   3.358   3.383   8.071
 4964SOL     OW15643   2.997   2.565   8.165
 4964SOL    HW115644   3.054   2.643   8.140
 4964SOL    HW215645   2.937   2.591   8.241
 4965SOL     OW15646   3.617   2.469   7.679
 4965SOL    HW115647   3.605   2.456   7.580
 4965SOL    HW215648   3.587   2.388   7.728
 4966SOL     OW15649   2.630   3.006   8.471
 4966SOL    HW115650   2.552   3.023   8.531
 4966SOL    HW215651   2.664   3.093   8.435
 4967SOL     OW15652   2.712   2.660   9.271
 4967SOL    HW115653   2.708   2.736   9.336
 4967SOL    HW215654   2.734   2.696   9.180
 4968SOL     OW15655   2.547   2.874   8.113
 4968SOL    HW115656   2.616   2.858   8.183
 4968SOL    HW215657   2.474   2.931   8.151
 4969SOL     OW15658   2.548   3.023   9.251
 4969SOL    HW115659   2.608   3.102   9.265
 4969SOL    HW215660   2.462   3.054   9.210
 4970SOL     OW15661   2.197   3.297   8.509
 4970SOL    HW115662   2.119   3.266   8.456
 4970SOL    HW215663   2.255   3.355   8.452
 4971SOL     OW15664   3.322   3.367   8.787
 4971SOL    HW115665   3.346   3.461   8.813
 4971SOL    HW215666   3.306   3.313   8.869
 4972SOL     OW15667   3.465   2.309   8.185
 4972SOL    HW115668   3.391   2.355   8.135
 4972SOL    HW215669   3.516   2.377   8.238
 4973SOL     OW15670   2.093   3.575   7.931
 4973SOL    HW115671   2.127   3.652   7.985
 4973SOL    HW215672   2.137   3.575   7.841
 4974SOL     OW15673   2.989   3.203   9.138
 4974SOL    HW115674   3.036   3.203   9.226
 4974SOL    HW215675   2.941   3.116   9.127
 4975SOL     OW15676   2.092   3.296   7.986
 4975SOL    HW115677   2.066   3.392   7.986
 4975SOL    HW215678   2.021   3.242   8.031
 4976SOL     OW15679   2.102   2.953   8.334
 4976SOL    HW115680   2.116   2.869   8.386
 4976SOL    HW215681   2.047   3.017   8.389
 4977SOL     OW15682   2.482   3.648   8.887
 4977SOL    HW115683   2.390   3.631   8.922
 4977SOL    HW215684   2.510   3.740   8.913
 4978SOL     OW15685   2.468   2.826   7.571
 4978SOL    HW115686   2.475   2.910   7.517
 4978SOL    HW215687   2.514   2.839   7.659
 4979SOL     OW15688   3.456   1.976   8.928
 4979SOL    HW115689   3.438   2.043   8.856
 4979SOL    HW215690   3.453   2.022   9.017
 4980SOL     OW15691   1.984   2.505   8.011
 4980SOL    HW115692   1.939   2.417   8.028
 4980SOL    HW215693   1.983   2.559   8.095
 4981SOL     OW15694   3.704   3.629   7.807
 4981SOL    HW115695   3.758   3.600   7.887
 4981SOL    HW215696   3.734   3.719   7.778
 4982SOL     OW15697   1.889   3.458   7.565
 4982SOL    HW115698   1.870   3.362   7.586
 4982SOL    HW215699   1.856   3.516   7.640
 4983SOL     OW15700   3.551   2.784   8.060
 4983SOL    HW115701   3.646   2.755   8.068
 4983SOL    HW215702   3.543   2.849   7.985
 4984SOL     OW15703   3.503   2.970   7.880
 4984SOL    HW115704   3.589   2.972   7.828
 4984SOL    HW215705   3.517   3.017   7.968
 4985SOL     OW15706   1.975   2.599   9.045
 4985SOL    HW115707   2.063   2.586   9.090
 4985SOL    HW215708   1.962   2.696   9.023
 4986SOL     OW15709   2.475   3.227   8.174
 4986SOL    HW115710   2.426   3.140   8.183
 4986SOL    HW215711   2.452   3.270   8.087
 4987SOL     OW15712   3.155   3.090   8.871
 4987SOL    HW115713   3.192   3.017   8.813
 4987SOL    HW215714   3.207   3.095   8.956
 4988SOL     OW15715   2.671   1.866   7.950
 4988SOL    HW115716   2.711   1.957   7.941
 4988SOL    HW215717   2.571   1.874   7.956
 4989SOL     OW15718   2.059   2.838   8.712
 4989SOL    HW115719   2.148   2.793   8.698
 4989SOL    HW215720   1.986   2.773   8.693
 4990SOL     OW15721   3.387   2.861   7.638
 4990SOL    HW115722   3.324   2.785   7.651
 4990SOL    HW215723   3.435   2.879   7.724
 4991SOL     OW15724   3.049   3.654   9.064
 4991SOL    HW115725   3.073   3.714   8.988
 4991SOL    HW215726   3.056   3.559   9.034
 4992SOL     OW15727   3.328   3.279   8.401
 4992SOL    HW115728   3.269   3.285   8.481
 4992SOL    HW215729   3.313   3.191   8.355
 4993SOL     OW15730   3.529   3.576   8.020
 4993SOL    HW115731   3.488   3.553   7.932
 4993SOL    HW215732   3.511   3.502   8.085
 4994SOL     OW15733   2.460   2.591   7.718
 4994SOL    HW115734   2.484   2.660   7.650
 4994SOL    HW215735   2.382   2.624   7.772
 4995SOL     OW15736   3.143   2.207   8.392
 4995SOL    HW115737   3.057   2.157   8.379
 4995SOL    HW215738   3.205   2.153   8.448
 4996SOL     OW15739   3.438   3.524   7.755
 4996SOL    HW115740   3.527   3.570   7.758
 4996SOL    HW215741   3.417   3.500   7.660
 4997SOL     OW15742   2.669   2.467   8.913
 4997SOL    HW115743   2.622   2.464   9.002
 4997SOL    HW215744   2.618   2.412   8.847
 4998SOL     OW15745   3.256   2.331   9.122
 4998SOL    HW115746   3.236   2.374   9.210
 4998SOL    HW215747   3.334   2.269   9.131
 4999SOL     OW15748   2.835   2.752   9.020
 4999SOL    HW115749   2.881   2.668   8.991
 4999SOL    HW215750   2.779   2.786   8.945
 5000SOL     OW15751   2.853   2.272   8.690
 5000SOL    HW115752   2.776   2.306   8.744
 5000SOL    HW215753   2.819   2.221   8.611
 5001SOL     OW15754   2.903   2.563   7.877
 5001SOL    HW115755   2.929   2.559   7.973
 5001SOL    HW215756   2.818   2.512   7.863
 5002SOL     OW15757   1.938   2.673   8.237
 5002SOL    HW115758   2.037   2.661   8.246
 5002SOL    HW215759   1.914   2.768   8.258
 5003SOL     OW15760   1.992   3.683   9.019
 5003SOL    HW115761   1.982   3.668   9.118
 5003SOL    HW215762   1.906   3.719   8.983
 5004SOL     OW15763   2.727   2.210   7.643
 5004SOL    HW115764   2.786   2.273   7.594
 5004SOL    HW215765   2.746   2.116   7.614
 5005SOL     OW15766   3.581   2.447   9.279
 5005SOL    HW115767   3.555   2.536   9.243
 5005SOL    HW215768   3.579   2.379   9.206
 5006SOL     OW15769   3.224   3.006   7.993
 5006SOL    HW115770   3.307   2.977   7.945
 5006SOL    HW215771   3.175   3.073   7.937
 5007SOL     OW15772   2.870   3.318   7.925
 5007SOL    HW115773   2.824   3.390   7.873
 5007SOL    HW215774   2.866   3.338   8.023
 5008SOL     OW15775   2.213   3.663   8.301
 5008SOL    HW115776   2.263   3.577   8.307
 5008SOL    HW215777   2.278   3.740   8.298
 5009SOL     OW15778   3.657   2.928   8.321
 5009SOL    HW115779   3.595   2.913   8.245
 5009SOL    HW215780   3.605   2.939   8.406
 5010SOL     OW15781   3.089   3.412   8.954
 5010SOL    HW115782   3.095   3.335   9.018
 5010SOL    HW215783   3.037   3.386   8.874
 5011SOL     OW15784   2.183   2.805   7.690
 5011SOL    HW115785   2.265   2.844   7.648
 5011SOL    HW215786   2.156   2.723   7.641
 5012SOL     OW15787   3.320   2.597   8.176
 5012SOL    HW115788   3.315   2.532   8.251
 5012SOL    HW215789   3.400   2.656   8.189
 5013SOL     OW15790   2.323   3.128   9.175
 5013SOL    HW115791   2.273   3.129   9.089
 5013SOL    HW215792   2.260   3.110   9.251
 5014SOL     OW15793   2.973   3.638   7.685
 5014SOL    HW115794   2.913   3.576   7.735
 5014SOL    HW215795   3.004   3.594   7.600
 5015SOL     OW15796   3.494   3.239   7.529
 5015SOL    HW115797   3.462   3.333   7.519
 5015SOL    HW215798   3.418   3.176   7.517
 5016SOL     OW15799   2.326   3.605   7.771
 5016SOL    HW115800   2.359   3.644   7.857
 5016SOL    HW215801   2.402   3.598   7.706
 5017SOL     OW15802   3.262   1.969   7.874
 5017SOL    HW115803   3.238   1.932   7.784
 5017SOL    HW215804   3.361   1.985   7.878
 5018SOL     OW15805   2.111   3.647   8.689
 5018SOL    HW115806   2.168   3.582   8.739
 5018SOL    HW215807   2.095   3.614   8.596
 5019SOL     OW15808   2.802   3.560   8.352
 5019SOL    HW115809   2.882   3.503   8.373
 5019SOL    HW215810   2.753   3.520   8.275
 5020SOL     OW15811   3.409   2.084   9.177
 5020SOL    HW115812   3.404   2.121   9.269
 5020SOL    HW215813   3.337   2.015   9.165
 5021SOL     OW15814   2.476   1.984   7.565
 5021SOL    HW115815   2.574   1.962   7.572
 5021SOL    HW215816   2.445   1.967   7.472
 5022SOL     OW15817   2.643   2.126   9.197
 5022SOL    HW115818   2.710   2.065   9.240
 5022SOL    HW215819   2.570   2.145   9.262
 5023SOL     OW15820   2.750   3.376   8.643
 5023SOL    HW115821   2.727   3.351   8.549
 5023SOL    HW215822   2.811   3.307   8.682
 5024SOL     OW15823   3.213   2.452   8.881
 5024SOL    HW115824   3.241   2.409   8.966
 5024SOL    HW215825   3.238   2.548   8.882
 5025SOL     OW15826   2.665   3.264   8.372
 5025SOL    HW115827   2.755   3.278   8.330
 5025SOL    HW215828   2.594   3.266   8.301
 5026SOL     OW15829   2.784   2.365   8.347
 5026SOL    HW115830   2.759   2.356   8.251
 5026SOL    HW215831   2.832   2.283   8.378
 5027SOL     OW15832   2.401   1.926   7.960
 5027SOL    HW115833   2.320   1.927   8.018
 5027SOL    HW215834   2.404   2.009   7.905
 5028SOL     OW15835   3.296   3.050   7.489
 5028SOL    HW115836   3.328   2.974   7.546
 5028SOL    HW215837   3.204   3.077   7.519
 5029SOL     OW15838   2.797   2.098   7.928
 5029SOL    HW115839   2.749   2.139   7.850
 5029SOL    HW215840   2.896   2.096   7.909
 5030SOL     OW15841   2.938   2.545   8.912
 5030SOL    HW115842   2.858   2.484   8.915
 5030SOL    HW215843   3.019   2.492   8.888
 5031SOL     OW15844   3.089   3.432   8.241
 5031SOL    HW115845   3.110   3.506   8.176
 5031SOL    HW215846   3.157   3.432   8.314
 5032SOL     OW15847   2.321   3.014   8.189
 5032SOL    HW115848   2.250   2.987   8.254
 5032SOL    HW215849   2.295   2.986   8.096
 5033SOL     OW15850   3.133   3.659   8.039
 5033SOL    HW115851   3.177   3.723   7.975
 5033SOL    HW215852   3.083   3.711   8.109
 5034SOL     OW15853   2.894   2.411   7.464
 5034SOL    HW115854   2.853   2.493   7.425
 5034SOL    HW215855   2.958   2.437   7.537
 5035SOL     OW15856   1.940   2.418   8.834
 5035SOL    HW115857   2.032   2.417   8.793
 5035SOL    HW215858   1.934   2.492   8.901
 5036SOL     OW15859   2.728   2.316   8.090
 5036SOL    HW115860   2.696   2.388   8.028
 5036SOL    HW215861   2.752   2.235   8.037
 5037SOL     OW15862   2.879   1.901   8.201
 5037SOL    HW115863   2.807   1.906   8.132
 5037SOL    HW215864   2.855   1.832   8.270
 5038SOL     OW15865   3.291   3.035   8.315
 5038SOL    HW115866   3.236   2.951   8.308
 5038SOL    HW215867   3.317   3.064   8.223
 5039SOL     OW15868   3.328   2.452   8.440
 5039SOL    HW115869   3.298   2.357   8.447
 5039SOL    HW215870   3.401   2.468   8.506
 5040SOL     OW15871   3.719   2.695   7.825
 5040SOL    HW115872   3.761   2.631   7.889
 5040SOL    HW215873   3.681   2.644   7.747
 5041SOL     OW15874   2.350   3.247   7.622
 5041SOL    HW115875   2.263   3.232   7.669
 5041SOL    HW215876   2.333   3.273   7.527
 5042SOL     OW15877   3.526   3.142   8.105
 5042SOL    HW115878   3.625   3.150   8.119
 5042SOL    HW215879   3.481   3.226   8.136
 5043SOL     OW15880   3.252   2.437   7.526
 5043SOL    HW115881   3.198   2.416   7.607
 5043SOL    HW215882   3.343   2.396   7.535
 5044SOL     OW15883   3.616   3.085   9.036
 5044SOL    HW115884   3.707   3.046   9.023
 5044SOL    HW215885   3.624   3.181   9.060
 5045SOL     OW15886   2.926   3.209   8.788
 5045SOL    HW115887   2.846   3.186   8.843
 5045SOL    HW215888   3.009   3.183   8.837
 5046SOL     OW15889   3.454   3.491   9.073
 5046SOL    HW115890   3.481   3.525   8.983
 5046SOL    HW215891   3.533   3.453   9.119
 5047SOL     OW15892   2.973   3.057   8.548
 5047SOL    HW115893   2.933   3.101   8.629
 5047SOL    HW215894   2.932   3.094   8.465
 5048SOL     OW15895   3.500   2.961   8.527
 5048SOL    HW115896   3.505   3.042   8.586
 5048SOL    HW215897   3.414   2.963   8.476
 5049SOL     OW15898   2.777   1.951   8.850
 5049SOL    HW115899   2.802   1.931   8.755
 5049SOL    HW215900   2.849   2.007   8.892
 5050SOL     OW15901   2.842   2.978   9.167
 5050SOL    HW115902   2.743   2.984   9.177
 5050SOL    HW215903   2.865   2.898   9.111
 5051SOL     OW15904   2.567   2.912   7.816
 5051SOL    HW115905   2.553   2.919   7.915
 5051SOL    HW215906   2.651   2.861   7.798
 5052SOL     OW15907   2.272   2.675   8.699
 5052SOL    HW115908   2.358   2.687   8.749
 5052SOL    HW215909   2.230   2.588   8.726
 5053SOL     OW15910   3.136   2.248   8.710
 5053SOL    HW115911   3.157   2.322   8.774
 5053SOL    HW215912   3.047   2.265   8.667
 5054SOL     OW15913   1.926   3.426   8.779
 5054SOL    HW115914   1.880   3.508   8.745
 5054SOL    HW215915   2.024   3.445   8.788
 5055SOL     OW15916   2.229   2.962   7.949
 5055SOL    HW115917   2.222   3.045   7.893
 5055SOL    HW215918   2.233   2.882   7.889
 5056SOL     OW15919   3.114   3.210   7.836
 5056SOL    HW115920   3.164   3.287   7.876
 5056SOL    HW215921   3.019   3.212   7.868
 5057SOL     OW15922   3.134   3.307   8.590
 5057SOL    HW115923   3.181   3.320   8.677
 5057SOL    HW215924   3.068   3.233   8.599
 5058SOL     OW15925   3.444   2.501   7.920
 5058SOL    HW115926   3.413   2.562   7.993
 5058SOL    HW215927   3.494   2.553   7.851
 5059SOL     OW15928   2.216   3.372   8.777
 5059SOL    HW115929   2.195   3.328   8.690
 5059SOL    HW215930   2.313   3.398   8.780
 5060SOL     OW15931   3.449   2.641   9.118
 5060SOL    HW115932   3.357   2.679   9.113
 5060SOL    HW215933   3.509   2.688   9.053
 5061SOL     OW15934   2.875   1.967   9.218
 5061SOL    HW115935   2.881   2.052   9.166
 5061SOL    HW215936   2.907   1.891   9.161
 5062SOL     OW15937   2.366   1.912   9.188
 5062SOL    HW115938   2.324   1.855   9.118
 5062SOL    HW215939   2.300   1.981   9.220
 5063SOL     OW15940   2.435   2.732   8.477
 5063SOL    HW115941   2.479   2.821   8.468
 5063SOL    HW215942   2.372   2.732   8.554
 5064SOL     OW15943   3.222   2.724   8.493
 5064SOL    HW115944   3.147   2.724   8.427
 5064SOL    HW215945   3.259   2.632   8.502
 5065SOL     OW15946   3.071   2.387   7.723
 5065SOL    HW115947   3.084   2.303   7.777
 5065SOL    HW215948   3.042   2.461   7.783
 5066SOL     OW15949   1.899   3.172   8.730
 5066SOL    HW115950   1.952   3.123   8.798
 5066SOL    HW215951   1.921   3.270   8.735
 5067SOL     OW15952   2.594   2.496   8.512
 5067SOL    HW115953   2.653   2.470   8.436
 5067SOL    HW215954   2.566   2.592   8.501
 5068SOL     OW15955   3.590   2.797   9.302
 5068SOL    HW115956   3.544   2.790   9.213
 5068SOL    HW215957   3.528   2.841   9.368
 5069SOL     OW15958   3.484   2.229   7.822
 5069SOL    HW115959   3.486   2.153   7.886
 5069SOL    HW215960   3.436   2.306   7.862
 5070SOL     OW15961   2.885   2.628   8.414
 5070SOL    HW115962   2.900   2.649   8.510
 5070SOL    HW215963   2.855   2.533   8.405
 5071SOL     OW15964   2.842   3.435   9.148
 5071SOL    HW115965   2.822   3.479   9.060
 5071SOL    HW215966   2.881   3.344   9.132
 5072SOL     OW15967   3.721   3.380   9.053
 5072SOL    HW115968   3.735   3.407   8.958
 5072SOL    HW215969   3.804   3.402   9.106
 5073SOL     OW15970   2.212   2.760   9.252
 5073SOL    HW115971   2.288   2.804   9.300
 5073SOL    HW215972   2.247   2.713   9.170
 5074SOL     OW15973   3.402   2.136   7.573
 5074SOL    HW115974   3.341   2.061   7.596
 5074SOL    HW215975   3.424   2.188   7.656
 5075SOL     OW15976   3.165   2.700   7.490
 5075SOL    HW115977   3.199   2.607   7.505
 5075SOL    HW215978   3.183   2.727   7.395
 5076SOL     OW15979   2.930   3.195   8.297
 5076SOL    HW115980   2.937   3.111   8.242
 5076SOL    HW215981   2.992   3.264   8.261
 5077SOL     OW15982   2.181   2.672   8.397
 5077SOL    HW115983   2.274   2.708   8.402
 5077SOL    HW215984   2.175   2.587   8.449
 5078SOL     OW15985   3.000   2.242   9.126
 5078SOL    HW115986   2.955   2.305   9.190
 5078SOL    HW215987   3.093   2.273   9.109
 5079SOL     OW15988   3.022   2.069   8.925
 5079SOL    HW115989   3.022   2.133   9.002
 5079SOL    HW215990   3.050   2.117   8.842
 5080SOL     OW15991   1.870   3.188   7.648
 5080SOL    HW115992   1.777   3.209   7.617
 5080SOL    HW215993   1.880   3.089   7.661
 5081SOL     OW15994   1.950   3.663   8.375
 5081SOL    HW115995   1.908   3.577   8.348
 5081SOL    HW215996   2.044   3.666   8.341
 5082SOL     OW15997   2.366   3.430   8.358
 5082SOL    HW115998   2.432   3.504   8.367
 5082SOL    HW215999   2.410   3.351   8.316
 5083SOL     OW16000   2.864   2.658   8.686
 5083SOL    HW116001   2.905   2.626   8.772
 5083SOL    HW216002   2.768   2.631   8.683
 5084SOL     OW16003   1.902   2.406   8.562
 5084SOL    HW116004   1.987   2.373   8.521
 5084SOL    HW216005   1.915   2.421   8.660
 5085SOL     OW16006   3.231   2.812   9.108
 5085SOL    HW116007   3.270   2.901   9.128
 5085SOL    HW216008   3.241   2.792   9.011
 5086SOL     OW16009   2.677   2.434   7.773
 5086SOL    HW116010   2.684   2.345   7.727
 5086SOL    HW216011   2.583   2.468   7.765
 5087SOL     OW16012   3.519   2.466   8.654
 5087SOL    HW116013   3.481   2.397   8.716
 5087SOL    HW216014   3.601   2.430   8.610
 5088SOL     OW16015   2.114   3.426   9.192
 5088SOL    HW116016   2.084   3.483   9.268
 5088SOL    HW216017   2.107   3.329   9.218
 5089SOL     OW16018   2.792   3.540   8.913
 5089SOL    HW116019   2.768   3.522   8.818
 5089SOL    HW216020   2.822   3.634   8.923
 5090SOL     OW16021   2.021   2.999   8.914
 5090SOL    HW116022   2.043   2.938   8.990
 5090SOL    HW216023   2.031   2.950   8.828
 5091SOL     OW16024   3.209   2.921   8.682
 5091SOL    HW116025   3.233   2.858   8.608
 5091SOL    HW216026   3.119   2.961   8.664
 5092SOL     OW16027   3.164   2.717   7.757
 5092SOL    HW116028   3.078   2.686   7.799
 5092SOL    HW216029   3.160   2.703   7.658
 5093SOL     OW16030   3.621   3.609   8.602
 5093SOL    HW116031   3.682   3.639   8.529
 5093SOL    HW216032   3.583   3.520   8.580
 5094SOL     OW16033   3.114   3.593   8.576
 5094SOL    HW116034   3.198   3.598   8.522
 5094SOL    HW216035   3.091   3.497   8.594
 5095SOL     OW16036   1.945   3.120   8.470
 5095SOL    HW116037   1.940   3.119   8.570
 5095SOL    HW216038   1.862   3.079   8.432
 5096SOL     OW16039   2.550   3.524   9.164
 5096SOL    HW116040   2.494   3.605   9.173
 5096SOL    HW216041   2.602   3.528   9.078
 5097SOL     OW16042   3.588   1.997   7.971
 5097SOL    HW116043   3.661   1.980   7.904
 5097SOL    HW216044   3.557   1.910   8.009
 5098SOL     OW16045   3.250   3.435   7.925
 5098SOL    HW116046   3.317   3.447   7.851
 5098SOL    HW216047   3.210   3.524   7.948
 5099SOL     OW16048   1.992   3.656   9.299
 5099SOL    HW116049   1.951   3.582   9.352
 5099SOL    HW216050   2.056   3.707   9.357
 5100SOL     OW16051   3.142   2.789   8.120
 5100SOL    HW116052   3.202   2.708   8.122
 5100SOL    HW216053   3.182   2.858   8.060
 5101SOL     OW16054   2.692   3.135   8.870
 5101SOL    HW116055   2.687   3.168   8.965
 5101SOL    HW216056   2.606   3.154   8.824
 5102SOL     OW16057   2.534   3.478   7.602
 5102SOL    HW116058   2.543   3.488   7.503
 5102SOL    HW216059   2.494   3.389   7.623
 5103SOL     OW16060   3.512   3.582   8.842
 5103SOL    HW116061   3.565   3.592   8.758
 5103SOL    HW216062   3.485   3.672   8.876
 5104SOL     OW16063   3.703   2.037   8.411
 5104SOL    HW116064   3.742   1.952   8.375
 5104SOL    HW216065   3.605   2.039   8.392
 5105SOL     OW16066   3.056   3.474   7.479
 5105SOL    HW116067   3.062   3.381   7.516
 5105SOL    HW216068   2.997   3.474   7.399
 5106SOL     OW16069   2.684   2.864   8.820
 5106SOL    HW116070   2.724   2.863   8.728
 5106SOL    HW216071   2.694   2.956   8.860
 5107SOL     OW16072   2.778   2.772   7.739
 5107SOL    HW116073   2.841   2.810   7.671
 5107SOL    HW216074   2.818   2.689   7.778
 5108SOL     OW16075   3.366   3.469   7.492
 5108SOL    HW116076   3.274   3.506   7.499
 5108SOL    HW216077   3.404   3.489   7.402
 5109SOL     OW16078   2.234   3.150   8.938
 5109SOL    HW116079   2.221   3.243   8.904
 5109SOL    HW216080   2.150   3.098   8.925
 5110SOL     OW16081   3.476   3.154   8.737
 5110SOL    HW116082   3.536   3.157   8.817
 5110SOL    HW216083   3.401   3.218   8.750
 5111SOL     OW16084   2.901   2.960   8.144
 5111SOL    HW116085   2.831   2.913   8.198
 5111SOL    HW216086   2.960   2.892   8.101
 5112SOL     OW16087   2.876   2.098   8.419
 5112SOL    HW116088   2.868   2.062   8.326
 5112SOL    HW216089   2.874   2.022   8.484
 5113SOL     OW16090   2.452   3.349   7.939
 5113SOL    HW116091   2.494   3.291   7.869
 5113SOL    HW216092   2.408   3.428   7.895
 5114SOL     OW16093   3.571   2.247   8.829
 5114SOL    HW116094   3.644   2.316   8.833
 5114SOL    HW216095   3.599   2.172   8.770
 5115SOL     OW16096   2.117   3.210   7.738
 5115SOL    HW116097   2.021   3.211   7.711
 5115SOL    HW216098   2.129   3.263   7.822
 5116SOL     OW16099   1.967   2.875   9.174
 5116SOL    HW116100   1.890   2.842   9.228
 5116SOL    HW216101   2.052   2.845   9.216
 5117SOL     OW16102   2.534   2.065   8.937
 5117SOL    HW116103   2.624   2.049   8.897
 5117SOL    HW216104   2.542   2.070   9.036
 5118SOL     OW16105   1.937   2.207   7.481
 5118SOL    HW116106   1.845   2.179   7.452
 5118SOL    HW216107   1.968   2.284   7.425
 5119SOL     OW16108   3.302   2.718   8.846
 5119SOL    HW116109   3.245   2.770   8.783
 5119SOL    HW216110   3.398   2.730   8.822
 5120SOL     OW16111   3.045   3.197   7.567
 5120SOL    HW116112   2.946   3.186   7.569
 5120SOL    HW216113   3.079   3.212   7.660
 5121SOL     OW16114   2.475   2.704   8.879
 5121SOL    HW116115   2.531   2.785   8.862
 5121SOL    HW216116   2.534   2.624   8.882
 5122SOL     OW16117   3.355   3.629   8.407
 5122SOL    HW116118   3.388   3.693   8.338
 5122SOL    HW216119   3.421   3.623   8.482
 5123SOL     OW16120   3.312   3.082   9.081
 5123SOL    HW116121   3.303   3.072   9.180
 5123SOL    HW216122   3.408   3.075   9.055
 5124SOL     OW16123   2.252   3.603   9.008
 5124SOL    HW116124   2.161   3.644   9.006
 5124SOL    HW216125   2.245   3.509   9.040
 5125SOL     OW16126   3.536   2.745   8.702
 5125SOL    HW116127   3.509   2.656   8.665
 5125SOL    HW216128   3.537   2.813   8.629
 5126SOL     OW16129   3.087   2.187   7.897
 5126SOL    HW116130   3.152   2.113   7.886
 5126SOL    HW216131   3.107   2.237   7.981
 5127SOL     OW16132   2.456   2.607   8.100
 5127SOL    HW116133   2.506   2.692   8.081
 5127SOL    HW216134   2.368   2.609   8.052
 5128SOL     OW16135   3.639   2.204   9.090
 5128SOL    HW116136   3.622   2.235   8.996
 5128SOL    HW216137   3.555   2.167   9.128
 5129SOL     OW16138   3.592   2.796   8.965
 5129SOL    HW116139   3.630   2.887   8.980
 5129SOL    HW216140   3.584   2.779   8.866
 5130SOL     OW16141   2.721   3.236   7.464
 5130SOL    HW116142   2.675   3.251   7.552
 5130SOL    HW216143   2.765   3.321   7.434
 5131SOL     OW16144   2.523   3.652   8.401
 5131SOL    HW116145   2.477   3.740   8.388
 5131SOL    HW216146   2.622   3.664   8.394
 5132SOL     OW16147   2.721   2.818   8.309
 5132SOL    HW116148   2.775   2.749   8.357
 5132SOL    HW216149   2.689   2.887   8.375
 5133SOL     OW16150   2.945   2.846   7.535
 5133SOL    HW116151   2.922   2.899   7.453
 5133SOL    HW216152   3.026   2.790   7.516
 5134SOL     OW16153   3.723   3.431   8.299
 5134SOL    HW116154   3.652   3.419   8.229
 5134SOL    HW216155   3.724   3.352   8.359
 5135SOL     OW16156   2.083   3.176   9.292
 5135SOL    HW116157   2.018   3.103   9.271
 5135SOL    HW216158   2.087   3.190   9.390
 5136SOL     OW16159   1.941   3.102   8.101
 5136SOL    HW116160   1.940   3.055   8.189
 5136SOL    HW216161   2.023   3.074   8.050
 5137SOL     OW16162   2.534   3.253   9.072
 5137SOL    HW116163   2.456   3.203   9.110
 5137SOL    HW216164   2.531   3.348   9.103
 5138SOL     OW16165   3.686   2.054   8.675
 5138SOL    HW116166   3.682   1.964   8.719
 5138SOL    HW216167   3.689   2.043   8.576
 5139SOL     OW16168   3.567   3.349   8.552
 5139SOL    HW116169   3.474   3.324   8.525
 5139SOL    HW216170   3.593   3.299   8.634
 5140SOL     OW16171   2.674   3.448   8.135
 5140SOL    HW116172   2.706   3.458   8.041
 5140SOL    HW216173   2.595   3.386   8.137
 5141SOL     OW16174   3.286   2.076   8.560
 5141SOL    HW116175   3.338   2.011   8.615
 5141SOL    HW216176   3.237   2.139   8.621
 5142SOL     OW16177   2.863   1.896   8.602
 5142SOL    HW116178   2.800   1.824   8.571
 5142SOL    HW216179   2.956   1.860   8.602
 5143SOL     OW16180   2.632   3.192   7.749
 5143SOL    HW116181   2.586   3.105   7.766
 5143SOL    HW216182   2.723   3.189   7.790
 5144SOL     OW16183   2.480   3.429   8.732
 5144SOL    HW116184   2.475   3.511   8.789
 5144SOL    HW216185   2.569   3.426   8.687
 5145SOL     OW16186   3.214   1.914   7.616
 5145SOL    HW116187   3.249   1.873   7.532
 5145SOL    HW216188   3.124   1.876   7.636
 5146SOL     OW16189   3.162   2.315   8.139
 5146SOL    HW116190   3.103   2.395   8.143
 5146SOL    HW216191   3.177   2.280   8.232
 5147SOL     OW16192   3.455   2.083   8.330
 5147SOL    HW116193   3.371   2.082   8.384
 5147SOL    HW216194   3.457   2.166   8.274
 5148SOL     OW16195   1.901   2.939   7.748
 5148SOL    HW116196   2.000   2.928   7.739
 5148SOL    HW216197   1.861   2.853   7.780
 5149SOL     OW16198   2.737   3.508   7.785
 5149SOL    HW116199   2.660   3.473   7.731
 5149SOL    HW216200   2.705   3.579   7.847
 5150SOL     OW16201   2.092   2.490   9.423
 5150SOL    HW116202   1.999   2.488   9.460
 5150SOL    HW216203   2.093   2.451   9.331
 5151SOL     OW16204   1.881   2.230   9.957
 5151SOL    HW116205   1.799   2.273   9.996
 5151SOL    HW216206   1.853   2.157   9.894
 5152SOL     OW16207   2.431   3.137  10.475
 5152SOL    HW116208   2.338   3.130  10.438
 5152SOL    HW216209   2.442   3.226  10.519
 5153SOL     OW16210   3.417   3.373  10.013
 5153SOL    HW116211   3.360   3.357  10.094
 5153SOL    HW216212   3.358   3.383   9.933
 5154SOL     OW16213   2.997   2.565  10.027
 5154SOL    HW116214   3.054   2.643  10.002
 5154SOL    HW216215   2.937   2.591  10.103
 5155SOL     OW16216   3.617   2.469   9.541
 5155SOL    HW116217   3.605   2.456   9.442
 5155SOL    HW216218   3.587   2.388   9.590
 5156SOL     OW16219   2.630   3.006  10.333
 5156SOL    HW116220   2.552   3.023  10.393
 5156SOL    HW216221   2.664   3.093  10.297
 5157SOL     OW16222   2.712   2.660  11.133
 5157SOL    HW116223   2.708   2.736  11.198
 5157SOL    HW216224   2.734   2.696  11.042
 5158SOL     OW16225   2.547   2.874   9.975
 5158SOL    HW116226   2.616   2.858  10.045
 5158SOL    HW216227   2.474   2.931  10.013
 5159SOL     OW16228   2.197   3.297  10.371
 5159SOL    HW116229   2.119   3.266  10.318
 5159SOL    HW216230   2.255   3.355  10.314
 5160SOL     OW16231   3.322   3.367  10.649
 5160SOL    HW116232   3.346   3.461  10.675
 5160SOL    HW216233   3.306   3.313  10.731
 5161SOL     OW16234   3.465   2.309  10.047
 5161SOL    HW116235   3.391   2.355   9.997
 5161SOL    HW216236   3.516   2.377  10.100
 5162SOL     OW16237   2.093   3.575   9.793
 5162SOL    HW116238   2.127   3.652   9.847
 5162SOL    HW216239   2.137   3.575   9.703
 5163SOL     OW16240   2.092   3.296   9.848
 5163SOL    HW116241   2.066   3.392   9.848
 5163SOL    HW216242   2.021   3.242   9.893
 5164SOL     OW16243   2.102   2.953  10.196
 5164SOL    HW116244   2.116   2.869  10.248
 5164SOL    HW216245   2.047   3.017  10.251
 5165SOL     OW16246   2.482   3.648  10.749
 5165SOL    HW116247   2.390   3.631  10.784
 5165SOL    HW216248   2.510   3.740  10.775
 5166SOL     OW16249   2.468   2.826   9.433
 5166SOL    HW116250   2.475   2.910   9.379
 5166SOL    HW216251   2.514   2.839   9.521
 5167SOL     OW16252   3.456   1.976  10.790
 5167SOL    HW116253   3.438   2.043  10.718
 5167SOL    HW216254   3.453   2.022  10.879
 5168SOL     OW16255   1.984   2.505   9.873
 5168SOL    HW116256   1.939   2.417   9.890
 5168SOL    HW216257   1.983   2.559   9.957
 5169SOL     OW16258   3.704   3.629   9.669
 5169SOL    HW116259   3.758   3.600   9.749
 5169SOL    HW216260   3.734   3.719   9.640
 5170SOL     OW16261   1.889   3.458   9.427
 5170SOL    HW116262   1.870   3.362   9.448
 5170SOL    HW216263   1.856   3.516   9.502
 5171SOL     OW16264   3.551   2.784   9.922
 5171SOL    HW116265   3.646   2.755   9.930
 5171SOL    HW216266   3.543   2.849   9.847
 5172SOL     OW16267   3.503   2.970   9.742
 5172SOL    HW116268   3.589   2.972   9.690
 5172SOL    HW216269   3.517   3.017   9.830
 5173SOL     OW16270   1.975   2.599  10.907
 5173SOL    HW116271   2.063   2.586  10.952
 5173SOL    HW216272   1.962   2.696  10.885
 5174SOL     OW16273   2.475   3.227  10.036
 5174SOL    HW116274   2.426   3.140  10.045
 5174SOL    HW216275   2.452   3.270   9.949
 5175SOL     OW16276   3.155   3.090  10.733
 5175SOL    HW116277   3.192   3.017  10.675
 5175SOL    HW216278   3.207   3.095  10.818
 5176SOL     OW16279   2.671   1.866   9.812
 5176SOL    HW116280   2.711   1.957   9.803
 5176SOL    HW216281   2.571   1.874   9.818
 5177SOL     OW16282   2.059   2.838  10.574
 5177SOL    HW116283   2.148   2.793  10.560
 5177SOL    HW216284   1.986   2.773  10.555
 5178SOL     OW16285   3.387   2.861   9.500
 5178SOL    HW116286   3.324   2.785   9.513
 5178SOL    HW216287   3.435   2.879   9.586
 5179SOL     OW16288   3.049   3.654  10.926
 5179SOL    HW116289   3.073   3.714  10.850
 5179SOL    HW216290   3.056   3.559  10.896
 5180SOL     OW16291   3.328   3.279  10.263
 5180SOL    HW116292   3.269   3.285  10.343
 5180SOL    HW216293   3.313   3.191  10.217
 5181SOL     OW16294   3.529   3.576   9.882
 5181SOL    HW116295   3.488   3.553   9.794
 5181SOL    HW216296   3.511   3.502   9.947
 5182SOL     OW16297   2.460   2.591   9.580
 5182SOL    HW116298   2.484   2.660   9.512
 5182SOL    HW216299   2.382   2.624   9.634
 5183SOL     OW16300   3.143   2.207  10.254
 5183SOL    HW116301   3.057   2.157  10.241
 5183SOL    HW216302   3.205   2.153  10.310
 5184SOL     OW16303   3.438   3.524   9.617
 5184SOL    HW116304   3.527   3.570   9.620
 5184SOL    HW216305   3.417   3.500   9.522
 5185SOL     OW16306   2.835   2.752  10.882
 5185SOL    HW116307   2.881   2.668  10.853
 5185SOL    HW216308   2.779   2.786  10.807
 5186SOL     OW16309   2.853   2.272  10.552
 5186SOL    HW116310   2.776   2.306  10.606
 5186SOL    HW216311   2.819   2.221  10.473
 5187SOL     OW16312   2.903   2.563   9.739
 5187SOL    HW116313   2.929   2.559   9.835
 5187SOL    HW216314   2.818   2.512   9.725
 5188SOL     OW16315   1.938   2.673  10.099
 5188SOL    HW116316   2.037   2.661  10.108
 5188SOL    HW216317   1.914   2.768  10.120
 5189SOL     OW16318   1.992   3.683  10.881
 5189SOL    HW116319   1.982   3.668  10.980
 5189SOL    HW216320   1.906   3.719  10.845
 5190SOL     OW16321   2.727   2.210   9.505
 5190SOL    HW116322   2.786   2.273   9.456
 5190SOL    HW216323   2.746   2.116   9.476
 5191SOL     OW16324   3.224   3.006   9.855
 5191SOL    HW116325   3.307   2.977   9.807
 5191SOL    HW216326   3.175   3.073   9.799
 5192SOL     OW16327   2.870   3.318   9.787
 5192SOL    HW116328   2.824   3.390   9.735
 5192SOL    HW216329   2.866   3.338   9.885
 5193SOL     OW16330   2.213   3.663  10.163
 5193SOL    HW116331   2.263   3.577  10.169
 5193SOL    HW216332   2.278   3.740  10.160
 5194SOL     OW16333   3.657   2.928  10.183
 5194SOL    HW116334   3.595   2.913  10.107
 5194SOL    HW216335   3.605   2.939  10.268
 5195SOL     OW16336   3.089   3.412  10.816
 5195SOL    HW116337   3.095   3.335  10.880
 5195SOL    HW216338   3.037   3.386  10.736
 5196SOL     OW16339   2.183   2.805   9.552
 5196SOL    HW116340   2.265   2.844   9.510
 5196SOL    HW216341   2.156   2.723   9.503
 5197SOL     OW16342   3.320   2.597  10.038
 5197SOL    HW116343   3.315   2.532  10.113
 5197SOL    HW216344   3.400   2.656  10.051
 5198SOL     OW16345   2.323   3.128  11.037
 5198SOL    HW116346   2.273   3.129  10.951
 5198SOL    HW216347   2.260   3.110  11.113
 5199SOL     OW16348   2.973   3.638   9.547
 5199SOL    HW116349   2.913   3.576   9.597
 5199SOL    HW216350   3.004   3.594   9.462
 5200SOL     OW16351   3.494   3.239   9.391
 5200SOL    HW116352   3.462   3.333   9.381
 5200SOL    HW216353   3.418   3.176   9.379
 5201SOL     OW16354   2.326   3.605   9.633
 5201SOL    HW116355   2.359   3.644   9.719
 5201SOL    HW216356   2.402   3.598   9.568
 5202SOL     OW16357   3.262   1.969   9.736
 5202SOL    HW116358   3.238   1.932   9.646
 5202SOL    HW216359   3.361   1.985   9.740
 5203SOL     OW16360   2.111   3.647  10.551
 5203SOL    HW116361   2.168   3.582  10.601
 5203SOL    HW216362   2.095   3.614  10.458
 5204SOL     OW16363   2.802   3.560  10.214
 5204SOL    HW116364   2.882   3.503  10.235
 5204SOL    HW216365   2.753   3.520  10.137
 5205SOL     OW16366   2.476   1.984   9.427
 5205SOL    HW116367   2.574   1.962   9.434
 5205SOL    HW216368   2.445   1.967   9.334
 5206SOL     OW16369   2.643   2.126  11.059
 5206SOL    HW116370   2.710   2.065  11.102
 5206SOL    HW216371   2.570   2.145  11.124
 5207SOL     OW16372   2.750   3.376  10.505
 5207SOL    HW116373   2.727   3.351  10.411
 5207SOL    HW216374   2.811   3.307  10.544
 5208SOL     OW16375   3.213   2.452  10.743
 5208SOL    HW116376   3.241   2.409  10.828
 5208SOL    HW216377   3.238   2.548  10.744
 5209SOL     OW16378   2.665   3.264  10.234
 5209SOL    HW116379   2.755   3.278  10.192
 5209SOL    HW216380   2.594   3.266  10.163
 5210SOL     OW16381   2.784   2.365  10.209
 5210SOL    HW116382   2.759   2.356  10.113
 5210SOL    HW216383   2.832   2.283  10.240
 5211SOL     OW16384   2.401   1.926   9.822
 5211SOL    HW116385   2.320   1.927   9.880
 5211SOL    HW216386   2.404   2.009   9.767
 5212SOL     OW16387   3.296   3.050   9.351
 5212SOL    HW116388   3.328   2.974   9.408
 5212SOL    HW216389   3.204   3.077   9.381
 5213SOL     OW16390   2.797   2.098   9.790
 5213SOL    HW116391   2.749   2.139   9.712
 5213SOL    HW216392   2.896   2.096   9.771
 5214SOL     OW16393   2.938   2.545  10.774
 5214SOL    HW116394   2.858   2.484  10.777
 5214SOL    HW216395   3.019   2.492  10.750
 5215SOL     OW16396   3.089   3.432  10.103
 5215SOL    HW116397   3.110   3.506  10.038
 5215SOL    HW216398   3.157   3.432  10.176
 5216SOL     OW16399   2.321   3.014  10.051
 5216SOL    HW116400   2.250   2.987  10.116
 5216SOL    HW216401   2.295   2.986   9.958
 5217SOL     OW16402   3.133   3.659   9.901
 5217SOL    HW116403   3.177   3.723   9.837
 5217SOL    HW216404   3.083   3.711   9.971
 5218SOL     OW16405   2.894   2.411   9.326
 5218SOL    HW116406   2.853   2.493   9.287
 5218SOL    HW216407   2.958   2.437   9.399
 5219SOL     OW16408   1.940   2.418  10.696
 5219SOL    HW116409   2.032   2.417  10.655
 5219SOL    HW216410   1.934   2.492  10.763
 5220SOL     OW16411   2.728   2.316   9.952
 5220SOL    HW116412   2.696   2.388   9.890
 5220SOL    HW216413   2.752   2.235   9.899
 5221SOL     OW16414   2.879   1.901  10.063
 5221SOL    HW116415   2.807   1.906   9.994
 5221SOL    HW216416   2.855   1.832  10.132
 5222SOL     OW16417   3.291   3.035  10.177
 5222SOL    HW116418   3.236   2.951  10.170
 5222SOL    HW216419   3.317   3.064  10.085
 5223SOL     OW16420   3.328   2.452  10.302
 5223SOL    HW116421   3.298   2.357  10.309
 5223SOL    HW216422   3.401   2.468  10.368
 5224SOL     OW16423   3.719   2.695   9.687
 5224SOL    HW116424   3.761   2.631   9.751
 5224SOL    HW216425   3.681   2.644   9.609
 5225SOL     OW16426   2.350   3.247   9.484
 5225SOL    HW116427   2.263   3.232   9.531
 5225SOL    HW216428   2.333   3.273   9.389
 5226SOL     OW16429   3.526   3.142   9.967
 5226SOL    HW116430   3.625   3.150   9.981
 5226SOL    HW216431   3.481   3.226   9.998
 5227SOL     OW16432   3.252   2.437   9.388
 5227SOL    HW116433   3.198   2.416   9.469
 5227SOL    HW216434   3.343   2.396   9.397
 5228SOL     OW16435   3.616   3.085  10.898
 5228SOL    HW116436   3.707   3.046  10.885
 5228SOL    HW216437   3.624   3.181  10.922
 5229SOL     OW16438   2.926   3.209  10.650
 5229SOL    HW116439   2.846   3.186  10.705
 5229SOL    HW216440   3.009   3.183  10.699
 5230SOL     OW16441   2.973   3.057  10.410
 5230SOL    HW116442   2.933   3.101  10.491
 5230SOL    HW216443   2.932   3.094  10.327
 5231SOL     OW16444   3.500   2.961  10.389
 5231SOL    HW116445   3.505   3.042  10.448
 5231SOL    HW216446   3.414   2.963  10.338
 5232SOL     OW16447   2.777   1.951  10.712
 5232SOL    HW116448   2.802   1.931  10.617
 5232SOL    HW216449   2.849   2.007  10.754
 5233SOL     OW16450   2.567   2.912   9.678
 5233SOL    HW116451   2.553   2.919   9.777
 5233SOL    HW216452   2.651   2.861   9.660
 5234SOL     OW16453   2.272   2.675  10.561
 5234SOL    HW116454   2.358   2.687  10.611
 5234SOL    HW216455   2.230   2.588  10.588
 5235SOL     OW16456   3.136   2.248  10.572
 5235SOL    HW116457   3.157   2.322  10.636
 5235SOL    HW216458   3.047   2.265  10.529
 5236SOL     OW16459   1.926   3.426  10.641
 5236SOL    HW116460   1.880   3.508  10.607
 5236SOL    HW216461   2.024   3.445  10.650
 5237SOL     OW16462   2.229   2.962   9.811
 5237SOL    HW116463   2.222   3.045   9.755
 5237SOL    HW216464   2.233   2.882   9.751
 5238SOL     OW16465   3.114   3.210   9.698
 5238SOL    HW116466   3.164   3.287   9.738
 5238SOL    HW216467   3.019   3.212   9.730
 5239SOL     OW16468   3.134   3.307  10.452
 5239SOL    HW116469   3.181   3.320  10.539
 5239SOL    HW216470   3.068   3.233  10.461
 5240SOL     OW16471   3.444   2.501   9.782
 5240SOL    HW116472   3.413   2.562   9.855
 5240SOL    HW216473   3.494   2.553   9.713
 5241SOL     OW16474   2.216   3.372  10.639
 5241SOL    HW116475   2.195   3.328  10.552
 5241SOL    HW216476   2.313   3.398  10.642
 5242SOL     OW16477   3.449   2.641  10.980
 5242SOL    HW116478   3.357   2.679  10.975
 5242SOL    HW216479   3.509   2.688  10.915
 5243SOL     OW16480   2.435   2.732  10.339
 5243SOL    HW116481   2.479   2.821  10.330
 5243SOL    HW216482   2.372   2.732  10.416
 5244SOL     OW16483   3.222   2.724  10.355
 5244SOL    HW116484   3.147   2.724  10.289
 5244SOL    HW216485   3.259   2.632  10.364
 5245SOL     OW16486   3.071   2.387   9.585
 5245SOL    HW116487   3.084   2.303   9.639
 5245SOL    HW216488   3.042   2.461   9.645
 5246SOL     OW16489   1.899   3.172  10.592
 5246SOL    HW116490   1.952   3.123  10.660
 5246SOL    HW216491   1.921   3.270  10.597
 5247SOL     OW16492   2.594   2.496  10.374
 5247SOL    HW116493   2.653   2.470  10.298
 5247SOL    HW216494   2.566   2.592  10.363
 5248SOL     OW16495   3.484   2.229   9.684
 5248SOL    HW116496   3.486   2.153   9.748
 5248SOL    HW216497   3.436   2.306   9.724
 5249SOL     OW16498   2.885   2.628  10.276
 5249SOL    HW116499   2.900   2.649  10.372
 5249SOL    HW216500   2.855   2.533  10.267
 5250SOL     OW16501   2.842   3.435  11.010
 5250SOL    HW116502   2.822   3.479  10.922
 5250SOL    HW216503   2.881   3.344  10.994
 5251SOL     OW16504   3.721   3.380  10.915
 5251SOL    HW116505   3.735   3.407  10.820
 5251SOL    HW216506   3.804   3.402  10.968
 5252SOL     OW16507   2.212   2.760  11.114
 5252SOL    HW116508   2.288   2.804  11.162
 5252SOL    HW216509   2.247   2.713  11.032
 5253SOL     OW16510   3.402   2.136   9.435
 5253SOL    HW116511   3.341   2.061   9.458
 5253SOL    HW216512   3.424   2.188   9.518
 5254SOL     OW16513   3.165   2.700   9.352
 5254SOL    HW116514   3.199   2.607   9.367
 5254SOL    HW216515   3.183   2.727   9.257
 5255SOL     OW16516   2.930   3.195  10.159
 5255SOL    HW116517   2.937   3.111  10.104
 5255SOL    HW216518   2.992   3.264  10.123
 5256SOL     OW16519   2.181   2.672  10.259
 5256SOL    HW116520   2.274   2.708  10.264
 5256SOL    HW216521   2.175   2.587  10.311
 5257SOL     OW16522   3.022   2.069  10.787
 5257SOL    HW116523   3.022   2.133  10.864
 5257SOL    HW216524   3.050   2.117  10.704
 5258SOL     OW16525   1.870   3.188   9.510
 5258SOL    HW116526   1.777   3.209   9.479
 5258SOL    HW216527   1.880   3.089   9.523
 5259SOL     OW16528   1.950   3.663  10.237
 5259SOL    HW116529   1.908   3.577  10.210
 5259SOL    HW216530   2.044   3.666  10.203
 5260SOL     OW16531   2.366   3.430  10.220
 5260SOL    HW116532   2.432   3.504  10.229
 5260SOL    HW216533   2.410   3.351  10.178
 5261SOL     OW16534   2.864   2.658  10.548
 5261SOL    HW116535   2.905   2.626  10.634
 5261SOL    HW216536   2.768   2.631  10.545
 5262SOL     OW16537   1.902   2.406  10.424
 5262SOL    HW116538   1.987   2.373  10.383
 5262SOL    HW216539   1.915   2.421  10.522
 5263SOL     OW16540   2.677   2.434   9.635
 5263SOL    HW116541   2.684   2.345   9.589
 5263SOL    HW216542   2.583   2.468   9.627
 5264SOL     OW16543   3.519   2.466  10.516
 5264SOL    HW116544   3.481   2.397  10.578
 5264SOL    HW216545   3.601   2.430  10.472
 5265SOL     OW16546   2.114   3.426  11.054
 5265SOL    HW116547   2.084   3.483  11.130
 5265SOL    HW216548   2.107   3.329  11.080
 5266SOL     OW16549   2.792   3.540  10.775
 5266SOL    HW116550   2.768   3.522  10.680
 5266SOL    HW216551   2.822   3.634  10.785
 5267SOL     OW16552   2.021   2.999  10.776
 5267SOL    HW116553   2.043   2.938  10.852
 5267SOL    HW216554   2.031   2.950  10.690
 5268SOL     OW16555   3.209   2.921  10.544
 5268SOL    HW116556   3.233   2.858  10.470
 5268SOL    HW216557   3.119   2.961  10.526
 5269SOL     OW16558   3.164   2.717   9.619
 5269SOL    HW116559   3.078   2.686   9.661
 5269SOL    HW216560   3.160   2.703   9.520
 5270SOL     OW16561   3.621   3.609  10.464
 5270SOL    HW116562   3.682   3.639  10.391
 5270SOL    HW216563   3.583   3.520  10.442
 5271SOL     OW16564   3.114   3.593  10.438
 5271SOL    HW116565   3.198   3.598  10.384
 5271SOL    HW216566   3.091   3.497  10.456
 5272SOL     OW16567   1.945   3.120  10.332
 5272SOL    HW116568   1.940   3.119  10.432
 5272SOL    HW216569   1.862   3.079  10.294
 5273SOL     OW16570   3.588   1.997   9.833
 5273SOL    HW116571   3.661   1.980   9.766
 5273SOL    HW216572   3.557   1.910   9.871
 5274SOL     OW16573   3.250   3.435   9.787
 5274SOL    HW116574   3.317   3.447   9.713
 5274SOL    HW216575   3.210   3.524   9.810
 5275SOL     OW16576   3.142   2.789   9.982
 5275SOL    HW116577   3.202   2.708   9.984
 5275SOL    HW216578   3.182   2.858   9.922
 5276SOL     OW16579   2.692   3.135  10.732
 5276SOL    HW116580   2.687   3.168  10.827
 5276SOL    HW216581   2.606   3.154  10.686
 5277SOL     OW16582   2.534   3.478   9.464
 5277SOL    HW116583   2.543   3.488   9.365
 5277SOL    HW216584   2.494   3.389   9.485
 5278SOL     OW16585   3.512   3.582  10.704
 5278SOL    HW116586   3.565   3.592  10.620
 5278SOL    HW216587   3.485   3.672  10.738
 5279SOL     OW16588   3.703   2.037  10.273
 5279SOL    HW116589   3.742   1.952  10.237
 5279SOL    HW216590   3.605   2.039  10.254
 5280SOL     OW16591   3.056   3.474   9.341
 5280SOL    HW116592   3.062   3.381   9.378
 5280SOL    HW216593   2.997   3.474   9.261
 5281SOL     OW16594   2.684   2.864  10.682
 5281SOL    HW116595   2.724   2.863  10.590
 5281SOL    HW216596   2.694   2.956  10.722
 5282SOL     OW16597   2.778   2.772   9.601
 5282SOL    HW116598   2.841   2.810   9.533
 5282SOL    HW216599   2.818   2.689   9.640
 5283SOL     OW16600   3.366   3.469   9.354
 5283SOL    HW116601   3.274   3.506   9.361
 5283SOL    HW216602   3.404   3.489   9.264
 5284SOL     OW16603   2.234   3.150  10.800
 5284SOL    HW116604   2.221   3.243  10.766
 5284SOL    HW216605   2.150   3.098  10.787
 5285SOL     OW16606   3.476   3.154  10.599
 5285SOL    HW116607   3.536   3.157  10.679
 5285SOL    HW216608   3.401   3.218  10.612
 5286SOL     OW16609   2.901   2.960  10.006
 5286SOL    HW116610   2.831   2.913  10.060
 5286SOL    HW216611   2.960   2.892   9.963
 5287SOL     OW16612   2.876   2.098  10.281
 5287SOL    HW116613   2.868   2.062  10.188
 5287SOL    HW216614   2.874   2.022  10.346
 5288SOL     OW16615   2.452   3.349   9.801
 5288SOL    HW116616   2.494   3.291   9.731
 5288SOL    HW216617   2.408   3.428   9.757
 5289SOL     OW16618   3.571   2.247  10.691
 5289SOL    HW116619   3.644   2.316  10.695
 5289SOL    HW216620   3.599   2.172  10.632
 5290SOL     OW16621   2.117   3.210   9.600
 5290SOL    HW116622   2.021   3.211   9.573
 5290SOL    HW216623   2.129   3.263   9.684
 5291SOL     OW16624   1.967   2.875  11.036
 5291SOL    HW116625   1.890   2.842  11.090
 5291SOL    HW216626   2.052   2.845  11.078
 5292SOL     OW16627   2.534   2.065  10.799
 5292SOL    HW116628   2.624   2.049  10.759
 5292SOL    HW216629   2.542   2.070  10.898
 5293SOL     OW16630   3.302   2.718  10.708
 5293SOL    HW116631   3.245   2.770  10.645
 5293SOL    HW216632   3.398   2.730  10.684
 5294SOL     OW16633   1.934   2.028   9.628
 5294SOL    HW116634   1.917   2.111   9.574
 5294SOL    HW216635   2.024   1.991   9.606
 5295SOL     OW16636   3.045   3.197   9.429
 5295SOL    HW116637   2.946   3.186   9.431
 5295SOL    HW216638   3.079   3.212   9.522
 5296SOL     OW16639   2.475   2.704  10.741
 5296SOL    HW116640   2.531   2.785  10.724
 5296SOL    HW216641   2.534   2.624  10.744
 5297SOL     OW16642   3.355   3.629  10.269
 5297SOL    HW116643   3.388   3.693  10.200
 5297SOL    HW216644   3.421   3.623  10.344
 5298SOL     OW16645   2.578   2.427  11.018
 5298SOL    HW116646   2.597   2.492  11.092
 5298SOL    HW216647   2.638   2.347  11.027
 5299SOL     OW16648   2.252   3.603  10.870
 5299SOL    HW116649   2.161   3.644  10.868
 5299SOL    HW216650   2.245   3.509  10.902
 5300SOL     OW16651   3.536   2.745  10.564
 5300SOL    HW116652   3.509   2.656  10.527
 5300SOL    HW216653   3.537   2.813  10.491
 5301SOL     OW16654   3.087   2.187   9.759
 5301SOL    HW116655   3.152   2.113   9.748
 5301SOL    HW216656   3.107   2.237   9.843
 5302SOL     OW16657   2.456   2.607   9.962
 5302SOL    HW116658   2.506   2.692   9.943
 5302SOL    HW216659   2.368   2.609   9.914
 5303SOL     OW16660   3.639   2.204  10.952
 5303SOL    HW116661   3.622   2.235  10.858
 5303SOL    HW216662   3.555   2.167  10.990
 5304SOL     OW16663   3.592   2.796  10.827
 5304SOL    HW116664   3.630   2.887  10.842
 5304SOL    HW216665   3.584   2.779  10.728
 5305SOL     OW16666   2.721   3.236   9.326
 5305SOL    HW116667   2.675   3.251   9.414
 5305SOL    HW216668   2.765   3.321   9.296
 5306SOL     OW16669   2.523   3.652  10.263
 5306SOL    HW116670   2.477   3.740  10.250
 5306SOL    HW216671   2.622   3.664  10.256
 5307SOL     OW16672   2.721   2.818  10.171
 5307SOL    HW116673   2.775   2.749  10.219
 5307SOL    HW216674   2.689   2.887  10.237
 5308SOL     OW16675   2.945   2.846   9.397
 5308SOL    HW116676   2.922   2.899   9.315
 5308SOL    HW216677   3.026   2.790   9.378
 5309SOL     OW16678   3.723   3.431  10.161
 5309SOL    HW116679   3.652   3.419  10.091
 5309SOL    HW216680   3.724   3.352  10.221
 5310SOL     OW16681   1.941   3.102   9.963
 5310SOL    HW116682   1.940   3.055  10.051
 5310SOL    HW216683   2.023   3.074   9.912
 5311SOL     OW16684   2.534   3.253  10.934
 5311SOL    HW116685   2.456   3.203  10.972
 5311SOL    HW216686   2.531   3.348  10.965
 5312SOL     OW16687   3.686   2.054  10.537
 5312SOL    HW116688   3.682   1.964  10.581
 5312SOL    HW216689   3.689   2.043  10.438
 5313SOL     OW16690   3.567   3.349  10.414
 5313SOL    HW116691   3.474   3.324  10.387
 5313SOL    HW216692   3.593   3.299  10.496
 5314SOL     OW16693   2.674   3.448   9.997
 5314SOL    HW116694   2.706   3.458   9.903
 5314SOL    HW216695   2.595   3.386   9.999
 5315SOL     OW16696   3.286   2.076  10.422
 5315SOL    HW116697   3.338   2.011  10.477
 5315SOL    HW216698   3.237   2.139  10.483
 5316SOL     OW16699   2.863   1.896  10.464
 5316SOL    HW116700   2.800   1.824  10.433
 5316SOL    HW216701   2.956   1.860  10.464
 5317SOL     OW16702   2.632   3.192   9.611
 5317SOL    HW116703   2.586   3.105   9.628
 5317SOL    HW216704   2.723   3.189   9.652
 5318SOL     OW16705   2.480   3.429  10.594
 5318SOL    HW116706   2.475   3.511  10.651
 5318SOL    HW216707   2.569   3.426  10.549
 5319SOL     OW16708   3.214   1.914   9.478
 5319SOL    HW116709   3.249   1.873   9.394
 5319SOL    HW216710   3.124   1.876   9.498
 5320SOL     OW16711   3.162   2.315  10.001
 5320SOL    HW116712   3.103   2.395  10.005
 5320SOL    HW216713   3.177   2.280  10.094
 5321SOL     OW16714   3.455   2.083  10.192
 5321SOL    HW116715   3.371   2.082  10.246
 5321SOL    HW216716   3.457   2.166  10.136
 5322SOL     OW16717   1.901   2.939   9.610
 5322SOL    HW116718   2.000   2.928   9.601
 5322SOL    HW216719   1.861   2.853   9.642
 5323SOL     OW16720   2.737   3.508   9.647
 5323SOL    HW116721   2.660   3.473   9.593
 5323SOL    HW216722   2.705   3.579   9.709
 5324SOL     OW16723   2.092   4.352   0.113
 5324SOL    HW116724   1.999   4.350   0.150
 5324SOL    HW216725   2.093   4.313   0.021
 5325SOL     OW16726   2.087   3.999   0.996
 5325SOL    HW116727   2.122   3.982   1.088
 5325SOL    HW216728   1.999   3.954   0.984
 5326SOL     OW16729   1.881   4.092   0.647
 5326SOL    HW116730   1.799   4.135   0.686
 5326SOL    HW216731   1.853   4.019   0.584
 5327SOL     OW16732   3.617   4.331   0.231
 5327SOL    HW116733   3.605   4.318   0.132
 5327SOL    HW216734   3.587   4.250   0.280
 5328SOL     OW16735   2.547   4.736   0.665
 5328SOL    HW116736   2.616   4.720   0.735
 5328SOL    HW216737   2.474   4.793   0.703
 5329SOL     OW16738   2.300   4.116   1.499
 5329SOL    HW116739   2.382   4.060   1.508
 5329SOL    HW216740   2.219   4.058   1.503
 5330SOL     OW16741   3.465   4.171   0.737
 5330SOL    HW116742   3.391   4.217   0.687
 5330SOL    HW216743   3.516   4.239   0.790
 5331SOL     OW16744   3.456   3.838   1.480
 5331SOL    HW116745   3.438   3.905   1.408
 5331SOL    HW216746   3.453   3.884   1.569
 5332SOL     OW16747   1.984   4.367   0.563
 5332SOL    HW116748   1.939   4.279   0.580
 5332SOL    HW216749   1.983   4.421   0.647
 5333SOL     OW16750   1.975   4.461   1.597
 5333SOL    HW116751   2.063   4.448   1.642
 5333SOL    HW216752   1.962   4.558   1.575
 5334SOL     OW16753   2.671   3.728   0.502
 5334SOL    HW116754   2.711   3.819   0.493
 5334SOL    HW216755   2.571   3.736   0.508
 5335SOL     OW16756   2.179   3.975   1.801
 5335SOL    HW116757   2.250   4.046   1.807
 5335SOL    HW216758   2.091   4.014   1.829
 5336SOL     OW16759   3.143   4.069   0.944
 5336SOL    HW116760   3.057   4.019   0.931
 5336SOL    HW216761   3.205   4.015   1.000
 5337SOL     OW16762   2.669   4.329   1.465
 5337SOL    HW116763   2.622   4.326   1.554
 5337SOL    HW216764   2.618   4.274   1.399
 5338SOL     OW16765   3.256   4.193   1.674
 5338SOL    HW116766   3.236   4.236   1.762
 5338SOL    HW216767   3.334   4.131   1.683
 5339SOL     OW16768   2.853   4.134   1.242
 5339SOL    HW116769   2.776   4.168   1.296
 5339SOL    HW216770   2.819   4.083   1.163
 5340SOL     OW16771   2.903   4.425   0.429
 5340SOL    HW116772   2.929   4.421   0.525
 5340SOL    HW216773   2.818   4.374   0.415
 5341SOL     OW16774   2.727   4.072   0.195
 5341SOL    HW116775   2.786   4.135   0.146
 5341SOL    HW216776   2.746   3.978   0.166
 5342SOL     OW16777   3.581   4.309   1.831
 5342SOL    HW116778   3.555   4.398   1.795
 5342SOL    HW216779   3.579   4.241   1.758
 5343SOL     OW16780   2.412   3.920   0.885
 5343SOL    HW116781   2.407   3.915   0.985
 5343SOL    HW216782   2.414   4.016   0.856
 5344SOL     OW16783   3.320   4.459   0.728
 5344SOL    HW116784   3.315   4.394   0.803
 5344SOL    HW216785   3.400   4.518   0.741
 5345SOL     OW16786   2.064   4.009   1.498
 5345SOL    HW116787   1.984   4.069   1.485
 5345SOL    HW216788   2.054   3.960   1.584
 5346SOL     OW16789   3.262   3.831   0.426
 5346SOL    HW116790   3.238   3.794   0.336
 5346SOL    HW216791   3.361   3.847   0.430
 5347SOL     OW16792   2.244   4.424   0.480
 5347SOL    HW116793   2.289   4.334   0.477
 5347SOL    HW216794   2.150   4.413   0.513
 5348SOL     OW16795   3.409   3.946   1.729
 5348SOL    HW116796   3.404   3.983   1.821
 5348SOL    HW216797   3.337   3.877   1.717
 5349SOL     OW16798   2.476   3.846   0.117
 5349SOL    HW116799   2.574   3.824   0.124
 5349SOL    HW216800   2.445   3.829   0.024
 5350SOL     OW16801   2.643   3.988   1.749
 5350SOL    HW116802   2.710   3.927   1.792
 5350SOL    HW216803   2.570   4.007   1.814
 5351SOL     OW16804   3.213   4.314   1.433
 5351SOL    HW116805   3.241   4.271   1.518
 5351SOL    HW216806   3.238   4.410   1.434
 5352SOL     OW16807   2.784   4.227   0.899
 5352SOL    HW116808   2.759   4.218   0.803
 5352SOL    HW216809   2.832   4.145   0.930
 5353SOL     OW16810   2.401   3.788   0.512
 5353SOL    HW116811   2.320   3.789   0.570
 5353SOL    HW216812   2.404   3.871   0.457
 5354SOL     OW16813   2.159   3.759   0.171
 5354SOL    HW116814   2.208   3.843   0.150
 5354SOL    HW216815   2.221   3.694   0.216
 5355SOL     OW16816   2.797   3.960   0.480
 5355SOL    HW116817   2.749   4.001   0.402
 5355SOL    HW216818   2.896   3.958   0.461
 5356SOL     OW16819   2.938   4.407   1.464
 5356SOL    HW116820   2.858   4.346   1.467
 5356SOL    HW216821   3.019   4.354   1.440
 5357SOL     OW16822   2.894   4.273   0.016
 5357SOL    HW116823   2.853   4.355  -0.023
 5357SOL    HW216824   2.958   4.299   0.089
 5358SOL     OW16825   1.940   4.280   1.386
 5358SOL    HW116826   2.032   4.279   1.345
 5358SOL    HW216827   1.934   4.354   1.453
 5359SOL     OW16828   2.423   3.946   1.147
 5359SOL    HW116829   2.461   3.862   1.184
 5359SOL    HW216830   2.335   3.965   1.191
 5360SOL     OW16831   2.728   4.178   0.642
 5360SOL    HW116832   2.696   4.250   0.580
 5360SOL    HW216833   2.752   4.097   0.589
 5361SOL     OW16834   2.879   3.763   0.753
 5361SOL    HW116835   2.807   3.768   0.684
 5361SOL    HW216836   2.855   3.694   0.822
 5362SOL     OW16837   3.328   4.314   0.992
 5362SOL    HW116838   3.298   4.219   0.999
 5362SOL    HW216839   3.401   4.330   1.058
 5363SOL     OW16840   3.252   4.299   0.078
 5363SOL    HW116841   3.198   4.278   0.159
 5363SOL    HW216842   3.343   4.258   0.087
 5364SOL     OW16843   2.389   3.980   0.328
 5364SOL    HW116844   2.416   3.921   0.253
 5364SOL    HW216845   2.389   4.075   0.297
 5365SOL     OW16846   2.777   3.813   1.402
 5365SOL    HW116847   2.802   3.793   1.307
 5365SOL    HW216848   2.849   3.869   1.444
 5366SOL     OW16849   2.272   4.537   1.251
 5366SOL    HW116850   2.358   4.549   1.301
 5366SOL    HW216851   2.230   4.450   1.278
 5367SOL     OW16852   3.136   4.110   1.262
 5367SOL    HW116853   3.157   4.184   1.326
 5367SOL    HW216854   3.047   4.127   1.219
 5368SOL     OW16855   2.428   4.261   0.865
 5368SOL    HW116856   2.440   4.327   0.791
 5368SOL    HW216857   2.474   4.295   0.948
 5369SOL     OW16858   3.444   4.363   0.472
 5369SOL    HW116859   3.413   4.424   0.545
 5369SOL    HW216860   3.494   4.415   0.403
 5370SOL     OW16861   2.875   3.829   1.770
 5370SOL    HW116862   2.881   3.914   1.718
 5370SOL    HW216863   2.907   3.753   1.713
 5371SOL     OW16864   2.366   3.774   1.740
 5371SOL    HW116865   2.324   3.717   1.670
 5371SOL    HW216866   2.300   3.843   1.772
 5372SOL     OW16867   3.071   4.249   0.275
 5372SOL    HW116868   3.084   4.165   0.329
 5372SOL    HW216869   3.042   4.323   0.335
 5373SOL     OW16870   2.169   3.937   1.231
 5373SOL    HW116871   2.146   3.974   1.321
 5373SOL    HW216872   2.139   3.842   1.225
 5374SOL     OW16873   2.594   4.358   1.064
 5374SOL    HW116874   2.653   4.332   0.988
 5374SOL    HW216875   2.566   4.454   1.053
 5375SOL     OW16876   3.590   4.659   1.854
 5375SOL    HW116877   3.544   4.652   1.765
 5375SOL    HW216878   3.528   4.703   1.920
 5376SOL     OW16879   2.169   3.787   0.618
 5376SOL    HW116880   2.158   3.881   0.651
 5376SOL    HW216881   2.164   3.724   0.695
 5377SOL     OW16882   3.484   4.091   0.374
 5377SOL    HW116883   3.486   4.015   0.438
 5377SOL    HW216884   3.436   4.168   0.414
 5378SOL     OW16885   3.402   3.998   0.125
 5378SOL    HW116886   3.341   3.923   0.148
 5378SOL    HW216887   3.424   4.050   0.208
 5379SOL     OW16888   2.181   4.534   0.949
 5379SOL    HW116889   2.274   4.570   0.954
 5379SOL    HW216890   2.175   4.449   1.001
 5380SOL     OW16891   2.201   4.233   1.006
 5380SOL    HW116892   2.149   4.150   0.989
 5380SOL    HW216893   2.278   4.238   0.942
 5381SOL     OW16894   3.000   4.104   1.678
 5381SOL    HW116895   2.955   4.167   1.742
 5381SOL    HW216896   3.093   4.135   1.661
 5382SOL     OW16897   3.022   3.931   1.477
 5382SOL    HW116898   3.022   3.995   1.554
 5382SOL    HW216899   3.050   3.979   1.394
 5383SOL     OW16900   1.902   4.268   1.114
 5383SOL    HW116901   1.987   4.235   1.073
 5383SOL    HW216902   1.915   4.283   1.212
 5384SOL     OW16903   2.051   4.244   1.722
 5384SOL    HW116904   2.110   4.204   1.652
 5384SOL    HW216905   1.993   4.315   1.681
 5385SOL     OW16906   2.677   4.296   0.325
 5385SOL    HW116907   2.684   4.207   0.279
 5385SOL    HW216908   2.583   4.330   0.317
 5386SOL     OW16909   3.519   4.328   1.206
 5386SOL    HW116910   3.481   4.259   1.268
 5386SOL    HW216911   3.601   4.292   1.162
 5387SOL     OW16912   2.533   4.188   1.269
 5387SOL    HW116913   2.499   4.099   1.239
 5387SOL    HW216914   2.559   4.242   1.189
 5388SOL     OW16915   2.335   4.224   0.191
 5388SOL    HW116916   2.396   4.304   0.195
 5388SOL    HW216917   2.240   4.255   0.198
 5389SOL     OW16918   2.765   3.810   0.133
 5389SOL    HW116919   2.816   3.811   0.047
 5389SOL    HW216920   2.821   3.768   0.204
 5390SOL     OW16921   3.588   3.859   0.523
 5390SOL    HW116922   3.661   3.842   0.456
 5390SOL    HW216923   3.557   3.772   0.561
 5391SOL     OW16924   3.142   4.651   0.672
 5391SOL    HW116925   3.202   4.570   0.674
 5391SOL    HW216926   3.182   4.720   0.612
 5392SOL     OW16927   3.703   3.899   0.963
 5392SOL    HW116928   3.742   3.814   0.927
 5392SOL    HW216929   3.605   3.901   0.944
 5393SOL     OW16930   2.125   4.050   0.720
 5393SOL    HW116931   2.046   4.101   0.686
 5393SOL    HW216932   2.116   4.035   0.818
 5394SOL     OW16933   2.901   4.822   0.696
 5394SOL    HW116934   2.831   4.775   0.750
 5394SOL    HW216935   2.960   4.754   0.653
 5395SOL     OW16936   2.876   3.960   0.971
 5395SOL    HW116937   2.868   3.924   0.878
 5395SOL    HW216938   2.874   3.884   1.036
 5396SOL     OW16939   3.571   4.109   1.381
 5396SOL    HW116940   3.644   4.178   1.385
 5396SOL    HW216941   3.599   4.034   1.322
 5397SOL     OW16942   2.534   3.927   1.489
 5397SOL    HW116943   2.624   3.911   1.449
 5397SOL    HW216944   2.542   3.932   1.588
 5398SOL     OW16945   1.937   4.069   0.033
 5398SOL    HW116946   1.845   4.041   0.004
 5398SOL    HW216947   1.968   4.146  -0.023
 5399SOL     OW16948   1.934   3.890   0.318
 5399SOL    HW116949   1.917   3.973   0.264
 5399SOL    HW216950   2.024   3.853   0.296
 5400SOL     OW16951   2.578   4.289   1.708
 5400SOL    HW116952   2.597   4.354   1.782
 5400SOL    HW216953   2.638   4.209   1.717
 5401SOL     OW16954   3.087   4.049   0.449
 5401SOL    HW116955   3.152   3.975   0.438
 5401SOL    HW216956   3.107   4.099   0.533
 5402SOL     OW16957   3.639   4.066   1.642
 5402SOL    HW116958   3.622   4.097   1.548
 5402SOL    HW216959   3.555   4.029   1.680
 5403SOL     OW16960   2.945   4.708   0.087
 5403SOL    HW116961   2.922   4.761   0.005
 5403SOL    HW216962   3.026   4.652   0.068
 5404SOL     OW16963   3.686   3.916   1.227
 5404SOL    HW116964   3.682   3.826   1.271
 5404SOL    HW216965   3.689   3.905   1.128
 5405SOL     OW16966   2.290   4.148   0.520
 5405SOL    HW116967   2.320   4.076   0.458
 5405SOL    HW216968   2.251   4.108   0.603
 5406SOL     OW16969   2.179   4.271   1.280
 5406SOL    HW116970   2.217   4.212   1.352
 5406SOL    HW216971   2.219   4.245   1.192
 5407SOL     OW16972   3.286   3.938   1.112
 5407SOL    HW116973   3.338   3.873   1.167
 5407SOL    HW216974   3.237   4.001   1.173
 5408SOL     OW16975   2.863   3.758   1.154
 5408SOL    HW116976   2.800   3.686   1.123
 5408SOL    HW216977   2.956   3.722   1.154
 5409SOL     OW16978   3.214   3.776   0.168
 5409SOL    HW116979   3.249   3.735   0.084
 5409SOL    HW216980   3.124   3.738   0.188
 5410SOL     OW16981   3.162   4.177   0.691
 5410SOL    HW116982   3.103   4.257   0.695
 5410SOL    HW216983   3.177   4.142   0.784
 5411SOL     OW16984   3.455   3.945   0.882
 5411SOL    HW116985   3.371   3.944   0.936
 5411SOL    HW216986   3.457   4.028   0.826
 5412SOL     OW16987   2.092   4.352   1.975
 5412SOL    HW116988   1.999   4.350   2.012
 5412SOL    HW216989   2.093   4.313   1.883
 5413SOL     OW16990   2.087   3.999   2.858
 5413SOL    HW116991   2.122   3.982   2.950
 5413SOL    HW216992   1.999   3.954   2.846
 5414SOL     OW16993   1.881   4.092   2.509
 5414SOL    HW116994   1.799   4.135   2.548
 5414SOL    HW216995   1.853   4.019   2.446
 5415SOL     OW16996   3.617   4.331   2.093
 5415SOL    HW116997   3.605   4.318   1.994
 5415SOL    HW216998   3.587   4.250   2.142
 5416SOL     OW16999   2.547   4.736   2.527
 5416SOL    HW117000   2.616   4.720   2.597
 5416SOL    HW217001   2.474   4.793   2.565
 5417SOL     OW17002   2.300   4.116   3.361
 5417SOL    HW117003   2.382   4.060   3.370
 5417SOL    HW217004   2.219   4.058   3.365
 5418SOL     OW17005   3.465   4.171   2.599
 5418SOL    HW117006   3.391   4.217   2.549
 5418SOL    HW217007   3.516   4.239   2.652
 5419SOL     OW17008   3.456   3.838   3.342
 5419SOL    HW117009   3.438   3.905   3.270
 5419SOL    HW217010   3.453   3.884   3.431
 5420SOL     OW17011   1.984   4.367   2.425
 5420SOL    HW117012   1.939   4.279   2.442
 5420SOL    HW217013   1.983   4.421   2.509
 5421SOL     OW17014   1.975   4.461   3.459
 5421SOL    HW117015   2.063   4.448   3.504
 5421SOL    HW217016   1.962   4.558   3.437
 5422SOL     OW17017   2.671   3.728   2.364
 5422SOL    HW117018   2.711   3.819   2.355
 5422SOL    HW217019   2.571   3.736   2.370
 5423SOL     OW17020   2.179   3.975   3.663
 5423SOL    HW117021   2.250   4.046   3.669
 5423SOL    HW217022   2.091   4.014   3.691
 5424SOL     OW17023   3.143   4.069   2.806
 5424SOL    HW117024   3.057   4.019   2.793
 5424SOL    HW217025   3.205   4.015   2.862
 5425SOL     OW17026   2.669   4.329   3.327
 5425SOL    HW117027   2.622   4.326   3.416
 5425SOL    HW217028   2.618   4.274   3.261
 5426SOL     OW17029   3.256   4.193   3.536
 5426SOL    HW117030   3.236   4.236   3.624
 5426SOL    HW217031   3.334   4.131   3.545
 5427SOL     OW17032   2.853   4.134   3.104
 5427SOL    HW117033   2.776   4.168   3.158
 5427SOL    HW217034   2.819   4.083   3.025
 5428SOL     OW17035   2.903   4.425   2.291
 5428SOL    HW117036   2.929   4.421   2.387
 5428SOL    HW217037   2.818   4.374   2.277
 5429SOL     OW17038   2.727   4.072   2.057
 5429SOL    HW117039   2.786   4.135   2.008
 5429SOL    HW217040   2.746   3.978   2.028
 5430SOL     OW17041   3.581   4.309   3.693
 5430SOL    HW117042   3.555   4.398   3.657
 5430SOL    HW217043   3.579   4.241   3.620
 5431SOL     OW17044   2.412   3.920   2.747
 5431SOL    HW117045   2.407   3.915   2.847
 5431SOL    HW217046   2.414   4.016   2.718
 5432SOL     OW17047   3.320   4.459   2.590
 5432SOL    HW117048   3.315   4.394   2.665
 5432SOL    HW217049   3.400   4.518   2.603
 5433SOL     OW17050   2.064   4.009   3.360
 5433SOL    HW117051   1.984   4.069   3.347
 5433SOL    HW217052   2.054   3.960   3.446
 5434SOL     OW17053   3.262   3.831   2.288
 5434SOL    HW117054   3.238   3.794   2.198
 5434SOL    HW217055   3.361   3.847   2.292
 5435SOL     OW17056   2.244   4.424   2.342
 5435SOL    HW117057   2.289   4.334   2.339
 5435SOL    HW217058   2.150   4.413   2.375
 5436SOL     OW17059   3.409   3.946   3.591
 5436SOL    HW117060   3.404   3.983   3.683
 5436SOL    HW217061   3.337   3.877   3.579
 5437SOL     OW17062   2.476   3.846   1.979
 5437SOL    HW117063   2.574   3.824   1.986
 5437SOL    HW217064   2.445   3.829   1.886
 5438SOL     OW17065   2.643   3.988   3.611
 5438SOL    HW117066   2.710   3.927   3.654
 5438SOL    HW217067   2.570   4.007   3.676
 5439SOL     OW17068   3.213   4.314   3.295
 5439SOL    HW117069   3.241   4.271   3.380
 5439SOL    HW217070   3.238   4.410   3.296
 5440SOL     OW17071   2.784   4.227   2.761
 5440SOL    HW117072   2.759   4.218   2.665
 5440SOL    HW217073   2.832   4.145   2.792
 5441SOL     OW17074   2.401   3.788   2.374
 5441SOL    HW117075   2.320   3.789   2.432
 5441SOL    HW217076   2.404   3.871   2.319
 5442SOL     OW17077   2.159   3.759   2.033
 5442SOL    HW117078   2.208   3.843   2.012
 5442SOL    HW217079   2.221   3.694   2.078
 5443SOL     OW17080   2.797   3.960   2.342
 5443SOL    HW117081   2.749   4.001   2.264
 5443SOL    HW217082   2.896   3.958   2.323
 5444SOL     OW17083   2.938   4.407   3.326
 5444SOL    HW117084   2.858   4.346   3.329
 5444SOL    HW217085   3.019   4.354   3.302
 5445SOL     OW17086   2.894   4.273   1.878
 5445SOL    HW117087   2.853   4.355   1.839
 5445SOL    HW217088   2.958   4.299   1.951
 5446SOL     OW17089   1.940   4.280   3.248
 5446SOL    HW117090   2.032   4.279   3.207
 5446SOL    HW217091   1.934   4.354   3.315
 5447SOL     OW17092   2.423   3.946   3.009
 5447SOL    HW117093   2.461   3.862   3.046
 5447SOL    HW217094   2.335   3.965   3.053
 5448SOL     OW17095   2.728   4.178   2.504
 5448SOL    HW117096   2.696   4.250   2.442
 5448SOL    HW217097   2.752   4.097   2.451
 5449SOL     OW17098   2.879   3.763   2.615
 5449SOL    HW117099   2.807   3.768   2.546
 5449SOL    HW217100   2.855   3.694   2.684
 5450SOL     OW17101   3.328   4.314   2.854
 5450SOL    HW117102   3.298   4.219   2.861
 5450SOL    HW217103   3.401   4.330   2.920
 5451SOL     OW17104   3.252   4.299   1.940
 5451SOL    HW117105   3.198   4.278   2.021
 5451SOL    HW217106   3.343   4.258   1.949
 5452SOL     OW17107   2.389   3.980   2.190
 5452SOL    HW117108   2.416   3.921   2.115
 5452SOL    HW217109   2.389   4.075   2.159
 5453SOL     OW17110   2.777   3.813   3.264
 5453SOL    HW117111   2.802   3.793   3.169
 5453SOL    HW217112   2.849   3.869   3.306
 5454SOL     OW17113   2.272   4.537   3.113
 5454SOL    HW117114   2.358   4.549   3.163
 5454SOL    HW217115   2.230   4.450   3.140
 5455SOL     OW17116   3.136   4.110   3.124
 5455SOL    HW117117   3.157   4.184   3.188
 5455SOL    HW217118   3.047   4.127   3.081
 5456SOL     OW17119   2.428   4.261   2.727
 5456SOL    HW117120   2.440   4.327   2.653
 5456SOL    HW217121   2.474   4.295   2.810
 5457SOL     OW17122   3.444   4.363   2.334
 5457SOL    HW117123   3.413   4.424   2.407
 5457SOL    HW217124   3.494   4.415   2.265
 5458SOL     OW17125   2.875   3.829   3.632
 5458SOL    HW117126   2.881   3.914   3.580
 5458SOL    HW217127   2.907   3.753   3.575
 5459SOL     OW17128   2.366   3.774   3.602
 5459SOL    HW117129   2.324   3.717   3.532
 5459SOL    HW217130   2.300   3.843   3.634
 5460SOL     OW17131   3.071   4.249   2.137
 5460SOL    HW117132   3.084   4.165   2.191
 5460SOL    HW217133   3.042   4.323   2.197
 5461SOL     OW17134   2.169   3.937   3.093
 5461SOL    HW117135   2.146   3.974   3.183
 5461SOL    HW217136   2.139   3.842   3.087
 5462SOL     OW17137   2.594   4.358   2.926
 5462SOL    HW117138   2.653   4.332   2.850
 5462SOL    HW217139   2.566   4.454   2.915
 5463SOL     OW17140   3.590   4.659   3.716
 5463SOL    HW117141   3.544   4.652   3.627
 5463SOL    HW217142   3.528   4.703   3.782
 5464SOL     OW17143   2.169   3.787   2.480
 5464SOL    HW117144   2.158   3.881   2.513
 5464SOL    HW217145   2.164   3.724   2.557
 5465SOL     OW17146   3.484   4.091   2.236
 5465SOL    HW117147   3.486   4.015   2.300
 5465SOL    HW217148   3.436   4.168   2.276
 5466SOL     OW17149   3.402   3.998   1.987
 5466SOL    HW117150   3.341   3.923   2.010
 5466SOL    HW217151   3.424   4.050   2.070
 5467SOL     OW17152   2.181   4.534   2.811
 5467SOL    HW117153   2.274   4.570   2.816
 5467SOL    HW217154   2.175   4.449   2.863
 5468SOL     OW17155   2.201   4.233   2.868
 5468SOL    HW117156   2.149   4.150   2.851
 5468SOL    HW217157   2.278   4.238   2.804
 5469SOL     OW17158   3.000   4.104   3.540
 5469SOL    HW117159   2.955   4.167   3.604
 5469SOL    HW217160   3.093   4.135   3.523
 5470SOL     OW17161   3.022   3.931   3.339
 5470SOL    HW117162   3.022   3.995   3.416
 5470SOL    HW217163   3.050   3.979   3.256
 5471SOL     OW17164   1.902   4.268   2.976
 5471SOL    HW117165   1.987   4.235   2.935
 5471SOL    HW217166   1.915   4.283   3.074
 5472SOL     OW17167   2.051   4.244   3.584
 5472SOL    HW117168   2.110   4.204   3.514
 5472SOL    HW217169   1.993   4.315   3.543
 5473SOL     OW17170   2.677   4.296   2.187
 5473SOL    HW117171   2.684   4.207   2.141
 5473SOL    HW217172   2.583   4.330   2.179
 5474SOL     OW17173   3.519   4.328   3.068
 5474SOL    HW117174   3.481   4.259   3.130
 5474SOL    HW217175   3.601   4.292   3.024
 5475SOL     OW17176   2.533   4.188   3.131
 5475SOL    HW117177   2.499   4.099   3.101
 5475SOL    HW217178   2.559   4.242   3.051
 5476SOL     OW17179   2.335   4.224   2.053
 5476SOL    HW117180   2.396   4.304   2.057
 5476SOL    HW217181   2.240   4.255   2.060
 5477SOL     OW17182   3.588   3.859   2.385
 5477SOL    HW117183   3.661   3.842   2.318
 5477SOL    HW217184   3.557   3.772   2.423
 5478SOL     OW17185   3.142   4.651   2.534
 5478SOL    HW117186   3.202   4.570   2.536
 5478SOL    HW217187   3.182   4.720   2.474
 5479SOL     OW17188   3.703   3.899   2.825
 5479SOL    HW117189   3.742   3.814   2.789
 5479SOL    HW217190   3.605   3.901   2.806
 5480SOL     OW17191   2.125   4.050   2.582
 5480SOL    HW117192   2.046   4.101   2.548
 5480SOL    HW217193   2.116   4.035   2.680
 5481SOL     OW17194   2.778   4.634   2.153
 5481SOL    HW117195   2.841   4.672   2.085
 5481SOL    HW217196   2.818   4.551   2.192
 5482SOL     OW17197   2.901   4.822   2.558
 5482SOL    HW117198   2.831   4.775   2.612
 5482SOL    HW217199   2.960   4.754   2.515
 5483SOL     OW17200   2.876   3.960   2.833
 5483SOL    HW117201   2.868   3.924   2.740
 5483SOL    HW217202   2.874   3.884   2.898
 5484SOL     OW17203   3.571   4.109   3.243
 5484SOL    HW117204   3.644   4.178   3.247
 5484SOL    HW217205   3.599   4.034   3.184
 5485SOL     OW17206   2.534   3.927   3.351
 5485SOL    HW117207   2.624   3.911   3.311
 5485SOL    HW217208   2.542   3.932   3.450
 5486SOL     OW17209   1.937   4.069   1.895
 5486SOL    HW117210   1.845   4.041   1.866
 5486SOL    HW217211   1.968   4.146   1.839
 5487SOL     OW17212   1.934   3.890   2.180
 5487SOL    HW117213   1.917   3.973   2.126
 5487SOL    HW217214   2.024   3.853   2.158
 5488SOL     OW17215   2.578   4.289   3.570
 5488SOL    HW117216   2.597   4.354   3.644
 5488SOL    HW217217   2.638   4.209   3.579
 5489SOL     OW17218   3.087   4.049   2.311
 5489SOL    HW117219   3.152   3.975   2.300
 5489SOL    HW217220   3.107   4.099   2.395
 5490SOL     OW17221   3.639   4.066   3.504
 5490SOL    HW117222   3.622   4.097   3.410
 5490SOL    HW217223   3.555   4.029   3.542
 5491SOL     OW17224   2.945   4.708   1.949
 5491SOL    HW117225   2.922   4.761   1.867
 5491SOL    HW217226   3.026   4.652   1.930
 5492SOL     OW17227   3.686   3.916   3.089
 5492SOL    HW117228   3.682   3.826   3.133
 5492SOL    HW217229   3.689   3.905   2.990
 5493SOL     OW17230   2.290   4.148   2.382
 5493SOL    HW117231   2.320   4.076   2.320
 5493SOL    HW217232   2.251   4.108   2.465
 5494SOL     OW17233   2.179   4.271   3.142
 5494SOL    HW117234   2.217   4.212   3.214
 5494SOL    HW217235   2.219   4.245   3.054
 5495SOL     OW17236   3.286   3.938   2.974
 5495SOL    HW117237   3.338   3.873   3.029
 5495SOL    HW217238   3.237   4.001   3.035
 5496SOL     OW17239   2.863   3.758   3.016
 5496SOL    HW117240   2.800   3.686   2.985
 5496SOL    HW217241   2.956   3.722   3.016
 5497SOL     OW17242   3.214   3.776   2.030
 5497SOL    HW117243   3.249   3.735   1.946
 5497SOL    HW217244   3.124   3.738   2.050
 5498SOL     OW17245   3.162   4.177   2.553
 5498SOL    HW117246   3.103   4.257   2.557
 5498SOL    HW217247   3.177   4.142   2.646
 5499SOL     OW17248   3.455   3.945   2.744
 5499SOL    HW117249   3.371   3.944   2.798
 5499SOL    HW217250   3.457   4.028   2.688
 5500SOL     OW17251   2.092   4.352   3.837
 5500SOL    HW117252   1.999   4.350   3.874
 5500SOL    HW217253   2.093   4.313   3.745
 5501SOL     OW17254   2.087   3.999   4.720
 5501SOL    HW117255   2.122   3.982   4.812
 5501SOL    HW217256   1.999   3.954   4.708
 5502SOL     OW17257   1.881   4.092   4.371
 5502SOL    HW117258   1.799   4.135   4.410
 5502SOL    HW217259   1.853   4.019   4.308
 5503SOL     OW17260   3.617   4.331   3.955
 5503SOL    HW117261   3.605   4.318   3.856
 5503SOL    HW217262   3.587   4.250   4.004
 5504SOL     OW17263   2.547   4.736   4.389
 5504SOL    HW117264   2.616   4.720   4.459
 5504SOL    HW217265   2.474   4.793   4.427
 5505SOL     OW17266   2.300   4.116   5.223
 5505SOL    HW117267   2.382   4.060   5.232
 5505SOL    HW217268   2.219   4.058   5.227
 5506SOL     OW17269   3.465   4.171   4.461
 5506SOL    HW117270   3.391   4.217   4.411
 5506SOL    HW217271   3.516   4.239   4.514
 5507SOL     OW17272   3.456   3.838   5.204
 5507SOL    HW117273   3.438   3.905   5.132
 5507SOL    HW217274   3.453   3.884   5.293
 5508SOL     OW17275   1.984   4.367   4.287
 5508SOL    HW117276   1.939   4.279   4.304
 5508SOL    HW217277   1.983   4.421   4.371
 5509SOL     OW17278   1.975   4.461   5.321
 5509SOL    HW117279   2.063   4.448   5.366
 5509SOL    HW217280   1.962   4.558   5.299
 5510SOL     OW17281   2.671   3.728   4.226
 5510SOL    HW117282   2.711   3.819   4.217
 5510SOL    HW217283   2.571   3.736   4.232
 5511SOL     OW17284   2.179   3.975   5.525
 5511SOL    HW117285   2.250   4.046   5.531
 5511SOL    HW217286   2.091   4.014   5.553
 5512SOL     OW17287   3.143   4.069   4.668
 5512SOL    HW117288   3.057   4.019   4.655
 5512SOL    HW217289   3.205   4.015   4.724
 5513SOL     OW17290   2.669   4.329   5.189
 5513SOL    HW117291   2.622   4.326   5.278
 5513SOL    HW217292   2.618   4.274   5.123
 5514SOL     OW17293   3.256   4.193   5.398
 5514SOL    HW117294   3.236   4.236   5.486
 5514SOL    HW217295   3.334   4.131   5.407
 5515SOL     OW17296   2.853   4.134   4.966
 5515SOL    HW117297   2.776   4.168   5.020
 5515SOL    HW217298   2.819   4.083   4.887
 5516SOL     OW17299   2.903   4.425   4.153
 5516SOL    HW117300   2.929   4.421   4.249
 5516SOL    HW217301   2.818   4.374   4.139
 5517SOL     OW17302   2.727   4.072   3.919
 5517SOL    HW117303   2.786   4.135   3.870
 5517SOL    HW217304   2.746   3.978   3.890
 5518SOL     OW17305   3.581   4.309   5.555
 5518SOL    HW117306   3.555   4.398   5.519
 5518SOL    HW217307   3.579   4.241   5.482
 5519SOL     OW17308   2.412   3.920   4.609
 5519SOL    HW117309   2.407   3.915   4.709
 5519SOL    HW217310   2.414   4.016   4.580
 5520SOL     OW17311   3.320   4.459   4.452
 5520SOL    HW117312   3.315   4.394   4.527
 5520SOL    HW217313   3.400   4.518   4.465
 5521SOL     OW17314   2.064   4.009   5.222
 5521SOL    HW117315   1.984   4.069   5.209
 5521SOL    HW217316   2.054   3.960   5.308
 5522SOL     OW17317   3.262   3.831   4.150
 5522SOL    HW117318   3.238   3.794   4.060
 5522SOL    HW217319   3.361   3.847   4.154
 5523SOL     OW17320   2.244   4.424   4.204
 5523SOL    HW117321   2.289   4.334   4.201
 5523SOL    HW217322   2.150   4.413   4.237
 5524SOL     OW17323   3.409   3.946   5.453
 5524SOL    HW117324   3.404   3.983   5.545
 5524SOL    HW217325   3.337   3.877   5.441
 5525SOL     OW17326   2.476   3.846   3.841
 5525SOL    HW117327   2.574   3.824   3.848
 5525SOL    HW217328   2.445   3.829   3.748
 5526SOL     OW17329   2.643   3.988   5.473
 5526SOL    HW117330   2.710   3.927   5.516
 5526SOL    HW217331   2.570   4.007   5.538
 5527SOL     OW17332   3.213   4.314   5.157
 5527SOL    HW117333   3.241   4.271   5.242
 5527SOL    HW217334   3.238   4.410   5.158
 5528SOL     OW17335   2.784   4.227   4.623
 5528SOL    HW117336   2.759   4.218   4.527
 5528SOL    HW217337   2.832   4.145   4.654
 5529SOL     OW17338   2.401   3.788   4.236
 5529SOL    HW117339   2.320   3.789   4.294
 5529SOL    HW217340   2.404   3.871   4.181
 5530SOL     OW17341   2.159   3.759   3.895
 5530SOL    HW117342   2.208   3.843   3.874
 5530SOL    HW217343   2.221   3.694   3.940
 5531SOL     OW17344   2.797   3.960   4.204
 5531SOL    HW117345   2.749   4.001   4.126
 5531SOL    HW217346   2.896   3.958   4.185
 5532SOL     OW17347   2.938   4.407   5.188
 5532SOL    HW117348   2.858   4.346   5.191
 5532SOL    HW217349   3.019   4.354   5.164
 5533SOL     OW17350   2.894   4.273   3.740
 5533SOL    HW117351   2.853   4.355   3.701
 5533SOL    HW217352   2.958   4.299   3.813
 5534SOL     OW17353   1.940   4.280   5.110
 5534SOL    HW117354   2.032   4.279   5.069
 5534SOL    HW217355   1.934   4.354   5.177
 5535SOL     OW17356   2.423   3.946   4.871
 5535SOL    HW117357   2.461   3.862   4.908
 5535SOL    HW217358   2.335   3.965   4.915
 5536SOL     OW17359   2.728   4.178   4.366
 5536SOL    HW117360   2.696   4.250   4.304
 5536SOL    HW217361   2.752   4.097   4.313
 5537SOL     OW17362   2.879   3.763   4.477
 5537SOL    HW117363   2.807   3.768   4.408
 5537SOL    HW217364   2.855   3.694   4.546
 5538SOL     OW17365   3.328   4.314   4.716
 5538SOL    HW117366   3.298   4.219   4.723
 5538SOL    HW217367   3.401   4.330   4.782
 5539SOL     OW17368   3.252   4.299   3.802
 5539SOL    HW117369   3.198   4.278   3.883
 5539SOL    HW217370   3.343   4.258   3.811
 5540SOL     OW17371   2.389   3.980   4.052
 5540SOL    HW117372   2.416   3.921   3.977
 5540SOL    HW217373   2.389   4.075   4.021
 5541SOL     OW17374   2.777   3.813   5.126
 5541SOL    HW117375   2.802   3.793   5.031
 5541SOL    HW217376   2.849   3.869   5.168
 5542SOL     OW17377   2.272   4.537   4.975
 5542SOL    HW117378   2.358   4.549   5.025
 5542SOL    HW217379   2.230   4.450   5.002
 5543SOL     OW17380   3.136   4.110   4.986
 5543SOL    HW117381   3.157   4.184   5.050
 5543SOL    HW217382   3.047   4.127   4.943
 5544SOL     OW17383   2.428   4.261   4.589
 5544SOL    HW117384   2.440   4.327   4.515
 5544SOL    HW217385   2.474   4.295   4.672
 5545SOL     OW17386   3.444   4.363   4.196
 5545SOL    HW117387   3.413   4.424   4.269
 5545SOL    HW217388   3.494   4.415   4.127
 5546SOL     OW17389   2.875   3.829   5.494
 5546SOL    HW117390   2.881   3.914   5.442
 5546SOL    HW217391   2.907   3.753   5.437
 5547SOL     OW17392   2.366   3.774   5.464
 5547SOL    HW117393   2.324   3.717   5.394
 5547SOL    HW217394   2.300   3.843   5.496
 5548SOL     OW17395   3.071   4.249   3.999
 5548SOL    HW117396   3.084   4.165   4.053
 5548SOL    HW217397   3.042   4.323   4.059
 5549SOL     OW17398   2.169   3.937   4.955
 5549SOL    HW117399   2.146   3.974   5.045
 5549SOL    HW217400   2.139   3.842   4.949
 5550SOL     OW17401   2.594   4.358   4.788
 5550SOL    HW117402   2.653   4.332   4.712
 5550SOL    HW217403   2.566   4.454   4.777
 5551SOL     OW17404   3.590   4.659   5.578
 5551SOL    HW117405   3.544   4.652   5.489
 5551SOL    HW217406   3.528   4.703   5.644
 5552SOL     OW17407   2.169   3.787   4.342
 5552SOL    HW117408   2.158   3.881   4.375
 5552SOL    HW217409   2.164   3.724   4.419
 5553SOL     OW17410   3.484   4.091   4.098
 5553SOL    HW117411   3.486   4.015   4.162
 5553SOL    HW217412   3.436   4.168   4.138
 5554SOL     OW17413   3.402   3.998   3.849
 5554SOL    HW117414   3.341   3.923   3.872
 5554SOL    HW217415   3.424   4.050   3.932
 5555SOL     OW17416   2.181   4.534   4.673
 5555SOL    HW117417   2.274   4.570   4.678
 5555SOL    HW217418   2.175   4.449   4.725
 5556SOL     OW17419   2.201   4.233   4.730
 5556SOL    HW117420   2.149   4.150   4.713
 5556SOL    HW217421   2.278   4.238   4.666
 5557SOL     OW17422   3.000   4.104   5.402
 5557SOL    HW117423   2.955   4.167   5.466
 5557SOL    HW217424   3.093   4.135   5.385
 5558SOL     OW17425   3.022   3.931   5.201
 5558SOL    HW117426   3.022   3.995   5.278
 5558SOL    HW217427   3.050   3.979   5.118
 5559SOL     OW17428   1.902   4.268   4.838
 5559SOL    HW117429   1.987   4.235   4.797
 5559SOL    HW217430   1.915   4.283   4.936
 5560SOL     OW17431   2.051   4.244   5.446
 5560SOL    HW117432   2.110   4.204   5.376
 5560SOL    HW217433   1.993   4.315   5.405
 5561SOL     OW17434   2.677   4.296   4.049
 5561SOL    HW117435   2.684   4.207   4.003
 5561SOL    HW217436   2.583   4.330   4.041
 5562SOL     OW17437   3.519   4.328   4.930
 5562SOL    HW117438   3.481   4.259   4.992
 5562SOL    HW217439   3.601   4.292   4.886
 5563SOL     OW17440   2.533   4.188   4.993
 5563SOL    HW117441   2.499   4.099   4.963
 5563SOL    HW217442   2.559   4.242   4.913
 5564SOL     OW17443   2.335   4.224   3.915
 5564SOL    HW117444   2.396   4.304   3.919
 5564SOL    HW217445   2.240   4.255   3.922
 5565SOL     OW17446   3.588   3.859   4.247
 5565SOL    HW117447   3.661   3.842   4.180
 5565SOL    HW217448   3.557   3.772   4.285
 5566SOL     OW17449   3.142   4.651   4.396
 5566SOL    HW117450   3.202   4.570   4.398
 5566SOL    HW217451   3.182   4.720   4.336
 5567SOL     OW17452   3.703   3.899   4.687
 5567SOL    HW117453   3.742   3.814   4.651
 5567SOL    HW217454   3.605   3.901   4.668
 5568SOL     OW17455   2.125   4.050   4.444
 5568SOL    HW117456   2.046   4.101   4.410
 5568SOL    HW217457   2.116   4.035   4.542
 5569SOL     OW17458   2.778   4.634   4.015
 5569SOL    HW117459   2.841   4.672   3.947
 5569SOL    HW217460   2.818   4.551   4.054
 5570SOL     OW17461   2.901   4.822   4.420
 5570SOL    HW117462   2.831   4.775   4.474
 5570SOL    HW217463   2.960   4.754   4.377
 5571SOL     OW17464   2.876   3.960   4.695
 5571SOL    HW117465   2.868   3.924   4.602
 5571SOL    HW217466   2.874   3.884   4.760
 5572SOL     OW17467   3.571   4.109   5.105
 5572SOL    HW117468   3.644   4.178   5.109
 5572SOL    HW217469   3.599   4.034   5.046
 5573SOL     OW17470   2.534   3.927   5.213
 5573SOL    HW117471   2.624   3.911   5.173
 5573SOL    HW217472   2.542   3.932   5.312
 5574SOL     OW17473   1.937   4.069   3.757
 5574SOL    HW117474   1.845   4.041   3.728
 5574SOL    HW217475   1.968   4.146   3.701
 5575SOL     OW17476   1.934   3.890   4.042
 5575SOL    HW117477   1.917   3.973   3.988
 5575SOL    HW217478   2.024   3.853   4.020
 5576SOL     OW17479   2.578   4.289   5.432
 5576SOL    HW117480   2.597   4.354   5.506
 5576SOL    HW217481   2.638   4.209   5.441
 5577SOL     OW17482   3.087   4.049   4.173
 5577SOL    HW117483   3.152   3.975   4.162
 5577SOL    HW217484   3.107   4.099   4.257
 5578SOL     OW17485   3.639   4.066   5.366
 5578SOL    HW117486   3.622   4.097   5.272
 5578SOL    HW217487   3.555   4.029   5.404
 5579SOL     OW17488   2.945   4.708   3.811
 5579SOL    HW117489   2.922   4.761   3.729
 5579SOL    HW217490   3.026   4.652   3.792
 5580SOL     OW17491   3.686   3.916   4.951
 5580SOL    HW117492   3.682   3.826   4.995
 5580SOL    HW217493   3.689   3.905   4.852
 5581SOL     OW17494   2.290   4.148   4.244
 5581SOL    HW117495   2.320   4.076   4.182
 5581SOL    HW217496   2.251   4.108   4.327
 5582SOL     OW17497   2.179   4.271   5.004
 5582SOL    HW117498   2.217   4.212   5.076
 5582SOL    HW217499   2.219   4.245   4.916
 5583SOL     OW17500   3.286   3.938   4.836
 5583SOL    HW117501   3.338   3.873   4.891
 5583SOL    HW217502   3.237   4.001   4.897
 5584SOL     OW17503   2.863   3.758   4.878
 5584SOL    HW117504   2.800   3.686   4.847
 5584SOL    HW217505   2.956   3.722   4.878
 5585SOL     OW17506   3.214   3.776   3.892
 5585SOL    HW117507   3.249   3.735   3.808
 5585SOL    HW217508   3.124   3.738   3.912
 5586SOL     OW17509   3.162   4.177   4.415
 5586SOL    HW117510   3.103   4.257   4.419
 5586SOL    HW217511   3.177   4.142   4.508
 5587SOL     OW17512   3.455   3.945   4.606
 5587SOL    HW117513   3.371   3.944   4.660
 5587SOL    HW217514   3.457   4.028   4.550
 5588SOL     OW17515   2.092   4.352   5.699
 5588SOL    HW117516   1.999   4.350   5.736
 5588SOL    HW217517   2.093   4.313   5.607
 5589SOL     OW17518   2.087   3.999   6.582
 5589SOL    HW117519   2.122   3.982   6.674
 5589SOL    HW217520   1.999   3.954   6.570
 5590SOL     OW17521   1.881   4.092   6.233
 5590SOL    HW117522   1.799   4.135   6.272
 5590SOL    HW217523   1.853   4.019   6.170
 5591SOL     OW17524   3.617   4.331   5.817
 5591SOL    HW117525   3.605   4.318   5.718
 5591SOL    HW217526   3.587   4.250   5.866
 5592SOL     OW17527   2.547   4.736   6.251
 5592SOL    HW117528   2.616   4.720   6.321
 5592SOL    HW217529   2.474   4.793   6.289
 5593SOL     OW17530   2.300   4.116   7.085
 5593SOL    HW117531   2.382   4.060   7.094
 5593SOL    HW217532   2.219   4.058   7.089
 5594SOL     OW17533   3.465   4.171   6.323
 5594SOL    HW117534   3.391   4.217   6.273
 5594SOL    HW217535   3.516   4.239   6.376
 5595SOL     OW17536   3.456   3.838   7.066
 5595SOL    HW117537   3.438   3.905   6.994
 5595SOL    HW217538   3.453   3.884   7.155
 5596SOL     OW17539   1.984   4.367   6.149
 5596SOL    HW117540   1.939   4.279   6.166
 5596SOL    HW217541   1.983   4.421   6.233
 5597SOL     OW17542   1.975   4.461   7.183
 5597SOL    HW117543   2.063   4.448   7.228
 5597SOL    HW217544   1.962   4.558   7.161
 5598SOL     OW17545   2.671   3.728   6.088
 5598SOL    HW117546   2.711   3.819   6.079
 5598SOL    HW217547   2.571   3.736   6.094
 5599SOL     OW17548   2.179   3.975   7.387
 5599SOL    HW117549   2.250   4.046   7.393
 5599SOL    HW217550   2.091   4.014   7.415
 5600SOL     OW17551   3.143   4.069   6.530
 5600SOL    HW117552   3.057   4.019   6.517
 5600SOL    HW217553   3.205   4.015   6.586
 5601SOL     OW17554   2.669   4.329   7.051
 5601SOL    HW117555   2.622   4.326   7.140
 5601SOL    HW217556   2.618   4.274   6.985
 5602SOL     OW17557   3.256   4.193   7.260
 5602SOL    HW117558   3.236   4.236   7.348
 5602SOL    HW217559   3.334   4.131   7.269
 5603SOL     OW17560   2.853   4.134   6.828
 5603SOL    HW117561   2.776   4.168   6.882
 5603SOL    HW217562   2.819   4.083   6.749
 5604SOL     OW17563   2.903   4.425   6.015
 5604SOL    HW117564   2.929   4.421   6.111
 5604SOL    HW217565   2.818   4.374   6.001
 5605SOL     OW17566   2.727   4.072   5.781
 5605SOL    HW117567   2.786   4.135   5.732
 5605SOL    HW217568   2.746   3.978   5.752
 5606SOL     OW17569   3.581   4.309   7.417
 5606SOL    HW117570   3.555   4.398   7.381
 5606SOL    HW217571   3.579   4.241   7.344
 5607SOL     OW17572   2.412   3.920   6.471
 5607SOL    HW117573   2.407   3.915   6.571
 5607SOL    HW217574   2.414   4.016   6.442
 5608SOL     OW17575   3.320   4.459   6.314
 5608SOL    HW117576   3.315   4.394   6.389
 5608SOL    HW217577   3.400   4.518   6.327
 5609SOL     OW17578   2.064   4.009   7.084
 5609SOL    HW117579   1.984   4.069   7.071
 5609SOL    HW217580   2.054   3.960   7.170
 5610SOL     OW17581   3.262   3.831   6.012
 5610SOL    HW117582   3.238   3.794   5.922
 5610SOL    HW217583   3.361   3.847   6.016
 5611SOL     OW17584   2.244   4.424   6.066
 5611SOL    HW117585   2.289   4.334   6.063
 5611SOL    HW217586   2.150   4.413   6.099
 5612SOL     OW17587   3.409   3.946   7.315
 5612SOL    HW117588   3.404   3.983   7.407
 5612SOL    HW217589   3.337   3.877   7.303
 5613SOL     OW17590   2.476   3.846   5.703
 5613SOL    HW117591   2.574   3.824   5.710
 5613SOL    HW217592   2.445   3.829   5.610
 5614SOL     OW17593   2.643   3.988   7.335
 5614SOL    HW117594   2.710   3.927   7.378
 5614SOL    HW217595   2.570   4.007   7.400
 5615SOL     OW17596   3.213   4.314   7.019
 5615SOL    HW117597   3.241   4.271   7.104
 5615SOL    HW217598   3.238   4.410   7.020
 5616SOL     OW17599   2.784   4.227   6.485
 5616SOL    HW117600   2.759   4.218   6.389
 5616SOL    HW217601   2.832   4.145   6.516
 5617SOL     OW17602   2.401   3.788   6.098
 5617SOL    HW117603   2.320   3.789   6.156
 5617SOL    HW217604   2.404   3.871   6.043
 5618SOL     OW17605   2.159   3.759   5.757
 5618SOL    HW117606   2.208   3.843   5.736
 5618SOL    HW217607   2.221   3.694   5.802
 5619SOL     OW17608   2.797   3.960   6.066
 5619SOL    HW117609   2.749   4.001   5.988
 5619SOL    HW217610   2.896   3.958   6.047
 5620SOL     OW17611   2.938   4.407   7.050
 5620SOL    HW117612   2.858   4.346   7.053
 5620SOL    HW217613   3.019   4.354   7.026
 5621SOL     OW17614   2.894   4.273   5.602
 5621SOL    HW117615   2.853   4.355   5.563
 5621SOL    HW217616   2.958   4.299   5.675
 5622SOL     OW17617   1.940   4.280   6.972
 5622SOL    HW117618   2.032   4.279   6.931
 5622SOL    HW217619   1.934   4.354   7.039
 5623SOL     OW17620   2.423   3.946   6.733
 5623SOL    HW117621   2.461   3.862   6.770
 5623SOL    HW217622   2.335   3.965   6.777
 5624SOL     OW17623   2.728   4.178   6.228
 5624SOL    HW117624   2.696   4.250   6.166
 5624SOL    HW217625   2.752   4.097   6.175
 5625SOL     OW17626   2.879   3.763   6.339
 5625SOL    HW117627   2.807   3.768   6.270
 5625SOL    HW217628   2.855   3.694   6.408
 5626SOL     OW17629   3.328   4.314   6.578
 5626SOL    HW117630   3.298   4.219   6.585
 5626SOL    HW217631   3.401   4.330   6.644
 5627SOL     OW17632   3.252   4.299   5.664
 5627SOL    HW117633   3.198   4.278   5.745
 5627SOL    HW217634   3.343   4.258   5.673
 5628SOL     OW17635   2.389   3.980   5.914
 5628SOL    HW117636   2.416   3.921   5.839
 5628SOL    HW217637   2.389   4.075   5.883
 5629SOL     OW17638   2.777   3.813   6.988
 5629SOL    HW117639   2.802   3.793   6.893
 5629SOL    HW217640   2.849   3.869   7.030
 5630SOL     OW17641   2.272   4.537   6.837
 5630SOL    HW117642   2.358   4.549   6.887
 5630SOL    HW217643   2.230   4.450   6.864
 5631SOL     OW17644   3.136   4.110   6.848
 5631SOL    HW117645   3.157   4.184   6.912
 5631SOL    HW217646   3.047   4.127   6.805
 5632SOL     OW17647   2.428   4.261   6.451
 5632SOL    HW117648   2.440   4.327   6.377
 5632SOL    HW217649   2.474   4.295   6.534
 5633SOL     OW17650   3.444   4.363   6.058
 5633SOL    HW117651   3.413   4.424   6.131
 5633SOL    HW217652   3.494   4.415   5.989
 5634SOL     OW17653   2.875   3.829   7.356
 5634SOL    HW117654   2.881   3.914   7.304
 5634SOL    HW217655   2.907   3.753   7.299
 5635SOL     OW17656   2.366   3.774   7.326
 5635SOL    HW117657   2.324   3.717   7.256
 5635SOL    HW217658   2.300   3.843   7.358
 5636SOL     OW17659   3.071   4.249   5.861
 5636SOL    HW117660   3.084   4.165   5.915
 5636SOL    HW217661   3.042   4.323   5.921
 5637SOL     OW17662   2.169   3.937   6.817
 5637SOL    HW117663   2.146   3.974   6.907
 5637SOL    HW217664   2.139   3.842   6.811
 5638SOL     OW17665   2.594   4.358   6.650
 5638SOL    HW117666   2.653   4.332   6.574
 5638SOL    HW217667   2.566   4.454   6.639
 5639SOL     OW17668   3.590   4.659   7.440
 5639SOL    HW117669   3.544   4.652   7.351
 5639SOL    HW217670   3.528   4.703   7.506
 5640SOL     OW17671   2.169   3.787   6.204
 5640SOL    HW117672   2.158   3.881   6.237
 5640SOL    HW217673   2.164   3.724   6.281
 5641SOL     OW17674   3.484   4.091   5.960
 5641SOL    HW117675   3.486   4.015   6.024
 5641SOL    HW217676   3.436   4.168   6.000
 5642SOL     OW17677   3.402   3.998   5.711
 5642SOL    HW117678   3.341   3.923   5.734
 5642SOL    HW217679   3.424   4.050   5.794
 5643SOL     OW17680   2.181   4.534   6.535
 5643SOL    HW117681   2.274   4.570   6.540
 5643SOL    HW217682   2.175   4.449   6.587
 5644SOL     OW17683   2.201   4.233   6.592
 5644SOL    HW117684   2.149   4.150   6.575
 5644SOL    HW217685   2.278   4.238   6.528
 5645SOL     OW17686   3.000   4.104   7.264
 5645SOL    HW117687   2.955   4.167   7.328
 5645SOL    HW217688   3.093   4.135   7.247
 5646SOL     OW17689   3.022   3.931   7.063
 5646SOL    HW117690   3.022   3.995   7.140
 5646SOL    HW217691   3.050   3.979   6.980
 5647SOL     OW17692   1.902   4.268   6.700
 5647SOL    HW117693   1.987   4.235   6.659
 5647SOL    HW217694   1.915   4.283   6.798
 5648SOL     OW17695   2.051   4.244   7.308
 5648SOL    HW117696   2.110   4.204   7.238
 5648SOL    HW217697   1.993   4.315   7.267
 5649SOL     OW17698   2.677   4.296   5.911
 5649SOL    HW117699   2.684   4.207   5.865
 5649SOL    HW217700   2.583   4.330   5.903
 5650SOL     OW17701   3.519   4.328   6.792
 5650SOL    HW117702   3.481   4.259   6.854
 5650SOL    HW217703   3.601   4.292   6.748
 5651SOL     OW17704   2.533   4.188   6.855
 5651SOL    HW117705   2.499   4.099   6.825
 5651SOL    HW217706   2.559   4.242   6.775
 5652SOL     OW17707   2.335   4.224   5.777
 5652SOL    HW117708   2.396   4.304   5.781
 5652SOL    HW217709   2.240   4.255   5.784
 5653SOL     OW17710   3.588   3.859   6.109
 5653SOL    HW117711   3.661   3.842   6.042
 5653SOL    HW217712   3.557   3.772   6.147
 5654SOL     OW17713   3.142   4.651   6.258
 5654SOL    HW117714   3.202   4.570   6.260
 5654SOL    HW217715   3.182   4.720   6.198
 5655SOL     OW17716   3.703   3.899   6.549
 5655SOL    HW117717   3.742   3.814   6.513
 5655SOL    HW217718   3.605   3.901   6.530
 5656SOL     OW17719   2.125   4.050   6.306
 5656SOL    HW117720   2.046   4.101   6.272
 5656SOL    HW217721   2.116   4.035   6.404
 5657SOL     OW17722   2.778   4.634   5.877
 5657SOL    HW117723   2.841   4.672   5.809
 5657SOL    HW217724   2.818   4.551   5.916
 5658SOL     OW17725   2.901   4.822   6.282
 5658SOL    HW117726   2.831   4.775   6.336
 5658SOL    HW217727   2.960   4.754   6.239
 5659SOL     OW17728   2.876   3.960   6.557
 5659SOL    HW117729   2.868   3.924   6.464
 5659SOL    HW217730   2.874   3.884   6.622
 5660SOL     OW17731   3.571   4.109   6.967
 5660SOL    HW117732   3.644   4.178   6.971
 5660SOL    HW217733   3.599   4.034   6.908
 5661SOL     OW17734   2.534   3.927   7.075
 5661SOL    HW117735   2.624   3.911   7.035
 5661SOL    HW217736   2.542   3.932   7.174
 5662SOL     OW17737   1.937   4.069   5.619
 5662SOL    HW117738   1.845   4.041   5.590
 5662SOL    HW217739   1.968   4.146   5.563
 5663SOL     OW17740   1.934   3.890   5.904
 5663SOL    HW117741   1.917   3.973   5.850
 5663SOL    HW217742   2.024   3.853   5.882
 5664SOL     OW17743   2.578   4.289   7.294
 5664SOL    HW117744   2.597   4.354   7.368
 5664SOL    HW217745   2.638   4.209   7.303
 5665SOL     OW17746   3.087   4.049   6.035
 5665SOL    HW117747   3.152   3.975   6.024
 5665SOL    HW217748   3.107   4.099   6.119
 5666SOL     OW17749   3.639   4.066   7.228
 5666SOL    HW117750   3.622   4.097   7.134
 5666SOL    HW217751   3.555   4.029   7.266
 5667SOL     OW17752   2.945   4.708   5.673
 5667SOL    HW117753   2.922   4.761   5.591
 5667SOL    HW217754   3.026   4.652   5.654
 5668SOL     OW17755   3.686   3.916   6.813
 5668SOL    HW117756   3.682   3.826   6.857
 5668SOL    HW217757   3.689   3.905   6.714
 5669SOL     OW17758   2.290   4.148   6.106
 5669SOL    HW117759   2.320   4.076   6.044
 5669SOL    HW217760   2.251   4.108   6.189
 5670SOL     OW17761   2.179   4.271   6.866
 5670SOL    HW117762   2.217   4.212   6.938
 5670SOL    HW217763   2.219   4.245   6.778
 5671SOL     OW17764   3.286   3.938   6.698
 5671SOL    HW117765   3.338   3.873   6.753
 5671SOL    HW217766   3.237   4.001   6.759
 5672SOL     OW17767   2.863   3.758   6.740
 5672SOL    HW117768   2.800   3.686   6.709
 5672SOL    HW217769   2.956   3.722   6.740
 5673SOL     OW17770   3.214   3.776   5.754
 5673SOL    HW117771   3.249   3.735   5.670
 5673SOL    HW217772   3.124   3.738   5.774
 5674SOL     OW17773   3.162   4.177   6.277
 5674SOL    HW117774   3.103   4.257   6.281
 5674SOL    HW217775   3.177   4.142   6.370
 5675SOL     OW17776   3.455   3.945   6.468
 5675SOL    HW117777   3.371   3.944   6.522
 5675SOL    HW217778   3.457   4.028   6.412
 5676SOL     OW17779   2.092   4.352   7.561
 5676SOL    HW117780   1.999   4.350   7.598
 5676SOL    HW217781   2.093   4.313   7.469
 5677SOL     OW17782   2.087   3.999   8.444
 5677SOL    HW117783   2.122   3.982   8.536
 5677SOL    HW217784   1.999   3.954   8.432
 5678SOL     OW17785   1.881   4.092   8.095
 5678SOL    HW117786   1.799   4.135   8.134
 5678SOL    HW217787   1.853   4.019   8.032
 5679SOL     OW17788   3.617   4.331   7.679
 5679SOL    HW117789   3.605   4.318   7.580
 5679SOL    HW217790   3.587   4.250   7.728
 5680SOL     OW17791   2.547   4.736   8.113
 5680SOL    HW117792   2.616   4.720   8.183
 5680SOL    HW217793   2.474   4.793   8.151
 5681SOL     OW17794   2.300   4.116   8.947
 5681SOL    HW117795   2.382   4.060   8.956
 5681SOL    HW217796   2.219   4.058   8.951
 5682SOL     OW17797   3.465   4.171   8.185
 5682SOL    HW117798   3.391   4.217   8.135
 5682SOL    HW217799   3.516   4.239   8.238
 5683SOL     OW17800   3.456   3.838   8.928
 5683SOL    HW117801   3.438   3.905   8.856
 5683SOL    HW217802   3.453   3.884   9.017
 5684SOL     OW17803   1.984   4.367   8.011
 5684SOL    HW117804   1.939   4.279   8.028
 5684SOL    HW217805   1.983   4.421   8.095
 5685SOL     OW17806   1.975   4.461   9.045
 5685SOL    HW117807   2.063   4.448   9.090
 5685SOL    HW217808   1.962   4.558   9.023
 5686SOL     OW17809   2.671   3.728   7.950
 5686SOL    HW117810   2.711   3.819   7.941
 5686SOL    HW217811   2.571   3.736   7.956
 5687SOL     OW17812   2.179   3.975   9.249
 5687SOL    HW117813   2.250   4.046   9.255
 5687SOL    HW217814   2.091   4.014   9.277
 5688SOL     OW17815   3.143   4.069   8.392
 5688SOL    HW117816   3.057   4.019   8.379
 5688SOL    HW217817   3.205   4.015   8.448
 5689SOL     OW17818   2.669   4.329   8.913
 5689SOL    HW117819   2.622   4.326   9.002
 5689SOL    HW217820   2.618   4.274   8.847
 5690SOL     OW17821   3.256   4.193   9.122
 5690SOL    HW117822   3.236   4.236   9.210
 5690SOL    HW217823   3.334   4.131   9.131
 5691SOL     OW17824   2.853   4.134   8.690
 5691SOL    HW117825   2.776   4.168   8.744
 5691SOL    HW217826   2.819   4.083   8.611
 5692SOL     OW17827   2.903   4.425   7.877
 5692SOL    HW117828   2.929   4.421   7.973
 5692SOL    HW217829   2.818   4.374   7.863
 5693SOL     OW17830   2.727   4.072   7.643
 5693SOL    HW117831   2.786   4.135   7.594
 5693SOL    HW217832   2.746   3.978   7.614
 5694SOL     OW17833   3.581   4.309   9.279
 5694SOL    HW117834   3.555   4.398   9.243
 5694SOL    HW217835   3.579   4.241   9.206
 5695SOL     OW17836   2.412   3.920   8.333
 5695SOL    HW117837   2.407   3.915   8.433
 5695SOL    HW217838   2.414   4.016   8.304
 5696SOL     OW17839   3.320   4.459   8.176
 5696SOL    HW117840   3.315   4.394   8.251
 5696SOL    HW217841   3.400   4.518   8.189
 5697SOL     OW17842   2.064   4.009   8.946
 5697SOL    HW117843   1.984   4.069   8.933
 5697SOL    HW217844   2.054   3.960   9.032
 5698SOL     OW17845   3.262   3.831   7.874
 5698SOL    HW117846   3.238   3.794   7.784
 5698SOL    HW217847   3.361   3.847   7.878
 5699SOL     OW17848   2.244   4.424   7.928
 5699SOL    HW117849   2.289   4.334   7.925
 5699SOL    HW217850   2.150   4.413   7.961
 5700SOL     OW17851   3.409   3.946   9.177
 5700SOL    HW117852   3.404   3.983   9.269
 5700SOL    HW217853   3.337   3.877   9.165
 5701SOL     OW17854   2.476   3.846   7.565
 5701SOL    HW117855   2.574   3.824   7.572
 5701SOL    HW217856   2.445   3.829   7.472
 5702SOL     OW17857   2.643   3.988   9.197
 5702SOL    HW117858   2.710   3.927   9.240
 5702SOL    HW217859   2.570   4.007   9.262
 5703SOL     OW17860   3.213   4.314   8.881
 5703SOL    HW117861   3.241   4.271   8.966
 5703SOL    HW217862   3.238   4.410   8.882
 5704SOL     OW17863   2.784   4.227   8.347
 5704SOL    HW117864   2.759   4.218   8.251
 5704SOL    HW217865   2.832   4.145   8.378
 5705SOL     OW17866   2.401   3.788   7.960
 5705SOL    HW117867   2.320   3.789   8.018
 5705SOL    HW217868   2.404   3.871   7.905
 5706SOL     OW17869   2.159   3.759   7.619
 5706SOL    HW117870   2.208   3.843   7.598
 5706SOL    HW217871   2.221   3.694   7.664
 5707SOL     OW17872   2.797   3.960   7.928
 5707SOL    HW117873   2.749   4.001   7.850
 5707SOL    HW217874   2.896   3.958   7.909
 5708SOL     OW17875   2.938   4.407   8.912
 5708SOL    HW117876   2.858   4.346   8.915
 5708SOL    HW217877   3.019   4.354   8.888
 5709SOL     OW17878   2.894   4.273   7.464
 5709SOL    HW117879   2.853   4.355   7.425
 5709SOL    HW217880   2.958   4.299   7.537
 5710SOL     OW17881   1.940   4.280   8.834
 5710SOL    HW117882   2.032   4.279   8.793
 5710SOL    HW217883   1.934   4.354   8.901
 5711SOL     OW17884   2.423   3.946   8.595
 5711SOL    HW117885   2.461   3.862   8.632
 5711SOL    HW217886   2.335   3.965   8.639
 5712SOL     OW17887   2.728   4.178   8.090
 5712SOL    HW117888   2.696   4.250   8.028
 5712SOL    HW217889   2.752   4.097   8.037
 5713SOL     OW17890   2.879   3.763   8.201
 5713SOL    HW117891   2.807   3.768   8.132
 5713SOL    HW217892   2.855   3.694   8.270
 5714SOL     OW17893   3.328   4.314   8.440
 5714SOL    HW117894   3.298   4.219   8.447
 5714SOL    HW217895   3.401   4.330   8.506
 5715SOL     OW17896   3.252   4.299   7.526
 5715SOL    HW117897   3.198   4.278   7.607
 5715SOL    HW217898   3.343   4.258   7.535
 5716SOL     OW17899   2.389   3.980   7.776
 5716SOL    HW117900   2.416   3.921   7.701
 5716SOL    HW217901   2.389   4.075   7.745
 5717SOL     OW17902   2.777   3.813   8.850
 5717SOL    HW117903   2.802   3.793   8.755
 5717SOL    HW217904   2.849   3.869   8.892
 5718SOL     OW17905   2.272   4.537   8.699
 5718SOL    HW117906   2.358   4.549   8.749
 5718SOL    HW217907   2.230   4.450   8.726
 5719SOL     OW17908   3.136   4.110   8.710
 5719SOL    HW117909   3.157   4.184   8.774
 5719SOL    HW217910   3.047   4.127   8.667
 5720SOL     OW17911   2.428   4.261   8.313
 5720SOL    HW117912   2.440   4.327   8.239
 5720SOL    HW217913   2.474   4.295   8.396
 5721SOL     OW17914   3.444   4.363   7.920
 5721SOL    HW117915   3.413   4.424   7.993
 5721SOL    HW217916   3.494   4.415   7.851
 5722SOL     OW17917   2.875   3.829   9.218
 5722SOL    HW117918   2.881   3.914   9.166
 5722SOL    HW217919   2.907   3.753   9.161
 5723SOL     OW17920   2.366   3.774   9.188
 5723SOL    HW117921   2.324   3.717   9.118
 5723SOL    HW217922   2.300   3.843   9.220
 5724SOL     OW17923   3.071   4.249   7.723
 5724SOL    HW117924   3.084   4.165   7.777
 5724SOL    HW217925   3.042   4.323   7.783
 5725SOL     OW17926   2.169   3.937   8.679
 5725SOL    HW117927   2.146   3.974   8.769
 5725SOL    HW217928   2.139   3.842   8.673
 5726SOL     OW17929   2.594   4.358   8.512
 5726SOL    HW117930   2.653   4.332   8.436
 5726SOL    HW217931   2.566   4.454   8.501
 5727SOL     OW17932   3.590   4.659   9.302
 5727SOL    HW117933   3.544   4.652   9.213
 5727SOL    HW217934   3.528   4.703   9.368
 5728SOL     OW17935   2.169   3.787   8.066
 5728SOL    HW117936   2.158   3.881   8.099
 5728SOL    HW217937   2.164   3.724   8.143
 5729SOL     OW17938   3.484   4.091   7.822
 5729SOL    HW117939   3.486   4.015   7.886
 5729SOL    HW217940   3.436   4.168   7.862
 5730SOL     OW17941   3.402   3.998   7.573
 5730SOL    HW117942   3.341   3.923   7.596
 5730SOL    HW217943   3.424   4.050   7.656
 5731SOL     OW17944   2.181   4.534   8.397
 5731SOL    HW117945   2.274   4.570   8.402
 5731SOL    HW217946   2.175   4.449   8.449
 5732SOL     OW17947   2.201   4.233   8.454
 5732SOL    HW117948   2.149   4.150   8.437
 5732SOL    HW217949   2.278   4.238   8.390
 5733SOL     OW17950   3.000   4.104   9.126
 5733SOL    HW117951   2.955   4.167   9.190
 5733SOL    HW217952   3.093   4.135   9.109
 5734SOL     OW17953   3.022   3.931   8.925
 5734SOL    HW117954   3.022   3.995   9.002
 5734SOL    HW217955   3.050   3.979   8.842
 5735SOL     OW17956   1.902   4.268   8.562
 5735SOL    HW117957   1.987   4.235   8.521
 5735SOL    HW217958   1.915   4.283   8.660
 5736SOL     OW17959   2.051   4.244   9.170
 5736SOL    HW117960   2.110   4.204   9.100
 5736SOL    HW217961   1.993   4.315   9.129
 5737SOL     OW17962   2.677   4.296   7.773
 5737SOL    HW117963   2.684   4.207   7.727
 5737SOL    HW217964   2.583   4.330   7.765
 5738SOL     OW17965   3.519   4.328   8.654
 5738SOL    HW117966   3.481   4.259   8.716
 5738SOL    HW217967   3.601   4.292   8.610
 5739SOL     OW17968   2.533   4.188   8.717
 5739SOL    HW117969   2.499   4.099   8.687
 5739SOL    HW217970   2.559   4.242   8.637
 5740SOL     OW17971   2.335   4.224   7.639
 5740SOL    HW117972   2.396   4.304   7.643
 5740SOL    HW217973   2.240   4.255   7.646
 5741SOL     OW17974   3.588   3.859   7.971
 5741SOL    HW117975   3.661   3.842   7.904
 5741SOL    HW217976   3.557   3.772   8.009
 5742SOL     OW17977   3.142   4.651   8.120
 5742SOL    HW117978   3.202   4.570   8.122
 5742SOL    HW217979   3.182   4.720   8.060
 5743SOL     OW17980   3.703   3.899   8.411
 5743SOL    HW117981   3.742   3.814   8.375
 5743SOL    HW217982   3.605   3.901   8.392
 5744SOL     OW17983   2.125   4.050   8.168
 5744SOL    HW117984   2.046   4.101   8.134
 5744SOL    HW217985   2.116   4.035   8.266
 5745SOL     OW17986   2.778   4.634   7.739
 5745SOL    HW117987   2.841   4.672   7.671
 5745SOL    HW217988   2.818   4.551   7.778
 5746SOL     OW17989   2.901   4.822   8.144
 5746SOL    HW117990   2.831   4.775   8.198
 5746SOL    HW217991   2.960   4.754   8.101
 5747SOL     OW17992   2.876   3.960   8.419
 5747SOL    HW117993   2.868   3.924   8.326
 5747SOL    HW217994   2.874   3.884   8.484
 5748SOL     OW17995   3.571   4.109   8.829
 5748SOL    HW117996   3.644   4.178   8.833
 5748SOL    HW217997   3.599   4.034   8.770
 5749SOL     OW17998   2.534   3.927   8.937
 5749SOL    HW117999   2.624   3.911   8.897
 5749SOL    HW218000   2.542   3.932   9.036
 5750SOL     OW18001   1.937   4.069   7.481
 5750SOL    HW118002   1.845   4.041   7.452
 5750SOL    HW218003   1.968   4.146   7.425
 5751SOL     OW18004   1.934   3.890   7.766
 5751SOL    HW118005   1.917   3.973   7.712
 5751SOL    HW218006   2.024   3.853   7.744
 5752SOL     OW18007   2.578   4.289   9.156
 5752SOL    HW118008   2.597   4.354   9.230
 5752SOL    HW218009   2.638   4.209   9.165
 5753SOL     OW18010   3.087   4.049   7.897
 5753SOL    HW118011   3.152   3.975   7.886
 5753SOL    HW218012   3.107   4.099   7.981
 5754SOL     OW18013   3.639   4.066   9.090
 5754SOL    HW118014   3.622   4.097   8.996
 5754SOL    HW218015   3.555   4.029   9.128
 5755SOL     OW18016   2.945   4.708   7.535
 5755SOL    HW118017   2.922   4.761   7.453
 5755SOL    HW218018   3.026   4.652   7.516
 5756SOL     OW18019   3.686   3.916   8.675
 5756SOL    HW118020   3.682   3.826   8.719
 5756SOL    HW218021   3.689   3.905   8.576
 5757SOL     OW18022   2.290   4.148   7.968
 5757SOL    HW118023   2.320   4.076   7.906
 5757SOL    HW218024   2.251   4.108   8.051
 5758SOL     OW18025   2.179   4.271   8.728
 5758SOL    HW118026   2.217   4.212   8.800
 5758SOL    HW218027   2.219   4.245   8.640
 5759SOL     OW18028   3.286   3.938   8.560
 5759SOL    HW118029   3.338   3.873   8.615
 5759SOL    HW218030   3.237   4.001   8.621
 5760SOL     OW18031   2.863   3.758   8.602
 5760SOL    HW118032   2.800   3.686   8.571
 5760SOL    HW218033   2.956   3.722   8.602
 5761SOL     OW18034   3.214   3.776   7.616
 5761SOL    HW118035   3.249   3.735   7.532
 5761SOL    HW218036   3.124   3.738   7.636
 5762SOL     OW18037   3.162   4.177   8.139
 5762SOL    HW118038   3.103   4.257   8.143
 5762SOL    HW218039   3.177   4.142   8.232
 5763SOL     OW18040   3.455   3.945   8.330
 5763SOL    HW118041   3.371   3.944   8.384
 5763SOL    HW218042   3.457   4.028   8.274
 5764SOL     OW18043   2.092   4.352   9.423
 5764SOL    HW118044   1.999   4.350   9.460
 5764SOL    HW218045   2.093   4.313   9.331
 5765SOL     OW18046   2.087   3.999  10.306
 5765SOL    HW118047   2.122   3.982  10.398
 5765SOL    HW218048   1.999   3.954  10.294
 5766SOL     OW18049   1.881   4.092   9.957
 5766SOL    HW118050   1.799   4.135   9.996
 5766SOL    HW218051   1.853   4.019   9.894
 5767SOL     OW18052   3.617   4.331   9.541
 5767SOL    HW118053   3.605   4.318   9.442
 5767SOL    HW218054   3.587   4.250   9.590
 5768SOL     OW18055   2.547   4.736   9.975
 5768SOL    HW118056   2.616   4.720  10.045
 5768SOL    HW218057   2.474   4.793  10.013
 5769SOL     OW18058   2.300   4.116  10.809
 5769SOL    HW118059   2.382   4.060  10.818
 5769SOL    HW218060   2.219   4.058  10.813
 5770SOL     OW18061   3.465   4.171  10.047
 5770SOL    HW118062   3.391   4.217   9.997
 5770SOL    HW218063   3.516   4.239  10.100
 5771SOL     OW18064   3.456   3.838  10.790
 5771SOL    HW118065   3.438   3.905  10.718
 5771SOL    HW218066   3.453   3.884  10.879
 5772SOL     OW18067   1.984   4.367   9.873
 5772SOL    HW118068   1.939   4.279   9.890
 5772SOL    HW218069   1.983   4.421   9.957
 5773SOL     OW18070   1.975   4.461  10.907
 5773SOL    HW118071   2.063   4.448  10.952
 5773SOL    HW218072   1.962   4.558  10.885
 5774SOL     OW18073   2.671   3.728   9.812
 5774SOL    HW118074   2.711   3.819   9.803
 5774SOL    HW218075   2.571   3.736   9.818
 5775SOL     OW18076   2.179   3.975  11.111
 5775SOL    HW118077   2.250   4.046  11.117
 5775SOL    HW218078   2.091   4.014  11.139
 5776SOL     OW18079   3.143   4.069  10.254
 5776SOL    HW118080   3.057   4.019  10.241
 5776SOL    HW218081   3.205   4.015  10.310
 5777SOL     OW18082   2.669   4.329  10.775
 5777SOL    HW118083   2.622   4.326  10.864
 5777SOL    HW218084   2.618   4.274  10.709
 5778SOL     OW18085   2.853   4.134  10.552
 5778SOL    HW118086   2.776   4.168  10.606
 5778SOL    HW218087   2.819   4.083  10.473
 5779SOL     OW18088   2.903   4.425   9.739
 5779SOL    HW118089   2.929   4.421   9.835
 5779SOL    HW218090   2.818   4.374   9.725
 5780SOL     OW18091   2.727   4.072   9.505
 5780SOL    HW118092   2.786   4.135   9.456
 5780SOL    HW218093   2.746   3.978   9.476
 5781SOL     OW18094   2.412   3.920  10.195
 5781SOL    HW118095   2.407   3.915  10.295
 5781SOL    HW218096   2.414   4.016  10.166
 5782SOL     OW18097   3.320   4.459  10.038
 5782SOL    HW118098   3.315   4.394  10.113
 5782SOL    HW218099   3.400   4.518  10.051
 5783SOL     OW18100   2.064   4.009  10.808
 5783SOL    HW118101   1.984   4.069  10.795
 5783SOL    HW218102   2.054   3.960  10.894
 5784SOL     OW18103   3.262   3.831   9.736
 5784SOL    HW118104   3.238   3.794   9.646
 5784SOL    HW218105   3.361   3.847   9.740
 5785SOL     OW18106   2.244   4.424   9.790
 5785SOL    HW118107   2.289   4.334   9.787
 5785SOL    HW218108   2.150   4.413   9.823
 5786SOL     OW18109   2.476   3.846   9.427
 5786SOL    HW118110   2.574   3.824   9.434
 5786SOL    HW218111   2.445   3.829   9.334
 5787SOL     OW18112   2.643   3.988  11.059
 5787SOL    HW118113   2.710   3.927  11.102
 5787SOL    HW218114   2.570   4.007  11.124
 5788SOL     OW18115   3.213   4.314  10.743
 5788SOL    HW118116   3.241   4.271  10.828
 5788SOL    HW218117   3.238   4.410  10.744
 5789SOL     OW18118   2.784   4.227  10.209
 5789SOL    HW118119   2.759   4.218  10.113
 5789SOL    HW218120   2.832   4.145  10.240
 5790SOL     OW18121   2.401   3.788   9.822
 5790SOL    HW118122   2.320   3.789   9.880
 5790SOL    HW218123   2.404   3.871   9.767
 5791SOL     OW18124   2.159   3.759   9.481
 5791SOL    HW118125   2.208   3.843   9.460
 5791SOL    HW218126   2.221   3.694   9.526
 5792SOL     OW18127   2.797   3.960   9.790
 5792SOL    HW118128   2.749   4.001   9.712
 5792SOL    HW218129   2.896   3.958   9.771
 5793SOL     OW18130   2.938   4.407  10.774
 5793SOL    HW118131   2.858   4.346  10.777
 5793SOL    HW218132   3.019   4.354  10.750
 5794SOL     OW18133   2.894   4.273   9.326
 5794SOL    HW118134   2.853   4.355   9.287
 5794SOL    HW218135   2.958   4.299   9.399
 5795SOL     OW18136   1.940   4.280  10.696
 5795SOL    HW118137   2.032   4.279  10.655
 5795SOL    HW218138   1.934   4.354  10.763
 5796SOL     OW18139   2.423   3.946  10.457
 5796SOL    HW118140   2.461   3.862  10.494
 5796SOL    HW218141   2.335   3.965  10.501
 5797SOL     OW18142   2.728   4.178   9.952
 5797SOL    HW118143   2.696   4.250   9.890
 5797SOL    HW218144   2.752   4.097   9.899
 5798SOL     OW18145   2.879   3.763  10.063
 5798SOL    HW118146   2.807   3.768   9.994
 5798SOL    HW218147   2.855   3.694  10.132
 5799SOL     OW18148   3.328   4.314  10.302
 5799SOL    HW118149   3.298   4.219  10.309
 5799SOL    HW218150   3.401   4.330  10.368
 5800SOL     OW18151   3.252   4.299   9.388
 5800SOL    HW118152   3.198   4.278   9.469
 5800SOL    HW218153   3.343   4.258   9.397
 5801SOL     OW18154   2.389   3.980   9.638
 5801SOL    HW118155   2.416   3.921   9.563
 5801SOL    HW218156   2.389   4.075   9.607
 5802SOL     OW18157   2.777   3.813  10.712
 5802SOL    HW118158   2.802   3.793  10.617
 5802SOL    HW218159   2.849   3.869  10.754
 5803SOL     OW18160   2.272   4.537  10.561
 5803SOL    HW118161   2.358   4.549  10.611
 5803SOL    HW218162   2.230   4.450  10.588
 5804SOL     OW18163   3.136   4.110  10.572
 5804SOL    HW118164   3.157   4.184  10.636
 5804SOL    HW218165   3.047   4.127  10.529
 5805SOL     OW18166   2.428   4.261  10.175
 5805SOL    HW118167   2.440   4.327  10.101
 5805SOL    HW218168   2.474   4.295  10.258
 5806SOL     OW18169   3.444   4.363   9.782
 5806SOL    HW118170   3.413   4.424   9.855
 5806SOL    HW218171   3.494   4.415   9.713
 5807SOL     OW18172   2.264   4.475  10.908
 5807SOL    HW118173   2.332   4.530  10.861
 5807SOL    HW218174   2.304   4.387  10.935
 5808SOL     OW18175   3.071   4.249   9.585
 5808SOL    HW118176   3.084   4.165   9.639
 5808SOL    HW218177   3.042   4.323   9.645
 5809SOL     OW18178   2.169   3.937  10.541
 5809SOL    HW118179   2.146   3.974  10.631
 5809SOL    HW218180   2.139   3.842  10.535
 5810SOL     OW18181   2.594   4.358  10.374
 5810SOL    HW118182   2.653   4.332  10.298
 5810SOL    HW218183   2.566   4.454  10.363
 5811SOL     OW18184   2.169   3.787   9.928
 5811SOL    HW118185   2.158   3.881   9.961
 5811SOL    HW218186   2.164   3.724  10.005
 5812SOL     OW18187   3.484   4.091   9.684
 5812SOL    HW118188   3.486   4.015   9.748
 5812SOL    HW218189   3.436   4.168   9.724
 5813SOL     OW18190   3.402   3.998   9.435
 5813SOL    HW118191   3.341   3.923   9.458
 5813SOL    HW218192   3.424   4.050   9.518
 5814SOL     OW18193   2.181   4.534  10.259
 5814SOL    HW118194   2.274   4.570  10.264
 5814SOL    HW218195   2.175   4.449  10.311
 5815SOL     OW18196   2.201   4.233  10.316
 5815SOL    HW118197   2.149   4.150  10.299
 5815SOL    HW218198   2.278   4.238  10.252
 5816SOL     OW18199   3.022   3.931  10.787
 5816SOL    HW118200   3.022   3.995  10.864
 5816SOL    HW218201   3.050   3.979  10.704
 5817SOL     OW18202   1.902   4.268  10.424
 5817SOL    HW118203   1.987   4.235  10.383
 5817SOL    HW218204   1.915   4.283  10.522
 5818SOL     OW18205   3.231   4.674  10.970
 5818SOL    HW118206   3.270   4.763  10.990
 5818SOL    HW218207   3.241   4.654  10.873
 5819SOL     OW18208   2.677   4.296   9.635
 5819SOL    HW118209   2.684   4.207   9.589
 5819SOL    HW218210   2.583   4.330   9.627
 5820SOL     OW18211   3.519   4.328  10.516
 5820SOL    HW118212   3.481   4.259  10.578
 5820SOL    HW218213   3.601   4.292  10.472
 5821SOL     OW18214   2.533   4.188  10.579
 5821SOL    HW118215   2.499   4.099  10.549
 5821SOL    HW218216   2.559   4.242  10.499
 5822SOL     OW18217   2.335   4.224   9.501
 5822SOL    HW118218   2.396   4.304   9.505
 5822SOL    HW218219   2.240   4.255   9.508
 5823SOL     OW18220   3.588   3.859   9.833
 5823SOL    HW118221   3.661   3.842   9.766
 5823SOL    HW218222   3.557   3.772   9.871
 5824SOL     OW18223   3.142   4.651   9.982
 5824SOL    HW118224   3.202   4.570   9.984
 5824SOL    HW218225   3.182   4.720   9.922
 5825SOL     OW18226   3.703   3.899  10.273
 5825SOL    HW118227   3.742   3.814  10.237
 5825SOL    HW218228   3.605   3.901  10.254
 5826SOL     OW18229   2.125   4.050  10.030
 5826SOL    HW118230   2.046   4.101   9.996
 5826SOL    HW218231   2.116   4.035  10.128
 5827SOL     OW18232   2.778   4.634   9.601
 5827SOL    HW118233   2.841   4.672   9.533
 5827SOL    HW218234   2.818   4.551   9.640
 5828SOL     OW18235   2.901   4.822  10.006
 5828SOL    HW118236   2.831   4.775  10.060
 5828SOL    HW218237   2.960   4.754   9.963
 5829SOL     OW18238   2.876   3.960  10.281
 5829SOL    HW118239   2.868   3.924  10.188
 5829SOL    HW218240   2.874   3.884  10.346
 5830SOL     OW18241   3.571   4.109  10.691
 5830SOL    HW118242   3.644   4.178  10.695
 5830SOL    HW218243   3.599   4.034  10.632
 5831SOL     OW18244   2.534   3.927  10.799
 5831SOL    HW118245   2.624   3.911  10.759
 5831SOL    HW218246   2.542   3.932  10.898
 5832SOL     OW18247   1.937   4.069   9.343
 5832SOL    HW118248   1.845   4.041   9.314
 5832SOL    HW218249   1.968   4.146   9.287
 5833SOL     OW18250   1.934   3.890   9.628
 5833SOL    HW118251   1.917   3.973   9.574
 5833SOL    HW218252   2.024   3.853   9.606
 5834SOL     OW18253   2.578   4.289  11.018
 5834SOL    HW118254   2.597   4.354  11.092
 5834SOL    HW218255   2.638   4.209  11.027
 5835SOL     OW18256   3.087   4.049   9.759
 5835SOL    HW118257   3.152   3.975   9.748
 5835SOL    HW218258   3.107   4.099   9.843
 5836SOL     OW18259   3.639   4.066  10.952
 5836SOL    HW118260   3.622   4.097  10.858
 5836SOL    HW218261   3.555   4.029  10.990
 5837SOL     OW18262   2.945   4.708   9.397
 5837SOL    HW118263   2.922   4.761   9.315
 5837SOL    HW218264   3.026   4.652   9.378
 5838SOL     OW18265   3.686   3.916  10.537
 5838SOL    HW118266   3.682   3.826  10.581
 5838SOL    HW218267   3.689   3.905  10.438
 5839SOL     OW18268   2.290   4.148   9.830
 5839SOL    HW118269   2.320   4.076   9.768
 5839SOL    HW218270   2.251   4.108   9.913
 5840SOL     OW18271   2.179   4.271  10.590
 5840SOL    HW118272   2.217   4.212  10.662
 5840SOL    HW218273   2.219   4.245  10.502
 5841SOL     OW18274   3.286   3.938  10.422
 5841SOL    HW118275   3.338   3.873  10.477
 5841SOL    HW218276   3.237   4.001  10.483
 5842SOL     OW18277   2.863   3.758  10.464
 5842SOL    HW118278   2.800   3.686  10.433
 5842SOL    HW218279   2.956   3.722  10.464
 5843SOL     OW18280   3.214   3.776   9.478
 5843SOL    HW118281   3.249   3.735   9.394
 5843SOL    HW218282   3.124   3.738   9.498
 5844SOL     OW18283   3.162   4.177  10.001
 5844SOL    HW118284   3.103   4.257  10.005
 5844SOL    HW218285   3.177   4.142  10.094
 5845SOL     OW18286   3.455   3.945  10.192
 5845SOL    HW118287   3.371   3.944  10.246
 5845SOL    HW218288   3.457   4.028  10.136
 5846SOL     OW18289   3.954   0.628   0.113
 5846SOL    HW118290   3.861   0.626   0.150
 5846SOL    HW218291   3.955   0.589   0.021
 5847SOL     OW18292   3.949   0.275   0.996
 5847SOL    HW118293   3.984   0.258   1.088
 5847SOL    HW218294   3.861   0.230   0.984
 5848SOL     OW18295   3.743   0.368   0.647
 5848SOL    HW118296   3.661   0.411   0.686
 5848SOL    HW218297   3.715   0.295   0.584
 5849SOL     OW18298   4.293   1.275   1.165
 5849SOL    HW118299   4.200   1.268   1.128
 5849SOL    HW218300   4.304   1.364   1.209
 5850SOL     OW18301   4.574   0.798   1.823
 5850SOL    HW118302   4.570   0.874   1.888
 5850SOL    HW218303   4.596   0.834   1.732
 5851SOL     OW18304   4.409   1.012   0.665
 5851SOL    HW118305   4.478   0.996   0.735
 5851SOL    HW218306   4.336   1.069   0.703
 5852SOL     OW18307   4.410   1.161   1.803
 5852SOL    HW118308   4.470   1.240   1.817
 5852SOL    HW218309   4.324   1.192   1.762
 5853SOL     OW18310   4.059   1.435   1.061
 5853SOL    HW118311   3.981   1.404   1.008
 5853SOL    HW218312   4.117   1.493   1.004
 5854SOL     OW18313   4.162   0.392   1.499
 5854SOL    HW118314   4.244   0.336   1.508
 5854SOL    HW218315   4.081   0.334   1.503
 5855SOL     OW18316   3.955   1.713   0.483
 5855SOL    HW118317   3.989   1.790   0.537
 5855SOL    HW218318   3.999   1.713   0.393
 5856SOL     OW18319   3.954   1.434   0.538
 5856SOL    HW118320   3.928   1.530   0.538
 5856SOL    HW218321   3.883   1.380   0.583
 5857SOL     OW18322   3.964   1.091   0.886
 5857SOL    HW118323   3.978   1.007   0.938
 5857SOL    HW218324   3.909   1.155   0.941
 5858SOL     OW18325   4.344   1.786   1.439
 5858SOL    HW118326   4.252   1.769   1.474
 5858SOL    HW218327   4.372   1.878   1.465
 5859SOL     OW18328   4.330   0.964   0.123
 5859SOL    HW118329   4.337   1.048   0.069
 5859SOL    HW218330   4.376   0.977   0.211
 5860SOL     OW18331   3.846   0.643   0.563
 5860SOL    HW118332   3.801   0.555   0.580
 5860SOL    HW218333   3.845   0.697   0.647
 5861SOL     OW18334   3.751   1.596   0.117
 5861SOL    HW118335   3.732   1.500   0.138
 5861SOL    HW218336   3.718   1.654   0.192
 5862SOL     OW18337   3.837   0.737   1.597
 5862SOL    HW118338   3.925   0.724   1.642
 5862SOL    HW218339   3.824   0.834   1.575
 5863SOL     OW18340   4.337   1.365   0.726
 5863SOL    HW118341   4.288   1.278   0.735
 5863SOL    HW218342   4.314   1.408   0.639
 5864SOL     OW18343   4.533   0.004   0.502
 5864SOL    HW118344   4.573   0.095   0.493
 5864SOL    HW218345   4.433   0.012   0.508
 5865SOL     OW18346   3.921   0.976   1.264
 5865SOL    HW118347   4.010   0.931   1.250
 5865SOL    HW218348   3.848   0.911   1.245
 5866SOL     OW18349   4.041   0.251   1.801
 5866SOL    HW118350   4.112   0.322   1.807
 5866SOL    HW218351   3.953   0.290   1.829
 5867SOL     OW18352   4.322   0.729   0.270
 5867SOL    HW118353   4.346   0.798   0.202
 5867SOL    HW218354   4.244   0.762   0.324
 5868SOL     OW18355   3.800   0.811   0.789
 5868SOL    HW118356   3.899   0.799   0.798
 5868SOL    HW218357   3.776   0.906   0.810
 5869SOL     OW18358   3.854   1.821   1.571
 5869SOL    HW118359   3.844   1.806   1.670
 5869SOL    HW218360   3.768   1.857   1.535
 5870SOL     OW18361   4.274   0.196   0.885
 5870SOL    HW118362   4.269   0.191   0.985
 5870SOL    HW218363   4.276   0.292   0.856
 5871SOL     OW18364   4.075   1.801   0.853
 5871SOL    HW118365   4.125   1.715   0.859
 5871SOL    HW218366   4.140   1.878   0.850
 5872SOL     OW18367   4.045   0.943   0.242
 5872SOL    HW118368   4.127   0.982   0.200
 5872SOL    HW218369   4.018   0.861   0.193
 5873SOL     OW18370   4.185   1.266   1.727
 5873SOL    HW118371   4.135   1.267   1.641
 5873SOL    HW218372   4.122   1.248   1.803
 5874SOL     OW18373   3.926   0.285   1.498
 5874SOL    HW118374   3.846   0.345   1.485
 5874SOL    HW218375   3.916   0.236   1.584
 5875SOL     OW18376   4.188   1.743   0.323
 5875SOL    HW118377   4.221   1.782   0.409
 5875SOL    HW218378   4.264   1.736   0.258
 5876SOL     OW18379   3.973   1.785   1.241
 5876SOL    HW118380   4.030   1.720   1.291
 5876SOL    HW218381   3.957   1.752   1.148
 5877SOL     OW18382   4.106   0.700   0.480
 5877SOL    HW118383   4.151   0.610   0.477
 5877SOL    HW218384   4.012   0.689   0.513
 5878SOL     OW18385   4.338   0.122   0.117
 5878SOL    HW118386   4.436   0.100   0.124
 5878SOL    HW218387   4.307   0.105   0.024
 5879SOL     OW18388   4.527   1.402   0.924
 5879SOL    HW118389   4.617   1.416   0.882
 5879SOL    HW218390   4.456   1.404   0.853
 5880SOL     OW18391   4.263   0.064   0.512
 5880SOL    HW118392   4.182   0.065   0.570
 5880SOL    HW218393   4.266   0.147   0.457
 5881SOL     OW18394   4.021   0.035   0.171
 5881SOL    HW118395   4.070   0.119   0.150
 5881SOL    HW218396   4.083  -0.030   0.216
 5882SOL     OW18397   4.800   0.683   1.464
 5882SOL    HW118398   4.720   0.622   1.467
 5882SOL    HW218399   4.881   0.630   1.440
 5883SOL     OW18400   4.183   1.152   0.741
 5883SOL    HW118401   4.112   1.125   0.806
 5883SOL    HW218402   4.157   1.124   0.648
 5884SOL     OW18403   3.802   0.556   1.386
 5884SOL    HW118404   3.894   0.555   1.345
 5884SOL    HW218405   3.796   0.630   1.453
 5885SOL     OW18406   4.285   0.222   1.147
 5885SOL    HW118407   4.323   0.138   1.184
 5885SOL    HW218408   4.197   0.241   1.191
 5886SOL     OW18409   4.212   1.385   0.174
 5886SOL    HW118410   4.125   1.370   0.221
 5886SOL    HW218411   4.195   1.411   0.079
 5887SOL     OW18412   4.251   0.256   0.328
 5887SOL    HW118413   4.278   0.197   0.253
 5887SOL    HW218414   4.251   0.351   0.297
 5888SOL     OW18415   4.134   0.813   1.251
 5888SOL    HW118416   4.220   0.825   1.301
 5888SOL    HW218417   4.092   0.726   1.278
 5889SOL     OW18418   3.788   1.564   1.331
 5889SOL    HW118419   3.742   1.646   1.297
 5889SOL    HW218420   3.886   1.583   1.340
 5890SOL     OW18421   4.091   1.100   0.501
 5890SOL    HW118422   4.084   1.183   0.445
 5890SOL    HW218423   4.095   1.020   0.441
 5891SOL     OW18424   4.290   0.537   0.865
 5891SOL    HW118425   4.302   0.603   0.791
 5891SOL    HW218426   4.336   0.571   0.948
 5892SOL     OW18427   4.078   1.510   1.329
 5892SOL    HW118428   4.057   1.466   1.242
 5892SOL    HW218429   4.175   1.536   1.332
 5893SOL     OW18430   4.126   0.751   1.598
 5893SOL    HW118431   4.194   0.806   1.551
 5893SOL    HW218432   4.166   0.663   1.625
 5894SOL     OW18433   4.228   0.050   1.740
 5894SOL    HW118434   4.186  -0.007   1.670
 5894SOL    HW218435   4.162   0.119   1.772
 5895SOL     OW18436   4.297   0.870   1.029
 5895SOL    HW118437   4.341   0.959   1.020
 5895SOL    HW218438   4.234   0.870   1.106
 5896SOL     OW18439   4.031   0.213   1.231
 5896SOL    HW118440   4.008   0.250   1.321
 5896SOL    HW218441   4.001   0.118   1.225
 5897SOL     OW18442   3.761   1.310   1.282
 5897SOL    HW118443   3.814   1.261   1.350
 5897SOL    HW218444   3.783   1.408   1.287
 5898SOL     OW18445   4.031   0.063   0.618
 5898SOL    HW118446   4.020   0.157   0.651
 5898SOL    HW218447   4.026   0.000   0.695
 5899SOL     OW18448   4.074   0.898   1.804
 5899SOL    HW118449   4.150   0.942   1.852
 5899SOL    HW218450   4.109   0.851   1.722
 5900SOL     OW18451   4.043   0.810   0.949
 5900SOL    HW118452   4.136   0.846   0.954
 5900SOL    HW218453   4.037   0.725   1.001
 5901SOL     OW18454   4.063   0.509   1.006
 5901SOL    HW118455   4.011   0.426   0.989
 5901SOL    HW218456   4.140   0.514   0.942
 5902SOL     OW18457   3.732   1.326   0.200
 5902SOL    HW118458   3.639   1.347   0.169
 5902SOL    HW218459   3.742   1.227   0.213
 5903SOL     OW18460   3.812   1.801   0.927
 5903SOL    HW118461   3.770   1.715   0.900
 5903SOL    HW218462   3.906   1.804   0.893
 5904SOL     OW18463   4.228   1.568   0.910
 5904SOL    HW118464   4.294   1.642   0.919
 5904SOL    HW218465   4.272   1.489   0.868
 5905SOL     OW18466   3.764   0.544   1.114
 5905SOL    HW118467   3.849   0.511   1.073
 5905SOL    HW218468   3.777   0.559   1.212
 5906SOL     OW18469   3.913   0.520   1.722
 5906SOL    HW118470   3.972   0.480   1.652
 5906SOL    HW218471   3.855   0.591   1.681
 5907SOL     OW18472   4.539   0.572   0.325
 5907SOL    HW118473   4.546   0.483   0.279
 5907SOL    HW218474   4.445   0.606   0.317
 5908SOL     OW18475   3.976   1.564   1.744
 5908SOL    HW118476   3.946   1.621   1.820
 5908SOL    HW218477   3.969   1.467   1.770
 5909SOL     OW18478   4.197   0.500   0.191
 5909SOL    HW118479   4.258   0.580   0.195
 5909SOL    HW218480   4.102   0.531   0.198
 5910SOL     OW18481   3.883   1.137   1.466
 5910SOL    HW118482   3.905   1.076   1.542
 5910SOL    HW218483   3.893   1.088   1.380
 5911SOL     OW18484   3.807   1.258   1.022
 5911SOL    HW118485   3.802   1.257   1.122
 5911SOL    HW218486   3.724   1.217   0.984
 5912SOL     OW18487   4.412   1.662   1.716
 5912SOL    HW118488   4.356   1.743   1.725
 5912SOL    HW218489   4.464   1.666   1.630
 5913SOL     OW18490   3.854   1.794   1.851
 5913SOL    HW118491   3.813   1.720   1.904
 5913SOL    HW218492   3.918   1.845   1.909
 5914SOL     OW18493   3.987   0.326   0.720
 5914SOL    HW118494   3.908   0.377   0.686
 5914SOL    HW218495   3.978   0.311   0.818
 5915SOL     OW18496   4.096   1.288   1.490
 5915SOL    HW118497   4.083   1.381   1.456
 5915SOL    HW218498   4.012   1.236   1.477
 5916SOL     OW18499   4.314   1.487   0.491
 5916SOL    HW118500   4.356   1.429   0.421
 5916SOL    HW218501   4.270   1.566   0.447
 5917SOL     OW18502   3.979   1.348   0.290
 5917SOL    HW118503   3.883   1.349   0.263
 5917SOL    HW218504   3.991   1.401   0.374
 5918SOL     OW18505   3.829   1.013   1.726
 5918SOL    HW118506   3.752   0.980   1.780
 5918SOL    HW218507   3.914   0.983   1.768
 5919SOL     OW18508   4.396   0.203   1.489
 5919SOL    HW118509   4.486   0.187   1.449
 5919SOL    HW218510   4.404   0.208   1.588
 5920SOL     OW18511   3.799   0.345   0.033
 5920SOL    HW118512   3.707   0.317   0.004
 5920SOL    HW218513   3.830   0.422  -0.023
 5921SOL     OW18514   3.796   0.166   0.318
 5921SOL    HW118515   3.779   0.249   0.264
 5921SOL    HW218516   3.886   0.129   0.296
 5922SOL     OW18517   4.337   0.842   1.431
 5922SOL    HW118518   4.393   0.923   1.414
 5922SOL    HW218519   4.396   0.762   1.434
 5923SOL     OW18520   4.440   0.565   1.708
 5923SOL    HW118521   4.459   0.630   1.782
 5923SOL    HW218522   4.500   0.485   1.717
 5924SOL     OW18523   4.114   1.741   1.560
 5924SOL    HW118524   4.023   1.782   1.558
 5924SOL    HW218525   4.107   1.647   1.592
 5925SOL     OW18526   4.318   0.745   0.652
 5925SOL    HW118527   4.368   0.830   0.633
 5925SOL    HW218528   4.230   0.747   0.604
 5926SOL     OW18529   3.945   1.314   1.844
 5926SOL    HW118530   3.880   1.241   1.823
 5926SOL    HW218531   3.949   1.328   1.942
 5927SOL     OW18532   3.803   1.240   0.653
 5927SOL    HW118533   3.802   1.193   0.741
 5927SOL    HW218534   3.885   1.212   0.602
 5928SOL     OW18535   4.396   1.391   1.624
 5928SOL    HW118536   4.318   1.341   1.662
 5928SOL    HW218537   4.393   1.486   1.655
 5929SOL     OW18538   4.152   0.424   0.520
 5929SOL    HW118539   4.182   0.352   0.458
 5929SOL    HW218540   4.113   0.384   0.603
 5930SOL     OW18541   4.041   0.547   1.280
 5930SOL    HW118542   4.079   0.488   1.352
 5930SOL    HW218543   4.081   0.521   1.192
 5931SOL     OW18544   4.536   1.586   0.687
 5931SOL    HW118545   4.568   1.596   0.593
 5931SOL    HW218546   4.457   1.524   0.689
 5932SOL     OW18547   3.763   1.077   0.300
 5932SOL    HW118548   3.862   1.066   0.291
 5932SOL    HW218549   3.723   0.991   0.332
 5933SOL     OW18550   3.954   0.628   1.975
 5933SOL    HW118551   3.861   0.626   2.012
 5933SOL    HW218552   3.955   0.589   1.883
 5934SOL     OW18553   3.949   0.275   2.858
 5934SOL    HW118554   3.984   0.258   2.950
 5934SOL    HW218555   3.861   0.230   2.846
 5935SOL     OW18556   3.743   0.368   2.509
 5935SOL    HW118557   3.661   0.411   2.548
 5935SOL    HW218558   3.715   0.295   2.446
 5936SOL     OW18559   4.293   1.275   3.027
 5936SOL    HW118560   4.200   1.268   2.990
 5936SOL    HW218561   4.304   1.364   3.071
 5937SOL     OW18562   4.574   0.798   3.685
 5937SOL    HW118563   4.570   0.874   3.750
 5937SOL    HW218564   4.596   0.834   3.594
 5938SOL     OW18565   4.409   1.012   2.527
 5938SOL    HW118566   4.478   0.996   2.597
 5938SOL    HW218567   4.336   1.069   2.565
 5939SOL     OW18568   4.410   1.161   3.665
 5939SOL    HW118569   4.470   1.240   3.679
 5939SOL    HW218570   4.324   1.192   3.624
 5940SOL     OW18571   4.059   1.435   2.923
 5940SOL    HW118572   3.981   1.404   2.870
 5940SOL    HW218573   4.117   1.493   2.866
 5941SOL     OW18574   4.162   0.392   3.361
 5941SOL    HW118575   4.244   0.336   3.370
 5941SOL    HW218576   4.081   0.334   3.365
 5942SOL     OW18577   3.955   1.713   2.345
 5942SOL    HW118578   3.989   1.790   2.399
 5942SOL    HW218579   3.999   1.713   2.255
 5943SOL     OW18580   3.954   1.434   2.400
 5943SOL    HW118581   3.928   1.530   2.400
 5943SOL    HW218582   3.883   1.380   2.445
 5944SOL     OW18583   3.964   1.091   2.748
 5944SOL    HW118584   3.978   1.007   2.800
 5944SOL    HW218585   3.909   1.155   2.803
 5945SOL     OW18586   4.344   1.786   3.301
 5945SOL    HW118587   4.252   1.769   3.336
 5945SOL    HW218588   4.372   1.878   3.327
 5946SOL     OW18589   4.330   0.964   1.985
 5946SOL    HW118590   4.337   1.048   1.931
 5946SOL    HW218591   4.376   0.977   2.073
 5947SOL     OW18592   3.846   0.643   2.425
 5947SOL    HW118593   3.801   0.555   2.442
 5947SOL    HW218594   3.845   0.697   2.509
 5948SOL     OW18595   3.751   1.596   1.979
 5948SOL    HW118596   3.732   1.500   2.000
 5948SOL    HW218597   3.718   1.654   2.054
 5949SOL     OW18598   3.837   0.737   3.459
 5949SOL    HW118599   3.925   0.724   3.504
 5949SOL    HW218600   3.824   0.834   3.437
 5950SOL     OW18601   4.337   1.365   2.588
 5950SOL    HW118602   4.288   1.278   2.597
 5950SOL    HW218603   4.314   1.408   2.501
 5951SOL     OW18604   4.533   0.004   2.364
 5951SOL    HW118605   4.573   0.095   2.355
 5951SOL    HW218606   4.433   0.012   2.370
 5952SOL     OW18607   3.921   0.976   3.126
 5952SOL    HW118608   4.010   0.931   3.112
 5952SOL    HW218609   3.848   0.911   3.107
 5953SOL     OW18610   4.041   0.251   3.663
 5953SOL    HW118611   4.112   0.322   3.669
 5953SOL    HW218612   3.953   0.290   3.691
 5954SOL     OW18613   4.322   0.729   2.132
 5954SOL    HW118614   4.346   0.798   2.064
 5954SOL    HW218615   4.244   0.762   2.186
 5955SOL     OW18616   3.800   0.811   2.651
 5955SOL    HW118617   3.899   0.799   2.660
 5955SOL    HW218618   3.776   0.906   2.672
 5956SOL     OW18619   3.854   1.821   3.433
 5956SOL    HW118620   3.844   1.806   3.532
 5956SOL    HW218621   3.768   1.857   3.397
 5957SOL     OW18622   4.274   0.196   2.747
 5957SOL    HW118623   4.269   0.191   2.847
 5957SOL    HW218624   4.276   0.292   2.718
 5958SOL     OW18625   4.075   1.801   2.715
 5958SOL    HW118626   4.125   1.715   2.721
 5958SOL    HW218627   4.140   1.878   2.712
 5959SOL     OW18628   4.045   0.943   2.104
 5959SOL    HW118629   4.127   0.982   2.062
 5959SOL    HW218630   4.018   0.861   2.055
 5960SOL     OW18631   4.185   1.266   3.589
 5960SOL    HW118632   4.135   1.267   3.503
 5960SOL    HW218633   4.122   1.248   3.665
 5961SOL     OW18634   3.926   0.285   3.360
 5961SOL    HW118635   3.846   0.345   3.347
 5961SOL    HW218636   3.916   0.236   3.446
 5962SOL     OW18637   4.188   1.743   2.185
 5962SOL    HW118638   4.221   1.782   2.271
 5962SOL    HW218639   4.264   1.736   2.120
 5963SOL     OW18640   3.973   1.785   3.103
 5963SOL    HW118641   4.030   1.720   3.153
 5963SOL    HW218642   3.957   1.752   3.010
 5964SOL     OW18643   4.106   0.700   2.342
 5964SOL    HW118644   4.151   0.610   2.339
 5964SOL    HW218645   4.012   0.689   2.375
 5965SOL     OW18646   4.338   0.122   1.979
 5965SOL    HW118647   4.436   0.100   1.986
 5965SOL    HW218648   4.307   0.105   1.886
 5966SOL     OW18649   4.527   1.402   2.786
 5966SOL    HW118650   4.617   1.416   2.744
 5966SOL    HW218651   4.456   1.404   2.715
 5967SOL     OW18652   4.263   0.064   2.374
 5967SOL    HW118653   4.182   0.065   2.432
 5967SOL    HW218654   4.266   0.147   2.319
 5968SOL     OW18655   4.021   0.035   2.033
 5968SOL    HW118656   4.070   0.119   2.012
 5968SOL    HW218657   4.083  -0.030   2.078
 5969SOL     OW18658   4.800   0.683   3.326
 5969SOL    HW118659   4.720   0.622   3.329
 5969SOL    HW218660   4.881   0.630   3.302
 5970SOL     OW18661   4.183   1.152   2.603
 5970SOL    HW118662   4.112   1.125   2.668
 5970SOL    HW218663   4.157   1.124   2.510
 5971SOL     OW18664   3.802   0.556   3.248
 5971SOL    HW118665   3.894   0.555   3.207
 5971SOL    HW218666   3.796   0.630   3.315
 5972SOL     OW18667   4.285   0.222   3.009
 5972SOL    HW118668   4.323   0.138   3.046
 5972SOL    HW218669   4.197   0.241   3.053
 5973SOL     OW18670   4.212   1.385   2.036
 5973SOL    HW118671   4.125   1.370   2.083
 5973SOL    HW218672   4.195   1.411   1.941
 5974SOL     OW18673   4.251   0.256   2.190
 5974SOL    HW118674   4.278   0.197   2.115
 5974SOL    HW218675   4.251   0.351   2.159
 5975SOL     OW18676   4.134   0.813   3.113
 5975SOL    HW118677   4.220   0.825   3.163
 5975SOL    HW218678   4.092   0.726   3.140
 5976SOL     OW18679   3.788   1.564   3.193
 5976SOL    HW118680   3.742   1.646   3.159
 5976SOL    HW218681   3.886   1.583   3.202
 5977SOL     OW18682   4.091   1.100   2.363
 5977SOL    HW118683   4.084   1.183   2.307
 5977SOL    HW218684   4.095   1.020   2.303
 5978SOL     OW18685   4.290   0.537   2.727
 5978SOL    HW118686   4.302   0.603   2.653
 5978SOL    HW218687   4.336   0.571   2.810
 5979SOL     OW18688   4.078   1.510   3.191
 5979SOL    HW118689   4.057   1.466   3.104
 5979SOL    HW218690   4.175   1.536   3.194
 5980SOL     OW18691   4.126   0.751   3.460
 5980SOL    HW118692   4.194   0.806   3.413
 5980SOL    HW218693   4.166   0.663   3.487
 5981SOL     OW18694   4.228   0.050   3.602
 5981SOL    HW118695   4.186  -0.007   3.532
 5981SOL    HW218696   4.162   0.119   3.634
 5982SOL     OW18697   4.297   0.870   2.891
 5982SOL    HW118698   4.341   0.959   2.882
 5982SOL    HW218699   4.234   0.870   2.968
 5983SOL     OW18700   4.031   0.213   3.093
 5983SOL    HW118701   4.008   0.250   3.183
 5983SOL    HW218702   4.001   0.118   3.087
 5984SOL     OW18703   3.761   1.310   3.144
 5984SOL    HW118704   3.814   1.261   3.212
 5984SOL    HW218705   3.783   1.408   3.149
 5985SOL     OW18706   4.031   0.063   2.480
 5985SOL    HW118707   4.020   0.157   2.513
 5985SOL    HW218708   4.026   0.000   2.557
 5986SOL     OW18709   4.074   0.898   3.666
 5986SOL    HW118710   4.150   0.942   3.714
 5986SOL    HW218711   4.109   0.851   3.584
 5987SOL     OW18712   4.043   0.810   2.811
 5987SOL    HW118713   4.136   0.846   2.816
 5987SOL    HW218714   4.037   0.725   2.863
 5988SOL     OW18715   4.063   0.509   2.868
 5988SOL    HW118716   4.011   0.426   2.851
 5988SOL    HW218717   4.140   0.514   2.804
 5989SOL     OW18718   3.732   1.326   2.062
 5989SOL    HW118719   3.639   1.347   2.031
 5989SOL    HW218720   3.742   1.227   2.075
 5990SOL     OW18721   3.812   1.801   2.789
 5990SOL    HW118722   3.770   1.715   2.762
 5990SOL    HW218723   3.906   1.804   2.755
 5991SOL     OW18724   4.228   1.568   2.772
 5991SOL    HW118725   4.294   1.642   2.781
 5991SOL    HW218726   4.272   1.489   2.730
 5992SOL     OW18727   3.764   0.544   2.976
 5992SOL    HW118728   3.849   0.511   2.935
 5992SOL    HW218729   3.777   0.559   3.074
 5993SOL     OW18730   3.913   0.520   3.584
 5993SOL    HW118731   3.972   0.480   3.514
 5993SOL    HW218732   3.855   0.591   3.543
 5994SOL     OW18733   4.539   0.572   2.187
 5994SOL    HW118734   4.546   0.483   2.141
 5994SOL    HW218735   4.445   0.606   2.179
 5995SOL     OW18736   3.976   1.564   3.606
 5995SOL    HW118737   3.946   1.621   3.682
 5995SOL    HW218738   3.969   1.467   3.632
 5996SOL     OW18739   4.197   0.500   2.053
 5996SOL    HW118740   4.258   0.580   2.057
 5996SOL    HW218741   4.102   0.531   2.060
 5997SOL     OW18742   3.883   1.137   3.328
 5997SOL    HW118743   3.905   1.076   3.404
 5997SOL    HW218744   3.893   1.088   3.242
 5998SOL     OW18745   3.807   1.258   2.884
 5998SOL    HW118746   3.802   1.257   2.984
 5998SOL    HW218747   3.724   1.217   2.846
 5999SOL     OW18748   4.412   1.662   3.578
 5999SOL    HW118749   4.356   1.743   3.587
 5999SOL    HW218750   4.464   1.666   3.492
 6000SOL     OW18751   3.854   1.794   3.713
 6000SOL    HW118752   3.813   1.720   3.766
 6000SOL    HW218753   3.918   1.845   3.771
 6001SOL     OW18754   3.987   0.326   2.582
 6001SOL    HW118755   3.908   0.377   2.548
 6001SOL    HW218756   3.978   0.311   2.680
 6002SOL     OW18757   4.096   1.288   3.352
 6002SOL    HW118758   4.083   1.381   3.318
 6002SOL    HW218759   4.012   1.236   3.339
 6003SOL     OW18760   4.314   1.487   2.353
 6003SOL    HW118761   4.356   1.429   2.283
 6003SOL    HW218762   4.270   1.566   2.309
 6004SOL     OW18763   3.979   1.348   2.152
 6004SOL    HW118764   3.883   1.349   2.125
 6004SOL    HW218765   3.991   1.401   2.236
 6005SOL     OW18766   3.829   1.013   3.588
 6005SOL    HW118767   3.752   0.980   3.642
 6005SOL    HW218768   3.914   0.983   3.630
 6006SOL     OW18769   4.396   0.203   3.351
 6006SOL    HW118770   4.486   0.187   3.311
 6006SOL    HW218771   4.404   0.208   3.450
 6007SOL     OW18772   3.799   0.345   1.895
 6007SOL    HW118773   3.707   0.317   1.866
 6007SOL    HW218774   3.830   0.422   1.839
 6008SOL     OW18775   3.796   0.166   2.180
 6008SOL    HW118776   3.779   0.249   2.126
 6008SOL    HW218777   3.886   0.129   2.158
 6009SOL     OW18778   4.337   0.842   3.293
 6009SOL    HW118779   4.393   0.923   3.276
 6009SOL    HW218780   4.396   0.762   3.296
 6010SOL     OW18781   4.440   0.565   3.570
 6010SOL    HW118782   4.459   0.630   3.644
 6010SOL    HW218783   4.500   0.485   3.579
 6011SOL     OW18784   4.114   1.741   3.422
 6011SOL    HW118785   4.023   1.782   3.420
 6011SOL    HW218786   4.107   1.647   3.454
 6012SOL     OW18787   4.318   0.745   2.514
 6012SOL    HW118788   4.368   0.830   2.495
 6012SOL    HW218789   4.230   0.747   2.466
 6013SOL     OW18790   3.945   1.314   3.706
 6013SOL    HW118791   3.880   1.241   3.685
 6013SOL    HW218792   3.949   1.328   3.804
 6014SOL     OW18793   3.803   1.240   2.515
 6014SOL    HW118794   3.802   1.193   2.603
 6014SOL    HW218795   3.885   1.212   2.464
 6015SOL     OW18796   4.396   1.391   3.486
 6015SOL    HW118797   4.318   1.341   3.524
 6015SOL    HW218798   4.393   1.486   3.517
 6016SOL     OW18799   4.152   0.424   2.382
 6016SOL    HW118800   4.182   0.352   2.320
 6016SOL    HW218801   4.113   0.384   2.465
 6017SOL     OW18802   4.041   0.547   3.142
 6017SOL    HW118803   4.079   0.488   3.214
 6017SOL    HW218804   4.081   0.521   3.054
 6018SOL     OW18805   4.536   1.586   2.549
 6018SOL    HW118806   4.568   1.596   2.455
 6018SOL    HW218807   4.457   1.524   2.551
 6019SOL     OW18808   3.763   1.077   2.162
 6019SOL    HW118809   3.862   1.066   2.153
 6019SOL    HW218810   3.723   0.991   2.194
 6020SOL     OW18811   3.954   0.628   3.837
 6020SOL    HW118812   3.861   0.626   3.874
 6020SOL    HW218813   3.955   0.589   3.745
 6021SOL     OW18814   3.949   0.275   4.720
 6021SOL    HW118815   3.984   0.258   4.812
 6021SOL    HW218816   3.861   0.230   4.708
 6022SOL     OW18817   3.743   0.368   4.371
 6022SOL    HW118818   3.661   0.411   4.410
 6022SOL    HW218819   3.715   0.295   4.308
 6023SOL     OW18820   4.293   1.275   4.889
 6023SOL    HW118821   4.200   1.268   4.852
 6023SOL    HW218822   4.304   1.364   4.933
 6024SOL     OW18823   4.574   0.798   5.547
 6024SOL    HW118824   4.570   0.874   5.612
 6024SOL    HW218825   4.596   0.834   5.456
 6025SOL     OW18826   4.409   1.012   4.389
 6025SOL    HW118827   4.478   0.996   4.459
 6025SOL    HW218828   4.336   1.069   4.427
 6026SOL     OW18829   4.410   1.161   5.527
 6026SOL    HW118830   4.470   1.240   5.541
 6026SOL    HW218831   4.324   1.192   5.486
 6027SOL     OW18832   4.059   1.435   4.785
 6027SOL    HW118833   3.981   1.404   4.732
 6027SOL    HW218834   4.117   1.493   4.728
 6028SOL     OW18835   4.162   0.392   5.223
 6028SOL    HW118836   4.244   0.336   5.232
 6028SOL    HW218837   4.081   0.334   5.227
 6029SOL     OW18838   3.955   1.713   4.207
 6029SOL    HW118839   3.989   1.790   4.261
 6029SOL    HW218840   3.999   1.713   4.117
 6030SOL     OW18841   3.954   1.434   4.262
 6030SOL    HW118842   3.928   1.530   4.262
 6030SOL    HW218843   3.883   1.380   4.307
 6031SOL     OW18844   3.964   1.091   4.610
 6031SOL    HW118845   3.978   1.007   4.662
 6031SOL    HW218846   3.909   1.155   4.665
 6032SOL     OW18847   4.344   1.786   5.163
 6032SOL    HW118848   4.252   1.769   5.198
 6032SOL    HW218849   4.372   1.878   5.189
 6033SOL     OW18850   4.330   0.964   3.847
 6033SOL    HW118851   4.337   1.048   3.793
 6033SOL    HW218852   4.376   0.977   3.935
 6034SOL     OW18853   3.846   0.643   4.287
 6034SOL    HW118854   3.801   0.555   4.304
 6034SOL    HW218855   3.845   0.697   4.371
 6035SOL     OW18856   3.751   1.596   3.841
 6035SOL    HW118857   3.732   1.500   3.862
 6035SOL    HW218858   3.718   1.654   3.916
 6036SOL     OW18859   3.837   0.737   5.321
 6036SOL    HW118860   3.925   0.724   5.366
 6036SOL    HW218861   3.824   0.834   5.299
 6037SOL     OW18862   4.337   1.365   4.450
 6037SOL    HW118863   4.288   1.278   4.459
 6037SOL    HW218864   4.314   1.408   4.363
 6038SOL     OW18865   4.533   0.004   4.226
 6038SOL    HW118866   4.573   0.095   4.217
 6038SOL    HW218867   4.433   0.012   4.232
 6039SOL     OW18868   3.921   0.976   4.988
 6039SOL    HW118869   4.010   0.931   4.974
 6039SOL    HW218870   3.848   0.911   4.969
 6040SOL     OW18871   4.041   0.251   5.525
 6040SOL    HW118872   4.112   0.322   5.531
 6040SOL    HW218873   3.953   0.290   5.553
 6041SOL     OW18874   4.322   0.729   3.994
 6041SOL    HW118875   4.346   0.798   3.926
 6041SOL    HW218876   4.244   0.762   4.048
 6042SOL     OW18877   3.800   0.811   4.513
 6042SOL    HW118878   3.899   0.799   4.522
 6042SOL    HW218879   3.776   0.906   4.534
 6043SOL     OW18880   3.854   1.821   5.295
 6043SOL    HW118881   3.844   1.806   5.394
 6043SOL    HW218882   3.768   1.857   5.259
 6044SOL     OW18883   4.274   0.196   4.609
 6044SOL    HW118884   4.269   0.191   4.709
 6044SOL    HW218885   4.276   0.292   4.580
 6045SOL     OW18886   4.075   1.801   4.577
 6045SOL    HW118887   4.125   1.715   4.583
 6045SOL    HW218888   4.140   1.878   4.574
 6046SOL     OW18889   4.045   0.943   3.966
 6046SOL    HW118890   4.127   0.982   3.924
 6046SOL    HW218891   4.018   0.861   3.917
 6047SOL     OW18892   4.185   1.266   5.451
 6047SOL    HW118893   4.135   1.267   5.365
 6047SOL    HW218894   4.122   1.248   5.527
 6048SOL     OW18895   3.926   0.285   5.222
 6048SOL    HW118896   3.846   0.345   5.209
 6048SOL    HW218897   3.916   0.236   5.308
 6049SOL     OW18898   4.188   1.743   4.047
 6049SOL    HW118899   4.221   1.782   4.133
 6049SOL    HW218900   4.264   1.736   3.982
 6050SOL     OW18901   3.973   1.785   4.965
 6050SOL    HW118902   4.030   1.720   5.015
 6050SOL    HW218903   3.957   1.752   4.872
 6051SOL     OW18904   4.106   0.700   4.204
 6051SOL    HW118905   4.151   0.610   4.201
 6051SOL    HW218906   4.012   0.689   4.237
 6052SOL     OW18907   4.338   0.122   3.841
 6052SOL    HW118908   4.436   0.100   3.848
 6052SOL    HW218909   4.307   0.105   3.748
 6053SOL     OW18910   4.527   1.402   4.648
 6053SOL    HW118911   4.617   1.416   4.606
 6053SOL    HW218912   4.456   1.404   4.577
 6054SOL     OW18913   4.263   0.064   4.236
 6054SOL    HW118914   4.182   0.065   4.294
 6054SOL    HW218915   4.266   0.147   4.181
 6055SOL     OW18916   4.021   0.035   3.895
 6055SOL    HW118917   4.070   0.119   3.874
 6055SOL    HW218918   4.083  -0.030   3.940
 6056SOL     OW18919   4.800   0.683   5.188
 6056SOL    HW118920   4.720   0.622   5.191
 6056SOL    HW218921   4.881   0.630   5.164
 6057SOL     OW18922   4.183   1.152   4.465
 6057SOL    HW118923   4.112   1.125   4.530
 6057SOL    HW218924   4.157   1.124   4.372
 6058SOL     OW18925   3.802   0.556   5.110
 6058SOL    HW118926   3.894   0.555   5.069
 6058SOL    HW218927   3.796   0.630   5.177
 6059SOL     OW18928   4.285   0.222   4.871
 6059SOL    HW118929   4.323   0.138   4.908
 6059SOL    HW218930   4.197   0.241   4.915
 6060SOL     OW18931   4.212   1.385   3.898
 6060SOL    HW118932   4.125   1.370   3.945
 6060SOL    HW218933   4.195   1.411   3.803
 6061SOL     OW18934   4.251   0.256   4.052
 6061SOL    HW118935   4.278   0.197   3.977
 6061SOL    HW218936   4.251   0.351   4.021
 6062SOL     OW18937   4.134   0.813   4.975
 6062SOL    HW118938   4.220   0.825   5.025
 6062SOL    HW218939   4.092   0.726   5.002
 6063SOL     OW18940   3.788   1.564   5.055
 6063SOL    HW118941   3.742   1.646   5.021
 6063SOL    HW218942   3.886   1.583   5.064
 6064SOL     OW18943   4.091   1.100   4.225
 6064SOL    HW118944   4.084   1.183   4.169
 6064SOL    HW218945   4.095   1.020   4.165
 6065SOL     OW18946   4.290   0.537   4.589
 6065SOL    HW118947   4.302   0.603   4.515
 6065SOL    HW218948   4.336   0.571   4.672
 6066SOL     OW18949   4.078   1.510   5.053
 6066SOL    HW118950   4.057   1.466   4.966
 6066SOL    HW218951   4.175   1.536   5.056
 6067SOL     OW18952   4.126   0.751   5.322
 6067SOL    HW118953   4.194   0.806   5.275
 6067SOL    HW218954   4.166   0.663   5.349
 6068SOL     OW18955   4.228   0.050   5.464
 6068SOL    HW118956   4.186  -0.007   5.394
 6068SOL    HW218957   4.162   0.119   5.496
 6069SOL     OW18958   4.297   0.870   4.753
 6069SOL    HW118959   4.341   0.959   4.744
 6069SOL    HW218960   4.234   0.870   4.830
 6070SOL     OW18961   4.031   0.213   4.955
 6070SOL    HW118962   4.008   0.250   5.045
 6070SOL    HW218963   4.001   0.118   4.949
 6071SOL     OW18964   3.761   1.310   5.006
 6071SOL    HW118965   3.814   1.261   5.074
 6071SOL    HW218966   3.783   1.408   5.011
 6072SOL     OW18967   4.031   0.063   4.342
 6072SOL    HW118968   4.020   0.157   4.375
 6072SOL    HW218969   4.026   0.000   4.419
 6073SOL     OW18970   4.074   0.898   5.528
 6073SOL    HW118971   4.150   0.942   5.576
 6073SOL    HW218972   4.109   0.851   5.446
 6074SOL     OW18973   4.043   0.810   4.673
 6074SOL    HW118974   4.136   0.846   4.678
 6074SOL    HW218975   4.037   0.725   4.725
 6075SOL     OW18976   4.063   0.509   4.730
 6075SOL    HW118977   4.011   0.426   4.713
 6075SOL    HW218978   4.140   0.514   4.666
 6076SOL     OW18979   3.732   1.326   3.924
 6076SOL    HW118980   3.639   1.347   3.893
 6076SOL    HW218981   3.742   1.227   3.937
 6077SOL     OW18982   3.812   1.801   4.651
 6077SOL    HW118983   3.770   1.715   4.624
 6077SOL    HW218984   3.906   1.804   4.617
 6078SOL     OW18985   4.228   1.568   4.634
 6078SOL    HW118986   4.294   1.642   4.643
 6078SOL    HW218987   4.272   1.489   4.592
 6079SOL     OW18988   3.764   0.544   4.838
 6079SOL    HW118989   3.849   0.511   4.797
 6079SOL    HW218990   3.777   0.559   4.936
 6080SOL     OW18991   3.913   0.520   5.446
 6080SOL    HW118992   3.972   0.480   5.376
 6080SOL    HW218993   3.855   0.591   5.405
 6081SOL     OW18994   4.539   0.572   4.049
 6081SOL    HW118995   4.546   0.483   4.003
 6081SOL    HW218996   4.445   0.606   4.041
 6082SOL     OW18997   3.976   1.564   5.468
 6082SOL    HW118998   3.946   1.621   5.544
 6082SOL    HW218999   3.969   1.467   5.494
 6083SOL     OW19000   4.197   0.500   3.915
 6083SOL    HW119001   4.258   0.580   3.919
 6083SOL    HW219002   4.102   0.531   3.922
 6084SOL     OW19003   3.883   1.137   5.190
 6084SOL    HW119004   3.905   1.076   5.266
 6084SOL    HW219005   3.893   1.088   5.104
 6085SOL     OW19006   3.807   1.258   4.746
 6085SOL    HW119007   3.802   1.257   4.846
 6085SOL    HW219008   3.724   1.217   4.708
 6086SOL     OW19009   4.412   1.662   5.440
 6086SOL    HW119010   4.356   1.743   5.449
 6086SOL    HW219011   4.464   1.666   5.354
 6087SOL     OW19012   3.854   1.794   5.575
 6087SOL    HW119013   3.813   1.720   5.628
 6087SOL    HW219014   3.918   1.845   5.633
 6088SOL     OW19015   3.987   0.326   4.444
 6088SOL    HW119016   3.908   0.377   4.410
 6088SOL    HW219017   3.978   0.311   4.542
 6089SOL     OW19018   4.096   1.288   5.214
 6089SOL    HW119019   4.083   1.381   5.180
 6089SOL    HW219020   4.012   1.236   5.201
 6090SOL     OW19021   4.314   1.487   4.215
 6090SOL    HW119022   4.356   1.429   4.145
 6090SOL    HW219023   4.270   1.566   4.171
 6091SOL     OW19024   3.979   1.348   4.014
 6091SOL    HW119025   3.883   1.349   3.987
 6091SOL    HW219026   3.991   1.401   4.098
 6092SOL     OW19027   3.829   1.013   5.450
 6092SOL    HW119028   3.752   0.980   5.504
 6092SOL    HW219029   3.914   0.983   5.492
 6093SOL     OW19030   4.396   0.203   5.213
 6093SOL    HW119031   4.486   0.187   5.173
 6093SOL    HW219032   4.404   0.208   5.312
 6094SOL     OW19033   3.799   0.345   3.757
 6094SOL    HW119034   3.707   0.317   3.728
 6094SOL    HW219035   3.830   0.422   3.701
 6095SOL     OW19036   3.796   0.166   4.042
 6095SOL    HW119037   3.779   0.249   3.988
 6095SOL    HW219038   3.886   0.129   4.020
 6096SOL     OW19039   4.337   0.842   5.155
 6096SOL    HW119040   4.393   0.923   5.138
 6096SOL    HW219041   4.396   0.762   5.158
 6097SOL     OW19042   4.440   0.565   5.432
 6097SOL    HW119043   4.459   0.630   5.506
 6097SOL    HW219044   4.500   0.485   5.441
 6098SOL     OW19045   4.114   1.741   5.284
 6098SOL    HW119046   4.023   1.782   5.282
 6098SOL    HW219047   4.107   1.647   5.316
 6099SOL     OW19048   4.318   0.745   4.376
 6099SOL    HW119049   4.368   0.830   4.357
 6099SOL    HW219050   4.230   0.747   4.328
 6100SOL     OW19051   3.945   1.314   5.568
 6100SOL    HW119052   3.880   1.241   5.547
 6100SOL    HW219053   3.949   1.328   5.666
 6101SOL     OW19054   3.803   1.240   4.377
 6101SOL    HW119055   3.802   1.193   4.465
 6101SOL    HW219056   3.885   1.212   4.326
 6102SOL     OW19057   4.396   1.391   5.348
 6102SOL    HW119058   4.318   1.341   5.386
 6102SOL    HW219059   4.393   1.486   5.379
 6103SOL     OW19060   4.152   0.424   4.244
 6103SOL    HW119061   4.182   0.352   4.182
 6103SOL    HW219062   4.113   0.384   4.327
 6104SOL     OW19063   4.041   0.547   5.004
 6104SOL    HW119064   4.079   0.488   5.076
 6104SOL    HW219065   4.081   0.521   4.916
 6105SOL     OW19066   4.536   1.586   4.411
 6105SOL    HW119067   4.568   1.596   4.317
 6105SOL    HW219068   4.457   1.524   4.413
 6106SOL     OW19069   3.763   1.077   4.024
 6106SOL    HW119070   3.862   1.066   4.015
 6106SOL    HW219071   3.723   0.991   4.056
 6107SOL     OW19072   3.954   0.628   5.699
 6107SOL    HW119073   3.861   0.626   5.736
 6107SOL    HW219074   3.955   0.589   5.607
 6108SOL     OW19075   3.949   0.275   6.582
 6108SOL    HW119076   3.984   0.258   6.674
 6108SOL    HW219077   3.861   0.230   6.570
 6109SOL     OW19078   3.743   0.368   6.233
 6109SOL    HW119079   3.661   0.411   6.272
 6109SOL    HW219080   3.715   0.295   6.170
 6110SOL     OW19081   4.293   1.275   6.751
 6110SOL    HW119082   4.200   1.268   6.714
 6110SOL    HW219083   4.304   1.364   6.795
 6111SOL     OW19084   4.574   0.798   7.409
 6111SOL    HW119085   4.570   0.874   7.474
 6111SOL    HW219086   4.596   0.834   7.318
 6112SOL     OW19087   4.409   1.012   6.251
 6112SOL    HW119088   4.478   0.996   6.321
 6112SOL    HW219089   4.336   1.069   6.289
 6113SOL     OW19090   4.410   1.161   7.389
 6113SOL    HW119091   4.470   1.240   7.403
 6113SOL    HW219092   4.324   1.192   7.348
 6114SOL     OW19093   4.059   1.435   6.647
 6114SOL    HW119094   3.981   1.404   6.594
 6114SOL    HW219095   4.117   1.493   6.590
 6115SOL     OW19096   4.162   0.392   7.085
 6115SOL    HW119097   4.244   0.336   7.094
 6115SOL    HW219098   4.081   0.334   7.089
 6116SOL     OW19099   3.955   1.713   6.069
 6116SOL    HW119100   3.989   1.790   6.123
 6116SOL    HW219101   3.999   1.713   5.979
 6117SOL     OW19102   3.954   1.434   6.124
 6117SOL    HW119103   3.928   1.530   6.124
 6117SOL    HW219104   3.883   1.380   6.169
 6118SOL     OW19105   3.964   1.091   6.472
 6118SOL    HW119106   3.978   1.007   6.524
 6118SOL    HW219107   3.909   1.155   6.527
 6119SOL     OW19108   4.344   1.786   7.025
 6119SOL    HW119109   4.252   1.769   7.060
 6119SOL    HW219110   4.372   1.878   7.051
 6120SOL     OW19111   4.330   0.964   5.709
 6120SOL    HW119112   4.337   1.048   5.655
 6120SOL    HW219113   4.376   0.977   5.797
 6121SOL     OW19114   3.846   0.643   6.149
 6121SOL    HW119115   3.801   0.555   6.166
 6121SOL    HW219116   3.845   0.697   6.233
 6122SOL     OW19117   3.751   1.596   5.703
 6122SOL    HW119118   3.732   1.500   5.724
 6122SOL    HW219119   3.718   1.654   5.778
 6123SOL     OW19120   3.837   0.737   7.183
 6123SOL    HW119121   3.925   0.724   7.228
 6123SOL    HW219122   3.824   0.834   7.161
 6124SOL     OW19123   4.337   1.365   6.312
 6124SOL    HW119124   4.288   1.278   6.321
 6124SOL    HW219125   4.314   1.408   6.225
 6125SOL     OW19126   4.533   0.004   6.088
 6125SOL    HW119127   4.573   0.095   6.079
 6125SOL    HW219128   4.433   0.012   6.094
 6126SOL     OW19129   3.921   0.976   6.850
 6126SOL    HW119130   4.010   0.931   6.836
 6126SOL    HW219131   3.848   0.911   6.831
 6127SOL     OW19132   4.041   0.251   7.387
 6127SOL    HW119133   4.112   0.322   7.393
 6127SOL    HW219134   3.953   0.290   7.415
 6128SOL     OW19135   4.322   0.729   5.856
 6128SOL    HW119136   4.346   0.798   5.788
 6128SOL    HW219137   4.244   0.762   5.910
 6129SOL     OW19138   3.800   0.811   6.375
 6129SOL    HW119139   3.899   0.799   6.384
 6129SOL    HW219140   3.776   0.906   6.396
 6130SOL     OW19141   3.854   1.821   7.157
 6130SOL    HW119142   3.844   1.806   7.256
 6130SOL    HW219143   3.768   1.857   7.121
 6131SOL     OW19144   4.274   0.196   6.471
 6131SOL    HW119145   4.269   0.191   6.571
 6131SOL    HW219146   4.276   0.292   6.442
 6132SOL     OW19147   4.075   1.801   6.439
 6132SOL    HW119148   4.125   1.715   6.445
 6132SOL    HW219149   4.140   1.878   6.436
 6133SOL     OW19150   4.045   0.943   5.828
 6133SOL    HW119151   4.127   0.982   5.786
 6133SOL    HW219152   4.018   0.861   5.779
 6134SOL     OW19153   4.185   1.266   7.313
 6134SOL    HW119154   4.135   1.267   7.227
 6134SOL    HW219155   4.122   1.248   7.389
 6135SOL     OW19156   3.926   0.285   7.084
 6135SOL    HW119157   3.846   0.345   7.071
 6135SOL    HW219158   3.916   0.236   7.170
 6136SOL     OW19159   4.188   1.743   5.909
 6136SOL    HW119160   4.221   1.782   5.995
 6136SOL    HW219161   4.264   1.736   5.844
 6137SOL     OW19162   3.973   1.785   6.827
 6137SOL    HW119163   4.030   1.720   6.877
 6137SOL    HW219164   3.957   1.752   6.734
 6138SOL     OW19165   4.106   0.700   6.066
 6138SOL    HW119166   4.151   0.610   6.063
 6138SOL    HW219167   4.012   0.689   6.099
 6139SOL     OW19168   4.338   0.122   5.703
 6139SOL    HW119169   4.436   0.100   5.710
 6139SOL    HW219170   4.307   0.105   5.610
 6140SOL     OW19171   4.527   1.402   6.510
 6140SOL    HW119172   4.617   1.416   6.468
 6140SOL    HW219173   4.456   1.404   6.439
 6141SOL     OW19174   4.263   0.064   6.098
 6141SOL    HW119175   4.182   0.065   6.156
 6141SOL    HW219176   4.266   0.147   6.043
 6142SOL     OW19177   4.021   0.035   5.757
 6142SOL    HW119178   4.070   0.119   5.736
 6142SOL    HW219179   4.083  -0.030   5.802
 6143SOL     OW19180   4.800   0.683   7.050
 6143SOL    HW119181   4.720   0.622   7.053
 6143SOL    HW219182   4.881   0.630   7.026
 6144SOL     OW19183   4.183   1.152   6.327
 6144SOL    HW119184   4.112   1.125   6.392
 6144SOL    HW219185   4.157   1.124   6.234
 6145SOL     OW19186   3.802   0.556   6.972
 6145SOL    HW119187   3.894   0.555   6.931
 6145SOL    HW219188   3.796   0.630   7.039
 6146SOL     OW19189   4.285   0.222   6.733
 6146SOL    HW119190   4.323   0.138   6.770
 6146SOL    HW219191   4.197   0.241   6.777
 6147SOL     OW19192   4.212   1.385   5.760
 6147SOL    HW119193   4.125   1.370   5.807
 6147SOL    HW219194   4.195   1.411   5.665
 6148SOL     OW19195   4.251   0.256   5.914
 6148SOL    HW119196   4.278   0.197   5.839
 6148SOL    HW219197   4.251   0.351   5.883
 6149SOL     OW19198   4.134   0.813   6.837
 6149SOL    HW119199   4.220   0.825   6.887
 6149SOL    HW219200   4.092   0.726   6.864
 6150SOL     OW19201   3.788   1.564   6.917
 6150SOL    HW119202   3.742   1.646   6.883
 6150SOL    HW219203   3.886   1.583   6.926
 6151SOL     OW19204   4.091   1.100   6.087
 6151SOL    HW119205   4.084   1.183   6.031
 6151SOL    HW219206   4.095   1.020   6.027
 6152SOL     OW19207   4.290   0.537   6.451
 6152SOL    HW119208   4.302   0.603   6.377
 6152SOL    HW219209   4.336   0.571   6.534
 6153SOL     OW19210   4.078   1.510   6.915
 6153SOL    HW119211   4.057   1.466   6.828
 6153SOL    HW219212   4.175   1.536   6.918
 6154SOL     OW19213   4.126   0.751   7.184
 6154SOL    HW119214   4.194   0.806   7.137
 6154SOL    HW219215   4.166   0.663   7.211
 6155SOL     OW19216   4.228   0.050   7.326
 6155SOL    HW119217   4.186  -0.007   7.256
 6155SOL    HW219218   4.162   0.119   7.358
 6156SOL     OW19219   4.297   0.870   6.615
 6156SOL    HW119220   4.341   0.959   6.606
 6156SOL    HW219221   4.234   0.870   6.692
 6157SOL     OW19222   4.031   0.213   6.817
 6157SOL    HW119223   4.008   0.250   6.907
 6157SOL    HW219224   4.001   0.118   6.811
 6158SOL     OW19225   3.761   1.310   6.868
 6158SOL    HW119226   3.814   1.261   6.936
 6158SOL    HW219227   3.783   1.408   6.873
 6159SOL     OW19228   4.031   0.063   6.204
 6159SOL    HW119229   4.020   0.157   6.237
 6159SOL    HW219230   4.026   0.000   6.281
 6160SOL     OW19231   4.074   0.898   7.390
 6160SOL    HW119232   4.150   0.942   7.438
 6160SOL    HW219233   4.109   0.851   7.308
 6161SOL     OW19234   4.043   0.810   6.535
 6161SOL    HW119235   4.136   0.846   6.540
 6161SOL    HW219236   4.037   0.725   6.587
 6162SOL     OW19237   4.063   0.509   6.592
 6162SOL    HW119238   4.011   0.426   6.575
 6162SOL    HW219239   4.140   0.514   6.528
 6163SOL     OW19240   3.732   1.326   5.786
 6163SOL    HW119241   3.639   1.347   5.755
 6163SOL    HW219242   3.742   1.227   5.799
 6164SOL     OW19243   3.812   1.801   6.513
 6164SOL    HW119244   3.770   1.715   6.486
 6164SOL    HW219245   3.906   1.804   6.479
 6165SOL     OW19246   4.228   1.568   6.496
 6165SOL    HW119247   4.294   1.642   6.505
 6165SOL    HW219248   4.272   1.489   6.454
 6166SOL     OW19249   3.764   0.544   6.700
 6166SOL    HW119250   3.849   0.511   6.659
 6166SOL    HW219251   3.777   0.559   6.798
 6167SOL     OW19252   3.913   0.520   7.308
 6167SOL    HW119253   3.972   0.480   7.238
 6167SOL    HW219254   3.855   0.591   7.267
 6168SOL     OW19255   4.539   0.572   5.911
 6168SOL    HW119256   4.546   0.483   5.865
 6168SOL    HW219257   4.445   0.606   5.903
 6169SOL     OW19258   3.976   1.564   7.330
 6169SOL    HW119259   3.946   1.621   7.406
 6169SOL    HW219260   3.969   1.467   7.356
 6170SOL     OW19261   4.197   0.500   5.777
 6170SOL    HW119262   4.258   0.580   5.781
 6170SOL    HW219263   4.102   0.531   5.784
 6171SOL     OW19264   3.883   1.137   7.052
 6171SOL    HW119265   3.905   1.076   7.128
 6171SOL    HW219266   3.893   1.088   6.966
 6172SOL     OW19267   3.807   1.258   6.608
 6172SOL    HW119268   3.802   1.257   6.708
 6172SOL    HW219269   3.724   1.217   6.570
 6173SOL     OW19270   4.412   1.662   7.302
 6173SOL    HW119271   4.356   1.743   7.311
 6173SOL    HW219272   4.464   1.666   7.216
 6174SOL     OW19273   3.854   1.794   7.437
 6174SOL    HW119274   3.813   1.720   7.490
 6174SOL    HW219275   3.918   1.845   7.495
 6175SOL     OW19276   3.987   0.326   6.306
 6175SOL    HW119277   3.908   0.377   6.272
 6175SOL    HW219278   3.978   0.311   6.404
 6176SOL     OW19279   4.096   1.288   7.076
 6176SOL    HW119280   4.083   1.381   7.042
 6176SOL    HW219281   4.012   1.236   7.063
 6177SOL     OW19282   4.314   1.487   6.077
 6177SOL    HW119283   4.356   1.429   6.007
 6177SOL    HW219284   4.270   1.566   6.033
 6178SOL     OW19285   3.979   1.348   5.876
 6178SOL    HW119286   3.883   1.349   5.849
 6178SOL    HW219287   3.991   1.401   5.960
 6179SOL     OW19288   3.829   1.013   7.312
 6179SOL    HW119289   3.752   0.980   7.366
 6179SOL    HW219290   3.914   0.983   7.354
 6180SOL     OW19291   4.396   0.203   7.075
 6180SOL    HW119292   4.486   0.187   7.035
 6180SOL    HW219293   4.404   0.208   7.174
 6181SOL     OW19294   3.799   0.345   5.619
 6181SOL    HW119295   3.707   0.317   5.590
 6181SOL    HW219296   3.830   0.422   5.563
 6182SOL     OW19297   3.796   0.166   5.904
 6182SOL    HW119298   3.779   0.249   5.850
 6182SOL    HW219299   3.886   0.129   5.882
 6183SOL     OW19300   4.337   0.842   7.017
 6183SOL    HW119301   4.393   0.923   7.000
 6183SOL    HW219302   4.396   0.762   7.020
 6184SOL     OW19303   4.440   0.565   7.294
 6184SOL    HW119304   4.459   0.630   7.368
 6184SOL    HW219305   4.500   0.485   7.303
 6185SOL     OW19306   4.114   1.741   7.146
 6185SOL    HW119307   4.023   1.782   7.144
 6185SOL    HW219308   4.107   1.647   7.178
 6186SOL     OW19309   4.318   0.745   6.238
 6186SOL    HW119310   4.368   0.830   6.219
 6186SOL    HW219311   4.230   0.747   6.190
 6187SOL     OW19312   3.945   1.314   7.430
 6187SOL    HW119313   3.880   1.241   7.409
 6187SOL    HW219314   3.949   1.328   7.528
 6188SOL     OW19315   3.803   1.240   6.239
 6188SOL    HW119316   3.802   1.193   6.327
 6188SOL    HW219317   3.885   1.212   6.188
 6189SOL     OW19318   4.396   1.391   7.210
 6189SOL    HW119319   4.318   1.341   7.248
 6189SOL    HW219320   4.393   1.486   7.241
 6190SOL     OW19321   4.152   0.424   6.106
 6190SOL    HW119322   4.182   0.352   6.044
 6190SOL    HW219323   4.113   0.384   6.189
 6191SOL     OW19324   4.041   0.547   6.866
 6191SOL    HW119325   4.079   0.488   6.938
 6191SOL    HW219326   4.081   0.521   6.778
 6192SOL     OW19327   4.536   1.586   6.273
 6192SOL    HW119328   4.568   1.596   6.179
 6192SOL    HW219329   4.457   1.524   6.275
 6193SOL     OW19330   3.763   1.077   5.886
 6193SOL    HW119331   3.862   1.066   5.877
 6193SOL    HW219332   3.723   0.991   5.918
 6194SOL     OW19333   3.954   0.628   7.561
 6194SOL    HW119334   3.861   0.626   7.598
 6194SOL    HW219335   3.955   0.589   7.469
 6195SOL     OW19336   3.949   0.275   8.444
 6195SOL    HW119337   3.984   0.258   8.536
 6195SOL    HW219338   3.861   0.230   8.432
 6196SOL     OW19339   3.743   0.368   8.095
 6196SOL    HW119340   3.661   0.411   8.134
 6196SOL    HW219341   3.715   0.295   8.032
 6197SOL     OW19342   4.293   1.275   8.613
 6197SOL    HW119343   4.200   1.268   8.576
 6197SOL    HW219344   4.304   1.364   8.657
 6198SOL     OW19345   4.574   0.798   9.271
 6198SOL    HW119346   4.570   0.874   9.336
 6198SOL    HW219347   4.596   0.834   9.180
 6199SOL     OW19348   4.409   1.012   8.113
 6199SOL    HW119349   4.478   0.996   8.183
 6199SOL    HW219350   4.336   1.069   8.151
 6200SOL     OW19351   4.410   1.161   9.251
 6200SOL    HW119352   4.470   1.240   9.265
 6200SOL    HW219353   4.324   1.192   9.210
 6201SOL     OW19354   4.059   1.435   8.509
 6201SOL    HW119355   3.981   1.404   8.456
 6201SOL    HW219356   4.117   1.493   8.452
 6202SOL     OW19357   4.162   0.392   8.947
 6202SOL    HW119358   4.244   0.336   8.956
 6202SOL    HW219359   4.081   0.334   8.951
 6203SOL     OW19360   3.955   1.713   7.931
 6203SOL    HW119361   3.989   1.790   7.985
 6203SOL    HW219362   3.999   1.713   7.841
 6204SOL     OW19363   3.954   1.434   7.986
 6204SOL    HW119364   3.928   1.530   7.986
 6204SOL    HW219365   3.883   1.380   8.031
 6205SOL     OW19366   3.964   1.091   8.334
 6205SOL    HW119367   3.978   1.007   8.386
 6205SOL    HW219368   3.909   1.155   8.389
 6206SOL     OW19369   4.344   1.786   8.887
 6206SOL    HW119370   4.252   1.769   8.922
 6206SOL    HW219371   4.372   1.878   8.913
 6207SOL     OW19372   4.330   0.964   7.571
 6207SOL    HW119373   4.337   1.048   7.517
 6207SOL    HW219374   4.376   0.977   7.659
 6208SOL     OW19375   3.846   0.643   8.011
 6208SOL    HW119376   3.801   0.555   8.028
 6208SOL    HW219377   3.845   0.697   8.095
 6209SOL     OW19378   3.751   1.596   7.565
 6209SOL    HW119379   3.732   1.500   7.586
 6209SOL    HW219380   3.718   1.654   7.640
 6210SOL     OW19381   3.837   0.737   9.045
 6210SOL    HW119382   3.925   0.724   9.090
 6210SOL    HW219383   3.824   0.834   9.023
 6211SOL     OW19384   4.337   1.365   8.174
 6211SOL    HW119385   4.288   1.278   8.183
 6211SOL    HW219386   4.314   1.408   8.087
 6212SOL     OW19387   4.533   0.004   7.950
 6212SOL    HW119388   4.573   0.095   7.941
 6212SOL    HW219389   4.433   0.012   7.956
 6213SOL     OW19390   3.921   0.976   8.712
 6213SOL    HW119391   4.010   0.931   8.698
 6213SOL    HW219392   3.848   0.911   8.693
 6214SOL     OW19393   4.041   0.251   9.249
 6214SOL    HW119394   4.112   0.322   9.255
 6214SOL    HW219395   3.953   0.290   9.277
 6215SOL     OW19396   4.322   0.729   7.718
 6215SOL    HW119397   4.346   0.798   7.650
 6215SOL    HW219398   4.244   0.762   7.772
 6216SOL     OW19399   3.800   0.811   8.237
 6216SOL    HW119400   3.899   0.799   8.246
 6216SOL    HW219401   3.776   0.906   8.258
 6217SOL     OW19402   3.854   1.821   9.019
 6217SOL    HW119403   3.844   1.806   9.118
 6217SOL    HW219404   3.768   1.857   8.983
 6218SOL     OW19405   4.274   0.196   8.333
 6218SOL    HW119406   4.269   0.191   8.433
 6218SOL    HW219407   4.276   0.292   8.304
 6219SOL     OW19408   4.075   1.801   8.301
 6219SOL    HW119409   4.125   1.715   8.307
 6219SOL    HW219410   4.140   1.878   8.298
 6220SOL     OW19411   4.045   0.943   7.690
 6220SOL    HW119412   4.127   0.982   7.648
 6220SOL    HW219413   4.018   0.861   7.641
 6221SOL     OW19414   4.185   1.266   9.175
 6221SOL    HW119415   4.135   1.267   9.089
 6221SOL    HW219416   4.122   1.248   9.251
 6222SOL     OW19417   3.926   0.285   8.946
 6222SOL    HW119418   3.846   0.345   8.933
 6222SOL    HW219419   3.916   0.236   9.032
 6223SOL     OW19420   4.188   1.743   7.771
 6223SOL    HW119421   4.221   1.782   7.857
 6223SOL    HW219422   4.264   1.736   7.706
 6224SOL     OW19423   3.973   1.785   8.689
 6224SOL    HW119424   4.030   1.720   8.739
 6224SOL    HW219425   3.957   1.752   8.596
 6225SOL     OW19426   4.106   0.700   7.928
 6225SOL    HW119427   4.151   0.610   7.925
 6225SOL    HW219428   4.012   0.689   7.961
 6226SOL     OW19429   4.338   0.122   7.565
 6226SOL    HW119430   4.436   0.100   7.572
 6226SOL    HW219431   4.307   0.105   7.472
 6227SOL     OW19432   4.527   1.402   8.372
 6227SOL    HW119433   4.617   1.416   8.330
 6227SOL    HW219434   4.456   1.404   8.301
 6228SOL     OW19435   4.263   0.064   7.960
 6228SOL    HW119436   4.182   0.065   8.018
 6228SOL    HW219437   4.266   0.147   7.905
 6229SOL     OW19438   4.021   0.035   7.619
 6229SOL    HW119439   4.070   0.119   7.598
 6229SOL    HW219440   4.083  -0.030   7.664
 6230SOL     OW19441   4.800   0.683   8.912
 6230SOL    HW119442   4.720   0.622   8.915
 6230SOL    HW219443   4.881   0.630   8.888
 6231SOL     OW19444   4.183   1.152   8.189
 6231SOL    HW119445   4.112   1.125   8.254
 6231SOL    HW219446   4.157   1.124   8.096
 6232SOL     OW19447   3.802   0.556   8.834
 6232SOL    HW119448   3.894   0.555   8.793
 6232SOL    HW219449   3.796   0.630   8.901
 6233SOL     OW19450   4.285   0.222   8.595
 6233SOL    HW119451   4.323   0.138   8.632
 6233SOL    HW219452   4.197   0.241   8.639
 6234SOL     OW19453   4.212   1.385   7.622
 6234SOL    HW119454   4.125   1.370   7.669
 6234SOL    HW219455   4.195   1.411   7.527
 6235SOL     OW19456   4.251   0.256   7.776
 6235SOL    HW119457   4.278   0.197   7.701
 6235SOL    HW219458   4.251   0.351   7.745
 6236SOL     OW19459   4.134   0.813   8.699
 6236SOL    HW119460   4.220   0.825   8.749
 6236SOL    HW219461   4.092   0.726   8.726
 6237SOL     OW19462   3.788   1.564   8.779
 6237SOL    HW119463   3.742   1.646   8.745
 6237SOL    HW219464   3.886   1.583   8.788
 6238SOL     OW19465   4.091   1.100   7.949
 6238SOL    HW119466   4.084   1.183   7.893
 6238SOL    HW219467   4.095   1.020   7.889
 6239SOL     OW19468   4.290   0.537   8.313
 6239SOL    HW119469   4.302   0.603   8.239
 6239SOL    HW219470   4.336   0.571   8.396
 6240SOL     OW19471   4.078   1.510   8.777
 6240SOL    HW119472   4.057   1.466   8.690
 6240SOL    HW219473   4.175   1.536   8.780
 6241SOL     OW19474   4.126   0.751   9.046
 6241SOL    HW119475   4.194   0.806   8.999
 6241SOL    HW219476   4.166   0.663   9.073
 6242SOL     OW19477   4.228   0.050   9.188
 6242SOL    HW119478   4.186  -0.007   9.118
 6242SOL    HW219479   4.162   0.119   9.220
 6243SOL     OW19480   4.297   0.870   8.477
 6243SOL    HW119481   4.341   0.959   8.468
 6243SOL    HW219482   4.234   0.870   8.554
 6244SOL     OW19483   4.031   0.213   8.679
 6244SOL    HW119484   4.008   0.250   8.769
 6244SOL    HW219485   4.001   0.118   8.673
 6245SOL     OW19486   3.761   1.310   8.730
 6245SOL    HW119487   3.814   1.261   8.798
 6245SOL    HW219488   3.783   1.408   8.735
 6246SOL     OW19489   4.031   0.063   8.066
 6246SOL    HW119490   4.020   0.157   8.099
 6246SOL    HW219491   4.026   0.000   8.143
 6247SOL     OW19492   4.074   0.898   9.252
 6247SOL    HW119493   4.150   0.942   9.300
 6247SOL    HW219494   4.109   0.851   9.170
 6248SOL     OW19495   4.043   0.810   8.397
 6248SOL    HW119496   4.136   0.846   8.402
 6248SOL    HW219497   4.037   0.725   8.449
 6249SOL     OW19498   4.063   0.509   8.454
 6249SOL    HW119499   4.011   0.426   8.437
 6249SOL    HW219500   4.140   0.514   8.390
 6250SOL     OW19501   3.732   1.326   7.648
 6250SOL    HW119502   3.639   1.347   7.617
 6250SOL    HW219503   3.742   1.227   7.661
 6251SOL     OW19504   3.812   1.801   8.375
 6251SOL    HW119505   3.770   1.715   8.348
 6251SOL    HW219506   3.906   1.804   8.341
 6252SOL     OW19507   4.228   1.568   8.358
 6252SOL    HW119508   4.294   1.642   8.367
 6252SOL    HW219509   4.272   1.489   8.316
 6253SOL     OW19510   3.764   0.544   8.562
 6253SOL    HW119511   3.849   0.511   8.521
 6253SOL    HW219512   3.777   0.559   8.660
 6254SOL     OW19513   3.913   0.520   9.170
 6254SOL    HW119514   3.972   0.480   9.100
 6254SOL    HW219515   3.855   0.591   9.129
 6255SOL     OW19516   4.539   0.572   7.773
 6255SOL    HW119517   4.546   0.483   7.727
 6255SOL    HW219518   4.445   0.606   7.765
 6256SOL     OW19519   3.976   1.564   9.192
 6256SOL    HW119520   3.946   1.621   9.268
 6256SOL    HW219521   3.969   1.467   9.218
 6257SOL     OW19522   4.197   0.500   7.639
 6257SOL    HW119523   4.258   0.580   7.643
 6257SOL    HW219524   4.102   0.531   7.646
 6258SOL     OW19525   3.883   1.137   8.914
 6258SOL    HW119526   3.905   1.076   8.990
 6258SOL    HW219527   3.893   1.088   8.828
 6259SOL     OW19528   3.807   1.258   8.470
 6259SOL    HW119529   3.802   1.257   8.570
 6259SOL    HW219530   3.724   1.217   8.432
 6260SOL     OW19531   4.412   1.662   9.164
 6260SOL    HW119532   4.356   1.743   9.173
 6260SOL    HW219533   4.464   1.666   9.078
 6261SOL     OW19534   3.854   1.794   9.299
 6261SOL    HW119535   3.813   1.720   9.352
 6261SOL    HW219536   3.918   1.845   9.357
 6262SOL     OW19537   3.987   0.326   8.168
 6262SOL    HW119538   3.908   0.377   8.134
 6262SOL    HW219539   3.978   0.311   8.266
 6263SOL     OW19540   4.096   1.288   8.938
 6263SOL    HW119541   4.083   1.381   8.904
 6263SOL    HW219542   4.012   1.236   8.925
 6264SOL     OW19543   4.314   1.487   7.939
 6264SOL    HW119544   4.356   1.429   7.869
 6264SOL    HW219545   4.270   1.566   7.895
 6265SOL     OW19546   3.979   1.348   7.738
 6265SOL    HW119547   3.883   1.349   7.711
 6265SOL    HW219548   3.991   1.401   7.822
 6266SOL     OW19549   3.829   1.013   9.174
 6266SOL    HW119550   3.752   0.980   9.228
 6266SOL    HW219551   3.914   0.983   9.216
 6267SOL     OW19552   4.396   0.203   8.937
 6267SOL    HW119553   4.486   0.187   8.897
 6267SOL    HW219554   4.404   0.208   9.036
 6268SOL     OW19555   3.799   0.345   7.481
 6268SOL    HW119556   3.707   0.317   7.452
 6268SOL    HW219557   3.830   0.422   7.425
 6269SOL     OW19558   3.796   0.166   7.766
 6269SOL    HW119559   3.779   0.249   7.712
 6269SOL    HW219560   3.886   0.129   7.744
 6270SOL     OW19561   4.337   0.842   8.879
 6270SOL    HW119562   4.393   0.923   8.862
 6270SOL    HW219563   4.396   0.762   8.882
 6271SOL     OW19564   4.440   0.565   9.156
 6271SOL    HW119565   4.459   0.630   9.230
 6271SOL    HW219566   4.500   0.485   9.165
 6272SOL     OW19567   4.114   1.741   9.008
 6272SOL    HW119568   4.023   1.782   9.006
 6272SOL    HW219569   4.107   1.647   9.040
 6273SOL     OW19570   4.318   0.745   8.100
 6273SOL    HW119571   4.368   0.830   8.081
 6273SOL    HW219572   4.230   0.747   8.052
 6274SOL     OW19573   3.945   1.314   9.292
 6274SOL    HW119574   3.880   1.241   9.271
 6274SOL    HW219575   3.949   1.328   9.390
 6275SOL     OW19576   3.803   1.240   8.101
 6275SOL    HW119577   3.802   1.193   8.189
 6275SOL    HW219578   3.885   1.212   8.050
 6276SOL     OW19579   4.396   1.391   9.072
 6276SOL    HW119580   4.318   1.341   9.110
 6276SOL    HW219581   4.393   1.486   9.103
 6277SOL     OW19582   4.152   0.424   7.968
 6277SOL    HW119583   4.182   0.352   7.906
 6277SOL    HW219584   4.113   0.384   8.051
 6278SOL     OW19585   4.041   0.547   8.728
 6278SOL    HW119586   4.079   0.488   8.800
 6278SOL    HW219587   4.081   0.521   8.640
 6279SOL     OW19588   4.536   1.586   8.135
 6279SOL    HW119589   4.568   1.596   8.041
 6279SOL    HW219590   4.457   1.524   8.137
 6280SOL     OW19591   3.763   1.077   7.748
 6280SOL    HW119592   3.862   1.066   7.739
 6280SOL    HW219593   3.723   0.991   7.780
 6281SOL     OW19594   3.954   0.628   9.423
 6281SOL    HW119595   3.861   0.626   9.460
 6281SOL    HW219596   3.955   0.589   9.331
 6282SOL     OW19597   3.949   0.275  10.306
 6282SOL    HW119598   3.984   0.258  10.398
 6282SOL    HW219599   3.861   0.230  10.294
 6283SOL     OW19600   3.743   0.368   9.957
 6283SOL    HW119601   3.661   0.411   9.996
 6283SOL    HW219602   3.715   0.295   9.894
 6284SOL     OW19603   4.293   1.275  10.475
 6284SOL    HW119604   4.200   1.268  10.438
 6284SOL    HW219605   4.304   1.364  10.519
 6285SOL     OW19606   4.574   0.798  11.133
 6285SOL    HW119607   4.570   0.874  11.198
 6285SOL    HW219608   4.596   0.834  11.042
 6286SOL     OW19609   4.409   1.012   9.975
 6286SOL    HW119610   4.478   0.996  10.045
 6286SOL    HW219611   4.336   1.069  10.013
 6287SOL     OW19612   4.059   1.435  10.371
 6287SOL    HW119613   3.981   1.404  10.318
 6287SOL    HW219614   4.117   1.493  10.314
 6288SOL     OW19615   4.162   0.392  10.809
 6288SOL    HW119616   4.244   0.336  10.818
 6288SOL    HW219617   4.081   0.334  10.813
 6289SOL     OW19618   3.955   1.713   9.793
 6289SOL    HW119619   3.989   1.790   9.847
 6289SOL    HW219620   3.999   1.713   9.703
 6290SOL     OW19621   3.954   1.434   9.848
 6290SOL    HW119622   3.928   1.530   9.848
 6290SOL    HW219623   3.883   1.380   9.893
 6291SOL     OW19624   3.964   1.091  10.196
 6291SOL    HW119625   3.978   1.007  10.248
 6291SOL    HW219626   3.909   1.155  10.251
 6292SOL     OW19627   4.344   1.786  10.749
 6292SOL    HW119628   4.252   1.769  10.784
 6292SOL    HW219629   4.372   1.878  10.775
 6293SOL     OW19630   4.330   0.964   9.433
 6293SOL    HW119631   4.337   1.048   9.379
 6293SOL    HW219632   4.376   0.977   9.521
 6294SOL     OW19633   3.846   0.643   9.873
 6294SOL    HW119634   3.801   0.555   9.890
 6294SOL    HW219635   3.845   0.697   9.957
 6295SOL     OW19636   3.751   1.596   9.427
 6295SOL    HW119637   3.732   1.500   9.448
 6295SOL    HW219638   3.718   1.654   9.502
 6296SOL     OW19639   3.837   0.737  10.907
 6296SOL    HW119640   3.925   0.724  10.952
 6296SOL    HW219641   3.824   0.834  10.885
 6297SOL     OW19642   4.337   1.365  10.036
 6297SOL    HW119643   4.288   1.278  10.045
 6297SOL    HW219644   4.314   1.408   9.949
 6298SOL     OW19645   4.533   0.004   9.812
 6298SOL    HW119646   4.573   0.095   9.803
 6298SOL    HW219647   4.433   0.012   9.818
 6299SOL     OW19648   3.921   0.976  10.574
 6299SOL    HW119649   4.010   0.931  10.560
 6299SOL    HW219650   3.848   0.911  10.555
 6300SOL     OW19651   4.041   0.251  11.111
 6300SOL    HW119652   4.112   0.322  11.117
 6300SOL    HW219653   3.953   0.290  11.139
 6301SOL     OW19654   4.322   0.729   9.580
 6301SOL    HW119655   4.346   0.798   9.512
 6301SOL    HW219656   4.244   0.762   9.634
 6302SOL     OW19657   3.800   0.811  10.099
 6302SOL    HW119658   3.899   0.799  10.108
 6302SOL    HW219659   3.776   0.906  10.120
 6303SOL     OW19660   3.854   1.821  10.881
 6303SOL    HW119661   3.844   1.806  10.980
 6303SOL    HW219662   3.768   1.857  10.845
 6304SOL     OW19663   4.274   0.196  10.195
 6304SOL    HW119664   4.269   0.191  10.295
 6304SOL    HW219665   4.276   0.292  10.166
 6305SOL     OW19666   4.075   1.801  10.163
 6305SOL    HW119667   4.125   1.715  10.169
 6305SOL    HW219668   4.140   1.878  10.160
 6306SOL     OW19669   4.045   0.943   9.552
 6306SOL    HW119670   4.127   0.982   9.510
 6306SOL    HW219671   4.018   0.861   9.503
 6307SOL     OW19672   4.185   1.266  11.037
 6307SOL    HW119673   4.135   1.267  10.951
 6307SOL    HW219674   4.122   1.248  11.113
 6308SOL     OW19675   3.926   0.285  10.808
 6308SOL    HW119676   3.846   0.345  10.795
 6308SOL    HW219677   3.916   0.236  10.894
 6309SOL     OW19678   4.188   1.743   9.633
 6309SOL    HW119679   4.221   1.782   9.719
 6309SOL    HW219680   4.264   1.736   9.568
 6310SOL     OW19681   3.973   1.785  10.551
 6310SOL    HW119682   4.030   1.720  10.601
 6310SOL    HW219683   3.957   1.752  10.458
 6311SOL     OW19684   4.106   0.700   9.790
 6311SOL    HW119685   4.151   0.610   9.787
 6311SOL    HW219686   4.012   0.689   9.823
 6312SOL     OW19687   4.338   0.122   9.427
 6312SOL    HW119688   4.436   0.100   9.434
 6312SOL    HW219689   4.307   0.105   9.334
 6313SOL     OW19690   4.527   1.402  10.234
 6313SOL    HW119691   4.617   1.416  10.192
 6313SOL    HW219692   4.456   1.404  10.163
 6314SOL     OW19693   4.263   0.064   9.822
 6314SOL    HW119694   4.182   0.065   9.880
 6314SOL    HW219695   4.266   0.147   9.767
 6315SOL     OW19696   4.021   0.035   9.481
 6315SOL    HW119697   4.070   0.119   9.460
 6315SOL    HW219698   4.083  -0.030   9.526
 6316SOL     OW19699   4.800   0.683  10.774
 6316SOL    HW119700   4.720   0.622  10.777
 6316SOL    HW219701   4.881   0.630  10.750
 6317SOL     OW19702   4.183   1.152  10.051
 6317SOL    HW119703   4.112   1.125  10.116
 6317SOL    HW219704   4.157   1.124   9.958
 6318SOL     OW19705   3.802   0.556  10.696
 6318SOL    HW119706   3.894   0.555  10.655
 6318SOL    HW219707   3.796   0.630  10.763
 6319SOL     OW19708   4.285   0.222  10.457
 6319SOL    HW119709   4.323   0.138  10.494
 6319SOL    HW219710   4.197   0.241  10.501
 6320SOL     OW19711   4.212   1.385   9.484
 6320SOL    HW119712   4.125   1.370   9.531
 6320SOL    HW219713   4.195   1.411   9.389
 6321SOL     OW19714   4.251   0.256   9.638
 6321SOL    HW119715   4.278   0.197   9.563
 6321SOL    HW219716   4.251   0.351   9.607
 6322SOL     OW19717   4.134   0.813  10.561
 6322SOL    HW119718   4.220   0.825  10.611
 6322SOL    HW219719   4.092   0.726  10.588
 6323SOL     OW19720   3.788   1.564  10.641
 6323SOL    HW119721   3.742   1.646  10.607
 6323SOL    HW219722   3.886   1.583  10.650
 6324SOL     OW19723   4.091   1.100   9.811
 6324SOL    HW119724   4.084   1.183   9.755
 6324SOL    HW219725   4.095   1.020   9.751
 6325SOL     OW19726   4.290   0.537  10.175
 6325SOL    HW119727   4.302   0.603  10.101
 6325SOL    HW219728   4.336   0.571  10.258
 6326SOL     OW19729   4.078   1.510  10.639
 6326SOL    HW119730   4.057   1.466  10.552
 6326SOL    HW219731   4.175   1.536  10.642
 6327SOL     OW19732   4.126   0.751  10.908
 6327SOL    HW119733   4.194   0.806  10.861
 6327SOL    HW219734   4.166   0.663  10.935
 6328SOL     OW19735   4.297   0.870  10.339
 6328SOL    HW119736   4.341   0.959  10.330
 6328SOL    HW219737   4.234   0.870  10.416
 6329SOL     OW19738   4.031   0.213  10.541
 6329SOL    HW119739   4.008   0.250  10.631
 6329SOL    HW219740   4.001   0.118  10.535
 6330SOL     OW19741   3.761   1.310  10.592
 6330SOL    HW119742   3.814   1.261  10.660
 6330SOL    HW219743   3.783   1.408  10.597
 6331SOL     OW19744   4.031   0.063   9.928
 6331SOL    HW119745   4.020   0.157   9.961
 6331SOL    HW219746   4.026   0.000  10.005
 6332SOL     OW19747   4.074   0.898  11.114
 6332SOL    HW119748   4.150   0.942  11.162
 6332SOL    HW219749   4.109   0.851  11.032
 6333SOL     OW19750   4.043   0.810  10.259
 6333SOL    HW119751   4.136   0.846  10.264
 6333SOL    HW219752   4.037   0.725  10.311
 6334SOL     OW19753   4.063   0.509  10.316
 6334SOL    HW119754   4.011   0.426  10.299
 6334SOL    HW219755   4.140   0.514  10.252
 6335SOL     OW19756   3.732   1.326   9.510
 6335SOL    HW119757   3.639   1.347   9.479
 6335SOL    HW219758   3.742   1.227   9.523
 6336SOL     OW19759   3.812   1.801  10.237
 6336SOL    HW119760   3.770   1.715  10.210
 6336SOL    HW219761   3.906   1.804  10.203
 6337SOL     OW19762   4.228   1.568  10.220
 6337SOL    HW119763   4.294   1.642  10.229
 6337SOL    HW219764   4.272   1.489  10.178
 6338SOL     OW19765   3.764   0.544  10.424
 6338SOL    HW119766   3.849   0.511  10.383
 6338SOL    HW219767   3.777   0.559  10.522
 6339SOL     OW19768   4.539   0.572   9.635
 6339SOL    HW119769   4.546   0.483   9.589
 6339SOL    HW219770   4.445   0.606   9.627
 6340SOL     OW19771   3.976   1.564  11.054
 6340SOL    HW119772   3.946   1.621  11.130
 6340SOL    HW219773   3.969   1.467  11.080
 6341SOL     OW19774   4.197   0.500   9.501
 6341SOL    HW119775   4.258   0.580   9.505
 6341SOL    HW219776   4.102   0.531   9.508
 6342SOL     OW19777   3.883   1.137  10.776
 6342SOL    HW119778   3.905   1.076  10.852
 6342SOL    HW219779   3.893   1.088  10.690
 6343SOL     OW19780   3.807   1.258  10.332
 6343SOL    HW119781   3.802   1.257  10.432
 6343SOL    HW219782   3.724   1.217  10.294
 6344SOL     OW19783   4.412   1.662  11.026
 6344SOL    HW119784   4.356   1.743  11.035
 6344SOL    HW219785   4.464   1.666  10.940
 6345SOL     OW19786   3.987   0.326  10.030
 6345SOL    HW119787   3.908   0.377   9.996
 6345SOL    HW219788   3.978   0.311  10.128
 6346SOL     OW19789   4.096   1.288  10.800
 6346SOL    HW119790   4.083   1.381  10.766
 6346SOL    HW219791   4.012   1.236  10.787
 6347SOL     OW19792   4.314   1.487   9.801
 6347SOL    HW119793   4.356   1.429   9.731
 6347SOL    HW219794   4.270   1.566   9.757
 6348SOL     OW19795   3.979   1.348   9.600
 6348SOL    HW119796   3.883   1.349   9.573
 6348SOL    HW219797   3.991   1.401   9.684
 6349SOL     OW19798   3.829   1.013  11.036
 6349SOL    HW119799   3.752   0.980  11.090
 6349SOL    HW219800   3.914   0.983  11.078
 6350SOL     OW19801   4.396   0.203  10.799
 6350SOL    HW119802   4.486   0.187  10.759
 6350SOL    HW219803   4.404   0.208  10.898
 6351SOL     OW19804   3.799   0.345   9.343
 6351SOL    HW119805   3.707   0.317   9.314
 6351SOL    HW219806   3.830   0.422   9.287
 6352SOL     OW19807   3.796   0.166   9.628
 6352SOL    HW119808   3.779   0.249   9.574
 6352SOL    HW219809   3.886   0.129   9.606
 6353SOL     OW19810   4.337   0.842  10.741
 6353SOL    HW119811   4.393   0.923  10.724
 6353SOL    HW219812   4.396   0.762  10.744
 6354SOL     OW19813   4.114   1.741  10.870
 6354SOL    HW119814   4.023   1.782  10.868
 6354SOL    HW219815   4.107   1.647  10.902
 6355SOL     OW19816   4.318   0.745   9.962
 6355SOL    HW119817   4.368   0.830   9.943
 6355SOL    HW219818   4.230   0.747   9.914
 6356SOL     OW19819   3.803   1.240   9.963
 6356SOL    HW119820   3.802   1.193  10.051
 6356SOL    HW219821   3.885   1.212   9.912
 6357SOL     OW19822   4.396   1.391  10.934
 6357SOL    HW119823   4.318   1.341  10.972
 6357SOL    HW219824   4.393   1.486  10.965
 6358SOL     OW19825   4.152   0.424   9.830
 6358SOL    HW119826   4.182   0.352   9.768
 6358SOL    HW219827   4.113   0.384   9.913
 6359SOL     OW19828   4.041   0.547  10.590
 6359SOL    HW119829   4.079   0.488  10.662
 6359SOL    HW219830   4.081   0.521  10.502
 6360SOL     OW19831   4.536   1.586   9.997
 6360SOL    HW119832   4.568   1.596   9.903
 6360SOL    HW219833   4.457   1.524   9.999
 6361SOL     OW19834   3.763   1.077   9.610
 6361SOL    HW119835   3.862   1.066   9.601
 6361SOL    HW219836   3.723   0.991   9.642
 6362SOL     OW19837   3.954   2.490   0.113
 6362SOL    HW119838   3.861   2.488   0.150
 6362SOL    HW219839   3.955   2.451   0.021
 6363SOL     OW19840   3.949   2.137   0.996
 6363SOL    HW119841   3.984   2.120   1.088
 6363SOL    HW219842   3.861   2.092   0.984
 6364SOL     OW19843   3.743   2.230   0.647
 6364SOL    HW119844   3.661   2.273   0.686
 6364SOL    HW219845   3.715   2.157   0.584
 6365SOL     OW19846   4.293   3.137   1.165
 6365SOL    HW119847   4.200   3.130   1.128
 6365SOL    HW219848   4.304   3.226   1.209
 6366SOL     OW19849   4.574   2.660   1.823
 6366SOL    HW119850   4.570   2.736   1.888
 6366SOL    HW219851   4.596   2.696   1.732
 6367SOL     OW19852   4.409   2.874   0.665
 6367SOL    HW119853   4.478   2.858   0.735
 6367SOL    HW219854   4.336   2.931   0.703
 6368SOL     OW19855   4.410   3.023   1.803
 6368SOL    HW119856   4.470   3.102   1.817
 6368SOL    HW219857   4.324   3.054   1.762
 6369SOL     OW19858   4.059   3.297   1.061
 6369SOL    HW119859   3.981   3.266   1.008
 6369SOL    HW219860   4.117   3.355   1.004
 6370SOL     OW19861   4.162   2.254   1.499
 6370SOL    HW119862   4.244   2.198   1.508
 6370SOL    HW219863   4.081   2.196   1.503
 6371SOL     OW19864   3.955   3.575   0.483
 6371SOL    HW119865   3.989   3.652   0.537
 6371SOL    HW219866   3.999   3.575   0.393
 6372SOL     OW19867   3.954   3.296   0.538
 6372SOL    HW119868   3.928   3.392   0.538
 6372SOL    HW219869   3.883   3.242   0.583
 6373SOL     OW19870   3.964   2.953   0.886
 6373SOL    HW119871   3.978   2.869   0.938
 6373SOL    HW219872   3.909   3.017   0.941
 6374SOL     OW19873   4.344   3.648   1.439
 6374SOL    HW119874   4.252   3.631   1.474
 6374SOL    HW219875   4.372   3.740   1.465
 6375SOL     OW19876   4.330   2.826   0.123
 6375SOL    HW119877   4.337   2.910   0.069
 6375SOL    HW219878   4.376   2.839   0.211
 6376SOL     OW19879   3.846   2.505   0.563
 6376SOL    HW119880   3.801   2.417   0.580
 6376SOL    HW219881   3.845   2.559   0.647
 6377SOL     OW19882   3.751   3.458   0.117
 6377SOL    HW119883   3.732   3.362   0.138
 6377SOL    HW219884   3.718   3.516   0.192
 6378SOL     OW19885   3.837   2.599   1.597
 6378SOL    HW119886   3.925   2.586   1.642
 6378SOL    HW219887   3.824   2.696   1.575
 6379SOL     OW19888   4.337   3.227   0.726
 6379SOL    HW119889   4.288   3.140   0.735
 6379SOL    HW219890   4.314   3.270   0.639
 6380SOL     OW19891   4.533   1.866   0.502
 6380SOL    HW119892   4.573   1.957   0.493
 6380SOL    HW219893   4.433   1.874   0.508
 6381SOL     OW19894   3.921   2.838   1.264
 6381SOL    HW119895   4.010   2.793   1.250
 6381SOL    HW219896   3.848   2.773   1.245
 6382SOL     OW19897   4.041   2.113   1.801
 6382SOL    HW119898   4.112   2.184   1.807
 6382SOL    HW219899   3.953   2.152   1.829
 6383SOL     OW19900   4.322   2.591   0.270
 6383SOL    HW119901   4.346   2.660   0.202
 6383SOL    HW219902   4.244   2.624   0.324
 6384SOL     OW19903   3.800   2.673   0.789
 6384SOL    HW119904   3.899   2.661   0.798
 6384SOL    HW219905   3.776   2.768   0.810
 6385SOL     OW19906   3.854   3.683   1.571
 6385SOL    HW119907   3.844   3.668   1.670
 6385SOL    HW219908   3.768   3.719   1.535
 6386SOL     OW19909   4.274   2.058   0.885
 6386SOL    HW119910   4.269   2.053   0.985
 6386SOL    HW219911   4.276   2.154   0.856
 6387SOL     OW19912   4.075   3.663   0.853
 6387SOL    HW119913   4.125   3.577   0.859
 6387SOL    HW219914   4.140   3.740   0.850
 6388SOL     OW19915   4.045   2.805   0.242
 6388SOL    HW119916   4.127   2.844   0.200
 6388SOL    HW219917   4.018   2.723   0.193
 6389SOL     OW19918   4.185   3.128   1.727
 6389SOL    HW119919   4.135   3.129   1.641
 6389SOL    HW219920   4.122   3.110   1.803
 6390SOL     OW19921   3.926   2.147   1.498
 6390SOL    HW119922   3.846   2.207   1.485
 6390SOL    HW219923   3.916   2.098   1.584
 6391SOL     OW19924   4.188   3.605   0.323
 6391SOL    HW119925   4.221   3.644   0.409
 6391SOL    HW219926   4.264   3.598   0.258
 6392SOL     OW19927   3.973   3.647   1.241
 6392SOL    HW119928   4.030   3.582   1.291
 6392SOL    HW219929   3.957   3.614   1.148
 6393SOL     OW19930   4.106   2.562   0.480
 6393SOL    HW119931   4.151   2.472   0.477
 6393SOL    HW219932   4.012   2.551   0.513
 6394SOL     OW19933   4.338   1.984   0.117
 6394SOL    HW119934   4.436   1.962   0.124
 6394SOL    HW219935   4.307   1.967   0.024
 6395SOL     OW19936   4.527   3.264   0.924
 6395SOL    HW119937   4.617   3.278   0.882
 6395SOL    HW219938   4.456   3.266   0.853
 6396SOL     OW19939   4.263   1.926   0.512
 6396SOL    HW119940   4.182   1.927   0.570
 6396SOL    HW219941   4.266   2.009   0.457
 6397SOL     OW19942   4.021   1.897   0.171
 6397SOL    HW119943   4.070   1.981   0.150
 6397SOL    HW219944   4.083   1.832   0.216
 6398SOL     OW19945   4.800   2.545   1.464
 6398SOL    HW119946   4.720   2.484   1.467
 6398SOL    HW219947   4.881   2.492   1.440
 6399SOL     OW19948   4.183   3.014   0.741
 6399SOL    HW119949   4.112   2.987   0.806
 6399SOL    HW219950   4.157   2.986   0.648
 6400SOL     OW19951   3.802   2.418   1.386
 6400SOL    HW119952   3.894   2.417   1.345
 6400SOL    HW219953   3.796   2.492   1.453
 6401SOL     OW19954   4.285   2.084   1.147
 6401SOL    HW119955   4.323   2.000   1.184
 6401SOL    HW219956   4.197   2.103   1.191
 6402SOL     OW19957   4.212   3.247   0.174
 6402SOL    HW119958   4.125   3.232   0.221
 6402SOL    HW219959   4.195   3.273   0.079
 6403SOL     OW19960   4.251   2.118   0.328
 6403SOL    HW119961   4.278   2.059   0.253
 6403SOL    HW219962   4.251   2.213   0.297
 6404SOL     OW19963   4.134   2.675   1.251
 6404SOL    HW119964   4.220   2.687   1.301
 6404SOL    HW219965   4.092   2.588   1.278
 6405SOL     OW19966   3.788   3.426   1.331
 6405SOL    HW119967   3.742   3.508   1.297
 6405SOL    HW219968   3.886   3.445   1.340
 6406SOL     OW19969   4.091   2.962   0.501
 6406SOL    HW119970   4.084   3.045   0.445
 6406SOL    HW219971   4.095   2.882   0.441
 6407SOL     OW19972   4.290   2.399   0.865
 6407SOL    HW119973   4.302   2.465   0.791
 6407SOL    HW219974   4.336   2.433   0.948
 6408SOL     OW19975   4.078   3.372   1.329
 6408SOL    HW119976   4.057   3.328   1.242
 6408SOL    HW219977   4.175   3.398   1.332
 6409SOL     OW19978   4.126   2.613   1.598
 6409SOL    HW119979   4.194   2.668   1.551
 6409SOL    HW219980   4.166   2.525   1.625
 6410SOL     OW19981   4.228   1.912   1.740
 6410SOL    HW119982   4.186   1.855   1.670
 6410SOL    HW219983   4.162   1.981   1.772
 6411SOL     OW19984   4.297   2.732   1.029
 6411SOL    HW119985   4.341   2.821   1.020
 6411SOL    HW219986   4.234   2.732   1.106
 6412SOL     OW19987   4.031   2.075   1.231
 6412SOL    HW119988   4.008   2.112   1.321
 6412SOL    HW219989   4.001   1.980   1.225
 6413SOL     OW19990   3.761   3.172   1.282
 6413SOL    HW119991   3.814   3.123   1.350
 6413SOL    HW219992   3.783   3.270   1.287
 6414SOL     OW19993   4.031   1.925   0.618
 6414SOL    HW119994   4.020   2.019   0.651
 6414SOL    HW219995   4.026   1.862   0.695
 6415SOL     OW19996   4.074   2.760   1.804
 6415SOL    HW119997   4.150   2.804   1.852
 6415SOL    HW219998   4.109   2.713   1.722
 6416SOL     OW19999   4.043   2.672   0.949
 6416SOL    HW120000   4.136   2.708   0.954
 6416SOL    HW220001   4.037   2.587   1.001
 6417SOL     OW20002   4.063   2.371   1.006
 6417SOL    HW120003   4.011   2.288   0.989
 6417SOL    HW220004   4.140   2.376   0.942
 6418SOL     OW20005   3.732   3.188   0.200
 6418SOL    HW120006   3.639   3.209   0.169
 6418SOL    HW220007   3.742   3.089   0.213
 6419SOL     OW20008   3.812   3.663   0.927
 6419SOL    HW120009   3.770   3.577   0.900
 6419SOL    HW220010   3.906   3.666   0.893
 6420SOL     OW20011   4.228   3.430   0.910
 6420SOL    HW120012   4.294   3.504   0.919
 6420SOL    HW220013   4.272   3.351   0.868
 6421SOL     OW20014   3.764   2.406   1.114
 6421SOL    HW120015   3.849   2.373   1.073
 6421SOL    HW220016   3.777   2.421   1.212
 6422SOL     OW20017   3.913   2.382   1.722
 6422SOL    HW120018   3.972   2.342   1.652
 6422SOL    HW220019   3.855   2.453   1.681
 6423SOL     OW20020   4.539   2.434   0.325
 6423SOL    HW120021   4.546   2.345   0.279
 6423SOL    HW220022   4.445   2.468   0.317
 6424SOL     OW20023   3.976   3.426   1.744
 6424SOL    HW120024   3.946   3.483   1.820
 6424SOL    HW220025   3.969   3.329   1.770
 6425SOL     OW20026   4.197   2.362   0.191
 6425SOL    HW120027   4.258   2.442   0.195
 6425SOL    HW220028   4.102   2.393   0.198
 6426SOL     OW20029   3.883   2.999   1.466
 6426SOL    HW120030   3.905   2.938   1.542
 6426SOL    HW220031   3.893   2.950   1.380
 6427SOL     OW20032   3.807   3.120   1.022
 6427SOL    HW120033   3.802   3.119   1.122
 6427SOL    HW220034   3.724   3.079   0.984
 6428SOL     OW20035   4.412   3.524   1.716
 6428SOL    HW120036   4.356   3.605   1.725
 6428SOL    HW220037   4.464   3.528   1.630
 6429SOL     OW20038   3.854   3.656   1.851
 6429SOL    HW120039   3.813   3.582   1.904
 6429SOL    HW220040   3.918   3.707   1.909
 6430SOL     OW20041   3.987   2.188   0.720
 6430SOL    HW120042   3.908   2.239   0.686
 6430SOL    HW220043   3.978   2.173   0.818
 6431SOL     OW20044   4.096   3.150   1.490
 6431SOL    HW120045   4.083   3.243   1.456
 6431SOL    HW220046   4.012   3.098   1.477
 6432SOL     OW20047   4.314   3.349   0.491
 6432SOL    HW120048   4.356   3.291   0.421
 6432SOL    HW220049   4.270   3.428   0.447
 6433SOL     OW20050   3.979   3.210   0.290
 6433SOL    HW120051   3.883   3.211   0.263
 6433SOL    HW220052   3.991   3.263   0.374
 6434SOL     OW20053   3.829   2.875   1.726
 6434SOL    HW120054   3.752   2.842   1.780
 6434SOL    HW220055   3.914   2.845   1.768
 6435SOL     OW20056   4.396   2.065   1.489
 6435SOL    HW120057   4.486   2.049   1.449
 6435SOL    HW220058   4.404   2.070   1.588
 6436SOL     OW20059   3.799   2.207   0.033
 6436SOL    HW120060   3.707   2.179   0.004
 6436SOL    HW220061   3.830   2.284  -0.023
 6437SOL     OW20062   3.796   2.028   0.318
 6437SOL    HW120063   3.779   2.111   0.264
 6437SOL    HW220064   3.886   1.991   0.296
 6438SOL     OW20065   4.337   2.704   1.431
 6438SOL    HW120066   4.393   2.785   1.414
 6438SOL    HW220067   4.396   2.624   1.434
 6439SOL     OW20068   4.440   2.427   1.708
 6439SOL    HW120069   4.459   2.492   1.782
 6439SOL    HW220070   4.500   2.347   1.717
 6440SOL     OW20071   4.114   3.603   1.560
 6440SOL    HW120072   4.023   3.644   1.558
 6440SOL    HW220073   4.107   3.509   1.592
 6441SOL     OW20074   4.318   2.607   0.652
 6441SOL    HW120075   4.368   2.692   0.633
 6441SOL    HW220076   4.230   2.609   0.604
 6442SOL     OW20077   3.945   3.176   1.844
 6442SOL    HW120078   3.880   3.103   1.823
 6442SOL    HW220079   3.949   3.190   1.942
 6443SOL     OW20080   3.803   3.102   0.653
 6443SOL    HW120081   3.802   3.055   0.741
 6443SOL    HW220082   3.885   3.074   0.602
 6444SOL     OW20083   4.396   3.253   1.624
 6444SOL    HW120084   4.318   3.203   1.662
 6444SOL    HW220085   4.393   3.348   1.655
 6445SOL     OW20086   4.152   2.286   0.520
 6445SOL    HW120087   4.182   2.214   0.458
 6445SOL    HW220088   4.113   2.246   0.603
 6446SOL     OW20089   4.041   2.409   1.280
 6446SOL    HW120090   4.079   2.350   1.352
 6446SOL    HW220091   4.081   2.383   1.192
 6447SOL     OW20092   4.536   3.448   0.687
 6447SOL    HW120093   4.568   3.458   0.593
 6447SOL    HW220094   4.457   3.386   0.689
 6448SOL     OW20095   3.763   2.939   0.300
 6448SOL    HW120096   3.862   2.928   0.291
 6448SOL    HW220097   3.723   2.853   0.332
 6449SOL     OW20098   3.954   2.490   1.975
 6449SOL    HW120099   3.861   2.488   2.012
 6449SOL    HW220100   3.955   2.451   1.883
 6450SOL     OW20101   3.949   2.137   2.858
 6450SOL    HW120102   3.984   2.120   2.950
 6450SOL    HW220103   3.861   2.092   2.846
 6451SOL     OW20104   3.743   2.230   2.509
 6451SOL    HW120105   3.661   2.273   2.548
 6451SOL    HW220106   3.715   2.157   2.446
 6452SOL     OW20107   4.293   3.137   3.027
 6452SOL    HW120108   4.200   3.130   2.990
 6452SOL    HW220109   4.304   3.226   3.071
 6453SOL     OW20110   4.574   2.660   3.685
 6453SOL    HW120111   4.570   2.736   3.750
 6453SOL    HW220112   4.596   2.696   3.594
 6454SOL     OW20113   4.409   2.874   2.527
 6454SOL    HW120114   4.478   2.858   2.597
 6454SOL    HW220115   4.336   2.931   2.565
 6455SOL     OW20116   4.410   3.023   3.665
 6455SOL    HW120117   4.470   3.102   3.679
 6455SOL    HW220118   4.324   3.054   3.624
 6456SOL     OW20119   4.059   3.297   2.923
 6456SOL    HW120120   3.981   3.266   2.870
 6456SOL    HW220121   4.117   3.355   2.866
 6457SOL     OW20122   4.162   2.254   3.361
 6457SOL    HW120123   4.244   2.198   3.370
 6457SOL    HW220124   4.081   2.196   3.365
 6458SOL     OW20125   3.955   3.575   2.345
 6458SOL    HW120126   3.989   3.652   2.399
 6458SOL    HW220127   3.999   3.575   2.255
 6459SOL     OW20128   3.954   3.296   2.400
 6459SOL    HW120129   3.928   3.392   2.400
 6459SOL    HW220130   3.883   3.242   2.445
 6460SOL     OW20131   3.964   2.953   2.748
 6460SOL    HW120132   3.978   2.869   2.800
 6460SOL    HW220133   3.909   3.017   2.803
 6461SOL     OW20134   4.344   3.648   3.301
 6461SOL    HW120135   4.252   3.631   3.336
 6461SOL    HW220136   4.372   3.740   3.327
 6462SOL     OW20137   4.330   2.826   1.985
 6462SOL    HW120138   4.337   2.910   1.931
 6462SOL    HW220139   4.376   2.839   2.073
 6463SOL     OW20140   3.846   2.505   2.425
 6463SOL    HW120141   3.801   2.417   2.442
 6463SOL    HW220142   3.845   2.559   2.509
 6464SOL     OW20143   3.751   3.458   1.979
 6464SOL    HW120144   3.732   3.362   2.000
 6464SOL    HW220145   3.718   3.516   2.054
 6465SOL     OW20146   3.837   2.599   3.459
 6465SOL    HW120147   3.925   2.586   3.504
 6465SOL    HW220148   3.824   2.696   3.437
 6466SOL     OW20149   4.337   3.227   2.588
 6466SOL    HW120150   4.288   3.140   2.597
 6466SOL    HW220151   4.314   3.270   2.501
 6467SOL     OW20152   4.533   1.866   2.364
 6467SOL    HW120153   4.573   1.957   2.355
 6467SOL    HW220154   4.433   1.874   2.370
 6468SOL     OW20155   3.921   2.838   3.126
 6468SOL    HW120156   4.010   2.793   3.112
 6468SOL    HW220157   3.848   2.773   3.107
 6469SOL     OW20158   4.041   2.113   3.663
 6469SOL    HW120159   4.112   2.184   3.669
 6469SOL    HW220160   3.953   2.152   3.691
 6470SOL     OW20161   4.322   2.591   2.132
 6470SOL    HW120162   4.346   2.660   2.064
 6470SOL    HW220163   4.244   2.624   2.186
 6471SOL     OW20164   3.800   2.673   2.651
 6471SOL    HW120165   3.899   2.661   2.660
 6471SOL    HW220166   3.776   2.768   2.672
 6472SOL     OW20167   3.854   3.683   3.433
 6472SOL    HW120168   3.844   3.668   3.532
 6472SOL    HW220169   3.768   3.719   3.397
 6473SOL     OW20170   4.274   2.058   2.747
 6473SOL    HW120171   4.269   2.053   2.847
 6473SOL    HW220172   4.276   2.154   2.718
 6474SOL     OW20173   4.075   3.663   2.715
 6474SOL    HW120174   4.125   3.577   2.721
 6474SOL    HW220175   4.140   3.740   2.712
 6475SOL     OW20176   4.045   2.805   2.104
 6475SOL    HW120177   4.127   2.844   2.062
 6475SOL    HW220178   4.018   2.723   2.055
 6476SOL     OW20179   4.185   3.128   3.589
 6476SOL    HW120180   4.135   3.129   3.503
 6476SOL    HW220181   4.122   3.110   3.665
 6477SOL     OW20182   3.926   2.147   3.360
 6477SOL    HW120183   3.846   2.207   3.347
 6477SOL    HW220184   3.916   2.098   3.446
 6478SOL     OW20185   4.188   3.605   2.185
 6478SOL    HW120186   4.221   3.644   2.271
 6478SOL    HW220187   4.264   3.598   2.120
 6479SOL     OW20188   3.973   3.647   3.103
 6479SOL    HW120189   4.030   3.582   3.153
 6479SOL    HW220190   3.957   3.614   3.010
 6480SOL     OW20191   4.106   2.562   2.342
 6480SOL    HW120192   4.151   2.472   2.339
 6480SOL    HW220193   4.012   2.551   2.375
 6481SOL     OW20194   4.338   1.984   1.979
 6481SOL    HW120195   4.436   1.962   1.986
 6481SOL    HW220196   4.307   1.967   1.886
 6482SOL     OW20197   4.527   3.264   2.786
 6482SOL    HW120198   4.617   3.278   2.744
 6482SOL    HW220199   4.456   3.266   2.715
 6483SOL     OW20200   4.263   1.926   2.374
 6483SOL    HW120201   4.182   1.927   2.432
 6483SOL    HW220202   4.266   2.009   2.319
 6484SOL     OW20203   4.021   1.897   2.033
 6484SOL    HW120204   4.070   1.981   2.012
 6484SOL    HW220205   4.083   1.832   2.078
 6485SOL     OW20206   4.800   2.545   3.326
 6485SOL    HW120207   4.720   2.484   3.329
 6485SOL    HW220208   4.881   2.492   3.302
 6486SOL     OW20209   4.183   3.014   2.603
 6486SOL    HW120210   4.112   2.987   2.668
 6486SOL    HW220211   4.157   2.986   2.510
 6487SOL     OW20212   3.802   2.418   3.248
 6487SOL    HW120213   3.894   2.417   3.207
 6487SOL    HW220214   3.796   2.492   3.315
 6488SOL     OW20215   4.285   2.084   3.009
 6488SOL    HW120216   4.323   2.000   3.046
 6488SOL    HW220217   4.197   2.103   3.053
 6489SOL     OW20218   4.212   3.247   2.036
 6489SOL    HW120219   4.125   3.232   2.083
 6489SOL    HW220220   4.195   3.273   1.941
 6490SOL     OW20221   4.251   2.118   2.190
 6490SOL    HW120222   4.278   2.059   2.115
 6490SOL    HW220223   4.251   2.213   2.159
 6491SOL     OW20224   4.134   2.675   3.113
 6491SOL    HW120225   4.220   2.687   3.163
 6491SOL    HW220226   4.092   2.588   3.140
 6492SOL     OW20227   3.788   3.426   3.193
 6492SOL    HW120228   3.742   3.508   3.159
 6492SOL    HW220229   3.886   3.445   3.202
 6493SOL     OW20230   4.091   2.962   2.363
 6493SOL    HW120231   4.084   3.045   2.307
 6493SOL    HW220232   4.095   2.882   2.303
 6494SOL     OW20233   4.290   2.399   2.727
 6494SOL    HW120234   4.302   2.465   2.653
 6494SOL    HW220235   4.336   2.433   2.810
 6495SOL     OW20236   4.078   3.372   3.191
 6495SOL    HW120237   4.057   3.328   3.104
 6495SOL    HW220238   4.175   3.398   3.194
 6496SOL     OW20239   4.126   2.613   3.460
 6496SOL    HW120240   4.194   2.668   3.413
 6496SOL    HW220241   4.166   2.525   3.487
 6497SOL     OW20242   4.228   1.912   3.602
 6497SOL    HW120243   4.186   1.855   3.532
 6497SOL    HW220244   4.162   1.981   3.634
 6498SOL     OW20245   4.297   2.732   2.891
 6498SOL    HW120246   4.341   2.821   2.882
 6498SOL    HW220247   4.234   2.732   2.968
 6499SOL     OW20248   4.031   2.075   3.093
 6499SOL    HW120249   4.008   2.112   3.183
 6499SOL    HW220250   4.001   1.980   3.087
 6500SOL     OW20251   3.761   3.172   3.144
 6500SOL    HW120252   3.814   3.123   3.212
 6500SOL    HW220253   3.783   3.270   3.149
 6501SOL     OW20254   4.031   1.925   2.480
 6501SOL    HW120255   4.020   2.019   2.513
 6501SOL    HW220256   4.026   1.862   2.557
 6502SOL     OW20257   4.074   2.760   3.666
 6502SOL    HW120258   4.150   2.804   3.714
 6502SOL    HW220259   4.109   2.713   3.584
 6503SOL     OW20260   4.043   2.672   2.811
 6503SOL    HW120261   4.136   2.708   2.816
 6503SOL    HW220262   4.037   2.587   2.863
 6504SOL     OW20263   4.063   2.371   2.868
 6504SOL    HW120264   4.011   2.288   2.851
 6504SOL    HW220265   4.140   2.376   2.804
 6505SOL     OW20266   3.732   3.188   2.062
 6505SOL    HW120267   3.639   3.209   2.031
 6505SOL    HW220268   3.742   3.089   2.075
 6506SOL     OW20269   3.812   3.663   2.789
 6506SOL    HW120270   3.770   3.577   2.762
 6506SOL    HW220271   3.906   3.666   2.755
 6507SOL     OW20272   4.228   3.430   2.772
 6507SOL    HW120273   4.294   3.504   2.781
 6507SOL    HW220274   4.272   3.351   2.730
 6508SOL     OW20275   3.764   2.406   2.976
 6508SOL    HW120276   3.849   2.373   2.935
 6508SOL    HW220277   3.777   2.421   3.074
 6509SOL     OW20278   3.913   2.382   3.584
 6509SOL    HW120279   3.972   2.342   3.514
 6509SOL    HW220280   3.855   2.453   3.543
 6510SOL     OW20281   4.539   2.434   2.187
 6510SOL    HW120282   4.546   2.345   2.141
 6510SOL    HW220283   4.445   2.468   2.179
 6511SOL     OW20284   3.976   3.426   3.606
 6511SOL    HW120285   3.946   3.483   3.682
 6511SOL    HW220286   3.969   3.329   3.632
 6512SOL     OW20287   4.197   2.362   2.053
 6512SOL    HW120288   4.258   2.442   2.057
 6512SOL    HW220289   4.102   2.393   2.060
 6513SOL     OW20290   3.883   2.999   3.328
 6513SOL    HW120291   3.905   2.938   3.404
 6513SOL    HW220292   3.893   2.950   3.242
 6514SOL     OW20293   3.807   3.120   2.884
 6514SOL    HW120294   3.802   3.119   2.984
 6514SOL    HW220295   3.724   3.079   2.846
 6515SOL     OW20296   4.412   3.524   3.578
 6515SOL    HW120297   4.356   3.605   3.587
 6515SOL    HW220298   4.464   3.528   3.492
 6516SOL     OW20299   3.854   3.656   3.713
 6516SOL    HW120300   3.813   3.582   3.766
 6516SOL    HW220301   3.918   3.707   3.771
 6517SOL     OW20302   3.987   2.188   2.582
 6517SOL    HW120303   3.908   2.239   2.548
 6517SOL    HW220304   3.978   2.173   2.680
 6518SOL     OW20305   4.096   3.150   3.352
 6518SOL    HW120306   4.083   3.243   3.318
 6518SOL    HW220307   4.012   3.098   3.339
 6519SOL     OW20308   4.314   3.349   2.353
 6519SOL    HW120309   4.356   3.291   2.283
 6519SOL    HW220310   4.270   3.428   2.309
 6520SOL     OW20311   3.979   3.210   2.152
 6520SOL    HW120312   3.883   3.211   2.125
 6520SOL    HW220313   3.991   3.263   2.236
 6521SOL     OW20314   3.829   2.875   3.588
 6521SOL    HW120315   3.752   2.842   3.642
 6521SOL    HW220316   3.914   2.845   3.630
 6522SOL     OW20317   4.396   2.065   3.351
 6522SOL    HW120318   4.486   2.049   3.311
 6522SOL    HW220319   4.404   2.070   3.450
 6523SOL     OW20320   3.799   2.207   1.895
 6523SOL    HW120321   3.707   2.179   1.866
 6523SOL    HW220322   3.830   2.284   1.839
 6524SOL     OW20323   3.796   2.028   2.180
 6524SOL    HW120324   3.779   2.111   2.126
 6524SOL    HW220325   3.886   1.991   2.158
 6525SOL     OW20326   4.337   2.704   3.293
 6525SOL    HW120327   4.393   2.785   3.276
 6525SOL    HW220328   4.396   2.624   3.296
 6526SOL     OW20329   4.440   2.427   3.570
 6526SOL    HW120330   4.459   2.492   3.644
 6526SOL    HW220331   4.500   2.347   3.579
 6527SOL     OW20332   4.114   3.603   3.422
 6527SOL    HW120333   4.023   3.644   3.420
 6527SOL    HW220334   4.107   3.509   3.454
 6528SOL     OW20335   4.318   2.607   2.514
 6528SOL    HW120336   4.368   2.692   2.495
 6528SOL    HW220337   4.230   2.609   2.466
 6529SOL     OW20338   3.945   3.176   3.706
 6529SOL    HW120339   3.880   3.103   3.685
 6529SOL    HW220340   3.949   3.190   3.804
 6530SOL     OW20341   3.803   3.102   2.515
 6530SOL    HW120342   3.802   3.055   2.603
 6530SOL    HW220343   3.885   3.074   2.464
 6531SOL     OW20344   4.396   3.253   3.486
 6531SOL    HW120345   4.318   3.203   3.524
 6531SOL    HW220346   4.393   3.348   3.517
 6532SOL     OW20347   4.152   2.286   2.382
 6532SOL    HW120348   4.182   2.214   2.320
 6532SOL    HW220349   4.113   2.246   2.465
 6533SOL     OW20350   4.041   2.409   3.142
 6533SOL    HW120351   4.079   2.350   3.214
 6533SOL    HW220352   4.081   2.383   3.054
 6534SOL     OW20353   4.536   3.448   2.549
 6534SOL    HW120354   4.568   3.458   2.455
 6534SOL    HW220355   4.457   3.386   2.551
 6535SOL     OW20356   3.763   2.939   2.162
 6535SOL    HW120357   3.862   2.928   2.153
 6535SOL    HW220358   3.723   2.853   2.194
 6536SOL     OW20359   3.954   2.490   3.837
 6536SOL    HW120360   3.861   2.488   3.874
 6536SOL    HW220361   3.955   2.451   3.745
 6537SOL     OW20362   3.949   2.137   4.720
 6537SOL    HW120363   3.984   2.120   4.812
 6537SOL    HW220364   3.861   2.092   4.708
 6538SOL     OW20365   3.743   2.230   4.371
 6538SOL    HW120366   3.661   2.273   4.410
 6538SOL    HW220367   3.715   2.157   4.308
 6539SOL     OW20368   4.293   3.137   4.889
 6539SOL    HW120369   4.200   3.130   4.852
 6539SOL    HW220370   4.304   3.226   4.933
 6540SOL     OW20371   4.574   2.660   5.547
 6540SOL    HW120372   4.570   2.736   5.612
 6540SOL    HW220373   4.596   2.696   5.456
 6541SOL     OW20374   4.409   2.874   4.389
 6541SOL    HW120375   4.478   2.858   4.459
 6541SOL    HW220376   4.336   2.931   4.427
 6542SOL     OW20377   4.410   3.023   5.527
 6542SOL    HW120378   4.470   3.102   5.541
 6542SOL    HW220379   4.324   3.054   5.486
 6543SOL     OW20380   4.059   3.297   4.785
 6543SOL    HW120381   3.981   3.266   4.732
 6543SOL    HW220382   4.117   3.355   4.728
 6544SOL     OW20383   4.162   2.254   5.223
 6544SOL    HW120384   4.244   2.198   5.232
 6544SOL    HW220385   4.081   2.196   5.227
 6545SOL     OW20386   3.955   3.575   4.207
 6545SOL    HW120387   3.989   3.652   4.261
 6545SOL    HW220388   3.999   3.575   4.117
 6546SOL     OW20389   3.954   3.296   4.262
 6546SOL    HW120390   3.928   3.392   4.262
 6546SOL    HW220391   3.883   3.242   4.307
 6547SOL     OW20392   3.964   2.953   4.610
 6547SOL    HW120393   3.978   2.869   4.662
 6547SOL    HW220394   3.909   3.017   4.665
 6548SOL     OW20395   4.344   3.648   5.163
 6548SOL    HW120396   4.252   3.631   5.198
 6548SOL    HW220397   4.372   3.740   5.189
 6549SOL     OW20398   4.330   2.826   3.847
 6549SOL    HW120399   4.337   2.910   3.793
 6549SOL    HW220400   4.376   2.839   3.935
 6550SOL     OW20401   3.846   2.505   4.287
 6550SOL    HW120402   3.801   2.417   4.304
 6550SOL    HW220403   3.845   2.559   4.371
 6551SOL     OW20404   3.751   3.458   3.841
 6551SOL    HW120405   3.732   3.362   3.862
 6551SOL    HW220406   3.718   3.516   3.916
 6552SOL     OW20407   3.837   2.599   5.321
 6552SOL    HW120408   3.925   2.586   5.366
 6552SOL    HW220409   3.824   2.696   5.299
 6553SOL     OW20410   4.337   3.227   4.450
 6553SOL    HW120411   4.288   3.140   4.459
 6553SOL    HW220412   4.314   3.270   4.363
 6554SOL     OW20413   4.533   1.866   4.226
 6554SOL    HW120414   4.573   1.957   4.217
 6554SOL    HW220415   4.433   1.874   4.232
 6555SOL     OW20416   3.921   2.838   4.988
 6555SOL    HW120417   4.010   2.793   4.974
 6555SOL    HW220418   3.848   2.773   4.969
 6556SOL     OW20419   4.041   2.113   5.525
 6556SOL    HW120420   4.112   2.184   5.531
 6556SOL    HW220421   3.953   2.152   5.553
 6557SOL     OW20422   4.322   2.591   3.994
 6557SOL    HW120423   4.346   2.660   3.926
 6557SOL    HW220424   4.244   2.624   4.048
 6558SOL     OW20425   3.800   2.673   4.513
 6558SOL    HW120426   3.899   2.661   4.522
 6558SOL    HW220427   3.776   2.768   4.534
 6559SOL     OW20428   3.854   3.683   5.295
 6559SOL    HW120429   3.844   3.668   5.394
 6559SOL    HW220430   3.768   3.719   5.259
 6560SOL     OW20431   4.274   2.058   4.609
 6560SOL    HW120432   4.269   2.053   4.709
 6560SOL    HW220433   4.276   2.154   4.580
 6561SOL     OW20434   4.075   3.663   4.577
 6561SOL    HW120435   4.125   3.577   4.583
 6561SOL    HW220436   4.140   3.740   4.574
 6562SOL     OW20437   4.045   2.805   3.966
 6562SOL    HW120438   4.127   2.844   3.924
 6562SOL    HW220439   4.018   2.723   3.917
 6563SOL     OW20440   4.185   3.128   5.451
 6563SOL    HW120441   4.135   3.129   5.365
 6563SOL    HW220442   4.122   3.110   5.527
 6564SOL     OW20443   3.926   2.147   5.222
 6564SOL    HW120444   3.846   2.207   5.209
 6564SOL    HW220445   3.916   2.098   5.308
 6565SOL     OW20446   4.188   3.605   4.047
 6565SOL    HW120447   4.221   3.644   4.133
 6565SOL    HW220448   4.264   3.598   3.982
 6566SOL     OW20449   3.973   3.647   4.965
 6566SOL    HW120450   4.030   3.582   5.015
 6566SOL    HW220451   3.957   3.614   4.872
 6567SOL     OW20452   4.106   2.562   4.204
 6567SOL    HW120453   4.151   2.472   4.201
 6567SOL    HW220454   4.012   2.551   4.237
 6568SOL     OW20455   4.338   1.984   3.841
 6568SOL    HW120456   4.436   1.962   3.848
 6568SOL    HW220457   4.307   1.967   3.748
 6569SOL     OW20458   4.527   3.264   4.648
 6569SOL    HW120459   4.617   3.278   4.606
 6569SOL    HW220460   4.456   3.266   4.577
 6570SOL     OW20461   4.263   1.926   4.236
 6570SOL    HW120462   4.182   1.927   4.294
 6570SOL    HW220463   4.266   2.009   4.181
 6571SOL     OW20464   4.021   1.897   3.895
 6571SOL    HW120465   4.070   1.981   3.874
 6571SOL    HW220466   4.083   1.832   3.940
 6572SOL     OW20467   4.800   2.545   5.188
 6572SOL    HW120468   4.720   2.484   5.191
 6572SOL    HW220469   4.881   2.492   5.164
 6573SOL     OW20470   4.183   3.014   4.465
 6573SOL    HW120471   4.112   2.987   4.530
 6573SOL    HW220472   4.157   2.986   4.372
 6574SOL     OW20473   3.802   2.418   5.110
 6574SOL    HW120474   3.894   2.417   5.069
 6574SOL    HW220475   3.796   2.492   5.177
 6575SOL     OW20476   4.285   2.084   4.871
 6575SOL    HW120477   4.323   2.000   4.908
 6575SOL    HW220478   4.197   2.103   4.915
 6576SOL     OW20479   4.212   3.247   3.898
 6576SOL    HW120480   4.125   3.232   3.945
 6576SOL    HW220481   4.195   3.273   3.803
 6577SOL     OW20482   4.251   2.118   4.052
 6577SOL    HW120483   4.278   2.059   3.977
 6577SOL    HW220484   4.251   2.213   4.021
 6578SOL     OW20485   4.134   2.675   4.975
 6578SOL    HW120486   4.220   2.687   5.025
 6578SOL    HW220487   4.092   2.588   5.002
 6579SOL     OW20488   3.788   3.426   5.055
 6579SOL    HW120489   3.742   3.508   5.021
 6579SOL    HW220490   3.886   3.445   5.064
 6580SOL     OW20491   4.091   2.962   4.225
 6580SOL    HW120492   4.084   3.045   4.169
 6580SOL    HW220493   4.095   2.882   4.165
 6581SOL     OW20494   4.290   2.399   4.589
 6581SOL    HW120495   4.302   2.465   4.515
 6581SOL    HW220496   4.336   2.433   4.672
 6582SOL     OW20497   4.078   3.372   5.053
 6582SOL    HW120498   4.057   3.328   4.966
 6582SOL    HW220499   4.175   3.398   5.056
 6583SOL     OW20500   4.126   2.613   5.322
 6583SOL    HW120501   4.194   2.668   5.275
 6583SOL    HW220502   4.166   2.525   5.349
 6584SOL     OW20503   4.228   1.912   5.464
 6584SOL    HW120504   4.186   1.855   5.394
 6584SOL    HW220505   4.162   1.981   5.496
 6585SOL     OW20506   4.297   2.732   4.753
 6585SOL    HW120507   4.341   2.821   4.744
 6585SOL    HW220508   4.234   2.732   4.830
 6586SOL     OW20509   4.031   2.075   4.955
 6586SOL    HW120510   4.008   2.112   5.045
 6586SOL    HW220511   4.001   1.980   4.949
 6587SOL     OW20512   3.761   3.172   5.006
 6587SOL    HW120513   3.814   3.123   5.074
 6587SOL    HW220514   3.783   3.270   5.011
 6588SOL     OW20515   4.031   1.925   4.342
 6588SOL    HW120516   4.020   2.019   4.375
 6588SOL    HW220517   4.026   1.862   4.419
 6589SOL     OW20518   4.074   2.760   5.528
 6589SOL    HW120519   4.150   2.804   5.576
 6589SOL    HW220520   4.109   2.713   5.446
 6590SOL     OW20521   4.043   2.672   4.673
 6590SOL    HW120522   4.136   2.708   4.678
 6590SOL    HW220523   4.037   2.587   4.725
 6591SOL     OW20524   4.063   2.371   4.730
 6591SOL    HW120525   4.011   2.288   4.713
 6591SOL    HW220526   4.140   2.376   4.666
 6592SOL     OW20527   3.732   3.188   3.924
 6592SOL    HW120528   3.639   3.209   3.893
 6592SOL    HW220529   3.742   3.089   3.937
 6593SOL     OW20530   3.812   3.663   4.651
 6593SOL    HW120531   3.770   3.577   4.624
 6593SOL    HW220532   3.906   3.666   4.617
 6594SOL     OW20533   4.228   3.430   4.634
 6594SOL    HW120534   4.294   3.504   4.643
 6594SOL    HW220535   4.272   3.351   4.592
 6595SOL     OW20536   3.764   2.406   4.838
 6595SOL    HW120537   3.849   2.373   4.797
 6595SOL    HW220538   3.777   2.421   4.936
 6596SOL     OW20539   3.913   2.382   5.446
 6596SOL    HW120540   3.972   2.342   5.376
 6596SOL    HW220541   3.855   2.453   5.405
 6597SOL     OW20542   4.539   2.434   4.049
 6597SOL    HW120543   4.546   2.345   4.003
 6597SOL    HW220544   4.445   2.468   4.041
 6598SOL     OW20545   3.976   3.426   5.468
 6598SOL    HW120546   3.946   3.483   5.544
 6598SOL    HW220547   3.969   3.329   5.494
 6599SOL     OW20548   4.197   2.362   3.915
 6599SOL    HW120549   4.258   2.442   3.919
 6599SOL    HW220550   4.102   2.393   3.922
 6600SOL     OW20551   3.883   2.999   5.190
 6600SOL    HW120552   3.905   2.938   5.266
 6600SOL    HW220553   3.893   2.950   5.104
 6601SOL     OW20554   3.807   3.120   4.746
 6601SOL    HW120555   3.802   3.119   4.846
 6601SOL    HW220556   3.724   3.079   4.708
 6602SOL     OW20557   4.412   3.524   5.440
 6602SOL    HW120558   4.356   3.605   5.449
 6602SOL    HW220559   4.464   3.528   5.354
 6603SOL     OW20560   3.854   3.656   5.575
 6603SOL    HW120561   3.813   3.582   5.628
 6603SOL    HW220562   3.918   3.707   5.633
 6604SOL     OW20563   3.987   2.188   4.444
 6604SOL    HW120564   3.908   2.239   4.410
 6604SOL    HW220565   3.978   2.173   4.542
 6605SOL     OW20566   4.096   3.150   5.214
 6605SOL    HW120567   4.083   3.243   5.180
 6605SOL    HW220568   4.012   3.098   5.201
 6606SOL     OW20569   4.314   3.349   4.215
 6606SOL    HW120570   4.356   3.291   4.145
 6606SOL    HW220571   4.270   3.428   4.171
 6607SOL     OW20572   3.979   3.210   4.014
 6607SOL    HW120573   3.883   3.211   3.987
 6607SOL    HW220574   3.991   3.263   4.098
 6608SOL     OW20575   3.829   2.875   5.450
 6608SOL    HW120576   3.752   2.842   5.504
 6608SOL    HW220577   3.914   2.845   5.492
 6609SOL     OW20578   4.396   2.065   5.213
 6609SOL    HW120579   4.486   2.049   5.173
 6609SOL    HW220580   4.404   2.070   5.312
 6610SOL     OW20581   3.799   2.207   3.757
 6610SOL    HW120582   3.707   2.179   3.728
 6610SOL    HW220583   3.830   2.284   3.701
 6611SOL     OW20584   3.796   2.028   4.042
 6611SOL    HW120585   3.779   2.111   3.988
 6611SOL    HW220586   3.886   1.991   4.020
 6612SOL     OW20587   4.337   2.704   5.155
 6612SOL    HW120588   4.393   2.785   5.138
 6612SOL    HW220589   4.396   2.624   5.158
 6613SOL     OW20590   4.440   2.427   5.432
 6613SOL    HW120591   4.459   2.492   5.506
 6613SOL    HW220592   4.500   2.347   5.441
 6614SOL     OW20593   4.114   3.603   5.284
 6614SOL    HW120594   4.023   3.644   5.282
 6614SOL    HW220595   4.107   3.509   5.316
 6615SOL     OW20596   4.318   2.607   4.376
 6615SOL    HW120597   4.368   2.692   4.357
 6615SOL    HW220598   4.230   2.609   4.328
 6616SOL     OW20599   3.945   3.176   5.568
 6616SOL    HW120600   3.880   3.103   5.547
 6616SOL    HW220601   3.949   3.190   5.666
 6617SOL     OW20602   3.803   3.102   4.377
 6617SOL    HW120603   3.802   3.055   4.465
 6617SOL    HW220604   3.885   3.074   4.326
 6618SOL     OW20605   4.396   3.253   5.348
 6618SOL    HW120606   4.318   3.203   5.386
 6618SOL    HW220607   4.393   3.348   5.379
 6619SOL     OW20608   4.152   2.286   4.244
 6619SOL    HW120609   4.182   2.214   4.182
 6619SOL    HW220610   4.113   2.246   4.327
 6620SOL     OW20611   4.041   2.409   5.004
 6620SOL    HW120612   4.079   2.350   5.076
 6620SOL    HW220613   4.081   2.383   4.916
 6621SOL     OW20614   4.536   3.448   4.411
 6621SOL    HW120615   4.568   3.458   4.317
 6621SOL    HW220616   4.457   3.386   4.413
 6622SOL     OW20617   3.763   2.939   4.024
 6622SOL    HW120618   3.862   2.928   4.015
 6622SOL    HW220619   3.723   2.853   4.056
 6623SOL     OW20620   3.954   2.490   5.699
 6623SOL    HW120621   3.861   2.488   5.736
 6623SOL    HW220622   3.955   2.451   5.607
 6624SOL     OW20623   3.949   2.137   6.582
 6624SOL    HW120624   3.984   2.120   6.674
 6624SOL    HW220625   3.861   2.092   6.570
 6625SOL     OW20626   3.743   2.230   6.233
 6625SOL    HW120627   3.661   2.273   6.272
 6625SOL    HW220628   3.715   2.157   6.170
 6626SOL     OW20629   4.293   3.137   6.751
 6626SOL    HW120630   4.200   3.130   6.714
 6626SOL    HW220631   4.304   3.226   6.795
 6627SOL     OW20632   4.574   2.660   7.409
 6627SOL    HW120633   4.570   2.736   7.474
 6627SOL    HW220634   4.596   2.696   7.318
 6628SOL     OW20635   4.409   2.874   6.251
 6628SOL    HW120636   4.478   2.858   6.321
 6628SOL    HW220637   4.336   2.931   6.289
 6629SOL     OW20638   4.410   3.023   7.389
 6629SOL    HW120639   4.470   3.102   7.403
 6629SOL    HW220640   4.324   3.054   7.348
 6630SOL     OW20641   4.059   3.297   6.647
 6630SOL    HW120642   3.981   3.266   6.594
 6630SOL    HW220643   4.117   3.355   6.590
 6631SOL     OW20644   4.162   2.254   7.085
 6631SOL    HW120645   4.244   2.198   7.094
 6631SOL    HW220646   4.081   2.196   7.089
 6632SOL     OW20647   3.955   3.575   6.069
 6632SOL    HW120648   3.989   3.652   6.123
 6632SOL    HW220649   3.999   3.575   5.979
 6633SOL     OW20650   3.954   3.296   6.124
 6633SOL    HW120651   3.928   3.392   6.124
 6633SOL    HW220652   3.883   3.242   6.169
 6634SOL     OW20653   3.964   2.953   6.472
 6634SOL    HW120654   3.978   2.869   6.524
 6634SOL    HW220655   3.909   3.017   6.527
 6635SOL     OW20656   4.344   3.648   7.025
 6635SOL    HW120657   4.252   3.631   7.060
 6635SOL    HW220658   4.372   3.740   7.051
 6636SOL     OW20659   4.330   2.826   5.709
 6636SOL    HW120660   4.337   2.910   5.655
 6636SOL    HW220661   4.376   2.839   5.797
 6637SOL     OW20662   3.846   2.505   6.149
 6637SOL    HW120663   3.801   2.417   6.166
 6637SOL    HW220664   3.845   2.559   6.233
 6638SOL     OW20665   3.751   3.458   5.703
 6638SOL    HW120666   3.732   3.362   5.724
 6638SOL    HW220667   3.718   3.516   5.778
 6639SOL     OW20668   3.837   2.599   7.183
 6639SOL    HW120669   3.925   2.586   7.228
 6639SOL    HW220670   3.824   2.696   7.161
 6640SOL     OW20671   4.337   3.227   6.312
 6640SOL    HW120672   4.288   3.140   6.321
 6640SOL    HW220673   4.314   3.270   6.225
 6641SOL     OW20674   4.533   1.866   6.088
 6641SOL    HW120675   4.573   1.957   6.079
 6641SOL    HW220676   4.433   1.874   6.094
 6642SOL     OW20677   3.921   2.838   6.850
 6642SOL    HW120678   4.010   2.793   6.836
 6642SOL    HW220679   3.848   2.773   6.831
 6643SOL     OW20680   4.041   2.113   7.387
 6643SOL    HW120681   4.112   2.184   7.393
 6643SOL    HW220682   3.953   2.152   7.415
 6644SOL     OW20683   4.322   2.591   5.856
 6644SOL    HW120684   4.346   2.660   5.788
 6644SOL    HW220685   4.244   2.624   5.910
 6645SOL     OW20686   3.800   2.673   6.375
 6645SOL    HW120687   3.899   2.661   6.384
 6645SOL    HW220688   3.776   2.768   6.396
 6646SOL     OW20689   3.854   3.683   7.157
 6646SOL    HW120690   3.844   3.668   7.256
 6646SOL    HW220691   3.768   3.719   7.121
 6647SOL     OW20692   4.274   2.058   6.471
 6647SOL    HW120693   4.269   2.053   6.571
 6647SOL    HW220694   4.276   2.154   6.442
 6648SOL     OW20695   4.075   3.663   6.439
 6648SOL    HW120696   4.125   3.577   6.445
 6648SOL    HW220697   4.140   3.740   6.436
 6649SOL     OW20698   4.045   2.805   5.828
 6649SOL    HW120699   4.127   2.844   5.786
 6649SOL    HW220700   4.018   2.723   5.779
 6650SOL     OW20701   4.185   3.128   7.313
 6650SOL    HW120702   4.135   3.129   7.227
 6650SOL    HW220703   4.122   3.110   7.389
 6651SOL     OW20704   3.926   2.147   7.084
 6651SOL    HW120705   3.846   2.207   7.071
 6651SOL    HW220706   3.916   2.098   7.170
 6652SOL     OW20707   4.188   3.605   5.909
 6652SOL    HW120708   4.221   3.644   5.995
 6652SOL    HW220709   4.264   3.598   5.844
 6653SOL     OW20710   3.973   3.647   6.827
 6653SOL    HW120711   4.030   3.582   6.877
 6653SOL    HW220712   3.957   3.614   6.734
 6654SOL     OW20713   4.106   2.562   6.066
 6654SOL    HW120714   4.151   2.472   6.063
 6654SOL    HW220715   4.012   2.551   6.099
 6655SOL     OW20716   4.338   1.984   5.703
 6655SOL    HW120717   4.436   1.962   5.710
 6655SOL    HW220718   4.307   1.967   5.610
 6656SOL     OW20719   4.527   3.264   6.510
 6656SOL    HW120720   4.617   3.278   6.468
 6656SOL    HW220721   4.456   3.266   6.439
 6657SOL     OW20722   4.263   1.926   6.098
 6657SOL    HW120723   4.182   1.927   6.156
 6657SOL    HW220724   4.266   2.009   6.043
 6658SOL     OW20725   4.021   1.897   5.757
 6658SOL    HW120726   4.070   1.981   5.736
 6658SOL    HW220727   4.083   1.832   5.802
 6659SOL     OW20728   4.800   2.545   7.050
 6659SOL    HW120729   4.720   2.484   7.053
 6659SOL    HW220730   4.881   2.492   7.026
 6660SOL     OW20731   4.183   3.014   6.327
 6660SOL    HW120732   4.112   2.987   6.392
 6660SOL    HW220733   4.157   2.986   6.234
 6661SOL     OW20734   3.802   2.418   6.972
 6661SOL    HW120735   3.894   2.417   6.931
 6661SOL    HW220736   3.796   2.492   7.039
 6662SOL     OW20737   4.285   2.084   6.733
 6662SOL    HW120738   4.323   2.000   6.770
 6662SOL    HW220739   4.197   2.103   6.777
 6663SOL     OW20740   4.212   3.247   5.760
 6663SOL    HW120741   4.125   3.232   5.807
 6663SOL    HW220742   4.195   3.273   5.665
 6664SOL     OW20743   4.251   2.118   5.914
 6664SOL    HW120744   4.278   2.059   5.839
 6664SOL    HW220745   4.251   2.213   5.883
 6665SOL     OW20746   4.134   2.675   6.837
 6665SOL    HW120747   4.220   2.687   6.887
 6665SOL    HW220748   4.092   2.588   6.864
 6666SOL     OW20749   3.788   3.426   6.917
 6666SOL    HW120750   3.742   3.508   6.883
 6666SOL    HW220751   3.886   3.445   6.926
 6667SOL     OW20752   4.091   2.962   6.087
 6667SOL    HW120753   4.084   3.045   6.031
 6667SOL    HW220754   4.095   2.882   6.027
 6668SOL     OW20755   4.290   2.399   6.451
 6668SOL    HW120756   4.302   2.465   6.377
 6668SOL    HW220757   4.336   2.433   6.534
 6669SOL     OW20758   4.078   3.372   6.915
 6669SOL    HW120759   4.057   3.328   6.828
 6669SOL    HW220760   4.175   3.398   6.918
 6670SOL     OW20761   4.126   2.613   7.184
 6670SOL    HW120762   4.194   2.668   7.137
 6670SOL    HW220763   4.166   2.525   7.211
 6671SOL     OW20764   4.228   1.912   7.326
 6671SOL    HW120765   4.186   1.855   7.256
 6671SOL    HW220766   4.162   1.981   7.358
 6672SOL     OW20767   4.297   2.732   6.615
 6672SOL    HW120768   4.341   2.821   6.606
 6672SOL    HW220769   4.234   2.732   6.692
 6673SOL     OW20770   4.031   2.075   6.817
 6673SOL    HW120771   4.008   2.112   6.907
 6673SOL    HW220772   4.001   1.980   6.811
 6674SOL     OW20773   3.761   3.172   6.868
 6674SOL    HW120774   3.814   3.123   6.936
 6674SOL    HW220775   3.783   3.270   6.873
 6675SOL     OW20776   4.031   1.925   6.204
 6675SOL    HW120777   4.020   2.019   6.237
 6675SOL    HW220778   4.026   1.862   6.281
 6676SOL     OW20779   4.074   2.760   7.390
 6676SOL    HW120780   4.150   2.804   7.438
 6676SOL    HW220781   4.109   2.713   7.308
 6677SOL     OW20782   4.043   2.672   6.535
 6677SOL    HW120783   4.136   2.708   6.540
 6677SOL    HW220784   4.037   2.587   6.587
 6678SOL     OW20785   4.063   2.371   6.592
 6678SOL    HW120786   4.011   2.288   6.575
 6678SOL    HW220787   4.140   2.376   6.528
 6679SOL     OW20788   3.732   3.188   5.786
 6679SOL    HW120789   3.639   3.209   5.755
 6679SOL    HW220790   3.742   3.089   5.799
 6680SOL     OW20791   3.812   3.663   6.513
 6680SOL    HW120792   3.770   3.577   6.486
 6680SOL    HW220793   3.906   3.666   6.479
 6681SOL     OW20794   4.228   3.430   6.496
 6681SOL    HW120795   4.294   3.504   6.505
 6681SOL    HW220796   4.272   3.351   6.454
 6682SOL     OW20797   3.764   2.406   6.700
 6682SOL    HW120798   3.849   2.373   6.659
 6682SOL    HW220799   3.777   2.421   6.798
 6683SOL     OW20800   3.913   2.382   7.308
 6683SOL    HW120801   3.972   2.342   7.238
 6683SOL    HW220802   3.855   2.453   7.267
 6684SOL     OW20803   4.539   2.434   5.911
 6684SOL    HW120804   4.546   2.345   5.865
 6684SOL    HW220805   4.445   2.468   5.903
 6685SOL     OW20806   3.976   3.426   7.330
 6685SOL    HW120807   3.946   3.483   7.406
 6685SOL    HW220808   3.969   3.329   7.356
 6686SOL     OW20809   4.197   2.362   5.777
 6686SOL    HW120810   4.258   2.442   5.781
 6686SOL    HW220811   4.102   2.393   5.784
 6687SOL     OW20812   3.883   2.999   7.052
 6687SOL    HW120813   3.905   2.938   7.128
 6687SOL    HW220814   3.893   2.950   6.966
 6688SOL     OW20815   3.807   3.120   6.608
 6688SOL    HW120816   3.802   3.119   6.708
 6688SOL    HW220817   3.724   3.079   6.570
 6689SOL     OW20818   4.412   3.524   7.302
 6689SOL    HW120819   4.356   3.605   7.311
 6689SOL    HW220820   4.464   3.528   7.216
 6690SOL     OW20821   3.854   3.656   7.437
 6690SOL    HW120822   3.813   3.582   7.490
 6690SOL    HW220823   3.918   3.707   7.495
 6691SOL     OW20824   3.987   2.188   6.306
 6691SOL    HW120825   3.908   2.239   6.272
 6691SOL    HW220826   3.978   2.173   6.404
 6692SOL     OW20827   4.096   3.150   7.076
 6692SOL    HW120828   4.083   3.243   7.042
 6692SOL    HW220829   4.012   3.098   7.063
 6693SOL     OW20830   4.314   3.349   6.077
 6693SOL    HW120831   4.356   3.291   6.007
 6693SOL    HW220832   4.270   3.428   6.033
 6694SOL     OW20833   3.979   3.210   5.876
 6694SOL    HW120834   3.883   3.211   5.849
 6694SOL    HW220835   3.991   3.263   5.960
 6695SOL     OW20836   3.829   2.875   7.312
 6695SOL    HW120837   3.752   2.842   7.366
 6695SOL    HW220838   3.914   2.845   7.354
 6696SOL     OW20839   4.396   2.065   7.075
 6696SOL    HW120840   4.486   2.049   7.035
 6696SOL    HW220841   4.404   2.070   7.174
 6697SOL     OW20842   3.799   2.207   5.619
 6697SOL    HW120843   3.707   2.179   5.590
 6697SOL    HW220844   3.830   2.284   5.563
 6698SOL     OW20845   3.796   2.028   5.904
 6698SOL    HW120846   3.779   2.111   5.850
 6698SOL    HW220847   3.886   1.991   5.882
 6699SOL     OW20848   4.337   2.704   7.017
 6699SOL    HW120849   4.393   2.785   7.000
 6699SOL    HW220850   4.396   2.624   7.020
 6700SOL     OW20851   4.440   2.427   7.294
 6700SOL    HW120852   4.459   2.492   7.368
 6700SOL    HW220853   4.500   2.347   7.303
 6701SOL     OW20854   4.114   3.603   7.146
 6701SOL    HW120855   4.023   3.644   7.144
 6701SOL    HW220856   4.107   3.509   7.178
 6702SOL     OW20857   4.318   2.607   6.238
 6702SOL    HW120858   4.368   2.692   6.219
 6702SOL    HW220859   4.230   2.609   6.190
 6703SOL     OW20860   3.945   3.176   7.430
 6703SOL    HW120861   3.880   3.103   7.409
 6703SOL    HW220862   3.949   3.190   7.528
 6704SOL     OW20863   3.803   3.102   6.239
 6704SOL    HW120864   3.802   3.055   6.327
 6704SOL    HW220865   3.885   3.074   6.188
 6705SOL     OW20866   4.396   3.253   7.210
 6705SOL    HW120867   4.318   3.203   7.248
 6705SOL    HW220868   4.393   3.348   7.241
 6706SOL     OW20869   4.152   2.286   6.106
 6706SOL    HW120870   4.182   2.214   6.044
 6706SOL    HW220871   4.113   2.246   6.189
 6707SOL     OW20872   4.041   2.409   6.866
 6707SOL    HW120873   4.079   2.350   6.938
 6707SOL    HW220874   4.081   2.383   6.778
 6708SOL     OW20875   4.536   3.448   6.273
 6708SOL    HW120876   4.568   3.458   6.179
 6708SOL    HW220877   4.457   3.386   6.275
 6709SOL     OW20878   3.763   2.939   5.886
 6709SOL    HW120879   3.862   2.928   5.877
 6709SOL    HW220880   3.723   2.853   5.918
 6710SOL     OW20881   3.954   2.490   7.561
 6710SOL    HW120882   3.861   2.488   7.598
 6710SOL    HW220883   3.955   2.451   7.469
 6711SOL     OW20884   3.949   2.137   8.444
 6711SOL    HW120885   3.984   2.120   8.536
 6711SOL    HW220886   3.861   2.092   8.432
 6712SOL     OW20887   3.743   2.230   8.095
 6712SOL    HW120888   3.661   2.273   8.134
 6712SOL    HW220889   3.715   2.157   8.032
 6713SOL     OW20890   4.293   3.137   8.613
 6713SOL    HW120891   4.200   3.130   8.576
 6713SOL    HW220892   4.304   3.226   8.657
 6714SOL     OW20893   4.574   2.660   9.271
 6714SOL    HW120894   4.570   2.736   9.336
 6714SOL    HW220895   4.596   2.696   9.180
 6715SOL     OW20896   4.409   2.874   8.113
 6715SOL    HW120897   4.478   2.858   8.183
 6715SOL    HW220898   4.336   2.931   8.151
 6716SOL     OW20899   4.410   3.023   9.251
 6716SOL    HW120900   4.470   3.102   9.265
 6716SOL    HW220901   4.324   3.054   9.210
 6717SOL     OW20902   4.059   3.297   8.509
 6717SOL    HW120903   3.981   3.266   8.456
 6717SOL    HW220904   4.117   3.355   8.452
 6718SOL     OW20905   4.162   2.254   8.947
 6718SOL    HW120906   4.244   2.198   8.956
 6718SOL    HW220907   4.081   2.196   8.951
 6719SOL     OW20908   3.955   3.575   7.931
 6719SOL    HW120909   3.989   3.652   7.985
 6719SOL    HW220910   3.999   3.575   7.841
 6720SOL     OW20911   3.954   3.296   7.986
 6720SOL    HW120912   3.928   3.392   7.986
 6720SOL    HW220913   3.883   3.242   8.031
 6721SOL     OW20914   3.964   2.953   8.334
 6721SOL    HW120915   3.978   2.869   8.386
 6721SOL    HW220916   3.909   3.017   8.389
 6722SOL     OW20917   4.344   3.648   8.887
 6722SOL    HW120918   4.252   3.631   8.922
 6722SOL    HW220919   4.372   3.740   8.913
 6723SOL     OW20920   4.330   2.826   7.571
 6723SOL    HW120921   4.337   2.910   7.517
 6723SOL    HW220922   4.376   2.839   7.659
 6724SOL     OW20923   3.846   2.505   8.011
 6724SOL    HW120924   3.801   2.417   8.028
 6724SOL    HW220925   3.845   2.559   8.095
 6725SOL     OW20926   3.751   3.458   7.565
 6725SOL    HW120927   3.732   3.362   7.586
 6725SOL    HW220928   3.718   3.516   7.640
 6726SOL     OW20929   3.837   2.599   9.045
 6726SOL    HW120930   3.925   2.586   9.090
 6726SOL    HW220931   3.824   2.696   9.023
 6727SOL     OW20932   4.337   3.227   8.174
 6727SOL    HW120933   4.288   3.140   8.183
 6727SOL    HW220934   4.314   3.270   8.087
 6728SOL     OW20935   4.533   1.866   7.950
 6728SOL    HW120936   4.573   1.957   7.941
 6728SOL    HW220937   4.433   1.874   7.956
 6729SOL     OW20938   3.921   2.838   8.712
 6729SOL    HW120939   4.010   2.793   8.698
 6729SOL    HW220940   3.848   2.773   8.693
 6730SOL     OW20941   4.041   2.113   9.249
 6730SOL    HW120942   4.112   2.184   9.255
 6730SOL    HW220943   3.953   2.152   9.277
 6731SOL     OW20944   4.322   2.591   7.718
 6731SOL    HW120945   4.346   2.660   7.650
 6731SOL    HW220946   4.244   2.624   7.772
 6732SOL     OW20947   3.800   2.673   8.237
 6732SOL    HW120948   3.899   2.661   8.246
 6732SOL    HW220949   3.776   2.768   8.258
 6733SOL     OW20950   3.854   3.683   9.019
 6733SOL    HW120951   3.844   3.668   9.118
 6733SOL    HW220952   3.768   3.719   8.983
 6734SOL     OW20953   4.274   2.058   8.333
 6734SOL    HW120954   4.269   2.053   8.433
 6734SOL    HW220955   4.276   2.154   8.304
 6735SOL     OW20956   4.075   3.663   8.301
 6735SOL    HW120957   4.125   3.577   8.307
 6735SOL    HW220958   4.140   3.740   8.298
 6736SOL     OW20959   4.045   2.805   7.690
 6736SOL    HW120960   4.127   2.844   7.648
 6736SOL    HW220961   4.018   2.723   7.641
 6737SOL     OW20962   4.185   3.128   9.175
 6737SOL    HW120963   4.135   3.129   9.089
 6737SOL    HW220964   4.122   3.110   9.251
 6738SOL     OW20965   3.926   2.147   8.946
 6738SOL    HW120966   3.846   2.207   8.933
 6738SOL    HW220967   3.916   2.098   9.032
 6739SOL     OW20968   4.188   3.605   7.771
 6739SOL    HW120969   4.221   3.644   7.857
 6739SOL    HW220970   4.264   3.598   7.706
 6740SOL     OW20971   3.973   3.647   8.689
 6740SOL    HW120972   4.030   3.582   8.739
 6740SOL    HW220973   3.957   3.614   8.596
 6741SOL     OW20974   4.106   2.562   7.928
 6741SOL    HW120975   4.151   2.472   7.925
 6741SOL    HW220976   4.012   2.551   7.961
 6742SOL     OW20977   4.338   1.984   7.565
 6742SOL    HW120978   4.436   1.962   7.572
 6742SOL    HW220979   4.307   1.967   7.472
 6743SOL     OW20980   4.527   3.264   8.372
 6743SOL    HW120981   4.617   3.278   8.330
 6743SOL    HW220982   4.456   3.266   8.301
 6744SOL     OW20983   4.263   1.926   7.960
 6744SOL    HW120984   4.182   1.927   8.018
 6744SOL    HW220985   4.266   2.009   7.905
 6745SOL     OW20986   4.021   1.897   7.619
 6745SOL    HW120987   4.070   1.981   7.598
 6745SOL    HW220988   4.083   1.832   7.664
 6746SOL     OW20989   4.800   2.545   8.912
 6746SOL    HW120990   4.720   2.484   8.915
 6746SOL    HW220991   4.881   2.492   8.888
 6747SOL     OW20992   4.183   3.014   8.189
 6747SOL    HW120993   4.112   2.987   8.254
 6747SOL    HW220994   4.157   2.986   8.096
 6748SOL     OW20995   3.802   2.418   8.834
 6748SOL    HW120996   3.894   2.417   8.793
 6748SOL    HW220997   3.796   2.492   8.901
 6749SOL     OW20998   4.285   2.084   8.595
 6749SOL    HW120999   4.323   2.000   8.632
 6749SOL    HW221000   4.197   2.103   8.639
 6750SOL     OW21001   4.212   3.247   7.622
 6750SOL    HW121002   4.125   3.232   7.669
 6750SOL    HW221003   4.195   3.273   7.527
 6751SOL     OW21004   4.251   2.118   7.776
 6751SOL    HW121005   4.278   2.059   7.701
 6751SOL    HW221006   4.251   2.213   7.745
 6752SOL     OW21007   4.134   2.675   8.699
 6752SOL    HW121008   4.220   2.687   8.749
 6752SOL    HW221009   4.092   2.588   8.726
 6753SOL     OW21010   3.788   3.426   8.779
 6753SOL    HW121011   3.742   3.508   8.745
 6753SOL    HW221012   3.886   3.445   8.788
 6754SOL     OW21013   4.091   2.962   7.949
 6754SOL    HW121014   4.084   3.045   7.893
 6754SOL    HW221015   4.095   2.882   7.889
 6755SOL     OW21016   4.290   2.399   8.313
 6755SOL    HW121017   4.302   2.465   8.239
 6755SOL    HW221018   4.336   2.433   8.396
 6756SOL     OW21019   4.078   3.372   8.777
 6756SOL    HW121020   4.057   3.328   8.690
 6756SOL    HW221021   4.175   3.398   8.780
 6757SOL     OW21022   4.126   2.613   9.046
 6757SOL    HW121023   4.194   2.668   8.999
 6757SOL    HW221024   4.166   2.525   9.073
 6758SOL     OW21025   4.228   1.912   9.188
 6758SOL    HW121026   4.186   1.855   9.118
 6758SOL    HW221027   4.162   1.981   9.220
 6759SOL     OW21028   4.297   2.732   8.477
 6759SOL    HW121029   4.341   2.821   8.468
 6759SOL    HW221030   4.234   2.732   8.554
 6760SOL     OW21031   4.031   2.075   8.679
 6760SOL    HW121032   4.008   2.112   8.769
 6760SOL    HW221033   4.001   1.980   8.673
 6761SOL     OW21034   3.761   3.172   8.730
 6761SOL    HW121035   3.814   3.123   8.798
 6761SOL    HW221036   3.783   3.270   8.735
 6762SOL     OW21037   4.031   1.925   8.066
 6762SOL    HW121038   4.020   2.019   8.099
 6762SOL    HW221039   4.026   1.862   8.143
 6763SOL     OW21040   4.074   2.760   9.252
 6763SOL    HW121041   4.150   2.804   9.300
 6763SOL    HW221042   4.109   2.713   9.170
 6764SOL     OW21043   4.043   2.672   8.397
 6764SOL    HW121044   4.136   2.708   8.402
 6764SOL    HW221045   4.037   2.587   8.449
 6765SOL     OW21046   4.063   2.371   8.454
 6765SOL    HW121047   4.011   2.288   8.437
 6765SOL    HW221048   4.140   2.376   8.390
 6766SOL     OW21049   3.732   3.188   7.648
 6766SOL    HW121050   3.639   3.209   7.617
 6766SOL    HW221051   3.742   3.089   7.661
 6767SOL     OW21052   3.812   3.663   8.375
 6767SOL    HW121053   3.770   3.577   8.348
 6767SOL    HW221054   3.906   3.666   8.341
 6768SOL     OW21055   4.228   3.430   8.358
 6768SOL    HW121056   4.294   3.504   8.367
 6768SOL    HW221057   4.272   3.351   8.316
 6769SOL     OW21058   3.764   2.406   8.562
 6769SOL    HW121059   3.849   2.373   8.521
 6769SOL    HW221060   3.777   2.421   8.660
 6770SOL     OW21061   3.913   2.382   9.170
 6770SOL    HW121062   3.972   2.342   9.100
 6770SOL    HW221063   3.855   2.453   9.129
 6771SOL     OW21064   4.539   2.434   7.773
 6771SOL    HW121065   4.546   2.345   7.727
 6771SOL    HW221066   4.445   2.468   7.765
 6772SOL     OW21067   3.976   3.426   9.192
 6772SOL    HW121068   3.946   3.483   9.268
 6772SOL    HW221069   3.969   3.329   9.218
 6773SOL     OW21070   4.197   2.362   7.639
 6773SOL    HW121071   4.258   2.442   7.643
 6773SOL    HW221072   4.102   2.393   7.646
 6774SOL     OW21073   3.883   2.999   8.914
 6774SOL    HW121074   3.905   2.938   8.990
 6774SOL    HW221075   3.893   2.950   8.828
 6775SOL     OW21076   3.807   3.120   8.470
 6775SOL    HW121077   3.802   3.119   8.570
 6775SOL    HW221078   3.724   3.079   8.432
 6776SOL     OW21079   4.412   3.524   9.164
 6776SOL    HW121080   4.356   3.605   9.173
 6776SOL    HW221081   4.464   3.528   9.078
 6777SOL     OW21082   3.854   3.656   9.299
 6777SOL    HW121083   3.813   3.582   9.352
 6777SOL    HW221084   3.918   3.707   9.357
 6778SOL     OW21085   3.987   2.188   8.168
 6778SOL    HW121086   3.908   2.239   8.134
 6778SOL    HW221087   3.978   2.173   8.266
 6779SOL     OW21088   4.096   3.150   8.938
 6779SOL    HW121089   4.083   3.243   8.904
 6779SOL    HW221090   4.012   3.098   8.925
 6780SOL     OW21091   4.314   3.349   7.939
 6780SOL    HW121092   4.356   3.291   7.869
 6780SOL    HW221093   4.270   3.428   7.895
 6781SOL     OW21094   3.979   3.210   7.738
 6781SOL    HW121095   3.883   3.211   7.711
 6781SOL    HW221096   3.991   3.263   7.822
 6782SOL     OW21097   3.829   2.875   9.174
 6782SOL    HW121098   3.752   2.842   9.228
 6782SOL    HW221099   3.914   2.845   9.216
 6783SOL     OW21100   4.396   2.065   8.937
 6783SOL    HW121101   4.486   2.049   8.897
 6783SOL    HW221102   4.404   2.070   9.036
 6784SOL     OW21103   3.799   2.207   7.481
 6784SOL    HW121104   3.707   2.179   7.452
 6784SOL    HW221105   3.830   2.284   7.425
 6785SOL     OW21106   3.796   2.028   7.766
 6785SOL    HW121107   3.779   2.111   7.712
 6785SOL    HW221108   3.886   1.991   7.744
 6786SOL     OW21109   4.337   2.704   8.879
 6786SOL    HW121110   4.393   2.785   8.862
 6786SOL    HW221111   4.396   2.624   8.882
 6787SOL     OW21112   4.440   2.427   9.156
 6787SOL    HW121113   4.459   2.492   9.230
 6787SOL    HW221114   4.500   2.347   9.165
 6788SOL     OW21115   4.114   3.603   9.008
 6788SOL    HW121116   4.023   3.644   9.006
 6788SOL    HW221117   4.107   3.509   9.040
 6789SOL     OW21118   4.318   2.607   8.100
 6789SOL    HW121119   4.368   2.692   8.081
 6789SOL    HW221120   4.230   2.609   8.052
 6790SOL     OW21121   3.945   3.176   9.292
 6790SOL    HW121122   3.880   3.103   9.271
 6790SOL    HW221123   3.949   3.190   9.390
 6791SOL     OW21124   3.803   3.102   8.101
 6791SOL    HW121125   3.802   3.055   8.189
 6791SOL    HW221126   3.885   3.074   8.050
 6792SOL     OW21127   4.396   3.253   9.072
 6792SOL    HW121128   4.318   3.203   9.110
 6792SOL    HW221129   4.393   3.348   9.103
 6793SOL     OW21130   4.152   2.286   7.968
 6793SOL    HW121131   4.182   2.214   7.906
 6793SOL    HW221132   4.113   2.246   8.051
 6794SOL     OW21133   4.041   2.409   8.728
 6794SOL    HW121134   4.079   2.350   8.800
 6794SOL    HW221135   4.081   2.383   8.640
 6795SOL     OW21136   4.536   3.448   8.135
 6795SOL    HW121137   4.568   3.458   8.041
 6795SOL    HW221138   4.457   3.386   8.137
 6796SOL     OW21139   3.763   2.939   7.748
 6796SOL    HW121140   3.862   2.928   7.739
 6796SOL    HW221141   3.723   2.853   7.780
 6797SOL     OW21142   3.954   2.490   9.423
 6797SOL    HW121143   3.861   2.488   9.460
 6797SOL    HW221144   3.955   2.451   9.331
 6798SOL     OW21145   3.949   2.137  10.306
 6798SOL    HW121146   3.984   2.120  10.398
 6798SOL    HW221147   3.861   2.092  10.294
 6799SOL     OW21148   3.743   2.230   9.957
 6799SOL    HW121149   3.661   2.273   9.996
 6799SOL    HW221150   3.715   2.157   9.894
 6800SOL     OW21151   4.293   3.137  10.475
 6800SOL    HW121152   4.200   3.130  10.438
 6800SOL    HW221153   4.304   3.226  10.519
 6801SOL     OW21154   4.574   2.660  11.133
 6801SOL    HW121155   4.570   2.736  11.198
 6801SOL    HW221156   4.596   2.696  11.042
 6802SOL     OW21157   4.409   2.874   9.975
 6802SOL    HW121158   4.478   2.858  10.045
 6802SOL    HW221159   4.336   2.931  10.013
 6803SOL     OW21160   4.059   3.297  10.371
 6803SOL    HW121161   3.981   3.266  10.318
 6803SOL    HW221162   4.117   3.355  10.314
 6804SOL     OW21163   4.162   2.254  10.809
 6804SOL    HW121164   4.244   2.198  10.818
 6804SOL    HW221165   4.081   2.196  10.813
 6805SOL     OW21166   3.955   3.575   9.793
 6805SOL    HW121167   3.989   3.652   9.847
 6805SOL    HW221168   3.999   3.575   9.703
 6806SOL     OW21169   3.954   3.296   9.848
 6806SOL    HW121170   3.928   3.392   9.848
 6806SOL    HW221171   3.883   3.242   9.893
 6807SOL     OW21172   3.964   2.953  10.196
 6807SOL    HW121173   3.978   2.869  10.248
 6807SOL    HW221174   3.909   3.017  10.251
 6808SOL     OW21175   4.344   3.648  10.749
 6808SOL    HW121176   4.252   3.631  10.784
 6808SOL    HW221177   4.372   3.740  10.775
 6809SOL     OW21178   4.330   2.826   9.433
 6809SOL    HW121179   4.337   2.910   9.379
 6809SOL    HW221180   4.376   2.839   9.521
 6810SOL     OW21181   3.846   2.505   9.873
 6810SOL    HW121182   3.801   2.417   9.890
 6810SOL    HW221183   3.845   2.559   9.957
 6811SOL     OW21184   3.751   3.458   9.427
 6811SOL    HW121185   3.732   3.362   9.448
 6811SOL    HW221186   3.718   3.516   9.502
 6812SOL     OW21187   3.837   2.599  10.907
 6812SOL    HW121188   3.925   2.586  10.952
 6812SOL    HW221189   3.824   2.696  10.885
 6813SOL     OW21190   4.337   3.227  10.036
 6813SOL    HW121191   4.288   3.140  10.045
 6813SOL    HW221192   4.314   3.270   9.949
 6814SOL     OW21193   4.533   1.866   9.812
 6814SOL    HW121194   4.573   1.957   9.803
 6814SOL    HW221195   4.433   1.874   9.818
 6815SOL     OW21196   3.921   2.838  10.574
 6815SOL    HW121197   4.010   2.793  10.560
 6815SOL    HW221198   3.848   2.773  10.555
 6816SOL     OW21199   4.041   2.113  11.111
 6816SOL    HW121200   4.112   2.184  11.117
 6816SOL    HW221201   3.953   2.152  11.139
 6817SOL     OW21202   4.322   2.591   9.580
 6817SOL    HW121203   4.346   2.660   9.512
 6817SOL    HW221204   4.244   2.624   9.634
 6818SOL     OW21205   3.800   2.673  10.099
 6818SOL    HW121206   3.899   2.661  10.108
 6818SOL    HW221207   3.776   2.768  10.120
 6819SOL     OW21208   3.854   3.683  10.881
 6819SOL    HW121209   3.844   3.668  10.980
 6819SOL    HW221210   3.768   3.719  10.845
 6820SOL     OW21211   4.274   2.058  10.195
 6820SOL    HW121212   4.269   2.053  10.295
 6820SOL    HW221213   4.276   2.154  10.166
 6821SOL     OW21214   4.075   3.663  10.163
 6821SOL    HW121215   4.125   3.577  10.169
 6821SOL    HW221216   4.140   3.740  10.160
 6822SOL     OW21217   4.045   2.805   9.552
 6822SOL    HW121218   4.127   2.844   9.510
 6822SOL    HW221219   4.018   2.723   9.503
 6823SOL     OW21220   4.185   3.128  11.037
 6823SOL    HW121221   4.135   3.129  10.951
 6823SOL    HW221222   4.122   3.110  11.113
 6824SOL     OW21223   3.926   2.147  10.808
 6824SOL    HW121224   3.846   2.207  10.795
 6824SOL    HW221225   3.916   2.098  10.894
 6825SOL     OW21226   4.188   3.605   9.633
 6825SOL    HW121227   4.221   3.644   9.719
 6825SOL    HW221228   4.264   3.598   9.568
 6826SOL     OW21229   3.973   3.647  10.551
 6826SOL    HW121230   4.030   3.582  10.601
 6826SOL    HW221231   3.957   3.614  10.458
 6827SOL     OW21232   4.106   2.562   9.790
 6827SOL    HW121233   4.151   2.472   9.787
 6827SOL    HW221234   4.012   2.551   9.823
 6828SOL     OW21235   4.338   1.984   9.427
 6828SOL    HW121236   4.436   1.962   9.434
 6828SOL    HW221237   4.307   1.967   9.334
 6829SOL     OW21238   4.527   3.264  10.234
 6829SOL    HW121239   4.617   3.278  10.192
 6829SOL    HW221240   4.456   3.266  10.163
 6830SOL     OW21241   4.263   1.926   9.822
 6830SOL    HW121242   4.182   1.927   9.880
 6830SOL    HW221243   4.266   2.009   9.767
 6831SOL     OW21244   4.021   1.897   9.481
 6831SOL    HW121245   4.070   1.981   9.460
 6831SOL    HW221246   4.083   1.832   9.526
 6832SOL     OW21247   4.800   2.545  10.774
 6832SOL    HW121248   4.720   2.484  10.777
 6832SOL    HW221249   4.881   2.492  10.750
 6833SOL     OW21250   4.183   3.014  10.051
 6833SOL    HW121251   4.112   2.987  10.116
 6833SOL    HW221252   4.157   2.986   9.958
 6834SOL     OW21253   3.802   2.418  10.696
 6834SOL    HW121254   3.894   2.417  10.655
 6834SOL    HW221255   3.796   2.492  10.763
 6835SOL     OW21256   4.285   2.084  10.457
 6835SOL    HW121257   4.323   2.000  10.494
 6835SOL    HW221258   4.197   2.103  10.501
 6836SOL     OW21259   4.212   3.247   9.484
 6836SOL    HW121260   4.125   3.232   9.531
 6836SOL    HW221261   4.195   3.273   9.389
 6837SOL     OW21262   4.251   2.118   9.638
 6837SOL    HW121263   4.278   2.059   9.563
 6837SOL    HW221264   4.251   2.213   9.607
 6838SOL     OW21265   4.134   2.675  10.561
 6838SOL    HW121266   4.220   2.687  10.611
 6838SOL    HW221267   4.092   2.588  10.588
 6839SOL     OW21268   3.788   3.426  10.641
 6839SOL    HW121269   3.742   3.508  10.607
 6839SOL    HW221270   3.886   3.445  10.650
 6840SOL     OW21271   4.091   2.962   9.811
 6840SOL    HW121272   4.084   3.045   9.755
 6840SOL    HW221273   4.095   2.882   9.751
 6841SOL     OW21274   4.290   2.399  10.175
 6841SOL    HW121275   4.302   2.465  10.101
 6841SOL    HW221276   4.336   2.433  10.258
 6842SOL     OW21277   4.078   3.372  10.639
 6842SOL    HW121278   4.057   3.328  10.552
 6842SOL    HW221279   4.175   3.398  10.642
 6843SOL     OW21280   4.126   2.613  10.908
 6843SOL    HW121281   4.194   2.668  10.861
 6843SOL    HW221282   4.166   2.525  10.935
 6844SOL     OW21283   4.297   2.732  10.339
 6844SOL    HW121284   4.341   2.821  10.330
 6844SOL    HW221285   4.234   2.732  10.416
 6845SOL     OW21286   4.031   2.075  10.541
 6845SOL    HW121287   4.008   2.112  10.631
 6845SOL    HW221288   4.001   1.980  10.535
 6846SOL     OW21289   3.761   3.172  10.592
 6846SOL    HW121290   3.814   3.123  10.660
 6846SOL    HW221291   3.783   3.270  10.597
 6847SOL     OW21292   4.031   1.925   9.928
 6847SOL    HW121293   4.020   2.019   9.961
 6847SOL    HW221294   4.026   1.862  10.005
 6848SOL     OW21295   4.074   2.760  11.114
 6848SOL    HW121296   4.150   2.804  11.162
 6848SOL    HW221297   4.109   2.713  11.032
 6849SOL     OW21298   4.043   2.672  10.259
 6849SOL    HW121299   4.136   2.708  10.264
 6849SOL    HW221300   4.037   2.587  10.311
 6850SOL     OW21301   4.063   2.371  10.316
 6850SOL    HW121302   4.011   2.288  10.299
 6850SOL    HW221303   4.140   2.376  10.252
 6851SOL     OW21304   3.732   3.188   9.510
 6851SOL    HW121305   3.639   3.209   9.479
 6851SOL    HW221306   3.742   3.089   9.523
 6852SOL     OW21307   3.812   3.663  10.237
 6852SOL    HW121308   3.770   3.577  10.210
 6852SOL    HW221309   3.906   3.666  10.203
 6853SOL     OW21310   4.228   3.430  10.220
 6853SOL    HW121311   4.294   3.504  10.229
 6853SOL    HW221312   4.272   3.351  10.178
 6854SOL     OW21313   3.764   2.406  10.424
 6854SOL    HW121314   3.849   2.373  10.383
 6854SOL    HW221315   3.777   2.421  10.522
 6855SOL     OW21316   4.539   2.434   9.635
 6855SOL    HW121317   4.546   2.345   9.589
 6855SOL    HW221318   4.445   2.468   9.627
 6856SOL     OW21319   3.976   3.426  11.054
 6856SOL    HW121320   3.946   3.483  11.130
 6856SOL    HW221321   3.969   3.329  11.080
 6857SOL     OW21322   4.197   2.362   9.501
 6857SOL    HW121323   4.258   2.442   9.505
 6857SOL    HW221324   4.102   2.393   9.508
 6858SOL     OW21325   3.883   2.999  10.776
 6858SOL    HW121326   3.905   2.938  10.852
 6858SOL    HW221327   3.893   2.950  10.690
 6859SOL     OW21328   3.807   3.120  10.332
 6859SOL    HW121329   3.802   3.119  10.432
 6859SOL    HW221330   3.724   3.079  10.294
 6860SOL     OW21331   4.412   3.524  11.026
 6860SOL    HW121332   4.356   3.605  11.035
 6860SOL    HW221333   4.464   3.528  10.940
 6861SOL     OW21334   3.987   2.188  10.030
 6861SOL    HW121335   3.908   2.239   9.996
 6861SOL    HW221336   3.978   2.173  10.128
 6862SOL     OW21337   4.096   3.150  10.800
 6862SOL    HW121338   4.083   3.243  10.766
 6862SOL    HW221339   4.012   3.098  10.787
 6863SOL     OW21340   4.314   3.349   9.801
 6863SOL    HW121341   4.356   3.291   9.731
 6863SOL    HW221342   4.270   3.428   9.757
 6864SOL     OW21343   3.979   3.210   9.600
 6864SOL    HW121344   3.883   3.211   9.573
 6864SOL    HW221345   3.991   3.263   9.684
 6865SOL     OW21346   3.829   2.875  11.036
 6865SOL    HW121347   3.752   2.842  11.090
 6865SOL    HW221348   3.914   2.845  11.078
 6866SOL     OW21349   4.396   2.065  10.799
 6866SOL    HW121350   4.486   2.049  10.759
 6866SOL    HW221351   4.404   2.070  10.898
 6867SOL     OW21352   3.799   2.207   9.343
 6867SOL    HW121353   3.707   2.179   9.314
 6867SOL    HW221354   3.830   2.284   9.287
 6868SOL     OW21355   3.796   2.028   9.628
 6868SOL    HW121356   3.779   2.111   9.574
 6868SOL    HW221357   3.886   1.991   9.606
 6869SOL     OW21358   4.337   2.704  10.741
 6869SOL    HW121359   4.393   2.785  10.724
 6869SOL    HW221360   4.396   2.624  10.744
 6870SOL     OW21361   4.114   3.603  10.870
 6870SOL    HW121362   4.023   3.644  10.868
 6870SOL    HW221363   4.107   3.509  10.902
 6871SOL     OW21364   4.318   2.607   9.962
 6871SOL    HW121365   4.368   2.692   9.943
 6871SOL    HW221366   4.230   2.609   9.914
 6872SOL     OW21367   3.803   3.102   9.963
 6872SOL    HW121368   3.802   3.055  10.051
 6872SOL    HW221369   3.885   3.074   9.912
 6873SOL     OW21370   4.396   3.253  10.934
 6873SOL    HW121371   4.318   3.203  10.972
 6873SOL    HW221372   4.393   3.348  10.965
 6874SOL     OW21373   4.152   2.286   9.830
 6874SOL    HW121374   4.182   2.214   9.768
 6874SOL    HW221375   4.113   2.246   9.913
 6875SOL     OW21376   4.041   2.409  10.590
 6875SOL    HW121377   4.079   2.350  10.662
 6875SOL    HW221378   4.081   2.383  10.502
 6876SOL     OW21379   4.536   3.448   9.997
 6876SOL    HW121380   4.568   3.458   9.903
 6876SOL    HW221381   4.457   3.386   9.999
 6877SOL     OW21382   3.763   2.939   9.610
 6877SOL    HW121383   3.862   2.928   9.601
 6877SOL    HW221384   3.723   2.853   9.642
 6878SOL     OW21385   3.954   4.352   0.113
 6878SOL    HW121386   3.861   4.350   0.150
 6878SOL    HW221387   3.955   4.313   0.021
 6879SOL     OW21388   3.949   3.999   0.996
 6879SOL    HW121389   3.984   3.982   1.088
 6879SOL    HW221390   3.861   3.954   0.984
 6880SOL     OW21391   3.743   4.092   0.647
 6880SOL    HW121392   3.661   4.135   0.686
 6880SOL    HW221393   3.715   4.019   0.584
 6881SOL     OW21394   4.574   4.522   1.823
 6881SOL    HW121395   4.570   4.598   1.888
 6881SOL    HW221396   4.596   4.558   1.732
 6882SOL     OW21397   4.162   4.116   1.499
 6882SOL    HW121398   4.244   4.060   1.508
 6882SOL    HW221399   4.081   4.058   1.503
 6883SOL     OW21400   3.846   4.367   0.563
 6883SOL    HW121401   3.801   4.279   0.580
 6883SOL    HW221402   3.845   4.421   0.647
 6884SOL     OW21403   3.837   4.461   1.597
 6884SOL    HW121404   3.925   4.448   1.642
 6884SOL    HW221405   3.824   4.558   1.575
 6885SOL     OW21406   4.533   3.728   0.502
 6885SOL    HW121407   4.573   3.819   0.493
 6885SOL    HW221408   4.433   3.736   0.508
 6886SOL     OW21409   4.041   3.975   1.801
 6886SOL    HW121410   4.112   4.046   1.807
 6886SOL    HW221411   3.953   4.014   1.829
 6887SOL     OW21412   4.274   3.920   0.885
 6887SOL    HW121413   4.269   3.915   0.985
 6887SOL    HW221414   4.276   4.016   0.856
 6888SOL     OW21415   3.926   4.009   1.498
 6888SOL    HW121416   3.846   4.069   1.485
 6888SOL    HW221417   3.916   3.960   1.584
 6889SOL     OW21418   4.106   4.424   0.480
 6889SOL    HW121419   4.151   4.334   0.477
 6889SOL    HW221420   4.012   4.413   0.513
 6890SOL     OW21421   4.338   3.846   0.117
 6890SOL    HW121422   4.436   3.824   0.124
 6890SOL    HW221423   4.307   3.829   0.024
 6891SOL     OW21424   4.263   3.788   0.512
 6891SOL    HW121425   4.182   3.789   0.570
 6891SOL    HW221426   4.266   3.871   0.457
 6892SOL     OW21427   4.021   3.759   0.171
 6892SOL    HW121428   4.070   3.843   0.150
 6892SOL    HW221429   4.083   3.694   0.216
 6893SOL     OW21430   4.800   4.407   1.464
 6893SOL    HW121431   4.720   4.346   1.467
 6893SOL    HW221432   4.881   4.354   1.440
 6894SOL     OW21433   3.802   4.280   1.386
 6894SOL    HW121434   3.894   4.279   1.345
 6894SOL    HW221435   3.796   4.354   1.453
 6895SOL     OW21436   4.285   3.946   1.147
 6895SOL    HW121437   4.323   3.862   1.184
 6895SOL    HW221438   4.197   3.965   1.191
 6896SOL     OW21439   4.251   3.980   0.328
 6896SOL    HW121440   4.278   3.921   0.253
 6896SOL    HW221441   4.251   4.075   0.297
 6897SOL     OW21442   4.134   4.537   1.251
 6897SOL    HW121443   4.220   4.549   1.301
 6897SOL    HW221444   4.092   4.450   1.278
 6898SOL     OW21445   4.290   4.261   0.865
 6898SOL    HW121446   4.302   4.327   0.791
 6898SOL    HW221447   4.336   4.295   0.948
 6899SOL     OW21448   4.228   3.774   1.740
 6899SOL    HW121449   4.186   3.717   1.670
 6899SOL    HW221450   4.162   3.843   1.772
 6900SOL     OW21451   4.031   3.937   1.231
 6900SOL    HW121452   4.008   3.974   1.321
 6900SOL    HW221453   4.001   3.842   1.225
 6901SOL     OW21454   4.031   3.787   0.618
 6901SOL    HW121455   4.020   3.881   0.651
 6901SOL    HW221456   4.026   3.724   0.695
 6902SOL     OW21457   4.043   4.534   0.949
 6902SOL    HW121458   4.136   4.570   0.954
 6902SOL    HW221459   4.037   4.449   1.001
 6903SOL     OW21460   4.063   4.233   1.006
 6903SOL    HW121461   4.011   4.150   0.989
 6903SOL    HW221462   4.140   4.238   0.942
 6904SOL     OW21463   3.764   4.268   1.114
 6904SOL    HW121464   3.849   4.235   1.073
 6904SOL    HW221465   3.777   4.283   1.212
 6905SOL     OW21466   3.913   4.244   1.722
 6905SOL    HW121467   3.972   4.204   1.652
 6905SOL    HW221468   3.855   4.315   1.681
 6906SOL     OW21469   4.539   4.296   0.325
 6906SOL    HW121470   4.546   4.207   0.279
 6906SOL    HW221471   4.445   4.330   0.317
 6907SOL     OW21472   4.197   4.224   0.191
 6907SOL    HW121473   4.258   4.304   0.195
 6907SOL    HW221474   4.102   4.255   0.198
 6908SOL     OW21475   3.987   4.050   0.720
 6908SOL    HW121476   3.908   4.101   0.686
 6908SOL    HW221477   3.978   4.035   0.818
 6909SOL     OW21478   4.396   3.927   1.489
 6909SOL    HW121479   4.486   3.911   1.449
 6909SOL    HW221480   4.404   3.932   1.588
 6910SOL     OW21481   3.799   4.069   0.033
 6910SOL    HW121482   3.707   4.041   0.004
 6910SOL    HW221483   3.830   4.146  -0.023
 6911SOL     OW21484   3.796   3.890   0.318
 6911SOL    HW121485   3.779   3.973   0.264
 6911SOL    HW221486   3.886   3.853   0.296
 6912SOL     OW21487   4.440   4.289   1.708
 6912SOL    HW121488   4.459   4.354   1.782
 6912SOL    HW221489   4.500   4.209   1.717
 6913SOL     OW21490   4.152   4.148   0.520
 6913SOL    HW121491   4.182   4.076   0.458
 6913SOL    HW221492   4.113   4.108   0.603
 6914SOL     OW21493   4.041   4.271   1.280
 6914SOL    HW121494   4.079   4.212   1.352
 6914SOL    HW221495   4.081   4.245   1.192
 6915SOL     OW21496   3.954   4.352   1.975
 6915SOL    HW121497   3.861   4.350   2.012
 6915SOL    HW221498   3.955   4.313   1.883
 6916SOL     OW21499   3.949   3.999   2.858
 6916SOL    HW121500   3.984   3.982   2.950
 6916SOL    HW221501   3.861   3.954   2.846
 6917SOL     OW21502   3.743   4.092   2.509
 6917SOL    HW121503   3.661   4.135   2.548
 6917SOL    HW221504   3.715   4.019   2.446
 6918SOL     OW21505   4.574   4.522   3.685
 6918SOL    HW121506   4.570   4.598   3.750
 6918SOL    HW221507   4.596   4.558   3.594
 6919SOL     OW21508   4.162   4.116   3.361
 6919SOL    HW121509   4.244   4.060   3.370
 6919SOL    HW221510   4.081   4.058   3.365
 6920SOL     OW21511   3.846   4.367   2.425
 6920SOL    HW121512   3.801   4.279   2.442
 6920SOL    HW221513   3.845   4.421   2.509
 6921SOL     OW21514   3.837   4.461   3.459
 6921SOL    HW121515   3.925   4.448   3.504
 6921SOL    HW221516   3.824   4.558   3.437
 6922SOL     OW21517   4.533   3.728   2.364
 6922SOL    HW121518   4.573   3.819   2.355
 6922SOL    HW221519   4.433   3.736   2.370
 6923SOL     OW21520   4.041   3.975   3.663
 6923SOL    HW121521   4.112   4.046   3.669
 6923SOL    HW221522   3.953   4.014   3.691
 6924SOL     OW21523   4.274   3.920   2.747
 6924SOL    HW121524   4.269   3.915   2.847
 6924SOL    HW221525   4.276   4.016   2.718
 6925SOL     OW21526   3.926   4.009   3.360
 6925SOL    HW121527   3.846   4.069   3.347
 6925SOL    HW221528   3.916   3.960   3.446
 6926SOL     OW21529   4.106   4.424   2.342
 6926SOL    HW121530   4.151   4.334   2.339
 6926SOL    HW221531   4.012   4.413   2.375
 6927SOL     OW21532   4.338   3.846   1.979
 6927SOL    HW121533   4.436   3.824   1.986
 6927SOL    HW221534   4.307   3.829   1.886
 6928SOL     OW21535   4.263   3.788   2.374
 6928SOL    HW121536   4.182   3.789   2.432
 6928SOL    HW221537   4.266   3.871   2.319
 6929SOL     OW21538   4.021   3.759   2.033
 6929SOL    HW121539   4.070   3.843   2.012
 6929SOL    HW221540   4.083   3.694   2.078
 6930SOL     OW21541   4.800   4.407   3.326
 6930SOL    HW121542   4.720   4.346   3.329
 6930SOL    HW221543   4.881   4.354   3.302
 6931SOL     OW21544   3.802   4.280   3.248
 6931SOL    HW121545   3.894   4.279   3.207
 6931SOL    HW221546   3.796   4.354   3.315
 6932SOL     OW21547   4.285   3.946   3.009
 6932SOL    HW121548   4.323   3.862   3.046
 6932SOL    HW221549   4.197   3.965   3.053
 6933SOL     OW21550   4.251   3.980   2.190
 6933SOL    HW121551   4.278   3.921   2.115
 6933SOL    HW221552   4.251   4.075   2.159
 6934SOL     OW21553   4.134   4.537   3.113
 6934SOL    HW121554   4.220   4.549   3.163
 6934SOL    HW221555   4.092   4.450   3.140
 6935SOL     OW21556   4.290   4.261   2.727
 6935SOL    HW121557   4.302   4.327   2.653
 6935SOL    HW221558   4.336   4.295   2.810
 6936SOL     OW21559   4.228   3.774   3.602
 6936SOL    HW121560   4.186   3.717   3.532
 6936SOL    HW221561   4.162   3.843   3.634
 6937SOL     OW21562   4.031   3.937   3.093
 6937SOL    HW121563   4.008   3.974   3.183
 6937SOL    HW221564   4.001   3.842   3.087
 6938SOL     OW21565   4.031   3.787   2.480
 6938SOL    HW121566   4.020   3.881   2.513
 6938SOL    HW221567   4.026   3.724   2.557
 6939SOL     OW21568   4.043   4.534   2.811
 6939SOL    HW121569   4.136   4.570   2.816
 6939SOL    HW221570   4.037   4.449   2.863
 6940SOL     OW21571   4.063   4.233   2.868
 6940SOL    HW121572   4.011   4.150   2.851
 6940SOL    HW221573   4.140   4.238   2.804
 6941SOL     OW21574   3.764   4.268   2.976
 6941SOL    HW121575   3.849   4.235   2.935
 6941SOL    HW221576   3.777   4.283   3.074
 6942SOL     OW21577   3.913   4.244   3.584
 6942SOL    HW121578   3.972   4.204   3.514
 6942SOL    HW221579   3.855   4.315   3.543
 6943SOL     OW21580   4.539   4.296   2.187
 6943SOL    HW121581   4.546   4.207   2.141
 6943SOL    HW221582   4.445   4.330   2.179
 6944SOL     OW21583   4.197   4.224   2.053
 6944SOL    HW121584   4.258   4.304   2.057
 6944SOL    HW221585   4.102   4.255   2.060
 6945SOL     OW21586   3.987   4.050   2.582
 6945SOL    HW121587   3.908   4.101   2.548
 6945SOL    HW221588   3.978   4.035   2.680
 6946SOL     OW21589   4.396   3.927   3.351
 6946SOL    HW121590   4.486   3.911   3.311
 6946SOL    HW221591   4.404   3.932   3.450
 6947SOL     OW21592   3.799   4.069   1.895
 6947SOL    HW121593   3.707   4.041   1.866
 6947SOL    HW221594   3.830   4.146   1.839
 6948SOL     OW21595   3.796   3.890   2.180
 6948SOL    HW121596   3.779   3.973   2.126
 6948SOL    HW221597   3.886   3.853   2.158
 6949SOL     OW21598   4.440   4.289   3.570
 6949SOL    HW121599   4.459   4.354   3.644
 6949SOL    HW221600   4.500   4.209   3.579
 6950SOL     OW21601   4.152   4.148   2.382
 6950SOL    HW121602   4.182   4.076   2.320
 6950SOL    HW221603   4.113   4.108   2.465
 6951SOL     OW21604   4.041   4.271   3.142
 6951SOL    HW121605   4.079   4.212   3.214
 6951SOL    HW221606   4.081   4.245   3.054
 6952SOL     OW21607   3.954   4.352   3.837
 6952SOL    HW121608   3.861   4.350   3.874
 6952SOL    HW221609   3.955   4.313   3.745
 6953SOL     OW21610   3.949   3.999   4.720
 6953SOL    HW121611   3.984   3.982   4.812
 6953SOL    HW221612   3.861   3.954   4.708
 6954SOL     OW21613   3.743   4.092   4.371
 6954SOL    HW121614   3.661   4.135   4.410
 6954SOL    HW221615   3.715   4.019   4.308
 6955SOL     OW21616   4.574   4.522   5.547
 6955SOL    HW121617   4.570   4.598   5.612
 6955SOL    HW221618   4.596   4.558   5.456
 6956SOL     OW21619   4.162   4.116   5.223
 6956SOL    HW121620   4.244   4.060   5.232
 6956SOL    HW221621   4.081   4.058   5.227
 6957SOL     OW21622   3.846   4.367   4.287
 6957SOL    HW121623   3.801   4.279   4.304
 6957SOL    HW221624   3.845   4.421   4.371
 6958SOL     OW21625   3.837   4.461   5.321
 6958SOL    HW121626   3.925   4.448   5.366
 6958SOL    HW221627   3.824   4.558   5.299
 6959SOL     OW21628   4.533   3.728   4.226
 6959SOL    HW121629   4.573   3.819   4.217
 6959SOL    HW221630   4.433   3.736   4.232
 6960SOL     OW21631   4.041   3.975   5.525
 6960SOL    HW121632   4.112   4.046   5.531
 6960SOL    HW221633   3.953   4.014   5.553
 6961SOL     OW21634   4.274   3.920   4.609
 6961SOL    HW121635   4.269   3.915   4.709
 6961SOL    HW221636   4.276   4.016   4.580
 6962SOL     OW21637   3.926   4.009   5.222
 6962SOL    HW121638   3.846   4.069   5.209
 6962SOL    HW221639   3.916   3.960   5.308
 6963SOL     OW21640   4.106   4.424   4.204
 6963SOL    HW121641   4.151   4.334   4.201
 6963SOL    HW221642   4.012   4.413   4.237
 6964SOL     OW21643   4.338   3.846   3.841
 6964SOL    HW121644   4.436   3.824   3.848
 6964SOL    HW221645   4.307   3.829   3.748
 6965SOL     OW21646   4.263   3.788   4.236
 6965SOL    HW121647   4.182   3.789   4.294
 6965SOL    HW221648   4.266   3.871   4.181
 6966SOL     OW21649   4.021   3.759   3.895
 6966SOL    HW121650   4.070   3.843   3.874
 6966SOL    HW221651   4.083   3.694   3.940
 6967SOL     OW21652   4.800   4.407   5.188
 6967SOL    HW121653   4.720   4.346   5.191
 6967SOL    HW221654   4.881   4.354   5.164
 6968SOL     OW21655   3.802   4.280   5.110
 6968SOL    HW121656   3.894   4.279   5.069
 6968SOL    HW221657   3.796   4.354   5.177
 6969SOL     OW21658   4.285   3.946   4.871
 6969SOL    HW121659   4.323   3.862   4.908
 6969SOL    HW221660   4.197   3.965   4.915
 6970SOL     OW21661   4.251   3.980   4.052
 6970SOL    HW121662   4.278   3.921   3.977
 6970SOL    HW221663   4.251   4.075   4.021
 6971SOL     OW21664   4.134   4.537   4.975
 6971SOL    HW121665   4.220   4.549   5.025
 6971SOL    HW221666   4.092   4.450   5.002
 6972SOL     OW21667   4.290   4.261   4.589
 6972SOL    HW121668   4.302   4.327   4.515
 6972SOL    HW221669   4.336   4.295   4.672
 6973SOL     OW21670   4.228   3.774   5.464
 6973SOL    HW121671   4.186   3.717   5.394
 6973SOL    HW221672   4.162   3.843   5.496
 6974SOL     OW21673   4.031   3.937   4.955
 6974SOL    HW121674   4.008   3.974   5.045
 6974SOL    HW221675   4.001   3.842   4.949
 6975SOL     OW21676   4.031   3.787   4.342
 6975SOL    HW121677   4.020   3.881   4.375
 6975SOL    HW221678   4.026   3.724   4.419
 6976SOL     OW21679   4.043   4.534   4.673
 6976SOL    HW121680   4.136   4.570   4.678
 6976SOL    HW221681   4.037   4.449   4.725
 6977SOL     OW21682   4.063   4.233   4.730
 6977SOL    HW121683   4.011   4.150   4.713
 6977SOL    HW221684   4.140   4.238   4.666
 6978SOL     OW21685   3.764   4.268   4.838
 6978SOL    HW121686   3.849   4.235   4.797
 6978SOL    HW221687   3.777   4.283   4.936
 6979SOL     OW21688   3.913   4.244   5.446
 6979SOL    HW121689   3.972   4.204   5.376
 6979SOL    HW221690   3.855   4.315   5.405
 6980SOL     OW21691   4.539   4.296   4.049
 6980SOL    HW121692   4.546   4.207   4.003
 6980SOL    HW221693   4.445   4.330   4.041
 6981SOL     OW21694   4.197   4.224   3.915
 6981SOL    HW121695   4.258   4.304   3.919
 6981SOL    HW221696   4.102   4.255   3.922
 6982SOL     OW21697   3.987   4.050   4.444
 6982SOL    HW121698   3.908   4.101   4.410
 6982SOL    HW221699   3.978   4.035   4.542
 6983SOL     OW21700   4.396   3.927   5.213
 6983SOL    HW121701   4.486   3.911   5.173
 6983SOL    HW221702   4.404   3.932   5.312
 6984SOL     OW21703   3.799   4.069   3.757
 6984SOL    HW121704   3.707   4.041   3.728
 6984SOL    HW221705   3.830   4.146   3.701
 6985SOL     OW21706   3.796   3.890   4.042
 6985SOL    HW121707   3.779   3.973   3.988
 6985SOL    HW221708   3.886   3.853   4.020
 6986SOL     OW21709   4.440   4.289   5.432
 6986SOL    HW121710   4.459   4.354   5.506
 6986SOL    HW221711   4.500   4.209   5.441
 6987SOL     OW21712   4.152   4.148   4.244
 6987SOL    HW121713   4.182   4.076   4.182
 6987SOL    HW221714   4.113   4.108   4.327
 6988SOL     OW21715   4.041   4.271   5.004
 6988SOL    HW121716   4.079   4.212   5.076
 6988SOL    HW221717   4.081   4.245   4.916
 6989SOL     OW21718   3.954   4.352   5.699
 6989SOL    HW121719   3.861   4.350   5.736
 6989SOL    HW221720   3.955   4.313   5.607
 6990SOL     OW21721   3.949   3.999   6.582
 6990SOL    HW121722   3.984   3.982   6.674
 6990SOL    HW221723   3.861   3.954   6.570
 6991SOL     OW21724   3.743   4.092   6.233
 6991SOL    HW121725   3.661   4.135   6.272
 6991SOL    HW221726   3.715   4.019   6.170
 6992SOL     OW21727   4.574   4.522   7.409
 6992SOL    HW121728   4.570   4.598   7.474
 6992SOL    HW221729   4.596   4.558   7.318
 6993SOL     OW21730   4.162   4.116   7.085
 6993SOL    HW121731   4.244   4.060   7.094
 6993SOL    HW221732   4.081   4.058   7.089
 6994SOL     OW21733   3.846   4.367   6.149
 6994SOL    HW121734   3.801   4.279   6.166
 6994SOL    HW221735   3.845   4.421   6.233
 6995SOL     OW21736   3.837   4.461   7.183
 6995SOL    HW121737   3.925   4.448   7.228
 6995SOL    HW221738   3.824   4.558   7.161
 6996SOL     OW21739   4.533   3.728   6.088
 6996SOL    HW121740   4.573   3.819   6.079
 6996SOL    HW221741   4.433   3.736   6.094
 6997SOL     OW21742   4.041   3.975   7.387
 6997SOL    HW121743   4.112   4.046   7.393
 6997SOL    HW221744   3.953   4.014   7.415
 6998SOL     OW21745   4.274   3.920   6.471
 6998SOL    HW121746   4.269   3.915   6.571
 6998SOL    HW221747   4.276   4.016   6.442
 6999SOL     OW21748   3.926   4.009   7.084
 6999SOL    HW121749   3.846   4.069   7.071
 6999SOL    HW221750   3.916   3.960   7.170
 7000SOL     OW21751   4.106   4.424   6.066
 7000SOL    HW121752   4.151   4.334   6.063
 7000SOL    HW221753   4.012   4.413   6.099
 7001SOL     OW21754   4.338   3.846   5.703
 7001SOL    HW121755   4.436   3.824   5.710
 7001SOL    HW221756   4.307   3.829   5.610
 7002SOL     OW21757   4.263   3.788   6.098
 7002SOL    HW121758   4.182   3.789   6.156
 7002SOL    HW221759   4.266   3.871   6.043
 7003SOL     OW21760   4.021   3.759   5.757
 7003SOL    HW121761   4.070   3.843   5.736
 7003SOL    HW221762   4.083   3.694   5.802
 7004SOL     OW21763   4.800   4.407   7.050
 7004SOL    HW121764   4.720   4.346   7.053
 7004SOL    HW221765   4.881   4.354   7.026
 7005SOL     OW21766   3.802   4.280   6.972
 7005SOL    HW121767   3.894   4.279   6.931
 7005SOL    HW221768   3.796   4.354   7.039
 7006SOL     OW21769   4.285   3.946   6.733
 7006SOL    HW121770   4.323   3.862   6.770
 7006SOL    HW221771   4.197   3.965   6.777
 7007SOL     OW21772   4.251   3.980   5.914
 7007SOL    HW121773   4.278   3.921   5.839
 7007SOL    HW221774   4.251   4.075   5.883
 7008SOL     OW21775   4.134   4.537   6.837
 7008SOL    HW121776   4.220   4.549   6.887
 7008SOL    HW221777   4.092   4.450   6.864
 7009SOL     OW21778   4.290   4.261   6.451
 7009SOL    HW121779   4.302   4.327   6.377
 7009SOL    HW221780   4.336   4.295   6.534
 7010SOL     OW21781   4.228   3.774   7.326
 7010SOL    HW121782   4.186   3.717   7.256
 7010SOL    HW221783   4.162   3.843   7.358
 7011SOL     OW21784   4.031   3.937   6.817
 7011SOL    HW121785   4.008   3.974   6.907
 7011SOL    HW221786   4.001   3.842   6.811
 7012SOL     OW21787   4.031   3.787   6.204
 7012SOL    HW121788   4.020   3.881   6.237
 7012SOL    HW221789   4.026   3.724   6.281
 7013SOL     OW21790   4.043   4.534   6.535
 7013SOL    HW121791   4.136   4.570   6.540
 7013SOL    HW221792   4.037   4.449   6.587
 7014SOL     OW21793   4.063   4.233   6.592
 7014SOL    HW121794   4.011   4.150   6.575
 7014SOL    HW221795   4.140   4.238   6.528
 7015SOL     OW21796   3.764   4.268   6.700
 7015SOL    HW121797   3.849   4.235   6.659
 7015SOL    HW221798   3.777   4.283   6.798
 7016SOL     OW21799   3.913   4.244   7.308
 7016SOL    HW121800   3.972   4.204   7.238
 7016SOL    HW221801   3.855   4.315   7.267
 7017SOL     OW21802   4.539   4.296   5.911
 7017SOL    HW121803   4.546   4.207   5.865
 7017SOL    HW221804   4.445   4.330   5.903
 7018SOL     OW21805   4.197   4.224   5.777
 7018SOL    HW121806   4.258   4.304   5.781
 7018SOL    HW221807   4.102   4.255   5.784
 7019SOL     OW21808   3.987   4.050   6.306
 7019SOL    HW121809   3.908   4.101   6.272
 7019SOL    HW221810   3.978   4.035   6.404
 7020SOL     OW21811   4.396   3.927   7.075
 7020SOL    HW121812   4.486   3.911   7.035
 7020SOL    HW221813   4.404   3.932   7.174
 7021SOL     OW21814   3.799   4.069   5.619
 7021SOL    HW121815   3.707   4.041   5.590
 7021SOL    HW221816   3.830   4.146   5.563
 7022SOL     OW21817   3.796   3.890   5.904
 7022SOL    HW121818   3.779   3.973   5.850
 7022SOL    HW221819   3.886   3.853   5.882
 7023SOL     OW21820   4.440   4.289   7.294
 7023SOL    HW121821   4.459   4.354   7.368
 7023SOL    HW221822   4.500   4.209   7.303
 7024SOL     OW21823   4.152   4.148   6.106
 7024SOL    HW121824   4.182   4.076   6.044
 7024SOL    HW221825   4.113   4.108   6.189
 7025SOL     OW21826   4.041   4.271   6.866
 7025SOL    HW121827   4.079   4.212   6.938
 7025SOL    HW221828   4.081   4.245   6.778
 7026SOL     OW21829   3.954   4.352   7.561
 7026SOL    HW121830   3.861   4.350   7.598
 7026SOL    HW221831   3.955   4.313   7.469
 7027SOL     OW21832   3.949   3.999   8.444
 7027SOL    HW121833   3.984   3.982   8.536
 7027SOL    HW221834   3.861   3.954   8.432
 7028SOL     OW21835   3.743   4.092   8.095
 7028SOL    HW121836   3.661   4.135   8.134
 7028SOL    HW221837   3.715   4.019   8.032
 7029SOL     OW21838   4.574   4.522   9.271
 7029SOL    HW121839   4.570   4.598   9.336
 7029SOL    HW221840   4.596   4.558   9.180
 7030SOL     OW21841   4.162   4.116   8.947
 7030SOL    HW121842   4.244   4.060   8.956
 7030SOL    HW221843   4.081   4.058   8.951
 7031SOL     OW21844   3.846   4.367   8.011
 7031SOL    HW121845   3.801   4.279   8.028
 7031SOL    HW221846   3.845   4.421   8.095
 7032SOL     OW21847   3.837   4.461   9.045
 7032SOL    HW121848   3.925   4.448   9.090
 7032SOL    HW221849   3.824   4.558   9.023
 7033SOL     OW21850   4.533   3.728   7.950
 7033SOL    HW121851   4.573   3.819   7.941
 7033SOL    HW221852   4.433   3.736   7.956
 7034SOL     OW21853   4.041   3.975   9.249
 7034SOL    HW121854   4.112   4.046   9.255
 7034SOL    HW221855   3.953   4.014   9.277
 7035SOL     OW21856   4.274   3.920   8.333
 7035SOL    HW121857   4.269   3.915   8.433
 7035SOL    HW221858   4.276   4.016   8.304
 7036SOL     OW21859   3.926   4.009   8.946
 7036SOL    HW121860   3.846   4.069   8.933
 7036SOL    HW221861   3.916   3.960   9.032
 7037SOL     OW21862   4.106   4.424   7.928
 7037SOL    HW121863   4.151   4.334   7.925
 7037SOL    HW221864   4.012   4.413   7.961
 7038SOL     OW21865   4.338   3.846   7.565
 7038SOL    HW121866   4.436   3.824   7.572
 7038SOL    HW221867   4.307   3.829   7.472
 7039SOL     OW21868   4.263   3.788   7.960
 7039SOL    HW121869   4.182   3.789   8.018
 7039SOL    HW221870   4.266   3.871   7.905
 7040SOL     OW21871   4.021   3.759   7.619
 7040SOL    HW121872   4.070   3.843   7.598
 7040SOL    HW221873   4.083   3.694   7.664
 7041SOL     OW21874   4.800   4.407   8.912
 7041SOL    HW121875   4.720   4.346   8.915
 7041SOL    HW221876   4.881   4.354   8.888
 7042SOL     OW21877   3.802   4.280   8.834
 7042SOL    HW121878   3.894   4.279   8.793
 7042SOL    HW221879   3.796   4.354   8.901
 7043SOL     OW21880   4.285   3.946   8.595
 7043SOL    HW121881   4.323   3.862   8.632
 7043SOL    HW221882   4.197   3.965   8.639
 7044SOL     OW21883   4.251   3.980   7.776
 7044SOL    HW121884   4.278   3.921   7.701
 7044SOL    HW221885   4.251   4.075   7.745
 7045SOL     OW21886   4.134   4.537   8.699
 7045SOL    HW121887   4.220   4.549   8.749
 7045SOL    HW221888   4.092   4.450   8.726
 7046SOL     OW21889   4.290   4.261   8.313
 7046SOL    HW121890   4.302   4.327   8.239
 7046SOL    HW221891   4.336   4.295   8.396
 7047SOL     OW21892   4.228   3.774   9.188
 7047SOL    HW121893   4.186   3.717   9.118
 7047SOL    HW221894   4.162   3.843   9.220
 7048SOL     OW21895   4.031   3.937   8.679
 7048SOL    HW121896   4.008   3.974   8.769
 7048SOL    HW221897   4.001   3.842   8.673
 7049SOL     OW21898   4.031   3.787   8.066
 7049SOL    HW121899   4.020   3.881   8.099
 7049SOL    HW221900   4.026   3.724   8.143
 7050SOL     OW21901   4.043   4.534   8.397
 7050SOL    HW121902   4.136   4.570   8.402
 7050SOL    HW221903   4.037   4.449   8.449
 7051SOL     OW21904   4.063   4.233   8.454
 7051SOL    HW121905   4.011   4.150   8.437
 7051SOL    HW221906   4.140   4.238   8.390
 7052SOL     OW21907   3.764   4.268   8.562
 7052SOL    HW121908   3.849   4.235   8.521
 7052SOL    HW221909   3.777   4.283   8.660
 7053SOL     OW21910   3.913   4.244   9.170
 7053SOL    HW121911   3.972   4.204   9.100
 7053SOL    HW221912   3.855   4.315   9.129
 7054SOL     OW21913   4.539   4.296   7.773
 7054SOL    HW121914   4.546   4.207   7.727
 7054SOL    HW221915   4.445   4.330   7.765
 7055SOL     OW21916   4.197   4.224   7.639
 7055SOL    HW121917   4.258   4.304   7.643
 7055SOL    HW221918   4.102   4.255   7.646
 7056SOL     OW21919   3.987   4.050   8.168
 7056SOL    HW121920   3.908   4.101   8.134
 7056SOL    HW221921   3.978   4.035   8.266
 7057SOL     OW21922   4.396   3.927   8.937
 7057SOL    HW121923   4.486   3.911   8.897
 7057SOL    HW221924   4.404   3.932   9.036
 7058SOL     OW21925   3.799   4.069   7.481
 7058SOL    HW121926   3.707   4.041   7.452
 7058SOL    HW221927   3.830   4.146   7.425
 7059SOL     OW21928   3.796   3.890   7.766
 7059SOL    HW121929   3.779   3.973   7.712
 7059SOL    HW221930   3.886   3.853   7.744
 7060SOL     OW21931   4.440   4.289   9.156
 7060SOL    HW121932   4.459   4.354   9.230
 7060SOL    HW221933   4.500   4.209   9.165
 7061SOL     OW21934   4.152   4.148   7.968
 7061SOL    HW121935   4.182   4.076   7.906
 7061SOL    HW221936   4.113   4.108   8.051
 7062SOL     OW21937   4.041   4.271   8.728
 7062SOL    HW121938   4.079   4.212   8.800
 7062SOL    HW221939   4.081   4.245   8.640
 7063SOL     OW21940   3.954   4.352   9.423
 7063SOL    HW121941   3.861   4.350   9.460
 7063SOL    HW221942   3.955   4.313   9.331
 7064SOL     OW21943   3.949   3.999  10.306
 7064SOL    HW121944   3.984   3.982  10.398
 7064SOL    HW221945   3.861   3.954  10.294
 7065SOL     OW21946   3.743   4.092   9.957
 7065SOL    HW121947   3.661   4.135   9.996
 7065SOL    HW221948   3.715   4.019   9.894
 7066SOL     OW21949   4.162   4.116  10.809
 7066SOL    HW121950   4.244   4.060  10.818
 7066SOL    HW221951   4.081   4.058  10.813
 7067SOL     OW21952   3.846   4.367   9.873
 7067SOL    HW121953   3.801   4.279   9.890
 7067SOL    HW221954   3.845   4.421   9.957
 7068SOL     OW21955   3.837   4.461  10.907
 7068SOL    HW121956   3.925   4.448  10.952
 7068SOL    HW221957   3.824   4.558  10.885
 7069SOL     OW21958   4.533   3.728   9.812
 7069SOL    HW121959   4.573   3.819   9.803
 7069SOL    HW221960   4.433   3.736   9.818
 7070SOL     OW21961   4.041   3.975  11.111
 7070SOL    HW121962   4.112   4.046  11.117
 7070SOL    HW221963   3.953   4.014  11.139
 7071SOL     OW21964   4.274   3.920  10.195
 7071SOL    HW121965   4.269   3.915  10.295
 7071SOL    HW221966   4.276   4.016  10.166
 7072SOL     OW21967   3.926   4.009  10.808
 7072SOL    HW121968   3.846   4.069  10.795
 7072SOL    HW221969   3.916   3.960  10.894
 7073SOL     OW21970   4.106   4.424   9.790
 7073SOL    HW121971   4.151   4.334   9.787
 7073SOL    HW221972   4.012   4.413   9.823
 7074SOL     OW21973   4.338   3.846   9.427
 7074SOL    HW121974   4.436   3.824   9.434
 7074SOL    HW221975   4.307   3.829   9.334
 7075SOL     OW21976   4.263   3.788   9.822
 7075SOL    HW121977   4.182   3.789   9.880
 7075SOL    HW221978   4.266   3.871   9.767
 7076SOL     OW21979   4.021   3.759   9.481
 7076SOL    HW121980   4.070   3.843   9.460
 7076SOL    HW221981   4.083   3.694   9.526
 7077SOL     OW21982   4.800   4.407  10.774
 7077SOL    HW121983   4.720   4.346  10.777
 7077SOL    HW221984   4.881   4.354  10.750
 7078SOL     OW21985   3.802   4.280  10.696
 7078SOL    HW121986   3.894   4.279  10.655
 7078SOL    HW221987   3.796   4.354  10.763
 7079SOL     OW21988   4.285   3.946  10.457
 7079SOL    HW121989   4.323   3.862  10.494
 7079SOL    HW221990   4.197   3.965  10.501
 7080SOL     OW21991   4.251   3.980   9.638
 7080SOL    HW121992   4.278   3.921   9.563
 7080SOL    HW221993   4.251   4.075   9.607
 7081SOL     OW21994   4.134   4.537  10.561
 7081SOL    HW121995   4.220   4.549  10.611
 7081SOL    HW221996   4.092   4.450  10.588
 7082SOL     OW21997   4.290   4.261  10.175
 7082SOL    HW121998   4.302   4.327  10.101
 7082SOL    HW221999   4.336   4.295  10.258
 7083SOL     OW22000   4.126   4.475  10.908
 7083SOL    HW122001   4.194   4.530  10.861
 7083SOL    HW222002   4.166   4.387  10.935
 7084SOL     OW22003   4.031   3.937  10.541
 7084SOL    HW122004   4.008   3.974  10.631
 7084SOL    HW222005   4.001   3.842  10.535
 7085SOL     OW22006   4.031   3.787   9.928
 7085SOL    HW122007   4.020   3.881   9.961
 7085SOL    HW222008   4.026   3.724  10.005
 7086SOL     OW22009   4.043   4.534  10.259
 7086SOL    HW122010   4.136   4.570  10.264
 7086SOL    HW222011   4.037   4.449  10.311
 7087SOL     OW22012   4.063   4.233  10.316
 7087SOL    HW122013   4.011   4.150  10.299
 7087SOL    HW222014   4.140   4.238  10.252
 7088SOL     OW22015   3.764   4.268  10.424
 7088SOL    HW122016   3.849   4.235  10.383
 7088SOL    HW222017   3.777   4.283  10.522
 7089SOL     OW22018   4.539   4.296   9.635
 7089SOL    HW122019   4.546   4.207   9.589
 7089SOL    HW222020   4.445   4.330   9.627
 7090SOL     OW22021   4.197   4.224   9.501
 7090SOL    HW122022   4.258   4.304   9.505
 7090SOL    HW222023   4.102   4.255   9.508
 7091SOL     OW22024   3.987   4.050  10.030
 7091SOL    HW122025   3.908   4.101   9.996
 7091SOL    HW222026   3.978   4.035  10.128
 7092SOL     OW22027   4.396   3.927  10.799
 7092SOL    HW122028   4.486   3.911  10.759
 7092SOL    HW222029   4.404   3.932  10.898
 7093SOL     OW22030   3.799   4.069   9.343
 7093SOL    HW122031   3.707   4.041   9.314
 7093SOL    HW222032   3.830   4.146   9.287
 7094SOL     OW22033   3.796   3.890   9.628
 7094SOL    HW122034   3.779   3.973   9.574
 7094SOL    HW222035   3.886   3.853   9.606
 7095SOL     OW22036   4.152   4.148   9.830
 7095SOL    HW122037   4.182   4.076   9.768
 7095SOL    HW222038   4.113   4.108   9.913
 7096SOL     OW22039   4.041   4.271  10.590
 7096SOL    HW122040   4.079   4.212  10.662
 7096SOL    HW222041   4.081   4.245  10.502
   4.50000   4.50000  11.10000
