2aCDOC_1PEG_l8
22146
    1LIG      O    1   2.768   2.592   0.000
    1LIG      C    2   2.752   2.632   0.135
    1LIG     C1    3   2.620   2.570   0.188
    1LIG     O1    4   2.561   2.658   0.283
    1LIG     C2    5   2.589   2.616   0.414
    1LIG     C3    6   2.736   2.656   0.448
    1LIG     O2    7   2.767   2.606   0.576
    1LIG     C4    8   2.711   2.691   0.675
    1LIG     C5    9   2.579   2.627   0.726
    1LIG     O3   10   2.541   2.697   0.841
    1LIG     C6   11   2.590   2.637   0.959
    1LIG     C7   12   2.735   2.683   0.994
    1LIG     O4   13   2.782   2.624   1.115
    1LIG     C8   14   2.728   2.687   1.229
    1LIG     C9   15   2.599   2.607   1.268
    1LIG     O5   16   2.524   2.669   1.369
    1LIG    C10   17   2.582   2.632   1.492
    1LIG    C11   18   2.686   2.737   1.531
    1LIG     O6   19   2.641   2.787   1.652
    1LIG    C12   20   2.687   2.709   1.759
    1LIG    C13   21   2.598   2.586   1.795
    1LIG     O7   22   2.656   2.524   1.909
    1LIG    C14   23   2.616   2.587   2.029
    1LIG    C15   24   2.709   2.706   2.070
    1LIG     O8   25   2.641   2.786   2.163
    1LIG    C16   26   2.672   2.743   2.292
    1LIG    C17   27   2.563   2.643   2.336
    1LIG     O9   28   2.620   2.555   2.430
    1LIG    C18   29   2.593   2.603   2.560
    1LIG    C19   30   2.693   2.717   2.600
    1LIG    O10   31   2.656   2.786   2.718
    1LIG    C20   32   2.699   2.717   2.833
    1LIG    C21   33   2.592   2.611   2.867
    1LIG    O11   34   2.625   2.543   2.982
    1LIG    C22   35   2.597   2.616   3.097
    1LIG    C23   36   2.730   2.672   3.143
    1LIG    O12   37   2.762   2.608   3.261
    1LIG    C24   38   2.717   2.680   3.369
    1LIG    C25   39   2.573   2.640   3.405
    1LIG    O13   40   2.535   2.705   3.523
    1LIG    C26   41   2.581   2.640   3.639
    1LIG    C27   42   2.723   2.693   3.680
    1LIG    O14   43   2.783   2.609   3.776
    1LIG    C28   44   2.747   2.656   3.903
    1LIG    C29   45   2.617   2.584   3.946
    1LIG    O15   46   2.547   2.668   4.035
    1LIG    C30   47   2.571   2.632   4.168
    1LIG    C31   48   2.684   2.724   4.219
    1LIG    O16   49   2.644   2.780   4.340
    1LIG    C32   50   2.691   2.700   4.447
    1LIG    C33   51   2.578   2.605   4.491
    1LIG    O17   52   2.531   2.665   4.606
    1LIG    C34   53   2.585   2.611   4.721
    1LIG    C35   54   2.724   2.676   4.755
    1LIG    O18   55   2.782   2.618   4.871
    1LIG    C36   56   2.731   2.677   4.989
    1LIG    C37   57   2.588   2.621   5.021
    1LIG    O19   58   2.529   2.672   5.136
    1LIG    C38   59   2.587   2.620   5.247
    1LIG    C39   60   2.696   2.719   5.285
    1LIG    O20   61   2.654   2.776   5.402
    1LIG    C40   62   2.701   2.699   5.508
    1LIG    C41   63   2.604   2.584   5.547
    1LIG    O21   64   2.657   2.525   5.664
    1LIG    C42   65   2.611   2.594   5.778
    1LIG    C43   66   2.702   2.716   5.817
    1LIG    O22   67   2.641   2.790   5.920
    1LIG    C44   68   2.679   2.739   6.043
    1LIG    C45   69   2.571   2.636   6.086
    1LIG    O23   70   2.629   2.547   6.179
    1LIG    C46   71   2.596   2.591   6.309
    1LIG    C47   72   2.688   2.709   6.349
    1LIG    O24   73   2.644   2.758   6.471
    1LIG    C48   74   2.710   2.696   6.578
    1LIG    C49   75   2.613   2.591   6.636
    1LIG    O25   76   2.669   2.532   6.752
    1LIG    C50   77   2.624   2.597   6.869
    1LIG    C51   78   2.705   2.727   6.899
    1LIG    O26   79   2.645   2.796   7.007
    1LIG    C52   80   2.681   2.740   7.130
    1LIG    C53   81   2.581   2.627   7.165
    1LIG    O27   82   2.521   2.658   7.288
    1LIG    C54   83   2.589   2.594   7.394
    1LIG    C55   84   2.721   2.671   7.435
    1LIG    O28   85   2.784   2.608   7.549
    1LIG    C56   86   2.741   2.664   7.674
    1LIG    C57   87   2.602   2.603   7.709
    1LIG    O29   88   2.542   2.664   7.821
    1LIG    C58   89   2.570   2.593   7.939
    1LIG    C59   90   2.684   2.675   8.000
    1LIG      H   91   2.748   2.741   0.144
    1LIG     H1   92   2.839   2.597   0.192
    1LIG     H2   93   2.639   2.471   0.230
    1LIG     H3   94   2.546   2.558   0.109
    1LIG     H4   95   2.574   2.507   0.425
    1LIG     H5   96   2.518   2.669   0.476
    1LIG     H6   97   2.747   2.765   0.445
    1LIG     H7   98   2.808   2.612   0.380
    1LIG     H8   99   2.692   2.792   0.639
    1LIG     H9  100   2.787   2.701   0.750
    1LIG    H10  101   2.591   2.520   0.745
    1LIG    H11  102   2.496   2.638   0.657
    1LIG    H12  103   2.585   2.528   0.954
    1LIG    H13  104   2.517   2.674   1.031
    1LIG    H14  105   2.741   2.792   1.000
    1LIG    H15  106   2.807   2.647   0.921
    1LIG    H16  107   2.708   2.793   1.211
    1LIG    H17  108   2.803   2.679   1.308
    1LIG    H18  109   2.631   2.507   1.296
    1LIG    H19  110   2.528   2.591   1.189
    1LIG    H20  111   2.627   2.532   1.490
    1LIG    H21  112   2.500   2.629   1.565
    1LIG    H22  113   2.693   2.820   1.461
    1LIG    H23  114   2.786   2.692   1.543
    1LIG    H24  115   2.681   2.784   1.834
    1LIG    H25  116   2.792   2.678   1.747
    1LIG    H26  117   2.597   2.512   1.715
    1LIG    H27  118   2.494   2.617   1.815
    1LIG    H28  119   2.622   2.510   2.106
    1LIG    H29  120   2.510   2.617   2.024
    1LIG    H30  121   2.733   2.779   1.997
    1LIG    H31  122   2.806   2.669   2.105
    1LIG    H32  123   2.675   2.834   2.351
    1LIG    H33  124   2.772   2.696   2.297
    1LIG    H34  125   2.527   2.579   2.256
    1LIG    H35  126   2.476   2.696   2.374
    1LIG    H36  127   2.606   2.513   2.620
    1LIG    H37  128   2.488   2.636   2.569
    1LIG    H38  129   2.696   2.796   2.527
    1LIG    H39  130   2.795   2.678   2.607
    1LIG    H40  131   2.709   2.790   2.914
    1LIG    H41  132   2.797   2.672   2.816
    1LIG    H42  133   2.591   2.530   2.796
    1LIG    H43  134   2.492   2.653   2.874
    1LIG    H44  135   2.552   2.545   3.168
    1LIG    H45  136   2.527   2.697   3.078
    1LIG    H46  137   2.720   2.781   3.156
    1LIG    H47  138   2.810   2.652   3.073
    1LIG    H48  139   2.724   2.790   3.355
    1LIG    H49  140   2.789   2.649   3.440
    1LIG    H50  141   2.568   2.531   3.418
    1LIG    H51  142   2.501   2.669   3.328
    1LIG    H52  143   2.581   2.530   3.627
    1LIG    H53  144   2.507   2.663   3.715
    1LIG    H54  145   2.717   2.798   3.711
    1LIG    H55  146   2.799   2.696   3.605
    1LIG    H56  147   2.737   2.765   3.904
    1LIG    H57  148   2.829   2.635   3.970
    1LIG    H58  149   2.640   2.486   3.987
    1LIG    H59  150   2.547   2.563   3.866
    1LIG    H60  151   2.600   2.527   4.177
    1LIG    H61  152   2.476   2.646   4.221
    1LIG    H62  153   2.707   2.806   4.153
    1LIG    H63  154   2.777   2.668   4.230
    1LIG    H64  155   2.719   2.771   4.524
    1LIG    H65  156   2.779   2.640   4.422
    1LIG    H66  157   2.615   2.504   4.511
    1LIG    H67  158   2.494   2.600   4.422
    1LIG    H68  159   2.591   2.502   4.718
    1LIG    H69  160   2.503   2.637   4.784
    1LIG    H70  161   2.715   2.785   4.767
    1LIG    H71  162   2.794   2.659   4.673
    1LIG    H72  163   2.729   2.785   4.977
    1LIG    H73  164   2.800   2.656   5.069
    1LIG    H74  165   2.591   2.513   5.024
    1LIG    H75  166   2.513   2.653   4.954
    1LIG    H76  167   2.627   2.518   5.231
    1LIG    H77  168   2.507   2.615   5.321
    1LIG    H78  169   2.707   2.800   5.213
    1LIG    H79  170   2.793   2.670   5.295
    1LIG    H80  171   2.709   2.776   5.579
    1LIG    H81  172   2.802   2.660   5.492
    1LIG    H82  173   2.602   2.505   5.470
    1LIG    H83  174   2.501   2.619   5.562
    1LIG    H84  175   2.617   2.519   5.855
    1LIG    H85  176   2.505   2.623   5.769
    1LIG    H86  177   2.709   2.797   5.748
    1LIG    H87  178   2.804   2.683   5.841
    1LIG    H88  179   2.686   2.826   6.107
    1LIG    H89  180   2.780   2.692   6.040
    1LIG    H90  181   2.532   2.574   6.007
    1LIG    H91  182   2.483   2.690   6.125
    1LIG    H92  183   2.611   2.507   6.374
    1LIG    H93  184   2.490   2.621   6.314
    1LIG    H94  185   2.680   2.795   6.285
    1LIG    H95  186   2.793   2.677   6.351
    1LIG    H96  187   2.737   2.777   6.643
    1LIG    H97  188   2.804   2.648   6.548
    1LIG    H98  189   2.598   2.510   6.566
    1LIG    H99  190   2.514   2.635   6.656
    1LIG   H100  191   2.635   2.525   6.950
    1LIG   H101  192   2.517   2.621   6.860
    1LIG   H102  193   2.703   2.798   6.818
    1LIG   H103  194   2.810   2.701   6.920
    1LIG   H104  195   2.678   2.818   7.206
    1LIG   H105  196   2.783   2.699   7.127
    1LIG   H106  197   2.629   2.529   7.167
    1LIG   H107  198   2.499   2.624   7.091
    1LIG   H108  199   2.610   2.489   7.372
    1LIG   H109  200   2.510   2.593   7.468
    1LIG   H110  201   2.701   2.776   7.456
    1LIG   H111  202   2.793   2.666   7.353
    1LIG   H112  203   2.734   2.773   7.667
    1LIG   H113  204   2.815   2.639   7.751
    1LIG   H114  205   2.607   2.494   7.717
    1LIG   H115  206   2.529   2.629   7.636
    1LIG   H116  207   2.599   2.489   7.919
    1LIG   H117  208   2.481   2.594   8.002
    1LIG   H118  209   2.747   2.723   7.925
    1LIG   H119  210   2.638   2.755   8.056
    2MOL     C1  211   2.999   2.236   3.542
    2MOL     H1  212   3.006   2.127   3.530
    2MOL     O1  213   3.045   2.302   3.423
    2MOL     C2  214   3.037   2.448   3.426
    2MOL     H2  215   2.933   2.480   3.435
    2MOL     C3  216   3.094   2.501   3.293
    2MOL     H3  217   3.198   2.467   3.283
    2MOL     H4  218   3.093   2.610   3.295
    2MOL     O2  219   3.016   2.455   3.183
    2MOL     C4  220   3.067   2.501   3.057
    2MOL     C5  221   3.090   2.279   3.660
    2MOL     H5  222   3.193   2.247   3.639
    2MOL     O3  223   3.043   2.220   3.782
    2MOL     C6  224   3.071   2.080   3.793
    2MOL     C7  225   3.090   2.432   3.678
    2MOL     H6  226   2.991   2.464   3.714
    2MOL     O4  227   3.195   2.466   3.772
    2MOL     C8  228   3.147   2.498   3.903
    2MOL     C9  229   3.119   2.505   3.546
    2MOL     H7  230   3.226   2.493   3.524
    2MOL     O5  231   3.084   2.643   3.567
    2MOL    C10  232   3.186   2.741   3.535
    2MOL     H8  233   3.283   2.693   3.521
    2MOL     O6  234   3.147   2.809   3.414
    2MOL    C11  235   3.016   2.871   3.417
    2MOL     H9  236   2.940   2.796   3.440
    2MOL    C12  237   2.989   2.930   3.277
    2MOL    H10  238   3.067   3.002   3.253
    2MOL    H11  239   2.892   2.980   3.277
    2MOL     O7  240   2.988   2.825   3.179
    2MOL    C13  241   2.954   2.871   3.047
    2MOL    C14  242   3.197   2.848   3.647
    2MOL    H12  243   3.277   2.917   3.620
    2MOL     O8  244   3.229   2.787   3.774
    2MOL    C15  245   3.366   2.744   3.789
    2MOL    C16  246   3.066   2.929   3.663
    2MOL    H13  247   2.990   2.863   3.707
    2MOL     O9  248   3.093   3.044   3.747
    2MOL    C17  249   3.044   3.030   3.881
    2MOL    C18  250   3.013   2.980   3.527
    2MOL    H14  251   3.076   3.064   3.495
    2MOL    O10  252   2.876   3.023   3.549
    2MOL    C19  253   2.843   3.158   3.506
    2MOL    H15  254   2.934   3.214   3.481
    2MOL    O11  255   2.758   3.150   3.390
    2MOL    C20  256   2.631   3.080   3.406
    2MOL    H16  257   2.649   2.975   3.430
    2MOL    C21  258   2.555   3.091   3.272
    2MOL    H17  259   2.550   3.196   3.242
    2MOL    H18  260   2.453   3.054   3.284
    2MOL    O12  261   2.623   3.013   3.173
    2MOL    C22  262   2.555   3.014   3.046
    2MOL    C23  263   2.767   3.235   3.616
    2MOL    H19  264   2.744   3.336   3.578
    2MOL    O13  265   2.848   3.245   3.735
    2MOL    C24  266   2.956   3.340   3.729
    2MOL    C25  267   2.634   3.166   3.651
    2MOL    H20  268   2.655   3.069   3.697
    2MOL    O14  269   2.559   3.252   3.740
    2MOL    C26  270   2.564   3.216   3.879
    2MOL    C27  271   2.548   3.142   3.523
    2MOL    H21  272   2.505   3.238   3.491
    2MOL    O15  273   2.445   3.046   3.559
    2MOL    C28  274   2.307   3.084   3.532
    2MOL    H22  275   2.300   3.191   3.513
    2MOL    O16  276   2.259   3.011   3.417
    2MOL    C29  277   2.267   2.867   3.427
    2MOL    H23  278   2.372   2.840   3.443
    2MOL    C30  279   2.224   2.808   3.292
    2MOL    H24  280   2.250   2.701   3.291
    2MOL    H25  281   2.278   2.859   3.212
    2MOL    O17  282   2.082   2.825   3.277
    2MOL    C31  283   2.026   2.760   3.163
    2MOL    C32  284   2.219   3.045   3.653
    2MOL    H26  285   2.116   3.079   3.634
    2MOL    O18  286   2.272   3.107   3.771
    2MOL    C33  287   2.250   3.249   3.778
    2MOL    C34  288   2.215   2.891   3.675
    2MOL    H27  289   2.315   2.857   3.705
    2MOL    O19  290   2.117   2.860   3.776
    2MOL    C35  291   2.174   2.825   3.903
    2MOL    C36  292   2.183   2.813   3.546
    2MOL    H28  293   2.076   2.823   3.525
    2MOL    O20  294   2.221   2.675   3.571
    2MOL    C37  295   2.123   2.573   3.540
    2MOL    H29  296   2.025   2.619   3.524
    2MOL    O21  297   2.166   2.502   3.421
    2MOL    C38  298   2.297   2.438   3.433
    2MOL    H30  299   2.369   2.513   3.464
    2MOL    C39  300   2.340   2.382   3.297
    2MOL    H31  301   2.444   2.350   3.302
    2MOL    H32  302   2.332   2.460   3.220
    2MOL    O22  303   2.253   2.272   3.265
    2MOL    C40  304   2.296   2.193   3.153
    2MOL    C41  305   2.114   2.471   3.657
    2MOL    H33  306   2.033   2.401   3.634
    2MOL    O23  307   2.087   2.539   3.781
    2MOL    C42  308   1.954   2.589   3.793
    2MOL    C43  309   2.244   2.389   3.676
    2MOL    H34  310   2.321   2.455   3.716
    2MOL    O24  311   2.215   2.279   3.766
    2MOL    C44  312   2.265   2.299   3.899
    2MOL    C45  313   2.295   2.330   3.544
    2MOL    H35  314   2.232   2.246   3.515
    2MOL    O25  315   2.432   2.287   3.570
    2MOL    C46  316   2.465   2.152   3.530
    2MOL    H36  317   2.375   2.094   3.508
    2MOL    O26  318   2.549   2.158   3.412
    2MOL    C47  319   2.670   2.238   3.427
    2MOL    H37  320   2.645   2.341   3.455
    2MOL    C48  321   2.744   2.243   3.293
    2MOL    H38  322   2.774   2.142   3.264
    2MOL    H39  323   2.833   2.305   3.300
    2MOL    O27  324   2.657   2.294   3.191
    2MOL    C49  325   2.718   2.289   3.061
    2MOL    C50  326   2.547   2.081   3.642
    2MOL    H40  327   2.570   1.979   3.609
    2MOL    O28  328   2.470   2.077   3.764
    2MOL    C51  329   2.361   1.983   3.766
    2MOL    C52  330   2.680   2.153   3.669
    2MOL    H41  331   2.660   2.251   3.715
    2MOL    O29  332   2.760   2.070   3.756
    2MOL    C53  333   2.760   2.108   3.894
    2MOL    C54  334   2.760   2.179   3.538
    2MOL    H42  335   2.803   2.083   3.503
    2MOL    O30  336   2.862   2.275   3.569
    2MOL    H43  337   2.942   2.785   2.980
    2MOL    H44  338   2.860   2.927   3.048
    2MOL    H45  339   3.033   2.934   3.006
    2MOL    H46  340   3.003   2.468   2.974
    2MOL    H47  341   3.073   2.611   3.057
    2MOL    H48  342   3.169   2.462   3.042
    2MOL    H49  343   2.646   2.319   2.985
    2MOL    H50  344   2.805   2.356   3.057
    2MOL    H51  345   2.749   2.187   3.037
    2MOL    H52  346   2.234   2.102   3.147
    2MOL    H53  347   2.286   2.250   3.060
    2MOL    H54  348   2.401   2.162   3.165
    2MOL    H55  349   1.918   2.779   3.160
    2MOL    H56  350   2.071   2.797   3.071
    2MOL    H57  351   2.041   2.651   3.170
    2MOL    H58  352   2.608   2.952   2.974
    2MOL    H59  353   2.453   2.975   3.057
    2MOL    H60  354   2.550   3.116   3.005
    2MOL    H61  355   1.936   2.623   3.896
    2MOL    H62  356   1.937   2.673   3.725
    2MOL    H63  357   1.883   2.509   3.770
    2MOL    H64  358   2.096   2.798   3.974
    2MOL    H65  359   2.241   2.739   3.892
    2MOL    H66  360   2.231   2.910   3.943
    2MOL    H67  361   2.288   3.288   3.873
    2MOL    H68  362   2.301   3.302   3.696
    2MOL    H69  363   2.142   3.270   3.774
    2MOL    H70  364   2.510   3.290   3.939
    2MOL    H71  365   2.515   3.120   3.892
    2MOL    H72  366   2.668   3.210   3.914
    2MOL    H73  367   2.998   3.355   3.829
    2MOL    H74  368   3.037   3.303   3.664
    2MOL    H75  369   2.921   3.437   3.690
    2MOL    H76  370   3.072   3.118   3.941
    2MOL    H77  371   2.935   3.020   3.882
    2MOL    H78  372   3.088   2.941   3.928
    2MOL    H79  373   3.386   2.720   3.895
    2MOL    H80  374   3.385   2.654   3.729
    2MOL    H81  375   3.435   2.823   3.759
    2MOL    H82  376   3.231   2.515   3.971
    2MOL    H83  377   3.086   2.590   3.899
    2MOL    H84  378   3.085   2.417   3.941
    2MOL    H85  379   3.055   2.047   3.897
    2MOL    H86  380   3.006   2.021   3.728
    2MOL    H87  381   3.175   2.060   3.765
    2MOL    H88  382   2.819   2.037   3.953
    2MOL    H89  383   2.803   2.208   3.906
    2MOL    H90  384   2.657   2.109   3.933
    2MOL    H91  385   2.325   1.971   3.869
    2MOL    H92  386   2.279   2.018   3.704
    2MOL    H93  387   2.394   1.884   3.730
    2MOL    H94  388   2.232   2.217   3.964
    2MOL    H95  389   2.374   2.304   3.899
    2MOL    H96  390   2.226   2.394   3.938
    3MOL     C1  391   2.304   2.237   4.535
    3MOL     H1  392   2.296   2.128   4.551
    3MOL     O1  393   2.263   2.305   4.655
    3MOL     C2  394   2.260   2.450   4.653
    3MOL     H2  395   2.362   2.489   4.646
    3MOL     C3  396   2.197   2.494   4.786
    3MOL     H3  397   2.098   2.448   4.795
    3MOL     H4  398   2.185   2.603   4.788
    3MOL     O2  399   2.280   2.454   4.896
    3MOL     C4  400   2.224   2.489   5.023
    3MOL     C5  401   2.208   2.277   4.420
    3MOL     H5  402   2.106   2.246   4.448
    3MOL     O3  403   2.247   2.212   4.297
    3MOL     C6  404   2.208   2.074   4.286
    3MOL     C7  405   2.210   2.429   4.400
    3MOL     H6  406   2.309   2.460   4.367
    3MOL     O4  407   2.108   2.465   4.304
    3MOL     C8  408   2.158   2.498   4.174
    3MOL     C9  409   2.177   2.501   4.532
    3MOL     H7  410   2.071   2.488   4.553
    3MOL     O5  411   2.211   2.640   4.510
    3MOL    C10  412   2.110   2.736   4.547
    3MOL     H8  413   2.012   2.688   4.560
    3MOL     O6  414   2.150   2.802   4.670
    3MOL    C11  415   2.281   2.865   4.665
    3MOL     H9  416   2.356   2.790   4.641
    3MOL    C12  417   2.314   2.924   4.802
    3MOL    H10  418   2.241   3.002   4.826
    3MOL    H11  419   2.415   2.967   4.800
    3MOL     O7  420   2.308   2.821   4.902
    3MOL    C13  421   2.343   2.871   5.031
    3MOL    C14  422   2.100   2.844   4.438
    3MOL    H12  423   2.022   2.913   4.469
    3MOL     O8  424   2.065   2.785   4.310
    3MOL    C15  425   1.930   2.740   4.296
    3MOL    C16  426   2.231   2.921   4.421
    3MOL    H13  427   2.307   2.853   4.380
    3MOL     O9  428   2.208   3.035   4.336
    3MOL    C17  429   2.270   3.022   4.208
    3MOL    C18  430   2.285   2.974   4.555
    3MOL    H14  431   2.221   3.058   4.587
    3MOL    O10  432   2.422   3.017   4.532
    3MOL    C19  433   2.454   3.151   4.573
    3MOL    H15  434   2.362   3.206   4.597
    3MOL    O11  435   2.540   3.146   4.688
    3MOL    C20  436   2.664   3.072   4.671
    3MOL    H16  437   2.643   2.967   4.648
    3MOL    C21  438   2.741   3.080   4.804
    3MOL    H17  439   2.753   3.185   4.833
    3MOL    H18  440   2.841   3.036   4.795
    3MOL    O12  441   2.668   3.009   4.905
    3MOL    C22  442   2.722   3.022   5.037
    3MOL    C23  443   2.531   3.228   4.462
    3MOL    H19  444   2.555   3.329   4.499
    3MOL    O13  445   2.453   3.239   4.342
    3MOL    C24  446   2.352   3.341   4.344
    3MOL    C25  447   2.665   3.160   4.428
    3MOL    H20  448   2.645   3.064   4.379
    3MOL    O14  449   2.740   3.250   4.343
    3MOL    C26  450   2.740   3.215   4.203
    3MOL    C27  451   2.748   3.134   4.555
    3MOL    H21  452   2.791   3.229   4.589
    3MOL    O15  453   2.851   3.040   4.516
    3MOL    C28  454   2.987   3.079   4.543
    3MOL    H22  455   2.995   3.187   4.560
    3MOL    O16  456   3.033   3.006   4.658
    3MOL    C29  457   3.018   2.862   4.648
    3MOL    H23  458   2.913   2.837   4.630
    3MOL    C30  459   3.058   2.802   4.784
    3MOL    H24  460   3.035   2.695   4.786
    3MOL    H25  461   3.000   2.850   4.864
    3MOL    O17  462   3.199   2.823   4.806
    3MOL    C31  463   3.251   2.749   4.916
    3MOL    C32  464   3.077   3.039   4.423
    3MOL    H26  465   3.180   3.069   4.444
    3MOL    O18  466   3.030   3.104   4.303
    3MOL    C33  467   3.063   3.243   4.295
    3MOL    C34  468   3.074   2.887   4.399
    3MOL    H27  469   2.975   2.859   4.360
    3MOL    O19  470   3.179   2.855   4.305
    3MOL    C35  471   3.134   2.829   4.171
    3MOL    C36  472   3.102   2.808   4.528
    3MOL    H28  473   3.209   2.818   4.551
    3MOL    O20  474   3.066   2.671   4.499
    3MOL    C37  475   3.166   2.573   4.535
    3MOL    H29  476   3.263   2.622   4.554
    3MOL    O21  477   3.123   2.506   4.655
    3MOL    C38  478   2.995   2.437   4.646
    3MOL    H30  479   2.917   2.508   4.619
    3MOL    C39  480   2.962   2.382   4.785
    3MOL    H31  481   2.856   2.353   4.786
    3MOL    H32  482   2.978   2.458   4.861
    3MOL    O22  483   3.046   2.267   4.811
    3MOL    C40  484   3.002   2.192   4.924
    3MOL    C41  485   3.184   2.466   4.425
    3MOL    H33  486   3.264   2.398   4.456
    3MOL    O23  487   3.219   2.527   4.298
    3MOL    C42  488   3.352   2.582   4.290
    3MOL    C43  489   3.058   2.380   4.404
    3MOL    H34  490   2.980   2.440   4.356
    3MOL    O24  491   3.094   2.264   4.324
    3MOL    C44  492   3.058   2.270   4.185
    3MOL    C45  493   3.000   2.327   4.537
    3MOL    H35  494   3.063   2.244   4.570
    3MOL    O25  495   2.865   2.284   4.507
    3MOL    C46  496   2.833   2.148   4.545
    3MOL    H36  497   2.924   2.090   4.566
    3MOL    O26  498   2.751   2.153   4.663
    3MOL    C47  499   2.630   2.231   4.652
    3MOL    H37  500   2.656   2.335   4.629
    3MOL    C48  501   2.556   2.229   4.786
    3MOL    H38  502   2.531   2.125   4.812
    3MOL    H39  503   2.464   2.287   4.781
    3MOL    O27  504   2.640   2.286   4.888
    3MOL    C49  505   2.582   2.273   5.018
    3MOL    C50  506   2.750   2.079   4.434
    3MOL    H40  507   2.727   1.976   4.467
    3MOL    O28  508   2.824   2.075   4.310
    3MOL    C51  509   2.935   1.985   4.308
    3MOL    C52  510   2.618   2.153   4.408
    3MOL    H41  511   2.641   2.251   4.365
    3MOL    O29  512   2.536   2.074   4.318
    3MOL    C53  513   2.533   2.123   4.182
    3MOL    C54  514   2.540   2.177   4.538
    3MOL    H42  515   2.494   2.082   4.570
    3MOL    O30  516   2.440   2.275   4.505
    3MOL    H43  517   2.334   2.793   5.107
    3MOL    H44  518   2.447   2.909   5.031
    3MOL    H45  519   2.277   2.953   5.060
    3MOL    H46  520   2.292   2.457   5.103
    3MOL    H47  521   2.210   2.598   5.030
    3MOL    H48  522   2.127   2.440   5.037
    3MOL    H49  523   2.652   2.310   5.094
    3MOL    H50  524   2.489   2.331   5.023
    3MOL    H51  525   2.558   2.169   5.037
    3MOL    H52  526   3.058   2.097   4.930
    3MOL    H53  527   3.019   2.250   5.016
    3MOL    H54  528   2.895   2.167   4.916
    3MOL    H55  529   3.359   2.765   4.925
    3MOL    H56  530   3.203   2.781   5.010
    3MOL    H57  531   3.234   2.641   4.901
    3MOL    H58  532   2.666   2.958   5.105
    3MOL    H59  533   2.828   2.992   5.038
    3MOL    H60  534   2.712   3.125   5.073
    3MOL    H61  535   3.371   2.617   4.187
    3MOL    H62  536   3.362   2.668   4.357
    3MOL    H63  537   3.428   2.508   4.315
    3MOL    H64  538   3.220   2.818   4.104
    3MOL    H65  539   3.075   2.737   4.168
    3MOL    H66  540   3.072   2.912   4.135
    3MOL    H67  541   3.052   3.278   4.191
    3MOL    H68  542   2.997   3.302   4.359
    3MOL    H69  543   3.167   3.259   4.326
    3MOL    H70  544   2.800   3.286   4.146
    3MOL    H71  545   2.783   3.115   4.189
    3MOL    H72  546   2.637   3.215   4.164
    3MOL    H73  547   2.309   3.353   4.244
    3MOL    H74  548   2.271   3.313   4.413
    3MOL    H75  549   2.394   3.438   4.375
    3MOL    H76  550   2.267   3.117   4.154
    3MOL    H77  551   2.375   2.994   4.220
    3MOL    H78  552   2.219   2.944   4.149
    3MOL    H79  553   1.910   2.711   4.192
    3MOL    H80  554   1.912   2.653   4.360
    3MOL    H81  555   1.859   2.820   4.324
    3MOL    H82  556   2.074   2.512   4.104
    3MOL    H83  557   2.217   2.590   4.178
    3MOL    H84  558   2.221   2.416   4.138
    3MOL    H85  559   2.225   2.039   4.183
    3MOL    H86  560   2.267   2.012   4.354
    3MOL    H87  561   2.101   2.062   4.310
    3MOL    H88  562   2.474   2.056   4.119
    3MOL    H89  563   2.488   2.223   4.179
    3MOL    H90  564   2.635   2.128   4.142
    3MOL    H91  565   2.973   1.974   4.205
    3MOL    H92  566   3.017   2.024   4.370
    3MOL    H93  567   2.905   1.886   4.346
    3MOL    H94  568   3.087   2.178   4.133
    3MOL    H95  569   2.950   2.283   4.175
    3MOL    H96  570   3.110   2.354   4.138
    4SOL     OW  571   0.224   0.626   0.105
    4SOL    HW1  572   0.166   0.586   0.170
    4SOL    HW2  573   0.247   0.555   0.046
    5SOL     OW  574   0.232   0.281   0.990
    5SOL    HW1  575   0.252   0.244   1.076
    5SOL    HW2  576   0.152   0.236   0.962
    6SOL     OW  577   0.002   0.406   0.661
    6SOL    HW1  578   5.208   0.427   0.668
    6SOL    HW2  579   0.003   0.315   0.631
    7SOL     OW  580   0.573   1.283   1.180
    7SOL    HW1  581   0.490   1.291   1.133
    7SOL    HW2  582   0.589   1.370   1.215
    8SOL     OW  583   1.560   1.512   0.707
    8SOL    HW1  584   1.517   1.492   0.790
    8SOL    HW2  585   1.488   1.515   0.643
    9SOL     OW  586   1.131   0.698   0.703
    9SOL    HW1  587   1.180   0.779   0.688
    9SOL    HW2  588   1.084   0.713   0.784
   10SOL     OW  589   1.771   0.600   0.232
   10SOL    HW1  590   1.729   0.603   0.146
   10SOL    HW2  591   1.729   0.526   0.276
   11SOL     OW  592   0.757   1.142   1.038
   11SOL    HW1  593   0.689   1.176   1.097
   11SOL    HW2  594   0.791   1.220   0.995
   12SOL     OW  595   0.863   0.779   1.821
   12SOL    HW1  596   0.856   0.851   1.884
   12SOL    HW2  597   0.888   0.821   1.739
   13SOL     OW  598   0.684   1.003   0.650
   13SOL    HW1  599   0.750   0.991   0.718
   13SOL    HW2  600   0.617   1.056   0.691
   14SOL     OW  601   0.709   1.151   1.812
   14SOL    HW1  602   0.757   1.229   1.838
   14SOL    HW2  603   0.626   1.184   1.776
   15SOL     OW  604   0.358   1.406   1.060
   15SOL    HW1  605   0.271   1.402   1.021
   15SOL    HW2  606   0.406   1.468   1.006
   16SOL     OW  607   1.461   1.499   1.353
   16SOL    HW1  608   1.510   1.581   1.363
   16SOL    HW2  609   1.401   1.498   1.428
   17SOL     OW  610   0.448   0.400   1.492
   17SOL    HW1  611   0.527   0.346   1.485
   17SOL    HW2  612   0.376   0.336   1.498
   18SOL     OW  613   1.611   0.452   0.737
   18SOL    HW1  614   1.533   0.474   0.687
   18SOL    HW2  615   1.629   0.530   0.790
   19SOL     OW  616   0.217   1.729   0.467
   19SOL    HW1  617   0.260   1.784   0.532
   19SOL    HW2  618   0.286   1.707   0.404
   20SOL     OW  619   1.136   1.341   1.692
   20SOL    HW1  620   1.177   1.337   1.779
   20SOL    HW2  621   1.084   1.262   1.686
   21SOL     OW  622   0.221   1.448   0.534
   21SOL    HW1  623   0.202   1.541   0.541
   21SOL    HW2  624   0.158   1.406   0.593
   22SOL     OW  625   0.252   1.079   0.878
   22SOL    HW1  626   0.259   0.993   0.919
   22SOL    HW2  627   0.198   1.130   0.939
   23SOL     OW  628   0.615   1.790   1.433
   23SOL    HW1  629   0.531   1.773   1.475
   23SOL    HW2  630   0.635   1.881   1.455
   24SOL     OW  631   0.623   0.959   0.136
   24SOL    HW1  632   0.579   1.039   0.107
   24SOL    HW2  633   0.678   0.988   0.209
   25SOL     OW  634   1.586   0.134   1.457
   25SOL    HW1  635   1.606   0.219   1.418
   25SOL    HW2  636   1.585   0.151   1.551
   26SOL     OW  637   0.128   0.639   0.581
   26SOL    HW1  638   0.092   0.555   0.608
   26SOL    HW2  639   0.097   0.701   0.648
   27SOL     OW  640   1.845   1.759   0.333
   27SOL    HW1  641   1.908   1.729   0.398
   27SOL    HW2  642   1.870   1.850   0.315
   28SOL     OW  643   0.032   1.585   0.105
   28SOL    HW1  644   0.024   1.500   0.146
   28SOL    HW2  645   0.005   1.648   0.173
   29SOL     OW  646   1.689   0.919   0.643
   29SOL    HW1  647   1.771   0.876   0.621
   29SOL    HW2  648   1.666   0.970   0.565
   30SOL     OW  649   1.646   1.105   0.434
   30SOL    HW1  650   1.726   1.120   0.384
   30SOL    HW2  651   1.651   1.167   0.507
   31SOL     OW  652   0.129   0.748   1.588
   31SOL    HW1  653   0.224   0.763   1.590
   31SOL    HW2  654   0.091   0.835   1.600
   32SOL     OW  655   0.615   1.385   0.734
   32SOL    HW1  656   0.567   1.303   0.745
   32SOL    HW2  657   0.597   1.411   0.644
   33SOL     OW  658   1.289   1.238   1.424
   33SOL    HW1  659   1.321   1.171   1.364
   33SOL    HW2  660   1.346   1.232   1.500
   34SOL     OW  661   0.814   0.026   0.526
   34SOL    HW1  662   0.843   0.113   0.498
   34SOL    HW2  663   0.719   0.028   0.520
   35SOL     OW  664   0.177   0.947   1.278
   35SOL    HW1  665   0.268   0.918   1.267
   35SOL    HW2  666   0.134   0.922   1.196
   36SOL     OW  667   1.511   1.006   0.211
   36SOL    HW1  668   1.450   0.940   0.243
   36SOL    HW2  669   1.563   1.031   0.288
   37SOL     OW  670   1.185   1.805   1.622
   37SOL    HW1  671   1.197   1.864   1.547
   37SOL    HW2  672   1.201   1.718   1.586
   38SOL     OW  673   0.326   0.274   1.797
   38SOL    HW1  674   0.386   0.336   1.838
   38SOL    HW2  675   0.245   0.281   1.848
   39SOL     OW  676   1.466   1.419   0.952
   39SOL    HW1  677   1.398   1.434   1.017
   39SOL    HW2  678   1.454   1.328   0.925
   40SOL     OW  679   1.660   1.739   0.581
   40SOL    HW1  680   1.638   1.711   0.492
   40SOL    HW2  681   1.634   1.665   0.636
   41SOL     OW  682   0.595   0.714   0.279
   41SOL    HW1  683   0.617   0.793   0.230
   41SOL    HW2  684   0.535   0.744   0.347
   42SOL     OW  685   1.278   0.346   0.931
   42SOL    HW1  686   1.187   0.317   0.943
   42SOL    HW2  687   1.328   0.296   0.996
   43SOL     OW  688   1.586   1.671   0.319
   43SOL    HW1  689   1.677   1.701   0.312
   43SOL    HW2  690   1.560   1.654   0.228
   44SOL     OW  691   0.794   0.618   1.452
   44SOL    HW1  692   0.766   0.596   1.541
   44SOL    HW2  693   0.751   0.552   1.396
   45SOL     OW  694   1.395   0.475   1.678
   45SOL    HW1  695   1.397   0.519   1.763
   45SOL    HW2  696   1.458   0.404   1.687
   46SOL     OW  697   0.955   0.888   1.582
   46SOL    HW1  698   1.010   0.817   1.547
   46SOL    HW2  699   0.908   0.921   1.506
   47SOL     OW  700   0.994   0.417   1.236
   47SOL    HW1  701   0.909   0.438   1.275
   47SOL    HW2  702   0.971   0.368   1.157
   48SOL     OW  703   1.051   0.699   0.428
   48SOL    HW1  704   1.067   0.691   0.522
   48SOL    HW2  705   0.969   0.652   0.413
   49SOL     OW  706   0.068   0.790   0.817
   49SOL    HW1  707   0.152   0.793   0.863
   49SOL    HW2  708   0.064   0.871   0.767
   50SOL     OW  709   0.131   1.882   1.584
   50SOL    HW1  710   0.133   1.851   1.675
   50SOL    HW2  711   0.058   1.835   1.544
   51SOL     OW  712   0.885   0.359   0.202
   51SOL    HW1  713   0.930   0.405   0.131
   51SOL    HW2  714   0.868   0.272   0.166
   52SOL     OW  715   1.708   0.575   1.828
   52SOL    HW1  716   1.671   0.649   1.780
   52SOL    HW2  717   1.737   0.515   1.760
   53SOL     OW  718   1.376   1.142   0.542
   53SOL    HW1  719   1.454   1.128   0.488
   53SOL    HW2  720   1.323   1.204   0.492
   54SOL     OW  721   0.538   0.200   0.885
   54SOL    HW1  722   0.554   0.220   0.977
   54SOL    HW2  723   0.549   0.284   0.840
   55SOL     OW  724   1.006   1.445   0.473
   55SOL    HW1  725   0.967   1.517   0.424
   55SOL    HW2  726   0.988   1.467   0.565
   56SOL     OW  727   0.357   1.801   0.868
   56SOL    HW1  728   0.398   1.716   0.881
   56SOL    HW2  729   0.423   1.864   0.897
   57SOL     OW  730   1.799   1.058   0.868
   57SOL    HW1  731   1.744   1.039   0.792
   57SOL    HW2  732   1.738   1.063   0.941
   58SOL     OW  733   1.228   1.539   1.513
   58SOL    HW1  734   1.214   1.466   1.573
   58SOL    HW2  735   1.165   1.524   1.442
   59SOL     OW  736   0.327   0.949   0.246
   59SOL    HW1  737   0.408   0.967   0.200
   59SOL    HW2  738   0.318   0.853   0.244
   60SOL     OW  739   1.477   0.742   0.727
   60SOL    HW1  740   1.468   0.698   0.811
   60SOL    HW2  741   1.555   0.797   0.737
   61SOL     OW  742   0.464   1.263   1.737
   61SOL    HW1  743   0.437   1.270   1.646
   61SOL    HW2  744   0.382   1.264   1.787
   62SOL     OW  745   1.108   1.781   0.224
   62SOL    HW1  746   1.052   1.740   0.291
   62SOL    HW2  747   1.128   1.710   0.164
   63SOL     OW  748   0.197   0.279   1.492
   63SOL    HW1  749   0.157   0.365   1.489
   63SOL    HW2  750   0.206   0.260   1.586
   64SOL     OW  751   1.633   1.373   0.082
   64SOL    HW1  752   1.592   1.460   0.081
   64SOL    HW2  753   1.562   1.312   0.064
   65SOL     OW  754   0.470   1.734   0.325
   65SOL    HW1  755   0.512   1.795   0.386
   65SOL    HW2  756   0.540   1.709   0.265
   66SOL     OW  757   1.414   0.100   0.445
   66SOL    HW1  758   1.405   0.079   0.352
   66SOL    HW2  759   1.506   0.127   0.455
   67SOL     OW  760   0.276   1.801   1.215
   67SOL    HW1  761   0.306   1.725   1.264
   67SOL    HW2  762   0.225   1.764   1.142
   68SOL     OW  763   0.938   1.699   0.899
   68SOL    HW1  764   1.016   1.646   0.920
   68SOL    HW2  765   0.894   1.649   0.831
   69SOL     OW  766   0.380   0.698   0.475
   69SOL    HW1  767   0.413   0.609   0.485
   69SOL    HW2  768   0.289   0.693   0.503
   70SOL     OW  769   1.540   0.228   1.724
   70SOL    HW1  770   1.547   0.246   1.817
   70SOL    HW2  771   1.465   0.169   1.716
   71SOL     OW  772   0.625   0.138   0.122
   71SOL    HW1  773   0.715   0.108   0.135
   71SOL    HW2  774   0.597   0.097   0.040
   72SOL     OW  775   0.783   0.313   1.766
   72SOL    HW1  776   0.841   0.237   1.767
   72SOL    HW2  777   0.734   0.307   1.848
   73SOL     OW  778   0.877   1.522   1.193
   73SOL    HW1  779   0.861   1.485   1.106
   73SOL    HW2  780   0.947   1.467   1.230
   74SOL     OW  781   1.341   0.589   1.432
   74SOL    HW1  782   1.372   0.557   1.517
   74SOL    HW2  783   1.377   0.677   1.425
   75SOL     OW  784   0.815   1.395   0.939
   75SOL    HW1  785   0.899   1.384   0.894
   75SOL    HW2  786   0.750   1.396   0.868
   76SOL     OW  787   0.927   0.510   0.903
   76SOL    HW1  788   0.904   0.502   0.810
   76SOL    HW2  789   0.959   0.423   0.928
   77SOL     OW  790   0.549   0.059   0.507
   77SOL    HW1  791   0.468   0.059   0.560
   77SOL    HW2  792   0.536   0.129   0.444
   78SOL     OW  793   1.433   1.199   0.036
   78SOL    HW1  794   1.458   1.125   0.092
   78SOL    HW2  795   1.345   1.223   0.066
   79SOL     OW  796   0.315   0.071   0.198
   79SOL    HW1  797   0.376   0.139   0.171
   79SOL    HW2  798   0.366   5.290   0.193
   80SOL     OW  799   0.944   0.257   0.455
   80SOL    HW1  800   0.917   0.303   0.375
   80SOL    HW2  801   1.037   0.279   0.464
   81SOL     OW  802   1.080   0.681   1.460
   81SOL    HW1  803   1.011   0.615   1.465
   81SOL    HW2  804   1.161   0.630   1.453
   82SOL     OW  805   1.224   1.569   0.794
   82SOL    HW1  806   1.240   1.637   0.728
   82SOL    HW2  807   1.292   1.583   0.860
   83SOL     OW  808   0.467   1.150   0.733
   83SOL    HW1  809   0.398   1.130   0.796
   83SOL    HW2  810   0.427   1.134   0.648
   84SOL     OW  811   1.269   1.794   0.606
   84SOL    HW1  812   1.317   1.857   0.553
   84SOL    HW2  813   1.202   1.847   0.651
   85SOL     OW  814   1.030   0.530   0.030
   85SOL    HW1  815   0.991   0.612   0.001
   85SOL    HW2  816   1.093   0.556   0.097
   86SOL     OW  817   0.097   0.532   1.411
   86SOL    HW1  818   0.178   0.550   1.363
   86SOL    HW2  819   0.077   0.613   1.457
   87SOL     OW  820   0.560   0.239   1.158
   87SOL    HW1  821   0.591   0.152   1.184
   87SOL    HW2  822   0.467   0.240   1.182
   88SOL     OW  823   0.868   0.461   0.639
   88SOL    HW1  824   0.824   0.514   0.574
   88SOL    HW2  825   0.889   0.379   0.595
   89SOL     OW  826   0.978   0.061   0.762
   89SOL    HW1  827   0.914   0.055   0.691
   89SOL    HW2  828   0.986   5.271   0.794
   90SOL     OW  829   1.437   1.163   0.857
   90SOL    HW1  830   1.368   1.096   0.856
   90SOL    HW2  831   1.460   1.175   0.765
   91SOL     OW  832   1.467   0.605   0.978
   91SOL    HW1  833   1.418   0.523   0.982
   91SOL    HW2  834   1.527   0.600   1.052
   92SOL     OW  835   1.848   0.816   0.387
   92SOL    HW1  836   1.900   0.763   0.448
   92SOL    HW2  837   1.817   0.754   0.321
   93SOL     OW  838   0.483   1.440   0.173
   93SOL    HW1  839   0.411   1.400   0.221
   93SOL    HW2  840   0.487   1.392   0.090
   94SOL     OW  841   1.670   1.266   0.648
   94SOL    HW1  842   1.765   1.270   0.661
   94SOL    HW2  843   1.639   1.354   0.669
   95SOL     OW  844   1.398   0.579   0.087
   95SOL    HW1  845   1.336   0.560   0.156
   95SOL    HW2  846   1.455   0.502   0.083
   96SOL     OW  847   0.523   0.268   0.328
   96SOL    HW1  848   0.565   0.212   0.262
   96SOL    HW2  849   0.507   0.351   0.282
   97SOL     OW  850   1.753   1.238   1.574
   97SOL    HW1  851   1.840   1.199   1.571
   97SOL    HW2  852   1.768   1.328   1.603
   98SOL     OW  853   1.059   1.353   1.334
   98SOL    HW1  854   0.984   1.322   1.385
   98SOL    HW2  855   1.135   1.312   1.375
   99SOL     OW  856   1.607   1.625   1.653
   99SOL    HW1  857   1.602   1.659   1.564
   99SOL    HW2  858   1.690   1.578   1.656
  100SOL     OW  859   1.128   1.203   1.106
  100SOL    HW1  860   1.069   1.241   1.171
  100SOL    HW2  861   1.095   1.235   1.022
  101SOL     OW  862   1.629   1.099   1.078
  101SOL    HW1  863   1.625   1.161   1.151
  101SOL    HW2  864   1.549   1.115   1.027
  102SOL     OW  865   0.906   0.106   1.391
  102SOL    HW1  866   0.936   0.072   1.307
  102SOL    HW2  867   0.983   0.148   1.429
  103SOL     OW  868   0.984   1.115   1.722
  103SOL    HW1  869   0.892   1.131   1.742
  103SOL    HW2  870   0.984   1.037   1.666
  104SOL     OW  871   0.713   1.061   0.380
  104SOL    HW1  872   0.697   1.045   0.474
  104SOL    HW2  873   0.791   1.010   0.360
  105SOL     OW  874   0.420   0.819   1.252
  105SOL    HW1  875   0.490   0.825   1.318
  105SOL    HW2  876   0.385   0.731   1.262
  106SOL     OW  877   1.267   0.379   1.272
  106SOL    HW1  878   1.300   0.456   1.319
  106SOL    HW2  879   1.177   0.401   1.249
  107SOL     OW  880   0.101   1.623   1.367
  107SOL    HW1  881   0.078   1.631   1.275
  107SOL    HW2  882   0.187   1.581   1.367
  108SOL     OW  883   0.345   1.107   0.488
  108SOL    HW1  884   0.347   1.186   0.435
  108SOL    HW2  885   0.362   1.036   0.427
  109SOL     OW  886   0.556   0.538   0.860
  109SOL    HW1  887   0.572   0.596   0.786
  109SOL    HW2  888   0.621   0.565   0.926
  110SOL     OW  889   1.247   1.347   0.393
  110SOL    HW1  890   1.303   1.420   0.422
  110SOL    HW2  891   1.160   1.370   0.425
  111SOL     OW  892   1.280   1.457   1.146
  111SOL    HW1  893   1.335   1.459   1.224
  111SOL    HW2  894   1.224   1.380   1.159
  112SOL     OW  895   1.583   0.626   0.480
  112SOL    HW1  896   1.534   0.676   0.545
  112SOL    HW2  897   1.619   0.692   0.421
  113SOL     OW  898   0.352   1.519   1.311
  113SOL    HW1  899   0.342   1.476   1.226
  113SOL    HW2  900   0.445   1.537   1.318
  114SOL     OW  901   0.414   0.741   1.602
  114SOL    HW1  902   0.472   0.790   1.544
  114SOL    HW2  903   0.459   0.658   1.618
  115SOL     OW  904   1.600   0.778   1.681
  115SOL    HW1  905   1.514   0.819   1.674
  115SOL    HW2  906   1.653   0.821   1.613
  116SOL     OW  907   1.042   0.116   1.782
  116SOL    HW1  908   1.068   0.195   1.735
  116SOL    HW2  909   1.050   0.046   1.717
  117SOL     OW  910   0.483   0.058   1.739
  117SOL    HW1  911   0.428   5.290   1.698
  117SOL    HW2  912   0.423   0.130   1.756
  118SOL     OW  913   0.586   0.873   1.032
  118SOL    HW1  914   0.616   0.964   1.030
  118SOL    HW2  915   0.529   0.869   1.109
  119SOL     OW  916   1.359   0.859   1.031
  119SOL    HW1  917   1.276   0.850   0.983
  119SOL    HW2  918   1.398   0.772   1.026
  120SOL     OW  919   1.203   0.527   0.270
  120SOL    HW1  920   1.211   0.447   0.322
  120SOL    HW2  921   1.162   0.590   0.329
  121SOL     OW  922   0.304   0.206   1.245
  121SOL    HW1  923   0.264   0.237   1.326
  121SOL    HW2  924   0.296   0.111   1.249
  122SOL     OW  925   0.070   1.319   1.281
  122SOL    HW1  926   0.090   1.259   1.353
  122SOL    HW2  927   0.002   1.376   1.316
  123SOL     OW  928   0.727   0.633   1.061
  123SOL    HW1  929   0.800   0.615   1.001
  123SOL    HW2  930   0.698   0.721   1.038
  124SOL     OW  931   1.734   0.959   1.852
  124SOL    HW1  932   1.687   0.899   1.794
  124SOL    HW2  933   1.675   0.972   1.926
  125SOL     OW  934   0.318   0.066   0.653
  125SOL    HW1  935   0.300   0.160   0.662
  125SOL    HW2  936   0.318   0.034   0.743
  126SOL     OW  937   1.620   0.377   0.368
  126SOL    HW1  938   1.647   0.311   0.432
  126SOL    HW2  939   1.594   0.453   0.421
  127SOL     OW  940   1.027   0.759   0.961
  127SOL    HW1  941   1.025   0.777   1.055
  127SOL    HW2  942   1.001   0.668   0.953
  128SOL     OW  943   0.982   1.566   1.716
  128SOL    HW1  944   0.967   1.610   1.633
  128SOL    HW2  945   1.026   1.484   1.692
  129SOL     OW  946   1.855   1.507   1.605
  129SOL    HW1  947   1.873   1.533   1.515
  129SOL    HW2  948   1.936   1.526   1.653
  130SOL     OW  949   0.353   0.917   1.806
  130SOL    HW1  950   0.434   0.937   1.853
  130SOL    HW2  951   0.379   0.853   1.740
  131SOL     OW  952   1.522   0.300   0.126
  131SOL    HW1  953   1.484   0.213   0.142
  131SOL    HW2  954   1.561   0.324   0.210
  132SOL     OW  955   1.294   0.825   0.022
  132SOL    HW1  956   1.333   0.739   0.039
  132SOL    HW2  957   1.354   0.865   8.039
  133SOL     OW  958   1.065   1.335   0.853
  133SOL    HW1  959   1.068   1.263   0.791
  133SOL    HW2  960   1.127   1.399   0.819
  134SOL     OW  961   0.315   0.810   0.949
  134SOL    HW1  962   0.409   0.828   0.945
  134SOL    HW2  963   0.309   0.720   0.981
  135SOL     OW  964   0.337   0.526   1.015
  135SOL    HW1  965   0.299   0.439   0.999
  135SOL    HW2  966   0.412   0.531   0.955
  136SOL     OW  967   1.136   0.378   1.687
  136SOL    HW1  968   1.088   0.433   1.750
  136SOL    HW2  969   1.223   0.417   1.683
  137SOL     OW  970   1.134   0.223   1.465
  137SOL    HW1  971   1.139   0.282   1.541
  137SOL    HW2  972   1.189   0.264   1.399
  138SOL     OW  973   0.008   1.330   0.202
  138SOL    HW1  974   5.232   1.319   0.145
  138SOL    HW2  975   0.014   1.247   0.250
  139SOL     OW  976   0.092   1.783   0.948
  139SOL    HW1  977   0.058   1.710   0.895
  139SOL    HW2  978   0.180   1.798   0.914
  140SOL     OW  979   0.505   1.573   0.907
  140SOL    HW1  980   0.572   1.638   0.928
  140SOL    HW2  981   0.548   1.511   0.848
  141SOL     OW  982   0.985   0.793   1.227
  141SOL    HW1  983   1.039   0.769   1.302
  141SOL    HW2  984   0.899   0.755   1.247
  142SOL     OW  985   0.036   0.565   1.119
  142SOL    HW1  986   0.117   0.533   1.079
  142SOL    HW2  987   0.039   0.533   1.209
  143SOL     OW  988   0.168   0.514   1.714
  143SOL    HW1  989   0.252   0.494   1.672
  143SOL    HW2  990   0.137   0.593   1.671
  144SOL     OW  991   1.376   0.940   1.659
  144SOL    HW1  992   1.398   1.033   1.657
  144SOL    HW2  993   1.374   0.914   1.567
  145SOL     OW  994   0.818   0.571   0.364
  145SOL    HW1  995   0.827   0.498   0.303
  145SOL    HW2  996   0.740   0.618   0.334
  146SOL     OW  997   1.643   0.601   1.187
  146SOL    HW1  998   1.631   0.542   1.261
  146SOL    HW2  999   1.730   0.581   1.153
  147SOL     OW 1000   0.257   1.556   1.735
  147SOL    HW1 1001   0.233   1.619   1.804
  147SOL    HW2 1002   0.249   1.470   1.777
  148SOL     OW 1003   0.696   0.454   1.262
  148SOL    HW1 1004   0.647   0.379   1.228
  148SOL    HW2 1005   0.697   0.517   1.191
  149SOL     OW 1006   0.929   1.679   1.467
  149SOL    HW1 1007   0.902   1.645   1.382
  149SOL    HW2 1008   0.925   1.774   1.458
  150SOL     OW 1009   0.469   0.491   0.176
  150SOL    HW1 1010   0.535   0.557   0.195
  150SOL    HW2 1011   0.386   0.534   0.195
  151SOL     OW 1012   0.148   1.138   1.471
  151SOL    HW1 1013   0.147   1.088   1.553
  151SOL    HW2 1014   0.161   1.071   1.403
  152SOL     OW 1015   1.327   1.048   1.224
  152SOL    HW1 1016   1.350   0.984   1.156
  152SOL    HW2 1017   1.256   1.099   1.185
  153SOL     OW 1018   1.306   0.849   0.308
  153SOL    HW1 1019   1.229   0.820   0.357
  153SOL    HW2 1020   1.282   0.837   0.216
  154SOL     OW 1021   1.770   1.745   1.149
  154SOL    HW1 1022   1.831   1.771   1.080
  154SOL    HW2 1023   1.747   1.655   1.129
  155SOL     OW 1024   1.241   1.733   1.114
  155SOL    HW1 1025   1.323   1.753   1.069
  155SOL    HW2 1026   1.246   1.639   1.132
  156SOL     OW 1027   0.083   1.219   1.027
  156SOL    HW1 1028   0.069   1.244   1.119
  156SOL    HW2 1029   5.295   1.207   0.992
  157SOL     OW 1030   0.678   1.665   1.728
  157SOL    HW1 1031   0.623   1.744   1.723
  157SOL    HW2 1032   0.742   1.676   1.657
  158SOL     OW 1033   0.893   0.086   0.139
  158SOL    HW1 1034   0.942   0.078   0.057
  158SOL    HW2 1035   0.913   0.006   0.187
  159SOL     OW 1036   1.713   0.148   0.505
  159SOL    HW1 1037   1.787   0.126   0.448
  159SOL    HW2 1038   1.704   0.073   0.563
  160SOL     OW 1039   1.389   1.568   0.485
  160SOL    HW1 1040   1.453   1.601   0.421
  160SOL    HW2 1041   1.342   1.646   0.514
  161SOL     OW 1042   0.144   1.798   1.843
  161SOL    HW1 1043   0.090   1.735   1.889
  161SOL    HW2 1044   0.190   1.846   1.912
  162SOL     OW 1045   1.277   0.925   0.671
  162SOL    HW1 1046   1.350   0.864   0.677
  162SOL    HW2 1047   1.310   0.998   0.619
  163SOL     OW 1048   0.816   1.273   1.430
  163SOL    HW1 1049   0.788   1.312   1.513
  163SOL    HW2 1050   0.746   1.294   1.369
  164SOL     OW 1051   0.678   1.619   0.155
  164SOL    HW1 1052   0.681   1.627   0.060
  164SOL    HW2 1053   0.617   1.547   0.172
  165SOL     OW 1054   1.628   1.726   1.391
  165SOL    HW1 1055   1.677   1.734   1.310
  165SOL    HW2 1056   1.614   1.817   1.419
  166SOL     OW 1057   1.845   0.158   0.958
  166SOL    HW1 1058   1.846   0.063   0.942
  166SOL    HW2 1059   1.758   0.186   0.930
  167SOL     OW 1060   0.271   0.329   0.719
  167SOL    HW1 1061   0.184   0.366   0.701
  167SOL    HW2 1062   0.271   0.313   0.813
  168SOL     OW 1063   1.156   1.582   0.051
  168SOL    HW1 1064   1.173   1.489   0.070
  168SOL    HW2 1065   1.167   1.589   8.036
  169SOL     OW 1066   0.824   1.006   1.372
  169SOL    HW1 1067   0.868   1.001   1.287
  169SOL    HW2 1068   0.824   1.099   1.395
  170SOL     OW 1069   0.917   0.913   0.296
  170SOL    HW1 1070   0.972   0.938   0.222
  170SOL    HW2 1071   0.965   0.842   0.338
  171SOL     OW 1072   1.510   1.624   0.060
  171SOL    HW1 1073   1.415   1.625   0.050
  171SOL    HW2 1074   1.544   1.624   8.051
  172SOL     OW 1075   0.368   1.303   1.493
  172SOL    HW1 1076   0.359   1.378   1.434
  172SOL    HW2 1077   0.292   1.249   1.473
  173SOL     OW 1078   1.611   1.283   1.281
  173SOL    HW1 1079   1.670   1.273   1.355
  173SOL    HW2 1080   1.551   1.352   1.307
  174SOL     OW 1081   1.050   1.107   0.706
  174SOL    HW1 1082   0.980   1.055   0.746
  174SOL    HW2 1083   1.113   1.042   0.673
  175SOL     OW 1084   1.020   0.242   0.968
  175SOL    HW1 1085   1.000   0.197   0.886
  175SOL    HW2 1086   1.012   0.175   1.035
  176SOL     OW 1087   0.602   1.487   0.480
  176SOL    HW1 1088   0.644   1.438   0.409
  176SOL    HW2 1089   0.535   1.539   0.436
  177SOL     OW 1090   1.723   0.387   1.378
  177SOL    HW1 1091   1.793   0.452   1.378
  177SOL    HW2 1092   1.755   0.317   1.321
  178SOL     OW 1093   0.268   1.326   0.299
  178SOL    HW1 1094   0.182   1.337   0.258
  178SOL    HW2 1095   0.261   1.372   0.383
  179SOL     OW 1096   0.115   1.016   1.718
  179SOL    HW1 1097   0.044   0.982   1.772
  179SOL    HW2 1098   0.195   0.985   1.761
  180SOL     OW 1099   0.674   0.213   1.488
  180SOL    HW1 1100   0.757   0.196   1.445
  180SOL    HW2 1101   0.697   0.259   1.569
  181SOL     OW 1102   0.087   0.354   0.008
  181SOL    HW1 1103   0.002   0.320   0.035
  181SOL    HW2 1104   0.067   0.438   8.047
  182SOL     OW 1105   1.430   0.858   1.401
  182SOL    HW1 1106   1.382   0.919   1.345
  182SOL    HW2 1107   1.520   0.861   1.367
  183SOL     OW 1108   0.079   0.141   0.291
  183SOL    HW1 1109   0.077   0.236   0.280
  183SOL    HW2 1110   0.168   0.115   0.266
  184SOL     OW 1111   1.185   1.319   0.122
  184SOL    HW1 1112   1.089   1.308   0.122
  184SOL    HW2 1113   1.208   1.321   0.214
  185SOL     OW 1114   0.619   0.831   1.435
  185SOL    HW1 1115   0.674   0.907   1.419
  185SOL    HW2 1116   0.681   0.758   1.443
  186SOL     OW 1117   1.484   1.776   0.977
  186SOL    HW1 1118   1.509   1.835   0.906
  186SOL    HW2 1119   1.566   1.758   1.023
  187SOL     OW 1120   0.714   0.572   1.704
  187SOL    HW1 1121   0.755   0.636   1.762
  187SOL    HW2 1122   0.747   0.488   1.734
  188SOL     OW 1123   1.471   1.201   1.632
  188SOL    HW1 1124   1.459   1.214   1.726
  188SOL    HW2 1125   1.564   1.215   1.618
  189SOL     OW 1126   0.379   1.742   1.564
  189SOL    HW1 1127   0.296   1.787   1.549
  189SOL    HW2 1128   0.354   1.661   1.609
  190SOL     OW 1129   1.670   0.881   1.255
  190SOL    HW1 1130   1.663   0.796   1.213
  190SOL    HW2 1131   1.661   0.945   1.184
  191SOL     OW 1132   1.216   0.328   0.473
  191SOL    HW1 1133   1.275   0.254   0.457
  191SOL    HW2 1134   1.256   0.374   0.547
  192SOL     OW 1135   0.589   0.738   0.668
  192SOL    HW1 1136   0.629   0.824   0.653
  192SOL    HW2 1137   0.519   0.732   0.604
  193SOL     OW 1138   1.767   0.361   1.648
  193SOL    HW1 1139   1.747   0.375   1.556
  193SOL    HW2 1140   1.696   0.305   1.680
  194SOL     OW 1141   1.744   0.934   1.512
  194SOL    HW1 1142   1.743   1.028   1.525
  194SOL    HW2 1143   1.729   0.922   1.418
  195SOL     OW 1144   0.892   1.372   0.033
  195SOL    HW1 1145   0.829   1.365   0.105
  195SOL    HW2 1146   0.879   1.461   8.079
  196SOL     OW 1147   0.662   1.794   0.945
  196SOL    HW1 1148   0.641   1.885   0.921
  196SOL    HW2 1149   0.758   1.789   0.938
  197SOL     OW 1150   0.867   0.966   0.855
  197SOL    HW1 1151   0.917   0.895   0.895
  197SOL    HW2 1152   0.833   1.016   0.929
  198SOL     OW 1153   1.076   0.977   0.085
  198SOL    HW1 1154   1.068   1.041   0.014
  198SOL    HW2 1155   1.154   0.927   0.062
  199SOL     OW 1156   1.855   1.555   0.845
  199SOL    HW1 1157   1.777   1.544   0.790
  199SOL    HW2 1158   1.846   1.488   0.913
  200SOL     OW 1159   0.225   1.305   1.859
  200SOL    HW1 1160   0.156   1.243   1.834
  200SOL    HW2 1161   0.213   1.316   1.954
  201SOL     OW 1162   0.093   1.232   0.659
  201SOL    HW1 1163   0.097   1.188   0.744
  201SOL    HW2 1164   0.170   1.202   0.612
  202SOL     OW 1165   0.681   1.402   1.628
  202SOL    HW1 1166   0.600   1.359   1.657
  202SOL    HW2 1167   0.676   1.490   1.664
  203SOL     OW 1168   1.815   0.178   1.233
  203SOL    HW1 1169   1.783   0.088   1.240
  203SOL    HW2 1170   1.832   0.190   1.140
  204SOL     OW 1171   0.430   0.439   0.521
  204SOL    HW1 1172   0.464   0.366   0.470
  204SOL    HW2 1173   0.386   0.398   0.596
  205SOL     OW 1174   1.701   1.490   1.097
  205SOL    HW1 1175   1.620   1.466   1.053
  205SOL    HW2 1176   1.713   1.421   1.163
  206SOL     OW 1177   0.336   0.560   1.289
  206SOL    HW1 1178   0.392   0.502   1.339
  206SOL    HW2 1179   0.349   0.533   1.198
  207SOL     OW 1180   0.827   1.577   0.678
  207SOL    HW1 1181   0.816   1.629   0.599
  207SOL    HW2 1182   0.750   1.521   0.681
  208SOL     OW 1183   1.428   0.218   1.117
  208SOL    HW1 1184   1.465   0.143   1.164
  208SOL    HW2 1185   1.380   0.267   1.183
  209SOL     OW 1186   1.001   0.021   1.142
  209SOL    HW1 1187   0.951   5.253   1.098
  209SOL    HW2 1188   1.088   5.283   1.154
  210SOL     OW 1189   0.771   1.327   0.307
  210SOL    HW1 1190   0.739   1.238   0.322
  210SOL    HW2 1191   0.852   1.332   0.357
  211SOL     OW 1192   0.622   1.557   1.287
  211SOL    HW1 1193   0.624   1.639   1.336
  211SOL    HW2 1194   0.709   1.551   1.247
  212SOL     OW 1195   1.393   0.043   0.170
  212SOL    HW1 1196   1.386   0.027   0.076
  212SOL    HW2 1197   1.304   0.068   0.197
  213SOL     OW 1198   1.308   0.467   0.690
  213SOL    HW1 1199   1.249   0.542   0.693
  213SOL    HW2 1200   1.297   0.424   0.775
  214SOL     OW 1201   1.595   0.216   0.882
  214SOL    HW1 1202   1.527   0.227   0.949
  214SOL    HW2 1203   1.587   0.294   0.827
  215SOL     OW 1204   0.045   1.076   0.311
  215SOL    HW1 1205   0.134   1.049   0.290
  215SOL    HW2 1206   5.298   0.993   0.322
  216SOL     OW 1207   0.883   1.652   0.347
  216SOL    HW1 1208   0.814   1.636   0.282
  216SOL    HW2 1209   0.852   1.728   0.396
  217SOL     OW 1210   0.233   0.633   1.979
  217SOL    HW1 1211   0.156   0.607   2.030
  217SOL    HW2 1212   0.215   0.600   1.891
  218SOL     OW 1213   0.232   0.280   2.852
  218SOL    HW1 1214   0.252   0.244   2.938
  218SOL    HW2 1215   0.152   0.236   2.824
  219SOL     OW 1216   0.000   0.406   2.525
  219SOL    HW1 1217   5.207   0.427   2.530
  219SOL    HW2 1218   0.003   0.315   2.494
  220SOL     OW 1219   0.573   1.283   3.042
  220SOL    HW1 1220   0.490   1.291   2.995
  220SOL    HW2 1221   0.590   1.370   3.077
  221SOL     OW 1222   1.560   1.511   2.568
  221SOL    HW1 1223   1.517   1.493   2.652
  221SOL    HW2 1224   1.488   1.516   2.505
  222SOL     OW 1225   1.130   0.698   2.564
  222SOL    HW1 1226   1.180   0.779   2.549
  222SOL    HW2 1227   1.083   0.713   2.646
  223SOL     OW 1228   1.766   0.606   2.091
  223SOL    HW1 1229   1.746   0.598   1.998
  223SOL    HW2 1230   1.731   0.526   2.130
  224SOL     OW 1231   0.756   1.142   2.900
  224SOL    HW1 1232   0.689   1.176   2.959
  224SOL    HW2 1233   0.791   1.219   2.857
  225SOL     OW 1234   0.863   0.779   3.683
  225SOL    HW1 1235   0.856   0.851   3.746
  225SOL    HW2 1236   0.888   0.821   3.601
  226SOL     OW 1237   0.685   1.004   2.510
  226SOL    HW1 1238   0.751   0.991   2.578
  226SOL    HW2 1239   0.617   1.056   2.552
  227SOL     OW 1240   0.709   1.151   3.674
  227SOL    HW1 1241   0.757   1.229   3.700
  227SOL    HW2 1242   0.626   1.184   3.638
  228SOL     OW 1243   0.358   1.405   2.921
  228SOL    HW1 1244   0.270   1.405   2.884
  228SOL    HW2 1245   0.407   1.468   2.868
  229SOL     OW 1246   1.461   1.499   3.215
  229SOL    HW1 1247   1.511   1.580   3.223
  229SOL    HW2 1248   1.402   1.499   3.290
  230SOL     OW 1249   0.448   0.400   3.354
  230SOL    HW1 1250   0.527   0.346   3.347
  230SOL    HW2 1251   0.377   0.337   3.360
  231SOL     OW 1252   1.611   0.452   2.600
  231SOL    HW1 1253   1.535   0.476   2.547
  231SOL    HW2 1254   1.631   0.530   2.651
  232SOL     OW 1255   0.230   1.714   2.339
  232SOL    HW1 1256   0.265   1.783   2.397
  232SOL    HW2 1257   0.292   1.711   2.267
  233SOL     OW 1258   1.136   1.341   3.554
  233SOL    HW1 1259   1.177   1.337   3.640
  233SOL    HW2 1260   1.084   1.261   3.548
  234SOL     OW 1261   0.222   1.443   2.401
  234SOL    HW1 1262   0.214   1.539   2.398
  234SOL    HW2 1263   0.152   1.415   2.460
  235SOL     OW 1264   0.249   1.078   2.738
  235SOL    HW1 1265   0.260   0.993   2.781
  235SOL    HW2 1266   0.198   1.130   2.800
  236SOL     OW 1267   0.614   1.790   3.295
  236SOL    HW1 1268   0.530   1.773   3.337
  236SOL    HW2 1269   0.635   1.881   3.317
  237SOL     OW 1270   0.584   0.983   1.996
  237SOL    HW1 1271   0.629   1.031   1.927
  237SOL    HW2 1272   0.626   1.012   2.077
  238SOL     OW 1273   1.586   0.134   3.319
  238SOL    HW1 1274   1.606   0.219   3.280
  238SOL    HW2 1275   1.585   0.151   3.413
  239SOL     OW 1276   0.124   0.637   2.439
  239SOL    HW1 1277   0.090   0.554   2.471
  239SOL    HW2 1278   0.098   0.701   2.505
  240SOL     OW 1279   1.842   1.759   2.198
  240SOL    HW1 1280   1.905   1.730   2.264
  240SOL    HW2 1281   1.867   1.850   2.179
  241SOL     OW 1282   0.037   1.599   1.993
  241SOL    HW1 1283   0.024   1.507   2.018
  241SOL    HW2 1284   5.283   1.648   2.054
  242SOL     OW 1285   1.688   0.918   2.502
  242SOL    HW1 1286   1.773   0.877   2.482
  242SOL    HW2 1287   1.668   0.969   2.423
  243SOL     OW 1288   1.646   1.107   2.291
  243SOL    HW1 1289   1.731   1.113   2.249
  243SOL    HW2 1290   1.651   1.168   2.365
  244SOL     OW 1291   0.129   0.748   3.449
  244SOL    HW1 1292   0.224   0.763   3.451
  244SOL    HW2 1293   0.091   0.835   3.463
  245SOL     OW 1294   0.615   1.384   2.597
  245SOL    HW1 1295   0.567   1.302   2.607
  245SOL    HW2 1296   0.597   1.411   2.506
  246SOL     OW 1297   1.289   1.238   3.286
  246SOL    HW1 1298   1.321   1.171   3.226
  246SOL    HW2 1299   1.346   1.232   3.362
  247SOL     OW 1300   0.813   0.025   2.387
  247SOL    HW1 1301   0.841   0.114   2.364
  247SOL    HW2 1302   0.718   0.028   2.380
  248SOL     OW 1303   0.177   0.947   3.140
  248SOL    HW1 1304   0.268   0.918   3.130
  248SOL    HW2 1305   0.134   0.922   3.058
  249SOL     OW 1306   1.532   0.993   2.060
  249SOL    HW1 1307   1.462   0.936   2.091
  249SOL    HW2 1308   1.572   1.027   2.139
  250SOL     OW 1309   1.184   1.805   3.484
  250SOL    HW1 1310   1.198   1.864   3.410
  250SOL    HW2 1311   1.201   1.718   3.448
  251SOL     OW 1312   0.326   0.274   3.659
  251SOL    HW1 1313   0.386   0.336   3.700
  251SOL    HW2 1314   0.245   0.281   3.710
  252SOL     OW 1315   1.466   1.419   2.814
  252SOL    HW1 1316   1.398   1.435   2.879
  252SOL    HW2 1317   1.454   1.328   2.787
  253SOL     OW 1318   1.659   1.738   2.440
  253SOL    HW1 1319   1.639   1.708   2.351
  253SOL    HW2 1320   1.634   1.664   2.496
  254SOL     OW 1321   0.594   0.721   2.127
  254SOL    HW1 1322   0.603   0.802   2.076
  254SOL    HW2 1323   0.530   0.742   2.194
  255SOL     OW 1324   1.278   0.346   2.792
  255SOL    HW1 1325   1.188   0.317   2.805
  255SOL    HW2 1326   1.328   0.296   2.858
  256SOL     OW 1327   1.581   1.669   2.171
  256SOL    HW1 1328   1.671   1.702   2.165
  256SOL    HW2 1329   1.555   1.652   2.080
  257SOL     OW 1330   0.794   0.617   3.313
  257SOL    HW1 1331   0.766   0.596   3.402
  257SOL    HW2 1332   0.751   0.552   3.258
  258SOL     OW 1333   1.394   0.475   3.540
  258SOL    HW1 1334   1.396   0.519   3.625
  258SOL    HW2 1335   1.459   0.404   3.549
  259SOL     OW 1336   0.955   0.888   3.444
  259SOL    HW1 1337   1.010   0.817   3.409
  259SOL    HW2 1338   0.908   0.921   3.368
  260SOL     OW 1339   0.994   0.417   3.098
  260SOL    HW1 1340   0.909   0.439   3.137
  260SOL    HW2 1341   0.971   0.368   3.019
  261SOL     OW 1342   1.050   0.698   2.289
  261SOL    HW1 1343   1.066   0.691   2.383
  261SOL    HW2 1344   0.968   0.652   2.275
  262SOL     OW 1345   0.072   0.788   2.675
  262SOL    HW1 1346   0.154   0.793   2.723
  262SOL    HW2 1347   0.062   0.874   2.635
  263SOL     OW 1348   0.131   1.882   3.446
  263SOL    HW1 1349   0.133   1.851   3.537
  263SOL    HW2 1350   0.058   1.835   3.406
  264SOL     OW 1351   0.871   0.363   2.050
  264SOL    HW1 1352   0.916   0.422   1.990
  264SOL    HW2 1353   0.924   0.283   2.048
  265SOL     OW 1354   1.708   0.575   3.690
  265SOL    HW1 1355   1.671   0.649   3.642
  265SOL    HW2 1356   1.737   0.515   3.622
  266SOL     OW 1357   1.376   1.142   2.403
  266SOL    HW1 1358   1.455   1.129   2.351
  266SOL    HW2 1359   1.324   1.204   2.353
  267SOL     OW 1360   0.538   0.201   2.745
  267SOL    HW1 1361   0.554   0.219   2.838
  267SOL    HW2 1362   0.550   0.286   2.702
  268SOL     OW 1363   1.006   1.444   2.334
  268SOL    HW1 1364   0.968   1.517   2.285
  268SOL    HW2 1365   0.991   1.466   2.426
  269SOL     OW 1366   0.356   1.802   2.731
  269SOL    HW1 1367   0.397   1.716   2.744
  269SOL    HW2 1368   0.423   1.865   2.758
  270SOL     OW 1369   1.799   1.057   2.730
  270SOL    HW1 1370   1.743   1.041   2.654
  270SOL    HW2 1371   1.737   1.063   2.803
  271SOL     OW 1372   1.228   1.539   3.376
  271SOL    HW1 1373   1.214   1.465   3.435
  271SOL    HW2 1374   1.166   1.524   3.304
  272SOL     OW 1375   0.317   0.952   2.109
  272SOL    HW1 1376   0.399   0.976   2.066
  272SOL    HW2 1377   0.294   0.867   2.072
  273SOL     OW 1378   1.477   0.742   2.589
  273SOL    HW1 1379   1.469   0.698   2.674
  273SOL    HW2 1380   1.555   0.797   2.599
  274SOL     OW 1381   0.464   1.263   3.599
  274SOL    HW1 1382   0.437   1.269   3.508
  274SOL    HW2 1383   0.382   1.264   3.649
  275SOL     OW 1384   1.121   1.778   2.093
  275SOL    HW1 1385   1.049   1.735   2.139
  275SOL    HW2 1386   1.144   1.717   2.023
  276SOL     OW 1387   0.198   0.279   3.354
  276SOL    HW1 1388   0.157   0.366   3.351
  276SOL    HW2 1389   0.206   0.260   3.448
  277SOL     OW 1390   1.629   1.379   1.949
  277SOL    HW1 1391   1.588   1.465   1.934
  277SOL    HW2 1392   1.559   1.316   1.930
  278SOL     OW 1393   0.471   1.735   2.182
  278SOL    HW1 1394   0.513   1.793   2.246
  278SOL    HW2 1395   0.543   1.705   2.126
  279SOL     OW 1396   1.406   0.100   2.293
  279SOL    HW1 1397   1.398   0.082   2.199
  279SOL    HW2 1398   1.499   0.122   2.305
  280SOL     OW 1399   0.275   1.801   3.077
  280SOL    HW1 1400   0.307   1.725   3.125
  280SOL    HW2 1401   0.226   1.765   3.004
  281SOL     OW 1402   0.939   1.698   2.762
  281SOL    HW1 1403   1.017   1.647   2.782
  281SOL    HW2 1404   0.894   1.649   2.693
  282SOL     OW 1405   0.385   0.696   2.341
  282SOL    HW1 1406   0.415   0.605   2.349
  282SOL    HW2 1407   0.292   0.693   2.362
  283SOL     OW 1408   1.540   0.228   3.586
  283SOL    HW1 1409   1.547   0.246   3.679
  283SOL    HW2 1410   1.465   0.169   3.578
  284SOL     OW 1411   0.621   0.133   1.969
  284SOL    HW1 1412   0.689   0.070   1.993
  284SOL    HW2 1413   0.574   0.091   1.896
  285SOL     OW 1414   0.783   0.313   3.628
  285SOL    HW1 1415   0.841   0.237   3.629
  285SOL    HW2 1416   0.734   0.307   3.710
  286SOL     OW 1417   0.877   1.521   3.056
  286SOL    HW1 1418   0.861   1.485   2.968
  286SOL    HW2 1419   0.947   1.467   3.091
  287SOL     OW 1420   1.341   0.589   3.294
  287SOL    HW1 1421   1.372   0.558   3.379
  287SOL    HW2 1422   1.377   0.677   3.286
  288SOL     OW 1423   0.815   1.395   2.801
  288SOL    HW1 1424   0.899   1.384   2.756
  288SOL    HW2 1425   0.751   1.396   2.730
  289SOL     OW 1426   0.927   0.510   2.766
  289SOL    HW1 1427   0.904   0.502   2.673
  289SOL    HW2 1428   0.959   0.423   2.790
  290SOL     OW 1429   0.547   0.059   2.366
  290SOL    HW1 1430   0.468   0.060   2.420
  290SOL    HW2 1431   0.535   0.131   2.305
  291SOL     OW 1432   1.428   1.198   1.903
  291SOL    HW1 1433   1.459   1.122   1.953
  291SOL    HW2 1434   1.343   1.219   1.941
  292SOL     OW 1435   0.314   0.063   2.046
  292SOL    HW1 1436   0.379   0.129   2.024
  292SOL    HW2 1437   0.364   5.282   2.060
  293SOL     OW 1438   0.939   0.261   2.325
  293SOL    HW1 1439   0.911   0.299   2.241
  293SOL    HW2 1440   1.034   0.272   2.325
  294SOL     OW 1441   1.080   0.681   3.322
  294SOL    HW1 1442   1.012   0.614   3.327
  294SOL    HW2 1443   1.162   0.631   3.315
  295SOL     OW 1444   1.224   1.569   2.656
  295SOL    HW1 1445   1.241   1.637   2.590
  295SOL    HW2 1446   1.292   1.583   2.722
  296SOL     OW 1447   0.467   1.150   2.594
  296SOL    HW1 1448   0.398   1.130   2.658
  296SOL    HW2 1449   0.427   1.131   2.509
  297SOL     OW 1450   1.269   1.794   2.469
  297SOL    HW1 1451   1.315   1.855   2.411
  297SOL    HW2 1452   1.204   1.847   2.514
  298SOL     OW 1453   1.026   0.547   1.884
  298SOL    HW1 1454   0.984   0.631   1.865
  298SOL    HW2 1455   1.090   0.567   1.952
  299SOL     OW 1456   0.096   0.532   3.272
  299SOL    HW1 1457   0.178   0.551   3.225
  299SOL    HW2 1458   0.077   0.614   3.319
  300SOL     OW 1459   0.560   0.239   3.020
  300SOL    HW1 1460   0.591   0.152   3.046
  300SOL    HW2 1461   0.468   0.239   3.044
  301SOL     OW 1462   0.868   0.463   2.503
  301SOL    HW1 1463   0.821   0.515   2.438
  301SOL    HW2 1464   0.890   0.382   2.457
  302SOL     OW 1465   0.979   0.060   2.624
  302SOL    HW1 1466   0.914   0.055   2.554
  302SOL    HW2 1467   0.987   5.271   2.657
  303SOL     OW 1468   1.437   1.163   2.720
  303SOL    HW1 1469   1.368   1.096   2.717
  303SOL    HW2 1470   1.461   1.175   2.628
  304SOL     OW 1471   1.467   0.605   2.841
  304SOL    HW1 1472   1.418   0.522   2.844
  304SOL    HW2 1473   1.527   0.600   2.914
  305SOL     OW 1474   1.846   0.817   2.244
  305SOL    HW1 1475   1.902   0.766   2.302
  305SOL    HW2 1476   1.817   0.755   2.177
  306SOL     OW 1477   0.492   1.416   2.021
  306SOL    HW1 1478   0.417   1.388   2.073
  306SOL    HW2 1479   0.474   1.384   1.933
  307SOL     OW 1480   1.669   1.264   2.509
  307SOL    HW1 1481   1.764   1.268   2.522
  307SOL    HW2 1482   1.639   1.352   2.530
  308SOL     OW 1483   1.394   0.572   1.933
  308SOL    HW1 1484   1.333   0.553   2.005
  308SOL    HW2 1485   1.479   0.541   1.965
  309SOL     OW 1486   0.522   0.265   2.183
  309SOL    HW1 1487   0.568   0.216   2.114
  309SOL    HW2 1488   0.504   0.350   2.143
  310SOL     OW 1489   1.753   1.238   3.437
  310SOL    HW1 1490   1.841   1.200   3.431
  310SOL    HW2 1491   1.769   1.329   3.464
  311SOL     OW 1492   1.059   1.353   3.195
  311SOL    HW1 1493   0.984   1.322   3.247
  311SOL    HW2 1494   1.135   1.312   3.237
  312SOL     OW 1495   1.608   1.624   3.514
  312SOL    HW1 1496   1.602   1.660   3.426
  312SOL    HW2 1497   1.692   1.578   3.517
  313SOL     OW 1498   1.127   1.202   2.968
  313SOL    HW1 1499   1.069   1.241   3.033
  313SOL    HW2 1500   1.095   1.235   2.884
  314SOL     OW 1501   1.629   1.098   2.940
  314SOL    HW1 1502   1.624   1.160   3.012
  314SOL    HW2 1503   1.550   1.116   2.889
  315SOL     OW 1504   0.906   0.106   3.253
  315SOL    HW1 1505   0.936   0.073   3.169
  315SOL    HW2 1506   0.982   0.148   3.291
  316SOL     OW 1507   0.984   1.114   3.585
  316SOL    HW1 1508   0.892   1.131   3.604
  316SOL    HW2 1509   0.984   1.037   3.528
  317SOL     OW 1510   0.707   1.059   2.234
  317SOL    HW1 1511   0.696   1.045   2.328
  317SOL    HW2 1512   0.784   1.007   2.211
  318SOL     OW 1513   0.420   0.819   3.114
  318SOL    HW1 1514   0.490   0.825   3.180
  318SOL    HW2 1515   0.385   0.731   3.124
  319SOL     OW 1516   1.267   0.379   3.134
  319SOL    HW1 1517   1.300   0.456   3.181
  319SOL    HW2 1518   1.177   0.401   3.111
  320SOL     OW 1519   0.101   1.623   3.230
  320SOL    HW1 1520   0.078   1.633   3.137
  320SOL    HW2 1521   0.187   1.581   3.229
  321SOL     OW 1522   0.344   1.105   2.350
  321SOL    HW1 1523   0.354   1.184   2.297
  321SOL    HW2 1524   0.354   1.033   2.288
  322SOL     OW 1525   0.556   0.538   2.722
  322SOL    HW1 1526   0.571   0.596   2.648
  322SOL    HW2 1527   0.620   0.565   2.787
  323SOL     OW 1528   1.248   1.348   2.251
  323SOL    HW1 1529   1.304   1.420   2.282
  323SOL    HW2 1530   1.161   1.369   2.285
  324SOL     OW 1531   1.280   1.457   3.009
  324SOL    HW1 1532   1.336   1.460   3.086
  324SOL    HW2 1533   1.225   1.380   3.023
  325SOL     OW 1534   1.582   0.623   2.340
  325SOL    HW1 1535   1.536   0.678   2.404
  325SOL    HW2 1536   1.628   0.685   2.283
  326SOL     OW 1537   0.352   1.519   3.173
  326SOL    HW1 1538   0.342   1.476   3.088
  326SOL    HW2 1539   0.445   1.537   3.180
  327SOL     OW 1540   0.414   0.741   3.464
  327SOL    HW1 1541   0.472   0.790   3.406
  327SOL    HW2 1542   0.460   0.659   3.480
  328SOL     OW 1543   1.600   0.778   3.543
  328SOL    HW1 1544   1.514   0.819   3.536
  328SOL    HW2 1545   1.652   0.820   3.475
  329SOL     OW 1546   1.041   0.116   3.643
  329SOL    HW1 1547   1.068   0.195   3.597
  329SOL    HW2 1548   1.050   0.046   3.579
  330SOL     OW 1549   0.483   0.058   3.601
  330SOL    HW1 1550   0.428   5.290   3.560
  330SOL    HW2 1551   0.422   0.130   3.618
  331SOL     OW 1552   0.585   0.874   2.894
  331SOL    HW1 1553   0.617   0.964   2.892
  331SOL    HW2 1554   0.529   0.869   2.971
  332SOL     OW 1555   1.359   0.859   2.893
  332SOL    HW1 1556   1.276   0.850   2.845
  332SOL    HW2 1557   1.398   0.772   2.888
  333SOL     OW 1558   1.206   0.529   2.130
  333SOL    HW1 1559   1.211   0.448   2.181
  333SOL    HW2 1560   1.164   0.592   2.188
  334SOL     OW 1561   0.305   0.206   3.107
  334SOL    HW1 1562   0.264   0.238   3.188
  334SOL    HW2 1563   0.294   0.111   3.110
  335SOL     OW 1564   0.070   1.319   3.143
  335SOL    HW1 1565   0.090   1.259   3.215
  335SOL    HW2 1566   0.002   1.376   3.178
  336SOL     OW 1567   0.727   0.632   2.923
  336SOL    HW1 1568   0.800   0.614   2.864
  336SOL    HW2 1569   0.698   0.721   2.900
  337SOL     OW 1570   1.734   0.959   3.714
  337SOL    HW1 1571   1.688   0.900   3.655
  337SOL    HW2 1572   1.674   0.972   3.788
  338SOL     OW 1573   0.318   0.067   2.515
  338SOL    HW1 1574   0.299   0.161   2.524
  338SOL    HW2 1575   0.320   0.034   2.605
  339SOL     OW 1576   1.611   0.374   2.228
  339SOL    HW1 1577   1.645   0.311   2.292
  339SOL    HW2 1578   1.591   0.452   2.280
  340SOL     OW 1579   1.027   0.759   2.823
  340SOL    HW1 1580   1.025   0.777   2.917
  340SOL    HW2 1581   1.001   0.668   2.815
  341SOL     OW 1582   0.981   1.565   3.578
  341SOL    HW1 1583   0.967   1.610   3.495
  341SOL    HW2 1584   1.026   1.484   3.554
  342SOL     OW 1585   1.856   1.506   3.467
  342SOL    HW1 1586   1.871   1.534   3.376
  342SOL    HW2 1587   1.938   1.528   3.512
  343SOL     OW 1588   0.353   0.916   3.669
  343SOL    HW1 1589   0.434   0.937   3.715
  343SOL    HW2 1590   0.380   0.853   3.602
  344SOL     OW 1591   1.527   0.272   1.988
  344SOL    HW1 1592   1.463   0.208   2.019
  344SOL    HW2 1593   1.563   0.311   2.068
  345SOL     OW 1594   1.292   0.827   1.894
  345SOL    HW1 1595   1.335   0.741   1.897
  345SOL    HW2 1596   1.323   0.866   1.812
  346SOL     OW 1597   1.066   1.335   2.716
  346SOL    HW1 1598   1.069   1.263   2.653
  346SOL    HW2 1599   1.128   1.400   2.681
  347SOL     OW 1600   0.315   0.811   2.812
  347SOL    HW1 1601   0.409   0.828   2.808
  347SOL    HW2 1602   0.309   0.720   2.843
  348SOL     OW 1603   0.336   0.526   2.877
  348SOL    HW1 1604   0.299   0.439   2.860
  348SOL    HW2 1605   0.411   0.531   2.817
  349SOL     OW 1606   1.135   0.378   3.550
  349SOL    HW1 1607   1.088   0.433   3.612
  349SOL    HW2 1608   1.223   0.417   3.545
  350SOL     OW 1609   1.134   0.223   3.327
  350SOL    HW1 1610   1.139   0.282   3.403
  350SOL    HW2 1611   1.189   0.265   3.261
  351SOL     OW 1612   0.001   1.330   2.072
  351SOL    HW1 1613   5.226   1.321   2.014
  351SOL    HW2 1614   0.012   1.244   2.112
  352SOL     OW 1615   0.092   1.782   2.812
  352SOL    HW1 1616   0.059   1.711   2.757
  352SOL    HW2 1617   0.180   1.800   2.777
  353SOL     OW 1618   0.505   1.573   2.769
  353SOL    HW1 1619   0.572   1.638   2.790
  353SOL    HW2 1620   0.549   1.512   2.710
  354SOL     OW 1621   0.985   0.793   3.089
  354SOL    HW1 1622   1.040   0.769   3.164
  354SOL    HW2 1623   0.899   0.756   3.110
  355SOL     OW 1624   0.036   0.564   2.980
  355SOL    HW1 1625   0.118   0.533   2.942
  355SOL    HW2 1626   0.039   0.534   3.071
  356SOL     OW 1627   0.168   0.514   3.576
  356SOL    HW1 1628   0.252   0.494   3.534
  356SOL    HW2 1629   0.137   0.593   3.533
  357SOL     OW 1630   1.376   0.940   3.521
  357SOL    HW1 1631   1.398   1.033   3.519
  357SOL    HW2 1632   1.374   0.914   3.428
  358SOL     OW 1633   0.814   0.571   2.223
  358SOL    HW1 1634   0.818   0.497   2.162
  358SOL    HW2 1635   0.740   0.624   2.191
  359SOL     OW 1636   1.642   0.601   3.049
  359SOL    HW1 1637   1.631   0.542   3.123
  359SOL    HW2 1638   1.729   0.581   3.014
  360SOL     OW 1639   0.257   1.556   3.597
  360SOL    HW1 1640   0.233   1.619   3.666
  360SOL    HW2 1641   0.249   1.470   3.639
  361SOL     OW 1642   0.696   0.454   3.124
  361SOL    HW1 1643   0.647   0.379   3.089
  361SOL    HW2 1644   0.696   0.517   3.053
  362SOL     OW 1645   0.928   1.679   3.329
  362SOL    HW1 1646   0.902   1.646   3.243
  362SOL    HW2 1647   0.925   1.774   3.320
  363SOL     OW 1648   0.464   0.493   2.043
  363SOL    HW1 1649   0.527   0.562   2.066
  363SOL    HW2 1650   0.380   0.537   2.037
  364SOL     OW 1651   0.148   1.138   3.333
  364SOL    HW1 1652   0.147   1.088   3.415
  364SOL    HW2 1653   0.161   1.071   3.265
  365SOL     OW 1654   1.326   1.047   3.086
  365SOL    HW1 1655   1.350   0.984   3.018
  365SOL    HW2 1656   1.255   1.099   3.047
  366SOL     OW 1657   1.310   0.857   2.169
  366SOL    HW1 1658   1.234   0.826   2.218
  366SOL    HW2 1659   1.286   0.843   2.077
  367SOL     OW 1660   1.762   1.744   3.006
  367SOL    HW1 1661   1.830   1.770   2.943
  367SOL    HW2 1662   1.745   1.652   2.986
  368SOL     OW 1663   1.241   1.733   2.975
  368SOL    HW1 1664   1.323   1.753   2.931
  368SOL    HW2 1665   1.247   1.639   2.994
  369SOL     OW 1666   0.083   1.218   2.889
  369SOL    HW1 1667   0.069   1.244   2.981
  369SOL    HW2 1668   5.294   1.207   2.855
  370SOL     OW 1669   0.678   1.665   3.590
  370SOL    HW1 1670   0.623   1.744   3.585
  370SOL    HW2 1671   0.742   1.676   3.520
  371SOL     OW 1672   1.712   0.147   2.365
  371SOL    HW1 1673   1.788   0.127   2.310
  371SOL    HW2 1674   1.705   0.073   2.425
  372SOL     OW 1675   1.390   1.568   2.346
  372SOL    HW1 1676   1.451   1.600   2.279
  372SOL    HW2 1677   1.342   1.646   2.374
  373SOL     OW 1678   0.144   1.798   3.705
  373SOL    HW1 1679   0.090   1.735   3.751
  373SOL    HW2 1680   0.190   1.846   3.774
  374SOL     OW 1681   1.277   0.925   2.533
  374SOL    HW1 1682   1.351   0.864   2.539
  374SOL    HW2 1683   1.311   0.998   2.481
  375SOL     OW 1684   0.816   1.272   3.293
  375SOL    HW1 1685   0.788   1.312   3.375
  375SOL    HW2 1686   0.746   1.295   3.231
  376SOL     OW 1687   0.672   1.619   2.017
  376SOL    HW1 1688   0.682   1.631   1.923
  376SOL    HW2 1689   0.618   1.540   2.025
  377SOL     OW 1690   1.626   1.726   3.252
  377SOL    HW1 1691   1.676   1.734   3.170
  377SOL    HW2 1692   1.614   1.816   3.281
  378SOL     OW 1693   1.845   0.158   2.820
  378SOL    HW1 1694   1.846   0.063   2.804
  378SOL    HW2 1695   1.758   0.186   2.792
  379SOL     OW 1696   0.270   0.328   2.580
  379SOL    HW1 1697   0.184   0.366   2.564
  379SOL    HW2 1698   0.272   0.313   2.675
  380SOL     OW 1699   1.207   1.607   1.893
  380SOL    HW1 1700   1.198   1.515   1.920
  380SOL    HW2 1701   1.142   1.618   1.824
  381SOL     OW 1702   0.824   1.006   3.234
  381SOL    HW1 1703   0.868   1.001   3.149
  381SOL    HW2 1704   0.824   1.099   3.257
  382SOL     OW 1705   0.915   0.910   2.152
  382SOL    HW1 1706   0.976   0.942   2.085
  382SOL    HW2 1707   0.963   0.841   2.197
  383SOL     OW 1708   1.492   1.625   1.904
  383SOL    HW1 1709   1.398   1.619   1.891
  383SOL    HW2 1710   1.529   1.631   1.816
  384SOL     OW 1711   0.368   1.303   3.355
  384SOL    HW1 1712   0.359   1.378   3.296
  384SOL    HW2 1713   0.292   1.249   3.335
  385SOL     OW 1714   1.610   1.282   3.142
  385SOL    HW1 1715   1.673   1.275   3.214
  385SOL    HW2 1716   1.551   1.352   3.170
  386SOL     OW 1717   1.051   1.106   2.567
  386SOL    HW1 1718   0.980   1.055   2.607
  386SOL    HW2 1719   1.113   1.041   2.536
  387SOL     OW 1720   1.020   0.243   2.830
  387SOL    HW1 1721   1.000   0.197   2.748
  387SOL    HW2 1722   1.012   0.175   2.897
  388SOL     OW 1723   0.601   1.487   2.343
  388SOL    HW1 1724   0.645   1.439   2.274
  388SOL    HW2 1725   0.535   1.540   2.298
  389SOL     OW 1726   1.723   0.387   3.240
  389SOL    HW1 1727   1.793   0.452   3.240
  389SOL    HW2 1728   1.755   0.317   3.183
  390SOL     OW 1729   0.260   1.348   2.154
  390SOL    HW1 1730   0.167   1.350   2.131
  390SOL    HW2 1731   0.264   1.385   2.242
  391SOL     OW 1732   0.115   1.015   3.580
  391SOL    HW1 1733   0.044   0.982   3.634
  391SOL    HW2 1734   0.195   0.985   3.623
  392SOL     OW 1735   0.674   0.213   3.350
  392SOL    HW1 1736   0.757   0.196   3.307
  392SOL    HW2 1737   0.697   0.259   3.431
  393SOL     OW 1738   0.078   0.338   1.899
  393SOL    HW1 1739   5.287   0.311   1.886
  393SOL    HW2 1740   0.093   0.405   1.833
  394SOL     OW 1741   1.430   0.858   3.263
  394SOL    HW1 1742   1.382   0.919   3.207
  394SOL    HW2 1743   1.520   0.861   3.229
  395SOL     OW 1744   0.083   0.141   2.157
  395SOL    HW1 1745   0.076   0.235   2.138
  395SOL    HW2 1746   0.170   0.116   2.126
  396SOL     OW 1747   1.179   1.340   1.979
  396SOL    HW1 1748   1.088   1.310   1.982
  396SOL    HW2 1749   1.208   1.340   2.070
  397SOL     OW 1750   0.619   0.831   3.297
  397SOL    HW1 1751   0.674   0.908   3.281
  397SOL    HW2 1752   0.681   0.758   3.305
  398SOL     OW 1753   1.486   1.775   2.840
  398SOL    HW1 1754   1.510   1.834   2.769
  398SOL    HW2 1755   1.567   1.760   2.888
  399SOL     OW 1756   0.714   0.572   3.566
  399SOL    HW1 1757   0.755   0.636   3.624
  399SOL    HW2 1758   0.747   0.488   3.596
  400SOL     OW 1759   1.471   1.201   3.494
  400SOL    HW1 1760   1.459   1.215   3.588
  400SOL    HW2 1761   1.564   1.215   3.479
  401SOL     OW 1762   0.379   1.742   3.426
  401SOL    HW1 1763   0.296   1.788   3.411
  401SOL    HW2 1764   0.354   1.661   3.471
  402SOL     OW 1765   1.670   0.881   3.117
  402SOL    HW1 1766   1.663   0.796   3.074
  402SOL    HW2 1767   1.661   0.945   3.047
  403SOL     OW 1768   1.221   0.319   2.327
  403SOL    HW1 1769   1.284   0.248   2.320
  403SOL    HW2 1770   1.251   0.371   2.402
  404SOL     OW 1771   0.590   0.738   2.531
  404SOL    HW1 1772   0.629   0.824   2.515
  404SOL    HW2 1773   0.521   0.731   2.465
  405SOL     OW 1774   1.767   0.361   3.511
  405SOL    HW1 1775   1.747   0.375   3.418
  405SOL    HW2 1776   1.696   0.305   3.542
  406SOL     OW 1777   1.744   0.934   3.375
  406SOL    HW1 1778   1.744   1.028   3.388
  406SOL    HW2 1779   1.729   0.922   3.281
  407SOL     OW 1780   0.862   1.367   1.895
  407SOL    HW1 1781   0.824   1.396   1.978
  407SOL    HW2 1782   0.881   1.449   1.848
  408SOL     OW 1783   0.662   1.794   2.806
  408SOL    HW1 1784   0.641   1.885   2.784
  408SOL    HW2 1785   0.758   1.789   2.800
  409SOL     OW 1786   0.867   0.966   2.717
  409SOL    HW1 1787   0.917   0.895   2.757
  409SOL    HW2 1788   0.833   1.016   2.791
  410SOL     OW 1789   1.078   0.987   1.950
  410SOL    HW1 1790   1.058   1.039   1.872
  410SOL    HW2 1791   1.154   0.934   1.925
  411SOL     OW 1792   1.856   1.554   2.706
  411SOL    HW1 1793   1.776   1.544   2.653
  411SOL    HW2 1794   1.845   1.491   2.777
  412SOL     OW 1795   0.225   1.305   3.721
  412SOL    HW1 1796   0.156   1.243   3.696
  412SOL    HW2 1797   0.213   1.316   3.816
  413SOL     OW 1798   0.087   1.221   2.516
  413SOL    HW1 1799   0.099   1.188   2.606
  413SOL    HW2 1800   0.173   1.212   2.476
  414SOL     OW 1801   0.681   1.401   3.490
  414SOL    HW1 1802   0.600   1.359   3.520
  414SOL    HW2 1803   0.676   1.490   3.525
  415SOL     OW 1804   1.815   0.178   3.095
  415SOL    HW1 1805   1.783   0.088   3.102
  415SOL    HW2 1806   1.832   0.190   3.002
  416SOL     OW 1807   0.432   0.436   2.384
  416SOL    HW1 1808   0.463   0.362   2.332
  416SOL    HW2 1809   0.387   0.395   2.458
  417SOL     OW 1810   1.703   1.487   2.956
  417SOL    HW1 1811   1.620   1.463   2.914
  417SOL    HW2 1812   1.715   1.420   3.024
  418SOL     OW 1813   0.335   0.559   3.151
  418SOL    HW1 1814   0.392   0.502   3.202
  418SOL    HW2 1815   0.350   0.533   3.060
  419SOL     OW 1816   0.828   1.577   2.540
  419SOL    HW1 1817   0.817   1.630   2.461
  419SOL    HW2 1818   0.750   1.521   2.543
  420SOL     OW 1819   1.428   0.218   2.978
  420SOL    HW1 1820   1.465   0.144   3.026
  420SOL    HW2 1821   1.380   0.268   3.044
  421SOL     OW 1822   1.002   0.021   3.004
  421SOL    HW1 1823   0.951   5.252   2.960
  421SOL    HW2 1824   1.089   5.284   3.016
  422SOL     OW 1825   0.771   1.332   2.176
  422SOL    HW1 1826   0.741   1.242   2.182
  422SOL    HW2 1827   0.854   1.333   2.225
  423SOL     OW 1828   0.622   1.557   3.149
  423SOL    HW1 1829   0.624   1.639   3.198
  423SOL    HW2 1830   0.709   1.550   3.109
  424SOL     OW 1831   1.354   0.040   2.023
  424SOL    HW1 1832   1.387   5.297   1.944
  424SOL    HW2 1833   1.276   5.290   2.047
  425SOL     OW 1834   1.301   0.463   2.547
  425SOL    HW1 1835   1.246   0.542   2.553
  425SOL    HW2 1836   1.294   0.423   2.634
  426SOL     OW 1837   1.594   0.216   2.744
  426SOL    HW1 1838   1.527   0.227   2.811
  426SOL    HW2 1839   1.587   0.294   2.689
  427SOL     OW 1840   0.047   1.069   2.152
  427SOL    HW1 1841   0.137   1.038   2.142
  427SOL    HW2 1842   5.300   0.993   2.187
  428SOL     OW 1843   0.884   1.651   2.205
  428SOL    HW1 1844   0.811   1.635   2.144
  428SOL    HW2 1845   0.856   1.727   2.256
  429SOL     OW 1846   0.233   0.633   3.841
  429SOL    HW1 1847   0.156   0.607   3.892
  429SOL    HW2 1848   0.215   0.600   3.753
  430SOL     OW 1849   0.232   0.280   4.714
  430SOL    HW1 1850   0.252   0.244   4.800
  430SOL    HW2 1851   0.152   0.236   4.686
  431SOL     OW 1852   0.000   0.406   4.388
  431SOL    HW1 1853   5.207   0.427   4.392
  431SOL    HW2 1854   0.003   0.315   4.356
  432SOL     OW 1855   0.573   1.283   4.904
  432SOL    HW1 1856   0.490   1.291   4.857
  432SOL    HW2 1857   0.590   1.370   4.939
  433SOL     OW 1858   1.560   1.511   4.430
  433SOL    HW1 1859   1.517   1.492   4.514
  433SOL    HW2 1860   1.489   1.516   4.367
  434SOL     OW 1861   1.131   0.698   4.426
  434SOL    HW1 1862   1.180   0.779   4.411
  434SOL    HW2 1863   1.084   0.713   4.508
  435SOL     OW 1864   1.766   0.607   3.953
  435SOL    HW1 1865   1.746   0.599   3.860
  435SOL    HW2 1866   1.731   0.526   3.992
  436SOL     OW 1867   0.756   1.142   4.762
  436SOL    HW1 1868   0.689   1.176   4.821
  436SOL    HW2 1869   0.791   1.219   4.719
  437SOL     OW 1870   0.863   0.779   5.545
  437SOL    HW1 1871   0.856   0.851   5.608
  437SOL    HW2 1872   0.888   0.821   5.463
  438SOL     OW 1873   0.685   1.004   4.372
  438SOL    HW1 1874   0.751   0.991   4.440
  438SOL    HW2 1875   0.617   1.056   4.413
  439SOL     OW 1876   0.709   1.151   5.536
  439SOL    HW1 1877   0.757   1.229   5.562
  439SOL    HW2 1878   0.626   1.184   5.500
  440SOL     OW 1879   0.358   1.405   4.784
  440SOL    HW1 1880   0.270   1.405   4.746
  440SOL    HW2 1881   0.407   1.468   4.730
  441SOL     OW 1882   1.461   1.499   5.077
  441SOL    HW1 1883   1.511   1.580   5.086
  441SOL    HW2 1884   1.402   1.499   5.152
  442SOL     OW 1885   0.448   0.400   5.216
  442SOL    HW1 1886   0.527   0.346   5.209
  442SOL    HW2 1887   0.377   0.337   5.222
  443SOL     OW 1888   1.611   0.452   4.462
  443SOL    HW1 1889   1.535   0.476   4.408
  443SOL    HW2 1890   1.631   0.530   4.513
  444SOL     OW 1891   0.230   1.714   4.201
  444SOL    HW1 1892   0.265   1.783   4.259
  444SOL    HW2 1893   0.292   1.711   4.128
  445SOL     OW 1894   1.136   1.341   5.416
  445SOL    HW1 1895   1.177   1.337   5.503
  445SOL    HW2 1896   1.084   1.261   5.410
  446SOL     OW 1897   0.222   1.443   4.263
  446SOL    HW1 1898   0.214   1.539   4.260
  446SOL    HW2 1899   0.152   1.415   4.322
  447SOL     OW 1900   0.249   1.078   4.600
  447SOL    HW1 1901   0.260   0.993   4.643
  447SOL    HW2 1902   0.198   1.130   4.662
  448SOL     OW 1903   0.615   1.790   5.157
  448SOL    HW1 1904   0.530   1.773   5.199
  448SOL    HW2 1905   0.635   1.881   5.179
  449SOL     OW 1906   0.584   0.983   3.858
  449SOL    HW1 1907   0.629   1.031   3.789
  449SOL    HW2 1908   0.626   1.012   3.939
  450SOL     OW 1909   1.586   0.134   5.181
  450SOL    HW1 1910   1.606   0.219   5.142
  450SOL    HW2 1911   1.585   0.151   5.275
  451SOL     OW 1912   0.124   0.637   4.301
  451SOL    HW1 1913   0.090   0.554   4.333
  451SOL    HW2 1914   0.098   0.701   4.367
  452SOL     OW 1915   1.842   1.761   4.059
  452SOL    HW1 1916   1.903   1.734   4.127
  452SOL    HW2 1917   1.865   1.852   4.039
  453SOL     OW 1918   0.038   1.599   3.855
  453SOL    HW1 1919   0.024   1.507   3.880
  453SOL    HW2 1920   5.283   1.648   3.916
  454SOL     OW 1921   1.689   0.918   4.364
  454SOL    HW1 1922   1.773   0.877   4.344
  454SOL    HW2 1923   1.668   0.969   4.285
  455SOL     OW 1924   1.646   1.107   4.154
  455SOL    HW1 1925   1.731   1.113   4.111
  455SOL    HW2 1926   1.651   1.168   4.227
  456SOL     OW 1927   0.129   0.748   5.311
  456SOL    HW1 1928   0.224   0.763   5.313
  456SOL    HW2 1929   0.091   0.835   5.325
  457SOL     OW 1930   0.615   1.384   4.459
  457SOL    HW1 1931   0.567   1.302   4.469
  457SOL    HW2 1932   0.597   1.411   4.368
  458SOL     OW 1933   1.289   1.238   5.148
  458SOL    HW1 1934   1.321   1.171   5.088
  458SOL    HW2 1935   1.346   1.232   5.224
  459SOL     OW 1936   0.813   0.025   4.249
  459SOL    HW1 1937   0.841   0.114   4.226
  459SOL    HW2 1938   0.718   0.028   4.242
  460SOL     OW 1939   0.177   0.947   5.002
  460SOL    HW1 1940   0.268   0.918   4.992
  460SOL    HW2 1941   0.134   0.922   4.920
  461SOL     OW 1942   1.531   0.993   3.922
  461SOL    HW1 1943   1.462   0.936   3.953
  461SOL    HW2 1944   1.572   1.027   4.002
  462SOL     OW 1945   1.185   1.805   5.346
  462SOL    HW1 1946   1.197   1.864   5.271
  462SOL    HW2 1947   1.201   1.718   5.310
  463SOL     OW 1948   0.326   0.274   5.521
  463SOL    HW1 1949   0.386   0.336   5.562
  463SOL    HW2 1950   0.245   0.281   5.572
  464SOL     OW 1951   1.466   1.420   4.676
  464SOL    HW1 1952   1.398   1.435   4.741
  464SOL    HW2 1953   1.454   1.329   4.649
  465SOL     OW 1954   1.661   1.736   4.301
  465SOL    HW1 1955   1.638   1.707   4.213
  465SOL    HW2 1956   1.635   1.663   4.358
  466SOL     OW 1957   0.595   0.721   3.989
  466SOL    HW1 1958   0.603   0.802   3.938
  466SOL    HW2 1959   0.530   0.742   4.056
  467SOL     OW 1960   1.278   0.346   4.655
  467SOL    HW1 1961   1.188   0.317   4.667
  467SOL    HW2 1962   1.328   0.296   4.720
  468SOL     OW 1963   1.580   1.669   4.033
  468SOL    HW1 1964   1.670   1.702   4.026
  468SOL    HW2 1965   1.554   1.652   3.943
  469SOL     OW 1966   0.794   0.617   5.175
  469SOL    HW1 1967   0.766   0.596   5.264
  469SOL    HW2 1968   0.751   0.552   5.120
  470SOL     OW 1969   1.394   0.475   5.402
  470SOL    HW1 1970   1.396   0.519   5.487
  470SOL    HW2 1971   1.459   0.404   5.411
  471SOL     OW 1972   0.955   0.888   5.306
  471SOL    HW1 1973   1.010   0.817   5.271
  471SOL    HW2 1974   0.908   0.921   5.230
  472SOL     OW 1975   0.994   0.417   4.960
  472SOL    HW1 1976   0.909   0.439   4.999
  472SOL    HW2 1977   0.971   0.368   4.881
  473SOL     OW 1978   1.050   0.698   4.151
  473SOL    HW1 1979   1.066   0.691   4.245
  473SOL    HW2 1980   0.968   0.652   4.136
  474SOL     OW 1981   0.072   0.788   4.537
  474SOL    HW1 1982   0.154   0.793   4.585
  474SOL    HW2 1983   0.062   0.874   4.497
  475SOL     OW 1984   0.131   1.882   5.308
  475SOL    HW1 1985   0.133   1.851   5.399
  475SOL    HW2 1986   0.058   1.835   5.268
  476SOL     OW 1987   0.871   0.363   3.912
  476SOL    HW1 1988   0.916   0.422   3.852
  476SOL    HW2 1989   0.924   0.283   3.910
  477SOL     OW 1990   1.708   0.575   5.552
  477SOL    HW1 1991   1.671   0.649   5.504
  477SOL    HW2 1992   1.737   0.515   5.484
  478SOL     OW 1993   1.376   1.142   4.265
  478SOL    HW1 1994   1.455   1.129   4.213
  478SOL    HW2 1995   1.324   1.204   4.215
  479SOL     OW 1996   0.538   0.201   4.607
  479SOL    HW1 1997   0.554   0.219   4.700
  479SOL    HW2 1998   0.550   0.286   4.565
  480SOL     OW 1999   1.006   1.444   4.197
  480SOL    HW1 2000   0.968   1.516   4.147
  480SOL    HW2 2001   0.990   1.466   4.288
  481SOL     OW 2002   0.356   1.802   4.593
  481SOL    HW1 2003   0.397   1.716   4.606
  481SOL    HW2 2004   0.423   1.865   4.620
  482SOL     OW 2005   1.799   1.058   4.591
  482SOL    HW1 2006   1.743   1.041   4.515
  482SOL    HW2 2007   1.737   1.063   4.665
  483SOL     OW 2008   1.228   1.539   5.237
  483SOL    HW1 2009   1.214   1.466   5.297
  483SOL    HW2 2010   1.166   1.524   5.166
  484SOL     OW 2011   0.317   0.952   3.971
  484SOL    HW1 2012   0.399   0.976   3.928
  484SOL    HW2 2013   0.295   0.867   3.934
  485SOL     OW 2014   1.477   0.742   4.451
  485SOL    HW1 2015   1.469   0.698   4.536
  485SOL    HW2 2016   1.555   0.797   4.461
  486SOL     OW 2017   0.464   1.263   5.461
  486SOL    HW1 2018   0.437   1.270   5.370
  486SOL    HW2 2019   0.382   1.264   5.511
  487SOL     OW 2020   1.121   1.777   3.955
  487SOL    HW1 2021   1.049   1.734   4.001
  487SOL    HW2 2022   1.144   1.717   3.885
  488SOL     OW 2023   0.198   0.279   5.216
  488SOL    HW1 2024   0.157   0.366   5.213
  488SOL    HW2 2025   0.206   0.260   5.310
  489SOL     OW 2026   1.628   1.380   3.812
  489SOL    HW1 2027   1.588   1.465   3.796
  489SOL    HW2 2028   1.560   1.316   3.792
  490SOL     OW 2029   0.471   1.735   4.044
  490SOL    HW1 2030   0.513   1.793   4.107
  490SOL    HW2 2031   0.543   1.705   3.988
  491SOL     OW 2032   1.406   0.100   4.155
  491SOL    HW1 2033   1.398   0.082   4.061
  491SOL    HW2 2034   1.499   0.122   4.167
  492SOL     OW 2035   0.275   1.801   4.939
  492SOL    HW1 2036   0.307   1.724   4.987
  492SOL    HW2 2037   0.226   1.765   4.866
  493SOL     OW 2038   0.939   1.698   4.624
  493SOL    HW1 2039   1.017   1.646   4.643
  493SOL    HW2 2040   0.894   1.649   4.555
  494SOL     OW 2041   0.385   0.696   4.203
  494SOL    HW1 2042   0.415   0.605   4.211
  494SOL    HW2 2043   0.292   0.693   4.224
  495SOL     OW 2044   1.540   0.228   5.448
  495SOL    HW1 2045   1.547   0.246   5.541
  495SOL    HW2 2046   1.465   0.169   5.440
  496SOL     OW 2047   0.621   0.133   3.831
  496SOL    HW1 2048   0.690   0.070   3.855
  496SOL    HW2 2049   0.574   0.091   3.759
  497SOL     OW 2050   0.783   0.313   5.490
  497SOL    HW1 2051   0.841   0.237   5.491
  497SOL    HW2 2052   0.734   0.307   5.572
  498SOL     OW 2053   0.877   1.521   4.918
  498SOL    HW1 2054   0.861   1.486   4.830
  498SOL    HW2 2055   0.947   1.467   4.954
  499SOL     OW 2056   1.341   0.589   5.156
  499SOL    HW1 2057   1.372   0.558   5.241
  499SOL    HW2 2058   1.377   0.677   5.149
  500SOL     OW 2059   0.815   1.395   4.663
  500SOL    HW1 2060   0.899   1.385   4.618
  500SOL    HW2 2061   0.750   1.396   4.592
  501SOL     OW 2062   0.927   0.510   4.628
  501SOL    HW1 2063   0.904   0.502   4.535
  501SOL    HW2 2064   0.959   0.423   4.652
  502SOL     OW 2065   0.547   0.059   4.228
  502SOL    HW1 2066   0.468   0.060   4.282
  502SOL    HW2 2067   0.535   0.131   4.167
  503SOL     OW 2068   1.428   1.198   3.765
  503SOL    HW1 2069   1.459   1.122   3.815
  503SOL    HW2 2070   1.343   1.219   3.803
  504SOL     OW 2071   0.314   0.063   3.908
  504SOL    HW1 2072   0.380   0.129   3.887
  504SOL    HW2 2073   0.364   5.282   3.922
  505SOL     OW 2074   0.939   0.261   4.187
  505SOL    HW1 2075   0.911   0.299   4.103
  505SOL    HW2 2076   1.034   0.272   4.187
  506SOL     OW 2077   1.080   0.681   5.184
  506SOL    HW1 2078   1.012   0.614   5.189
  506SOL    HW2 2079   1.162   0.630   5.177
  507SOL     OW 2080   1.224   1.570   4.518
  507SOL    HW1 2081   1.240   1.637   4.452
  507SOL    HW2 2082   1.292   1.583   4.583
  508SOL     OW 2083   0.467   1.149   4.456
  508SOL    HW1 2084   0.398   1.130   4.519
  508SOL    HW2 2085   0.428   1.131   4.371
  509SOL     OW 2086   1.269   1.794   4.331
  509SOL    HW1 2087   1.315   1.855   4.274
  509SOL    HW2 2088   1.204   1.848   4.376
  510SOL     OW 2089   1.026   0.547   3.746
  510SOL    HW1 2090   0.984   0.631   3.727
  510SOL    HW2 2091   1.090   0.567   3.814
  511SOL     OW 2092   0.096   0.532   5.134
  511SOL    HW1 2093   0.178   0.551   5.087
  511SOL    HW2 2094   0.077   0.614   5.181
  512SOL     OW 2095   0.560   0.239   4.882
  512SOL    HW1 2096   0.591   0.152   4.908
  512SOL    HW2 2097   0.468   0.239   4.906
  513SOL     OW 2098   0.868   0.463   4.365
  513SOL    HW1 2099   0.821   0.515   4.300
  513SOL    HW2 2100   0.890   0.382   4.319
  514SOL     OW 2101   0.979   0.060   4.486
  514SOL    HW1 2102   0.914   0.055   4.416
  514SOL    HW2 2103   0.987   5.271   4.519
  515SOL     OW 2104   1.437   1.163   4.582
  515SOL    HW1 2105   1.368   1.096   4.579
  515SOL    HW2 2106   1.461   1.175   4.490
  516SOL     OW 2107   1.467   0.605   4.703
  516SOL    HW1 2108   1.418   0.522   4.706
  516SOL    HW2 2109   1.527   0.600   4.776
  517SOL     OW 2110   1.846   0.817   4.106
  517SOL    HW1 2111   1.902   0.766   4.164
  517SOL    HW2 2112   1.817   0.755   4.039
  518SOL     OW 2113   0.492   1.416   3.883
  518SOL    HW1 2114   0.417   1.388   3.935
  518SOL    HW2 2115   0.474   1.384   3.795
  519SOL     OW 2116   1.670   1.264   4.371
  519SOL    HW1 2117   1.765   1.269   4.384
  519SOL    HW2 2118   1.639   1.353   4.392
  520SOL     OW 2119   1.394   0.572   3.795
  520SOL    HW1 2120   1.333   0.553   3.867
  520SOL    HW2 2121   1.479   0.541   3.827
  521SOL     OW 2122   0.522   0.265   4.045
  521SOL    HW1 2123   0.568   0.216   3.976
  521SOL    HW2 2124   0.504   0.350   4.005
  522SOL     OW 2125   1.753   1.238   5.299
  522SOL    HW1 2126   1.840   1.200   5.294
  522SOL    HW2 2127   1.768   1.329   5.327
  523SOL     OW 2128   1.059   1.353   5.058
  523SOL    HW1 2129   0.984   1.322   5.109
  523SOL    HW2 2130   1.135   1.312   5.099
  524SOL     OW 2131   1.607   1.625   5.377
  524SOL    HW1 2132   1.602   1.659   5.288
  524SOL    HW2 2133   1.690   1.578   5.380
  525SOL     OW 2134   1.127   1.202   4.830
  525SOL    HW1 2135   1.069   1.241   4.895
  525SOL    HW2 2136   1.095   1.235   4.746
  526SOL     OW 2137   1.629   1.098   4.802
  526SOL    HW1 2138   1.624   1.160   4.874
  526SOL    HW2 2139   1.550   1.115   4.751
  527SOL     OW 2140   0.906   0.106   5.115
  527SOL    HW1 2141   0.936   0.073   5.030
  527SOL    HW2 2142   0.982   0.148   5.153
  528SOL     OW 2143   0.984   1.114   5.446
  528SOL    HW1 2144   0.892   1.131   5.466
  528SOL    HW2 2145   0.984   1.037   5.390
  529SOL     OW 2146   0.707   1.059   4.096
  529SOL    HW1 2147   0.696   1.044   4.190
  529SOL    HW2 2148   0.784   1.007   4.073
  530SOL     OW 2149   0.420   0.819   4.976
  530SOL    HW1 2150   0.490   0.825   5.042
  530SOL    HW2 2151   0.385   0.731   4.986
  531SOL     OW 2152   1.267   0.379   4.996
  531SOL    HW1 2153   1.300   0.456   5.043
  531SOL    HW2 2154   1.177   0.401   4.973
  532SOL     OW 2155   0.101   1.623   5.091
  532SOL    HW1 2156   0.078   1.632   4.999
  532SOL    HW2 2157   0.187   1.581   5.091
  533SOL     OW 2158   0.344   1.105   4.212
  533SOL    HW1 2159   0.354   1.184   4.160
  533SOL    HW2 2160   0.354   1.033   4.150
  534SOL     OW 2161   0.556   0.538   4.584
  534SOL    HW1 2162   0.571   0.596   4.510
  534SOL    HW2 2163   0.620   0.565   4.649
  535SOL     OW 2164   1.248   1.348   4.113
  535SOL    HW1 2165   1.304   1.420   4.144
  535SOL    HW2 2166   1.161   1.369   4.147
  536SOL     OW 2167   1.280   1.457   4.871
  536SOL    HW1 2168   1.336   1.460   4.948
  536SOL    HW2 2169   1.225   1.380   4.884
  537SOL     OW 2170   1.582   0.623   4.202
  537SOL    HW1 2171   1.536   0.679   4.265
  537SOL    HW2 2172   1.628   0.685   4.145
  538SOL     OW 2173   0.352   1.519   5.035
  538SOL    HW1 2174   0.342   1.476   4.950
  538SOL    HW2 2175   0.445   1.537   5.042
  539SOL     OW 2176   0.414   0.741   5.326
  539SOL    HW1 2177   0.472   0.790   5.268
  539SOL    HW2 2178   0.460   0.659   5.342
  540SOL     OW 2179   1.600   0.778   5.405
  540SOL    HW1 2180   1.514   0.819   5.398
  540SOL    HW2 2181   1.652   0.820   5.337
  541SOL     OW 2182   1.041   0.116   5.505
  541SOL    HW1 2183   1.068   0.195   5.458
  541SOL    HW2 2184   1.050   0.046   5.441
  542SOL     OW 2185   0.483   0.058   5.463
  542SOL    HW1 2186   0.428   5.290   5.422
  542SOL    HW2 2187   0.422   0.130   5.480
  543SOL     OW 2188   0.585   0.873   4.756
  543SOL    HW1 2189   0.617   0.964   4.754
  543SOL    HW2 2190   0.529   0.869   4.833
  544SOL     OW 2191   1.359   0.859   4.755
  544SOL    HW1 2192   1.276   0.850   4.707
  544SOL    HW2 2193   1.398   0.772   4.750
  545SOL     OW 2194   1.206   0.529   3.992
  545SOL    HW1 2195   1.211   0.448   4.043
  545SOL    HW2 2196   1.164   0.592   4.050
  546SOL     OW 2197   0.305   0.206   4.969
  546SOL    HW1 2198   0.264   0.238   5.050
  546SOL    HW2 2199   0.294   0.111   4.972
  547SOL     OW 2200   0.070   1.319   5.005
  547SOL    HW1 2201   0.090   1.259   5.077
  547SOL    HW2 2202   0.002   1.376   5.040
  548SOL     OW 2203   0.727   0.632   4.785
  548SOL    HW1 2204   0.800   0.614   4.725
  548SOL    HW2 2205   0.698   0.721   4.762
  549SOL     OW 2206   1.734   0.959   5.576
  549SOL    HW1 2207   1.687   0.899   5.518
  549SOL    HW2 2208   1.674   0.972   5.650
  550SOL     OW 2209   0.318   0.067   4.377
  550SOL    HW1 2210   0.299   0.161   4.386
  550SOL    HW2 2211   0.320   0.034   4.467
  551SOL     OW 2212   1.611   0.374   4.090
  551SOL    HW1 2213   1.645   0.311   4.154
  551SOL    HW2 2214   1.591   0.452   4.142
  552SOL     OW 2215   1.027   0.759   4.685
  552SOL    HW1 2216   1.025   0.777   4.779
  552SOL    HW2 2217   1.001   0.668   4.677
  553SOL     OW 2218   0.981   1.566   5.440
  553SOL    HW1 2219   0.967   1.610   5.357
  553SOL    HW2 2220   1.026   1.484   5.416
  554SOL     OW 2221   1.855   1.507   5.329
  554SOL    HW1 2222   1.873   1.533   5.239
  554SOL    HW2 2223   1.936   1.526   5.376
  555SOL     OW 2224   0.353   0.916   5.531
  555SOL    HW1 2225   0.434   0.937   5.577
  555SOL    HW2 2226   0.380   0.853   5.464
  556SOL     OW 2227   1.527   0.272   3.850
  556SOL    HW1 2228   1.463   0.208   3.881
  556SOL    HW2 2229   1.563   0.311   3.930
  557SOL     OW 2230   1.292   0.827   3.756
  557SOL    HW1 2231   1.335   0.741   3.759
  557SOL    HW2 2232   1.324   0.866   3.674
  558SOL     OW 2233   1.066   1.335   4.578
  558SOL    HW1 2234   1.069   1.263   4.515
  558SOL    HW2 2235   1.127   1.400   4.543
  559SOL     OW 2236   0.315   0.811   4.674
  559SOL    HW1 2237   0.409   0.828   4.669
  559SOL    HW2 2238   0.309   0.720   4.705
  560SOL     OW 2239   0.336   0.526   4.739
  560SOL    HW1 2240   0.299   0.439   4.722
  560SOL    HW2 2241   0.411   0.531   4.679
  561SOL     OW 2242   1.135   0.378   5.412
  561SOL    HW1 2243   1.088   0.433   5.474
  561SOL    HW2 2244   1.223   0.417   5.407
  562SOL     OW 2245   1.134   0.223   5.189
  562SOL    HW1 2246   1.139   0.282   5.265
  562SOL    HW2 2247   1.189   0.265   5.123
  563SOL     OW 2248   0.001   1.330   3.934
  563SOL    HW1 2249   5.226   1.321   3.876
  563SOL    HW2 2250   0.012   1.244   3.974
  564SOL     OW 2251   0.092   1.782   4.674
  564SOL    HW1 2252   0.059   1.711   4.619
  564SOL    HW2 2253   0.179   1.800   4.639
  565SOL     OW 2254   0.505   1.573   4.631
  565SOL    HW1 2255   0.573   1.638   4.652
  565SOL    HW2 2256   0.549   1.512   4.572
  566SOL     OW 2257   0.985   0.793   4.951
  566SOL    HW1 2258   1.040   0.769   5.026
  566SOL    HW2 2259   0.899   0.756   4.972
  567SOL     OW 2260   0.036   0.564   4.842
  567SOL    HW1 2261   0.118   0.533   4.804
  567SOL    HW2 2262   0.039   0.534   4.933
  568SOL     OW 2263   0.168   0.514   5.438
  568SOL    HW1 2264   0.252   0.494   5.396
  568SOL    HW2 2265   0.137   0.594   5.395
  569SOL     OW 2266   1.376   0.940   5.383
  569SOL    HW1 2267   1.398   1.033   5.381
  569SOL    HW2 2268   1.374   0.914   5.290
  570SOL     OW 2269   0.814   0.571   4.085
  570SOL    HW1 2270   0.818   0.497   4.024
  570SOL    HW2 2271   0.740   0.624   4.053
  571SOL     OW 2272   1.642   0.601   4.911
  571SOL    HW1 2273   1.631   0.542   4.985
  571SOL    HW2 2274   1.730   0.581   4.876
  572SOL     OW 2275   0.257   1.556   5.459
  572SOL    HW1 2276   0.233   1.619   5.528
  572SOL    HW2 2277   0.249   1.470   5.501
  573SOL     OW 2278   0.696   0.454   4.986
  573SOL    HW1 2279   0.647   0.379   4.951
  573SOL    HW2 2280   0.696   0.517   4.915
  574SOL     OW 2281   0.929   1.679   5.191
  574SOL    HW1 2282   0.902   1.645   5.106
  574SOL    HW2 2283   0.925   1.774   5.182
  575SOL     OW 2284   0.464   0.493   3.905
  575SOL    HW1 2285   0.527   0.562   3.928
  575SOL    HW2 2286   0.380   0.538   3.899
  576SOL     OW 2287   0.148   1.138   5.195
  576SOL    HW1 2288   0.147   1.088   5.277
  576SOL    HW2 2289   0.161   1.071   5.127
  577SOL     OW 2290   1.326   1.048   4.948
  577SOL    HW1 2291   1.350   0.984   4.880
  577SOL    HW2 2292   1.256   1.099   4.909
  578SOL     OW 2293   1.310   0.856   4.031
  578SOL    HW1 2294   1.234   0.826   4.080
  578SOL    HW2 2295   1.287   0.843   3.939
  579SOL     OW 2296   1.768   1.744   4.873
  579SOL    HW1 2297   1.829   1.773   4.805
  579SOL    HW2 2298   1.748   1.654   4.850
  580SOL     OW 2299   1.242   1.733   4.838
  580SOL    HW1 2300   1.324   1.753   4.793
  580SOL    HW2 2301   1.247   1.639   4.856
  581SOL     OW 2302   0.083   1.218   4.751
  581SOL    HW1 2303   0.069   1.244   4.843
  581SOL    HW2 2304   5.294   1.207   4.717
  582SOL     OW 2305   0.678   1.665   5.452
  582SOL    HW1 2306   0.623   1.744   5.447
  582SOL    HW2 2307   0.742   1.676   5.381
  583SOL     OW 2308   1.712   0.147   4.227
  583SOL    HW1 2309   1.788   0.127   4.172
  583SOL    HW2 2310   1.705   0.073   4.287
  584SOL     OW 2311   1.390   1.568   4.208
  584SOL    HW1 2312   1.450   1.599   4.141
  584SOL    HW2 2313   1.342   1.646   4.236
  585SOL     OW 2314   0.144   1.798   5.567
  585SOL    HW1 2315   0.090   1.735   5.613
  585SOL    HW2 2316   0.190   1.846   5.636
  586SOL     OW 2317   1.277   0.925   4.395
  586SOL    HW1 2318   1.351   0.864   4.401
  586SOL    HW2 2319   1.311   0.998   4.343
  587SOL     OW 2320   0.816   1.272   5.155
  587SOL    HW1 2321   0.788   1.312   5.237
  587SOL    HW2 2322   0.746   1.294   5.093
  588SOL     OW 2323   0.672   1.618   3.879
  588SOL    HW1 2324   0.682   1.631   3.785
  588SOL    HW2 2325   0.618   1.540   3.887
  589SOL     OW 2326   1.627   1.726   5.115
  589SOL    HW1 2327   1.677   1.733   5.033
  589SOL    HW2 2328   1.615   1.816   5.143
  590SOL     OW 2329   1.845   0.158   4.682
  590SOL    HW1 2330   1.846   0.063   4.666
  590SOL    HW2 2331   1.758   0.186   4.654
  591SOL     OW 2332   0.270   0.328   4.442
  591SOL    HW1 2333   0.184   0.366   4.426
  591SOL    HW2 2334   0.272   0.313   4.537
  592SOL     OW 2335   1.207   1.607   3.756
  592SOL    HW1 2336   1.198   1.515   3.782
  592SOL    HW2 2337   1.142   1.618   3.686
  593SOL     OW 2338   0.824   1.006   5.096
  593SOL    HW1 2339   0.868   1.001   5.011
  593SOL    HW2 2340   0.824   1.099   5.119
  594SOL     OW 2341   0.915   0.910   4.014
  594SOL    HW1 2342   0.976   0.942   3.947
  594SOL    HW2 2343   0.963   0.841   4.059
  595SOL     OW 2344   1.493   1.624   3.766
  595SOL    HW1 2345   1.398   1.620   3.753
  595SOL    HW2 2346   1.529   1.631   3.678
  596SOL     OW 2347   0.368   1.303   5.217
  596SOL    HW1 2348   0.359   1.378   5.158
  596SOL    HW2 2349   0.292   1.249   5.197
  597SOL     OW 2350   1.610   1.282   5.004
  597SOL    HW1 2351   1.672   1.274   5.077
  597SOL    HW2 2352   1.551   1.352   5.031
  598SOL     OW 2353   1.051   1.106   4.430
  598SOL    HW1 2354   0.980   1.055   4.470
  598SOL    HW2 2355   1.113   1.041   4.398
  599SOL     OW 2356   1.020   0.243   4.692
  599SOL    HW1 2357   1.000   0.197   4.610
  599SOL    HW2 2358   1.012   0.175   4.759
  600SOL     OW 2359   0.601   1.487   4.205
  600SOL    HW1 2360   0.645   1.439   4.136
  600SOL    HW2 2361   0.535   1.540   4.160
  601SOL     OW 2362   1.723   0.387   5.102
  601SOL    HW1 2363   1.793   0.452   5.102
  601SOL    HW2 2364   1.755   0.317   5.045
  602SOL     OW 2365   0.260   1.348   4.016
  602SOL    HW1 2366   0.167   1.351   3.993
  602SOL    HW2 2367   0.264   1.385   4.104
  603SOL     OW 2368   0.115   1.015   5.442
  603SOL    HW1 2369   0.044   0.982   5.496
  603SOL    HW2 2370   0.195   0.985   5.485
  604SOL     OW 2371   0.674   0.213   5.212
  604SOL    HW1 2372   0.757   0.196   5.169
  604SOL    HW2 2373   0.698   0.259   5.293
  605SOL     OW 2374   0.078   0.338   3.761
  605SOL    HW1 2375   5.287   0.311   3.749
  605SOL    HW2 2376   0.093   0.405   3.695
  606SOL     OW 2377   1.430   0.858   5.125
  606SOL    HW1 2378   1.382   0.919   5.069
  606SOL    HW2 2379   1.520   0.861   5.091
  607SOL     OW 2380   0.083   0.141   4.018
  607SOL    HW1 2381   0.076   0.235   4.000
  607SOL    HW2 2382   0.170   0.116   3.987
  608SOL     OW 2383   1.180   1.340   3.841
  608SOL    HW1 2384   1.089   1.310   3.844
  608SOL    HW2 2385   1.208   1.340   3.932
  609SOL     OW 2386   0.619   0.831   5.159
  609SOL    HW1 2387   0.674   0.907   5.143
  609SOL    HW2 2388   0.681   0.758   5.167
  610SOL     OW 2389   1.485   1.777   4.703
  610SOL    HW1 2390   1.509   1.836   4.631
  610SOL    HW2 2391   1.568   1.759   4.748
  611SOL     OW 2392   0.714   0.572   5.428
  611SOL    HW1 2393   0.755   0.636   5.486
  611SOL    HW2 2394   0.747   0.488   5.458
  612SOL     OW 2395   1.471   1.201   5.356
  612SOL    HW1 2396   1.459   1.214   5.450
  612SOL    HW2 2397   1.564   1.215   5.341
  613SOL     OW 2398   0.379   1.742   5.288
  613SOL    HW1 2399   0.296   1.787   5.273
  613SOL    HW2 2400   0.354   1.661   5.333
  614SOL     OW 2401   1.670   0.881   4.979
  614SOL    HW1 2402   1.663   0.796   4.936
  614SOL    HW2 2403   1.661   0.945   4.908
  615SOL     OW 2404   1.221   0.319   4.189
  615SOL    HW1 2405   1.284   0.248   4.182
  615SOL    HW2 2406   1.251   0.371   4.264
  616SOL     OW 2407   0.590   0.738   4.393
  616SOL    HW1 2408   0.629   0.824   4.377
  616SOL    HW2 2409   0.521   0.731   4.327
  617SOL     OW 2410   1.767   0.361   5.373
  617SOL    HW1 2411   1.747   0.375   5.280
  617SOL    HW2 2412   1.696   0.305   5.404
  618SOL     OW 2413   1.744   0.934   5.237
  618SOL    HW1 2414   1.744   1.028   5.250
  618SOL    HW2 2415   1.729   0.922   5.143
  619SOL     OW 2416   0.862   1.367   3.757
  619SOL    HW1 2417   0.824   1.397   3.840
  619SOL    HW2 2418   0.882   1.448   3.709
  620SOL     OW 2419   0.662   1.794   4.669
  620SOL    HW1 2420   0.641   1.885   4.646
  620SOL    HW2 2421   0.758   1.789   4.662
  621SOL     OW 2422   0.867   0.966   4.579
  621SOL    HW1 2423   0.917   0.895   4.619
  621SOL    HW2 2424   0.833   1.016   4.653
  622SOL     OW 2425   1.078   0.987   3.812
  622SOL    HW1 2426   1.057   1.039   3.734
  622SOL    HW2 2427   1.154   0.934   3.787
  623SOL     OW 2428   1.855   1.553   4.566
  623SOL    HW1 2429   1.775   1.543   4.515
  623SOL    HW2 2430   1.846   1.489   4.637
  624SOL     OW 2431   0.225   1.305   5.583
  624SOL    HW1 2432   0.156   1.243   5.558
  624SOL    HW2 2433   0.214   1.316   5.678
  625SOL     OW 2434   0.087   1.221   4.378
  625SOL    HW1 2435   0.099   1.188   4.468
  625SOL    HW2 2436   0.173   1.212   4.338
  626SOL     OW 2437   0.681   1.401   5.352
  626SOL    HW1 2438   0.600   1.359   5.381
  626SOL    HW2 2439   0.676   1.490   5.388
  627SOL     OW 2440   1.815   0.178   4.957
  627SOL    HW1 2441   1.783   0.088   4.964
  627SOL    HW2 2442   1.832   0.190   4.864
  628SOL     OW 2443   0.432   0.436   4.246
  628SOL    HW1 2444   0.463   0.362   4.194
  628SOL    HW2 2445   0.387   0.395   4.320
  629SOL     OW 2446   1.702   1.488   4.819
  629SOL    HW1 2447   1.620   1.465   4.776
  629SOL    HW2 2448   1.715   1.421   4.885
  630SOL     OW 2449   0.335   0.559   5.013
  630SOL    HW1 2450   0.392   0.502   5.064
  630SOL    HW2 2451   0.350   0.533   4.922
  631SOL     OW 2452   0.827   1.577   4.403
  631SOL    HW1 2453   0.817   1.630   4.323
  631SOL    HW2 2454   0.750   1.521   4.404
  632SOL     OW 2455   1.428   0.218   4.840
  632SOL    HW1 2456   1.465   0.144   4.888
  632SOL    HW2 2457   1.380   0.268   4.906
  633SOL     OW 2458   1.002   0.021   4.866
  633SOL    HW1 2459   0.951   5.252   4.822
  633SOL    HW2 2460   1.089   5.284   4.878
  634SOL     OW 2461   0.771   1.333   4.038
  634SOL    HW1 2462   0.741   1.242   4.044
  634SOL    HW2 2463   0.854   1.333   4.086
  635SOL     OW 2464   0.622   1.557   5.011
  635SOL    HW1 2465   0.624   1.639   5.060
  635SOL    HW2 2466   0.709   1.551   4.971
  636SOL     OW 2467   1.354   0.040   3.885
  636SOL    HW1 2468   1.387   5.298   3.806
  636SOL    HW2 2469   1.276   5.289   3.908
  637SOL     OW 2470   1.301   0.463   4.409
  637SOL    HW1 2471   1.246   0.541   4.415
  637SOL    HW2 2472   1.294   0.423   4.496
  638SOL     OW 2473   1.594   0.216   4.606
  638SOL    HW1 2474   1.527   0.227   4.673
  638SOL    HW2 2475   1.587   0.294   4.551
  639SOL     OW 2476   0.047   1.069   4.014
  639SOL    HW1 2477   0.137   1.038   4.004
  639SOL    HW2 2478   5.300   0.993   4.049
  640SOL     OW 2479   0.883   1.650   4.067
  640SOL    HW1 2480   0.811   1.635   4.006
  640SOL    HW2 2481   0.856   1.727   4.118
  641SOL     OW 2482   0.233   0.633   5.703
  641SOL    HW1 2483   0.156   0.608   5.754
  641SOL    HW2 2484   0.215   0.600   5.615
  642SOL     OW 2485   0.232   0.280   6.576
  642SOL    HW1 2486   0.252   0.244   6.662
  642SOL    HW2 2487   0.152   0.236   6.548
  643SOL     OW 2488   0.000   0.406   6.250
  643SOL    HW1 2489   5.207   0.427   6.254
  643SOL    HW2 2490   0.002   0.315   6.218
  644SOL     OW 2491   0.573   1.283   6.766
  644SOL    HW1 2492   0.490   1.291   6.719
  644SOL    HW2 2493   0.590   1.370   6.801
  645SOL     OW 2494   1.560   1.511   6.292
  645SOL    HW1 2495   1.517   1.492   6.375
  645SOL    HW2 2496   1.489   1.516   6.229
  646SOL     OW 2497   1.131   0.698   6.288
  646SOL    HW1 2498   1.180   0.779   6.273
  646SOL    HW2 2499   1.084   0.713   6.370
  647SOL     OW 2500   1.766   0.607   5.815
  647SOL    HW1 2501   1.746   0.598   5.722
  647SOL    HW2 2502   1.731   0.526   5.854
  648SOL     OW 2503   0.756   1.142   6.624
  648SOL    HW1 2504   0.689   1.176   6.683
  648SOL    HW2 2505   0.791   1.219   6.581
  649SOL     OW 2506   0.862   0.781   7.406
  649SOL    HW1 2507   0.855   0.855   7.465
  649SOL    HW2 2508   0.889   0.819   7.322
  650SOL     OW 2509   0.685   1.004   6.234
  650SOL    HW1 2510   0.751   0.991   6.302
  650SOL    HW2 2511   0.617   1.056   6.275
  651SOL     OW 2512   0.709   1.151   7.398
  651SOL    HW1 2513   0.757   1.230   7.424
  651SOL    HW2 2514   0.626   1.185   7.362
  652SOL     OW 2515   0.358   1.405   6.645
  652SOL    HW1 2516   0.270   1.405   6.608
  652SOL    HW2 2517   0.407   1.468   6.592
  653SOL     OW 2518   1.461   1.499   6.939
  653SOL    HW1 2519   1.510   1.581   6.949
  653SOL    HW2 2520   1.401   1.498   7.014
  654SOL     OW 2521   0.448   0.400   7.080
  654SOL    HW1 2522   0.527   0.347   7.073
  654SOL    HW2 2523   0.377   0.336   7.083
  655SOL     OW 2524   1.611   0.452   6.324
  655SOL    HW1 2525   1.535   0.476   6.270
  655SOL    HW2 2526   1.631   0.530   6.375
  656SOL     OW 2527   0.230   1.714   6.063
  656SOL    HW1 2528   0.265   1.783   6.121
  656SOL    HW2 2529   0.292   1.711   5.990
  657SOL     OW 2530   1.136   1.341   7.276
  657SOL    HW1 2531   1.176   1.338   7.363
  657SOL    HW2 2532   1.084   1.261   7.271
  658SOL     OW 2533   0.222   1.443   6.125
  658SOL    HW1 2534   0.215   1.539   6.122
  658SOL    HW2 2535   0.152   1.415   6.184
  659SOL     OW 2536   0.249   1.078   6.462
  659SOL    HW1 2537   0.260   0.993   6.505
  659SOL    HW2 2538   0.198   1.130   6.524
  660SOL     OW 2539   0.614   1.790   7.018
  660SOL    HW1 2540   0.531   1.773   7.061
  660SOL    HW2 2541   0.635   1.881   7.041
  661SOL     OW 2542   0.584   0.983   5.720
  661SOL    HW1 2543   0.629   1.031   5.651
  661SOL    HW2 2544   0.626   1.012   5.801
  662SOL     OW 2545   1.586   0.134   7.043
  662SOL    HW1 2546   1.606   0.219   7.004
  662SOL    HW2 2547   1.585   0.151   7.137
  663SOL     OW 2548   0.124   0.637   6.163
  663SOL    HW1 2549   0.089   0.554   6.196
  663SOL    HW2 2550   0.098   0.701   6.229
  664SOL     OW 2551   1.842   1.760   5.922
  664SOL    HW1 2552   1.906   1.731   5.988
  664SOL    HW2 2553   1.867   1.850   5.902
  665SOL     OW 2554   0.037   1.599   5.717
  665SOL    HW1 2555   0.024   1.507   5.742
  665SOL    HW2 2556   5.283   1.648   5.778
  666SOL     OW 2557   1.689   0.918   6.226
  666SOL    HW1 2558   1.773   0.877   6.206
  666SOL    HW2 2559   1.668   0.969   6.147
  667SOL     OW 2560   1.646   1.107   6.016
  667SOL    HW1 2561   1.731   1.113   5.973
  667SOL    HW2 2562   1.651   1.168   6.089
  668SOL     OW 2563   0.129   0.748   7.174
  668SOL    HW1 2564   0.224   0.763   7.175
  668SOL    HW2 2565   0.091   0.835   7.188
  669SOL     OW 2566   0.615   1.384   6.321
  669SOL    HW1 2567   0.567   1.302   6.331
  669SOL    HW2 2568   0.597   1.411   6.230
  670SOL     OW 2569   1.289   1.238   7.010
  670SOL    HW1 2570   1.322   1.171   6.950
  670SOL    HW2 2571   1.346   1.232   7.086
  671SOL     OW 2572   0.813   0.025   6.111
  671SOL    HW1 2573   0.841   0.114   6.088
  671SOL    HW2 2574   0.718   0.028   6.104
  672SOL     OW 2575   0.177   0.947   6.864
  672SOL    HW1 2576   0.268   0.918   6.853
  672SOL    HW2 2577   0.134   0.922   6.782
  673SOL     OW 2578   1.531   0.993   5.784
  673SOL    HW1 2579   1.462   0.936   5.815
  673SOL    HW2 2580   1.572   1.027   5.863
  674SOL     OW 2581   1.185   1.806   7.207
  674SOL    HW1 2582   1.197   1.864   7.132
  674SOL    HW2 2583   1.202   1.718   7.172
  675SOL     OW 2584   0.324   0.272   7.388
  675SOL    HW1 2585   0.386   0.335   7.424
  675SOL    HW2 2586   0.244   0.284   7.439
  676SOL     OW 2587   1.466   1.420   6.538
  676SOL    HW1 2588   1.398   1.435   6.604
  676SOL    HW2 2589   1.454   1.329   6.511
  677SOL     OW 2590   1.659   1.738   6.164
  677SOL    HW1 2591   1.639   1.709   6.075
  677SOL    HW2 2592   1.634   1.664   6.220
  678SOL     OW 2593   0.595   0.721   5.851
  678SOL    HW1 2594   0.603   0.802   5.800
  678SOL    HW2 2595   0.530   0.742   5.918
  679SOL     OW 2596   1.278   0.346   6.516
  679SOL    HW1 2597   1.188   0.317   6.529
  679SOL    HW2 2598   1.328   0.296   6.582
  680SOL     OW 2599   1.581   1.669   5.895
  680SOL    HW1 2600   1.671   1.702   5.889
  680SOL    HW2 2601   1.555   1.652   5.805
  681SOL     OW 2602   0.794   0.617   7.038
  681SOL    HW1 2603   0.766   0.596   7.127
  681SOL    HW2 2604   0.751   0.552   6.983
  682SOL     OW 2605   1.395   0.475   7.264
  682SOL    HW1 2606   1.396   0.519   7.348
  682SOL    HW2 2607   1.458   0.404   7.273
  683SOL     OW 2608   0.955   0.887   7.168
  683SOL    HW1 2609   1.010   0.817   7.132
  683SOL    HW2 2610   0.908   0.922   7.092
  684SOL     OW 2611   0.994   0.417   6.822
  684SOL    HW1 2612   0.909   0.439   6.861
  684SOL    HW2 2613   0.971   0.368   6.743
  685SOL     OW 2614   1.050   0.698   6.013
  685SOL    HW1 2615   1.066   0.691   6.107
  685SOL    HW2 2616   0.968   0.652   5.998
  686SOL     OW 2617   0.072   0.787   6.399
  686SOL    HW1 2618   0.154   0.793   6.447
  686SOL    HW2 2619   0.062   0.874   6.359
  687SOL     OW 2620   0.130   1.883   7.170
  687SOL    HW1 2621   0.131   1.852   7.261
  687SOL    HW2 2622   0.059   1.834   7.129
  688SOL     OW 2623   0.871   0.363   5.774
  688SOL    HW1 2624   0.916   0.422   5.714
  688SOL    HW2 2625   0.924   0.283   5.772
  689SOL     OW 2626   1.709   0.576   7.415
  689SOL    HW1 2627   1.672   0.650   7.368
  689SOL    HW2 2628   1.737   0.515   7.346
  690SOL     OW 2629   1.376   1.142   6.127
  690SOL    HW1 2630   1.455   1.129   6.075
  690SOL    HW2 2631   1.324   1.204   6.077
  691SOL     OW 2632   0.537   0.201   6.469
  691SOL    HW1 2633   0.554   0.219   6.562
  691SOL    HW2 2634   0.550   0.286   6.426
  692SOL     OW 2635   1.006   1.444   6.059
  692SOL    HW1 2636   0.968   1.517   6.009
  692SOL    HW2 2637   0.990   1.466   6.150
  693SOL     OW 2638   0.356   1.802   6.455
  693SOL    HW1 2639   0.397   1.716   6.468
  693SOL    HW2 2640   0.423   1.865   6.482
  694SOL     OW 2641   1.799   1.057   6.454
  694SOL    HW1 2642   1.744   1.041   6.377
  694SOL    HW2 2643   1.737   1.063   6.527
  695SOL     OW 2644   1.228   1.539   7.099
  695SOL    HW1 2645   1.214   1.466   7.159
  695SOL    HW2 2646   1.165   1.524   7.028
  696SOL     OW 2647   0.317   0.952   5.833
  696SOL    HW1 2648   0.399   0.976   5.790
  696SOL    HW2 2649   0.295   0.867   5.796
  697SOL     OW 2650   1.478   0.742   6.313
  697SOL    HW1 2651   1.469   0.698   6.398
  697SOL    HW2 2652   1.555   0.797   6.323
  698SOL     OW 2653   0.464   1.262   7.323
  698SOL    HW1 2654   0.437   1.269   7.232
  698SOL    HW2 2655   0.382   1.264   7.373
  699SOL     OW 2656   1.121   1.778   5.817
  699SOL    HW1 2657   1.049   1.735   5.863
  699SOL    HW2 2658   1.144   1.717   5.747
  700SOL     OW 2659   0.198   0.279   7.078
  700SOL    HW1 2660   0.157   0.366   7.074
  700SOL    HW2 2661   0.206   0.260   7.171
  701SOL     OW 2662   1.628   1.379   5.674
  701SOL    HW1 2663   1.588   1.465   5.658
  701SOL    HW2 2664   1.559   1.316   5.654
  702SOL     OW 2665   0.471   1.735   5.906
  702SOL    HW1 2666   0.513   1.793   5.969
  702SOL    HW2 2667   0.543   1.705   5.850
  703SOL     OW 2668   1.406   0.100   6.017
  703SOL    HW1 2669   1.398   0.082   5.923
  703SOL    HW2 2670   1.499   0.122   6.029
  704SOL     OW 2671   0.275   1.801   6.801
  704SOL    HW1 2672   0.307   1.725   6.849
  704SOL    HW2 2673   0.226   1.765   6.728
  705SOL     OW 2674   0.939   1.698   6.486
  705SOL    HW1 2675   1.016   1.646   6.506
  705SOL    HW2 2676   0.894   1.649   6.417
  706SOL     OW 2677   0.385   0.696   6.065
  706SOL    HW1 2678   0.415   0.605   6.073
  706SOL    HW2 2679   0.292   0.693   6.086
  707SOL     OW 2680   1.540   0.228   7.311
  707SOL    HW1 2681   1.546   0.246   7.404
  707SOL    HW2 2682   1.465   0.169   7.303
  708SOL     OW 2683   0.621   0.133   5.693
  708SOL    HW1 2684   0.690   0.070   5.717
  708SOL    HW2 2685   0.574   0.091   5.621
  709SOL     OW 2686   0.781   0.312   7.349
  709SOL    HW1 2687   0.842   0.239   7.351
  709SOL    HW2 2688   0.740   0.313   7.436
  710SOL     OW 2689   0.877   1.521   6.779
  710SOL    HW1 2690   0.861   1.485   6.692
  710SOL    HW2 2691   0.947   1.467   6.816
  711SOL     OW 2692   1.341   0.589   7.018
  711SOL    HW1 2693   1.372   0.558   7.103
  711SOL    HW2 2694   1.377   0.677   7.011
  712SOL     OW 2695   0.815   1.395   6.525
  712SOL    HW1 2696   0.899   1.384   6.480
  712SOL    HW2 2697   0.750   1.396   6.454
  713SOL     OW 2698   0.927   0.510   6.490
  713SOL    HW1 2699   0.904   0.502   6.397
  713SOL    HW2 2700   0.959   0.423   6.514
  714SOL     OW 2701   0.547   0.059   6.090
  714SOL    HW1 2702   0.468   0.060   6.144
  714SOL    HW2 2703   0.535   0.131   6.029
  715SOL     OW 2704   1.428   1.198   5.627
  715SOL    HW1 2705   1.459   1.122   5.677
  715SOL    HW2 2706   1.343   1.219   5.665
  716SOL     OW 2707   0.314   0.063   5.770
  716SOL    HW1 2708   0.380   0.129   5.749
  716SOL    HW2 2709   0.364   5.282   5.784
  717SOL     OW 2710   0.939   0.261   6.049
  717SOL    HW1 2711   0.911   0.299   5.965
  717SOL    HW2 2712   1.034   0.272   6.050
  718SOL     OW 2713   1.081   0.681   7.045
  718SOL    HW1 2714   1.012   0.614   7.051
  718SOL    HW2 2715   1.162   0.631   7.039
  719SOL     OW 2716   1.224   1.569   6.380
  719SOL    HW1 2717   1.240   1.637   6.314
  719SOL    HW2 2718   1.292   1.583   6.446
  720SOL     OW 2719   0.467   1.149   6.318
  720SOL    HW1 2720   0.398   1.130   6.382
  720SOL    HW2 2721   0.428   1.131   6.233
  721SOL     OW 2722   1.269   1.794   6.193
  721SOL    HW1 2723   1.315   1.855   6.136
  721SOL    HW2 2724   1.203   1.848   6.238
  722SOL     OW 2725   1.026   0.547   5.608
  722SOL    HW1 2726   0.984   0.631   5.589
  722SOL    HW2 2727   1.090   0.567   5.676
  723SOL     OW 2728   0.097   0.532   6.997
  723SOL    HW1 2729   0.178   0.550   6.949
  723SOL    HW2 2730   0.077   0.613   7.043
  724SOL     OW 2731   0.560   0.239   6.744
  724SOL    HW1 2732   0.591   0.152   6.770
  724SOL    HW2 2733   0.468   0.239   6.768
  725SOL     OW 2734   0.868   0.463   6.227
  725SOL    HW1 2735   0.821   0.515   6.162
  725SOL    HW2 2736   0.890   0.382   6.181
  726SOL     OW 2737   0.979   0.060   6.348
  726SOL    HW1 2738   0.914   0.055   6.278
  726SOL    HW2 2739   0.987   5.271   6.381
  727SOL     OW 2740   1.437   1.163   6.444
  727SOL    HW1 2741   1.368   1.096   6.442
  727SOL    HW2 2742   1.461   1.175   6.352
  728SOL     OW 2743   1.467   0.605   6.565
  728SOL    HW1 2744   1.418   0.522   6.568
  728SOL    HW2 2745   1.527   0.600   6.638
  729SOL     OW 2746   1.846   0.817   5.968
  729SOL    HW1 2747   1.902   0.766   6.026
  729SOL    HW2 2748   1.817   0.755   5.901
  730SOL     OW 2749   0.492   1.416   5.745
  730SOL    HW1 2750   0.417   1.388   5.797
  730SOL    HW2 2751   0.474   1.384   5.657
  731SOL     OW 2752   1.669   1.264   6.233
  731SOL    HW1 2753   1.764   1.268   6.246
  731SOL    HW2 2754   1.639   1.352   6.254
  732SOL     OW 2755   1.394   0.572   5.657
  732SOL    HW1 2756   1.333   0.553   5.729
  732SOL    HW2 2757   1.479   0.541   5.689
  733SOL     OW 2758   0.522   0.265   5.907
  733SOL    HW1 2759   0.568   0.216   5.838
  733SOL    HW2 2760   0.504   0.350   5.867
  734SOL     OW 2761   1.753   1.238   7.160
  734SOL    HW1 2762   1.840   1.200   7.156
  734SOL    HW2 2763   1.767   1.328   7.190
  735SOL     OW 2764   1.059   1.353   6.919
  735SOL    HW1 2765   0.985   1.322   6.971
  735SOL    HW2 2766   1.135   1.312   6.961
  736SOL     OW 2767   1.607   1.625   7.238
  736SOL    HW1 2768   1.603   1.659   7.148
  736SOL    HW2 2769   1.690   1.578   7.241
  737SOL     OW 2770   1.127   1.202   6.692
  737SOL    HW1 2771   1.070   1.241   6.757
  737SOL    HW2 2772   1.095   1.235   6.608
  738SOL     OW 2773   1.629   1.099   6.664
  738SOL    HW1 2774   1.624   1.161   6.737
  738SOL    HW2 2775   1.550   1.116   6.613
  739SOL     OW 2776   0.905   0.106   6.977
  739SOL    HW1 2777   0.936   0.073   6.893
  739SOL    HW2 2778   0.982   0.148   7.015
  740SOL     OW 2779   0.984   1.114   7.310
  740SOL    HW1 2780   0.892   1.131   7.328
  740SOL    HW2 2781   0.984   1.037   7.253
  741SOL     OW 2782   0.707   1.059   5.958
  741SOL    HW1 2783   0.696   1.044   6.052
  741SOL    HW2 2784   0.784   1.007   5.935
  742SOL     OW 2785   0.420   0.819   6.838
  742SOL    HW1 2786   0.490   0.825   6.904
  742SOL    HW2 2787   0.385   0.731   6.848
  743SOL     OW 2788   1.267   0.379   6.858
  743SOL    HW1 2789   1.300   0.456   6.905
  743SOL    HW2 2790   1.177   0.402   6.835
  744SOL     OW 2791   0.101   1.623   6.953
  744SOL    HW1 2792   0.078   1.632   6.861
  744SOL    HW2 2793   0.187   1.581   6.953
  745SOL     OW 2794   0.344   1.105   6.074
  745SOL    HW1 2795   0.354   1.184   6.022
  745SOL    HW2 2796   0.354   1.033   6.012
  746SOL     OW 2797   0.556   0.538   6.446
  746SOL    HW1 2798   0.571   0.596   6.372
  746SOL    HW2 2799   0.620   0.565   6.511
  747SOL     OW 2800   1.248   1.348   5.975
  747SOL    HW1 2801   1.304   1.420   6.006
  747SOL    HW2 2802   1.161   1.369   6.009
  748SOL     OW 2803   1.280   1.457   6.733
  748SOL    HW1 2804   1.336   1.460   6.810
  748SOL    HW2 2805   1.224   1.380   6.746
  749SOL     OW 2806   1.582   0.623   6.064
  749SOL    HW1 2807   1.536   0.679   6.127
  749SOL    HW2 2808   1.628   0.685   6.007
  750SOL     OW 2809   0.352   1.519   6.897
  750SOL    HW1 2810   0.342   1.476   6.812
  750SOL    HW2 2811   0.445   1.537   6.904
  751SOL     OW 2812   0.414   0.741   7.188
  751SOL    HW1 2813   0.472   0.790   7.130
  751SOL    HW2 2814   0.460   0.659   7.204
  752SOL     OW 2815   1.600   0.778   7.267
  752SOL    HW1 2816   1.514   0.819   7.260
  752SOL    HW2 2817   1.652   0.820   7.199
  753SOL     OW 2818   1.040   0.115   7.368
  753SOL    HW1 2819   1.068   0.195   7.323
  753SOL    HW2 2820   1.050   0.046   7.303
  754SOL     OW 2821   0.482   0.058   7.325
  754SOL    HW1 2822   0.428   5.290   7.284
  754SOL    HW2 2823   0.422   0.130   7.342
  755SOL     OW 2824   0.585   0.873   6.618
  755SOL    HW1 2825   0.617   0.964   6.616
  755SOL    HW2 2826   0.529   0.869   6.695
  756SOL     OW 2827   1.359   0.859   6.617
  756SOL    HW1 2828   1.276   0.850   6.569
  756SOL    HW2 2829   1.398   0.772   6.612
  757SOL     OW 2830   1.206   0.529   5.854
  757SOL    HW1 2831   1.211   0.448   5.905
  757SOL    HW2 2832   1.164   0.592   5.912
  758SOL     OW 2833   0.305   0.206   6.831
  758SOL    HW1 2834   0.264   0.237   6.912
  758SOL    HW2 2835   0.294   0.111   6.834
  759SOL     OW 2836   0.070   1.319   6.867
  759SOL    HW1 2837   0.090   1.259   6.939
  759SOL    HW2 2838   0.001   1.376   6.902
  760SOL     OW 2839   0.727   0.632   6.647
  760SOL    HW1 2840   0.800   0.614   6.588
  760SOL    HW2 2841   0.698   0.721   6.624
  761SOL     OW 2842   1.735   0.959   7.438
  761SOL    HW1 2843   1.686   0.900   7.380
  761SOL    HW2 2844   1.677   0.973   7.513
  762SOL     OW 2845   0.318   0.067   6.239
  762SOL    HW1 2846   0.299   0.161   6.248
  762SOL    HW2 2847   0.320   0.034   6.329
  763SOL     OW 2848   1.611   0.374   5.952
  763SOL    HW1 2849   1.645   0.311   6.016
  763SOL    HW2 2850   1.591   0.452   6.004
  764SOL     OW 2851   1.027   0.759   6.547
  764SOL    HW1 2852   1.025   0.777   6.641
  764SOL    HW2 2853   1.001   0.668   6.539
  765SOL     OW 2854   0.981   1.565   7.302
  765SOL    HW1 2855   0.967   1.610   7.219
  765SOL    HW2 2856   1.026   1.484   7.278
  766SOL     OW 2857   1.855   1.507   7.191
  766SOL    HW1 2858   1.873   1.533   7.101
  766SOL    HW2 2859   1.936   1.526   7.238
  767SOL     OW 2860   0.353   0.914   7.395
  767SOL    HW1 2861   0.435   0.938   7.438
  767SOL    HW2 2862   0.379   0.852   7.327
  768SOL     OW 2863   1.527   0.272   5.712
  768SOL    HW1 2864   1.463   0.208   5.743
  768SOL    HW2 2865   1.563   0.311   5.792
  769SOL     OW 2866   1.292   0.827   5.618
  769SOL    HW1 2867   1.335   0.741   5.621
  769SOL    HW2 2868   1.324   0.866   5.536
  770SOL     OW 2869   1.066   1.335   6.440
  770SOL    HW1 2870   1.069   1.263   6.377
  770SOL    HW2 2871   1.127   1.400   6.405
  771SOL     OW 2872   0.315   0.811   6.536
  771SOL    HW1 2873   0.409   0.828   6.531
  771SOL    HW2 2874   0.309   0.720   6.567
  772SOL     OW 2875   0.337   0.526   6.601
  772SOL    HW1 2876   0.299   0.439   6.584
  772SOL    HW2 2877   0.411   0.531   6.541
  773SOL     OW 2878   1.136   0.378   7.273
  773SOL    HW1 2879   1.089   0.432   7.336
  773SOL    HW2 2880   1.223   0.416   7.268
  774SOL     OW 2881   1.134   0.223   7.051
  774SOL    HW1 2882   1.139   0.281   7.127
  774SOL    HW2 2883   1.189   0.264   6.985
  775SOL     OW 2884   0.001   1.330   5.796
  775SOL    HW1 2885   5.226   1.321   5.738
  775SOL    HW2 2886   0.012   1.244   5.836
  776SOL     OW 2887   0.092   1.782   6.536
  776SOL    HW1 2888   0.059   1.711   6.481
  776SOL    HW2 2889   0.180   1.800   6.501
  777SOL     OW 2890   0.505   1.573   6.493
  777SOL    HW1 2891   0.572   1.638   6.514
  777SOL    HW2 2892   0.549   1.512   6.434
  778SOL     OW 2893   0.985   0.793   6.813
  778SOL    HW1 2894   1.040   0.769   6.887
  778SOL    HW2 2895   0.899   0.756   6.834
  779SOL     OW 2896   0.036   0.564   6.704
  779SOL    HW1 2897   0.119   0.533   6.666
  779SOL    HW2 2898   0.039   0.534   6.794
  780SOL     OW 2899   0.170   0.513   7.298
  780SOL    HW1 2900   0.253   0.495   7.254
  780SOL    HW2 2901   0.138   0.593   7.256
  781SOL     OW 2902   1.376   0.939   7.245
  781SOL    HW1 2903   1.398   1.033   7.244
  781SOL    HW2 2904   1.374   0.915   7.153
  782SOL     OW 2905   0.814   0.571   5.947
  782SOL    HW1 2906   0.818   0.497   5.886
  782SOL    HW2 2907   0.740   0.624   5.915
  783SOL     OW 2908   1.642   0.601   6.773
  783SOL    HW1 2909   1.631   0.542   6.847
  783SOL    HW2 2910   1.729   0.581   6.739
  784SOL     OW 2911   0.256   1.556   7.322
  784SOL    HW1 2912   0.233   1.618   7.391
  784SOL    HW2 2913   0.249   1.470   7.363
  785SOL     OW 2914   0.695   0.454   6.848
  785SOL    HW1 2915   0.647   0.379   6.813
  785SOL    HW2 2916   0.696   0.517   6.777
  786SOL     OW 2917   0.929   1.679   7.053
  786SOL    HW1 2918   0.902   1.646   6.967
  786SOL    HW2 2919   0.925   1.774   7.044
  787SOL     OW 2920   0.464   0.493   5.767
  787SOL    HW1 2921   0.527   0.562   5.790
  787SOL    HW2 2922   0.380   0.538   5.761
  788SOL     OW 2923   0.148   1.137   7.057
  788SOL    HW1 2924   0.146   1.088   7.139
  788SOL    HW2 2925   0.161   1.071   6.989
  789SOL     OW 2926   1.327   1.047   6.810
  789SOL    HW1 2927   1.350   0.984   6.742
  789SOL    HW2 2928   1.256   1.099   6.771
  790SOL     OW 2929   1.310   0.856   5.893
  790SOL    HW1 2930   1.234   0.826   5.942
  790SOL    HW2 2931   1.287   0.843   5.801
  791SOL     OW 2932   1.770   1.745   6.735
  791SOL    HW1 2933   1.831   1.771   6.666
  791SOL    HW2 2934   1.747   1.655   6.714
  792SOL     OW 2935   1.241   1.733   6.700
  792SOL    HW1 2936   1.323   1.753   6.655
  792SOL    HW2 2937   1.246   1.639   6.718
  793SOL     OW 2938   0.083   1.218   6.613
  793SOL    HW1 2939   0.070   1.244   6.705
  793SOL    HW2 2940   5.294   1.207   6.579
  794SOL     OW 2941   0.677   1.664   7.313
  794SOL    HW1 2942   0.624   1.744   7.310
  794SOL    HW2 2943   0.742   1.676   7.244
  795SOL     OW 2944   1.712   0.147   6.089
  795SOL    HW1 2945   1.788   0.127   6.034
  795SOL    HW2 2946   1.705   0.073   6.149
  796SOL     OW 2947   1.390   1.568   6.070
  796SOL    HW1 2948   1.451   1.600   6.003
  796SOL    HW2 2949   1.342   1.646   6.098
  797SOL     OW 2950   0.141   1.799   7.429
  797SOL    HW1 2951   0.089   1.735   7.478
  797SOL    HW2 2952   0.194   1.843   7.496
  798SOL     OW 2953   1.277   0.925   6.257
  798SOL    HW1 2954   1.351   0.864   6.263
  798SOL    HW2 2955   1.311   0.998   6.205
  799SOL     OW 2956   0.816   1.272   7.017
  799SOL    HW1 2957   0.788   1.312   7.099
  799SOL    HW2 2958   0.746   1.295   6.955
  800SOL     OW 2959   0.672   1.619   5.741
  800SOL    HW1 2960   0.682   1.631   5.647
  800SOL    HW2 2961   0.618   1.540   5.749
  801SOL     OW 2962   1.628   1.727   6.977
  801SOL    HW1 2963   1.677   1.734   6.895
  801SOL    HW2 2964   1.614   1.817   7.005
  802SOL     OW 2965   1.845   0.158   6.544
  802SOL    HW1 2966   1.846   0.063   6.528
  802SOL    HW2 2967   1.758   0.186   6.516
  803SOL     OW 2968   0.270   0.328   6.304
  803SOL    HW1 2969   0.184   0.366   6.288
  803SOL    HW2 2970   0.272   0.313   6.399
  804SOL     OW 2971   1.207   1.607   5.617
  804SOL    HW1 2972   1.198   1.515   5.644
  804SOL    HW2 2973   1.142   1.618   5.548
  805SOL     OW 2974   0.824   1.006   6.958
  805SOL    HW1 2975   0.868   1.002   6.873
  805SOL    HW2 2976   0.824   1.099   6.981
  806SOL     OW 2977   0.915   0.910   5.876
  806SOL    HW1 2978   0.976   0.942   5.809
  806SOL    HW2 2979   0.963   0.841   5.921
  807SOL     OW 2980   1.493   1.625   5.628
  807SOL    HW1 2981   1.398   1.619   5.615
  807SOL    HW2 2982   1.529   1.631   5.540
  808SOL     OW 2983   0.367   1.303   7.079
  808SOL    HW1 2984   0.359   1.378   7.020
  808SOL    HW2 2985   0.291   1.249   7.059
  809SOL     OW 2986   1.611   1.283   6.867
  809SOL    HW1 2987   1.671   1.273   6.941
  809SOL    HW2 2988   1.551   1.352   6.893
  810SOL     OW 2989   1.051   1.106   6.292
  810SOL    HW1 2990   0.980   1.055   6.331
  810SOL    HW2 2991   1.113   1.041   6.260
  811SOL     OW 2992   1.020   0.243   6.554
  811SOL    HW1 2993   1.000   0.197   6.472
  811SOL    HW2 2994   1.012   0.175   6.621
  812SOL     OW 2995   0.601   1.487   6.067
  812SOL    HW1 2996   0.645   1.439   5.998
  812SOL    HW2 2997   0.535   1.540   6.022
  813SOL     OW 2998   1.723   0.387   6.965
  813SOL    HW1 2999   1.793   0.452   6.964
  813SOL    HW2 3000   1.755   0.317   6.907
  814SOL     OW 3001   0.260   1.348   5.878
  814SOL    HW1 3002   0.167   1.351   5.855
  814SOL    HW2 3003   0.264   1.385   5.966
  815SOL     OW 3004   0.116   1.014   7.302
  815SOL    HW1 3005   0.043   0.985   7.358
  815SOL    HW2 3006   0.194   0.984   7.348
  816SOL     OW 3007   0.674   0.214   7.076
  816SOL    HW1 3008   0.757   0.196   7.032
  816SOL    HW2 3009   0.698   0.259   7.156
  817SOL     OW 3010   0.078   0.338   5.623
  817SOL    HW1 3011   5.287   0.311   5.611
  817SOL    HW2 3012   0.093   0.405   5.557
  818SOL     OW 3013   1.430   0.858   6.987
  818SOL    HW1 3014   1.382   0.919   6.931
  818SOL    HW2 3015   1.520   0.861   6.953
  819SOL     OW 3016   0.083   0.141   5.880
  819SOL    HW1 3017   0.076   0.235   5.862
  819SOL    HW2 3018   0.170   0.116   5.849
  820SOL     OW 3019   1.179   1.340   5.703
  820SOL    HW1 3020   1.089   1.310   5.706
  820SOL    HW2 3021   1.208   1.340   5.794
  821SOL     OW 3022   0.619   0.831   7.021
  821SOL    HW1 3023   0.674   0.908   7.005
  821SOL    HW2 3024   0.681   0.758   7.029
  822SOL     OW 3025   1.484   1.775   6.564
  822SOL    HW1 3026   1.508   1.834   6.492
  822SOL    HW2 3027   1.567   1.758   6.609
  823SOL     OW 3028   0.713   0.573   7.290
  823SOL    HW1 3029   0.755   0.636   7.349
  823SOL    HW2 3030   0.746   0.488   7.319
  824SOL     OW 3031   1.470   1.201   7.218
  824SOL    HW1 3032   1.458   1.214   7.312
  824SOL    HW2 3033   1.564   1.215   7.204
  825SOL     OW 3034   0.379   1.742   7.150
  825SOL    HW1 3035   0.296   1.787   7.135
  825SOL    HW2 3036   0.354   1.661   7.195
  826SOL     OW 3037   1.670   0.882   6.841
  826SOL    HW1 3038   1.663   0.796   6.798
  826SOL    HW2 3039   1.661   0.945   6.770
  827SOL     OW 3040   1.221   0.319   6.051
  827SOL    HW1 3041   1.284   0.248   6.044
  827SOL    HW2 3042   1.251   0.371   6.126
  828SOL     OW 3043   0.590   0.738   6.255
  828SOL    HW1 3044   0.629   0.824   6.239
  828SOL    HW2 3045   0.521   0.731   6.189
  829SOL     OW 3046   1.767   0.360   7.235
  829SOL    HW1 3047   1.748   0.375   7.143
  829SOL    HW2 3048   1.695   0.305   7.266
  830SOL     OW 3049   1.744   0.933   7.099
  830SOL    HW1 3050   1.743   1.028   7.112
  830SOL    HW2 3051   1.729   0.922   7.005
  831SOL     OW 3052   0.862   1.367   5.619
  831SOL    HW1 3053   0.824   1.396   5.702
  831SOL    HW2 3054   0.881   1.448   5.572
  832SOL     OW 3055   0.662   1.794   6.530
  832SOL    HW1 3056   0.641   1.885   6.508
  832SOL    HW2 3057   0.758   1.790   6.524
  833SOL     OW 3058   0.867   0.966   6.441
  833SOL    HW1 3059   0.917   0.895   6.481
  833SOL    HW2 3060   0.833   1.016   6.515
  834SOL     OW 3061   1.078   0.987   5.674
  834SOL    HW1 3062   1.058   1.039   5.596
  834SOL    HW2 3063   1.154   0.934   5.649
  835SOL     OW 3064   1.855   1.555   6.431
  835SOL    HW1 3065   1.777   1.543   6.376
  835SOL    HW2 3066   1.846   1.488   6.498
  836SOL     OW 3067   0.225   1.305   7.446
  836SOL    HW1 3068   0.154   1.245   7.420
  836SOL    HW2 3069   0.213   1.317   7.540
  837SOL     OW 3070   0.087   1.220   6.240
  837SOL    HW1 3071   0.099   1.189   6.329
  837SOL    HW2 3072   0.173   1.212   6.200
  838SOL     OW 3073   0.680   1.401   7.213
  838SOL    HW1 3074   0.599   1.360   7.243
  838SOL    HW2 3075   0.677   1.490   7.249
  839SOL     OW 3076   1.816   0.178   6.819
  839SOL    HW1 3077   1.783   0.088   6.826
  839SOL    HW2 3078   1.832   0.190   6.726
  840SOL     OW 3079   0.432   0.436   6.108
  840SOL    HW1 3080   0.463   0.362   6.056
  840SOL    HW2 3081   0.387   0.395   6.182
  841SOL     OW 3082   1.701   1.490   6.684
  841SOL    HW1 3083   1.620   1.466   6.639
  841SOL    HW2 3084   1.713   1.421   6.749
  842SOL     OW 3085   0.335   0.559   6.875
  842SOL    HW1 3086   0.393   0.502   6.925
  842SOL    HW2 3087   0.350   0.533   6.784
  843SOL     OW 3088   0.828   1.577   6.264
  843SOL    HW1 3089   0.817   1.630   6.185
  843SOL    HW2 3090   0.750   1.521   6.267
  844SOL     OW 3091   1.428   0.218   6.702
  844SOL    HW1 3092   1.465   0.144   6.750
  844SOL    HW2 3093   1.380   0.268   6.768
  845SOL     OW 3094   1.002   0.021   6.728
  845SOL    HW1 3095   0.952   5.252   6.684
  845SOL    HW2 3096   1.089   5.284   6.741
  846SOL     OW 3097   0.771   1.332   5.900
  846SOL    HW1 3098   0.741   1.242   5.906
  846SOL    HW2 3099   0.854   1.333   5.949
  847SOL     OW 3100   0.622   1.557   6.873
  847SOL    HW1 3101   0.624   1.639   6.922
  847SOL    HW2 3102   0.709   1.551   6.833
  848SOL     OW 3103   1.354   0.040   5.747
  848SOL    HW1 3104   1.387   5.298   5.668
  848SOL    HW2 3105   1.276   5.289   5.770
  849SOL     OW 3106   1.301   0.463   6.271
  849SOL    HW1 3107   1.246   0.542   6.277
  849SOL    HW2 3108   1.294   0.423   6.358
  850SOL     OW 3109   1.594   0.216   6.468
  850SOL    HW1 3110   1.527   0.227   6.535
  850SOL    HW2 3111   1.587   0.294   6.413
  851SOL     OW 3112   0.047   1.069   5.876
  851SOL    HW1 3113   0.137   1.038   5.866
  851SOL    HW2 3114   5.300   0.993   5.911
  852SOL     OW 3115   0.884   1.651   5.929
  852SOL    HW1 3116   0.811   1.635   5.868
  852SOL    HW2 3117   0.856   1.727   5.980
  853SOL     OW 3118   0.229   0.631   7.566
  853SOL    HW1 3119   0.150   0.597   7.608
  853SOL    HW2 3120   0.221   0.603   7.475
  854SOL     OW 3121   1.768   0.599   7.680
  854SOL    HW1 3122   1.747   0.594   7.586
  854SOL    HW2 3123   1.725   0.521   7.717
  855SOL     OW 3124   0.229   1.708   7.921
  855SOL    HW1 3125   0.264   1.752   7.998
  855SOL    HW2 3126   0.299   1.713   7.856
  856SOL     OW 3127   0.217   1.436   7.990
  856SOL    HW1 3128   0.208   1.531   7.985
  856SOL    HW2 3129   0.154   1.410   8.057
  857SOL     OW 3130   0.584   0.983   7.580
  857SOL    HW1 3131   0.629   1.032   7.511
  857SOL    HW2 3132   0.626   1.013   7.661
  858SOL     OW 3133   1.837   1.760   7.797
  858SOL    HW1 3134   1.907   1.729   7.855
  858SOL    HW2 3135   1.864   1.848   7.772
  859SOL     OW 3136   0.036   1.601   7.581
  859SOL    HW1 3137   0.027   1.508   7.602
  859SOL    HW2 3138   5.278   1.645   7.643
  860SOL     OW 3139   1.684   0.868   8.035
  860SOL    HW1 3140   1.764   0.880   0.005
  860SOL    HW2 3141   1.671   0.951   7.990
  861SOL     OW 3142   1.654   1.099   7.876
  861SOL    HW1 3143   1.742   1.124   7.846
  861SOL    HW2 3144   1.628   1.170   7.935
  862SOL     OW 3145   0.810   5.291   7.944
  862SOL    HW1 3146   0.851   0.076   7.931
  862SOL    HW2 3147   0.716   0.009   7.942
  863SOL     OW 3148   1.533   0.994   7.648
  863SOL    HW1 3149   1.466   0.935   7.682
  863SOL    HW2 3150   1.576   1.029   7.726
  864SOL     OW 3151   0.588   0.723   7.707
  864SOL    HW1 3152   0.598   0.804   7.658
  864SOL    HW2 3153   0.533   0.747   7.782
  865SOL     OW 3154   1.575   1.670   7.757
  865SOL    HW1 3155   1.665   1.700   7.765
  865SOL    HW2 3156   1.563   1.657   7.663
  866SOL     OW 3157   0.051   0.816   0.201
  866SOL    HW1 3158   0.124   0.767   0.163
  866SOL    HW2 3159   0.029   0.882   0.135
  867SOL     OW 3160   0.866   0.356   7.629
  867SOL    HW1 3161   0.914   0.420   7.577
  867SOL    HW2 3162   0.928   0.283   7.640
  868SOL     OW 3163   0.320   0.949   7.694
  868SOL    HW1 3164   0.400   0.976   7.650
  868SOL    HW2 3165   0.297   0.866   7.652
  869SOL     OW 3166   1.123   1.776   7.682
  869SOL    HW1 3167   1.047   1.735   7.724
  869SOL    HW2 3168   1.146   1.716   7.611
  870SOL     OW 3169   1.629   1.380   7.533
  870SOL    HW1 3170   1.587   1.465   7.520
  870SOL    HW2 3171   1.560   1.316   7.516
  871SOL     OW 3172   0.470   1.737   7.769
  871SOL    HW1 3173   0.515   1.791   7.834
  871SOL    HW2 3174   0.539   1.704   7.713
  872SOL     OW 3175   1.408   0.106   7.881
  872SOL    HW1 3176   1.403   0.083   7.789
  872SOL    HW2 3177   1.502   0.112   7.899
  873SOL     OW 3178   0.378   0.697   7.921
  873SOL    HW1 3179   0.402   0.604   7.925
  873SOL    HW2 3180   0.289   0.700   7.956
  874SOL     OW 3181   0.616   0.131   7.559
  874SOL    HW1 3182   0.692   0.077   7.578
  874SOL    HW2 3183   0.574   0.089   7.484
  875SOL     OW 3184   0.546   0.062   7.952
  875SOL    HW1 3185   0.454   0.047   7.976
  875SOL    HW2 3186   0.543   0.135   7.891
  876SOL     OW 3187   1.428   1.197   7.489
  876SOL    HW1 3188   1.459   1.124   7.542
  876SOL    HW2 3189   1.344   1.221   7.528
  877SOL     OW 3190   0.313   0.069   7.651
  877SOL    HW1 3191   0.372   0.125   7.601
  877SOL    HW2 3192   0.359   5.285   7.658
  878SOL     OW 3193   0.950   0.228   7.909
  878SOL    HW1 3194   0.899   0.298   7.867
  878SOL    HW2 3195   1.038   0.264   7.918
  879SOL     OW 3196   0.447   1.157   0.092
  879SOL    HW1 3197   0.374   1.180   0.150
  879SOL    HW2 3198   0.406   1.140   0.007
  880SOL     OW 3199   1.290   1.811   8.014
  880SOL    HW1 3200   1.325   1.880   7.958
  880SOL    HW2 3201   1.207   1.846   8.047
  881SOL     OW 3202   1.027   0.547   7.467
  881SOL    HW1 3203   0.984   0.631   7.451
  881SOL    HW2 3204   1.087   0.564   7.539
  882SOL     OW 3205   1.871   0.818   7.801
  882SOL    HW1 3206   1.869   0.788   7.892
  882SOL    HW2 3207   1.830   0.746   7.752
  883SOL     OW 3208   0.491   1.414   7.606
  883SOL    HW1 3209   0.416   1.386   7.659
  883SOL    HW2 3210   0.471   1.383   7.518
  884SOL     OW 3211   1.393   0.572   7.519
  884SOL    HW1 3212   1.332   0.552   7.590
  884SOL    HW2 3213   1.478   0.540   7.551
  885SOL     OW 3214   0.524   0.270   7.773
  885SOL    HW1 3215   0.566   0.217   7.705
  885SOL    HW2 3216   0.504   0.353   7.730
  886SOL     OW 3217   0.709   1.060   7.814
  886SOL    HW1 3218   0.693   1.050   7.908
  886SOL    HW2 3219   0.788   1.008   7.797
  887SOL     OW 3220   0.347   1.094   7.929
  887SOL    HW1 3221   0.347   1.178   7.884
  887SOL    HW2 3222   0.350   1.029   7.859
  888SOL     OW 3223   1.225   1.356   7.821
  888SOL    HW1 3224   1.287   1.424   7.846
  888SOL    HW2 3225   1.182   1.330   7.903
  889SOL     OW 3226   1.589   0.627   7.921
  889SOL    HW1 3227   1.572   0.685   7.996
  889SOL    HW2 3228   1.627   0.684   7.855
  890SOL     OW 3229   1.204   0.526   7.716
  890SOL    HW1 3230   1.205   0.439   7.756
  890SOL    HW2 3231   1.181   0.585   7.788
  891SOL     OW 3232   1.616   0.376   7.815
  891SOL    HW1 3233   1.637   0.308   7.879
  891SOL    HW2 3234   1.592   0.452   7.867
  892SOL     OW 3235   1.529   0.273   7.575
  892SOL    HW1 3236   1.465   0.208   7.605
  892SOL    HW2 3237   1.564   0.310   7.656
  893SOL     OW 3238   1.294   0.828   7.481
  893SOL    HW1 3239   1.335   0.741   7.483
  893SOL    HW2 3240   1.325   0.867   7.400
  894SOL     OW 3241   0.003   1.333   7.656
  894SOL    HW1 3242   5.220   1.332   7.609
  894SOL    HW2 3243   0.013   1.244   7.690
  895SOL     OW 3244   0.836   0.598   7.765
  895SOL    HW1 3245   0.826   0.508   7.734
  895SOL    HW2 3246   0.746   0.633   7.765
  896SOL     OW 3247   0.461   0.493   7.633
  896SOL    HW1 3248   0.524   0.563   7.651
  896SOL    HW2 3249   0.377   0.538   7.624
  897SOL     OW 3250   1.311   0.851   7.755
  897SOL    HW1 3251   1.225   0.851   7.795
  897SOL    HW2 3252   1.294   0.841   7.661
  898SOL     OW 3253   1.708   0.130   7.945
  898SOL    HW1 3254   1.784   0.130   7.887
  898SOL    HW2 3255   1.739   0.083   8.023
  899SOL     OW 3256   1.365   1.576   7.897
  899SOL    HW1 3257   1.440   1.597   7.841
  899SOL    HW2 3258   1.333   1.661   7.927
  900SOL     OW 3259   0.668   1.618   7.604
  900SOL    HW1 3260   0.680   1.630   7.509
  900SOL    HW2 3261   0.617   1.538   7.612
  901SOL     OW 3262   1.208   1.607   7.478
  901SOL    HW1 3263   1.198   1.516   7.506
  901SOL    HW2 3264   1.142   1.619   7.410
  902SOL     OW 3265   0.924   0.911   7.753
  902SOL    HW1 3266   0.979   0.935   7.679
  902SOL    HW2 3267   0.924   0.815   7.753
  903SOL     OW 3268   1.494   1.625   7.488
  903SOL    HW1 3269   1.399   1.619   7.477
  903SOL    HW2 3270   1.529   1.631   7.399
  904SOL     OW 3271   0.604   1.504   7.936
  904SOL    HW1 3272   0.648   1.445   7.876
  904SOL    HW2 3273   0.534   1.544   7.884
  905SOL     OW 3274   0.260   1.347   7.741
  905SOL    HW1 3275   0.167   1.351   7.717
  905SOL    HW2 3276   0.263   1.383   7.829
  906SOL     OW 3277   0.077   0.344   7.487
  906SOL    HW1 3278   5.290   0.309   7.469
  906SOL    HW2 3279   0.092   0.408   7.417
  907SOL     OW 3280   0.068   0.143   7.736
  907SOL    HW1 3281   0.069   0.237   7.723
  907SOL    HW2 3282   0.156   0.114   7.715
  908SOL     OW 3283   1.177   1.339   7.556
  908SOL    HW1 3284   1.085   1.313   7.558
  908SOL    HW2 3285   1.202   1.345   7.649
  909SOL     OW 3286   1.223   0.319   7.916
  909SOL    HW1 3287   1.289   0.250   7.909
  909SOL    HW2 3288   1.246   0.367   7.995
  910SOL     OW 3289   0.622   0.740   8.047
  910SOL    HW1 3290   0.629   0.818   0.023
  910SOL    HW2 3291   0.530   0.738   8.021
  911SOL     OW 3292   0.862   1.367   7.481
  911SOL    HW1 3293   0.825   1.396   7.564
  911SOL    HW2 3294   0.882   1.448   7.434
  912SOL     OW 3295   1.072   0.978   7.536
  912SOL    HW1 3296   1.054   1.036   7.462
  912SOL    HW2 3297   1.152   0.931   7.511
  913SOL     OW 3298   0.398   0.427   7.981
  913SOL    HW1 3299   0.447   0.367   7.924
  913SOL    HW2 3300   0.439   0.417   8.067
  914SOL     OW 3301   0.766   1.335   7.760
  914SOL    HW1 3302   0.736   1.244   7.762
  914SOL    HW2 3303   0.847   1.334   7.811
  915SOL     OW 3304   1.362   0.038   7.610
  915SOL    HW1 3305   1.378   5.292   7.528
  915SOL    HW2 3306   1.282   5.299   7.645
  916SOL     OW 3307   0.047   1.070   7.722
  916SOL    HW1 3308   0.137   1.037   7.723
  916SOL    HW2 3309   5.300   1.010   7.779
  917SOL     OW 3310   0.892   1.651   7.781
  917SOL    HW1 3311   0.816   1.627   7.728
  917SOL    HW2 3312   0.859   1.714   7.845
  918SOL     OW 3313   0.225   2.487   0.114
  918SOL    HW1 3314   0.155   2.445   0.164
  918SOL    HW2 3315   0.232   2.434   0.034
  919SOL     OW 3316   0.240   2.137   0.989
  919SOL    HW1 3317   0.255   2.104   1.078
  919SOL    HW2 3318   0.157   2.099   0.963
  920SOL     OW 3319   5.297   2.258   0.649
  920SOL    HW1 3320   5.206   2.286   0.659
  920SOL    HW2 3321   5.292   2.165   0.627
  921SOL     OW 3322   0.573   3.145   1.180
  921SOL    HW1 3323   0.490   3.153   1.133
  921SOL    HW2 3324   0.589   3.232   1.215
  922SOL     OW 3325   1.560   3.374   0.707
  922SOL    HW1 3326   1.517   3.354   0.790
  922SOL    HW2 3327   1.488   3.378   0.643
  923SOL     OW 3328   1.130   2.560   0.702
  923SOL    HW1 3329   1.180   2.641   0.688
  923SOL    HW2 3330   1.084   2.575   0.784
  924SOL     OW 3331   1.771   2.462   0.233
  924SOL    HW1 3332   1.730   2.466   0.146
  924SOL    HW2 3333   1.729   2.387   0.275
  925SOL     OW 3334   0.757   3.004   1.038
  925SOL    HW1 3335   0.689   3.037   1.097
  925SOL    HW2 3336   0.791   3.082   0.995
  926SOL     OW 3337   0.865   2.639   1.822
  926SOL    HW1 3338   0.855   2.710   1.884
  926SOL    HW2 3339   0.888   2.681   1.739
  927SOL     OW 3340   0.684   2.864   0.650
  927SOL    HW1 3341   0.750   2.853   0.718
  927SOL    HW2 3342   0.616   2.918   0.691
  928SOL     OW 3343   0.709   3.013   1.812
  928SOL    HW1 3344   0.757   3.091   1.838
  928SOL    HW2 3345   0.626   3.046   1.776
  929SOL     OW 3346   0.358   3.268   1.060
  929SOL    HW1 3347   0.271   3.264   1.021
  929SOL    HW2 3348   0.406   3.330   1.006
  930SOL     OW 3349   1.461   3.361   1.353
  930SOL    HW1 3350   1.510   3.443   1.363
  930SOL    HW2 3351   1.401   3.360   1.428
  931SOL     OW 3352   0.450   2.262   1.493
  931SOL    HW1 3353   0.524   2.201   1.495
  931SOL    HW2 3354   0.373   2.206   1.502
  932SOL     OW 3355   1.613   2.311   0.740
  932SOL    HW1 3356   1.537   2.334   0.686
  932SOL    HW2 3357   1.628   2.388   0.795
  933SOL     OW 3358   0.217   3.591   0.467
  933SOL    HW1 3359   0.260   3.646   0.532
  933SOL    HW2 3360   0.286   3.569   0.404
  934SOL     OW 3361   1.136   3.203   1.692
  934SOL    HW1 3362   1.177   3.199   1.779
  934SOL    HW2 3363   1.084   3.123   1.686
  935SOL     OW 3364   0.221   3.309   0.534
  935SOL    HW1 3365   0.202   3.403   0.540
  935SOL    HW2 3366   0.158   3.268   0.593
  936SOL     OW 3367   0.252   2.941   0.878
  936SOL    HW1 3368   0.259   2.855   0.919
  936SOL    HW2 3369   0.198   2.992   0.939
  937SOL     OW 3370   0.615   3.652   1.433
  937SOL    HW1 3371   0.531   3.635   1.475
  937SOL    HW2 3372   0.635   3.743   1.455
  938SOL     OW 3373   0.623   2.822   0.135
  938SOL    HW1 3374   0.579   2.902   0.106
  938SOL    HW2 3375   0.677   2.850   0.209
  939SOL     OW 3376   1.596   1.985   1.468
  939SOL    HW1 3377   1.599   2.065   1.417
  939SOL    HW2 3378   1.583   2.014   1.559
  940SOL     OW 3379   0.130   2.497   0.582
  940SOL    HW1 3380   0.087   2.414   0.606
  940SOL    HW2 3381   0.099   2.559   0.648
  941SOL     OW 3382   1.845   3.621   0.333
  941SOL    HW1 3383   1.908   3.591   0.398
  941SOL    HW2 3384   1.870   3.711   0.315
  942SOL     OW 3385   0.032   3.447   0.105
  942SOL    HW1 3386   0.024   3.362   0.146
  942SOL    HW2 3387   0.006   3.509   0.173
  943SOL     OW 3388   1.687   2.780   0.642
  943SOL    HW1 3389   1.771   2.739   0.620
  943SOL    HW2 3390   1.665   2.832   0.565
  944SOL     OW 3391   1.646   2.967   0.435
  944SOL    HW1 3392   1.725   2.983   0.384
  944SOL    HW2 3393   1.651   3.029   0.507
  945SOL     OW 3394   0.130   2.610   1.586
  945SOL    HW1 3395   0.225   2.624   1.590
  945SOL    HW2 3396   0.092   2.697   1.600
  946SOL     OW 3397   0.615   3.247   0.734
  946SOL    HW1 3398   0.567   3.165   0.745
  946SOL    HW2 3399   0.597   3.273   0.644
  947SOL     OW 3400   1.289   3.100   1.424
  947SOL    HW1 3401   1.322   3.033   1.364
  947SOL    HW2 3402   1.346   3.094   1.500
  948SOL     OW 3403   0.822   1.863   0.511
  948SOL    HW1 3404   0.861   1.948   0.490
  948SOL    HW2 3405   0.728   1.880   0.517
  949SOL     OW 3406   0.178   2.809   1.278
  949SOL    HW1 3407   0.269   2.780   1.267
  949SOL    HW2 3408   0.135   2.783   1.197
  950SOL     OW 3409   1.511   2.868   0.212
  950SOL    HW1 3410   1.450   2.802   0.244
  950SOL    HW2 3411   1.562   2.893   0.288
  951SOL     OW 3412   1.185   3.667   1.622
  951SOL    HW1 3413   1.197   3.726   1.547
  951SOL    HW2 3414   1.201   3.580   1.586
  952SOL     OW 3415   0.335   2.115   1.815
  952SOL    HW1 3416   0.383   2.197   1.827
  952SOL    HW2 3417   0.248   2.132   1.851
  953SOL     OW 3418   1.466   3.281   0.952
  953SOL    HW1 3419   1.398   3.296   1.017
  953SOL    HW2 3420   1.454   3.190   0.925
  954SOL     OW 3421   1.660   3.600   0.581
  954SOL    HW1 3422   1.639   3.573   0.492
  954SOL    HW2 3423   1.634   3.526   0.636
  955SOL     OW 3424   0.597   2.576   0.280
  955SOL    HW1 3425   0.617   2.654   0.229
  955SOL    HW2 3426   0.534   2.606   0.346
  956SOL     OW 3427   1.280   2.213   0.932
  956SOL    HW1 3428   1.190   2.180   0.941
  956SOL    HW2 3429   1.330   2.160   0.994
  957SOL     OW 3430   1.587   3.532   0.319
  957SOL    HW1 3431   1.677   3.563   0.312
  957SOL    HW2 3432   1.560   3.515   0.228
  958SOL     OW 3433   0.792   2.479   1.452
  958SOL    HW1 3434   0.765   2.456   1.541
  958SOL    HW2 3435   0.751   2.413   1.396
  959SOL     OW 3436   1.394   2.336   1.678
  959SOL    HW1 3437   1.395   2.380   1.762
  959SOL    HW2 3438   1.455   2.263   1.688
  960SOL     OW 3439   0.955   2.750   1.582
  960SOL    HW1 3440   1.010   2.679   1.547
  960SOL    HW2 3441   0.908   2.783   1.506
  961SOL     OW 3442   0.992   2.274   1.239
  961SOL    HW1 3443   0.907   2.297   1.277
  961SOL    HW2 3444   0.971   2.228   1.158
  962SOL     OW 3445   1.052   2.561   0.427
  962SOL    HW1 3446   1.067   2.554   0.521
  962SOL    HW2 3447   0.969   2.514   0.413
  963SOL     OW 3448   0.068   2.650   0.817
  963SOL    HW1 3449   0.153   2.654   0.862
  963SOL    HW2 3450   0.064   2.732   0.767
  964SOL     OW 3451   0.131   3.744   1.584
  964SOL    HW1 3452   0.133   3.713   1.675
  964SOL    HW2 3453   0.058   3.697   1.544
  965SOL     OW 3454   0.884   2.219   0.201
  965SOL    HW1 3455   0.929   2.268   0.133
  965SOL    HW2 3456   0.884   2.129   0.170
  966SOL     OW 3457   1.710   2.437   1.828
  966SOL    HW1 3458   1.672   2.512   1.781
  966SOL    HW2 3459   1.736   2.376   1.759
  967SOL     OW 3460   1.376   3.003   0.541
  967SOL    HW1 3461   1.454   2.990   0.488
  967SOL    HW2 3462   1.323   3.066   0.492
  968SOL     OW 3463   0.554   2.046   0.893
  968SOL    HW1 3464   0.552   2.073   0.985
  968SOL    HW2 3465   0.553   2.128   0.844
  969SOL     OW 3466   1.006   3.307   0.473
  969SOL    HW1 3467   0.967   3.379   0.423
  969SOL    HW2 3468   0.988   3.329   0.565
  970SOL     OW 3469   0.357   3.663   0.868
  970SOL    HW1 3470   0.398   3.578   0.881
  970SOL    HW2 3471   0.423   3.726   0.897
  971SOL     OW 3472   1.798   2.918   0.868
  971SOL    HW1 3473   1.742   2.903   0.792
  971SOL    HW2 3474   1.737   2.925   0.942
  972SOL     OW 3475   1.228   3.401   1.513
  972SOL    HW1 3476   1.214   3.328   1.573
  972SOL    HW2 3477   1.165   3.387   1.442
  973SOL     OW 3478   0.330   2.813   0.250
  973SOL    HW1 3479   0.411   2.826   0.200
  973SOL    HW2 3480   0.313   2.719   0.243
  974SOL     OW 3481   1.478   2.602   0.727
  974SOL    HW1 3482   1.468   2.560   0.812
  974SOL    HW2 3483   1.554   2.659   0.736
  975SOL     OW 3484   0.464   3.125   1.737
  975SOL    HW1 3485   0.437   3.132   1.646
  975SOL    HW2 3486   0.383   3.126   1.787
  976SOL     OW 3487   1.108   3.643   0.224
  976SOL    HW1 3488   1.052   3.602   0.291
  976SOL    HW2 3489   1.128   3.571   0.163
  977SOL     OW 3490   0.205   2.143   1.497
  977SOL    HW1 3491   0.125   2.194   1.482
  977SOL    HW2 3492   0.174   2.065   1.544
  978SOL     OW 3493   1.633   3.235   0.082
  978SOL    HW1 3494   1.593   3.321   0.081
  978SOL    HW2 3495   1.561   3.174   0.064
  979SOL     OW 3496   0.470   3.596   0.325
  979SOL    HW1 3497   0.512   3.657   0.386
  979SOL    HW2 3498   0.540   3.571   0.265
  980SOL     OW 3499   1.407   1.973   0.443
  980SOL    HW1 3500   1.397   1.952   0.350
  980SOL    HW2 3501   1.501   1.980   0.456
  981SOL     OW 3502   0.276   3.663   1.215
  981SOL    HW1 3503   0.307   3.587   1.264
  981SOL    HW2 3504   0.225   3.626   1.142
  982SOL     OW 3505   0.938   3.561   0.899
  982SOL    HW1 3506   1.016   3.508   0.920
  982SOL    HW2 3507   0.894   3.511   0.831
  983SOL     OW 3508   0.382   2.561   0.476
  983SOL    HW1 3509   0.414   2.471   0.485
  983SOL    HW2 3510   0.290   2.556   0.502
  984SOL     OW 3511   1.536   2.087   1.725
  984SOL    HW1 3512   1.545   2.108   1.818
  984SOL    HW2 3513   1.467   2.021   1.722
  985SOL     OW 3514   0.628   1.973   0.136
  985SOL    HW1 3515   0.723   1.961   0.141
  985SOL    HW2 3516   0.607   1.954   0.044
  986SOL     OW 3517   0.767   2.140   1.753
  986SOL    HW1 3518   0.842   2.080   1.756
  986SOL    HW2 3519   0.718   2.120   1.833
  987SOL     OW 3520   0.877   3.383   1.193
  987SOL    HW1 3521   0.861   3.347   1.106
  987SOL    HW2 3522   0.947   3.329   1.230
  988SOL     OW 3523   1.341   2.450   1.432
  988SOL    HW1 3524   1.372   2.419   1.517
  988SOL    HW2 3525   1.377   2.539   1.424
  989SOL     OW 3526   0.815   3.257   0.938
  989SOL    HW1 3527   0.899   3.247   0.894
  989SOL    HW2 3528   0.750   3.258   0.868
  990SOL     OW 3529   0.928   2.371   0.903
  990SOL    HW1 3530   0.904   2.363   0.810
  990SOL    HW2 3531   0.959   2.284   0.927
  991SOL     OW 3532   0.560   1.924   0.500
  991SOL    HW1 3533   0.485   1.924   0.560
  991SOL    HW2 3534   0.549   2.003   0.448
  992SOL     OW 3535   1.433   3.061   0.036
  992SOL    HW1 3536   1.458   2.987   0.092
  992SOL    HW2 3537   1.345   3.085   0.066
  993SOL     OW 3538   0.313   1.907   0.173
  993SOL    HW1 3539   0.376   1.979   0.178
  993SOL    HW2 3540   0.357   1.834   0.218
  994SOL     OW 3541   0.940   2.109   0.460
  994SOL    HW1 3542   0.912   2.150   0.378
  994SOL    HW2 3543   1.034   2.125   0.463
  995SOL     OW 3544   1.080   2.542   1.460
  995SOL    HW1 3545   1.010   2.476   1.465
  995SOL    HW2 3546   1.160   2.491   1.453
  996SOL     OW 3547   1.224   3.431   0.794
  996SOL    HW1 3548   1.240   3.499   0.728
  996SOL    HW2 3549   1.292   3.446   0.860
  997SOL     OW 3550   0.467   3.012   0.733
  997SOL    HW1 3551   0.398   2.992   0.796
  997SOL    HW2 3552   0.428   2.995   0.647
  998SOL     OW 3553   1.268   3.656   0.606
  998SOL    HW1 3554   1.317   3.719   0.553
  998SOL    HW2 3555   1.202   3.709   0.651
  999SOL     OW 3556   1.031   2.392   0.030
  999SOL    HW1 3557   0.990   2.472   8.079
  999SOL    HW2 3558   1.094   2.421   0.097
 1000SOL     OW 3559   0.086   2.408   1.397
 1000SOL    HW1 3560   0.175   2.415   1.361
 1000SOL    HW2 3561   0.079   2.484   1.456
 1001SOL     OW 3562   0.560   2.089   1.165
 1001SOL    HW1 3563   0.598   2.009   1.202
 1001SOL    HW2 3564   0.469   2.088   1.194
 1002SOL     OW 3565   0.868   2.320   0.639
 1002SOL    HW1 3566   0.825   2.376   0.574
 1002SOL    HW2 3567   0.889   2.240   0.592
 1003SOL     OW 3568   1.016   1.914   0.751
 1003SOL    HW1 3569   0.956   1.907   0.677
 1003SOL    HW2 3570   0.994   1.839   0.806
 1004SOL     OW 3571   1.437   3.025   0.857
 1004SOL    HW1 3572   1.368   2.959   0.856
 1004SOL    HW2 3573   1.460   3.037   0.765
 1005SOL     OW 3574   1.467   2.466   0.978
 1005SOL    HW1 3575   1.416   2.385   0.982
 1005SOL    HW2 3576   1.526   2.461   1.052
 1006SOL     OW 3577   1.850   2.677   0.389
 1006SOL    HW1 3578   1.901   2.623   0.448
 1006SOL    HW2 3579   1.818   2.617   0.322
 1007SOL     OW 3580   0.483   3.302   0.173
 1007SOL    HW1 3581   0.411   3.262   0.221
 1007SOL    HW2 3582   0.487   3.253   0.091
 1008SOL     OW 3583   1.670   3.127   0.648
 1008SOL    HW1 3584   1.764   3.131   0.661
 1008SOL    HW2 3585   1.639   3.215   0.669
 1009SOL     OW 3586   1.398   2.441   0.086
 1009SOL    HW1 3587   1.336   2.422   0.156
 1009SOL    HW2 3588   1.455   2.365   0.082
 1010SOL     OW 3589   0.516   2.125   0.324
 1010SOL    HW1 3590   0.565   2.073   0.260
 1010SOL    HW2 3591   0.502   2.209   0.280
 1011SOL     OW 3592   1.753   3.100   1.575
 1011SOL    HW1 3593   1.840   3.062   1.569
 1011SOL    HW2 3594   1.768   3.190   1.603
 1012SOL     OW 3595   1.059   3.215   1.333
 1012SOL    HW1 3596   0.984   3.184   1.385
 1012SOL    HW2 3597   1.135   3.174   1.375
 1013SOL     OW 3598   1.607   3.487   1.653
 1013SOL    HW1 3599   1.602   3.521   1.564
 1013SOL    HW2 3600   1.690   3.440   1.656
 1014SOL     OW 3601   1.128   3.064   1.106
 1014SOL    HW1 3602   1.069   3.103   1.171
 1014SOL    HW2 3603   1.095   3.097   1.022
 1015SOL     OW 3604   1.629   2.960   1.078
 1015SOL    HW1 3605   1.624   3.023   1.151
 1015SOL    HW2 3606   1.549   2.977   1.027
 1016SOL     OW 3607   0.919   1.959   1.398
 1016SOL    HW1 3608   0.941   1.941   1.306
 1016SOL    HW2 3609   0.998   1.999   1.434
 1017SOL     OW 3610   0.984   2.976   1.723
 1017SOL    HW1 3611   0.892   2.993   1.743
 1017SOL    HW2 3612   0.983   2.899   1.667
 1018SOL     OW 3613   0.713   2.923   0.380
 1018SOL    HW1 3614   0.697   2.907   0.473
 1018SOL    HW2 3615   0.791   2.872   0.360
 1019SOL     OW 3616   0.420   2.680   1.252
 1019SOL    HW1 3617   0.489   2.687   1.318
 1019SOL    HW2 3618   0.385   2.592   1.263
 1020SOL     OW 3619   1.266   2.239   1.274
 1020SOL    HW1 3620   1.298   2.317   1.320
 1020SOL    HW2 3621   1.176   2.262   1.251
 1021SOL     OW 3622   0.101   3.485   1.367
 1021SOL    HW1 3623   0.078   3.494   1.275
 1021SOL    HW2 3624   0.187   3.443   1.367
 1022SOL     OW 3625   0.347   2.969   0.488
 1022SOL    HW1 3626   0.347   3.048   0.435
 1022SOL    HW2 3627   0.360   2.898   0.426
 1023SOL     OW 3628   0.555   2.398   0.859
 1023SOL    HW1 3629   0.571   2.457   0.785
 1023SOL    HW2 3630   0.618   2.425   0.925
 1024SOL     OW 3631   1.247   3.209   0.394
 1024SOL    HW1 3632   1.303   3.282   0.422
 1024SOL    HW2 3633   1.160   3.232   0.425
 1025SOL     OW 3634   1.280   3.319   1.146
 1025SOL    HW1 3635   1.335   3.322   1.225
 1025SOL    HW2 3636   1.224   3.242   1.159
 1026SOL     OW 3637   1.584   2.487   0.480
 1026SOL    HW1 3638   1.534   2.537   0.545
 1026SOL    HW2 3639   1.619   2.552   0.420
 1027SOL     OW 3640   0.351   3.381   1.311
 1027SOL    HW1 3641   0.342   3.338   1.226
 1027SOL    HW2 3642   0.445   3.399   1.318
 1028SOL     OW 3643   0.413   2.605   1.602
 1028SOL    HW1 3644   0.474   2.651   1.544
 1028SOL    HW2 3645   0.453   2.519   1.615
 1029SOL     OW 3646   1.600   2.640   1.681
 1029SOL    HW1 3647   1.514   2.681   1.674
 1029SOL    HW2 3648   1.652   2.682   1.613
 1030SOL     OW 3649   0.996   1.983   1.756
 1030SOL    HW1 3650   1.051   2.056   1.726
 1030SOL    HW2 3651   1.045   1.905   1.730
 1031SOL     OW 3652   0.497   1.904   1.747
 1031SOL    HW1 3653   0.456   1.850   1.680
 1031SOL    HW2 3654   0.437   1.977   1.759
 1032SOL     OW 3655   0.585   2.735   1.032
 1032SOL    HW1 3656   0.615   2.826   1.030
 1032SOL    HW2 3657   0.528   2.730   1.109
 1033SOL     OW 3658   1.359   2.721   1.031
 1033SOL    HW1 3659   1.276   2.713   0.983
 1033SOL    HW2 3660   1.398   2.633   1.026
 1034SOL     OW 3661   1.205   2.390   0.271
 1034SOL    HW1 3662   1.212   2.311   0.325
 1034SOL    HW2 3663   1.162   2.454   0.328
 1035SOL     OW 3664   0.302   2.066   1.248
 1035SOL    HW1 3665   0.267   2.091   1.333
 1035SOL    HW2 3666   0.289   1.971   1.243
 1036SOL     OW 3667   0.070   3.181   1.281
 1036SOL    HW1 3668   0.090   3.121   1.353
 1036SOL    HW2 3669   0.002   3.238   1.316
 1037SOL     OW 3670   0.724   2.493   1.058
 1037SOL    HW1 3671   0.799   2.477   1.000
 1037SOL    HW2 3672   0.697   2.583   1.037
 1038SOL     OW 3673   1.734   2.821   1.852
 1038SOL    HW1 3674   1.687   2.761   1.794
 1038SOL    HW2 3675   1.675   2.834   1.926
 1039SOL     OW 3676   0.326   1.925   0.635
 1039SOL    HW1 3677   0.309   2.015   0.665
 1039SOL    HW2 3678   0.331   1.874   0.716
 1040SOL     OW 3679   1.620   2.236   0.370
 1040SOL    HW1 3680   1.644   2.172   0.437
 1040SOL    HW2 3681   1.594   2.314   0.420
 1041SOL     OW 3682   1.028   2.621   0.961
 1041SOL    HW1 3683   1.025   2.639   1.055
 1041SOL    HW2 3684   1.001   2.530   0.953
 1042SOL     OW 3685   0.982   3.428   1.716
 1042SOL    HW1 3686   0.967   3.472   1.633
 1042SOL    HW2 3687   1.026   3.346   1.692
 1043SOL     OW 3688   1.855   3.369   1.605
 1043SOL    HW1 3689   1.873   3.395   1.515
 1043SOL    HW2 3690   1.936   3.388   1.652
 1044SOL     OW 3691   0.354   2.780   1.806
 1044SOL    HW1 3692   0.435   2.799   1.853
 1044SOL    HW2 3693   0.378   2.715   1.740
 1045SOL     OW 3694   1.521   2.160   0.126
 1045SOL    HW1 3695   1.470   2.080   0.143
 1045SOL    HW2 3696   1.559   2.182   0.211
 1046SOL     OW 3697   1.295   2.687   0.022
 1046SOL    HW1 3698   1.334   2.601   0.039
 1046SOL    HW2 3699   1.354   2.728   8.039
 1047SOL     OW 3700   1.066   3.197   0.854
 1047SOL    HW1 3701   1.069   3.125   0.791
 1047SOL    HW2 3702   1.127   3.262   0.819
 1048SOL     OW 3703   0.314   2.672   0.950
 1048SOL    HW1 3704   0.408   2.690   0.946
 1048SOL    HW2 3705   0.309   2.582   0.982
 1049SOL     OW 3706   0.335   2.387   1.014
 1049SOL    HW1 3707   0.300   2.299   1.000
 1049SOL    HW2 3708   0.410   2.393   0.955
 1050SOL     OW 3709   1.134   2.238   1.681
 1050SOL    HW1 3710   1.087   2.293   1.744
 1050SOL    HW2 3711   1.222   2.276   1.678
 1051SOL     OW 3712   1.161   2.065   1.470
 1051SOL    HW1 3713   1.150   2.128   1.541
 1051SOL    HW2 3714   1.199   2.116   1.399
 1052SOL     OW 3715   0.008   3.192   0.202
 1052SOL    HW1 3716   5.233   3.180   0.144
 1052SOL    HW2 3717   0.014   3.110   0.251
 1053SOL     OW 3718   0.092   3.644   0.948
 1053SOL    HW1 3719   0.059   3.572   0.895
 1053SOL    HW2 3720   0.180   3.660   0.914
 1054SOL     OW 3721   0.505   3.435   0.907
 1054SOL    HW1 3722   0.572   3.500   0.928
 1054SOL    HW2 3723   0.548   3.373   0.848
 1055SOL     OW 3724   0.985   2.654   1.227
 1055SOL    HW1 3725   1.039   2.631   1.302
 1055SOL    HW2 3726   0.898   2.618   1.248
 1056SOL     OW 3727   0.033   2.419   1.115
 1056SOL    HW1 3728   0.121   2.397   1.083
 1056SOL    HW2 3729   0.038   2.404   1.209
 1057SOL     OW 3730   0.175   2.375   1.712
 1057SOL    HW1 3731   0.241   2.340   1.652
 1057SOL    HW2 3732   0.146   2.456   1.670
 1058SOL     OW 3733   1.377   2.802   1.659
 1058SOL    HW1 3734   1.398   2.895   1.658
 1058SOL    HW2 3735   1.374   2.776   1.567
 1059SOL     OW 3736   0.818   2.432   0.365
 1059SOL    HW1 3737   0.828   2.360   0.303
 1059SOL    HW2 3738   0.742   2.480   0.335
 1060SOL     OW 3739   1.642   2.463   1.187
 1060SOL    HW1 3740   1.631   2.404   1.261
 1060SOL    HW2 3741   1.729   2.443   1.152
 1061SOL     OW 3742   0.257   3.418   1.735
 1061SOL    HW1 3743   0.233   3.481   1.804
 1061SOL    HW2 3744   0.249   3.332   1.777
 1062SOL     OW 3745   0.700   2.313   1.260
 1062SOL    HW1 3746   0.647   2.239   1.230
 1062SOL    HW2 3747   0.696   2.376   1.188
 1063SOL     OW 3748   0.929   3.541   1.467
 1063SOL    HW1 3749   0.902   3.507   1.382
 1063SOL    HW2 3750   0.925   3.636   1.458
 1064SOL     OW 3751   0.467   2.352   0.181
 1064SOL    HW1 3752   0.532   2.419   0.200
 1064SOL    HW2 3753   0.383   2.398   0.185
 1065SOL     OW 3754   0.148   3.000   1.471
 1065SOL    HW1 3755   0.147   2.950   1.553
 1065SOL    HW2 3756   0.161   2.933   1.403
 1066SOL     OW 3757   1.327   2.909   1.224
 1066SOL    HW1 3758   1.350   2.846   1.156
 1066SOL    HW2 3759   1.256   2.961   1.185
 1067SOL     OW 3760   1.306   2.710   0.308
 1067SOL    HW1 3761   1.228   2.683   0.356
 1067SOL    HW2 3762   1.283   2.700   0.216
 1068SOL     OW 3763   1.770   3.607   1.149
 1068SOL    HW1 3764   1.831   3.633   1.080
 1068SOL    HW2 3765   1.747   3.517   1.128
 1069SOL     OW 3766   1.241   3.595   1.114
 1069SOL    HW1 3767   1.323   3.615   1.069
 1069SOL    HW2 3768   1.246   3.501   1.132
 1070SOL     OW 3769   0.083   3.081   1.027
 1070SOL    HW1 3770   0.069   3.106   1.119
 1070SOL    HW2 3771   5.294   3.069   0.992
 1071SOL     OW 3772   0.678   3.527   1.728
 1071SOL    HW1 3773   0.623   3.606   1.723
 1071SOL    HW2 3774   0.741   3.538   1.657
 1072SOL     OW 3775   0.905   1.953   0.133
 1072SOL    HW1 3776   0.926   1.939   0.041
 1072SOL    HW2 3777   0.968   1.900   0.181
 1073SOL     OW 3778   1.719   2.006   0.511
 1073SOL    HW1 3779   1.792   1.990   0.450
 1073SOL    HW2 3780   1.703   1.921   0.552
 1074SOL     OW 3781   1.389   3.430   0.485
 1074SOL    HW1 3782   1.453   3.463   0.421
 1074SOL    HW2 3783   1.342   3.508   0.514
 1075SOL     OW 3784   0.144   3.660   1.843
 1075SOL    HW1 3785   0.090   3.597   1.889
 1075SOL    HW2 3786   0.190   3.708   1.911
 1076SOL     OW 3787   1.277   2.787   0.671
 1076SOL    HW1 3788   1.351   2.726   0.676
 1076SOL    HW2 3789   1.310   2.860   0.619
 1077SOL     OW 3790   0.815   3.135   1.431
 1077SOL    HW1 3791   0.788   3.174   1.513
 1077SOL    HW2 3792   0.746   3.156   1.369
 1078SOL     OW 3793   0.678   3.481   0.155
 1078SOL    HW1 3794   0.681   3.488   0.060
 1078SOL    HW2 3795   0.617   3.409   0.172
 1079SOL     OW 3796   1.628   3.588   1.391
 1079SOL    HW1 3797   1.677   3.596   1.310
 1079SOL    HW2 3798   1.614   3.679   1.419
 1080SOL     OW 3799   1.840   2.035   0.966
 1080SOL    HW1 3800   1.868   1.948   0.939
 1080SOL    HW2 3801   1.753   2.045   0.927
 1081SOL     OW 3802   0.270   2.179   0.717
 1081SOL    HW1 3803   0.187   2.222   0.697
 1081SOL    HW2 3804   0.270   2.168   0.812
 1082SOL     OW 3805   1.156   3.443   0.051
 1082SOL    HW1 3806   1.173   3.351   0.070
 1082SOL    HW2 3807   1.167   3.451   8.036
 1083SOL     OW 3808   0.824   2.868   1.372
 1083SOL    HW1 3809   0.867   2.864   1.287
 1083SOL    HW2 3810   0.824   2.961   1.395
 1084SOL     OW 3811   0.918   2.775   0.297
 1084SOL    HW1 3812   0.972   2.800   0.222
 1084SOL    HW2 3813   0.965   2.703   0.338
 1085SOL     OW 3814   1.510   3.486   0.060
 1085SOL    HW1 3815   1.415   3.487   0.049
 1085SOL    HW2 3816   1.545   3.487   8.051
 1086SOL     OW 3817   0.368   3.165   1.493
 1086SOL    HW1 3818   0.359   3.240   1.434
 1086SOL    HW2 3819   0.292   3.110   1.474
 1087SOL     OW 3820   1.611   3.145   1.281
 1087SOL    HW1 3821   1.671   3.136   1.354
 1087SOL    HW2 3822   1.551   3.214   1.307
 1088SOL     OW 3823   1.051   2.969   0.706
 1088SOL    HW1 3824   0.980   2.917   0.746
 1088SOL    HW2 3825   1.113   2.903   0.673
 1089SOL     OW 3826   1.021   2.102   0.966
 1089SOL    HW1 3827   1.016   2.054   0.883
 1089SOL    HW2 3828   1.015   2.034   1.033
 1090SOL     OW 3829   0.602   3.349   0.480
 1090SOL    HW1 3830   0.644   3.300   0.409
 1090SOL    HW2 3831   0.534   3.401   0.436
 1091SOL     OW 3832   1.721   2.254   1.380
 1091SOL    HW1 3833   1.793   2.318   1.378
 1091SOL    HW2 3834   1.751   2.183   1.324
 1092SOL     OW 3835   0.268   3.188   0.299
 1092SOL    HW1 3836   0.183   3.199   0.258
 1092SOL    HW2 3837   0.260   3.234   0.383
 1093SOL     OW 3838   0.115   2.878   1.718
 1093SOL    HW1 3839   0.044   2.843   1.772
 1093SOL    HW2 3840   0.195   2.847   1.761
 1094SOL     OW 3841   0.674   2.058   1.499
 1094SOL    HW1 3842   0.758   2.039   1.457
 1094SOL    HW2 3843   0.697   2.089   1.587
 1095SOL     OW 3844   0.041   2.255   0.028
 1095SOL    HW1 3845   0.019   2.167   0.057
 1095SOL    HW2 3846   0.121   2.244   8.057
 1096SOL     OW 3847   1.430   2.720   1.401
 1096SOL    HW1 3848   1.382   2.781   1.345
 1096SOL    HW2 3849   1.520   2.723   1.367
 1097SOL     OW 3850   0.052   1.997   0.219
 1097SOL    HW1 3851   0.053   2.085   0.256
 1097SOL    HW2 3852   0.144   1.973   0.209
 1098SOL     OW 3853   1.184   3.180   0.122
 1098SOL    HW1 3854   1.089   3.171   0.122
 1098SOL    HW2 3855   1.208   3.183   0.214
 1099SOL     OW 3856   0.619   2.693   1.435
 1099SOL    HW1 3857   0.675   2.769   1.419
 1099SOL    HW2 3858   0.680   2.619   1.443
 1100SOL     OW 3859   1.484   3.637   0.977
 1100SOL    HW1 3860   1.509   3.697   0.906
 1100SOL    HW2 3861   1.566   3.620   1.023
 1101SOL     OW 3862   0.717   2.426   1.705
 1101SOL    HW1 3863   0.757   2.490   1.765
 1101SOL    HW2 3864   0.747   2.341   1.736
 1102SOL     OW 3865   1.471   3.063   1.632
 1102SOL    HW1 3866   1.459   3.076   1.726
 1102SOL    HW2 3867   1.564   3.077   1.618
 1103SOL     OW 3868   0.379   3.604   1.564
 1103SOL    HW1 3869   0.296   3.650   1.549
 1103SOL    HW2 3870   0.354   3.523   1.609
 1104SOL     OW 3871   1.671   2.744   1.255
 1104SOL    HW1 3872   1.662   2.658   1.212
 1104SOL    HW2 3873   1.661   2.807   1.184
 1105SOL     OW 3874   1.217   2.180   0.460
 1105SOL    HW1 3875   1.283   2.110   0.452
 1105SOL    HW2 3876   1.245   2.230   0.536
 1106SOL     OW 3877   0.590   2.599   0.668
 1106SOL    HW1 3878   0.629   2.685   0.654
 1106SOL    HW2 3879   0.519   2.595   0.604
 1107SOL     OW 3880   1.764   2.223   1.649
 1107SOL    HW1 3881   1.745   2.238   1.556
 1107SOL    HW2 3882   1.692   2.166   1.679
 1108SOL     OW 3883   1.745   2.795   1.512
 1108SOL    HW1 3884   1.743   2.890   1.526
 1108SOL    HW2 3885   1.729   2.784   1.418
 1109SOL     OW 3886   0.893   3.234   0.034
 1109SOL    HW1 3887   0.830   3.226   0.105
 1109SOL    HW2 3888   0.879   3.323   8.079
 1110SOL     OW 3889   0.662   3.656   0.945
 1110SOL    HW1 3890   0.641   3.747   0.921
 1110SOL    HW2 3891   0.758   3.652   0.938
 1111SOL     OW 3892   0.867   2.828   0.855
 1111SOL    HW1 3893   0.917   2.757   0.895
 1111SOL    HW2 3894   0.833   2.878   0.929
 1112SOL     OW 3895   1.076   2.839   0.085
 1112SOL    HW1 3896   1.067   2.903   0.015
 1112SOL    HW2 3897   1.154   2.789   0.062
 1113SOL     OW 3898   1.855   3.416   0.844
 1113SOL    HW1 3899   1.776   3.406   0.791
 1113SOL    HW2 3900   1.846   3.351   0.913
 1114SOL     OW 3901   0.225   3.167   1.859
 1114SOL    HW1 3902   0.157   3.104   1.834
 1114SOL    HW2 3903   0.213   3.177   1.954
 1115SOL     OW 3904   0.092   3.094   0.660
 1115SOL    HW1 3905   0.098   3.050   0.744
 1115SOL    HW2 3906   0.169   3.064   0.611
 1116SOL     OW 3907   0.681   3.264   1.628
 1116SOL    HW1 3908   0.600   3.221   1.657
 1116SOL    HW2 3909   0.676   3.352   1.664
 1117SOL     OW 3910   1.814   2.047   1.238
 1117SOL    HW1 3911   1.822   1.953   1.253
 1117SOL    HW2 3912   1.823   2.057   1.143
 1118SOL     OW 3913   0.431   2.300   0.523
 1118SOL    HW1 3914   0.461   2.228   0.469
 1118SOL    HW2 3915   0.387   2.258   0.597
 1119SOL     OW 3916   1.701   3.352   1.097
 1119SOL    HW1 3917   1.620   3.328   1.053
 1119SOL    HW2 3918   1.714   3.283   1.162
 1120SOL     OW 3919   0.335   2.420   1.291
 1120SOL    HW1 3920   0.388   2.361   1.345
 1120SOL    HW2 3921   0.350   2.391   1.201
 1121SOL     OW 3922   0.828   3.439   0.678
 1121SOL    HW1 3923   0.816   3.492   0.599
 1121SOL    HW2 3924   0.750   3.383   0.681
 1122SOL     OW 3925   1.432   2.087   1.118
 1122SOL    HW1 3926   1.457   2.007   1.165
 1122SOL    HW2 3927   1.380   2.136   1.181
 1123SOL     OW 3928   1.009   1.881   1.143
 1123SOL    HW1 3929   0.954   1.813   1.104
 1123SOL    HW2 3930   1.097   1.843   1.145
 1124SOL     OW 3931   0.771   3.189   0.307
 1124SOL    HW1 3932   0.739   3.100   0.322
 1124SOL    HW2 3933   0.852   3.194   0.357
 1125SOL     OW 3934   0.622   3.419   1.287
 1125SOL    HW1 3935   0.624   3.501   1.336
 1125SOL    HW2 3936   0.709   3.413   1.247
 1126SOL     OW 3937   1.356   1.917   0.184
 1126SOL    HW1 3938   1.378   1.868   0.104
 1126SOL    HW2 3939   1.270   1.883   0.209
 1127SOL     OW 3940   1.297   2.323   0.682
 1127SOL    HW1 3941   1.244   2.402   0.689
 1127SOL    HW2 3942   1.293   2.283   0.769
 1128SOL     OW 3943   1.587   2.065   0.878
 1128SOL    HW1 3944   1.525   2.085   0.948
 1128SOL    HW2 3945   1.586   2.144   0.823
 1129SOL     OW 3946   0.045   2.939   0.316
 1129SOL    HW1 3947   0.134   2.915   0.291
 1129SOL    HW2 3948   5.298   2.856   0.320
 1130SOL     OW 3949   0.883   3.514   0.347
 1130SOL    HW1 3950   0.814   3.498   0.282
 1130SOL    HW2 3951   0.852   3.590   0.396
 1131SOL     OW 3952   0.233   2.495   1.978
 1131SOL    HW1 3953   0.159   2.463   2.028
 1131SOL    HW2 3954   0.220   2.459   1.890
 1132SOL     OW 3955   0.241   2.138   2.852
 1132SOL    HW1 3956   0.255   2.103   2.940
 1132SOL    HW2 3957   0.157   2.100   2.825
 1133SOL     OW 3958   5.299   2.259   2.514
 1133SOL    HW1 3959   5.206   2.282   2.521
 1133SOL    HW2 3960   5.299   2.168   2.484
 1134SOL     OW 3961   0.573   3.145   3.042
 1134SOL    HW1 3962   0.490   3.153   2.995
 1134SOL    HW2 3963   0.590   3.232   3.077
 1135SOL     OW 3964   1.560   3.373   2.568
 1135SOL    HW1 3965   1.517   3.354   2.651
 1135SOL    HW2 3966   1.489   3.378   2.505
 1136SOL     OW 3967   1.129   2.561   2.563
 1136SOL    HW1 3968   1.179   2.641   2.549
 1136SOL    HW2 3969   1.083   2.575   2.646
 1137SOL     OW 3970   1.767   2.468   2.091
 1137SOL    HW1 3971   1.747   2.459   1.998
 1137SOL    HW2 3972   1.731   2.389   2.131
 1138SOL     OW 3973   0.756   3.004   2.900
 1138SOL    HW1 3974   0.689   3.038   2.959
 1138SOL    HW2 3975   0.791   3.082   2.857
 1139SOL     OW 3976   0.865   2.639   3.683
 1139SOL    HW1 3977   0.855   2.711   3.745
 1139SOL    HW2 3978   0.888   2.681   3.601
 1140SOL     OW 3979   0.685   2.866   2.510
 1140SOL    HW1 3980   0.751   2.853   2.578
 1140SOL    HW2 3981   0.617   2.918   2.552
 1141SOL     OW 3982   0.709   3.013   3.674
 1141SOL    HW1 3983   0.757   3.091   3.700
 1141SOL    HW2 3984   0.626   3.046   3.638
 1142SOL     OW 3985   0.358   3.267   2.922
 1142SOL    HW1 3986   0.270   3.266   2.884
 1142SOL    HW2 3987   0.407   3.330   2.868
 1143SOL     OW 3988   1.461   3.361   3.215
 1143SOL    HW1 3989   1.510   3.442   3.224
 1143SOL    HW2 3990   1.401   3.360   3.290
 1144SOL     OW 3991   0.450   2.262   3.356
 1144SOL    HW1 3992   0.524   2.202   3.357
 1144SOL    HW2 3993   0.373   2.206   3.364
 1145SOL     OW 3994   1.613   2.311   2.602
 1145SOL    HW1 3995   1.537   2.334   2.548
 1145SOL    HW2 3996   1.629   2.388   2.656
 1146SOL     OW 3997   0.230   3.576   2.340
 1146SOL    HW1 3998   0.265   3.645   2.397
 1146SOL    HW2 3999   0.292   3.573   2.266
 1147SOL     OW 4000   1.136   3.203   3.554
 1147SOL    HW1 4001   1.178   3.198   3.640
 1147SOL    HW2 4002   1.084   3.123   3.548
 1148SOL     OW 4003   0.222   3.305   2.401
 1148SOL    HW1 4004   0.214   3.401   2.398
 1148SOL    HW2 4005   0.152   3.277   2.460
 1149SOL     OW 4006   0.249   2.940   2.738
 1149SOL    HW1 4007   0.260   2.855   2.781
 1149SOL    HW2 4008   0.198   2.992   2.800
 1150SOL     OW 4009   0.615   3.652   3.295
 1150SOL    HW1 4010   0.530   3.635   3.337
 1150SOL    HW2 4011   0.635   3.743   3.317
 1151SOL     OW 4012   0.585   2.844   1.996
 1151SOL    HW1 4013   0.630   2.893   1.927
 1151SOL    HW2 4014   0.626   2.874   2.077
 1152SOL     OW 4015   1.593   1.983   3.332
 1152SOL    HW1 4016   1.603   2.061   3.277
 1152SOL    HW2 4017   1.583   2.017   3.421
 1153SOL     OW 4018   0.126   2.497   2.440
 1153SOL    HW1 4019   0.089   2.413   2.469
 1153SOL    HW2 4020   0.098   2.559   2.507
 1154SOL     OW 4021   1.842   3.621   2.198
 1154SOL    HW1 4022   1.905   3.593   2.263
 1154SOL    HW2 4023   1.866   3.712   2.179
 1155SOL     OW 4024   0.037   3.461   1.993
 1155SOL    HW1 4025   0.024   3.369   2.018
 1155SOL    HW2 4026   5.284   3.510   2.054
 1156SOL     OW 4027   1.688   2.780   2.502
 1156SOL    HW1 4028   1.773   2.740   2.483
 1156SOL    HW2 4029   1.668   2.830   2.423
 1157SOL     OW 4030   1.646   2.969   2.291
 1157SOL    HW1 4031   1.732   2.976   2.249
 1157SOL    HW2 4032   1.651   3.030   2.365
 1158SOL     OW 4033   0.130   2.610   3.448
 1158SOL    HW1 4034   0.225   2.623   3.452
 1158SOL    HW2 4035   0.093   2.697   3.462
 1159SOL     OW 4036   0.615   3.246   2.597
 1159SOL    HW1 4037   0.567   3.164   2.607
 1159SOL    HW2 4038   0.597   3.273   2.506
 1160SOL     OW 4039   1.289   3.100   3.286
 1160SOL    HW1 4040   1.321   3.033   3.226
 1160SOL    HW2 4041   1.346   3.094   3.362
 1161SOL     OW 4042   0.821   1.861   2.371
 1161SOL    HW1 4043   0.862   1.945   2.352
 1161SOL    HW2 4044   0.728   1.879   2.377
 1162SOL     OW 4045   0.178   2.810   3.140
 1162SOL    HW1 4046   0.269   2.780   3.130
 1162SOL    HW2 4047   0.135   2.781   3.059
 1163SOL     OW 4048   1.532   2.855   2.060
 1163SOL    HW1 4049   1.462   2.797   2.092
 1163SOL    HW2 4050   1.572   2.889   2.140
 1164SOL     OW 4051   1.185   3.667   3.484
 1164SOL    HW1 4052   1.197   3.726   3.409
 1164SOL    HW2 4053   1.201   3.580   3.448
 1165SOL     OW 4054   0.334   2.115   3.677
 1165SOL    HW1 4055   0.383   2.197   3.689
 1165SOL    HW2 4056   0.248   2.132   3.713
 1166SOL     OW 4057   1.466   3.282   2.814
 1166SOL    HW1 4058   1.398   3.297   2.879
 1166SOL    HW2 4059   1.454   3.191   2.787
 1167SOL     OW 4060   1.658   3.600   2.440
 1167SOL    HW1 4061   1.639   3.570   2.351
 1167SOL    HW2 4062   1.634   3.526   2.496
 1168SOL     OW 4063   0.595   2.584   2.127
 1168SOL    HW1 4064   0.603   2.664   2.076
 1168SOL    HW2 4065   0.531   2.604   2.195
 1169SOL     OW 4066   1.279   2.213   2.794
 1169SOL    HW1 4067   1.190   2.180   2.803
 1169SOL    HW2 4068   1.330   2.160   2.856
 1170SOL     OW 4069   1.581   3.531   2.171
 1170SOL    HW1 4070   1.671   3.564   2.165
 1170SOL    HW2 4071   1.555   3.514   2.080
 1171SOL     OW 4072   0.792   2.479   3.314
 1171SOL    HW1 4073   0.765   2.456   3.403
 1171SOL    HW2 4074   0.751   2.413   3.258
 1172SOL     OW 4075   1.393   2.336   3.539
 1172SOL    HW1 4076   1.395   2.380   3.624
 1172SOL    HW2 4077   1.456   2.264   3.549
 1173SOL     OW 4078   0.955   2.750   3.444
 1173SOL    HW1 4079   1.010   2.679   3.409
 1173SOL    HW2 4080   0.908   2.783   3.368
 1174SOL     OW 4081   0.992   2.275   3.101
 1174SOL    HW1 4082   0.907   2.297   3.139
 1174SOL    HW2 4083   0.971   2.228   3.020
 1175SOL     OW 4084   1.050   2.561   2.288
 1175SOL    HW1 4085   1.066   2.554   2.383
 1175SOL    HW2 4086   0.968   2.514   2.274
 1176SOL     OW 4087   0.072   2.649   2.674
 1176SOL    HW1 4088   0.154   2.654   2.723
 1176SOL    HW2 4089   0.062   2.735   2.635
 1177SOL     OW 4090   0.131   3.744   3.446
 1177SOL    HW1 4091   0.133   3.713   3.537
 1177SOL    HW2 4092   0.058   3.697   3.406
 1178SOL     OW 4093   0.891   2.210   2.056
 1178SOL    HW1 4094   0.932   2.272   1.995
 1178SOL    HW2 4095   0.908   2.124   2.018
 1179SOL     OW 4096   1.672   2.424   3.690
 1179SOL    HW1 4097   1.644   2.502   3.643
 1179SOL    HW2 4098   1.709   2.367   3.622
 1180SOL     OW 4099   1.376   3.004   2.403
 1180SOL    HW1 4100   1.455   2.991   2.351
 1180SOL    HW2 4101   1.324   3.066   2.353
 1181SOL     OW 4102   0.555   2.046   2.755
 1181SOL    HW1 4103   0.552   2.073   2.847
 1181SOL    HW2 4104   0.551   2.127   2.705
 1182SOL     OW 4105   1.006   3.306   2.335
 1182SOL    HW1 4106   0.968   3.379   2.285
 1182SOL    HW2 4107   0.990   3.328   2.426
 1183SOL     OW 4108   0.356   3.664   2.731
 1183SOL    HW1 4109   0.397   3.578   2.744
 1183SOL    HW2 4110   0.423   3.727   2.758
 1184SOL     OW 4111   1.798   2.918   2.730
 1184SOL    HW1 4112   1.742   2.903   2.653
 1184SOL    HW2 4113   1.736   2.924   2.803
 1185SOL     OW 4114   1.228   3.401   3.375
 1185SOL    HW1 4115   1.214   3.328   3.435
 1185SOL    HW2 4116   1.165   3.386   3.304
 1186SOL     OW 4117   0.316   2.814   2.109
 1186SOL    HW1 4118   0.398   2.838   2.065
 1186SOL    HW2 4119   0.293   2.729   2.072
 1187SOL     OW 4120   1.477   2.603   2.589
 1187SOL    HW1 4121   1.469   2.560   2.674
 1187SOL    HW2 4122   1.555   2.658   2.599
 1188SOL     OW 4123   0.464   3.125   3.600
 1188SOL    HW1 4124   0.437   3.132   3.508
 1188SOL    HW2 4125   0.382   3.126   3.649
 1189SOL     OW 4126   1.121   3.640   2.093
 1189SOL    HW1 4127   1.049   3.597   2.139
 1189SOL    HW2 4128   1.144   3.579   2.023
 1190SOL     OW 4129   0.205   2.143   3.359
 1190SOL    HW1 4130   0.125   2.194   3.344
 1190SOL    HW2 4131   0.174   2.065   3.406
 1191SOL     OW 4132   1.629   3.241   1.949
 1191SOL    HW1 4133   1.588   3.327   1.934
 1191SOL    HW2 4134   1.559   3.178   1.930
 1192SOL     OW 4135   0.471   3.597   2.182
 1192SOL    HW1 4136   0.513   3.655   2.246
 1192SOL    HW2 4137   0.543   3.567   2.126
 1193SOL     OW 4138   1.401   1.970   2.294
 1193SOL    HW1 4139   1.391   1.945   2.202
 1193SOL    HW2 4140   1.496   1.976   2.307
 1194SOL     OW 4141   0.275   3.663   3.077
 1194SOL    HW1 4142   0.307   3.586   3.125
 1194SOL    HW2 4143   0.226   3.627   3.004
 1195SOL     OW 4144   0.939   3.560   2.762
 1195SOL    HW1 4145   1.016   3.508   2.782
 1195SOL    HW2 4146   0.894   3.511   2.693
 1196SOL     OW 4147   0.386   2.558   2.341
 1196SOL    HW1 4148   0.415   2.467   2.349
 1196SOL    HW2 4149   0.292   2.555   2.362
 1197SOL     OW 4150   1.539   2.089   3.588
 1197SOL    HW1 4151   1.547   2.110   3.681
 1197SOL    HW2 4152   1.471   2.023   3.583
 1198SOL     OW 4153   0.632   1.985   1.968
 1198SOL    HW1 4154   0.704   1.923   1.979
 1198SOL    HW2 4155   0.585   1.953   1.891
 1199SOL     OW 4156   0.767   2.140   3.615
 1199SOL    HW1 4157   0.842   2.080   3.618
 1199SOL    HW2 4158   0.718   2.120   3.695
 1200SOL     OW 4159   0.877   3.383   3.055
 1200SOL    HW1 4160   0.861   3.347   2.968
 1200SOL    HW2 4161   0.947   3.329   3.092
 1201SOL     OW 4162   1.341   2.451   3.294
 1201SOL    HW1 4163   1.371   2.419   3.379
 1201SOL    HW2 4164   1.376   2.539   3.287
 1202SOL     OW 4165   0.815   3.257   2.801
 1202SOL    HW1 4166   0.899   3.246   2.756
 1202SOL    HW2 4167   0.750   3.258   2.730
 1203SOL     OW 4168   0.928   2.371   2.765
 1203SOL    HW1 4169   0.904   2.363   2.673
 1203SOL    HW2 4170   0.959   2.284   2.790
 1204SOL     OW 4171   0.560   1.923   2.358
 1204SOL    HW1 4172   0.485   1.923   2.418
 1204SOL    HW2 4173   0.549   2.003   2.307
 1205SOL     OW 4174   1.428   3.060   1.903
 1205SOL    HW1 4175   1.458   2.984   1.953
 1205SOL    HW2 4176   1.343   3.081   1.941
 1206SOL     OW 4177   0.305   1.909   2.042
 1206SOL    HW1 4178   0.367   1.973   2.007
 1206SOL    HW2 4179   0.360   1.844   2.086
 1207SOL     OW 4180   0.939   2.108   2.323
 1207SOL    HW1 4181   0.911   2.150   2.241
 1207SOL    HW2 4182   1.033   2.122   2.326
 1208SOL     OW 4183   1.080   2.542   3.322
 1208SOL    HW1 4184   1.011   2.476   3.326
 1208SOL    HW2 4185   1.161   2.492   3.315
 1209SOL     OW 4186   1.224   3.431   2.656
 1209SOL    HW1 4187   1.240   3.499   2.590
 1209SOL    HW2 4188   1.292   3.445   2.722
 1210SOL     OW 4189   0.467   3.011   2.594
 1210SOL    HW1 4190   0.398   2.992   2.658
 1210SOL    HW2 4191   0.427   2.993   2.509
 1211SOL     OW 4192   1.270   3.656   2.469
 1211SOL    HW1 4193   1.315   3.717   2.412
 1211SOL    HW2 4194   1.204   3.710   2.514
 1212SOL     OW 4195   1.024   2.405   1.884
 1212SOL    HW1 4196   0.982   2.488   1.864
 1212SOL    HW2 4197   1.089   2.426   1.951
 1213SOL     OW 4198   0.087   2.408   3.260
 1213SOL    HW1 4199   0.175   2.415   3.223
 1213SOL    HW2 4200   0.079   2.484   3.318
 1214SOL     OW 4201   0.560   2.089   3.028
 1214SOL    HW1 4202   0.598   2.009   3.064
 1214SOL    HW2 4203   0.469   2.088   3.056
 1215SOL     OW 4204   0.868   2.321   2.502
 1215SOL    HW1 4205   0.822   2.375   2.437
 1215SOL    HW2 4206   0.889   2.240   2.455
 1216SOL     OW 4207   1.015   1.915   2.614
 1216SOL    HW1 4208   0.956   1.907   2.539
 1216SOL    HW2 4209   0.994   1.839   2.669
 1217SOL     OW 4210   1.437   3.025   2.720
 1217SOL    HW1 4211   1.368   2.958   2.718
 1217SOL    HW2 4212   1.461   3.037   2.628
 1218SOL     OW 4213   1.467   2.466   2.840
 1218SOL    HW1 4214   1.417   2.385   2.844
 1218SOL    HW2 4215   1.527   2.461   2.915
 1219SOL     OW 4216   1.846   2.679   2.244
 1219SOL    HW1 4217   1.903   2.627   2.302
 1219SOL    HW2 4218   1.818   2.616   2.178
 1220SOL     OW 4219   0.492   3.278   2.021
 1220SOL    HW1 4220   0.417   3.250   2.073
 1220SOL    HW2 4221   0.474   3.246   1.933
 1221SOL     OW 4222   1.669   3.126   2.509
 1221SOL    HW1 4223   1.764   3.129   2.522
 1221SOL    HW2 4224   1.639   3.214   2.530
 1222SOL     OW 4225   1.394   2.434   1.933
 1222SOL    HW1 4226   1.333   2.415   2.005
 1222SOL    HW2 4227   1.478   2.401   1.965
 1223SOL     OW 4228   0.524   2.125   2.180
 1223SOL    HW1 4229   0.568   2.077   2.110
 1223SOL    HW2 4230   0.503   2.210   2.141
 1224SOL     OW 4231   1.754   3.097   3.436
 1224SOL    HW1 4232   1.831   3.054   3.473
 1224SOL    HW2 4233   1.767   3.190   3.456
 1225SOL     OW 4234   1.059   3.215   3.196
 1225SOL    HW1 4235   0.984   3.184   3.247
 1225SOL    HW2 4236   1.135   3.174   3.237
 1226SOL     OW 4237   1.606   3.488   3.515
 1226SOL    HW1 4238   1.601   3.522   3.426
 1226SOL    HW2 4239   1.688   3.439   3.518
 1227SOL     OW 4240   1.127   3.064   2.968
 1227SOL    HW1 4241   1.069   3.103   3.033
 1227SOL    HW2 4242   1.095   3.097   2.884
 1228SOL     OW 4243   1.629   2.961   2.940
 1228SOL    HW1 4244   1.624   3.023   3.013
 1228SOL    HW2 4245   1.550   2.978   2.889
 1229SOL     OW 4246   0.918   1.959   3.260
 1229SOL    HW1 4247   0.940   1.940   3.168
 1229SOL    HW2 4248   0.998   1.999   3.296
 1230SOL     OW 4249   0.984   2.976   3.585
 1230SOL    HW1 4250   0.892   2.992   3.604
 1230SOL    HW2 4251   0.984   2.899   3.529
 1231SOL     OW 4252   0.707   2.922   2.234
 1231SOL    HW1 4253   0.696   2.907   2.328
 1231SOL    HW2 4254   0.784   2.869   2.211
 1232SOL     OW 4255   0.420   2.680   3.114
 1232SOL    HW1 4256   0.489   2.687   3.180
 1232SOL    HW2 4257   0.385   2.592   3.125
 1233SOL     OW 4258   1.266   2.239   3.137
 1233SOL    HW1 4259   1.298   2.317   3.183
 1233SOL    HW2 4260   1.176   2.262   3.113
 1234SOL     OW 4261   0.101   3.485   3.229
 1234SOL    HW1 4262   0.078   3.495   3.137
 1234SOL    HW2 4263   0.187   3.443   3.229
 1235SOL     OW 4264   0.344   2.967   2.350
 1235SOL    HW1 4265   0.354   3.046   2.297
 1235SOL    HW2 4266   0.354   2.895   2.288
 1236SOL     OW 4267   0.555   2.398   2.721
 1236SOL    HW1 4268   0.571   2.457   2.647
 1236SOL    HW2 4269   0.619   2.426   2.787
 1237SOL     OW 4270   1.248   3.210   2.251
 1237SOL    HW1 4271   1.304   3.282   2.282
 1237SOL    HW2 4272   1.161   3.231   2.285
 1238SOL     OW 4273   1.280   3.319   3.009
 1238SOL    HW1 4274   1.336   3.322   3.086
 1238SOL    HW2 4275   1.224   3.242   3.022
 1239SOL     OW 4276   1.582   2.486   2.340
 1239SOL    HW1 4277   1.536   2.540   2.404
 1239SOL    HW2 4278   1.627   2.549   2.284
 1240SOL     OW 4279   0.351   3.381   3.173
 1240SOL    HW1 4280   0.342   3.338   3.088
 1240SOL    HW2 4281   0.445   3.399   3.180
 1241SOL     OW 4282   0.413   2.605   3.464
 1241SOL    HW1 4283   0.474   2.651   3.406
 1241SOL    HW2 4284   0.453   2.519   3.477
 1242SOL     OW 4285   1.599   2.639   3.541
 1242SOL    HW1 4286   1.513   2.681   3.536
 1242SOL    HW2 4287   1.652   2.685   3.476
 1243SOL     OW 4288   0.996   1.984   3.618
 1243SOL    HW1 4289   1.050   2.057   3.588
 1243SOL    HW2 4290   1.044   1.905   3.591
 1244SOL     OW 4291   0.497   1.904   3.609
 1244SOL    HW1 4292   0.456   1.850   3.542
 1244SOL    HW2 4293   0.437   1.977   3.621
 1245SOL     OW 4294   0.585   2.736   2.894
 1245SOL    HW1 4295   0.616   2.826   2.893
 1245SOL    HW2 4296   0.529   2.730   2.971
 1246SOL     OW 4297   1.359   2.721   2.893
 1246SOL    HW1 4298   1.276   2.712   2.845
 1246SOL    HW2 4299   1.398   2.634   2.888
 1247SOL     OW 4300   1.205   2.391   2.129
 1247SOL    HW1 4301   1.213   2.312   2.184
 1247SOL    HW2 4302   1.163   2.455   2.186
 1248SOL     OW 4303   0.302   2.065   3.110
 1248SOL    HW1 4304   0.267   2.090   3.196
 1248SOL    HW2 4305   0.289   1.971   3.106
 1249SOL     OW 4306   0.070   3.181   3.143
 1249SOL    HW1 4307   0.090   3.121   3.214
 1249SOL    HW2 4308   0.002   3.238   3.178
 1250SOL     OW 4309   0.725   2.493   2.921
 1250SOL    HW1 4310   0.799   2.477   2.863
 1250SOL    HW2 4311   0.697   2.583   2.899
 1251SOL     OW 4312   1.720   2.831   3.717
 1251SOL    HW1 4313   1.683   2.766   3.657
 1251SOL    HW2 4314   1.656   2.837   3.788
 1252SOL     OW 4315   0.327   1.924   2.496
 1252SOL    HW1 4316   0.307   2.013   2.524
 1252SOL    HW2 4317   0.331   1.874   2.578
 1253SOL     OW 4318   1.615   2.236   2.229
 1253SOL    HW1 4319   1.643   2.172   2.295
 1253SOL    HW2 4320   1.593   2.314   2.280
 1254SOL     OW 4321   1.027   2.621   2.823
 1254SOL    HW1 4322   1.025   2.639   2.917
 1254SOL    HW2 4323   1.001   2.530   2.815
 1255SOL     OW 4324   0.981   3.428   3.578
 1255SOL    HW1 4325   0.967   3.472   3.495
 1255SOL    HW2 4326   1.026   3.346   3.554
 1256SOL     OW 4327   1.849   3.366   3.461
 1256SOL    HW1 4328   1.868   3.392   3.371
 1256SOL    HW2 4329   1.929   3.388   3.510
 1257SOL     OW 4330   0.354   2.780   3.668
 1257SOL    HW1 4331   0.435   2.799   3.715
 1257SOL    HW2 4332   0.378   2.715   3.602
 1258SOL     OW 4333   1.530   2.135   1.989
 1258SOL    HW1 4334   1.465   2.070   2.016
 1258SOL    HW2 4335   1.563   2.171   2.072
 1259SOL     OW 4336   1.292   2.688   1.893
 1259SOL    HW1 4337   1.335   2.603   1.897
 1259SOL    HW2 4338   1.323   2.728   1.812
 1260SOL     OW 4339   1.066   3.197   2.715
 1260SOL    HW1 4340   1.069   3.125   2.653
 1260SOL    HW2 4341   1.127   3.262   2.681
 1261SOL     OW 4342   0.314   2.672   2.812
 1261SOL    HW1 4343   0.408   2.690   2.808
 1261SOL    HW2 4344   0.309   2.582   2.844
 1262SOL     OW 4345   0.335   2.387   2.876
 1262SOL    HW1 4346   0.300   2.300   2.862
 1262SOL    HW2 4347   0.410   2.393   2.817
 1263SOL     OW 4348   1.134   2.238   3.544
 1263SOL    HW1 4349   1.087   2.293   3.606
 1263SOL    HW2 4350   1.222   2.276   3.540
 1264SOL     OW 4351   1.160   2.065   3.332
 1264SOL    HW1 4352   1.150   2.128   3.403
 1264SOL    HW2 4353   1.200   2.116   3.261
 1265SOL     OW 4354   0.001   3.192   2.072
 1265SOL    HW1 4355   5.227   3.182   2.013
 1265SOL    HW2 4356   0.012   3.106   2.113
 1266SOL     OW 4357   0.092   3.644   2.812
 1266SOL    HW1 4358   0.059   3.573   2.757
 1266SOL    HW2 4359   0.179   3.662   2.777
 1267SOL     OW 4360   0.505   3.435   2.769
 1267SOL    HW1 4361   0.572   3.500   2.790
 1267SOL    HW2 4362   0.549   3.374   2.710
 1268SOL     OW 4363   0.984   2.655   3.089
 1268SOL    HW1 4364   1.040   2.631   3.164
 1268SOL    HW2 4365   0.899   2.617   3.110
 1269SOL     OW 4366   0.034   2.423   2.977
 1269SOL    HW1 4367   0.119   2.396   2.944
 1269SOL    HW2 4368   0.038   2.405   3.071
 1270SOL     OW 4369   0.175   2.375   3.574
 1270SOL    HW1 4370   0.241   2.339   3.514
 1270SOL    HW2 4371   0.146   2.455   3.532
 1271SOL     OW 4372   1.376   2.802   3.521
 1271SOL    HW1 4373   1.397   2.895   3.520
 1271SOL    HW2 4374   1.374   2.776   3.429
 1272SOL     OW 4375   0.816   2.431   2.221
 1272SOL    HW1 4376   0.820   2.356   2.161
 1272SOL    HW2 4377   0.742   2.483   2.189
 1273SOL     OW 4378   1.644   2.463   3.049
 1273SOL    HW1 4379   1.633   2.402   3.122
 1273SOL    HW2 4380   1.730   2.442   3.014
 1274SOL     OW 4381   0.257   3.418   3.597
 1274SOL    HW1 4382   0.233   3.481   3.666
 1274SOL    HW2 4383   0.249   3.332   3.639
 1275SOL     OW 4384   0.699   2.313   3.123
 1275SOL    HW1 4385   0.647   2.239   3.092
 1275SOL    HW2 4386   0.696   2.376   3.050
 1276SOL     OW 4387   0.929   3.541   3.329
 1276SOL    HW1 4388   0.902   3.507   3.244
 1276SOL    HW2 4389   0.925   3.636   3.320
 1277SOL     OW 4390   0.465   2.355   2.048
 1277SOL    HW1 4391   0.525   2.427   2.069
 1277SOL    HW2 4392   0.380   2.397   2.037
 1278SOL     OW 4393   0.148   3.000   3.333
 1278SOL    HW1 4394   0.147   2.950   3.415
 1278SOL    HW2 4395   0.161   2.933   3.265
 1279SOL     OW 4396   1.326   2.910   3.086
 1279SOL    HW1 4397   1.350   2.847   3.018
 1279SOL    HW2 4398   1.255   2.961   3.047
 1280SOL     OW 4399   1.311   2.718   2.168
 1280SOL    HW1 4400   1.234   2.689   2.218
 1280SOL    HW2 4401   1.286   2.705   2.077
 1281SOL     OW 4402   1.769   3.607   3.010
 1281SOL    HW1 4403   1.831   3.633   2.941
 1281SOL    HW2 4404   1.747   3.517   2.990
 1282SOL     OW 4405   1.241   3.595   2.976
 1282SOL    HW1 4406   1.323   3.615   2.931
 1282SOL    HW2 4407   1.246   3.501   2.994
 1283SOL     OW 4408   0.083   3.081   2.889
 1283SOL    HW1 4409   0.070   3.105   2.981
 1283SOL    HW2 4410   5.294   3.069   2.855
 1284SOL     OW 4411   0.678   3.527   3.590
 1284SOL    HW1 4412   0.623   3.606   3.585
 1284SOL    HW2 4413   0.742   3.538   3.519
 1285SOL     OW 4414   1.719   2.007   2.372
 1285SOL    HW1 4415   1.792   1.992   2.312
 1285SOL    HW2 4416   1.703   1.922   2.413
 1286SOL     OW 4417   1.390   3.430   2.346
 1286SOL    HW1 4418   1.451   3.462   2.279
 1286SOL    HW2 4419   1.342   3.508   2.374
 1287SOL     OW 4420   0.144   3.660   3.705
 1287SOL    HW1 4421   0.090   3.597   3.751
 1287SOL    HW2 4422   0.190   3.708   3.774
 1288SOL     OW 4423   1.277   2.787   2.533
 1288SOL    HW1 4424   1.351   2.726   2.539
 1288SOL    HW2 4425   1.311   2.860   2.481
 1289SOL     OW 4426   0.816   3.135   3.293
 1289SOL    HW1 4427   0.788   3.174   3.375
 1289SOL    HW2 4428   0.746   3.156   3.231
 1290SOL     OW 4429   0.672   3.480   2.017
 1290SOL    HW1 4430   0.682   3.493   1.923
 1290SOL    HW2 4431   0.618   3.402   2.025
 1291SOL     OW 4432   1.628   3.588   3.253
 1291SOL    HW1 4433   1.678   3.595   3.172
 1291SOL    HW2 4434   1.614   3.679   3.281
 1292SOL     OW 4435   1.843   2.037   2.825
 1292SOL    HW1 4436   1.870   1.948   2.801
 1292SOL    HW2 4437   1.756   2.046   2.787
 1293SOL     OW 4438   0.272   2.179   2.580
 1293SOL    HW1 4439   0.188   2.218   2.558
 1293SOL    HW2 4440   0.270   2.168   2.675
 1294SOL     OW 4441   1.207   3.469   1.893
 1294SOL    HW1 4442   1.198   3.377   1.920
 1294SOL    HW2 4443   1.142   3.480   1.824
 1295SOL     OW 4444   0.824   2.868   3.234
 1295SOL    HW1 4445   0.868   2.863   3.149
 1295SOL    HW2 4446   0.824   2.961   3.257
 1296SOL     OW 4447   0.915   2.772   2.152
 1296SOL    HW1 4448   0.976   2.804   2.085
 1296SOL    HW2 4449   0.963   2.703   2.197
 1297SOL     OW 4450   1.493   3.486   1.904
 1297SOL    HW1 4451   1.398   3.481   1.891
 1297SOL    HW2 4452   1.529   3.493   1.816
 1298SOL     OW 4453   0.368   3.165   3.355
 1298SOL    HW1 4454   0.359   3.240   3.296
 1298SOL    HW2 4455   0.292   3.111   3.336
 1299SOL     OW 4456   1.613   3.146   3.142
 1299SOL    HW1 4457   1.673   3.136   3.216
 1299SOL    HW2 4458   1.552   3.214   3.170
 1300SOL     OW 4459   1.051   2.968   2.568
 1300SOL    HW1 4460   0.980   2.917   2.608
 1300SOL    HW2 4461   1.113   2.903   2.536
 1301SOL     OW 4462   1.021   2.102   2.828
 1301SOL    HW1 4463   1.016   2.054   2.745
 1301SOL    HW2 4464   1.016   2.035   2.895
 1302SOL     OW 4465   0.601   3.349   2.343
 1302SOL    HW1 4466   0.645   3.301   2.274
 1302SOL    HW2 4467   0.535   3.402   2.298
 1303SOL     OW 4468   1.725   2.255   3.244
 1303SOL    HW1 4469   1.799   2.315   3.237
 1303SOL    HW2 4470   1.749   2.181   3.188
 1304SOL     OW 4471   0.260   3.210   2.154
 1304SOL    HW1 4472   0.167   3.212   2.131
 1304SOL    HW2 4473   0.264   3.247   2.242
 1305SOL     OW 4474   0.115   2.878   3.581
 1305SOL    HW1 4475   0.044   2.842   3.634
 1305SOL    HW2 4476   0.195   2.847   3.623
 1306SOL     OW 4477   0.674   2.058   3.361
 1306SOL    HW1 4478   0.757   2.039   3.319
 1306SOL    HW2 4479   0.697   2.089   3.448
 1307SOL     OW 4480   0.081   2.214   1.903
 1307SOL    HW1 4481   0.003   2.164   1.879
 1307SOL    HW2 4482   0.098   2.270   1.828
 1308SOL     OW 4483   1.428   2.721   3.263
 1308SOL    HW1 4484   1.380   2.781   3.207
 1308SOL    HW2 4485   1.517   2.722   3.228
 1309SOL     OW 4486   0.055   1.995   2.104
 1309SOL    HW1 4487   0.054   2.091   2.099
 1309SOL    HW2 4488   0.145   1.971   2.084
 1310SOL     OW 4489   1.179   3.202   1.979
 1310SOL    HW1 4490   1.088   3.172   1.982
 1310SOL    HW2 4491   1.208   3.202   2.070
 1311SOL     OW 4492   0.619   2.693   3.297
 1311SOL    HW1 4493   0.675   2.769   3.281
 1311SOL    HW2 4494   0.679   2.619   3.305
 1312SOL     OW 4495   1.485   3.638   2.840
 1312SOL    HW1 4496   1.508   3.696   2.768
 1312SOL    HW2 4497   1.567   3.620   2.885
 1313SOL     OW 4498   0.717   2.427   3.567
 1313SOL    HW1 4499   0.757   2.490   3.627
 1313SOL    HW2 4500   0.748   2.341   3.598
 1314SOL     OW 4501   1.470   3.063   3.494
 1314SOL    HW1 4502   1.457   3.075   3.588
 1314SOL    HW2 4503   1.564   3.077   3.480
 1315SOL     OW 4504   0.379   3.604   3.426
 1315SOL    HW1 4505   0.296   3.650   3.411
 1315SOL    HW2 4506   0.354   3.523   3.471
 1316SOL     OW 4507   1.665   2.742   3.117
 1316SOL    HW1 4508   1.660   2.657   3.073
 1316SOL    HW2 4509   1.658   2.806   3.046
 1317SOL     OW 4510   1.217   2.181   2.320
 1317SOL    HW1 4511   1.281   2.110   2.311
 1317SOL    HW2 4512   1.246   2.230   2.397
 1318SOL     OW 4513   0.591   2.600   2.530
 1318SOL    HW1 4514   0.630   2.686   2.515
 1318SOL    HW2 4515   0.521   2.593   2.465
 1319SOL     OW 4516   1.767   2.226   3.515
 1319SOL    HW1 4517   1.752   2.237   3.421
 1319SOL    HW2 4518   1.697   2.169   3.545
 1320SOL     OW 4519   1.739   2.797   3.373
 1320SOL    HW1 4520   1.739   2.892   3.384
 1320SOL    HW2 4521   1.723   2.784   3.279
 1321SOL     OW 4522   0.862   3.229   1.895
 1321SOL    HW1 4523   0.824   3.258   1.978
 1321SOL    HW2 4524   0.881   3.311   1.848
 1322SOL     OW 4525   0.662   3.656   2.807
 1322SOL    HW1 4526   0.641   3.747   2.784
 1322SOL    HW2 4527   0.758   3.652   2.800
 1323SOL     OW 4528   0.867   2.828   2.717
 1323SOL    HW1 4529   0.917   2.757   2.757
 1323SOL    HW2 4530   0.833   2.878   2.791
 1324SOL     OW 4531   1.078   2.849   1.950
 1324SOL    HW1 4532   1.057   2.901   1.872
 1324SOL    HW2 4533   1.154   2.796   1.925
 1325SOL     OW 4534   1.854   3.418   2.705
 1325SOL    HW1 4535   1.775   3.404   2.653
 1325SOL    HW2 4536   1.848   3.351   2.774
 1326SOL     OW 4537   0.224   3.167   3.721
 1326SOL    HW1 4538   0.157   3.104   3.695
 1326SOL    HW2 4539   0.213   3.177   3.816
 1327SOL     OW 4540   0.086   3.083   2.517
 1327SOL    HW1 4541   0.099   3.050   2.606
 1327SOL    HW2 4542   0.172   3.074   2.475
 1328SOL     OW 4543   0.681   3.263   3.490
 1328SOL    HW1 4544   0.600   3.221   3.519
 1328SOL    HW2 4545   0.676   3.352   3.526
 1329SOL     OW 4546   1.801   2.048   3.095
 1329SOL    HW1 4547   1.841   1.965   3.121
 1329SOL    HW2 4548   1.814   2.052   3.000
 1330SOL     OW 4549   0.434   2.298   2.386
 1330SOL    HW1 4550   0.462   2.225   2.330
 1330SOL    HW2 4551   0.387   2.256   2.458
 1331SOL     OW 4552   1.700   3.351   2.960
 1331SOL    HW1 4553   1.619   3.329   2.913
 1331SOL    HW2 4554   1.709   3.283   3.026
 1332SOL     OW 4555   0.335   2.420   3.153
 1332SOL    HW1 4556   0.389   2.361   3.207
 1332SOL    HW2 4557   0.350   2.391   3.063
 1333SOL     OW 4558   0.828   3.439   2.540
 1333SOL    HW1 4559   0.817   3.492   2.461
 1333SOL    HW2 4560   0.750   3.383   2.543
 1334SOL     OW 4561   1.432   2.087   2.979
 1334SOL    HW1 4562   1.463   2.010   3.027
 1334SOL    HW2 4563   1.380   2.135   3.044
 1335SOL     OW 4564   1.009   1.881   3.005
 1335SOL    HW1 4565   0.954   1.813   2.965
 1335SOL    HW2 4566   1.097   1.844   3.007
 1336SOL     OW 4567   0.771   3.194   2.176
 1336SOL    HW1 4568   0.741   3.104   2.182
 1336SOL    HW2 4569   0.854   3.195   2.225
 1337SOL     OW 4570   0.622   3.419   3.149
 1337SOL    HW1 4571   0.624   3.501   3.198
 1337SOL    HW2 4572   0.709   3.413   3.109
 1338SOL     OW 4573   1.352   1.916   2.027
 1338SOL    HW1 4574   1.380   1.853   1.960
 1338SOL    HW2 4575   1.265   1.886   2.053
 1339SOL     OW 4576   1.296   2.322   2.543
 1339SOL    HW1 4577   1.243   2.402   2.551
 1339SOL    HW2 4578   1.293   2.283   2.630
 1340SOL     OW 4579   1.588   2.065   2.740
 1340SOL    HW1 4580   1.526   2.084   2.811
 1340SOL    HW2 4581   1.586   2.143   2.685
 1341SOL     OW 4582   0.047   2.931   2.153
 1341SOL    HW1 4583   0.137   2.900   2.141
 1341SOL    HW2 4584   5.300   2.855   2.187
 1342SOL     OW 4585   0.884   3.513   2.205
 1342SOL    HW1 4586   0.811   3.497   2.144
 1342SOL    HW2 4587   0.856   3.589   2.256
 1343SOL     OW 4588   0.233   2.495   3.840
 1343SOL    HW1 4589   0.159   2.462   3.890
 1343SOL    HW2 4590   0.220   2.459   3.752
 1344SOL     OW 4591   0.241   2.138   4.714
 1344SOL    HW1 4592   0.255   2.103   4.802
 1344SOL    HW2 4593   0.157   2.100   4.687
 1345SOL     OW 4594   5.299   2.259   4.376
 1345SOL    HW1 4595   5.206   2.282   4.383
 1345SOL    HW2 4596   5.299   2.168   4.346
 1346SOL     OW 4597   0.573   3.145   4.904
 1346SOL    HW1 4598   0.490   3.153   4.857
 1346SOL    HW2 4599   0.590   3.232   4.939
 1347SOL     OW 4600   1.559   3.372   4.429
 1347SOL    HW1 4601   1.516   3.355   4.512
 1347SOL    HW2 4602   1.487   3.379   4.365
 1348SOL     OW 4603   1.131   2.560   4.427
 1348SOL    HW1 4604   1.178   2.642   4.412
 1348SOL    HW2 4605   1.083   2.575   4.509
 1349SOL     OW 4606   1.718   2.467   3.965
 1349SOL    HW1 4607   1.714   2.457   3.870
 1349SOL    HW2 4608   1.718   2.377   3.998
 1350SOL     OW 4609   0.757   3.004   4.762
 1350SOL    HW1 4610   0.689   3.038   4.821
 1350SOL    HW2 4611   0.791   3.082   4.719
 1351SOL     OW 4612   0.865   2.639   5.546
 1351SOL    HW1 4613   0.855   2.710   5.608
 1351SOL    HW2 4614   0.888   2.681   5.463
 1352SOL     OW 4615   0.686   2.866   4.372
 1352SOL    HW1 4616   0.751   2.853   4.441
 1352SOL    HW2 4617   0.617   2.918   4.413
 1353SOL     OW 4618   0.709   3.013   5.536
 1353SOL    HW1 4619   0.757   3.091   5.562
 1353SOL    HW2 4620   0.626   3.046   5.500
 1354SOL     OW 4621   0.358   3.267   4.784
 1354SOL    HW1 4622   0.270   3.267   4.746
 1354SOL    HW2 4623   0.407   3.330   4.730
 1355SOL     OW 4624   1.461   3.361   5.077
 1355SOL    HW1 4625   1.510   3.442   5.086
 1355SOL    HW2 4626   1.401   3.360   5.152
 1356SOL     OW 4627   0.450   2.262   5.218
 1356SOL    HW1 4628   0.524   2.202   5.219
 1356SOL    HW2 4629   0.373   2.206   5.226
 1357SOL     OW 4630   1.605   2.308   4.467
 1357SOL    HW1 4631   1.538   2.332   4.403
 1357SOL    HW2 4632   1.637   2.392   4.500
 1358SOL     OW 4633   0.230   3.576   4.202
 1358SOL    HW1 4634   0.265   3.645   4.259
 1358SOL    HW2 4635   0.292   3.573   4.128
 1359SOL     OW 4636   1.136   3.203   5.416
 1359SOL    HW1 4637   1.177   3.199   5.503
 1359SOL    HW2 4638   1.084   3.123   5.410
 1360SOL     OW 4639   0.222   3.305   4.263
 1360SOL    HW1 4640   0.214   3.401   4.260
 1360SOL    HW2 4641   0.153   3.277   4.322
 1361SOL     OW 4642   0.249   2.940   4.600
 1361SOL    HW1 4643   0.260   2.855   4.643
 1361SOL    HW2 4644   0.198   2.992   4.662
 1362SOL     OW 4645   0.615   3.652   5.157
 1362SOL    HW1 4646   0.531   3.635   5.199
 1362SOL    HW2 4647   0.635   3.743   5.179
 1363SOL     OW 4648   0.584   2.844   3.858
 1363SOL    HW1 4649   0.629   2.893   3.789
 1363SOL    HW2 4650   0.626   2.874   3.939
 1364SOL     OW 4651   1.596   1.983   5.195
 1364SOL    HW1 4652   1.595   2.062   5.140
 1364SOL    HW2 4653   1.583   2.015   5.284
 1365SOL     OW 4654   0.126   2.497   4.302
 1365SOL    HW1 4655   0.089   2.413   4.331
 1365SOL    HW2 4656   0.098   2.559   4.370
 1366SOL     OW 4657   1.841   3.623   4.060
 1366SOL    HW1 4658   1.905   3.594   4.124
 1366SOL    HW2 4659   1.865   3.713   4.040
 1367SOL     OW 4660   0.037   3.461   3.855
 1367SOL    HW1 4661   0.024   3.369   3.880
 1367SOL    HW2 4662   5.283   3.510   3.916
 1368SOL     OW 4663   1.636   2.971   4.155
 1368SOL    HW1 4664   1.724   2.972   4.116
 1368SOL    HW2 4665   1.645   3.022   4.235
 1369SOL     OW 4666   0.130   2.610   5.310
 1369SOL    HW1 4667   0.225   2.624   5.314
 1369SOL    HW2 4668   0.092   2.697   5.324
 1370SOL     OW 4669   0.615   3.246   4.459
 1370SOL    HW1 4670   0.567   3.164   4.469
 1370SOL    HW2 4671   0.597   3.273   4.368
 1371SOL     OW 4672   1.289   3.100   5.148
 1371SOL    HW1 4673   1.322   3.033   5.088
 1371SOL    HW2 4674   1.346   3.094   5.224
 1372SOL     OW 4675   0.822   1.861   4.233
 1372SOL    HW1 4676   0.862   1.946   4.214
 1372SOL    HW2 4677   0.728   1.879   4.239
 1373SOL     OW 4678   0.178   2.810   5.002
 1373SOL    HW1 4679   0.269   2.780   4.991
 1373SOL    HW2 4680   0.135   2.781   4.921
 1374SOL     OW 4681   1.528   2.856   3.924
 1374SOL    HW1 4682   1.460   2.796   3.956
 1374SOL    HW2 4683   1.567   2.893   4.003
 1375SOL     OW 4684   1.185   3.668   5.346
 1375SOL    HW1 4685   1.197   3.726   5.271
 1375SOL    HW2 4686   1.201   3.580   5.310
 1376SOL     OW 4687   0.335   2.115   5.539
 1376SOL    HW1 4688   0.383   2.197   5.551
 1376SOL    HW2 4689   0.248   2.132   5.575
 1377SOL     OW 4690   1.466   3.281   4.676
 1377SOL    HW1 4691   1.398   3.296   4.741
 1377SOL    HW2 4692   1.455   3.190   4.650
 1378SOL     OW 4693   1.659   3.599   4.303
 1378SOL    HW1 4694   1.640   3.571   4.213
 1378SOL    HW2 4695   1.634   3.525   4.357
 1379SOL     OW 4696   0.596   2.584   3.989
 1379SOL    HW1 4697   0.603   2.664   3.938
 1379SOL    HW2 4698   0.531   2.605   4.056
 1380SOL     OW 4699   1.279   2.215   4.657
 1380SOL    HW1 4700   1.190   2.181   4.665
 1380SOL    HW2 4701   1.330   2.161   4.718
 1381SOL     OW 4702   1.581   3.532   4.033
 1381SOL    HW1 4703   1.671   3.563   4.027
 1381SOL    HW2 4704   1.555   3.514   3.943
 1382SOL     OW 4705   0.793   2.479   5.176
 1382SOL    HW1 4706   0.765   2.456   5.265
 1382SOL    HW2 4707   0.752   2.413   5.120
 1383SOL     OW 4708   1.394   2.336   5.402
 1383SOL    HW1 4709   1.395   2.381   5.486
 1383SOL    HW2 4710   1.455   2.263   5.412
 1384SOL     OW 4711   0.956   2.750   5.306
 1384SOL    HW1 4712   1.010   2.679   5.271
 1384SOL    HW2 4713   0.908   2.783   5.230
 1385SOL     OW 4714   0.992   2.275   4.963
 1385SOL    HW1 4715   0.907   2.297   5.001
 1385SOL    HW2 4716   0.971   2.228   4.882
 1386SOL     OW 4717   1.050   2.561   4.151
 1386SOL    HW1 4718   1.065   2.553   4.245
 1386SOL    HW2 4719   0.968   2.513   4.136
 1387SOL     OW 4720   0.072   2.649   4.536
 1387SOL    HW1 4721   0.154   2.654   4.585
 1387SOL    HW2 4722   0.062   2.735   4.496
 1388SOL     OW 4723   0.131   3.744   5.308
 1388SOL    HW1 4724   0.133   3.713   5.399
 1388SOL    HW2 4725   0.058   3.697   5.268
 1389SOL     OW 4726   0.891   2.210   3.918
 1389SOL    HW1 4727   0.933   2.272   3.858
 1389SOL    HW2 4728   0.909   2.124   3.880
 1390SOL     OW 4729   1.708   2.436   5.552
 1390SOL    HW1 4730   1.671   2.512   5.506
 1390SOL    HW2 4731   1.738   2.378   5.483
 1391SOL     OW 4732   1.376   3.004   4.266
 1391SOL    HW1 4733   1.455   2.990   4.214
 1391SOL    HW2 4734   1.324   3.066   4.214
 1392SOL     OW 4735   0.555   2.046   4.617
 1392SOL    HW1 4736   0.552   2.073   4.709
 1392SOL    HW2 4737   0.551   2.127   4.567
 1393SOL     OW 4738   1.006   3.306   4.197
 1393SOL    HW1 4739   0.968   3.378   4.147
 1393SOL    HW2 4740   0.990   3.329   4.288
 1394SOL     OW 4741   0.356   3.664   4.593
 1394SOL    HW1 4742   0.397   3.578   4.606
 1394SOL    HW2 4743   0.423   3.727   4.620
 1395SOL     OW 4744   1.795   2.937   4.592
 1395SOL    HW1 4745   1.734   2.954   4.521
 1395SOL    HW2 4746   1.741   2.933   4.671
 1396SOL     OW 4747   1.228   3.401   5.237
 1396SOL    HW1 4748   1.214   3.328   5.297
 1396SOL    HW2 4749   1.165   3.387   5.166
 1397SOL     OW 4750   0.316   2.814   3.971
 1397SOL    HW1 4751   0.398   2.838   3.927
 1397SOL    HW2 4752   0.293   2.729   3.934
 1398SOL     OW 4753   1.478   2.610   4.458
 1398SOL    HW1 4754   1.450   2.547   4.525
 1398SOL    HW2 4755   1.550   2.658   4.499
 1399SOL     OW 4756   0.465   3.125   5.461
 1399SOL    HW1 4757   0.437   3.132   5.370
 1399SOL    HW2 4758   0.383   3.126   5.511
 1400SOL     OW 4759   1.121   3.639   3.955
 1400SOL    HW1 4760   1.049   3.597   4.001
 1400SOL    HW2 4761   1.144   3.579   3.885
 1401SOL     OW 4762   0.205   2.143   5.221
 1401SOL    HW1 4763   0.125   2.194   5.206
 1401SOL    HW2 4764   0.174   2.065   5.268
 1402SOL     OW 4765   1.619   3.243   3.801
 1402SOL    HW1 4766   1.577   3.328   3.790
 1402SOL    HW2 4767   1.549   3.179   3.785
 1403SOL     OW 4768   0.471   3.597   4.044
 1403SOL    HW1 4769   0.513   3.655   4.107
 1403SOL    HW2 4770   0.543   3.567   3.988
 1404SOL     OW 4771   1.401   1.969   4.157
 1404SOL    HW1 4772   1.390   1.945   4.065
 1404SOL    HW2 4773   1.495   1.979   4.168
 1405SOL     OW 4774   0.275   3.663   4.939
 1405SOL    HW1 4775   0.307   3.586   4.987
 1405SOL    HW2 4776   0.226   3.627   4.866
 1406SOL     OW 4777   0.939   3.560   4.623
 1406SOL    HW1 4778   1.016   3.508   4.644
 1406SOL    HW2 4779   0.894   3.511   4.555
 1407SOL     OW 4780   0.386   2.558   4.203
 1407SOL    HW1 4781   0.415   2.467   4.212
 1407SOL    HW2 4782   0.292   2.555   4.224
 1408SOL     OW 4783   1.536   2.088   5.450
 1408SOL    HW1 4784   1.545   2.109   5.543
 1408SOL    HW2 4785   1.468   2.020   5.447
 1409SOL     OW 4786   0.631   1.985   3.830
 1409SOL    HW1 4787   0.704   1.923   3.841
 1409SOL    HW2 4788   0.585   1.953   3.753
 1410SOL     OW 4789   0.767   2.140   5.478
 1410SOL    HW1 4790   0.842   2.080   5.480
 1410SOL    HW2 4791   0.718   2.120   5.557
 1411SOL     OW 4792   0.877   3.383   4.917
 1411SOL    HW1 4793   0.861   3.347   4.830
 1411SOL    HW2 4794   0.947   3.329   4.953
 1412SOL     OW 4795   1.343   2.450   5.155
 1412SOL    HW1 4796   1.372   2.420   5.241
 1412SOL    HW2 4797   1.376   2.540   5.150
 1413SOL     OW 4798   0.815   3.257   4.663
 1413SOL    HW1 4799   0.899   3.247   4.618
 1413SOL    HW2 4800   0.750   3.258   4.592
 1414SOL     OW 4801   0.928   2.372   4.627
 1414SOL    HW1 4802   0.904   2.363   4.535
 1414SOL    HW2 4803   0.959   2.285   4.652
 1415SOL     OW 4804   0.560   1.923   4.221
 1415SOL    HW1 4805   0.485   1.924   4.280
 1415SOL    HW2 4806   0.549   2.003   4.169
 1416SOL     OW 4807   1.424   3.058   3.764
 1416SOL    HW1 4808   1.457   2.984   3.815
 1416SOL    HW2 4809   1.339   3.079   3.803
 1417SOL     OW 4810   0.305   1.909   3.904
 1417SOL    HW1 4811   0.367   1.972   3.868
 1417SOL    HW2 4812   0.360   1.844   3.948
 1418SOL     OW 4813   0.939   2.108   4.185
 1418SOL    HW1 4814   0.911   2.150   4.103
 1418SOL    HW2 4815   1.033   2.122   4.188
 1419SOL     OW 4816   1.080   2.542   5.184
 1419SOL    HW1 4817   1.010   2.477   5.189
 1419SOL    HW2 4818   1.160   2.490   5.177
 1420SOL     OW 4819   1.224   3.431   4.517
 1420SOL    HW1 4820   1.240   3.499   4.451
 1420SOL    HW2 4821   1.292   3.446   4.584
 1421SOL     OW 4822   0.467   3.011   4.456
 1421SOL    HW1 4823   0.398   2.992   4.519
 1421SOL    HW2 4824   0.428   2.993   4.371
 1422SOL     OW 4825   1.269   3.656   4.332
 1422SOL    HW1 4826   1.315   3.717   4.274
 1422SOL    HW2 4827   1.203   3.710   4.375
 1423SOL     OW 4828   1.023   2.404   3.747
 1423SOL    HW1 4829   0.982   2.488   3.726
 1423SOL    HW2 4830   1.091   2.426   3.811
 1424SOL     OW 4831   0.087   2.408   5.122
 1424SOL    HW1 4832   0.175   2.415   5.085
 1424SOL    HW2 4833   0.079   2.484   5.180
 1425SOL     OW 4834   0.560   2.090   4.890
 1425SOL    HW1 4835   0.598   2.009   4.926
 1425SOL    HW2 4836   0.469   2.088   4.918
 1426SOL     OW 4837   0.869   2.322   4.363
 1426SOL    HW1 4838   0.822   2.375   4.299
 1426SOL    HW2 4839   0.889   2.241   4.317
 1427SOL     OW 4840   1.014   1.915   4.476
 1427SOL    HW1 4841   0.957   1.907   4.400
 1427SOL    HW2 4842   0.993   1.839   4.531
 1428SOL     OW 4843   1.438   3.023   4.581
 1428SOL    HW1 4844   1.365   2.961   4.579
 1428SOL    HW2 4845   1.459   3.039   4.490
 1429SOL     OW 4846   1.462   2.466   4.706
 1429SOL    HW1 4847   1.416   2.382   4.705
 1429SOL    HW2 4848   1.524   2.458   4.779
 1430SOL     OW 4849   0.492   3.278   3.883
 1430SOL    HW1 4850   0.417   3.250   3.935
 1430SOL    HW2 4851   0.474   3.246   3.795
 1431SOL     OW 4852   1.661   3.119   4.384
 1431SOL    HW1 4853   1.756   3.129   4.381
 1431SOL    HW2 4854   1.628   3.208   4.394
 1432SOL     OW 4855   1.391   2.436   3.793
 1432SOL    HW1 4856   1.336   2.413   3.868
 1432SOL    HW2 4857   1.479   2.409   3.818
 1433SOL     OW 4858   0.524   2.125   4.042
 1433SOL    HW1 4859   0.568   2.077   3.972
 1433SOL    HW2 4860   0.503   2.210   4.003
 1434SOL     OW 4861   1.753   3.101   5.298
 1434SOL    HW1 4862   1.840   3.062   5.295
 1434SOL    HW2 4863   1.768   3.191   5.327
 1435SOL     OW 4864   1.059   3.214   5.057
 1435SOL    HW1 4865   0.984   3.184   5.108
 1435SOL    HW2 4866   1.135   3.174   5.099
 1436SOL     OW 4867   1.607   3.487   5.377
 1436SOL    HW1 4868   1.602   3.521   5.288
 1436SOL    HW2 4869   1.690   3.440   5.380
 1437SOL     OW 4870   1.127   3.063   4.830
 1437SOL    HW1 4871   1.070   3.102   4.895
 1437SOL    HW2 4872   1.095   3.097   4.746
 1438SOL     OW 4873   1.627   2.958   4.804
 1438SOL    HW1 4874   1.624   3.022   4.875
 1438SOL    HW2 4875   1.548   2.977   4.752
 1439SOL     OW 4876   0.919   1.959   5.122
 1439SOL    HW1 4877   0.940   1.940   5.030
 1439SOL    HW2 4878   0.998   1.999   5.158
 1440SOL     OW 4879   0.984   2.976   5.446
 1440SOL    HW1 4880   0.892   2.993   5.467
 1440SOL    HW2 4881   0.983   2.899   5.391
 1441SOL     OW 4882   0.707   2.922   4.096
 1441SOL    HW1 4883   0.696   2.907   4.190
 1441SOL    HW2 4884   0.784   2.869   4.073
 1442SOL     OW 4885   0.420   2.680   4.976
 1442SOL    HW1 4886   0.489   2.687   5.042
 1442SOL    HW2 4887   0.385   2.592   4.987
 1443SOL     OW 4888   1.266   2.239   4.999
 1443SOL    HW1 4889   1.298   2.317   5.045
 1443SOL    HW2 4890   1.176   2.261   4.975
 1444SOL     OW 4891   0.101   3.485   5.091
 1444SOL    HW1 4892   0.078   3.495   4.999
 1444SOL    HW2 4893   0.187   3.443   5.091
 1445SOL     OW 4894   0.344   2.967   4.212
 1445SOL    HW1 4895   0.354   3.046   4.159
 1445SOL    HW2 4896   0.354   2.895   4.150
 1446SOL     OW 4897   0.555   2.398   4.583
 1446SOL    HW1 4898   0.571   2.457   4.509
 1446SOL    HW2 4899   0.619   2.426   4.649
 1447SOL     OW 4900   1.248   3.210   4.114
 1447SOL    HW1 4901   1.304   3.281   4.144
 1447SOL    HW2 4902   1.161   3.231   4.148
 1448SOL     OW 4903   1.280   3.319   4.871
 1448SOL    HW1 4904   1.336   3.322   4.948
 1448SOL    HW2 4905   1.224   3.243   4.884
 1449SOL     OW 4906   1.581   2.477   4.213
 1449SOL    HW1 4907   1.533   2.549   4.254
 1449SOL    HW2 4908   1.621   2.516   4.135
 1450SOL     OW 4909   0.351   3.381   5.035
 1450SOL    HW1 4910   0.342   3.338   4.950
 1450SOL    HW2 4911   0.445   3.399   5.042
 1451SOL     OW 4912   0.413   2.605   5.326
 1451SOL    HW1 4913   0.474   2.651   5.268
 1451SOL    HW2 4914   0.453   2.519   5.339
 1452SOL     OW 4915   1.599   2.640   5.405
 1452SOL    HW1 4916   1.514   2.682   5.398
 1452SOL    HW2 4917   1.652   2.682   5.338
 1453SOL     OW 4918   0.996   1.983   5.480
 1453SOL    HW1 4919   1.050   2.056   5.450
 1453SOL    HW2 4920   1.044   1.905   5.454
 1454SOL     OW 4921   0.497   1.904   5.471
 1454SOL    HW1 4922   0.456   1.850   5.404
 1454SOL    HW2 4923   0.437   1.978   5.483
 1455SOL     OW 4924   0.585   2.735   4.756
 1455SOL    HW1 4925   0.615   2.826   4.755
 1455SOL    HW2 4926   0.529   2.730   4.833
 1456SOL     OW 4927   1.359   2.721   4.753
 1456SOL    HW1 4928   1.275   2.714   4.709
 1456SOL    HW2 4929   1.396   2.632   4.749
 1457SOL     OW 4930   1.206   2.390   3.993
 1457SOL    HW1 4931   1.213   2.312   4.047
 1457SOL    HW2 4932   1.163   2.454   4.049
 1458SOL     OW 4933   0.302   2.065   4.972
 1458SOL    HW1 4934   0.267   2.090   5.058
 1458SOL    HW2 4935   0.289   1.971   4.968
 1459SOL     OW 4936   0.070   3.181   5.005
 1459SOL    HW1 4937   0.091   3.121   5.076
 1459SOL    HW2 4938   0.002   3.238   5.040
 1460SOL     OW 4939   0.725   2.494   4.783
 1460SOL    HW1 4940   0.799   2.477   4.724
 1460SOL    HW2 4941   0.697   2.583   4.761
 1461SOL     OW 4942   1.733   2.821   5.576
 1461SOL    HW1 4943   1.687   2.761   5.517
 1461SOL    HW2 4944   1.674   2.834   5.649
 1462SOL     OW 4945   0.328   1.924   4.358
 1462SOL    HW1 4946   0.307   2.013   4.386
 1462SOL    HW2 4947   0.331   1.874   4.440
 1463SOL     OW 4948   1.611   2.229   4.095
 1463SOL    HW1 4949   1.644   2.167   4.160
 1463SOL    HW2 4950   1.592   2.308   4.146
 1464SOL     OW 4951   1.028   2.621   4.685
 1464SOL    HW1 4952   1.025   2.639   4.779
 1464SOL    HW2 4953   1.001   2.530   4.677
 1465SOL     OW 4954   0.982   3.428   5.440
 1465SOL    HW1 4955   0.967   3.472   5.357
 1465SOL    HW2 4956   1.026   3.346   5.416
 1466SOL     OW 4957   1.855   3.369   5.330
 1466SOL    HW1 4958   1.873   3.394   5.239
 1466SOL    HW2 4959   1.937   3.387   5.376
 1467SOL     OW 4960   0.354   2.780   5.530
 1467SOL    HW1 4961   0.435   2.799   5.577
 1467SOL    HW2 4962   0.378   2.715   5.464
 1468SOL     OW 4963   1.529   2.133   3.852
 1468SOL    HW1 4964   1.464   2.068   3.879
 1468SOL    HW2 4965   1.561   2.170   3.934
 1469SOL     OW 4966   1.292   2.690   3.757
 1469SOL    HW1 4967   1.333   2.604   3.760
 1469SOL    HW2 4968   1.324   2.729   3.675
 1470SOL     OW 4969   1.066   3.197   4.578
 1470SOL    HW1 4970   1.069   3.125   4.515
 1470SOL    HW2 4971   1.127   3.262   4.543
 1471SOL     OW 4972   0.314   2.672   4.674
 1471SOL    HW1 4973   0.408   2.690   4.670
 1471SOL    HW2 4974   0.308   2.582   4.706
 1472SOL     OW 4975   0.336   2.387   4.738
 1472SOL    HW1 4976   0.300   2.300   4.724
 1472SOL    HW2 4977   0.410   2.393   4.679
 1473SOL     OW 4978   1.134   2.239   5.405
 1473SOL    HW1 4979   1.087   2.293   5.468
 1473SOL    HW2 4980   1.222   2.276   5.402
 1474SOL     OW 4981   1.161   2.065   5.194
 1474SOL    HW1 4982   1.150   2.128   5.266
 1474SOL    HW2 4983   1.199   2.116   5.123
 1475SOL     OW 4984   0.001   3.192   3.934
 1475SOL    HW1 4985   5.227   3.182   3.875
 1475SOL    HW2 4986   0.012   3.106   3.975
 1476SOL     OW 4987   0.092   3.644   4.674
 1476SOL    HW1 4988   0.059   3.573   4.619
 1476SOL    HW2 4989   0.179   3.662   4.639
 1477SOL     OW 4990   0.505   3.435   4.631
 1477SOL    HW1 4991   0.572   3.500   4.652
 1477SOL    HW2 4992   0.549   3.374   4.572
 1478SOL     OW 4993   0.985   2.654   4.951
 1478SOL    HW1 4994   1.039   2.631   5.026
 1478SOL    HW2 4995   0.899   2.618   4.972
 1479SOL     OW 4996   0.034   2.423   4.839
 1479SOL    HW1 4997   0.119   2.396   4.806
 1479SOL    HW2 4998   0.038   2.405   4.933
 1480SOL     OW 4999   0.175   2.375   5.436
 1480SOL    HW1 5000   0.241   2.339   5.376
 1480SOL    HW2 5001   0.146   2.455   5.394
 1481SOL     OW 5002   1.376   2.802   5.383
 1481SOL    HW1 5003   1.398   2.895   5.382
 1481SOL    HW2 5004   1.374   2.777   5.290
 1482SOL     OW 5005   0.816   2.431   4.083
 1482SOL    HW1 5006   0.820   2.356   4.023
 1482SOL    HW2 5007   0.742   2.483   4.051
 1483SOL     OW 5008   1.649   2.461   4.910
 1483SOL    HW1 5009   1.623   2.409   4.986
 1483SOL    HW2 5010   1.732   2.424   4.882
 1484SOL     OW 5011   0.257   3.418   5.459
 1484SOL    HW1 5012   0.233   3.481   5.528
 1484SOL    HW2 5013   0.249   3.332   5.501
 1485SOL     OW 5014   0.700   2.313   4.985
 1485SOL    HW1 5015   0.648   2.239   4.955
 1485SOL    HW2 5016   0.696   2.376   4.912
 1486SOL     OW 5017   0.930   3.541   5.191
 1486SOL    HW1 5018   0.902   3.507   5.105
 1486SOL    HW2 5019   0.925   3.636   5.182
 1487SOL     OW 5020   0.465   2.355   3.910
 1487SOL    HW1 5021   0.525   2.427   3.931
 1487SOL    HW2 5022   0.380   2.397   3.899
 1488SOL     OW 5023   0.148   3.000   5.195
 1488SOL    HW1 5024   0.147   2.950   5.277
 1488SOL    HW2 5025   0.161   2.933   5.127
 1489SOL     OW 5026   1.327   2.909   4.948
 1489SOL    HW1 5027   1.351   2.847   4.879
 1489SOL    HW2 5028   1.256   2.960   4.909
 1490SOL     OW 5029   1.309   2.716   4.032
 1490SOL    HW1 5030   1.231   2.687   4.079
 1490SOL    HW2 5031   1.287   2.704   3.940
 1491SOL     OW 5032   1.771   3.608   4.874
 1491SOL    HW1 5033   1.831   3.633   4.804
 1491SOL    HW2 5034   1.746   3.518   4.854
 1492SOL     OW 5035   1.241   3.595   4.838
 1492SOL    HW1 5036   1.323   3.615   4.793
 1492SOL    HW2 5037   1.246   3.501   4.856
 1493SOL     OW 5038   0.083   3.081   4.751
 1493SOL    HW1 5039   0.070   3.105   4.843
 1493SOL    HW2 5040   5.294   3.069   4.717
 1494SOL     OW 5041   0.678   3.527   5.452
 1494SOL    HW1 5042   0.623   3.606   5.447
 1494SOL    HW2 5043   0.741   3.538   5.381
 1495SOL     OW 5044   1.716   2.004   4.234
 1495SOL    HW1 5045   1.789   1.990   4.174
 1495SOL    HW2 5046   1.701   1.919   4.274
 1496SOL     OW 5047   1.390   3.430   4.208
 1496SOL    HW1 5048   1.451   3.461   4.141
 1496SOL    HW2 5049   1.342   3.508   4.236
 1497SOL     OW 5050   0.144   3.660   5.567
 1497SOL    HW1 5051   0.089   3.597   5.613
 1497SOL    HW2 5052   0.190   3.708   5.636
 1498SOL     OW 5053   1.276   2.788   4.394
 1498SOL    HW1 5054   1.350   2.727   4.401
 1498SOL    HW2 5055   1.309   2.861   4.341
 1499SOL     OW 5056   0.816   3.135   5.155
 1499SOL    HW1 5057   0.788   3.174   5.237
 1499SOL    HW2 5058   0.746   3.156   5.093
 1500SOL     OW 5059   0.672   3.480   3.879
 1500SOL    HW1 5060   0.682   3.493   3.785
 1500SOL    HW2 5061   0.618   3.402   3.887
 1501SOL     OW 5062   1.627   3.588   5.115
 1501SOL    HW1 5063   1.677   3.595   5.034
 1501SOL    HW2 5064   1.614   3.679   5.143
 1502SOL     OW 5065   1.825   2.033   4.700
 1502SOL    HW1 5066   1.866   1.953   4.666
 1502SOL    HW2 5067   1.744   2.041   4.650
 1503SOL     OW 5068   0.272   2.179   4.442
 1503SOL    HW1 5069   0.188   2.218   4.420
 1503SOL    HW2 5070   0.270   2.168   4.537
 1504SOL     OW 5071   1.206   3.469   3.755
 1504SOL    HW1 5072   1.197   3.377   3.782
 1504SOL    HW2 5073   1.141   3.480   3.686
 1505SOL     OW 5074   0.824   2.868   5.096
 1505SOL    HW1 5075   0.867   2.864   5.011
 1505SOL    HW2 5076   0.824   2.961   5.119
 1506SOL     OW 5077   0.915   2.773   4.014
 1506SOL    HW1 5078   0.976   2.804   3.947
 1506SOL    HW2 5079   0.963   2.703   4.059
 1507SOL     OW 5080   1.490   3.489   3.766
 1507SOL    HW1 5081   1.396   3.483   3.752
 1507SOL    HW2 5082   1.528   3.495   3.678
 1508SOL     OW 5083   0.368   3.165   5.217
 1508SOL    HW1 5084   0.359   3.240   5.158
 1508SOL    HW2 5085   0.292   3.110   5.198
 1509SOL     OW 5086   1.612   3.144   5.005
 1509SOL    HW1 5087   1.671   3.135   5.080
 1509SOL    HW2 5088   1.552   3.214   5.031
 1510SOL     OW 5089   1.051   2.969   4.430
 1510SOL    HW1 5090   0.980   2.918   4.470
 1510SOL    HW2 5091   1.112   2.903   4.397
 1511SOL     OW 5092   1.021   2.102   4.690
 1511SOL    HW1 5093   1.016   2.055   4.607
 1511SOL    HW2 5094   1.015   2.034   4.757
 1512SOL     OW 5095   0.601   3.349   4.206
 1512SOL    HW1 5096   0.645   3.301   4.136
 1512SOL    HW2 5097   0.535   3.402   4.160
 1513SOL     OW 5098   1.722   2.257   5.104
 1513SOL    HW1 5099   1.796   2.317   5.099
 1513SOL    HW2 5100   1.749   2.181   5.052
 1514SOL     OW 5101   0.260   3.210   4.016
 1514SOL    HW1 5102   0.167   3.212   3.993
 1514SOL    HW2 5103   0.264   3.247   4.104
 1515SOL     OW 5104   0.115   2.878   5.442
 1515SOL    HW1 5105   0.044   2.843   5.496
 1515SOL    HW2 5106   0.195   2.847   5.485
 1516SOL     OW 5107   0.674   2.058   5.223
 1516SOL    HW1 5108   0.757   2.039   5.181
 1516SOL    HW2 5109   0.697   2.089   5.311
 1517SOL     OW 5110   0.080   2.214   3.766
 1517SOL    HW1 5111   0.003   2.164   3.741
 1517SOL    HW2 5112   0.098   2.270   3.690
 1518SOL     OW 5113   1.430   2.720   5.124
 1518SOL    HW1 5114   1.382   2.781   5.068
 1518SOL    HW2 5115   1.521   2.726   5.094
 1519SOL     OW 5116   0.055   1.995   3.967
 1519SOL    HW1 5117   0.055   2.091   3.961
 1519SOL    HW2 5118   0.146   1.971   3.946
 1520SOL     OW 5119   1.179   3.202   3.841
 1520SOL    HW1 5120   1.088   3.172   3.844
 1520SOL    HW2 5121   1.207   3.202   3.933
 1521SOL     OW 5122   0.619   2.693   5.159
 1521SOL    HW1 5123   0.675   2.769   5.143
 1521SOL    HW2 5124   0.680   2.619   5.167
 1522SOL     OW 5125   1.484   3.637   4.701
 1522SOL    HW1 5126   1.508   3.696   4.630
 1522SOL    HW2 5127   1.566   3.620   4.747
 1523SOL     OW 5128   0.717   2.427   5.429
 1523SOL    HW1 5129   0.757   2.489   5.489
 1523SOL    HW2 5130   0.747   2.341   5.460
 1524SOL     OW 5131   1.471   3.063   5.356
 1524SOL    HW1 5132   1.459   3.076   5.450
 1524SOL    HW2 5133   1.564   3.077   5.342
 1525SOL     OW 5134   0.379   3.604   5.288
 1525SOL    HW1 5135   0.296   3.650   5.273
 1525SOL    HW2 5136   0.354   3.523   5.333
 1526SOL     OW 5137   1.671   2.744   4.978
 1526SOL    HW1 5138   1.661   2.660   4.933
 1526SOL    HW2 5139   1.659   2.810   4.910
 1527SOL     OW 5140   1.217   2.181   4.183
 1527SOL    HW1 5141   1.281   2.110   4.173
 1527SOL    HW2 5142   1.247   2.230   4.259
 1528SOL     OW 5143   0.591   2.600   4.393
 1528SOL    HW1 5144   0.629   2.686   4.377
 1528SOL    HW2 5145   0.521   2.593   4.327
 1529SOL     OW 5146   1.764   2.221   5.372
 1529SOL    HW1 5147   1.741   2.236   5.280
 1529SOL    HW2 5148   1.693   2.165   5.405
 1530SOL     OW 5149   1.742   2.796   5.237
 1530SOL    HW1 5150   1.744   2.891   5.250
 1530SOL    HW2 5151   1.731   2.785   5.143
 1531SOL     OW 5152   0.862   3.229   3.757
 1531SOL    HW1 5153   0.824   3.259   3.839
 1531SOL    HW2 5154   0.881   3.310   3.710
 1532SOL     OW 5155   0.662   3.656   4.669
 1532SOL    HW1 5156   0.641   3.747   4.646
 1532SOL    HW2 5157   0.758   3.652   4.662
 1533SOL     OW 5158   0.867   2.828   4.579
 1533SOL    HW1 5159   0.917   2.757   4.619
 1533SOL    HW2 5160   0.833   2.878   4.653
 1534SOL     OW 5161   1.078   2.849   3.812
 1534SOL    HW1 5162   1.057   2.900   3.734
 1534SOL    HW2 5163   1.154   2.797   3.788
 1535SOL     OW 5164   1.857   3.415   4.569
 1535SOL    HW1 5165   1.779   3.404   4.515
 1535SOL    HW2 5166   1.851   3.346   4.634
 1536SOL     OW 5167   0.225   3.167   5.583
 1536SOL    HW1 5168   0.157   3.104   5.558
 1536SOL    HW2 5169   0.213   3.177   5.678
 1537SOL     OW 5170   0.086   3.084   4.379
 1537SOL    HW1 5171   0.099   3.050   4.468
 1537SOL    HW2 5172   0.172   3.074   4.337
 1538SOL     OW 5173   0.681   3.264   5.352
 1538SOL    HW1 5174   0.600   3.221   5.381
 1538SOL    HW2 5175   0.676   3.352   5.388
 1539SOL     OW 5176   1.809   2.048   4.966
 1539SOL    HW1 5177   1.832   1.958   4.988
 1539SOL    HW2 5178   1.816   2.053   4.871
 1540SOL     OW 5179   0.434   2.298   4.248
 1540SOL    HW1 5180   0.462   2.225   4.192
 1540SOL    HW2 5181   0.387   2.256   4.320
 1541SOL     OW 5182   1.699   3.354   4.823
 1541SOL    HW1 5183   1.620   3.328   4.776
 1541SOL    HW2 5184   1.715   3.283   4.885
 1542SOL     OW 5185   0.335   2.420   5.015
 1542SOL    HW1 5186   0.388   2.361   5.068
 1542SOL    HW2 5187   0.350   2.391   4.925
 1543SOL     OW 5188   0.828   3.439   4.402
 1543SOL    HW1 5189   0.817   3.492   4.323
 1543SOL    HW2 5190   0.750   3.383   4.404
 1544SOL     OW 5191   1.434   2.089   4.842
 1544SOL    HW1 5192   1.458   2.007   4.885
 1544SOL    HW2 5193   1.380   2.135   4.906
 1545SOL     OW 5194   1.009   1.881   4.867
 1545SOL    HW1 5195   0.954   1.813   4.827
 1545SOL    HW2 5196   1.097   1.843   4.869
 1546SOL     OW 5197   0.771   3.195   4.038
 1546SOL    HW1 5198   0.740   3.104   4.044
 1546SOL    HW2 5199   0.854   3.195   4.086
 1547SOL     OW 5200   0.622   3.419   5.011
 1547SOL    HW1 5201   0.624   3.501   5.060
 1547SOL    HW2 5202   0.709   3.413   4.971
 1548SOL     OW 5203   1.351   1.915   3.890
 1548SOL    HW1 5204   1.379   1.855   3.821
 1548SOL    HW2 5205   1.265   1.884   3.916
 1549SOL     OW 5206   1.295   2.325   4.406
 1549SOL    HW1 5207   1.238   2.401   4.414
 1549SOL    HW2 5208   1.293   2.284   4.492
 1550SOL     OW 5209   1.578   2.062   4.595
 1550SOL    HW1 5210   1.521   2.084   4.669
 1550SOL    HW2 5211   1.581   2.142   4.543
 1551SOL     OW 5212   0.048   2.931   4.015
 1551SOL    HW1 5213   0.137   2.900   4.003
 1551SOL    HW2 5214   5.300   2.855   4.048
 1552SOL     OW 5215   0.884   3.513   4.067
 1552SOL    HW1 5216   0.811   3.497   4.006
 1552SOL    HW2 5217   0.856   3.589   4.118
 1553SOL     OW 5218   0.233   2.495   5.702
 1553SOL    HW1 5219   0.159   2.463   5.752
 1553SOL    HW2 5220   0.220   2.459   5.614
 1554SOL     OW 5221   0.241   2.138   6.576
 1554SOL    HW1 5222   0.255   2.103   6.664
 1554SOL    HW2 5223   0.157   2.100   6.549
 1555SOL     OW 5224   5.299   2.259   6.238
 1555SOL    HW1 5225   5.206   2.282   6.245
 1555SOL    HW2 5226   5.299   2.168   6.208
 1556SOL     OW 5227   0.573   3.145   6.766
 1556SOL    HW1 5228   0.490   3.153   6.719
 1556SOL    HW2 5229   0.590   3.232   6.801
 1557SOL     OW 5230   1.560   3.373   6.292
 1557SOL    HW1 5231   1.517   3.354   6.376
 1557SOL    HW2 5232   1.489   3.378   6.229
 1558SOL     OW 5233   1.130   2.560   6.287
 1558SOL    HW1 5234   1.179   2.641   6.273
 1558SOL    HW2 5235   1.083   2.575   6.370
 1559SOL     OW 5236   1.766   2.468   5.815
 1559SOL    HW1 5237   1.746   2.460   5.722
 1559SOL    HW2 5238   1.731   2.388   5.855
 1560SOL     OW 5239   0.756   3.004   6.624
 1560SOL    HW1 5240   0.689   3.038   6.683
 1560SOL    HW2 5241   0.791   3.082   6.581
 1561SOL     OW 5242   0.864   2.640   7.406
 1561SOL    HW1 5243   0.853   2.715   7.465
 1561SOL    HW2 5244   0.889   2.679   7.322
 1562SOL     OW 5245   0.685   2.865   6.234
 1562SOL    HW1 5246   0.751   2.853   6.302
 1562SOL    HW2 5247   0.617   2.918   6.276
 1563SOL     OW 5248   0.709   3.013   7.398
 1563SOL    HW1 5249   0.757   3.092   7.424
 1563SOL    HW2 5250   0.626   3.047   7.362
 1564SOL     OW 5251   0.358   3.267   6.646
 1564SOL    HW1 5252   0.270   3.267   6.608
 1564SOL    HW2 5253   0.407   3.330   6.592
 1565SOL     OW 5254   1.461   3.361   6.939
 1565SOL    HW1 5255   1.510   3.443   6.948
 1565SOL    HW2 5256   1.401   3.360   7.014
 1566SOL     OW 5257   0.450   2.263   7.080
 1566SOL    HW1 5258   0.524   2.202   7.081
 1566SOL    HW2 5259   0.373   2.206   7.089
 1567SOL     OW 5260   1.613   2.311   6.326
 1567SOL    HW1 5261   1.537   2.334   6.272
 1567SOL    HW2 5262   1.629   2.388   6.379
 1568SOL     OW 5263   0.230   3.576   6.063
 1568SOL    HW1 5264   0.265   3.645   6.121
 1568SOL    HW2 5265   0.292   3.573   5.990
 1569SOL     OW 5266   1.136   3.203   7.276
 1569SOL    HW1 5267   1.177   3.200   7.363
 1569SOL    HW2 5268   1.084   3.123   7.271
 1570SOL     OW 5269   0.222   3.305   6.125
 1570SOL    HW1 5270   0.214   3.401   6.122
 1570SOL    HW2 5271   0.153   3.277   6.184
 1571SOL     OW 5272   0.249   2.940   6.462
 1571SOL    HW1 5273   0.260   2.855   6.505
 1571SOL    HW2 5274   0.198   2.992   6.524
 1572SOL     OW 5275   0.614   3.652   7.018
 1572SOL    HW1 5276   0.531   3.635   7.061
 1572SOL    HW2 5277   0.635   3.743   7.041
 1573SOL     OW 5278   0.584   2.844   5.720
 1573SOL    HW1 5279   0.630   2.893   5.651
 1573SOL    HW2 5280   0.626   2.874   5.801
 1574SOL     OW 5281   1.596   1.985   7.054
 1574SOL    HW1 5282   1.600   2.065   7.003
 1574SOL    HW2 5283   1.583   2.014   7.144
 1575SOL     OW 5284   0.126   2.497   6.164
 1575SOL    HW1 5285   0.089   2.413   6.193
 1575SOL    HW2 5286   0.098   2.559   6.231
 1576SOL     OW 5287   1.842   3.621   5.922
 1576SOL    HW1 5288   1.905   3.593   5.988
 1576SOL    HW2 5289   1.867   3.712   5.903
 1577SOL     OW 5290   0.037   3.461   5.717
 1577SOL    HW1 5291   0.024   3.369   5.742
 1577SOL    HW2 5292   5.284   3.510   5.779
 1578SOL     OW 5293   1.688   2.780   6.225
 1578SOL    HW1 5294   1.773   2.740   6.206
 1578SOL    HW2 5295   1.667   2.831   6.147
 1579SOL     OW 5296   1.646   2.969   6.015
 1579SOL    HW1 5297   1.731   2.976   5.973
 1579SOL    HW2 5298   1.651   3.030   6.089
 1580SOL     OW 5299   0.130   2.609   7.173
 1580SOL    HW1 5300   0.225   2.623   7.176
 1580SOL    HW2 5301   0.092   2.695   7.188
 1581SOL     OW 5302   0.615   3.246   6.321
 1581SOL    HW1 5303   0.567   3.164   6.331
 1581SOL    HW2 5304   0.597   3.273   6.230
 1582SOL     OW 5305   1.289   3.100   7.010
 1582SOL    HW1 5306   1.322   3.033   6.950
 1582SOL    HW2 5307   1.346   3.094   7.086
 1583SOL     OW 5308   0.821   1.861   6.095
 1583SOL    HW1 5309   0.862   1.945   6.076
 1583SOL    HW2 5310   0.728   1.879   6.101
 1584SOL     OW 5311   0.178   2.810   6.864
 1584SOL    HW1 5312   0.269   2.780   6.853
 1584SOL    HW2 5313   0.135   2.781   6.783
 1585SOL     OW 5314   1.531   2.855   5.784
 1585SOL    HW1 5315   1.462   2.797   5.816
 1585SOL    HW2 5316   1.572   2.889   5.863
 1586SOL     OW 5317   1.185   3.668   7.207
 1586SOL    HW1 5318   1.197   3.726   7.132
 1586SOL    HW2 5319   1.201   3.580   7.173
 1587SOL     OW 5320   0.335   2.114   7.400
 1587SOL    HW1 5321   0.383   2.196   7.412
 1587SOL    HW2 5322   0.248   2.132   7.436
 1588SOL     OW 5323   1.466   3.282   6.538
 1588SOL    HW1 5324   1.398   3.297   6.604
 1588SOL    HW2 5325   1.454   3.191   6.511
 1589SOL     OW 5326   1.659   3.600   6.164
 1589SOL    HW1 5327   1.639   3.570   6.075
 1589SOL    HW2 5328   1.634   3.526   6.220
 1590SOL     OW 5329   0.595   2.584   5.851
 1590SOL    HW1 5330   0.603   2.664   5.800
 1590SOL    HW2 5331   0.531   2.604   5.919
 1591SOL     OW 5332   1.279   2.213   6.518
 1591SOL    HW1 5333   1.190   2.180   6.527
 1591SOL    HW2 5334   1.330   2.160   6.580
 1592SOL     OW 5335   1.581   3.531   5.895
 1592SOL    HW1 5336   1.671   3.564   5.889
 1592SOL    HW2 5337   1.555   3.514   5.805
 1593SOL     OW 5338   0.792   2.479   7.038
 1593SOL    HW1 5339   0.765   2.456   7.127
 1593SOL    HW2 5340   0.751   2.413   6.982
 1594SOL     OW 5341   1.394   2.336   7.263
 1594SOL    HW1 5342   1.395   2.381   7.348
 1594SOL    HW2 5343   1.455   2.263   7.273
 1595SOL     OW 5344   0.955   2.749   7.168
 1595SOL    HW1 5345   1.010   2.679   7.132
 1595SOL    HW2 5346   0.908   2.784   7.092
 1596SOL     OW 5347   0.992   2.275   6.825
 1596SOL    HW1 5348   0.907   2.297   6.863
 1596SOL    HW2 5349   0.971   2.228   6.744
 1597SOL     OW 5350   1.050   2.561   6.012
 1597SOL    HW1 5351   1.066   2.554   6.107
 1597SOL    HW2 5352   0.968   2.514   5.998
 1598SOL     OW 5353   0.072   2.649   6.398
 1598SOL    HW1 5354   0.154   2.654   6.447
 1598SOL    HW2 5355   0.062   2.736   6.359
 1599SOL     OW 5356   0.130   3.745   7.170
 1599SOL    HW1 5357   0.131   3.714   7.261
 1599SOL    HW2 5358   0.059   3.696   7.129
 1600SOL     OW 5359   0.891   2.210   5.780
 1600SOL    HW1 5360   0.932   2.272   5.720
 1600SOL    HW2 5361   0.908   2.124   5.742
 1601SOL     OW 5362   1.709   2.438   7.415
 1601SOL    HW1 5363   1.672   2.513   7.369
 1601SOL    HW2 5364   1.736   2.377   7.346
 1602SOL     OW 5365   1.376   3.004   6.127
 1602SOL    HW1 5366   1.455   2.991   6.075
 1602SOL    HW2 5367   1.324   3.066   6.077
 1603SOL     OW 5368   0.555   2.046   6.479
 1603SOL    HW1 5369   0.552   2.073   6.571
 1603SOL    HW2 5370   0.551   2.127   6.429
 1604SOL     OW 5371   1.006   3.306   6.059
 1604SOL    HW1 5372   0.968   3.379   6.009
 1604SOL    HW2 5373   0.990   3.328   6.150
 1605SOL     OW 5374   0.356   3.664   6.455
 1605SOL    HW1 5375   0.397   3.578   6.468
 1605SOL    HW2 5376   0.423   3.727   6.482
 1606SOL     OW 5377   1.798   2.919   6.454
 1606SOL    HW1 5378   1.742   2.903   6.378
 1606SOL    HW2 5379   1.736   2.925   6.528
 1607SOL     OW 5380   1.228   3.401   7.099
 1607SOL    HW1 5381   1.214   3.328   7.159
 1607SOL    HW2 5382   1.165   3.386   7.028
 1608SOL     OW 5383   0.316   2.814   5.833
 1608SOL    HW1 5384   0.398   2.838   5.789
 1608SOL    HW2 5385   0.293   2.729   5.796
 1609SOL     OW 5386   1.477   2.603   6.313
 1609SOL    HW1 5387   1.469   2.560   6.398
 1609SOL    HW2 5388   1.555   2.659   6.323
 1610SOL     OW 5389   0.464   3.124   7.323
 1610SOL    HW1 5390   0.437   3.131   7.232
 1610SOL    HW2 5391   0.382   3.126   7.373
 1611SOL     OW 5392   1.121   3.640   5.817
 1611SOL    HW1 5393   1.049   3.597   5.863
 1611SOL    HW2 5394   1.144   3.579   5.747
 1612SOL     OW 5395   0.204   2.143   7.084
 1612SOL    HW1 5396   0.125   2.194   7.067
 1612SOL    HW2 5397   0.174   2.065   7.129
 1613SOL     OW 5398   1.629   3.241   5.673
 1613SOL    HW1 5399   1.588   3.327   5.658
 1613SOL    HW2 5400   1.560   3.178   5.654
 1614SOL     OW 5401   0.471   3.597   5.906
 1614SOL    HW1 5402   0.513   3.655   5.970
 1614SOL    HW2 5403   0.543   3.567   5.850
 1615SOL     OW 5404   1.401   1.969   6.018
 1615SOL    HW1 5405   1.390   1.945   5.926
 1615SOL    HW2 5406   1.496   1.976   6.030
 1616SOL     OW 5407   0.275   3.663   6.801
 1616SOL    HW1 5408   0.307   3.587   6.849
 1616SOL    HW2 5409   0.226   3.627   6.728
 1617SOL     OW 5410   0.939   3.561   6.486
 1617SOL    HW1 5411   1.016   3.508   6.506
 1617SOL    HW2 5412   0.894   3.511   6.417
 1618SOL     OW 5413   0.386   2.558   6.065
 1618SOL    HW1 5414   0.415   2.467   6.073
 1618SOL    HW2 5415   0.292   2.555   6.086
 1619SOL     OW 5416   1.536   2.087   7.312
 1619SOL    HW1 5417   1.545   2.108   7.404
 1619SOL    HW2 5418   1.467   2.021   7.309
 1620SOL     OW 5419   0.632   1.985   5.692
 1620SOL    HW1 5420   0.704   1.923   5.703
 1620SOL    HW2 5421   0.585   1.953   5.615
 1621SOL     OW 5422   0.766   2.138   7.338
 1621SOL    HW1 5423   0.842   2.079   7.342
 1621SOL    HW2 5424   0.723   2.126   7.423
 1622SOL     OW 5425   0.877   3.383   6.779
 1622SOL    HW1 5426   0.861   3.347   6.692
 1622SOL    HW2 5427   0.947   3.329   6.816
 1623SOL     OW 5428   1.341   2.451   7.018
 1623SOL    HW1 5429   1.372   2.419   7.103
 1623SOL    HW2 5430   1.377   2.539   7.010
 1624SOL     OW 5431   0.815   3.257   6.525
 1624SOL    HW1 5432   0.899   3.246   6.480
 1624SOL    HW2 5433   0.750   3.258   6.454
 1625SOL     OW 5434   0.928   2.371   6.489
 1625SOL    HW1 5435   0.904   2.363   6.397
 1625SOL    HW2 5436   0.959   2.284   6.514
 1626SOL     OW 5437   0.560   1.923   6.082
 1626SOL    HW1 5438   0.485   1.924   6.142
 1626SOL    HW2 5439   0.549   2.003   6.031
 1627SOL     OW 5440   1.428   3.060   5.627
 1627SOL    HW1 5441   1.458   2.984   5.677
 1627SOL    HW2 5442   1.343   3.081   5.665
 1628SOL     OW 5443   0.305   1.909   5.766
 1628SOL    HW1 5444   0.367   1.973   5.730
 1628SOL    HW2 5445   0.360   1.844   5.810
 1629SOL     OW 5446   0.939   2.108   6.047
 1629SOL    HW1 5447   0.911   2.150   5.965
 1629SOL    HW2 5448   1.033   2.122   6.050
 1630SOL     OW 5449   1.080   2.542   7.046
 1630SOL    HW1 5450   1.011   2.476   7.051
 1630SOL    HW2 5451   1.161   2.492   7.039
 1631SOL     OW 5452   1.224   3.431   6.379
 1631SOL    HW1 5453   1.240   3.499   6.314
 1631SOL    HW2 5454   1.292   3.445   6.446
 1632SOL     OW 5455   0.467   3.011   6.318
 1632SOL    HW1 5456   0.398   2.992   6.382
 1632SOL    HW2 5457   0.427   2.993   6.233
 1633SOL     OW 5458   1.270   3.656   6.193
 1633SOL    HW1 5459   1.315   3.717   6.136
 1633SOL    HW2 5460   1.203   3.709   6.238
 1634SOL     OW 5461   1.024   2.405   5.608
 1634SOL    HW1 5462   0.982   2.488   5.588
 1634SOL    HW2 5463   1.089   2.426   5.675
 1635SOL     OW 5464   0.087   2.408   6.984
 1635SOL    HW1 5465   0.175   2.414   6.947
 1635SOL    HW2 5466   0.079   2.483   7.042
 1636SOL     OW 5467   0.560   2.089   6.751
 1636SOL    HW1 5468   0.598   2.009   6.788
 1636SOL    HW2 5469   0.469   2.088   6.780
 1637SOL     OW 5470   0.868   2.321   6.226
 1637SOL    HW1 5471   0.822   2.375   6.161
 1637SOL    HW2 5472   0.889   2.240   6.179
 1638SOL     OW 5473   1.015   1.915   6.338
 1638SOL    HW1 5474   0.957   1.907   6.263
 1638SOL    HW2 5475   0.994   1.839   6.393
 1639SOL     OW 5476   1.437   3.025   6.444
 1639SOL    HW1 5477   1.368   2.958   6.442
 1639SOL    HW2 5478   1.461   3.037   6.352
 1640SOL     OW 5479   1.467   2.466   6.564
 1640SOL    HW1 5480   1.417   2.385   6.568
 1640SOL    HW2 5481   1.526   2.461   6.638
 1641SOL     OW 5482   1.846   2.679   5.969
 1641SOL    HW1 5483   1.903   2.627   6.026
 1641SOL    HW2 5484   1.817   2.616   5.902
 1642SOL     OW 5485   0.492   3.278   5.745
 1642SOL    HW1 5486   0.417   3.250   5.797
 1642SOL    HW2 5487   0.474   3.246   5.657
 1643SOL     OW 5488   1.669   3.126   6.233
 1643SOL    HW1 5489   1.764   3.130   6.246
 1643SOL    HW2 5490   1.639   3.214   6.254
 1644SOL     OW 5491   1.394   2.434   5.657
 1644SOL    HW1 5492   1.333   2.414   5.729
 1644SOL    HW2 5493   1.479   2.402   5.688
 1645SOL     OW 5494   0.524   2.125   5.904
 1645SOL    HW1 5495   0.568   2.077   5.834
 1645SOL    HW2 5496   0.503   2.210   5.865
 1646SOL     OW 5497   1.753   3.100   7.160
 1646SOL    HW1 5498   1.840   3.062   7.155
 1646SOL    HW2 5499   1.767   3.190   7.190
 1647SOL     OW 5500   1.059   3.215   6.919
 1647SOL    HW1 5501   0.984   3.184   6.971
 1647SOL    HW2 5502   1.135   3.174   6.961
 1648SOL     OW 5503   1.607   3.487   7.238
 1648SOL    HW1 5504   1.603   3.521   7.148
 1648SOL    HW2 5505   1.690   3.440   7.242
 1649SOL     OW 5506   1.127   3.064   6.692
 1649SOL    HW1 5507   1.070   3.103   6.757
 1649SOL    HW2 5508   1.094   3.097   6.608
 1650SOL     OW 5509   1.629   2.960   6.664
 1650SOL    HW1 5510   1.624   3.022   6.737
 1650SOL    HW2 5511   1.549   2.978   6.613
 1651SOL     OW 5512   0.918   1.959   6.984
 1651SOL    HW1 5513   0.941   1.941   6.892
 1651SOL    HW2 5514   0.997   1.999   7.020
 1652SOL     OW 5515   0.984   2.976   7.310
 1652SOL    HW1 5516   0.892   2.993   7.328
 1652SOL    HW2 5517   0.984   2.898   7.254
 1653SOL     OW 5518   0.707   2.922   5.958
 1653SOL    HW1 5519   0.696   2.907   6.052
 1653SOL    HW2 5520   0.784   2.869   5.935
 1654SOL     OW 5521   0.420   2.680   6.838
 1654SOL    HW1 5522   0.489   2.687   6.904
 1654SOL    HW2 5523   0.385   2.591   6.849
 1655SOL     OW 5524   1.266   2.239   6.860
 1655SOL    HW1 5525   1.298   2.317   6.906
 1655SOL    HW2 5526   1.176   2.262   6.837
 1656SOL     OW 5527   0.101   3.485   6.953
 1656SOL    HW1 5528   0.078   3.494   6.861
 1656SOL    HW2 5529   0.187   3.443   6.953
 1657SOL     OW 5530   0.344   2.967   6.074
 1657SOL    HW1 5531   0.354   3.046   6.021
 1657SOL    HW2 5532   0.354   2.895   6.012
 1658SOL     OW 5533   0.555   2.398   6.445
 1658SOL    HW1 5534   0.571   2.457   6.371
 1658SOL    HW2 5535   0.619   2.426   6.511
 1659SOL     OW 5536   1.248   3.210   5.975
 1659SOL    HW1 5537   1.304   3.282   6.006
 1659SOL    HW2 5538   1.161   3.231   6.009
 1660SOL     OW 5539   1.280   3.319   6.733
 1660SOL    HW1 5540   1.336   3.322   6.810
 1660SOL    HW2 5541   1.224   3.242   6.746
 1661SOL     OW 5542   1.582   2.485   6.064
 1661SOL    HW1 5543   1.536   2.540   6.128
 1661SOL    HW2 5544   1.627   2.548   6.007
 1662SOL     OW 5545   0.352   3.381   6.897
 1662SOL    HW1 5546   0.342   3.338   6.812
 1662SOL    HW2 5547   0.445   3.399   6.904
 1663SOL     OW 5548   0.413   2.605   7.188
 1663SOL    HW1 5549   0.473   2.651   7.130
 1663SOL    HW2 5550   0.453   2.519   7.200
 1664SOL     OW 5551   1.599   2.640   7.267
 1664SOL    HW1 5552   1.514   2.681   7.260
 1664SOL    HW2 5553   1.652   2.682   7.199
 1665SOL     OW 5554   0.996   1.984   7.341
 1665SOL    HW1 5555   1.051   2.057   7.312
 1665SOL    HW2 5556   1.045   1.905   7.316
 1666SOL     OW 5557   0.498   1.903   7.333
 1666SOL    HW1 5558   0.456   1.849   7.266
 1666SOL    HW2 5559   0.438   1.977   7.345
 1667SOL     OW 5560   0.585   2.736   6.618
 1667SOL    HW1 5561   0.616   2.826   6.617
 1667SOL    HW2 5562   0.529   2.731   6.695
 1668SOL     OW 5563   1.359   2.721   6.617
 1668SOL    HW1 5564   1.276   2.712   6.569
 1668SOL    HW2 5565   1.398   2.634   6.612
 1669SOL     OW 5566   1.205   2.391   5.853
 1669SOL    HW1 5567   1.213   2.312   5.908
 1669SOL    HW2 5568   1.163   2.455   5.910
 1670SOL     OW 5569   0.302   2.066   6.834
 1670SOL    HW1 5570   0.267   2.090   6.920
 1670SOL    HW2 5571   0.289   1.971   6.830
 1671SOL     OW 5572   0.070   3.181   6.867
 1671SOL    HW1 5573   0.091   3.121   6.938
 1671SOL    HW2 5574   0.002   3.238   6.902
 1672SOL     OW 5575   0.725   2.493   6.644
 1672SOL    HW1 5576   0.799   2.477   6.587
 1672SOL    HW2 5577   0.697   2.583   6.623
 1673SOL     OW 5578   1.734   2.821   7.438
 1673SOL    HW1 5579   1.686   2.762   7.380
 1673SOL    HW2 5580   1.677   2.835   7.513
 1674SOL     OW 5581   0.327   1.924   6.220
 1674SOL    HW1 5582   0.307   2.013   6.248
 1674SOL    HW2 5583   0.331   1.874   6.302
 1675SOL     OW 5584   1.615   2.235   5.954
 1675SOL    HW1 5585   1.643   2.172   6.020
 1675SOL    HW2 5586   1.593   2.314   6.004
 1676SOL     OW 5587   1.027   2.621   6.547
 1676SOL    HW1 5588   1.025   2.639   6.641
 1676SOL    HW2 5589   1.001   2.530   6.539
 1677SOL     OW 5590   0.981   3.427   7.302
 1677SOL    HW1 5591   0.967   3.472   7.219
 1677SOL    HW2 5592   1.026   3.346   7.278
 1678SOL     OW 5593   1.855   3.370   7.191
 1678SOL    HW1 5594   1.873   3.395   7.101
 1678SOL    HW2 5595   1.936   3.387   7.238
 1679SOL     OW 5596   0.353   2.777   7.394
 1679SOL    HW1 5597   0.436   2.799   7.438
 1679SOL    HW2 5598   0.378   2.714   7.327
 1680SOL     OW 5599   1.530   2.135   5.713
 1680SOL    HW1 5600   1.465   2.070   5.740
 1680SOL    HW2 5601   1.563   2.171   5.796
 1681SOL     OW 5602   1.292   2.688   5.617
 1681SOL    HW1 5603   1.335   2.603   5.621
 1681SOL    HW2 5604   1.323   2.728   5.536
 1682SOL     OW 5605   1.066   3.197   6.439
 1682SOL    HW1 5606   1.069   3.125   6.377
 1682SOL    HW2 5607   1.127   3.262   6.405
 1683SOL     OW 5608   0.314   2.672   6.536
 1683SOL    HW1 5609   0.408   2.690   6.532
 1683SOL    HW2 5610   0.309   2.582   6.568
 1684SOL     OW 5611   0.335   2.387   6.600
 1684SOL    HW1 5612   0.300   2.300   6.586
 1684SOL    HW2 5613   0.410   2.393   6.541
 1685SOL     OW 5614   1.134   2.238   7.267
 1685SOL    HW1 5615   1.087   2.293   7.329
 1685SOL    HW2 5616   1.222   2.276   7.263
 1686SOL     OW 5617   1.161   2.065   7.055
 1686SOL    HW1 5618   1.150   2.128   7.127
 1686SOL    HW2 5619   1.200   2.116   6.984
 1687SOL     OW 5620   0.001   3.192   5.796
 1687SOL    HW1 5621   5.227   3.182   5.737
 1687SOL    HW2 5622   0.012   3.106   5.837
 1688SOL     OW 5623   0.092   3.644   6.536
 1688SOL    HW1 5624   0.059   3.573   6.481
 1688SOL    HW2 5625   0.180   3.662   6.501
 1689SOL     OW 5626   0.505   3.435   6.493
 1689SOL    HW1 5627   0.572   3.500   6.514
 1689SOL    HW2 5628   0.549   3.374   6.434
 1690SOL     OW 5629   0.984   2.654   6.813
 1690SOL    HW1 5630   1.040   2.631   6.888
 1690SOL    HW2 5631   0.899   2.617   6.834
 1691SOL     OW 5632   0.034   2.423   6.701
 1691SOL    HW1 5633   0.119   2.396   6.668
 1691SOL    HW2 5634   0.038   2.404   6.795
 1692SOL     OW 5635   0.175   2.375   7.302
 1692SOL    HW1 5636   0.239   2.337   7.242
 1692SOL    HW2 5637   0.145   2.454   7.259
 1693SOL     OW 5638   1.376   2.802   7.245
 1693SOL    HW1 5639   1.398   2.895   7.244
 1693SOL    HW2 5640   1.374   2.777   7.153
 1694SOL     OW 5641   0.816   2.431   5.945
 1694SOL    HW1 5642   0.820   2.356   5.885
 1694SOL    HW2 5643   0.742   2.483   5.913
 1695SOL     OW 5644   1.642   2.463   6.773
 1695SOL    HW1 5645   1.631   2.404   6.847
 1695SOL    HW2 5646   1.729   2.443   6.738
 1696SOL     OW 5647   0.256   3.418   7.322
 1696SOL    HW1 5648   0.233   3.479   7.392
 1696SOL    HW2 5649   0.249   3.332   7.362
 1697SOL     OW 5650   0.699   2.313   6.847
 1697SOL    HW1 5651   0.647   2.239   6.816
 1697SOL    HW2 5652   0.696   2.376   6.774
 1698SOL     OW 5653   0.929   3.541   7.053
 1698SOL    HW1 5654   0.902   3.508   6.967
 1698SOL    HW2 5655   0.925   3.636   7.044
 1699SOL     OW 5656   0.465   2.355   5.772
 1699SOL    HW1 5657   0.525   2.427   5.793
 1699SOL    HW2 5658   0.380   2.397   5.761
 1700SOL     OW 5659   0.148   2.999   7.057
 1700SOL    HW1 5660   0.147   2.950   7.139
 1700SOL    HW2 5661   0.161   2.933   6.989
 1701SOL     OW 5662   1.327   2.909   6.810
 1701SOL    HW1 5663   1.350   2.846   6.742
 1701SOL    HW2 5664   1.256   2.961   6.771
 1702SOL     OW 5665   1.311   2.718   5.892
 1702SOL    HW1 5666   1.234   2.689   5.942
 1702SOL    HW2 5667   1.286   2.705   5.801
 1703SOL     OW 5668   1.770   3.607   6.735
 1703SOL    HW1 5669   1.831   3.633   6.666
 1703SOL    HW2 5670   1.747   3.517   6.714
 1704SOL     OW 5671   1.241   3.595   6.700
 1704SOL    HW1 5672   1.323   3.615   6.655
 1704SOL    HW2 5673   1.246   3.501   6.718
 1705SOL     OW 5674   0.083   3.081   6.613
 1705SOL    HW1 5675   0.070   3.106   6.705
 1705SOL    HW2 5676   5.294   3.069   6.579
 1706SOL     OW 5677   0.677   3.526   7.313
 1706SOL    HW1 5678   0.624   3.606   7.310
 1706SOL    HW2 5679   0.742   3.538   7.244
 1707SOL     OW 5680   1.720   2.007   6.097
 1707SOL    HW1 5681   1.792   1.993   6.036
 1707SOL    HW2 5682   1.704   1.922   6.136
 1708SOL     OW 5683   1.390   3.430   6.070
 1708SOL    HW1 5684   1.451   3.462   6.003
 1708SOL    HW2 5685   1.342   3.507   6.098
 1709SOL     OW 5686   0.140   3.661   7.429
 1709SOL    HW1 5687   0.089   3.597   7.477
 1709SOL    HW2 5688   0.193   3.705   7.496
 1710SOL     OW 5689   1.277   2.787   6.257
 1710SOL    HW1 5690   1.351   2.726   6.263
 1710SOL    HW2 5691   1.311   2.860   6.205
 1711SOL     OW 5692   0.816   3.134   7.017
 1711SOL    HW1 5693   0.788   3.174   7.099
 1711SOL    HW2 5694   0.746   3.156   6.955
 1712SOL     OW 5695   0.672   3.480   5.741
 1712SOL    HW1 5696   0.682   3.493   5.647
 1712SOL    HW2 5697   0.618   3.402   5.749
 1713SOL     OW 5698   1.628   3.588   6.977
 1713SOL    HW1 5699   1.677   3.596   6.895
 1713SOL    HW2 5700   1.614   3.679   7.005
 1714SOL     OW 5701   1.840   2.035   6.553
 1714SOL    HW1 5702   1.869   1.948   6.525
 1714SOL    HW2 5703   1.754   2.046   6.513
 1715SOL     OW 5704   0.272   2.179   6.304
 1715SOL    HW1 5705   0.188   2.218   6.282
 1715SOL    HW2 5706   0.270   2.168   6.399
 1716SOL     OW 5707   1.207   3.469   5.617
 1716SOL    HW1 5708   1.198   3.377   5.644
 1716SOL    HW2 5709   1.142   3.480   5.548
 1717SOL     OW 5710   0.824   2.868   6.958
 1717SOL    HW1 5711   0.868   2.864   6.873
 1717SOL    HW2 5712   0.824   2.961   6.981
 1718SOL     OW 5713   0.915   2.772   5.876
 1718SOL    HW1 5714   0.976   2.804   5.809
 1718SOL    HW2 5715   0.963   2.703   5.921
 1719SOL     OW 5716   1.493   3.486   5.628
 1719SOL    HW1 5717   1.398   3.481   5.615
 1719SOL    HW2 5718   1.529   3.493   5.540
 1720SOL     OW 5719   0.367   3.166   7.079
 1720SOL    HW1 5720   0.359   3.240   7.020
 1720SOL    HW2 5721   0.292   3.111   7.060
 1721SOL     OW 5722   1.610   3.144   6.867
 1721SOL    HW1 5723   1.671   3.135   6.940
 1721SOL    HW2 5724   1.551   3.214   6.894
 1722SOL     OW 5725   1.051   2.968   6.291
 1722SOL    HW1 5726   0.980   2.917   6.332
 1722SOL    HW2 5727   1.113   2.903   6.260
 1723SOL     OW 5728   1.021   2.102   6.552
 1723SOL    HW1 5729   1.016   2.054   6.469
 1723SOL    HW2 5730   1.015   2.035   6.619
 1724SOL     OW 5731   0.601   3.349   6.067
 1724SOL    HW1 5732   0.645   3.301   5.997
 1724SOL    HW2 5733   0.535   3.402   6.022
 1725SOL     OW 5734   1.721   2.254   6.967
 1725SOL    HW1 5735   1.793   2.318   6.965
 1725SOL    HW2 5736   1.751   2.183   6.910
 1726SOL     OW 5737   0.260   3.210   5.878
 1726SOL    HW1 5738   0.167   3.212   5.855
 1726SOL    HW2 5739   0.264   3.247   5.966
 1727SOL     OW 5740   0.115   2.876   7.303
 1727SOL    HW1 5741   0.044   2.846   7.358
 1727SOL    HW2 5742   0.195   2.846   7.347
 1728SOL     OW 5743   0.673   2.058   7.085
 1728SOL    HW1 5744   0.757   2.039   7.043
 1728SOL    HW2 5745   0.696   2.088   7.173
 1729SOL     OW 5746   0.081   2.214   5.627
 1729SOL    HW1 5747   0.003   2.164   5.603
 1729SOL    HW2 5748   0.098   2.270   5.552
 1730SOL     OW 5749   1.430   2.720   6.987
 1730SOL    HW1 5750   1.382   2.781   6.931
 1730SOL    HW2 5751   1.520   2.723   6.954
 1731SOL     OW 5752   0.055   1.995   5.828
 1731SOL    HW1 5753   0.054   2.091   5.823
 1731SOL    HW2 5754   0.145   1.971   5.809
 1732SOL     OW 5755   1.179   3.202   5.703
 1732SOL    HW1 5756   1.088   3.172   5.706
 1732SOL    HW2 5757   1.208   3.202   5.794
 1733SOL     OW 5758   0.619   2.693   7.021
 1733SOL    HW1 5759   0.675   2.769   7.005
 1733SOL    HW2 5760   0.680   2.620   7.029
 1734SOL     OW 5761   1.484   3.638   6.564
 1734SOL    HW1 5762   1.509   3.696   6.492
 1734SOL    HW2 5763   1.567   3.620   6.609
 1735SOL     OW 5764   0.717   2.426   7.292
 1735SOL    HW1 5765   0.757   2.489   7.352
 1735SOL    HW2 5766   0.748   2.341   7.322
 1736SOL     OW 5767   1.470   3.063   7.218
 1736SOL    HW1 5768   1.458   3.076   7.312
 1736SOL    HW2 5769   1.564   3.077   7.204
 1737SOL     OW 5770   0.379   3.604   7.150
 1737SOL    HW1 5771   0.296   3.649   7.135
 1737SOL    HW2 5772   0.354   3.523   7.195
 1738SOL     OW 5773   1.671   2.743   6.841
 1738SOL    HW1 5774   1.663   2.658   6.798
 1738SOL    HW2 5775   1.661   2.807   6.770
 1739SOL     OW 5776   1.217   2.181   6.044
 1739SOL    HW1 5777   1.281   2.110   6.035
 1739SOL    HW2 5778   1.246   2.230   6.121
 1740SOL     OW 5779   0.591   2.600   6.254
 1740SOL    HW1 5780   0.630   2.686   6.239
 1740SOL    HW2 5781   0.521   2.593   6.189
 1741SOL     OW 5782   1.763   2.223   7.236
 1741SOL    HW1 5783   1.746   2.238   7.144
 1741SOL    HW2 5784   1.692   2.166   7.265
 1742SOL     OW 5785   1.743   2.795   7.099
 1742SOL    HW1 5786   1.744   2.890   7.112
 1742SOL    HW2 5787   1.729   2.785   7.005
 1743SOL     OW 5788   0.862   3.229   5.619
 1743SOL    HW1 5789   0.824   3.258   5.702
 1743SOL    HW2 5790   0.881   3.311   5.572
 1744SOL     OW 5791   0.662   3.656   6.530
 1744SOL    HW1 5792   0.641   3.747   6.508
 1744SOL    HW2 5793   0.758   3.652   6.524
 1745SOL     OW 5794   0.867   2.828   6.441
 1745SOL    HW1 5795   0.917   2.757   6.481
 1745SOL    HW2 5796   0.833   2.878   6.515
 1746SOL     OW 5797   1.078   2.849   5.674
 1746SOL    HW1 5798   1.057   2.901   5.596
 1746SOL    HW2 5799   1.154   2.797   5.649
 1747SOL     OW 5800   1.855   3.417   6.430
 1747SOL    HW1 5801   1.776   3.405   6.376
 1747SOL    HW2 5802   1.848   3.350   6.498
 1748SOL     OW 5803   0.225   3.167   7.445
 1748SOL    HW1 5804   0.155   3.106   7.419
 1748SOL    HW2 5805   0.212   3.178   7.539
 1749SOL     OW 5806   0.087   3.083   6.241
 1749SOL    HW1 5807   0.099   3.051   6.330
 1749SOL    HW2 5808   0.172   3.074   6.200
 1750SOL     OW 5809   0.680   3.263   7.213
 1750SOL    HW1 5810   0.600   3.222   7.243
 1750SOL    HW2 5811   0.677   3.352   7.249
 1751SOL     OW 5812   1.814   2.047   6.824
 1751SOL    HW1 5813   1.823   1.953   6.838
 1751SOL    HW2 5814   1.823   2.057   6.729
 1752SOL     OW 5815   0.434   2.298   6.110
 1752SOL    HW1 5816   0.462   2.225   6.054
 1752SOL    HW2 5817   0.387   2.256   6.182
 1753SOL     OW 5818   1.701   3.352   6.684
 1753SOL    HW1 5819   1.620   3.328   6.639
 1753SOL    HW2 5820   1.714   3.283   6.748
 1754SOL     OW 5821   0.335   2.420   6.877
 1754SOL    HW1 5822   0.389   2.361   6.930
 1754SOL    HW2 5823   0.350   2.391   6.787
 1755SOL     OW 5824   0.828   3.439   6.264
 1755SOL    HW1 5825   0.817   3.492   6.185
 1755SOL    HW2 5826   0.750   3.383   6.267
 1756SOL     OW 5827   1.432   2.087   6.704
 1756SOL    HW1 5828   1.458   2.007   6.751
 1756SOL    HW2 5829   1.380   2.136   6.768
 1757SOL     OW 5830   1.009   1.881   6.729
 1757SOL    HW1 5831   0.954   1.813   6.690
 1757SOL    HW2 5832   1.097   1.843   6.731
 1758SOL     OW 5833   0.771   3.194   5.900
 1758SOL    HW1 5834   0.741   3.104   5.906
 1758SOL    HW2 5835   0.854   3.195   5.949
 1759SOL     OW 5836   0.622   3.419   6.873
 1759SOL    HW1 5837   0.624   3.501   6.922
 1759SOL    HW2 5838   0.709   3.413   6.833
 1760SOL     OW 5839   1.352   1.916   5.751
 1760SOL    HW1 5840   1.380   1.853   5.684
 1760SOL    HW2 5841   1.265   1.886   5.777
 1761SOL     OW 5842   1.296   2.322   6.267
 1761SOL    HW1 5843   1.243   2.402   6.275
 1761SOL    HW2 5844   1.293   2.283   6.354
 1762SOL     OW 5845   1.587   2.065   6.464
 1762SOL    HW1 5846   1.525   2.085   6.534
 1762SOL    HW2 5847   1.586   2.143   6.408
 1763SOL     OW 5848   0.047   2.931   5.876
 1763SOL    HW1 5849   0.137   2.900   5.865
 1763SOL    HW2 5850   5.300   2.855   5.911
 1764SOL     OW 5851   0.884   3.513   5.929
 1764SOL    HW1 5852   0.811   3.497   5.868
 1764SOL    HW2 5853   0.856   3.589   5.980
 1765SOL     OW 5854   0.230   2.493   7.566
 1765SOL    HW1 5855   0.154   2.455   7.610
 1765SOL    HW2 5856   0.223   2.463   7.475
 1766SOL     OW 5857   1.767   2.461   7.680
 1766SOL    HW1 5858   1.748   2.456   7.586
 1766SOL    HW2 5859   1.725   2.383   7.716
 1767SOL     OW 5860   0.229   3.571   7.920
 1767SOL    HW1 5861   0.264   3.614   7.998
 1767SOL    HW2 5862   0.299   3.575   7.856
 1768SOL     OW 5863   0.217   3.298   7.990
 1768SOL    HW1 5864   0.208   3.393   7.985
 1768SOL    HW2 5865   0.154   3.271   8.057
 1769SOL     OW 5866   0.585   2.845   7.580
 1769SOL    HW1 5867   0.629   2.894   7.511
 1769SOL    HW2 5868   0.626   2.875   7.661
 1770SOL     OW 5869   1.836   3.622   7.798
 1770SOL    HW1 5870   1.907   3.591   7.855
 1770SOL    HW2 5871   1.863   3.710   7.772
 1771SOL     OW 5872   0.036   3.463   7.581
 1771SOL    HW1 5873   0.027   3.370   7.602
 1771SOL    HW2 5874   5.278   3.507   7.643
 1772SOL     OW 5875   1.682   2.730   8.037
 1772SOL    HW1 5876   1.765   2.741   0.004
 1772SOL    HW2 5877   1.670   2.813   7.990
 1773SOL     OW 5878   1.655   2.961   7.876
 1773SOL    HW1 5879   1.742   2.986   7.845
 1773SOL    HW2 5880   1.628   3.032   7.934
 1774SOL     OW 5881   0.800   1.856   7.938
 1774SOL    HW1 5882   0.849   1.937   7.923
 1774SOL    HW2 5883   0.709   1.885   7.949
 1775SOL     OW 5884   1.532   2.856   7.648
 1775SOL    HW1 5885   1.466   2.796   7.682
 1775SOL    HW2 5886   1.576   2.891   7.726
 1776SOL     OW 5887   0.589   2.586   7.708
 1776SOL    HW1 5888   0.598   2.667   7.657
 1776SOL    HW2 5889   0.533   2.609   7.781
 1777SOL     OW 5890   1.575   3.533   7.757
 1777SOL    HW1 5891   1.665   3.562   7.766
 1777SOL    HW2 5892   1.563   3.519   7.663
 1778SOL     OW 5893   0.058   2.685   0.204
 1778SOL    HW1 5894   0.124   2.626   0.169
 1778SOL    HW2 5895   0.031   2.738   0.130
 1779SOL     OW 5896   0.880   2.208   7.636
 1779SOL    HW1 5897   0.926   2.269   7.579
 1779SOL    HW2 5898   0.915   2.122   7.614
 1780SOL     OW 5899   0.319   2.810   7.694
 1780SOL    HW1 5900   0.399   2.838   7.650
 1780SOL    HW2 5901   0.295   2.727   7.652
 1781SOL     OW 5902   1.123   3.638   7.682
 1781SOL    HW1 5903   1.047   3.597   7.724
 1781SOL    HW2 5904   1.146   3.578   7.611
 1782SOL     OW 5905   1.628   3.242   7.533
 1782SOL    HW1 5906   1.587   3.327   7.520
 1782SOL    HW2 5907   1.559   3.178   7.515
 1783SOL     OW 5908   0.470   3.599   7.769
 1783SOL    HW1 5909   0.515   3.653   7.834
 1783SOL    HW2 5910   0.539   3.566   7.713
 1784SOL     OW 5911   1.415   1.992   7.864
 1784SOL    HW1 5912   1.402   1.958   7.776
 1784SOL    HW2 5913   1.510   1.990   7.878
 1785SOL     OW 5914   0.379   2.562   7.923
 1785SOL    HW1 5915   0.401   2.469   7.926
 1785SOL    HW2 5916   0.286   2.566   7.941
 1786SOL     OW 5917   0.626   1.981   7.560
 1786SOL    HW1 5918   0.704   1.927   7.568
 1786SOL    HW2 5919   0.584   1.951   7.479
 1787SOL     OW 5920   0.527   1.936   7.960
 1787SOL    HW1 5921   0.441   1.941   8.001
 1787SOL    HW2 5922   0.528   2.006   7.896
 1788SOL     OW 5923   1.428   3.059   7.489
 1788SOL    HW1 5924   1.459   2.986   7.541
 1788SOL    HW2 5925   1.344   3.083   7.528
 1789SOL     OW 5926   0.306   1.906   7.620
 1789SOL    HW1 5927   0.368   1.970   7.585
 1789SOL    HW2 5928   0.360   1.843   7.667
 1790SOL     OW 5929   0.944   2.087   7.911
 1790SOL    HW1 5930   0.899   2.153   7.857
 1790SOL    HW2 5931   1.035   2.117   7.914
 1791SOL     OW 5932   0.448   3.020   0.091
 1791SOL    HW1 5933   0.375   3.040   0.150
 1791SOL    HW2 5934   0.405   3.002   0.007
 1792SOL     OW 5935   1.290   3.672   8.014
 1792SOL    HW1 5936   1.325   3.742   7.958
 1792SOL    HW2 5937   1.208   3.708   8.048
 1793SOL     OW 5938   1.026   2.405   7.466
 1793SOL    HW1 5939   0.982   2.488   7.449
 1793SOL    HW2 5940   1.087   2.425   7.537
 1794SOL     OW 5941   1.866   2.681   7.801
 1794SOL    HW1 5942   1.875   2.647   7.890
 1794SOL    HW2 5943   1.828   2.609   7.751
 1795SOL     OW 5944   0.491   3.276   7.606
 1795SOL    HW1 5945   0.415   3.248   7.659
 1795SOL    HW2 5946   0.471   3.245   7.518
 1796SOL     OW 5947   1.394   2.434   7.519
 1796SOL    HW1 5948   1.333   2.414   7.590
 1796SOL    HW2 5949   1.478   2.401   7.549
 1797SOL     OW 5950   0.527   2.127   7.771
 1797SOL    HW1 5951   0.569   2.077   7.702
 1797SOL    HW2 5952   0.504   2.211   7.729
 1798SOL     OW 5953   0.709   2.922   7.814
 1798SOL    HW1 5954   0.693   2.913   7.908
 1798SOL    HW2 5955   0.788   2.870   7.798
 1799SOL     OW 5956   0.347   2.956   7.929
 1799SOL    HW1 5957   0.347   3.040   7.884
 1799SOL    HW2 5958   0.350   2.891   7.859
 1800SOL     OW 5959   1.225   3.218   7.821
 1800SOL    HW1 5960   1.288   3.285   7.846
 1800SOL    HW2 5961   1.182   3.193   7.903
 1801SOL     OW 5962   1.588   2.491   7.921
 1801SOL    HW1 5963   1.572   2.550   7.995
 1801SOL    HW2 5964   1.628   2.546   7.854
 1802SOL     OW 5965   1.204   2.388   7.715
 1802SOL    HW1 5966   1.206   2.305   7.763
 1802SOL    HW2 5967   1.182   2.454   7.781
 1803SOL     OW 5968   1.617   2.240   7.815
 1803SOL    HW1 5969   1.639   2.174   7.880
 1803SOL    HW2 5970   1.593   2.317   7.866
 1804SOL     OW 5971   1.530   2.136   7.575
 1804SOL    HW1 5972   1.465   2.071   7.601
 1804SOL    HW2 5973   1.563   2.172   7.658
 1805SOL     OW 5974   1.294   2.690   7.481
 1805SOL    HW1 5975   1.336   2.603   7.483
 1805SOL    HW2 5976   1.325   2.730   7.400
 1806SOL     OW 5977   0.003   3.195   7.656
 1806SOL    HW1 5978   5.220   3.193   7.608
 1806SOL    HW2 5979   0.013   3.107   7.691
 1807SOL     OW 5980   0.837   2.458   7.764
 1807SOL    HW1 5981   0.828   2.368   7.734
 1807SOL    HW2 5982   0.747   2.492   7.763
 1808SOL     OW 5983   0.463   2.355   7.639
 1808SOL    HW1 5984   0.523   2.427   7.654
 1808SOL    HW2 5985   0.378   2.397   7.625
 1809SOL     OW 5986   1.310   2.710   7.755
 1809SOL    HW1 5987   1.223   2.719   7.794
 1809SOL    HW2 5988   1.294   2.702   7.661
 1810SOL     OW 5989   1.712   2.008   7.949
 1810SOL    HW1 5990   1.790   1.999   7.893
 1810SOL    HW2 5991   1.713   1.929   8.004
 1811SOL     OW 5992   1.365   3.438   7.897
 1811SOL    HW1 5993   1.439   3.459   7.841
 1811SOL    HW2 5994   1.333   3.523   7.927
 1812SOL     OW 5995   0.668   3.481   7.604
 1812SOL    HW1 5996   0.680   3.492   7.509
 1812SOL    HW2 5997   0.616   3.401   7.612
 1813SOL     OW 5998   1.208   3.469   7.478
 1813SOL    HW1 5999   1.199   3.378   7.506
 1813SOL    HW2 6000   1.142   3.481   7.410
 1814SOL     OW 6001   0.925   2.773   7.754
 1814SOL    HW1 6002   0.979   2.798   7.679
 1814SOL    HW2 6003   0.923   2.677   7.752
 1815SOL     OW 6004   1.494   3.488   7.488
 1815SOL    HW1 6005   1.399   3.481   7.477
 1815SOL    HW2 6006   1.529   3.493   7.399
 1816SOL     OW 6007   0.604   3.367   7.936
 1816SOL    HW1 6008   0.648   3.307   7.876
 1816SOL    HW2 6009   0.534   3.405   7.884
 1817SOL     OW 6010   0.260   3.209   7.741
 1817SOL    HW1 6011   0.167   3.213   7.717
 1817SOL    HW2 6012   0.263   3.245   7.830
 1818SOL     OW 6013   0.080   2.205   7.488
 1818SOL    HW1 6014   5.297   2.164   7.462
 1818SOL    HW2 6015   0.099   2.267   7.418
 1819SOL     OW 6016   0.081   1.998   7.737
 1819SOL    HW1 6017   0.066   2.086   7.702
 1819SOL    HW2 6018   0.154   1.964   7.685
 1820SOL     OW 6019   1.177   3.201   7.556
 1820SOL    HW1 6020   1.085   3.176   7.558
 1820SOL    HW2 6021   1.202   3.207   7.649
 1821SOL     OW 6022   1.215   2.180   7.904
 1821SOL    HW1 6023   1.288   2.119   7.892
 1821SOL    HW2 6024   1.237   2.228   7.984
 1822SOL     OW 6025   0.622   2.599   8.051
 1822SOL    HW1 6026   0.629   2.680   0.023
 1822SOL    HW2 6027   0.531   2.598   8.021
 1823SOL     OW 6028   0.862   3.229   7.481
 1823SOL    HW1 6029   0.824   3.258   7.564
 1823SOL    HW2 6030   0.882   3.311   7.434
 1824SOL     OW 6031   1.073   2.841   7.537
 1824SOL    HW1 6032   1.054   2.898   7.463
 1824SOL    HW2 6033   1.152   2.793   7.511
 1825SOL     OW 6034   0.393   2.292   7.978
 1825SOL    HW1 6035   0.438   2.234   7.917
 1825SOL    HW2 6036   0.434   2.275   8.063
 1826SOL     OW 6037   0.766   3.197   7.760
 1826SOL    HW1 6038   0.735   3.106   7.762
 1826SOL    HW2 6039   0.847   3.196   7.810
 1827SOL     OW 6040   1.352   1.915   7.610
 1827SOL    HW1 6041   1.380   1.850   7.546
 1827SOL    HW2 6042   1.266   1.884   7.638
 1828SOL     OW 6043   0.048   2.932   7.722
 1828SOL    HW1 6044   0.137   2.899   7.722
 1828SOL    HW2 6045   5.300   2.872   7.778
 1829SOL     OW 6046   0.892   3.513   7.781
 1829SOL    HW1 6047   0.816   3.489   7.728
 1829SOL    HW2 6048   0.859   3.576   7.845
 1830SOL     OW 6049   0.227   4.349   0.113
 1830SOL    HW1 6050   0.155   4.311   0.164
 1830SOL    HW2 6051   0.231   4.294   0.034
 1831SOL     OW 6052   0.241   3.999   0.989
 1831SOL    HW1 6053   0.255   3.966   1.078
 1831SOL    HW2 6054   0.157   3.961   0.963
 1832SOL     OW 6055   5.297   4.120   0.649
 1832SOL    HW1 6056   5.206   4.147   0.659
 1832SOL    HW2 6057   5.291   4.027   0.627
 1833SOL     OW 6058   0.572   4.999   1.182
 1833SOL    HW1 6059   0.493   5.005   1.128
 1833SOL    HW2 6060   0.591   5.089   1.209
 1834SOL     OW 6061   1.555   5.233   0.688
 1834SOL    HW1 6062   1.531   5.229   0.781
 1834SOL    HW2 6063   1.478   5.268   0.644
 1835SOL     OW 6064   1.130   4.422   0.702
 1835SOL    HW1 6065   1.179   4.503   0.688
 1835SOL    HW2 6066   1.083   4.437   0.784
 1836SOL     OW 6067   1.769   4.325   0.233
 1836SOL    HW1 6068   1.732   4.324   0.145
 1836SOL    HW2 6069   1.729   4.249   0.276
 1837SOL     OW 6070   0.759   4.868   1.036
 1837SOL    HW1 6071   0.691   4.897   1.097
 1837SOL    HW2 6072   0.787   4.948   0.991
 1838SOL     OW 6073   0.865   4.501   1.822
 1838SOL    HW1 6074   0.854   4.573   1.884
 1838SOL    HW2 6075   0.889   4.543   1.739
 1839SOL     OW 6076   0.684   4.726   0.651
 1839SOL    HW1 6077   0.750   4.715   0.720
 1839SOL    HW2 6078   0.617   4.781   0.691
 1840SOL     OW 6079   0.708   4.873   1.811
 1840SOL    HW1 6080   0.756   4.952   1.835
 1840SOL    HW2 6081   0.624   4.905   1.776
 1841SOL     OW 6082   0.377   5.145   1.053
 1841SOL    HW1 6083   0.282   5.153   1.040
 1841SOL    HW2 6084   0.415   5.200   0.984
 1842SOL     OW 6085   1.455   5.220   1.347
 1842SOL    HW1 6086   1.509   5.293   1.379
 1842SOL    HW2 6087   1.389   5.208   1.415
 1843SOL     OW 6088   0.450   4.124   1.494
 1843SOL    HW1 6089   0.524   4.063   1.495
 1843SOL    HW2 6090   0.373   4.068   1.502
 1844SOL     OW 6091   1.612   4.172   0.740
 1844SOL    HW1 6092   1.537   4.196   0.687
 1844SOL    HW2 6093   1.628   4.249   0.794
 1845SOL     OW 6094   1.133   5.072   1.700
 1845SOL    HW1 6095   1.164   5.072   1.790
 1845SOL    HW2 6096   1.080   4.993   1.693
 1846SOL     OW 6097   0.210   5.150   0.529
 1846SOL    HW1 6098   0.250   5.230   0.563
 1846SOL    HW2 6099   0.131   5.139   0.582
 1847SOL     OW 6100   0.253   4.801   0.877
 1847SOL    HW1 6101   0.262   4.713   0.916
 1847SOL    HW2 6102   0.196   4.848   0.938
 1848SOL     OW 6103   0.623   4.685   0.134
 1848SOL    HW1 6104   0.579   4.764   0.106
 1848SOL    HW2 6105   0.676   4.712   0.210
 1849SOL     OW 6106   1.596   3.847   1.469
 1849SOL    HW1 6107   1.601   3.927   1.417
 1849SOL    HW2 6108   1.583   3.877   1.558
 1850SOL     OW 6109   0.132   4.355   0.581
 1850SOL    HW1 6110   0.086   4.275   0.608
 1850SOL    HW2 6111   0.100   4.422   0.641
 1851SOL     OW 6112   0.015   5.296   0.071
 1851SOL    HW1 6113   0.022   5.211   0.115
 1851SOL    HW2 6114   0.042   0.059   0.137
 1852SOL     OW 6115   1.687   4.642   0.642
 1852SOL    HW1 6116   1.771   4.601   0.621
 1852SOL    HW2 6117   1.666   4.694   0.564
 1853SOL     OW 6118   1.646   4.830   0.434
 1853SOL    HW1 6119   1.727   4.843   0.385
 1853SOL    HW2 6120   1.652   4.891   0.507
 1854SOL     OW 6121   0.130   4.471   1.587
 1854SOL    HW1 6122   0.224   4.486   1.590
 1854SOL    HW2 6123   0.091   4.558   1.598
 1855SOL     OW 6124   0.626   5.096   0.734
 1855SOL    HW1 6125   0.569   5.019   0.735
 1855SOL    HW2 6126   0.601   5.145   0.657
 1856SOL     OW 6127   1.289   4.955   1.426
 1856SOL    HW1 6128   1.324   4.889   1.365
 1856SOL    HW2 6129   1.348   4.952   1.501
 1857SOL     OW 6130   0.822   3.725   0.511
 1857SOL    HW1 6131   0.861   3.810   0.490
 1857SOL    HW2 6132   0.728   3.742   0.517
 1858SOL     OW 6133   0.177   4.668   1.281
 1858SOL    HW1 6134   0.267   4.639   1.267
 1858SOL    HW2 6135   0.134   4.654   1.197
 1859SOL     OW 6136   1.511   4.733   0.209
 1859SOL    HW1 6137   1.450   4.666   0.241
 1859SOL    HW2 6138   1.563   4.756   0.286
 1860SOL     OW 6139   0.335   3.977   1.815
 1860SOL    HW1 6140   0.382   4.059   1.827
 1860SOL    HW2 6141   0.248   3.994   1.851
 1861SOL     OW 6142   1.476   5.146   0.963
 1861SOL    HW1 6143   1.403   5.159   1.023
 1861SOL    HW2 6144   1.464   5.057   0.928
 1862SOL     OW 6145   0.596   4.438   0.279
 1862SOL    HW1 6146   0.618   4.517   0.230
 1862SOL    HW2 6147   0.535   4.467   0.346
 1863SOL     OW 6148   1.279   4.075   0.932
 1863SOL    HW1 6149   1.190   4.042   0.941
 1863SOL    HW2 6150   1.330   4.022   0.994
 1864SOL     OW 6151   0.792   4.341   1.452
 1864SOL    HW1 6152   0.765   4.318   1.541
 1864SOL    HW2 6153   0.751   4.275   1.396
 1865SOL     OW 6154   1.394   4.198   1.678
 1865SOL    HW1 6155   1.396   4.242   1.763
 1865SOL    HW2 6156   1.455   4.125   1.687
 1866SOL     OW 6157   0.956   4.612   1.582
 1866SOL    HW1 6158   1.010   4.541   1.547
 1866SOL    HW2 6159   0.908   4.646   1.506
 1867SOL     OW 6160   0.992   4.136   1.239
 1867SOL    HW1 6161   0.907   4.159   1.277
 1867SOL    HW2 6162   0.971   4.090   1.158
 1868SOL     OW 6163   1.052   4.423   0.427
 1868SOL    HW1 6164   1.067   4.416   0.522
 1868SOL    HW2 6165   0.969   4.376   0.413
 1869SOL     OW 6166   0.068   4.511   0.818
 1869SOL    HW1 6167   0.153   4.516   0.862
 1869SOL    HW2 6168   0.061   4.594   0.771
 1870SOL     OW 6169   0.884   4.081   0.201
 1870SOL    HW1 6170   0.929   4.130   0.132
 1870SOL    HW2 6171   0.884   3.990   0.170
 1871SOL     OW 6172   1.709   4.299   1.828
 1871SOL    HW1 6173   1.671   4.373   1.781
 1871SOL    HW2 6174   1.736   4.238   1.759
 1872SOL     OW 6175   1.376   4.864   0.540
 1872SOL    HW1 6176   1.456   4.850   0.490
 1872SOL    HW2 6177   1.325   4.926   0.488
 1873SOL     OW 6178   0.554   3.908   0.893
 1873SOL    HW1 6179   0.552   3.935   0.985
 1873SOL    HW2 6180   0.552   3.990   0.844
 1874SOL     OW 6181   1.020   5.165   0.469
 1874SOL    HW1 6182   0.945   5.224   0.465
 1874SOL    HW2 6183   1.039   5.157   0.563
 1875SOL     OW 6184   1.800   4.781   0.866
 1875SOL    HW1 6185   1.742   4.764   0.792
 1875SOL    HW2 6186   1.741   4.788   0.942
 1876SOL     OW 6187   1.250   5.239   1.523
 1876SOL    HW1 6188   1.213   5.173   1.582
 1876SOL    HW2 6189   1.179   5.258   1.461
 1877SOL     OW 6190   0.328   4.673   0.245
 1877SOL    HW1 6191   0.412   4.687   0.200
 1877SOL    HW2 6192   0.316   4.579   0.245
 1878SOL     OW 6193   1.477   4.464   0.727
 1878SOL    HW1 6194   1.468   4.421   0.812
 1878SOL    HW2 6195   1.554   4.521   0.737
 1879SOL     OW 6196   0.463   4.988   1.742
 1879SOL    HW1 6197   0.437   4.991   1.650
 1879SOL    HW2 6198   0.380   4.988   1.790
 1880SOL     OW 6199   1.156   0.161   0.237
 1880SOL    HW1 6200   1.072   0.175   0.280
 1880SOL    HW2 6201   1.134   0.142   0.146
 1881SOL     OW 6202   0.205   4.006   1.497
 1881SOL    HW1 6203   0.126   4.057   1.481
 1881SOL    HW2 6204   0.174   3.928   1.544
 1882SOL     OW 6205   1.630   5.095   0.076
 1882SOL    HW1 6206   1.592   5.181   0.092
 1882SOL    HW2 6207   1.555   5.037   0.062
 1883SOL     OW 6208   1.407   3.835   0.443
 1883SOL    HW1 6209   1.397   3.814   0.350
 1883SOL    HW2 6210   1.501   3.842   0.456
 1884SOL     OW 6211   0.382   4.423   0.476
 1884SOL    HW1 6212   0.414   4.333   0.485
 1884SOL    HW2 6213   0.290   4.419   0.501
 1885SOL     OW 6214   1.536   3.949   1.725
 1885SOL    HW1 6215   1.545   3.970   1.818
 1885SOL    HW2 6216   1.467   3.883   1.722
 1886SOL     OW 6217   0.628   3.835   0.136
 1886SOL    HW1 6218   0.723   3.823   0.141
 1886SOL    HW2 6219   0.607   3.816   0.044
 1887SOL     OW 6220   0.767   4.002   1.753
 1887SOL    HW1 6221   0.842   3.942   1.756
 1887SOL    HW2 6222   0.718   3.982   1.833
 1888SOL     OW 6223   1.341   4.312   1.432
 1888SOL    HW1 6224   1.371   4.281   1.517
 1888SOL    HW2 6225   1.377   4.401   1.424
 1889SOL     OW 6226   0.813   5.121   0.935
 1889SOL    HW1 6227   0.893   5.105   0.886
 1889SOL    HW2 6228   0.744   5.126   0.868
 1890SOL     OW 6229   0.928   4.233   0.903
 1890SOL    HW1 6230   0.904   4.225   0.810
 1890SOL    HW2 6231   0.959   4.146   0.928
 1891SOL     OW 6232   0.560   3.786   0.500
 1891SOL    HW1 6233   0.485   3.786   0.560
 1891SOL    HW2 6234   0.549   3.865   0.448
 1892SOL     OW 6235   1.426   4.925   0.036
 1892SOL    HW1 6236   1.456   4.851   0.089
 1892SOL    HW2 6237   1.340   4.946   0.071
 1893SOL     OW 6238   0.313   3.769   0.173
 1893SOL    HW1 6239   0.376   3.841   0.178
 1893SOL    HW2 6240   0.357   3.696   0.218
 1894SOL     OW 6241   0.940   3.971   0.460
 1894SOL    HW1 6242   0.912   4.012   0.378
 1894SOL    HW2 6243   1.034   3.987   0.463
 1895SOL     OW 6244   1.080   4.404   1.460
 1895SOL    HW1 6245   1.010   4.338   1.464
 1895SOL    HW2 6246   1.160   4.353   1.453
 1896SOL     OW 6247   1.263   5.266   0.781
 1896SOL    HW1 6248   1.225   0.047   0.747
 1896SOL    HW2 6249   1.306   5.292   0.862
 1897SOL     OW 6250   0.465   4.873   0.730
 1897SOL    HW1 6251   0.397   4.853   0.794
 1897SOL    HW2 6252   0.425   4.855   0.645
 1898SOL     OW 6253   1.033   4.254   0.029
 1898SOL    HW1 6254   0.989   4.335   0.001
 1898SOL    HW2 6255   1.094   4.283   0.097
 1899SOL     OW 6256   0.087   4.270   1.398
 1899SOL    HW1 6257   0.175   4.277   1.361
 1899SOL    HW2 6258   0.079   4.346   1.455
 1900SOL     OW 6259   0.560   3.951   1.165
 1900SOL    HW1 6260   0.598   3.871   1.202
 1900SOL    HW2 6261   0.469   3.950   1.193
 1901SOL     OW 6262   0.868   4.183   0.639
 1901SOL    HW1 6263   0.824   4.238   0.574
 1901SOL    HW2 6264   0.889   4.102   0.592
 1902SOL     OW 6265   1.016   3.776   0.751
 1902SOL    HW1 6266   0.956   3.769   0.677
 1902SOL    HW2 6267   0.994   3.701   0.806
 1903SOL     OW 6268   1.437   4.889   0.859
 1903SOL    HW1 6269   1.370   4.821   0.855
 1903SOL    HW2 6270   1.461   4.904   0.767
 1904SOL     OW 6271   1.467   4.328   0.978
 1904SOL    HW1 6272   1.417   4.247   0.982
 1904SOL    HW2 6273   1.527   4.323   1.052
 1905SOL     OW 6274   1.849   4.540   0.388
 1905SOL    HW1 6275   1.900   4.486   0.448
 1905SOL    HW2 6276   1.817   4.478   0.322
 1906SOL     OW 6277   0.474   5.158   0.159
 1906SOL    HW1 6278   0.421   5.107   0.220
 1906SOL    HW2 6279   0.500   5.096   0.091
 1907SOL     OW 6280   1.669   4.988   0.648
 1907SOL    HW1 6281   1.763   4.995   0.666
 1907SOL    HW2 6282   1.635   5.076   0.665
 1908SOL     OW 6283   1.398   4.304   0.087
 1908SOL    HW1 6284   1.336   4.284   0.157
 1908SOL    HW2 6285   1.455   4.227   0.083
 1909SOL     OW 6286   0.516   3.987   0.324
 1909SOL    HW1 6287   0.565   3.935   0.260
 1909SOL    HW2 6288   0.502   4.071   0.280
 1910SOL     OW 6289   1.752   4.959   1.577
 1910SOL    HW1 6290   1.838   4.918   1.576
 1910SOL    HW2 6291   1.770   5.052   1.590
 1911SOL     OW 6292   1.065   5.075   1.332
 1911SOL    HW1 6293   0.986   5.049   1.380
 1911SOL    HW2 6294   1.137   5.035   1.380
 1912SOL     OW 6295   1.126   4.926   1.108
 1912SOL    HW1 6296   1.074   4.967   1.177
 1912SOL    HW2 6297   1.082   4.952   1.027
 1913SOL     OW 6298   1.630   4.823   1.077
 1913SOL    HW1 6299   1.625   4.884   1.150
 1913SOL    HW2 6300   1.551   4.841   1.025
 1914SOL     OW 6301   0.919   3.821   1.398
 1914SOL    HW1 6302   0.940   3.803   1.306
 1914SOL    HW2 6303   0.998   3.861   1.434
 1915SOL     OW 6304   0.984   4.839   1.725
 1915SOL    HW1 6305   0.892   4.855   1.743
 1915SOL    HW2 6306   0.985   4.762   1.667
 1916SOL     OW 6307   0.707   4.780   0.381
 1916SOL    HW1 6308   0.694   4.766   0.475
 1916SOL    HW2 6309   0.788   4.733   0.361
 1917SOL     OW 6310   0.421   4.542   1.251
 1917SOL    HW1 6311   0.489   4.549   1.318
 1917SOL    HW2 6312   0.385   4.454   1.263
 1918SOL     OW 6313   1.266   4.101   1.274
 1918SOL    HW1 6314   1.298   4.179   1.320
 1918SOL    HW2 6315   1.176   4.123   1.251
 1919SOL     OW 6316   0.113   5.289   1.319
 1919SOL    HW1 6317   0.053   0.051   1.359
 1919SOL    HW2 6318   0.190   5.289   1.376
 1920SOL     OW 6319   0.347   4.828   0.488
 1920SOL    HW1 6320   0.343   4.907   0.434
 1920SOL    HW2 6321   0.360   4.757   0.426
 1921SOL     OW 6322   0.555   4.260   0.859
 1921SOL    HW1 6323   0.571   4.319   0.785
 1921SOL    HW2 6324   0.618   4.287   0.925
 1922SOL     OW 6325   1.258   5.072   0.386
 1922SOL    HW1 6326   1.312   5.146   0.412
 1922SOL    HW2 6327   1.169   5.096   0.413
 1923SOL     OW 6328   1.268   5.181   1.142
 1923SOL    HW1 6329   1.328   5.194   1.216
 1923SOL    HW2 6330   1.224   5.099   1.160
 1924SOL     OW 6331   1.583   4.348   0.480
 1924SOL    HW1 6332   1.534   4.399   0.545
 1924SOL    HW2 6333   1.619   4.414   0.421
 1925SOL     OW 6334   0.381   5.232   1.316
 1925SOL    HW1 6335   0.362   5.192   1.231
 1925SOL    HW2 6336   0.473   5.256   1.312
 1926SOL     OW 6337   0.413   4.467   1.602
 1926SOL    HW1 6338   0.474   4.513   1.544
 1926SOL    HW2 6339   0.453   4.381   1.615
 1927SOL     OW 6340   1.600   4.502   1.681
 1927SOL    HW1 6341   1.514   4.543   1.674
 1927SOL    HW2 6342   1.653   4.544   1.613
 1928SOL     OW 6343   0.996   3.845   1.756
 1928SOL    HW1 6344   1.050   3.918   1.726
 1928SOL    HW2 6345   1.045   3.767   1.730
 1929SOL     OW 6346   0.497   3.766   1.747
 1929SOL    HW1 6347   0.456   3.712   1.680
 1929SOL    HW2 6348   0.437   3.839   1.759
 1930SOL     OW 6349   0.586   4.597   1.032
 1930SOL    HW1 6350   0.613   4.688   1.029
 1930SOL    HW2 6351   0.529   4.591   1.109
 1931SOL     OW 6352   1.359   4.582   1.030
 1931SOL    HW1 6353   1.276   4.573   0.983
 1931SOL    HW2 6354   1.398   4.495   1.025
 1932SOL     OW 6355   1.204   4.252   0.271
 1932SOL    HW1 6356   1.212   4.173   0.325
 1932SOL    HW2 6357   1.161   4.316   0.328
 1933SOL     OW 6358   0.302   3.928   1.248
 1933SOL    HW1 6359   0.267   3.953   1.333
 1933SOL    HW2 6360   0.289   3.833   1.243
 1934SOL     OW 6361   0.044   5.022   1.277
 1934SOL    HW1 6362   0.075   4.972   1.353
 1934SOL    HW2 6363   0.045   5.113   1.306
 1935SOL     OW 6364   0.725   4.355   1.059
 1935SOL    HW1 6365   0.799   4.339   1.000
 1935SOL    HW2 6366   0.697   4.444   1.038
 1936SOL     OW 6367   1.734   4.684   1.851
 1936SOL    HW1 6368   1.688   4.623   1.794
 1936SOL    HW2 6369   1.674   4.696   1.925
 1937SOL     OW 6370   0.325   3.787   0.635
 1937SOL    HW1 6371   0.309   3.877   0.665
 1937SOL    HW2 6372   0.331   3.736   0.716
 1938SOL     OW 6373   1.620   4.098   0.370
 1938SOL    HW1 6374   1.644   4.034   0.436
 1938SOL    HW2 6375   1.594   4.176   0.420
 1939SOL     OW 6376   1.028   4.483   0.961
 1939SOL    HW1 6377   1.025   4.501   1.055
 1939SOL    HW2 6378   1.001   4.392   0.953
 1940SOL     OW 6379   1.855   5.214   1.586
 1940SOL    HW1 6380   1.851   5.288   1.525
 1940SOL    HW2 6381   1.924   5.237   1.648
 1941SOL     OW 6382   0.354   4.642   1.806
 1941SOL    HW1 6383   0.435   4.660   1.853
 1941SOL    HW2 6384   0.378   4.577   1.740
 1942SOL     OW 6385   1.520   4.023   0.126
 1942SOL    HW1 6386   1.470   3.943   0.142
 1942SOL    HW2 6387   1.559   4.044   0.211
 1943SOL     OW 6388   1.294   4.549   0.020
 1943SOL    HW1 6389   1.333   4.463   0.039
 1943SOL    HW2 6390   1.354   4.588   8.036
 1944SOL     OW 6391   1.059   5.077   0.829
 1944SOL    HW1 6392   1.064   4.993   0.784
 1944SOL    HW2 6393   1.144   5.117   0.814
 1945SOL     OW 6394   0.315   4.533   0.949
 1945SOL    HW1 6395   0.409   4.551   0.946
 1945SOL    HW2 6396   0.309   4.444   0.982
 1946SOL     OW 6397   0.335   4.249   1.015
 1946SOL    HW1 6398   0.300   4.161   1.000
 1946SOL    HW2 6399   0.410   4.254   0.955
 1947SOL     OW 6400   1.134   4.100   1.681
 1947SOL    HW1 6401   1.087   4.155   1.744
 1947SOL    HW2 6402   1.222   4.138   1.677
 1948SOL     OW 6403   1.161   3.927   1.470
 1948SOL    HW1 6404   1.150   3.990   1.541
 1948SOL    HW2 6405   1.200   3.978   1.399
 1949SOL     OW 6406   0.011   5.052   0.196
 1949SOL    HW1 6407   5.220   5.058   0.168
 1949SOL    HW2 6408   0.017   4.968   0.241
 1950SOL     OW 6409   0.984   4.516   1.227
 1950SOL    HW1 6410   1.039   4.493   1.302
 1950SOL    HW2 6411   0.899   4.479   1.248
 1951SOL     OW 6412   0.033   4.277   1.114
 1951SOL    HW1 6413   0.121   4.260   1.083
 1951SOL    HW2 6414   0.038   4.266   1.209
 1952SOL     OW 6415   0.175   4.237   1.712
 1952SOL    HW1 6416   0.241   4.202   1.652
 1952SOL    HW2 6417   0.145   4.318   1.670
 1953SOL     OW 6418   1.376   4.664   1.659
 1953SOL    HW1 6419   1.397   4.757   1.656
 1953SOL    HW2 6420   1.373   4.637   1.566
 1954SOL     OW 6421   0.818   4.294   0.365
 1954SOL    HW1 6422   0.827   4.222   0.302
 1954SOL    HW2 6423   0.742   4.342   0.334
 1955SOL     OW 6424   1.642   4.325   1.187
 1955SOL    HW1 6425   1.632   4.266   1.261
 1955SOL    HW2 6426   1.729   4.305   1.152
 1956SOL     OW 6427   0.210   5.280   1.732
 1956SOL    HW1 6428   0.178   0.023   1.811
 1956SOL    HW2 6429   0.213   5.187   1.755
 1957SOL     OW 6430   0.700   4.175   1.260
 1957SOL    HW1 6431   0.647   4.101   1.230
 1957SOL    HW2 6432   0.696   4.238   1.188
 1958SOL     OW 6433   0.467   4.214   0.181
 1958SOL    HW1 6434   0.532   4.281   0.201
 1958SOL    HW2 6435   0.383   4.259   0.184
 1959SOL     OW 6436   0.151   4.861   1.472
 1959SOL    HW1 6437   0.148   4.811   1.554
 1959SOL    HW2 6438   0.162   4.795   1.404
 1960SOL     OW 6439   1.328   4.770   1.223
 1960SOL    HW1 6440   1.351   4.708   1.154
 1960SOL    HW2 6441   1.256   4.822   1.186
 1961SOL     OW 6442   1.306   4.573   0.307
 1961SOL    HW1 6443   1.230   4.545   0.357
 1961SOL    HW2 6444   1.281   4.562   0.216
 1962SOL     OW 6445   0.076   4.920   1.030
 1962SOL    HW1 6446   0.064   4.960   1.116
 1962SOL    HW2 6447   5.290   4.926   0.989
 1963SOL     OW 6448   0.751   0.040   1.709
 1963SOL    HW1 6449   0.658   0.062   1.718
 1963SOL    HW2 6450   0.772   0.061   1.618
 1964SOL     OW 6451   0.905   3.815   0.133
 1964SOL    HW1 6452   0.926   3.800   0.041
 1964SOL    HW2 6453   0.968   3.762   0.181
 1965SOL     OW 6454   1.718   3.868   0.510
 1965SOL    HW1 6455   1.791   3.853   0.450
 1965SOL    HW2 6456   1.703   3.783   0.552
 1966SOL     OW 6457   1.277   4.649   0.671
 1966SOL    HW1 6458   1.351   4.587   0.677
 1966SOL    HW2 6459   1.311   4.721   0.619
 1967SOL     OW 6460   0.819   4.994   1.422
 1967SOL    HW1 6461   0.790   5.030   1.506
 1967SOL    HW2 6462   0.744   5.002   1.364
 1968SOL     OW 6463   1.840   3.897   0.967
 1968SOL    HW1 6464   1.869   3.810   0.939
 1968SOL    HW2 6465   1.754   3.907   0.927
 1969SOL     OW 6466   0.270   4.040   0.717
 1969SOL    HW1 6467   0.188   4.085   0.697
 1969SOL    HW2 6468   0.269   4.030   0.812
 1970SOL     OW 6469   1.141   0.020   0.005
 1970SOL    HW1 6470   1.156   5.230   0.035
 1970SOL    HW2 6471   1.143   0.014   7.990
 1971SOL     OW 6472   0.825   4.728   1.371
 1971SOL    HW1 6473   0.869   4.722   1.286
 1971SOL    HW2 6474   0.828   4.821   1.393
 1972SOL     OW 6475   0.917   4.638   0.297
 1972SOL    HW1 6476   0.973   4.665   0.224
 1972SOL    HW2 6477   0.965   4.566   0.338
 1973SOL     OW 6478   0.366   5.028   1.500
 1973SOL    HW1 6479   0.365   5.099   1.435
 1973SOL    HW2 6480   0.291   4.973   1.476
 1974SOL     OW 6481   1.613   5.004   1.282
 1974SOL    HW1 6482   1.669   4.998   1.359
 1974SOL    HW2 6483   1.550   5.074   1.304
 1975SOL     OW 6484   1.053   4.833   0.711
 1975SOL    HW1 6485   0.981   4.781   0.748
 1975SOL    HW2 6486   1.114   4.767   0.676
 1976SOL     OW 6487   1.021   3.964   0.966
 1976SOL    HW1 6488   1.016   3.916   0.883
 1976SOL    HW2 6489   1.015   3.897   1.033
 1977SOL     OW 6490   1.721   4.116   1.380
 1977SOL    HW1 6491   1.793   4.179   1.379
 1977SOL    HW2 6492   1.751   4.045   1.324
 1978SOL     OW 6493   0.269   5.036   0.294
 1978SOL    HW1 6494   0.187   5.050   0.248
 1978SOL    HW2 6495   0.258   5.083   0.377
 1979SOL     OW 6496   0.115   4.742   1.720
 1979SOL    HW1 6497   0.044   4.704   1.771
 1979SOL    HW2 6498   0.195   4.709   1.762
 1980SOL     OW 6499   0.674   3.920   1.499
 1980SOL    HW1 6500   0.758   3.901   1.457
 1980SOL    HW2 6501   0.697   3.951   1.586
 1981SOL     OW 6502   0.041   4.117   0.028
 1981SOL    HW1 6503   0.019   4.029   0.058
 1981SOL    HW2 6504   0.121   4.105   8.057
 1982SOL     OW 6505   1.430   4.582   1.401
 1982SOL    HW1 6506   1.382   4.642   1.345
 1982SOL    HW2 6507   1.520   4.585   1.367
 1983SOL     OW 6508   0.051   3.859   0.219
 1983SOL    HW1 6509   0.052   3.947   0.256
 1983SOL    HW2 6510   0.144   3.836   0.209
 1984SOL     OW 6511   1.182   5.064   0.113
 1984SOL    HW1 6512   1.087   5.048   0.112
 1984SOL    HW2 6513   1.206   5.060   0.205
 1985SOL     OW 6514   0.619   4.555   1.435
 1985SOL    HW1 6515   0.675   4.631   1.419
 1985SOL    HW2 6516   0.680   4.481   1.443
 1986SOL     OW 6517   0.717   4.289   1.705
 1986SOL    HW1 6518   0.757   4.351   1.765
 1986SOL    HW2 6519   0.747   4.203   1.736
 1987SOL     OW 6520   1.473   4.924   1.632
 1987SOL    HW1 6521   1.459   4.936   1.726
 1987SOL    HW2 6522   1.567   4.937   1.619
 1988SOL     OW 6523   1.670   4.606   1.255
 1988SOL    HW1 6524   1.663   4.520   1.212
 1988SOL    HW2 6525   1.660   4.669   1.184
 1989SOL     OW 6526   1.218   4.042   0.459
 1989SOL    HW1 6527   1.283   3.972   0.452
 1989SOL    HW2 6528   1.245   4.093   0.536
 1990SOL     OW 6529   0.590   4.461   0.668
 1990SOL    HW1 6530   0.629   4.548   0.655
 1990SOL    HW2 6531   0.519   4.457   0.604
 1991SOL     OW 6532   1.763   4.085   1.650
 1991SOL    HW1 6533   1.746   4.100   1.557
 1991SOL    HW2 6534   1.692   4.029   1.679
 1992SOL     OW 6535   1.744   4.657   1.512
 1992SOL    HW1 6536   1.742   4.752   1.525
 1992SOL    HW2 6537   1.729   4.646   1.418
 1993SOL     OW 6538   0.907   5.096   0.034
 1993SOL    HW1 6539   0.848   5.079   0.108
 1993SOL    HW2 6540   0.861   5.161   8.061
 1994SOL     OW 6541   0.868   4.690   0.855
 1994SOL    HW1 6542   0.917   4.619   0.896
 1994SOL    HW2 6543   0.833   4.741   0.929
 1995SOL     OW 6544   1.079   4.703   0.088
 1995SOL    HW1 6545   1.061   4.759   0.012
 1995SOL    HW2 6546   1.156   4.652   0.062
 1996SOL     OW 6547   0.220   5.026   1.854
 1996SOL    HW1 6548   0.155   4.959   1.835
 1996SOL    HW2 6549   0.216   5.036   1.949
 1997SOL     OW 6550   0.081   4.930   0.657
 1997SOL    HW1 6551   0.103   4.906   0.746
 1997SOL    HW2 6552   0.165   4.942   0.613
 1998SOL     OW 6553   0.671   5.107   1.609
 1998SOL    HW1 6554   0.594   5.073   1.656
 1998SOL    HW2 6555   0.701   5.180   1.663
 1999SOL     OW 6556   1.813   3.909   1.238
 1999SOL    HW1 6557   1.824   3.815   1.253
 1999SOL    HW2 6558   1.822   3.919   1.143
 2000SOL     OW 6559   0.432   4.162   0.523
 2000SOL    HW1 6560   0.461   4.089   0.469
 2000SOL    HW2 6561   0.386   4.121   0.596
 2001SOL     OW 6562   1.707   5.223   1.119
 2001SOL    HW1 6563   1.633   5.207   1.060
 2001SOL    HW2 6564   1.713   5.143   1.172
 2002SOL     OW 6565   0.336   4.283   1.291
 2002SOL    HW1 6566   0.388   4.223   1.345
 2002SOL    HW2 6567   0.350   4.253   1.201
 2003SOL     OW 6568   1.432   3.949   1.118
 2003SOL    HW1 6569   1.458   3.870   1.165
 2003SOL    HW2 6570   1.380   3.998   1.181
 2004SOL     OW 6571   1.009   3.743   1.143
 2004SOL    HW1 6572   0.954   3.675   1.104
 2004SOL    HW2 6573   1.097   3.705   1.145
 2005SOL     OW 6574   0.797   5.039   0.282
 2005SOL    HW1 6575   0.738   4.968   0.308
 2005SOL    HW2 6576   0.852   5.054   0.358
 2006SOL     OW 6577   0.638   0.002   1.286
 2006SOL    HW1 6578   0.643   0.057   1.364
 2006SOL    HW2 6579   0.730   5.285   1.264
 2007SOL     OW 6580   1.356   3.779   0.183
 2007SOL    HW1 6581   1.379   3.730   0.104
 2007SOL    HW2 6582   1.271   3.745   0.209
 2008SOL     OW 6583   1.297   4.185   0.682
 2008SOL    HW1 6584   1.243   4.264   0.689
 2008SOL    HW2 6585   1.293   4.145   0.768
 2009SOL     OW 6586   1.587   3.927   0.877
 2009SOL    HW1 6587   1.525   3.946   0.948
 2009SOL    HW2 6588   1.586   4.005   0.823
 2010SOL     OW 6589   0.041   4.801   0.305
 2010SOL    HW1 6590   0.133   4.777   0.293
 2010SOL    HW2 6591   5.296   4.718   0.323
 2011SOL     OW 6592   0.234   4.357   1.977
 2011SOL    HW1 6593   0.159   4.326   2.028
 2011SOL    HW2 6594   0.219   4.321   1.890
 2012SOL     OW 6595   0.241   3.999   2.852
 2012SOL    HW1 6596   0.255   3.965   2.940
 2012SOL    HW2 6597   0.157   3.962   2.825
 2013SOL     OW 6598   5.299   4.121   2.515
 2013SOL    HW1 6599   5.206   4.143   2.522
 2013SOL    HW2 6600   5.299   4.030   2.484
 2014SOL     OW 6601   0.573   4.999   3.044
 2014SOL    HW1 6602   0.493   5.005   2.991
 2014SOL    HW2 6603   0.591   5.089   3.071
 2015SOL     OW 6604   1.555   5.232   2.551
 2015SOL    HW1 6605   1.533   5.229   2.644
 2015SOL    HW2 6606   1.476   5.267   2.510
 2016SOL     OW 6607   1.130   4.422   2.564
 2016SOL    HW1 6608   1.179   4.503   2.550
 2016SOL    HW2 6609   1.083   4.437   2.646
 2017SOL     OW 6610   1.766   4.330   2.091
 2017SOL    HW1 6611   1.746   4.322   1.998
 2017SOL    HW2 6612   1.731   4.250   2.130
 2018SOL     OW 6613   0.759   4.868   2.898
 2018SOL    HW1 6614   0.691   4.897   2.960
 2018SOL    HW2 6615   0.786   4.948   2.853
 2019SOL     OW 6616   0.865   4.501   3.684
 2019SOL    HW1 6617   0.854   4.573   3.746
 2019SOL    HW2 6618   0.889   4.543   3.601
 2020SOL     OW 6619   0.686   4.727   2.511
 2020SOL    HW1 6620   0.751   4.715   2.580
 2020SOL    HW2 6621   0.618   4.781   2.551
 2021SOL     OW 6622   0.708   4.873   3.673
 2021SOL    HW1 6623   0.756   4.952   3.697
 2021SOL    HW2 6624   0.624   4.905   3.638
 2022SOL     OW 6625   0.377   5.145   2.915
 2022SOL    HW1 6626   0.282   5.153   2.902
 2022SOL    HW2 6627   0.415   5.200   2.847
 2023SOL     OW 6628   1.455   5.220   3.209
 2023SOL    HW1 6629   1.508   5.293   3.240
 2023SOL    HW2 6630   1.389   5.208   3.277
 2024SOL     OW 6631   0.450   4.124   3.356
 2024SOL    HW1 6632   0.524   4.063   3.357
 2024SOL    HW2 6633   0.373   4.068   3.364
 2025SOL     OW 6634   1.612   4.172   2.602
 2025SOL    HW1 6635   1.537   4.196   2.548
 2025SOL    HW2 6636   1.629   4.250   2.655
 2026SOL     OW 6637   1.133   5.072   3.562
 2026SOL    HW1 6638   1.164   5.072   3.652
 2026SOL    HW2 6639   1.080   4.993   3.555
 2027SOL     OW 6640   0.212   5.151   2.393
 2027SOL    HW1 6641   0.250   5.232   2.428
 2027SOL    HW2 6642   0.134   5.136   2.446
 2028SOL     OW 6643   0.251   4.800   2.738
 2028SOL    HW1 6644   0.263   4.713   2.778
 2028SOL    HW2 6645   0.196   4.847   2.799
 2029SOL     OW 6646   0.584   4.706   1.996
 2029SOL    HW1 6647   0.631   4.754   1.928
 2029SOL    HW2 6648   0.625   4.735   2.078
 2030SOL     OW 6649   1.596   3.846   3.330
 2030SOL    HW1 6650   1.601   3.926   3.278
 2030SOL    HW2 6651   1.583   3.877   3.420
 2031SOL     OW 6652   0.126   4.356   2.440
 2031SOL    HW1 6653   0.088   4.274   2.470
 2031SOL    HW2 6654   0.099   4.421   2.505
 2032SOL     OW 6655   5.299   5.300   1.945
 2032SOL    HW1 6656   0.016   5.212   1.979
 2032SOL    HW2 6657   0.025   0.059   2.016
 2033SOL     OW 6658   1.689   4.642   2.502
 2033SOL    HW1 6659   1.773   4.601   2.482
 2033SOL    HW2 6660   1.668   4.693   2.423
 2034SOL     OW 6661   1.645   4.831   2.292
 2034SOL    HW1 6662   1.730   4.837   2.248
 2034SOL    HW2 6663   1.651   4.892   2.365
 2035SOL     OW 6664   0.130   4.471   3.449
 2035SOL    HW1 6665   0.224   4.486   3.452
 2035SOL    HW2 6666   0.092   4.558   3.460
 2036SOL     OW 6667   0.626   5.096   2.596
 2036SOL    HW1 6668   0.569   5.019   2.597
 2036SOL    HW2 6669   0.600   5.144   2.518
 2037SOL     OW 6670   1.289   4.955   3.288
 2037SOL    HW1 6671   1.324   4.890   3.227
 2037SOL    HW2 6672   1.348   4.952   3.363
 2038SOL     OW 6673   0.821   3.723   2.371
 2038SOL    HW1 6674   0.862   3.807   2.352
 2038SOL    HW2 6675   0.728   3.741   2.377
 2039SOL     OW 6676   0.178   4.669   3.143
 2039SOL    HW1 6677   0.268   4.639   3.129
 2039SOL    HW2 6678   0.134   4.653   3.059
 2040SOL     OW 6679   1.531   4.718   2.059
 2040SOL    HW1 6680   1.461   4.660   2.090
 2040SOL    HW2 6681   1.572   4.752   2.138
 2041SOL     OW 6682   0.335   3.977   3.677
 2041SOL    HW1 6683   0.382   4.059   3.689
 2041SOL    HW2 6684   0.248   3.994   3.713
 2042SOL     OW 6685   1.476   5.146   2.824
 2042SOL    HW1 6686   1.403   5.159   2.885
 2042SOL    HW2 6687   1.463   5.058   2.790
 2043SOL     OW 6688   0.596   4.446   2.127
 2043SOL    HW1 6689   0.604   4.526   2.076
 2043SOL    HW2 6690   0.531   4.466   2.195
 2044SOL     OW 6691   1.279   4.075   2.794
 2044SOL    HW1 6692   1.190   4.042   2.803
 2044SOL    HW2 6693   1.330   4.022   2.856
 2045SOL     OW 6694   0.792   4.341   3.314
 2045SOL    HW1 6695   0.765   4.318   3.403
 2045SOL    HW2 6696   0.751   4.275   3.258
 2046SOL     OW 6697   1.394   4.198   3.540
 2046SOL    HW1 6698   1.396   4.242   3.625
 2046SOL    HW2 6699   1.455   4.125   3.549
 2047SOL     OW 6700   0.956   4.612   3.444
 2047SOL    HW1 6701   1.010   4.541   3.409
 2047SOL    HW2 6702   0.908   4.645   3.368
 2048SOL     OW 6703   0.992   4.137   3.101
 2048SOL    HW1 6704   0.907   4.159   3.139
 2048SOL    HW2 6705   0.971   4.090   3.020
 2049SOL     OW 6706   1.050   4.423   2.288
 2049SOL    HW1 6707   1.066   4.416   2.383
 2049SOL    HW2 6708   0.968   4.376   2.274
 2050SOL     OW 6709   0.073   4.510   2.673
 2050SOL    HW1 6710   0.155   4.515   2.722
 2050SOL    HW2 6711   0.059   4.598   2.639
 2051SOL     OW 6712   0.891   4.072   2.056
 2051SOL    HW1 6713   0.932   4.134   1.995
 2051SOL    HW2 6714   0.908   3.986   2.018
 2052SOL     OW 6715   1.709   4.299   3.690
 2052SOL    HW1 6716   1.671   4.374   3.643
 2052SOL    HW2 6717   1.736   4.238   3.621
 2053SOL     OW 6718   1.377   4.864   2.402
 2053SOL    HW1 6719   1.458   4.850   2.353
 2053SOL    HW2 6720   1.326   4.925   2.348
 2054SOL     OW 6721   0.555   3.908   2.755
 2054SOL    HW1 6722   0.552   3.935   2.847
 2054SOL    HW2 6723   0.551   3.989   2.705
 2055SOL     OW 6724   1.024   5.170   2.332
 2055SOL    HW1 6725   0.946   5.225   2.325
 2055SOL    HW2 6726   1.038   5.159   2.426
 2056SOL     OW 6727   1.800   4.782   2.728
 2056SOL    HW1 6728   1.743   4.765   2.653
 2056SOL    HW2 6729   1.740   4.788   2.803
 2057SOL     OW 6730   1.250   5.239   3.385
 2057SOL    HW1 6731   1.213   5.173   3.444
 2057SOL    HW2 6732   1.179   5.258   3.323
 2058SOL     OW 6733   0.317   4.676   2.109
 2058SOL    HW1 6734   0.399   4.699   2.065
 2058SOL    HW2 6735   0.293   4.591   2.072
 2059SOL     OW 6736   1.477   4.466   2.590
 2059SOL    HW1 6737   1.468   4.421   2.674
 2059SOL    HW2 6738   1.555   4.521   2.599
 2060SOL     OW 6739   0.463   4.988   3.604
 2060SOL    HW1 6740   0.437   4.991   3.512
 2060SOL    HW2 6741   0.381   4.988   3.652
 2061SOL     OW 6742   1.070   0.181   2.070
 2061SOL    HW1 6743   1.078   0.107   2.130
 2061SOL    HW2 6744   1.108   0.149   1.988
 2062SOL     OW 6745   0.205   4.005   3.359
 2062SOL    HW1 6746   0.125   4.057   3.343
 2062SOL    HW2 6747   0.174   3.928   3.406
 2063SOL     OW 6748   1.623   5.100   1.968
 2063SOL    HW1 6749   1.618   5.178   1.913
 2063SOL    HW2 6750   1.555   5.042   1.935
 2064SOL     OW 6751   1.401   3.832   2.294
 2064SOL    HW1 6752   1.391   3.807   2.202
 2064SOL    HW2 6753   1.496   3.838   2.307
 2065SOL     OW 6754   0.386   4.420   2.341
 2065SOL    HW1 6755   0.415   4.329   2.350
 2065SOL    HW2 6756   0.293   4.417   2.361
 2066SOL     OW 6757   1.536   3.949   3.587
 2066SOL    HW1 6758   1.545   3.970   3.680
 2066SOL    HW2 6759   1.468   3.883   3.584
 2067SOL     OW 6760   0.632   3.847   1.968
 2067SOL    HW1 6761   0.704   3.785   1.979
 2067SOL    HW2 6762   0.585   3.815   1.891
 2068SOL     OW 6763   0.767   4.002   3.616
 2068SOL    HW1 6764   0.842   3.942   3.618
 2068SOL    HW2 6765   0.718   3.982   3.695
 2069SOL     OW 6766   1.341   4.313   3.294
 2069SOL    HW1 6767   1.371   4.281   3.379
 2069SOL    HW2 6768   1.377   4.401   3.286
 2070SOL     OW 6769   0.813   5.121   2.797
 2070SOL    HW1 6770   0.893   5.105   2.748
 2070SOL    HW2 6771   0.744   5.126   2.730
 2071SOL     OW 6772   0.928   4.234   2.765
 2071SOL    HW1 6773   0.904   4.225   2.673
 2071SOL    HW2 6774   0.959   4.147   2.790
 2072SOL     OW 6775   0.560   3.785   2.359
 2072SOL    HW1 6776   0.485   3.785   2.418
 2072SOL    HW2 6777   0.549   3.865   2.307
 2073SOL     OW 6778   1.428   4.924   1.901
 2073SOL    HW1 6779   1.459   4.848   1.951
 2073SOL    HW2 6780   1.340   4.940   1.935
 2074SOL     OW 6781   0.305   3.771   2.042
 2074SOL    HW1 6782   0.367   3.835   2.006
 2074SOL    HW2 6783   0.360   3.706   2.086
 2075SOL     OW 6784   0.939   3.970   2.323
 2075SOL    HW1 6785   0.911   4.012   2.241
 2075SOL    HW2 6786   1.033   3.984   2.326
 2076SOL     OW 6787   1.080   4.404   3.322
 2076SOL    HW1 6788   1.010   4.338   3.326
 2076SOL    HW2 6789   1.161   4.354   3.315
 2077SOL     OW 6790   1.264   5.267   2.641
 2077SOL    HW1 6791   1.223   0.049   2.612
 2077SOL    HW2 6792   1.307   5.290   2.723
 2078SOL     OW 6793   0.465   4.873   2.592
 2078SOL    HW1 6794   0.397   4.853   2.656
 2078SOL    HW2 6795   0.425   4.853   2.507
 2079SOL     OW 6796   1.024   4.267   1.884
 2079SOL    HW1 6797   0.982   4.350   1.864
 2079SOL    HW2 6798   1.089   4.288   1.950
 2080SOL     OW 6799   0.087   4.270   3.260
 2080SOL    HW1 6800   0.175   4.277   3.223
 2080SOL    HW2 6801   0.079   4.346   3.317
 2081SOL     OW 6802   0.560   3.951   3.028
 2081SOL    HW1 6803   0.598   3.871   3.064
 2081SOL    HW2 6804   0.469   3.950   3.056
 2082SOL     OW 6805   0.868   4.183   2.502
 2082SOL    HW1 6806   0.822   4.237   2.438
 2082SOL    HW2 6807   0.889   4.102   2.455
 2083SOL     OW 6808   1.015   3.777   2.614
 2083SOL    HW1 6809   0.957   3.769   2.539
 2083SOL    HW2 6810   0.994   3.701   2.669
 2084SOL     OW 6811   1.437   4.890   2.721
 2084SOL    HW1 6812   1.371   4.820   2.717
 2084SOL    HW2 6813   1.462   4.903   2.630
 2085SOL     OW 6814   1.467   4.328   2.840
 2085SOL    HW1 6815   1.417   4.247   2.843
 2085SOL    HW2 6816   1.527   4.323   2.914
 2086SOL     OW 6817   1.846   4.540   2.244
 2086SOL    HW1 6818   1.902   4.489   2.302
 2086SOL    HW2 6819   1.817   4.478   2.177
 2087SOL     OW 6820   0.484   5.143   2.017
 2087SOL    HW1 6821   0.420   5.093   2.068
 2087SOL    HW2 6822   0.480   5.104   1.930
 2088SOL     OW 6823   1.669   4.987   2.509
 2088SOL    HW1 6824   1.763   4.994   2.526
 2088SOL    HW2 6825   1.635   5.075   2.526
 2089SOL     OW 6826   1.394   4.296   1.933
 2089SOL    HW1 6827   1.333   4.276   2.005
 2089SOL    HW2 6828   1.479   4.263   1.964
 2090SOL     OW 6829   0.524   3.987   2.180
 2090SOL    HW1 6830   0.568   3.939   2.110
 2090SOL    HW2 6831   0.503   4.072   2.142
 2091SOL     OW 6832   1.752   4.959   3.439
 2091SOL    HW1 6833   1.838   4.918   3.438
 2091SOL    HW2 6834   1.770   5.052   3.452
 2092SOL     OW 6835   1.065   5.075   3.194
 2092SOL    HW1 6836   0.986   5.049   3.242
 2092SOL    HW2 6837   1.137   5.035   3.242
 2093SOL     OW 6838   1.126   4.926   2.970
 2093SOL    HW1 6839   1.074   4.966   3.040
 2093SOL    HW2 6840   1.081   4.951   2.889
 2094SOL     OW 6841   1.629   4.823   2.939
 2094SOL    HW1 6842   1.625   4.884   3.012
 2094SOL    HW2 6843   1.551   4.841   2.888
 2095SOL     OW 6844   0.919   3.821   3.260
 2095SOL    HW1 6845   0.940   3.802   3.168
 2095SOL    HW2 6846   0.998   3.861   3.296
 2096SOL     OW 6847   0.984   4.839   3.587
 2096SOL    HW1 6848   0.892   4.854   3.605
 2096SOL    HW2 6849   0.985   4.762   3.529
 2097SOL     OW 6850   0.703   4.780   2.235
 2097SOL    HW1 6851   0.694   4.766   2.329
 2097SOL    HW2 6852   0.781   4.731   2.211
 2098SOL     OW 6853   0.421   4.542   3.113
 2098SOL    HW1 6854   0.489   4.548   3.180
 2098SOL    HW2 6855   0.385   4.454   3.124
 2099SOL     OW 6856   1.266   4.101   3.137
 2099SOL    HW1 6857   1.298   4.179   3.182
 2099SOL    HW2 6858   1.176   4.123   3.113
 2100SOL     OW 6859   0.114   5.291   3.179
 2100SOL    HW1 6860   0.051   0.049   3.223
 2100SOL    HW2 6861   0.189   5.289   3.238
 2101SOL     OW 6862   0.345   4.827   2.350
 2101SOL    HW1 6863   0.352   4.906   2.295
 2101SOL    HW2 6864   0.353   4.755   2.288
 2102SOL     OW 6865   0.555   4.260   2.721
 2102SOL    HW1 6866   0.571   4.319   2.647
 2102SOL    HW2 6867   0.619   4.288   2.787
 2103SOL     OW 6868   1.260   5.076   2.247
 2103SOL    HW1 6869   1.316   5.143   2.286
 2103SOL    HW2 6870   1.172   5.098   2.277
 2104SOL     OW 6871   1.268   5.181   3.003
 2104SOL    HW1 6872   1.328   5.194   3.078
 2104SOL    HW2 6873   1.224   5.098   3.022
 2105SOL     OW 6874   1.582   4.347   2.340
 2105SOL    HW1 6875   1.536   4.402   2.404
 2105SOL    HW2 6876   1.628   4.410   2.284
 2106SOL     OW 6877   0.381   5.231   3.178
 2106SOL    HW1 6878   0.363   5.192   3.093
 2106SOL    HW2 6879   0.473   5.256   3.174
 2107SOL     OW 6880   0.413   4.467   3.464
 2107SOL    HW1 6881   0.474   4.513   3.406
 2107SOL    HW2 6882   0.453   4.381   3.477
 2108SOL     OW 6883   1.600   4.503   3.543
 2108SOL    HW1 6884   1.514   4.543   3.536
 2108SOL    HW2 6885   1.653   4.544   3.475
 2109SOL     OW 6886   0.996   3.845   3.618
 2109SOL    HW1 6887   1.050   3.918   3.588
 2109SOL    HW2 6888   1.044   3.767   3.592
 2110SOL     OW 6889   0.497   3.766   3.609
 2110SOL    HW1 6890   0.456   3.712   3.542
 2110SOL    HW2 6891   0.437   3.839   3.621
 2111SOL     OW 6892   0.585   4.597   2.894
 2111SOL    HW1 6893   0.614   4.688   2.892
 2111SOL    HW2 6894   0.529   4.591   2.971
 2112SOL     OW 6895   1.358   4.582   2.892
 2112SOL    HW1 6896   1.276   4.573   2.845
 2112SOL    HW2 6897   1.398   4.495   2.887
 2113SOL     OW 6898   1.205   4.253   2.130
 2113SOL    HW1 6899   1.214   4.174   2.184
 2113SOL    HW2 6900   1.163   4.317   2.186
 2114SOL     OW 6901   0.302   3.927   3.110
 2114SOL    HW1 6902   0.267   3.952   3.196
 2114SOL    HW2 6903   0.289   3.833   3.106
 2115SOL     OW 6904   0.045   5.022   3.138
 2115SOL    HW1 6905   0.075   4.973   3.214
 2115SOL    HW2 6906   0.044   5.113   3.168
 2116SOL     OW 6907   0.725   4.355   2.921
 2116SOL    HW1 6908   0.799   4.339   2.862
 2116SOL    HW2 6909   0.697   4.444   2.899
 2117SOL     OW 6910   1.734   4.684   3.714
 2117SOL    HW1 6911   1.688   4.623   3.656
 2117SOL    HW2 6912   1.674   4.696   3.787
 2118SOL     OW 6913   0.327   3.786   2.496
 2118SOL    HW1 6914   0.307   3.875   2.524
 2118SOL    HW2 6915   0.331   3.736   2.578
 2119SOL     OW 6916   1.615   4.097   2.230
 2119SOL    HW1 6917   1.643   4.034   2.295
 2119SOL    HW2 6918   1.593   4.176   2.280
 2120SOL     OW 6919   1.028   4.483   2.823
 2120SOL    HW1 6920   1.025   4.501   2.917
 2120SOL    HW2 6921   1.001   4.392   2.815
 2121SOL     OW 6922   1.855   5.214   3.448
 2121SOL    HW1 6923   1.851   5.288   3.387
 2121SOL    HW2 6924   1.924   5.237   3.510
 2122SOL     OW 6925   0.354   4.642   3.668
 2122SOL    HW1 6926   0.435   4.660   3.715
 2122SOL    HW2 6927   0.378   4.577   3.602
 2123SOL     OW 6928   1.530   3.997   1.989
 2123SOL    HW1 6929   1.465   3.932   2.016
 2123SOL    HW2 6930   1.563   4.033   2.072
 2124SOL     OW 6931   1.293   4.550   1.894
 2124SOL    HW1 6932   1.335   4.465   1.897
 2124SOL    HW2 6933   1.323   4.589   1.812
 2125SOL     OW 6934   1.059   5.077   2.690
 2125SOL    HW1 6935   1.064   4.992   2.645
 2125SOL    HW2 6936   1.145   5.117   2.676
 2126SOL     OW 6937   0.315   4.534   2.811
 2126SOL    HW1 6938   0.409   4.551   2.808
 2126SOL    HW2 6939   0.309   4.444   2.844
 2127SOL     OW 6940   0.335   4.249   2.877
 2127SOL    HW1 6941   0.300   4.161   2.862
 2127SOL    HW2 6942   0.410   4.255   2.817
 2128SOL     OW 6943   1.134   4.100   3.544
 2128SOL    HW1 6944   1.087   4.155   3.606
 2128SOL    HW2 6945   1.222   4.138   3.539
 2129SOL     OW 6946   1.161   3.927   3.332
 2129SOL    HW1 6947   1.150   3.990   3.403
 2129SOL    HW2 6948   1.200   3.978   3.261
 2130SOL     OW 6949   0.002   5.049   2.070
 2130SOL    HW1 6950   5.225   5.039   2.015
 2130SOL    HW2 6951   0.013   4.964   2.111
 2131SOL     OW 6952   0.984   4.517   3.089
 2131SOL    HW1 6953   1.039   4.493   3.164
 2131SOL    HW2 6954   0.899   4.479   3.110
 2132SOL     OW 6955   0.033   4.282   2.977
 2132SOL    HW1 6956   0.120   4.259   2.944
 2132SOL    HW2 6957   0.038   4.266   3.071
 2133SOL     OW 6958   0.175   4.237   3.574
 2133SOL    HW1 6959   0.241   4.201   3.514
 2133SOL    HW2 6960   0.146   4.317   3.532
 2134SOL     OW 6961   1.376   4.664   3.521
 2134SOL    HW1 6962   1.397   4.757   3.518
 2134SOL    HW2 6963   1.373   4.637   3.429
 2135SOL     OW 6964   0.816   4.293   2.221
 2135SOL    HW1 6965   0.820   4.218   2.161
 2135SOL    HW2 6966   0.742   4.345   2.189
 2136SOL     OW 6967   1.642   4.325   3.049
 2136SOL    HW1 6968   1.632   4.266   3.123
 2136SOL    HW2 6969   1.729   4.305   3.014
 2137SOL     OW 6970   0.210   5.280   3.594
 2137SOL    HW1 6971   0.178   0.023   3.673
 2137SOL    HW2 6972   0.213   5.187   3.617
 2138SOL     OW 6973   0.700   4.175   3.123
 2138SOL    HW1 6974   0.648   4.101   3.092
 2138SOL    HW2 6975   0.696   4.238   3.050
 2139SOL     OW 6976   0.466   4.217   2.048
 2139SOL    HW1 6977   0.525   4.289   2.069
 2139SOL    HW2 6978   0.380   4.259   2.037
 2140SOL     OW 6979   0.151   4.861   3.334
 2140SOL    HW1 6980   0.148   4.811   3.416
 2140SOL    HW2 6981   0.162   4.795   3.266
 2141SOL     OW 6982   1.328   4.770   3.085
 2141SOL    HW1 6983   1.351   4.708   3.016
 2141SOL    HW2 6984   1.256   4.822   3.048
 2142SOL     OW 6985   1.310   4.582   2.169
 2142SOL    HW1 6986   1.234   4.550   2.218
 2142SOL    HW2 6987   1.286   4.567   2.077
 2143SOL     OW 6988   0.076   4.920   2.892
 2143SOL    HW1 6989   0.065   4.960   2.978
 2143SOL    HW2 6990   5.289   4.926   2.852
 2144SOL     OW 6991   0.751   0.039   3.571
 2144SOL    HW1 6992   0.658   0.062   3.580
 2144SOL    HW2 6993   0.772   0.061   3.480
 2145SOL     OW 6994   1.719   3.869   2.372
 2145SOL    HW1 6995   1.792   3.855   2.312
 2145SOL    HW2 6996   1.703   3.784   2.412
 2146SOL     OW 6997   1.277   4.649   2.533
 2146SOL    HW1 6998   1.350   4.588   2.540
 2146SOL    HW2 6999   1.311   4.721   2.481
 2147SOL     OW 7000   0.819   4.994   3.284
 2147SOL    HW1 7001   0.790   5.030   3.368
 2147SOL    HW2 7002   0.744   5.002   3.226
 2148SOL     OW 7003   1.840   3.897   2.829
 2148SOL    HW1 7004   1.870   3.810   2.802
 2148SOL    HW2 7005   1.754   3.907   2.789
 2149SOL     OW 7006   0.272   4.041   2.580
 2149SOL    HW1 7007   0.188   4.080   2.558
 2149SOL    HW2 7008   0.270   4.030   2.675
 2150SOL     OW 7009   0.825   4.728   3.233
 2150SOL    HW1 7010   0.870   4.722   3.149
 2150SOL    HW2 7011   0.828   4.821   3.255
 2151SOL     OW 7012   0.915   4.635   2.152
 2151SOL    HW1 7013   0.977   4.668   2.086
 2151SOL    HW2 7014   0.963   4.565   2.197
 2152SOL     OW 7015   0.366   5.028   3.362
 2152SOL    HW1 7016   0.365   5.098   3.297
 2152SOL    HW2 7017   0.291   4.973   3.338
 2153SOL     OW 7018   1.612   5.004   3.144
 2153SOL    HW1 7019   1.669   4.998   3.221
 2153SOL    HW2 7020   1.550   5.074   3.166
 2154SOL     OW 7021   1.053   4.833   2.572
 2154SOL    HW1 7022   0.981   4.782   2.609
 2154SOL    HW2 7023   1.114   4.767   2.539
 2155SOL     OW 7024   1.021   3.964   2.828
 2155SOL    HW1 7025   1.016   3.916   2.745
 2155SOL    HW2 7026   1.015   3.897   2.895
 2156SOL     OW 7027   1.721   4.116   3.242
 2156SOL    HW1 7028   1.793   4.179   3.241
 2156SOL    HW2 7029   1.751   4.045   3.186
 2157SOL     OW 7030   0.259   5.060   2.148
 2157SOL    HW1 7031   0.166   5.064   2.124
 2157SOL    HW2 7032   0.262   5.097   2.236
 2158SOL     OW 7033   0.115   4.742   3.582
 2158SOL    HW1 7034   0.044   4.704   3.633
 2158SOL    HW2 7035   0.195   4.709   3.623
 2159SOL     OW 7036   0.674   3.920   3.361
 2159SOL    HW1 7037   0.758   3.901   3.319
 2159SOL    HW2 7038   0.697   3.951   3.448
 2160SOL     OW 7039   0.081   4.075   1.903
 2160SOL    HW1 7040   0.002   4.026   1.879
 2160SOL    HW2 7041   0.098   4.132   1.828
 2161SOL     OW 7042   1.431   4.582   3.263
 2161SOL    HW1 7043   1.382   4.642   3.207
 2161SOL    HW2 7044   1.520   4.584   3.229
 2162SOL     OW 7045   0.055   3.857   2.104
 2162SOL    HW1 7046   0.054   3.953   2.099
 2162SOL    HW2 7047   0.145   3.833   2.084
 2163SOL     OW 7048   1.182   5.065   1.982
 2163SOL    HW1 7049   1.091   5.036   1.983
 2163SOL    HW2 7050   1.210   5.056   2.073
 2164SOL     OW 7051   0.619   4.555   3.297
 2164SOL    HW1 7052   0.675   4.631   3.281
 2164SOL    HW2 7053   0.679   4.481   3.305
 2165SOL     OW 7054   0.717   4.289   3.567
 2165SOL    HW1 7055   0.757   4.351   3.627
 2165SOL    HW2 7056   0.747   4.203   3.598
 2166SOL     OW 7057   1.473   4.924   3.493
 2166SOL    HW1 7058   1.459   4.936   3.588
 2166SOL    HW2 7059   1.567   4.937   3.481
 2167SOL     OW 7060   1.670   4.606   3.117
 2167SOL    HW1 7061   1.663   4.520   3.075
 2167SOL    HW2 7062   1.660   4.669   3.046
 2168SOL     OW 7063   1.217   4.043   2.320
 2168SOL    HW1 7064   1.281   3.972   2.311
 2168SOL    HW2 7065   1.246   4.092   2.397
 2169SOL     OW 7066   0.591   4.462   2.530
 2169SOL    HW1 7067   0.629   4.548   2.515
 2169SOL    HW2 7068   0.521   4.455   2.465
 2170SOL     OW 7069   1.763   4.085   3.512
 2170SOL    HW1 7070   1.746   4.100   3.419
 2170SOL    HW2 7071   1.691   4.029   3.541
 2171SOL     OW 7072   1.745   4.657   3.374
 2171SOL    HW1 7073   1.742   4.752   3.387
 2171SOL    HW2 7074   1.729   4.646   3.280
 2172SOL     OW 7075   0.849   5.095   1.881
 2172SOL    HW1 7076   0.830   5.096   1.975
 2172SOL    HW2 7077   0.868   5.186   1.859
 2173SOL     OW 7078   0.868   4.691   2.717
 2173SOL    HW1 7079   0.917   4.619   2.757
 2173SOL    HW2 7080   0.833   4.741   2.791
 2174SOL     OW 7081   1.080   4.713   1.951
 2174SOL    HW1 7082   1.057   4.763   1.873
 2174SOL    HW2 7083   1.154   4.659   1.925
 2175SOL     OW 7084   0.220   5.026   3.716
 2175SOL    HW1 7085   0.155   4.959   3.697
 2175SOL    HW2 7086   0.216   5.036   3.811
 2176SOL     OW 7087   0.082   4.930   2.518
 2176SOL    HW1 7088   0.100   4.909   2.609
 2176SOL    HW2 7089   0.168   4.938   2.477
 2177SOL     OW 7090   0.670   5.107   3.471
 2177SOL    HW1 7091   0.594   5.073   3.518
 2177SOL    HW2 7092   0.701   5.180   3.525
 2178SOL     OW 7093   1.813   3.909   3.100
 2178SOL    HW1 7094   1.824   3.815   3.115
 2178SOL    HW2 7095   1.822   3.919   3.005
 2179SOL     OW 7096   0.434   4.160   2.386
 2179SOL    HW1 7097   0.462   4.087   2.330
 2179SOL    HW2 7098   0.387   4.118   2.458
 2180SOL     OW 7099   1.707   5.223   2.981
 2180SOL    HW1 7100   1.633   5.207   2.922
 2180SOL    HW2 7101   1.714   5.144   3.034
 2181SOL     OW 7102   0.336   4.283   3.153
 2181SOL    HW1 7103   0.388   4.223   3.206
 2181SOL    HW2 7104   0.350   4.253   3.063
 2182SOL     OW 7105   1.432   3.949   2.980
 2182SOL    HW1 7106   1.459   3.870   3.026
 2182SOL    HW2 7107   1.380   3.998   3.044
 2183SOL     OW 7108   1.009   3.743   3.005
 2183SOL    HW1 7109   0.954   3.675   2.965
 2183SOL    HW2 7110   1.097   3.705   3.007
 2184SOL     OW 7111   0.803   5.047   2.146
 2184SOL    HW1 7112   0.740   4.977   2.165
 2184SOL    HW2 7113   0.856   5.053   2.225
 2185SOL     OW 7114   0.638   0.002   3.148
 2185SOL    HW1 7115   0.643   0.057   3.226
 2185SOL    HW2 7116   0.730   5.285   3.126
 2186SOL     OW 7117   1.352   3.778   2.027
 2186SOL    HW1 7118   1.380   3.715   1.960
 2186SOL    HW2 7119   1.265   3.748   2.053
 2187SOL     OW 7120   1.297   4.184   2.543
 2187SOL    HW1 7121   1.243   4.263   2.551
 2187SOL    HW2 7122   1.293   4.145   2.630
 2188SOL     OW 7123   1.587   3.927   2.739
 2188SOL    HW1 7124   1.525   3.947   2.810
 2188SOL    HW2 7125   1.586   4.005   2.684
 2189SOL     OW 7126   0.047   4.791   2.152
 2189SOL    HW1 7127   0.137   4.761   2.143
 2189SOL    HW2 7128   0.000   4.716   2.189
 2190SOL     OW 7129   0.234   4.357   3.839
 2190SOL    HW1 7130   0.159   4.325   3.890
 2190SOL    HW2 7131   0.220   4.321   3.752
 2191SOL     OW 7132   0.241   3.999   4.714
 2191SOL    HW1 7133   0.255   3.965   4.802
 2191SOL    HW2 7134   0.157   3.962   4.687
 2192SOL     OW 7135   5.299   4.121   4.377
 2192SOL    HW1 7136   5.206   4.143   4.384
 2192SOL    HW2 7137   5.299   4.030   4.346
 2193SOL     OW 7138   0.573   4.999   4.906
 2193SOL    HW1 7139   0.493   5.005   4.853
 2193SOL    HW2 7140   0.591   5.089   4.933
 2194SOL     OW 7141   1.555   5.232   4.413
 2194SOL    HW1 7142   1.533   5.229   4.506
 2194SOL    HW2 7143   1.476   5.267   4.371
 2195SOL     OW 7144   1.130   4.422   4.426
 2195SOL    HW1 7145   1.179   4.503   4.412
 2195SOL    HW2 7146   1.083   4.437   4.508
 2196SOL     OW 7147   1.766   4.330   3.953
 2196SOL    HW1 7148   1.746   4.322   3.860
 2196SOL    HW2 7149   1.731   4.250   3.992
 2197SOL     OW 7150   0.759   4.868   4.760
 2197SOL    HW1 7151   0.691   4.897   4.822
 2197SOL    HW2 7152   0.786   4.948   4.715
 2198SOL     OW 7153   0.865   4.501   5.546
 2198SOL    HW1 7154   0.854   4.573   5.608
 2198SOL    HW2 7155   0.889   4.543   5.463
 2199SOL     OW 7156   0.686   4.727   4.373
 2199SOL    HW1 7157   0.751   4.715   4.442
 2199SOL    HW2 7158   0.618   4.782   4.413
 2200SOL     OW 7159   0.708   4.873   5.535
 2200SOL    HW1 7160   0.756   4.952   5.559
 2200SOL    HW2 7161   0.624   4.905   5.500
 2201SOL     OW 7162   0.377   5.145   4.777
 2201SOL    HW1 7163   0.282   5.153   4.764
 2201SOL    HW2 7164   0.415   5.200   4.709
 2202SOL     OW 7165   1.455   5.220   5.071
 2202SOL    HW1 7166   1.509   5.293   5.103
 2202SOL    HW2 7167   1.389   5.208   5.139
 2203SOL     OW 7168   0.450   4.124   5.218
 2203SOL    HW1 7169   0.524   4.063   5.219
 2203SOL    HW2 7170   0.373   4.068   5.226
 2204SOL     OW 7171   1.612   4.172   4.464
 2204SOL    HW1 7172   1.537   4.196   4.410
 2204SOL    HW2 7173   1.629   4.250   4.517
 2205SOL     OW 7174   1.133   5.072   5.424
 2205SOL    HW1 7175   1.164   5.072   5.514
 2205SOL    HW2 7176   1.080   4.993   5.417
 2206SOL     OW 7177   0.212   5.151   4.255
 2206SOL    HW1 7178   0.250   5.232   4.290
 2206SOL    HW2 7179   0.134   5.136   4.308
 2207SOL     OW 7180   0.252   4.800   4.600
 2207SOL    HW1 7181   0.263   4.713   4.640
 2207SOL    HW2 7182   0.196   4.847   4.661
 2208SOL     OW 7183   0.584   4.706   3.858
 2208SOL    HW1 7184   0.630   4.754   3.790
 2208SOL    HW2 7185   0.625   4.735   3.940
 2209SOL     OW 7186   1.596   3.847   5.192
 2209SOL    HW1 7187   1.600   3.927   5.141
 2209SOL    HW2 7188   1.583   3.876   5.282
 2210SOL     OW 7189   0.126   4.356   4.302
 2210SOL    HW1 7190   0.088   4.274   4.332
 2210SOL    HW2 7191   0.099   4.421   4.367
 2211SOL     OW 7192   5.299   5.300   3.807
 2211SOL    HW1 7193   0.016   5.212   3.841
 2211SOL    HW2 7194   0.025   0.059   3.878
 2212SOL     OW 7195   1.689   4.642   4.363
 2212SOL    HW1 7196   1.773   4.601   4.343
 2212SOL    HW2 7197   1.668   4.693   4.285
 2213SOL     OW 7198   1.645   4.831   4.154
 2213SOL    HW1 7199   1.730   4.837   4.110
 2213SOL    HW2 7200   1.651   4.892   4.227
 2214SOL     OW 7201   0.130   4.471   5.311
 2214SOL    HW1 7202   0.224   4.486   5.314
 2214SOL    HW2 7203   0.092   4.558   5.322
 2215SOL     OW 7204   0.626   5.095   4.458
 2215SOL    HW1 7205   0.569   5.019   4.459
 2215SOL    HW2 7206   0.600   5.144   4.380
 2216SOL     OW 7207   1.289   4.955   5.150
 2216SOL    HW1 7208   1.324   4.889   5.089
 2216SOL    HW2 7209   1.348   4.952   5.225
 2217SOL     OW 7210   0.822   3.723   4.233
 2217SOL    HW1 7211   0.862   3.807   4.214
 2217SOL    HW2 7212   0.728   3.741   4.240
 2218SOL     OW 7213   0.178   4.669   5.005
 2218SOL    HW1 7214   0.268   4.639   4.991
 2218SOL    HW2 7215   0.134   4.653   4.921
 2219SOL     OW 7216   1.531   4.718   3.921
 2219SOL    HW1 7217   1.461   4.660   3.952
 2219SOL    HW2 7218   1.572   4.752   4.001
 2220SOL     OW 7219   0.335   3.977   5.539
 2220SOL    HW1 7220   0.382   4.059   5.551
 2220SOL    HW2 7221   0.248   3.994   5.575
 2221SOL     OW 7222   1.476   5.146   4.686
 2221SOL    HW1 7223   1.403   5.159   4.747
 2221SOL    HW2 7224   1.463   5.058   4.652
 2222SOL     OW 7225   0.596   4.446   3.989
 2222SOL    HW1 7226   0.604   4.526   3.938
 2222SOL    HW2 7227   0.531   4.466   4.057
 2223SOL     OW 7228   1.279   4.075   4.656
 2223SOL    HW1 7229   1.190   4.042   4.665
 2223SOL    HW2 7230   1.330   4.022   4.718
 2224SOL     OW 7231   0.792   4.341   5.176
 2224SOL    HW1 7232   0.765   4.318   5.265
 2224SOL    HW2 7233   0.751   4.275   5.120
 2225SOL     OW 7234   1.394   4.198   5.402
 2225SOL    HW1 7235   1.396   4.242   5.487
 2225SOL    HW2 7236   1.455   4.125   5.411
 2226SOL     OW 7237   0.956   4.612   5.306
 2226SOL    HW1 7238   1.010   4.541   5.271
 2226SOL    HW2 7239   0.908   4.645   5.230
 2227SOL     OW 7240   0.992   4.137   4.963
 2227SOL    HW1 7241   0.907   4.159   5.001
 2227SOL    HW2 7242   0.971   4.090   4.882
 2228SOL     OW 7243   1.050   4.423   4.150
 2228SOL    HW1 7244   1.066   4.416   4.245
 2228SOL    HW2 7245   0.968   4.376   4.136
 2229SOL     OW 7246   0.073   4.510   4.535
 2229SOL    HW1 7247   0.155   4.515   4.584
 2229SOL    HW2 7248   0.059   4.598   4.501
 2230SOL     OW 7249   0.892   4.072   3.918
 2230SOL    HW1 7250   0.932   4.134   3.857
 2230SOL    HW2 7251   0.908   3.986   3.880
 2231SOL     OW 7252   1.709   4.299   5.552
 2231SOL    HW1 7253   1.671   4.373   5.505
 2231SOL    HW2 7254   1.736   4.238   5.483
 2232SOL     OW 7255   1.377   4.864   4.264
 2232SOL    HW1 7256   1.458   4.850   4.215
 2232SOL    HW2 7257   1.326   4.925   4.210
 2233SOL     OW 7258   0.555   3.907   4.617
 2233SOL    HW1 7259   0.552   3.935   4.709
 2233SOL    HW2 7260   0.551   3.989   4.567
 2234SOL     OW 7261   1.024   5.170   4.194
 2234SOL    HW1 7262   0.946   5.225   4.187
 2234SOL    HW2 7263   1.038   5.159   4.288
 2235SOL     OW 7264   1.800   4.781   4.590
 2235SOL    HW1 7265   1.743   4.765   4.515
 2235SOL    HW2 7266   1.740   4.788   4.665
 2236SOL     OW 7267   1.250   5.239   5.247
 2236SOL    HW1 7268   1.213   5.173   5.306
 2236SOL    HW2 7269   1.179   5.258   5.185
 2237SOL     OW 7270   0.317   4.676   3.971
 2237SOL    HW1 7271   0.399   4.699   3.927
 2237SOL    HW2 7272   0.293   4.591   3.934
 2238SOL     OW 7273   1.477   4.466   4.452
 2238SOL    HW1 7274   1.468   4.422   4.536
 2238SOL    HW2 7275   1.555   4.521   4.461
 2239SOL     OW 7276   0.463   4.988   5.466
 2239SOL    HW1 7277   0.437   4.991   5.374
 2239SOL    HW2 7278   0.381   4.988   5.514
 2240SOL     OW 7279   1.070   0.181   3.932
 2240SOL    HW1 7280   1.079   0.107   3.992
 2240SOL    HW2 7281   1.108   0.150   3.850
 2241SOL     OW 7282   0.205   4.006   5.221
 2241SOL    HW1 7283   0.125   4.057   5.205
 2241SOL    HW2 7284   0.174   3.928   5.268
 2242SOL     OW 7285   1.623   5.100   3.831
 2242SOL    HW1 7286   1.619   5.178   3.775
 2242SOL    HW2 7287   1.555   5.042   3.797
 2243SOL     OW 7288   1.401   3.831   4.156
 2243SOL    HW1 7289   1.390   3.807   4.064
 2243SOL    HW2 7290   1.496   3.838   4.168
 2244SOL     OW 7291   0.386   4.420   4.203
 2244SOL    HW1 7292   0.415   4.329   4.212
 2244SOL    HW2 7293   0.293   4.417   4.223
 2245SOL     OW 7294   1.536   3.949   5.449
 2245SOL    HW1 7295   1.545   3.970   5.542
 2245SOL    HW2 7296   1.467   3.883   5.446
 2246SOL     OW 7297   0.632   3.847   3.830
 2246SOL    HW1 7298   0.704   3.785   3.841
 2246SOL    HW2 7299   0.584   3.815   3.753
 2247SOL     OW 7300   0.767   4.002   5.478
 2247SOL    HW1 7301   0.842   3.942   5.480
 2247SOL    HW2 7302   0.718   3.982   5.557
 2248SOL     OW 7303   1.341   4.312   5.156
 2248SOL    HW1 7304   1.371   4.281   5.241
 2248SOL    HW2 7305   1.377   4.401   5.148
 2249SOL     OW 7306   0.813   5.121   4.659
 2249SOL    HW1 7307   0.893   5.105   4.610
 2249SOL    HW2 7308   0.744   5.126   4.592
 2250SOL     OW 7309   0.928   4.234   4.627
 2250SOL    HW1 7310   0.904   4.225   4.535
 2250SOL    HW2 7311   0.959   4.146   4.652
 2251SOL     OW 7312   0.560   3.785   4.221
 2251SOL    HW1 7313   0.485   3.785   4.280
 2251SOL    HW2 7314   0.549   3.865   4.169
 2252SOL     OW 7315   1.428   4.924   3.763
 2252SOL    HW1 7316   1.459   4.848   3.813
 2252SOL    HW2 7317   1.340   4.940   3.797
 2253SOL     OW 7318   0.305   3.771   3.904
 2253SOL    HW1 7319   0.367   3.834   3.868
 2253SOL    HW2 7320   0.360   3.706   3.948
 2254SOL     OW 7321   0.939   3.970   4.185
 2254SOL    HW1 7322   0.911   4.012   4.103
 2254SOL    HW2 7323   1.033   3.984   4.188
 2255SOL     OW 7324   1.080   4.404   5.184
 2255SOL    HW1 7325   1.010   4.338   5.188
 2255SOL    HW2 7326   1.160   4.353   5.177
 2256SOL     OW 7327   1.264   5.267   4.503
 2256SOL    HW1 7328   1.223   0.049   4.474
 2256SOL    HW2 7329   1.307   5.290   4.585
 2257SOL     OW 7330   0.465   4.873   4.454
 2257SOL    HW1 7331   0.397   4.853   4.518
 2257SOL    HW2 7332   0.425   4.853   4.369
 2258SOL     OW 7333   1.024   4.267   3.746
 2258SOL    HW1 7334   0.982   4.350   3.726
 2258SOL    HW2 7335   1.089   4.288   3.812
 2259SOL     OW 7336   0.087   4.270   5.122
 2259SOL    HW1 7337   0.175   4.277   5.085
 2259SOL    HW2 7338   0.079   4.346   5.179
 2260SOL     OW 7339   0.560   3.951   4.890
 2260SOL    HW1 7340   0.598   3.871   4.926
 2260SOL    HW2 7341   0.469   3.950   4.918
 2261SOL     OW 7342   0.868   4.183   4.364
 2261SOL    HW1 7343   0.822   4.237   4.300
 2261SOL    HW2 7344   0.889   4.102   4.316
 2262SOL     OW 7345   1.015   3.777   4.476
 2262SOL    HW1 7346   0.957   3.769   4.401
 2262SOL    HW2 7347   0.994   3.701   4.531
 2263SOL     OW 7348   1.437   4.890   4.583
 2263SOL    HW1 7349   1.371   4.820   4.579
 2263SOL    HW2 7350   1.462   4.903   4.492
 2264SOL     OW 7351   1.467   4.328   4.702
 2264SOL    HW1 7352   1.417   4.247   4.706
 2264SOL    HW2 7353   1.527   4.323   4.776
 2265SOL     OW 7354   1.846   4.540   4.106
 2265SOL    HW1 7355   1.902   4.489   4.164
 2265SOL    HW2 7356   1.817   4.478   4.039
 2266SOL     OW 7357   0.484   5.143   3.879
 2266SOL    HW1 7358   0.420   5.093   3.930
 2266SOL    HW2 7359   0.480   5.104   3.792
 2267SOL     OW 7360   1.669   4.987   4.371
 2267SOL    HW1 7361   1.763   4.994   4.388
 2267SOL    HW2 7362   1.635   5.075   4.388
 2268SOL     OW 7363   1.394   4.296   3.795
 2268SOL    HW1 7364   1.333   4.276   3.867
 2268SOL    HW2 7365   1.479   4.263   3.826
 2269SOL     OW 7366   0.524   3.987   4.042
 2269SOL    HW1 7367   0.568   3.939   3.972
 2269SOL    HW2 7368   0.503   4.072   4.004
 2270SOL     OW 7369   1.752   4.959   5.301
 2270SOL    HW1 7370   1.838   4.918   5.300
 2270SOL    HW2 7371   1.770   5.052   5.314
 2271SOL     OW 7372   1.065   5.075   5.056
 2271SOL    HW1 7373   0.986   5.049   5.104
 2271SOL    HW2 7374   1.137   5.035   5.104
 2272SOL     OW 7375   1.126   4.926   4.832
 2272SOL    HW1 7376   1.074   4.966   4.902
 2272SOL    HW2 7377   1.081   4.951   4.751
 2273SOL     OW 7378   1.629   4.823   4.801
 2273SOL    HW1 7379   1.625   4.884   4.874
 2273SOL    HW2 7380   1.551   4.841   4.750
 2274SOL     OW 7381   0.919   3.821   5.122
 2274SOL    HW1 7382   0.940   3.802   5.030
 2274SOL    HW2 7383   0.998   3.861   5.158
 2275SOL     OW 7384   0.984   4.839   5.449
 2275SOL    HW1 7385   0.892   4.854   5.467
 2275SOL    HW2 7386   0.985   4.762   5.391
 2276SOL     OW 7387   0.703   4.780   4.097
 2276SOL    HW1 7388   0.694   4.766   4.191
 2276SOL    HW2 7389   0.781   4.731   4.073
 2277SOL     OW 7390   0.421   4.542   4.975
 2277SOL    HW1 7391   0.489   4.549   5.042
 2277SOL    HW2 7392   0.385   4.454   4.986
 2278SOL     OW 7393   1.266   4.101   4.998
 2278SOL    HW1 7394   1.298   4.179   5.044
 2278SOL    HW2 7395   1.176   4.123   4.975
 2279SOL     OW 7396   0.114   5.292   5.041
 2279SOL    HW1 7397   0.051   0.049   5.085
 2279SOL    HW2 7398   0.189   5.289   5.100
 2280SOL     OW 7399   0.345   4.827   4.212
 2280SOL    HW1 7400   0.352   4.906   4.157
 2280SOL    HW2 7401   0.353   4.755   4.150
 2281SOL     OW 7402   0.555   4.260   4.583
 2281SOL    HW1 7403   0.571   4.319   4.509
 2281SOL    HW2 7404   0.619   4.288   4.649
 2282SOL     OW 7405   1.260   5.076   4.109
 2282SOL    HW1 7406   1.316   5.143   4.148
 2282SOL    HW2 7407   1.172   5.098   4.139
 2283SOL     OW 7408   1.268   5.181   4.865
 2283SOL    HW1 7409   1.328   5.194   4.940
 2283SOL    HW2 7410   1.224   5.098   4.884
 2284SOL     OW 7411   1.582   4.347   4.202
 2284SOL    HW1 7412   1.536   4.402   4.266
 2284SOL    HW2 7413   1.627   4.409   4.145
 2285SOL     OW 7414   0.381   5.231   5.041
 2285SOL    HW1 7415   0.363   5.192   4.955
 2285SOL    HW2 7416   0.473   5.256   5.036
 2286SOL     OW 7417   0.413   4.467   5.326
 2286SOL    HW1 7418   0.474   4.513   5.268
 2286SOL    HW2 7419   0.453   4.381   5.339
 2287SOL     OW 7420   1.600   4.502   5.405
 2287SOL    HW1 7421   1.514   4.543   5.398
 2287SOL    HW2 7422   1.653   4.544   5.337
 2288SOL     OW 7423   0.996   3.845   5.480
 2288SOL    HW1 7424   1.050   3.918   5.450
 2288SOL    HW2 7425   1.045   3.767   5.454
 2289SOL     OW 7426   0.497   3.766   5.471
 2289SOL    HW1 7427   0.456   3.712   5.404
 2289SOL    HW2 7428   0.437   3.839   5.483
 2290SOL     OW 7429   0.586   4.597   4.756
 2290SOL    HW1 7430   0.614   4.688   4.754
 2290SOL    HW2 7431   0.529   4.591   4.833
 2291SOL     OW 7432   1.358   4.582   4.754
 2291SOL    HW1 7433   1.276   4.573   4.707
 2291SOL    HW2 7434   1.398   4.495   4.749
 2292SOL     OW 7435   1.206   4.253   3.992
 2292SOL    HW1 7436   1.213   4.174   4.046
 2292SOL    HW2 7437   1.163   4.317   4.048
 2293SOL     OW 7438   0.302   3.927   4.972
 2293SOL    HW1 7439   0.267   3.952   5.058
 2293SOL    HW2 7440   0.289   3.833   4.968
 2294SOL     OW 7441   0.045   5.022   5.000
 2294SOL    HW1 7442   0.075   4.973   5.076
 2294SOL    HW2 7443   0.044   5.113   5.030
 2295SOL     OW 7444   0.725   4.356   4.783
 2295SOL    HW1 7445   0.799   4.339   4.724
 2295SOL    HW2 7446   0.697   4.444   4.761
 2296SOL     OW 7447   1.734   4.684   5.575
 2296SOL    HW1 7448   1.688   4.623   5.518
 2296SOL    HW2 7449   1.674   4.696   5.649
 2297SOL     OW 7450   0.328   3.786   4.358
 2297SOL    HW1 7451   0.307   3.875   4.386
 2297SOL    HW2 7452   0.331   3.736   4.440
 2298SOL     OW 7453   1.615   4.097   4.092
 2298SOL    HW1 7454   1.643   4.034   4.158
 2298SOL    HW2 7455   1.593   4.176   4.142
 2299SOL     OW 7456   1.028   4.483   4.685
 2299SOL    HW1 7457   1.025   4.501   4.779
 2299SOL    HW2 7458   1.001   4.392   4.677
 2300SOL     OW 7459   1.855   5.214   5.310
 2300SOL    HW1 7460   1.851   5.288   5.249
 2300SOL    HW2 7461   1.924   5.237   5.372
 2301SOL     OW 7462   0.354   4.642   5.530
 2301SOL    HW1 7463   0.435   4.660   5.578
 2301SOL    HW2 7464   0.378   4.577   5.464
 2302SOL     OW 7465   1.529   3.997   3.851
 2302SOL    HW1 7466   1.465   3.932   3.878
 2302SOL    HW2 7467   1.562   4.033   3.934
 2303SOL     OW 7468   1.293   4.551   3.756
 2303SOL    HW1 7469   1.335   4.465   3.759
 2303SOL    HW2 7470   1.323   4.590   3.674
 2304SOL     OW 7471   1.059   5.077   4.552
 2304SOL    HW1 7472   1.064   4.993   4.507
 2304SOL    HW2 7473   1.145   5.117   4.538
 2305SOL     OW 7474   0.315   4.534   4.673
 2305SOL    HW1 7475   0.409   4.551   4.669
 2305SOL    HW2 7476   0.309   4.444   4.706
 2306SOL     OW 7477   0.336   4.249   4.739
 2306SOL    HW1 7478   0.300   4.161   4.724
 2306SOL    HW2 7479   0.410   4.255   4.679
 2307SOL     OW 7480   1.134   4.100   5.405
 2307SOL    HW1 7481   1.087   4.155   5.468
 2307SOL    HW2 7482   1.222   4.138   5.401
 2308SOL     OW 7483   1.161   3.927   5.194
 2308SOL    HW1 7484   1.150   3.990   5.265
 2308SOL    HW2 7485   1.200   3.978   5.123
 2309SOL     OW 7486   0.002   5.049   3.932
 2309SOL    HW1 7487   5.225   5.039   3.877
 2309SOL    HW2 7488   0.013   4.964   3.973
 2310SOL     OW 7489   0.984   4.517   4.951
 2310SOL    HW1 7490   1.039   4.493   5.026
 2310SOL    HW2 7491   0.899   4.479   4.972
 2311SOL     OW 7492   0.033   4.282   4.839
 2311SOL    HW1 7493   0.120   4.259   4.806
 2311SOL    HW2 7494   0.038   4.266   4.933
 2312SOL     OW 7495   0.175   4.237   5.436
 2312SOL    HW1 7496   0.241   4.201   5.376
 2312SOL    HW2 7497   0.146   4.317   5.394
 2313SOL     OW 7498   1.376   4.664   5.383
 2313SOL    HW1 7499   1.397   4.757   5.380
 2313SOL    HW2 7500   1.373   4.637   5.290
 2314SOL     OW 7501   0.816   4.293   4.083
 2314SOL    HW1 7502   0.820   4.218   4.023
 2314SOL    HW2 7503   0.742   4.345   4.051
 2315SOL     OW 7504   1.642   4.325   4.911
 2315SOL    HW1 7505   1.631   4.266   4.985
 2315SOL    HW2 7506   1.729   4.305   4.876
 2316SOL     OW 7507   0.210   5.280   5.456
 2316SOL    HW1 7508   0.178   0.023   5.535
 2316SOL    HW2 7509   0.213   5.187   5.479
 2317SOL     OW 7510   0.700   4.175   4.985
 2317SOL    HW1 7511   0.648   4.101   4.955
 2317SOL    HW2 7512   0.696   4.238   4.912
 2318SOL     OW 7513   0.466   4.217   3.910
 2318SOL    HW1 7514   0.525   4.289   3.931
 2318SOL    HW2 7515   0.380   4.259   3.899
 2319SOL     OW 7516   0.151   4.861   5.196
 2319SOL    HW1 7517   0.148   4.811   5.278
 2319SOL    HW2 7518   0.162   4.795   5.128
 2320SOL     OW 7519   1.328   4.770   4.947
 2320SOL    HW1 7520   1.351   4.708   4.878
 2320SOL    HW2 7521   1.256   4.822   4.910
 2321SOL     OW 7522   1.310   4.581   4.031
 2321SOL    HW1 7523   1.234   4.550   4.080
 2321SOL    HW2 7524   1.286   4.567   3.939
 2322SOL     OW 7525   0.076   4.920   4.754
 2322SOL    HW1 7526   0.065   4.960   4.840
 2322SOL    HW2 7527   5.289   4.926   4.714
 2323SOL     OW 7528   0.751   0.039   5.433
 2323SOL    HW1 7529   0.658   0.062   5.442
 2323SOL    HW2 7530   0.772   0.061   5.342
 2324SOL     OW 7531   1.719   3.869   4.235
 2324SOL    HW1 7532   1.792   3.855   4.174
 2324SOL    HW2 7533   1.704   3.784   4.274
 2325SOL     OW 7534   1.277   4.649   4.395
 2325SOL    HW1 7535   1.350   4.588   4.402
 2325SOL    HW2 7536   1.311   4.721   4.343
 2326SOL     OW 7537   0.819   4.994   5.146
 2326SOL    HW1 7538   0.790   5.030   5.230
 2326SOL    HW2 7539   0.744   5.002   5.089
 2327SOL     OW 7540   1.840   3.897   4.691
 2327SOL    HW1 7541   1.868   3.810   4.664
 2327SOL    HW2 7542   1.754   3.908   4.651
 2328SOL     OW 7543   0.272   4.041   4.442
 2328SOL    HW1 7544   0.188   4.080   4.420
 2328SOL    HW2 7545   0.270   4.030   4.537
 2329SOL     OW 7546   0.825   4.728   5.095
 2329SOL    HW1 7547   0.869   4.722   5.011
 2329SOL    HW2 7548   0.828   4.821   5.117
 2330SOL     OW 7549   0.915   4.636   4.014
 2330SOL    HW1 7550   0.977   4.668   3.948
 2330SOL    HW2 7551   0.963   4.565   4.059
 2331SOL     OW 7552   0.366   5.028   5.224
 2331SOL    HW1 7553   0.365   5.098   5.159
 2331SOL    HW2 7554   0.291   4.973   5.200
 2332SOL     OW 7555   1.612   5.004   5.006
 2332SOL    HW1 7556   1.669   4.998   5.083
 2332SOL    HW2 7557   1.550   5.074   5.028
 2333SOL     OW 7558   1.053   4.833   4.434
 2333SOL    HW1 7559   0.981   4.782   4.471
 2333SOL    HW2 7560   1.114   4.767   4.401
 2334SOL     OW 7561   1.021   3.964   4.690
 2334SOL    HW1 7562   1.016   3.916   4.607
 2334SOL    HW2 7563   1.015   3.897   4.757
 2335SOL     OW 7564   1.721   4.116   5.104
 2335SOL    HW1 7565   1.793   4.179   5.103
 2335SOL    HW2 7566   1.751   4.045   5.048
 2336SOL     OW 7567   0.259   5.060   4.010
 2336SOL    HW1 7568   0.166   5.064   3.986
 2336SOL    HW2 7569   0.262   5.097   4.098
 2337SOL     OW 7570   0.115   4.741   5.444
 2337SOL    HW1 7571   0.044   4.704   5.495
 2337SOL    HW2 7572   0.195   4.709   5.485
 2338SOL     OW 7573   0.674   3.920   5.223
 2338SOL    HW1 7574   0.758   3.901   5.181
 2338SOL    HW2 7575   0.697   3.951   5.311
 2339SOL     OW 7576   0.081   4.075   3.765
 2339SOL    HW1 7577   0.002   4.026   3.741
 2339SOL    HW2 7578   0.098   4.132   3.690
 2340SOL     OW 7579   1.431   4.582   5.125
 2340SOL    HW1 7580   1.382   4.642   5.069
 2340SOL    HW2 7581   1.520   4.585   5.091
 2341SOL     OW 7582   0.055   3.857   3.967
 2341SOL    HW1 7583   0.054   3.953   3.961
 2341SOL    HW2 7584   0.145   3.833   3.946
 2342SOL     OW 7585   1.182   5.065   3.844
 2342SOL    HW1 7586   1.091   5.036   3.845
 2342SOL    HW2 7587   1.210   5.056   3.935
 2343SOL     OW 7588   0.619   4.555   5.159
 2343SOL    HW1 7589   0.675   4.631   5.143
 2343SOL    HW2 7590   0.679   4.481   5.167
 2344SOL     OW 7591   0.717   4.289   5.429
 2344SOL    HW1 7592   0.757   4.351   5.489
 2344SOL    HW2 7593   0.747   4.203   5.460
 2345SOL     OW 7594   1.473   4.924   5.355
 2345SOL    HW1 7595   1.459   4.936   5.450
 2345SOL    HW2 7596   1.567   4.937   5.343
 2346SOL     OW 7597   1.670   4.606   4.979
 2346SOL    HW1 7598   1.663   4.520   4.936
 2346SOL    HW2 7599   1.660   4.669   4.908
 2347SOL     OW 7600   1.217   4.043   4.182
 2347SOL    HW1 7601   1.281   3.972   4.173
 2347SOL    HW2 7602   1.246   4.092   4.259
 2348SOL     OW 7603   0.591   4.462   4.392
 2348SOL    HW1 7604   0.629   4.548   4.377
 2348SOL    HW2 7605   0.521   4.455   4.327
 2349SOL     OW 7606   1.763   4.085   5.374
 2349SOL    HW1 7607   1.746   4.100   5.281
 2349SOL    HW2 7608   1.692   4.028   5.403
 2350SOL     OW 7609   1.745   4.657   5.236
 2350SOL    HW1 7610   1.742   4.752   5.249
 2350SOL    HW2 7611   1.729   4.646   5.142
 2351SOL     OW 7612   0.849   5.095   3.743
 2351SOL    HW1 7613   0.830   5.096   3.837
 2351SOL    HW2 7614   0.868   5.186   3.721
 2352SOL     OW 7615   0.868   4.691   4.579
 2352SOL    HW1 7616   0.917   4.619   4.619
 2352SOL    HW2 7617   0.833   4.741   4.653
 2353SOL     OW 7618   1.080   4.713   3.813
 2353SOL    HW1 7619   1.057   4.763   3.735
 2353SOL    HW2 7620   1.154   4.659   3.787
 2354SOL     OW 7621   0.220   5.026   5.578
 2354SOL    HW1 7622   0.155   4.959   5.559
 2354SOL    HW2 7623   0.216   5.036   5.673
 2355SOL     OW 7624   0.082   4.930   4.380
 2355SOL    HW1 7625   0.100   4.909   4.471
 2355SOL    HW2 7626   0.168   4.938   4.339
 2356SOL     OW 7627   0.670   5.107   5.333
 2356SOL    HW1 7628   0.594   5.073   5.380
 2356SOL    HW2 7629   0.701   5.180   5.387
 2357SOL     OW 7630   1.813   3.909   4.962
 2357SOL    HW1 7631   1.822   3.815   4.976
 2357SOL    HW2 7632   1.822   3.919   4.867
 2358SOL     OW 7633   0.434   4.160   4.248
 2358SOL    HW1 7634   0.462   4.087   4.192
 2358SOL    HW2 7635   0.387   4.118   4.320
 2359SOL     OW 7636   1.707   5.223   4.843
 2359SOL    HW1 7637   1.633   5.207   4.784
 2359SOL    HW2 7638   1.714   5.143   4.896
 2360SOL     OW 7639   0.336   4.283   5.015
 2360SOL    HW1 7640   0.388   4.223   5.068
 2360SOL    HW2 7641   0.350   4.253   4.925
 2361SOL     OW 7642   1.432   3.949   4.842
 2361SOL    HW1 7643   1.458   3.869   4.889
 2361SOL    HW2 7644   1.380   3.998   4.906
 2362SOL     OW 7645   1.009   3.743   4.867
 2362SOL    HW1 7646   0.954   3.675   4.827
 2362SOL    HW2 7647   1.097   3.705   4.869
 2363SOL     OW 7648   0.803   5.047   4.008
 2363SOL    HW1 7649   0.740   4.977   4.027
 2363SOL    HW2 7650   0.856   5.053   4.087
 2364SOL     OW 7651   0.638   0.002   5.010
 2364SOL    HW1 7652   0.643   0.057   5.089
 2364SOL    HW2 7653   0.730   5.285   4.988
 2365SOL     OW 7654   1.352   3.778   3.889
 2365SOL    HW1 7655   1.380   3.715   3.823
 2365SOL    HW2 7656   1.265   3.748   3.915
 2366SOL     OW 7657   1.297   4.184   4.406
 2366SOL    HW1 7658   1.243   4.263   4.413
 2366SOL    HW2 7659   1.293   4.145   4.493
 2367SOL     OW 7660   1.587   3.927   4.602
 2367SOL    HW1 7661   1.525   3.947   4.672
 2367SOL    HW2 7662   1.586   4.005   4.546
 2368SOL     OW 7663   0.047   4.791   4.014
 2368SOL    HW1 7664   0.137   4.761   4.005
 2368SOL    HW2 7665   0.000   4.716   4.051
 2369SOL     OW 7666   0.233   4.357   5.701
 2369SOL    HW1 7667   0.159   4.325   5.752
 2369SOL    HW2 7668   0.219   4.321   5.614
 2370SOL     OW 7669   0.241   3.999   6.576
 2370SOL    HW1 7670   0.255   3.965   6.664
 2370SOL    HW2 7671   0.157   3.962   6.549
 2371SOL     OW 7672   5.299   4.121   6.239
 2371SOL    HW1 7673   5.206   4.143   6.246
 2371SOL    HW2 7674   5.299   4.030   6.208
 2372SOL     OW 7675   0.573   4.999   6.768
 2372SOL    HW1 7676   0.493   5.005   6.715
 2372SOL    HW2 7677   0.591   5.089   6.795
 2373SOL     OW 7678   1.555   5.232   6.275
 2373SOL    HW1 7679   1.533   5.229   6.368
 2373SOL    HW2 7680   1.476   5.267   6.234
 2374SOL     OW 7681   1.130   4.422   6.288
 2374SOL    HW1 7682   1.179   4.503   6.274
 2374SOL    HW2 7683   1.083   4.437   6.370
 2375SOL     OW 7684   1.766   4.330   5.815
 2375SOL    HW1 7685   1.746   4.322   5.722
 2375SOL    HW2 7686   1.731   4.250   5.855
 2376SOL     OW 7687   0.759   4.868   6.622
 2376SOL    HW1 7688   0.691   4.897   6.684
 2376SOL    HW2 7689   0.786   4.948   6.577
 2377SOL     OW 7690   0.865   4.503   7.406
 2377SOL    HW1 7691   0.852   4.578   7.464
 2377SOL    HW2 7692   0.890   4.541   7.322
 2378SOL     OW 7693   0.686   4.727   6.235
 2378SOL    HW1 7694   0.751   4.715   6.304
 2378SOL    HW2 7695   0.618   4.782   6.275
 2379SOL     OW 7696   0.707   4.873   7.397
 2379SOL    HW1 7697   0.756   4.952   7.420
 2379SOL    HW2 7698   0.625   4.905   7.362
 2380SOL     OW 7699   0.377   5.145   6.639
 2380SOL    HW1 7700   0.282   5.153   6.626
 2380SOL    HW2 7701   0.415   5.200   6.571
 2381SOL     OW 7702   1.455   5.220   6.933
 2381SOL    HW1 7703   1.509   5.293   6.965
 2381SOL    HW2 7704   1.389   5.208   7.001
 2382SOL     OW 7705   0.450   4.125   7.080
 2382SOL    HW1 7706   0.524   4.064   7.081
 2382SOL    HW2 7707   0.373   4.068   7.089
 2383SOL     OW 7708   1.612   4.172   6.326
 2383SOL    HW1 7709   1.537   4.196   6.272
 2383SOL    HW2 7710   1.629   4.250   6.379
 2384SOL     OW 7711   1.133   5.071   7.285
 2384SOL    HW1 7712   1.166   5.070   7.375
 2384SOL    HW2 7713   1.079   4.992   7.278
 2385SOL     OW 7714   0.212   5.151   6.117
 2385SOL    HW1 7715   0.250   5.232   6.152
 2385SOL    HW2 7716   0.134   5.135   6.170
 2386SOL     OW 7717   0.252   4.800   6.462
 2386SOL    HW1 7718   0.263   4.713   6.502
 2386SOL    HW2 7719   0.196   4.847   6.523
 2387SOL     OW 7720   0.584   4.706   5.720
 2387SOL    HW1 7721   0.630   4.754   5.652
 2387SOL    HW2 7722   0.625   4.735   5.802
 2388SOL     OW 7723   1.596   3.847   7.054
 2388SOL    HW1 7724   1.601   3.927   7.003
 2388SOL    HW2 7725   1.583   3.877   7.144
 2389SOL     OW 7726   0.126   4.357   6.164
 2389SOL    HW1 7727   0.088   4.274   6.194
 2389SOL    HW2 7728   0.099   4.421   6.229
 2390SOL     OW 7729   5.299   5.300   5.669
 2390SOL    HW1 7730   0.016   5.212   5.702
 2390SOL    HW2 7731   0.025   0.059   5.740
 2391SOL     OW 7732   1.689   4.642   6.226
 2391SOL    HW1 7733   1.773   4.601   6.206
 2391SOL    HW2 7734   1.668   4.693   6.147
 2392SOL     OW 7735   1.645   4.831   6.016
 2392SOL    HW1 7736   1.730   4.837   5.972
 2392SOL    HW2 7737   1.651   4.892   6.089
 2393SOL     OW 7738   0.130   4.470   7.174
 2393SOL    HW1 7739   0.224   4.485   7.176
 2393SOL    HW2 7740   0.092   4.557   7.184
 2394SOL     OW 7741   0.626   5.096   6.320
 2394SOL    HW1 7742   0.569   5.019   6.321
 2394SOL    HW2 7743   0.600   5.144   6.242
 2395SOL     OW 7744   1.289   4.955   7.012
 2395SOL    HW1 7745   1.324   4.889   6.951
 2395SOL    HW2 7746   1.348   4.952   7.087
 2396SOL     OW 7747   0.821   3.723   6.095
 2396SOL    HW1 7748   0.862   3.807   6.076
 2396SOL    HW2 7749   0.728   3.741   6.101
 2397SOL     OW 7750   0.178   4.669   6.867
 2397SOL    HW1 7751   0.268   4.639   6.853
 2397SOL    HW2 7752   0.134   4.653   6.783
 2398SOL     OW 7753   1.531   4.718   5.783
 2398SOL    HW1 7754   1.461   4.660   5.814
 2398SOL    HW2 7755   1.572   4.752   5.862
 2399SOL     OW 7756   0.335   3.976   7.400
 2399SOL    HW1 7757   0.383   4.058   7.413
 2399SOL    HW2 7758   0.248   3.994   7.436
 2400SOL     OW 7759   1.476   5.146   6.548
 2400SOL    HW1 7760   1.403   5.159   6.609
 2400SOL    HW2 7761   1.463   5.058   6.514
 2401SOL     OW 7762   0.596   4.446   5.851
 2401SOL    HW1 7763   0.604   4.526   5.800
 2401SOL    HW2 7764   0.531   4.466   5.919
 2402SOL     OW 7765   1.279   4.075   6.518
 2402SOL    HW1 7766   1.190   4.042   6.527
 2402SOL    HW2 7767   1.330   4.022   6.580
 2403SOL     OW 7768   0.792   4.341   7.038
 2403SOL    HW1 7769   0.765   4.318   7.127
 2403SOL    HW2 7770   0.751   4.275   6.982
 2404SOL     OW 7771   1.394   4.198   7.263
 2404SOL    HW1 7772   1.396   4.242   7.348
 2404SOL    HW2 7773   1.455   4.125   7.273
 2405SOL     OW 7774   0.956   4.612   7.168
 2405SOL    HW1 7775   1.010   4.541   7.133
 2405SOL    HW2 7776   0.908   4.645   7.092
 2406SOL     OW 7777   0.992   4.137   6.825
 2406SOL    HW1 7778   0.907   4.158   6.863
 2406SOL    HW2 7779   0.971   4.090   6.744
 2407SOL     OW 7780   1.050   4.423   6.012
 2407SOL    HW1 7781   1.066   4.416   6.107
 2407SOL    HW2 7782   0.968   4.376   5.998
 2408SOL     OW 7783   0.073   4.510   6.397
 2408SOL    HW1 7784   0.154   4.515   6.447
 2408SOL    HW2 7785   0.060   4.598   6.363
 2409SOL     OW 7786   0.891   4.072   5.780
 2409SOL    HW1 7787   0.932   4.134   5.719
 2409SOL    HW2 7788   0.908   3.986   5.742
 2410SOL     OW 7789   1.710   4.300   7.415
 2410SOL    HW1 7790   1.672   4.374   7.368
 2410SOL    HW2 7791   1.736   4.239   7.347
 2411SOL     OW 7792   1.377   4.864   6.126
 2411SOL    HW1 7793   1.458   4.850   6.077
 2411SOL    HW2 7794   1.326   4.925   6.072
 2412SOL     OW 7795   0.555   3.908   6.479
 2412SOL    HW1 7796   0.552   3.935   6.571
 2412SOL    HW2 7797   0.551   3.989   6.429
 2413SOL     OW 7798   1.024   5.170   6.056
 2413SOL    HW1 7799   0.946   5.225   6.049
 2413SOL    HW2 7800   1.038   5.159   6.150
 2414SOL     OW 7801   1.800   4.782   6.452
 2414SOL    HW1 7802   1.743   4.765   6.377
 2414SOL    HW2 7803   1.740   4.788   6.527
 2415SOL     OW 7804   1.250   5.240   7.109
 2415SOL    HW1 7805   1.213   5.173   7.168
 2415SOL    HW2 7806   1.179   5.258   7.047
 2416SOL     OW 7807   0.317   4.676   5.833
 2416SOL    HW1 7808   0.399   4.699   5.789
 2416SOL    HW2 7809   0.293   4.591   5.796
 2417SOL     OW 7810   1.477   4.466   6.314
 2417SOL    HW1 7811   1.468   4.421   6.398
 2417SOL    HW2 7812   1.555   4.520   6.323
 2418SOL     OW 7813   0.462   4.988   7.329
 2418SOL    HW1 7814   0.437   4.991   7.237
 2418SOL    HW2 7815   0.380   4.988   7.377
 2419SOL     OW 7816   1.070   0.181   5.794
 2419SOL    HW1 7817   1.079   0.108   5.855
 2419SOL    HW2 7818   1.109   0.150   5.712
 2420SOL     OW 7819   0.204   4.005   7.084
 2420SOL    HW1 7820   0.125   4.056   7.067
 2420SOL    HW2 7821   0.174   3.927   7.129
 2421SOL     OW 7822   1.623   5.100   5.693
 2421SOL    HW1 7823   1.619   5.178   5.637
 2421SOL    HW2 7824   1.555   5.042   5.659
 2422SOL     OW 7825   1.401   3.832   6.018
 2422SOL    HW1 7826   1.391   3.807   5.926
 2422SOL    HW2 7827   1.496   3.838   6.031
 2423SOL     OW 7828   0.386   4.420   6.065
 2423SOL    HW1 7829   0.415   4.329   6.074
 2423SOL    HW2 7830   0.293   4.417   6.085
 2424SOL     OW 7831   1.536   3.949   7.312
 2424SOL    HW1 7832   1.545   3.971   7.404
 2424SOL    HW2 7833   1.468   3.882   7.309
 2425SOL     OW 7834   0.632   3.847   5.692
 2425SOL    HW1 7835   0.704   3.785   5.703
 2425SOL    HW2 7836   0.585   3.815   5.615
 2426SOL     OW 7837   0.766   4.000   7.339
 2426SOL    HW1 7838   0.842   3.942   7.342
 2426SOL    HW2 7839   0.722   3.987   7.423
 2427SOL     OW 7840   1.341   4.313   7.018
 2427SOL    HW1 7841   1.371   4.281   7.103
 2427SOL    HW2 7842   1.377   4.401   7.010
 2428SOL     OW 7843   0.813   5.121   6.521
 2428SOL    HW1 7844   0.893   5.105   6.472
 2428SOL    HW2 7845   0.744   5.126   6.454
 2429SOL     OW 7846   0.928   4.234   6.489
 2429SOL    HW1 7847   0.904   4.225   6.397
 2429SOL    HW2 7848   0.959   4.147   6.514
 2430SOL     OW 7849   0.560   3.785   6.082
 2430SOL    HW1 7850   0.485   3.785   6.142
 2430SOL    HW2 7851   0.549   3.865   6.031
 2431SOL     OW 7852   1.428   4.924   5.625
 2431SOL    HW1 7853   1.459   4.848   5.675
 2431SOL    HW2 7854   1.340   4.940   5.659
 2432SOL     OW 7855   0.305   3.771   5.766
 2432SOL    HW1 7856   0.367   3.835   5.730
 2432SOL    HW2 7857   0.360   3.706   5.810
 2433SOL     OW 7858   0.939   3.970   6.047
 2433SOL    HW1 7859   0.911   4.012   5.965
 2433SOL    HW2 7860   1.033   3.984   6.050
 2434SOL     OW 7861   1.080   4.404   7.046
 2434SOL    HW1 7862   1.011   4.338   7.051
 2434SOL    HW2 7863   1.161   4.354   7.039
 2435SOL     OW 7864   1.264   5.267   6.365
 2435SOL    HW1 7865   1.223   0.049   6.336
 2435SOL    HW2 7866   1.307   5.290   6.447
 2436SOL     OW 7867   0.465   4.873   6.316
 2436SOL    HW1 7868   0.397   4.853   6.380
 2436SOL    HW2 7869   0.425   4.853   6.231
 2437SOL     OW 7870   1.024   4.267   5.608
 2437SOL    HW1 7871   0.982   4.350   5.588
 2437SOL    HW2 7872   1.089   4.288   5.675
 2438SOL     OW 7873   0.087   4.269   6.984
 2438SOL    HW1 7874   0.175   4.277   6.947
 2438SOL    HW2 7875   0.079   4.345   7.042
 2439SOL     OW 7876   0.561   3.951   6.752
 2439SOL    HW1 7877   0.598   3.871   6.788
 2439SOL    HW2 7878   0.469   3.950   6.780
 2440SOL     OW 7879   0.868   4.183   6.226
 2440SOL    HW1 7880   0.822   4.237   6.161
 2440SOL    HW2 7881   0.889   4.102   6.179
 2441SOL     OW 7882   1.015   3.777   6.338
 2441SOL    HW1 7883   0.956   3.769   6.263
 2441SOL    HW2 7884   0.994   3.702   6.393
 2442SOL     OW 7885   1.436   4.890   6.445
 2442SOL    HW1 7886   1.371   4.820   6.441
 2442SOL    HW2 7887   1.462   4.903   6.354
 2443SOL     OW 7888   1.467   4.328   6.564
 2443SOL    HW1 7889   1.417   4.247   6.568
 2443SOL    HW2 7890   1.527   4.323   6.638
 2444SOL     OW 7891   1.846   4.540   5.968
 2444SOL    HW1 7892   1.902   4.489   6.026
 2444SOL    HW2 7893   1.817   4.478   5.901
 2445SOL     OW 7894   0.484   5.143   5.741
 2445SOL    HW1 7895   0.420   5.093   5.792
 2445SOL    HW2 7896   0.480   5.104   5.654
 2446SOL     OW 7897   1.669   4.987   6.233
 2446SOL    HW1 7898   1.763   4.994   6.250
 2446SOL    HW2 7899   1.635   5.075   6.250
 2447SOL     OW 7900   1.394   4.296   5.657
 2447SOL    HW1 7901   1.333   4.276   5.729
 2447SOL    HW2 7902   1.478   4.263   5.688
 2448SOL     OW 7903   0.524   3.987   5.904
 2448SOL    HW1 7904   0.568   3.939   5.834
 2448SOL    HW2 7905   0.503   4.072   5.865
 2449SOL     OW 7906   1.751   4.959   7.162
 2449SOL    HW1 7907   1.838   4.918   7.162
 2449SOL    HW2 7908   1.769   5.052   7.177
 2450SOL     OW 7909   1.065   5.075   6.918
 2450SOL    HW1 7910   0.986   5.049   6.966
 2450SOL    HW2 7911   1.137   5.035   6.966
 2451SOL     OW 7912   1.126   4.926   6.694
 2451SOL    HW1 7913   1.074   4.967   6.763
 2451SOL    HW2 7914   1.081   4.951   6.613
 2452SOL     OW 7915   1.629   4.823   6.663
 2452SOL    HW1 7916   1.625   4.884   6.736
 2452SOL    HW2 7917   1.551   4.841   6.612
 2453SOL     OW 7918   0.918   3.821   6.983
 2453SOL    HW1 7919   0.940   3.802   6.892
 2453SOL    HW2 7920   0.997   3.860   7.020
 2454SOL     OW 7921   0.984   4.838   7.312
 2454SOL    HW1 7922   0.892   4.854   7.328
 2454SOL    HW2 7923   0.986   4.762   7.254
 2455SOL     OW 7924   0.703   4.780   5.959
 2455SOL    HW1 7925   0.694   4.766   6.053
 2455SOL    HW2 7926   0.781   4.731   5.935
 2456SOL     OW 7927   0.421   4.542   6.837
 2456SOL    HW1 7928   0.489   4.548   6.904
 2456SOL    HW2 7929   0.385   4.454   6.848
 2457SOL     OW 7930   1.266   4.101   6.860
 2457SOL    HW1 7931   1.298   4.179   6.906
 2457SOL    HW2 7932   1.176   4.124   6.837
 2458SOL     OW 7933   0.114   5.291   6.903
 2458SOL    HW1 7934   0.051   0.049   6.947
 2458SOL    HW2 7935   0.190   5.289   6.961
 2459SOL     OW 7936   0.345   4.827   6.074
 2459SOL    HW1 7937   0.352   4.906   6.019
 2459SOL    HW2 7938   0.353   4.755   6.012
 2460SOL     OW 7939   0.555   4.260   6.445
 2460SOL    HW1 7940   0.571   4.319   6.371
 2460SOL    HW2 7941   0.619   4.288   6.511
 2461SOL     OW 7942   1.260   5.076   5.971
 2461SOL    HW1 7943   1.316   5.143   6.010
 2461SOL    HW2 7944   1.172   5.098   6.001
 2462SOL     OW 7945   1.268   5.181   6.727
 2462SOL    HW1 7946   1.328   5.194   6.802
 2462SOL    HW2 7947   1.225   5.098   6.746
 2463SOL     OW 7948   1.582   4.347   6.064
 2463SOL    HW1 7949   1.536   4.402   6.128
 2463SOL    HW2 7950   1.627   4.410   6.008
 2464SOL     OW 7951   0.381   5.230   6.903
 2464SOL    HW1 7952   0.363   5.192   6.817
 2464SOL    HW2 7953   0.473   5.256   6.898
 2465SOL     OW 7954   0.413   4.467   7.188
 2465SOL    HW1 7955   0.474   4.513   7.130
 2465SOL    HW2 7956   0.453   4.380   7.200
 2466SOL     OW 7957   1.600   4.503   7.268
 2466SOL    HW1 7958   1.514   4.543   7.260
 2466SOL    HW2 7959   1.653   4.544   7.199
 2467SOL     OW 7960   0.996   3.846   7.341
 2467SOL    HW1 7961   1.051   3.918   7.312
 2467SOL    HW2 7962   1.045   3.767   7.316
 2468SOL     OW 7963   0.498   3.766   7.333
 2468SOL    HW1 7964   0.456   3.711   7.266
 2468SOL    HW2 7965   0.438   3.839   7.345
 2469SOL     OW 7966   0.585   4.597   6.618
 2469SOL    HW1 7967   0.614   4.688   6.616
 2469SOL    HW2 7968   0.529   4.591   6.695
 2470SOL     OW 7969   1.358   4.582   6.616
 2470SOL    HW1 7970   1.276   4.573   6.569
 2470SOL    HW2 7971   1.398   4.495   6.612
 2471SOL     OW 7972   1.205   4.253   5.854
 2471SOL    HW1 7973   1.214   4.174   5.908
 2471SOL    HW2 7974   1.163   4.317   5.910
 2472SOL     OW 7975   0.302   3.928   6.834
 2472SOL    HW1 7976   0.267   3.952   6.920
 2472SOL    HW2 7977   0.289   3.833   6.830
 2473SOL     OW 7978   0.045   5.022   6.862
 2473SOL    HW1 7979   0.075   4.973   6.939
 2473SOL    HW2 7980   0.044   5.113   6.892
 2474SOL     OW 7981   0.725   4.355   6.645
 2474SOL    HW1 7982   0.799   4.339   6.586
 2474SOL    HW2 7983   0.697   4.444   6.623
 2475SOL     OW 7984   1.734   4.684   7.437
 2475SOL    HW1 7985   1.687   4.623   7.380
 2475SOL    HW2 7986   1.677   4.697   7.512
 2476SOL     OW 7987   0.327   3.786   6.220
 2476SOL    HW1 7988   0.307   3.875   6.248
 2476SOL    HW2 7989   0.331   3.736   6.302
 2477SOL     OW 7990   1.615   4.098   5.954
 2477SOL    HW1 7991   1.643   4.034   6.019
 2477SOL    HW2 7992   1.593   4.176   6.004
 2478SOL     OW 7993   1.027   4.483   6.547
 2478SOL    HW1 7994   1.025   4.501   6.641
 2478SOL    HW2 7995   1.001   4.392   6.539
 2479SOL     OW 7996   1.854   5.214   7.171
 2479SOL    HW1 7997   1.851   5.288   7.110
 2479SOL    HW2 7998   1.924   5.237   7.233
 2480SOL     OW 7999   0.354   4.641   7.393
 2480SOL    HW1 8000   0.436   4.660   7.439
 2480SOL    HW2 8001   0.378   4.577   7.326
 2481SOL     OW 8002   1.530   3.997   5.713
 2481SOL    HW1 8003   1.465   3.932   5.740
 2481SOL    HW2 8004   1.563   4.033   5.796
 2482SOL     OW 8005   1.293   4.550   5.618
 2482SOL    HW1 8006   1.335   4.465   5.621
 2482SOL    HW2 8007   1.323   4.589   5.536
 2483SOL     OW 8008   1.059   5.077   6.414
 2483SOL    HW1 8009   1.063   4.993   6.369
 2483SOL    HW2 8010   1.145   5.117   6.400
 2484SOL     OW 8011   0.315   4.534   6.535
 2484SOL    HW1 8012   0.409   4.551   6.531
 2484SOL    HW2 8013   0.308   4.444   6.568
 2485SOL     OW 8014   0.335   4.249   6.601
 2485SOL    HW1 8015   0.300   4.161   6.586
 2485SOL    HW2 8016   0.410   4.255   6.541
 2486SOL     OW 8017   1.135   4.100   7.266
 2486SOL    HW1 8018   1.087   4.155   7.329
 2486SOL    HW2 8019   1.222   4.138   7.263
 2487SOL     OW 8020   1.161   3.927   7.055
 2487SOL    HW1 8021   1.150   3.990   7.127
 2487SOL    HW2 8022   1.200   3.978   6.984
 2488SOL     OW 8023   0.002   5.049   5.794
 2488SOL    HW1 8024   5.225   5.039   5.739
 2488SOL    HW2 8025   0.013   4.964   5.835
 2489SOL     OW 8026   0.984   4.517   6.813
 2489SOL    HW1 8027   1.039   4.493   6.888
 2489SOL    HW2 8028   0.899   4.478   6.833
 2490SOL     OW 8029   0.033   4.283   6.701
 2490SOL    HW1 8030   0.120   4.258   6.668
 2490SOL    HW2 8031   0.038   4.266   6.795
 2491SOL     OW 8032   0.176   4.236   7.302
 2491SOL    HW1 8033   0.239   4.198   7.241
 2491SOL    HW2 8034   0.146   4.316   7.259
 2492SOL     OW 8035   1.376   4.664   7.245
 2492SOL    HW1 8036   1.397   4.757   7.243
 2492SOL    HW2 8037   1.373   4.638   7.153
 2493SOL     OW 8038   0.816   4.293   5.945
 2493SOL    HW1 8039   0.820   4.218   5.885
 2493SOL    HW2 8040   0.742   4.345   5.913
 2494SOL     OW 8041   1.642   4.325   6.773
 2494SOL    HW1 8042   1.632   4.266   6.847
 2494SOL    HW2 8043   1.729   4.305   6.738
 2495SOL     OW 8044   0.210   5.279   7.318
 2495SOL    HW1 8045   0.166   0.020   7.393
 2495SOL    HW2 8046   0.215   5.186   7.341
 2496SOL     OW 8047   0.699   4.175   6.847
 2496SOL    HW1 8048   0.648   4.101   6.817
 2496SOL    HW2 8049   0.696   4.238   6.774
 2497SOL     OW 8050   0.466   4.217   5.772
 2497SOL    HW1 8051   0.525   4.289   5.793
 2497SOL    HW2 8052   0.380   4.259   5.761
 2498SOL     OW 8053   0.151   4.861   7.058
 2498SOL    HW1 8054   0.148   4.811   7.139
 2498SOL    HW2 8055   0.162   4.795   6.989
 2499SOL     OW 8056   1.328   4.770   6.809
 2499SOL    HW1 8057   1.351   4.708   6.740
 2499SOL    HW2 8058   1.256   4.822   6.772
 2500SOL     OW 8059   1.310   4.582   5.893
 2500SOL    HW1 8060   1.234   4.550   5.942
 2500SOL    HW2 8061   1.286   4.567   5.801
 2501SOL     OW 8062   0.076   4.920   6.616
 2501SOL    HW1 8063   0.065   4.960   6.702
 2501SOL    HW2 8064   5.289   4.926   6.576
 2502SOL     OW 8065   0.750   0.037   7.296
 2502SOL    HW1 8066   0.658   0.062   7.305
 2502SOL    HW2 8067   0.773   0.062   7.206
 2503SOL     OW 8068   1.719   3.869   6.096
 2503SOL    HW1 8069   1.792   3.855   6.036
 2503SOL    HW2 8070   1.703   3.784   6.136
 2504SOL     OW 8071   1.277   4.649   6.257
 2504SOL    HW1 8072   1.350   4.588   6.264
 2504SOL    HW2 8073   1.311   4.721   6.205
 2505SOL     OW 8074   0.820   4.994   7.008
 2505SOL    HW1 8075   0.790   5.030   7.092
 2505SOL    HW2 8076   0.744   5.002   6.950
 2506SOL     OW 8077   1.840   3.897   6.553
 2506SOL    HW1 8078   1.869   3.810   6.526
 2506SOL    HW2 8079   1.754   3.907   6.513
 2507SOL     OW 8080   0.272   4.041   6.304
 2507SOL    HW1 8081   0.188   4.080   6.282
 2507SOL    HW2 8082   0.270   4.030   6.399
 2508SOL     OW 8083   0.824   4.728   6.957
 2508SOL    HW1 8084   0.870   4.721   6.873
 2508SOL    HW2 8085   0.828   4.821   6.979
 2509SOL     OW 8086   0.915   4.635   5.876
 2509SOL    HW1 8087   0.977   4.668   5.810
 2509SOL    HW2 8088   0.963   4.565   5.921
 2510SOL     OW 8089   0.365   5.028   7.087
 2510SOL    HW1 8090   0.366   5.098   7.021
 2510SOL    HW2 8091   0.291   4.973   7.062
 2511SOL     OW 8092   1.612   5.004   6.868
 2511SOL    HW1 8093   1.669   4.998   6.945
 2511SOL    HW2 8094   1.550   5.074   6.890
 2512SOL     OW 8095   1.053   4.833   6.296
 2512SOL    HW1 8096   0.981   4.782   6.333
 2512SOL    HW2 8097   1.114   4.767   6.263
 2513SOL     OW 8098   1.021   3.964   6.552
 2513SOL    HW1 8099   1.016   3.916   6.469
 2513SOL    HW2 8100   1.015   3.897   6.619
 2514SOL     OW 8101   1.721   4.116   6.967
 2514SOL    HW1 8102   1.793   4.179   6.965
 2514SOL    HW2 8103   1.751   4.045   6.911
 2515SOL     OW 8104   0.259   5.060   5.872
 2515SOL    HW1 8105   0.166   5.064   5.848
 2515SOL    HW2 8106   0.262   5.097   5.960
 2516SOL     OW 8107   0.116   4.742   7.305
 2516SOL    HW1 8108   0.044   4.705   7.357
 2516SOL    HW2 8109   0.195   4.708   7.348
 2517SOL     OW 8110   0.673   3.920   7.085
 2517SOL    HW1 8111   0.757   3.901   7.043
 2517SOL    HW2 8112   0.696   3.950   7.173
 2518SOL     OW 8113   0.081   4.075   5.627
 2518SOL    HW1 8114   0.002   4.026   5.603
 2518SOL    HW2 8115   0.098   4.132   5.552
 2519SOL     OW 8116   1.431   4.582   6.987
 2519SOL    HW1 8117   1.382   4.643   6.931
 2519SOL    HW2 8118   1.520   4.584   6.953
 2520SOL     OW 8119   0.055   3.857   5.828
 2520SOL    HW1 8120   0.054   3.953   5.823
 2520SOL    HW2 8121   0.145   3.833   5.808
 2521SOL     OW 8122   1.182   5.065   5.706
 2521SOL    HW1 8123   1.091   5.036   5.707
 2521SOL    HW2 8124   1.210   5.056   5.797
 2522SOL     OW 8125   0.619   4.555   7.021
 2522SOL    HW1 8126   0.675   4.631   7.004
 2522SOL    HW2 8127   0.679   4.481   7.029
 2523SOL     OW 8128   0.717   4.288   7.292
 2523SOL    HW1 8129   0.757   4.350   7.353
 2523SOL    HW2 8130   0.747   4.202   7.322
 2524SOL     OW 8131   1.472   4.924   7.218
 2524SOL    HW1 8132   1.460   4.936   7.312
 2524SOL    HW2 8133   1.566   4.937   7.205
 2525SOL     OW 8134   1.670   4.606   6.841
 2525SOL    HW1 8135   1.663   4.520   6.799
 2525SOL    HW2 8136   1.660   4.669   6.770
 2526SOL     OW 8137   1.217   4.043   6.044
 2526SOL    HW1 8138   1.281   3.972   6.035
 2526SOL    HW2 8139   1.246   4.092   6.121
 2527SOL     OW 8140   0.591   4.462   6.254
 2527SOL    HW1 8141   0.629   4.548   6.239
 2527SOL    HW2 8142   0.521   4.455   6.189
 2528SOL     OW 8143   1.763   4.086   7.237
 2528SOL    HW1 8144   1.746   4.100   7.144
 2528SOL    HW2 8145   1.691   4.029   7.265
 2529SOL     OW 8146   1.745   4.657   7.098
 2529SOL    HW1 8147   1.741   4.752   7.111
 2529SOL    HW2 8148   1.729   4.646   7.004
 2530SOL     OW 8149   0.849   5.095   5.605
 2530SOL    HW1 8150   0.830   5.096   5.699
 2530SOL    HW2 8151   0.868   5.186   5.583
 2531SOL     OW 8152   0.868   4.691   6.441
 2531SOL    HW1 8153   0.917   4.619   6.481
 2531SOL    HW2 8154   0.833   4.741   6.515
 2532SOL     OW 8155   1.080   4.713   5.675
 2532SOL    HW1 8156   1.057   4.763   5.597
 2532SOL    HW2 8157   1.154   4.659   5.649
 2533SOL     OW 8158   0.220   5.025   7.442
 2533SOL    HW1 8159   0.155   4.959   7.419
 2533SOL    HW2 8160   0.210   5.037   7.537
 2534SOL     OW 8161   0.082   4.931   6.242
 2534SOL    HW1 8162   0.100   4.909   6.333
 2534SOL    HW2 8163   0.168   4.937   6.201
 2535SOL     OW 8164   0.670   5.106   7.195
 2535SOL    HW1 8165   0.593   5.073   7.242
 2535SOL    HW2 8166   0.701   5.180   7.248
 2536SOL     OW 8167   1.813   3.909   6.824
 2536SOL    HW1 8168   1.823   3.815   6.839
 2536SOL    HW2 8169   1.822   3.919   6.729
 2537SOL     OW 8170   0.434   4.160   6.110
 2537SOL    HW1 8171   0.462   4.087   6.054
 2537SOL    HW2 8172   0.387   4.118   6.182
 2538SOL     OW 8173   1.707   5.223   6.705
 2538SOL    HW1 8174   1.633   5.207   6.646
 2538SOL    HW2 8175   1.714   5.144   6.758
 2539SOL     OW 8176   0.336   4.283   6.877
 2539SOL    HW1 8177   0.389   4.223   6.930
 2539SOL    HW2 8178   0.350   4.253   6.787
 2540SOL     OW 8179   1.432   3.949   6.704
 2540SOL    HW1 8180   1.458   3.869   6.750
 2540SOL    HW2 8181   1.380   3.998   6.768
 2541SOL     OW 8182   1.009   3.743   6.729
 2541SOL    HW1 8183   0.954   3.675   6.690
 2541SOL    HW2 8184   1.097   3.705   6.731
 2542SOL     OW 8185   0.803   5.047   5.870
 2542SOL    HW1 8186   0.740   4.977   5.889
 2542SOL    HW2 8187   0.856   5.053   5.949
 2543SOL     OW 8188   0.639   0.002   6.872
 2543SOL    HW1 8189   0.643   0.057   6.951
 2543SOL    HW2 8190   0.730   5.285   6.850
 2544SOL     OW 8191   1.352   3.778   5.751
 2544SOL    HW1 8192   1.380   3.715   5.684
 2544SOL    HW2 8193   1.265   3.748   5.777
 2545SOL     OW 8194   1.297   4.184   6.268
 2545SOL    HW1 8195   1.243   4.263   6.275
 2545SOL    HW2 8196   1.293   4.145   6.354
 2546SOL     OW 8197   1.587   3.927   6.463
 2546SOL    HW1 8198   1.525   3.947   6.534
 2546SOL    HW2 8199   1.586   4.005   6.408
 2547SOL     OW 8200   0.047   4.791   5.876
 2547SOL    HW1 8201   0.137   4.761   5.867
 2547SOL    HW2 8202   0.000   4.716   5.913
 2548SOL     OW 8203   0.230   4.356   7.566
 2548SOL    HW1 8204   0.154   4.317   7.610
 2548SOL    HW2 8205   0.223   4.325   7.475
 2549SOL     OW 8206   1.766   4.323   7.680
 2549SOL    HW1 8207   1.747   4.318   7.586
 2549SOL    HW2 8208   1.726   4.245   7.717
 2550SOL     OW 8209   0.279   0.133   7.957
 2550SOL    HW1 8210   0.244   0.211   7.998
 2550SOL    HW2 8211   0.287   0.156   7.864
 2551SOL     OW 8212   0.225   5.157   7.990
 2551SOL    HW1 8213   0.231   5.253   7.995
 2551SOL    HW2 8214   0.157   5.134   8.053
 2552SOL     OW 8215   0.584   4.707   7.580
 2552SOL    HW1 8216   0.630   4.755   7.512
 2552SOL    HW2 8217   0.625   4.736   7.662
 2553SOL     OW 8218   0.002   5.298   7.524
 2553SOL    HW1 8219   0.017   5.211   7.561
 2553SOL    HW2 8220   0.019   0.058   7.596
 2554SOL     OW 8221   1.683   4.593   8.036
 2554SOL    HW1 8222   1.764   4.603   0.005
 2554SOL    HW2 8223   1.672   4.676   7.990
 2555SOL     OW 8224   1.655   4.825   7.875
 2555SOL    HW1 8225   1.743   4.845   7.843
 2555SOL    HW2 8226   1.637   4.895   7.938
 2556SOL     OW 8227   0.800   3.718   7.938
 2556SOL    HW1 8228   0.849   3.799   7.923
 2556SOL    HW2 8229   0.709   3.747   7.949
 2557SOL     OW 8230   1.532   4.720   7.647
 2557SOL    HW1 8231   1.466   4.659   7.680
 2557SOL    HW2 8232   1.575   4.754   7.726
 2558SOL     OW 8233   0.589   4.448   7.708
 2558SOL    HW1 8234   0.597   4.529   7.658
 2558SOL    HW2 8235   0.534   4.470   7.783
 2559SOL     OW 8236   0.054   4.541   0.204
 2559SOL    HW1 8237   0.125   4.489   0.166
 2559SOL    HW2 8238   0.031   4.604   0.136
 2560SOL     OW 8239   0.880   4.070   7.637
 2560SOL    HW1 8240   0.926   4.130   7.578
 2560SOL    HW2 8241   0.915   3.983   7.614
 2561SOL     OW 8242   0.318   4.673   7.693
 2561SOL    HW1 8243   0.400   4.698   7.650
 2561SOL    HW2 8244   0.295   4.589   7.653
 2562SOL     OW 8245   1.084   0.192   7.648
 2562SOL    HW1 8246   1.066   0.126   7.714
 2562SOL    HW2 8247   1.100   0.143   7.568
 2563SOL     OW 8248   1.626   5.100   7.550
 2563SOL    HW1 8249   1.612   5.180   7.501
 2563SOL    HW2 8250   1.557   5.041   7.521
 2564SOL     OW 8251   1.415   3.854   7.864
 2564SOL    HW1 8252   1.403   3.820   7.776
 2564SOL    HW2 8253   1.510   3.852   7.878
 2565SOL     OW 8254   0.380   4.424   7.922
 2565SOL    HW1 8255   0.401   4.330   7.926
 2565SOL    HW2 8256   0.286   4.428   7.943
 2566SOL     OW 8257   0.626   3.844   7.559
 2566SOL    HW1 8258   0.704   3.789   7.568
 2566SOL    HW2 8259   0.584   3.813   7.479
 2567SOL     OW 8260   0.527   3.798   7.961
 2567SOL    HW1 8261   0.441   3.803   8.001
 2567SOL    HW2 8262   0.528   3.868   7.896
 2568SOL     OW 8263   1.428   4.924   7.488
 2568SOL    HW1 8264   1.459   4.849   7.539
 2568SOL    HW2 8265   1.340   4.942   7.521
 2569SOL     OW 8266   0.306   3.768   7.620
 2569SOL    HW1 8267   0.368   3.832   7.585
 2569SOL    HW2 8268   0.360   3.705   7.667
 2570SOL     OW 8269   0.944   3.949   7.911
 2570SOL    HW1 8270   0.899   4.014   7.856
 2570SOL    HW2 8271   1.035   3.979   7.914
 2571SOL     OW 8272   0.448   4.883   0.090
 2571SOL    HW1 8273   0.375   4.900   0.150
 2571SOL    HW2 8274   0.405   4.863   0.007
 2572SOL     OW 8275   1.026   4.267   7.466
 2572SOL    HW1 8276   0.981   4.350   7.449
 2572SOL    HW2 8277   1.086   4.287   7.538
 2573SOL     OW 8278   1.869   4.542   7.802
 2573SOL    HW1 8279   1.872   4.509   7.892
 2573SOL    HW2 8280   1.829   4.470   7.752
 2574SOL     OW 8281   0.478   5.146   7.603
 2574SOL    HW1 8282   0.417   5.095   7.656
 2574SOL    HW2 8283   0.478   5.102   7.518
 2575SOL     OW 8284   1.394   4.296   7.519
 2575SOL    HW1 8285   1.333   4.276   7.591
 2575SOL    HW2 8286   1.478   4.262   7.549
 2576SOL     OW 8287   0.527   3.989   7.771
 2576SOL    HW1 8288   0.569   3.939   7.701
 2576SOL    HW2 8289   0.504   4.072   7.729
 2577SOL     OW 8290   0.705   4.780   7.815
 2577SOL    HW1 8291   0.691   4.771   7.909
 2577SOL    HW2 8292   0.786   4.732   7.799
 2578SOL     OW 8293   0.348   4.818   7.929
 2578SOL    HW1 8294   0.344   4.902   7.883
 2578SOL    HW2 8295   0.350   4.752   7.859
 2579SOL     OW 8296   1.226   5.114   7.831
 2579SOL    HW1 8297   1.311   5.125   7.874
 2579SOL    HW2 8298   1.175   5.061   7.892
 2580SOL     OW 8299   1.587   4.353   7.921
 2580SOL    HW1 8300   1.573   4.412   7.995
 2580SOL    HW2 8301   1.628   4.408   7.854
 2581SOL     OW 8302   1.204   4.251   7.716
 2581SOL    HW1 8303   1.208   4.167   7.762
 2581SOL    HW2 8304   1.177   4.314   7.783
 2582SOL     OW 8305   1.618   4.102   7.815
 2582SOL    HW1 8306   1.640   4.035   7.880
 2582SOL    HW2 8307   1.593   4.179   7.867
 2583SOL     OW 8308   1.530   3.999   7.575
 2583SOL    HW1 8309   1.465   3.933   7.601
 2583SOL    HW2 8310   1.563   4.034   7.658
 2584SOL     OW 8311   1.295   4.552   7.482
 2584SOL    HW1 8312   1.336   4.465   7.483
 2584SOL    HW2 8313   1.325   4.591   7.399
 2585SOL     OW 8314   0.004   5.052   7.655
 2585SOL    HW1 8315   5.224   5.045   7.604
 2585SOL    HW2 8316   0.017   4.964   7.692
 2586SOL     OW 8317   0.837   4.321   7.762
 2586SOL    HW1 8318   0.829   4.230   7.734
 2586SOL    HW2 8319   0.748   4.354   7.763
 2587SOL     OW 8320   0.463   4.217   7.639
 2587SOL    HW1 8321   0.523   4.289   7.654
 2587SOL    HW2 8322   0.378   4.259   7.625
 2588SOL     OW 8323   1.310   4.578   7.755
 2588SOL    HW1 8324   1.222   4.575   7.794
 2588SOL    HW2 8325   1.294   4.566   7.661
 2589SOL     OW 8326   1.712   3.869   7.948
 2589SOL    HW1 8327   1.789   3.861   7.893
 2589SOL    HW2 8328   1.713   3.791   8.004
 2590SOL     OW 8329   0.926   4.636   7.756
 2590SOL    HW1 8330   0.980   4.661   7.680
 2590SOL    HW2 8331   0.923   4.540   7.752
 2591SOL     OW 8332   0.259   5.062   7.744
 2591SOL    HW1 8333   0.167   5.068   7.720
 2591SOL    HW2 8334   0.264   5.100   7.831
 2592SOL     OW 8335   0.079   4.068   7.489
 2592SOL    HW1 8336   5.298   4.026   7.462
 2592SOL    HW2 8337   0.099   4.129   7.418
 2593SOL     OW 8338   0.080   3.860   7.736
 2593SOL    HW1 8339   0.066   3.948   7.703
 2593SOL    HW2 8340   0.153   3.826   7.685
 2594SOL     OW 8341   1.182   5.059   7.564
 2594SOL    HW1 8342   1.089   5.034   7.562
 2594SOL    HW2 8343   1.200   5.073   7.657
 2595SOL     OW 8344   1.215   4.042   7.903
 2595SOL    HW1 8345   1.288   3.981   7.892
 2595SOL    HW2 8346   1.237   4.090   7.984
 2596SOL     OW 8347   0.623   4.463   8.049
 2596SOL    HW1 8348   0.629   4.542   0.023
 2596SOL    HW2 8349   0.532   4.460   8.021
 2597SOL     OW 8350   0.851   5.094   7.466
 2597SOL    HW1 8351   0.832   5.095   7.559
 2597SOL    HW2 8352   0.867   5.186   7.444
 2598SOL     OW 8353   1.075   4.704   7.538
 2598SOL    HW1 8354   1.054   4.759   7.462
 2598SOL    HW2 8355   1.152   4.655   7.511
 2599SOL     OW 8356   0.393   4.154   7.978
 2599SOL    HW1 8357   0.438   4.095   7.917
 2599SOL    HW2 8358   0.434   4.137   8.063
 2600SOL     OW 8359   0.805   5.047   7.730
 2600SOL    HW1 8360   0.745   4.974   7.749
 2600SOL    HW2 8361   0.828   5.083   7.816
 2601SOL     OW 8362   1.352   3.777   7.610
 2601SOL    HW1 8363   1.381   3.711   7.546
 2601SOL    HW2 8364   1.266   3.746   7.638
 2602SOL     OW 8365   0.048   4.792   7.725
 2602SOL    HW1 8366   0.138   4.759   7.724
 2602SOL    HW2 8367   0.000   4.730   7.779
 2603SOL     OW 8368   2.081   0.625   0.119
 2603SOL    HW1 8369   2.002   0.590   0.161
 2603SOL    HW2 8370   2.106   0.557   0.056
 2604SOL     OW 8371   2.080   0.284   0.993
 2604SOL    HW1 8372   2.109   0.249   1.077
 2604SOL    HW2 8373   1.995   0.243   0.978
 2605SOL     OW 8374   1.866   0.386   0.638
 2605SOL    HW1 8375   1.782   0.407   0.678
 2605SOL    HW2 8376   1.849   0.307   0.586
 2606SOL     OW 8377   2.429   1.286   1.174
 2606SOL    HW1 8378   2.341   1.289   1.136
 2606SOL    HW2 8379   2.444   1.375   1.208
 2607SOL     OW 8380   3.422   1.512   0.707
 2607SOL    HW1 8381   3.379   1.492   0.790
 2607SOL    HW2 8382   3.350   1.515   0.643
 2608SOL     OW 8383   2.993   0.698   0.703
 2608SOL    HW1 8384   3.042   0.779   0.688
 2608SOL    HW2 8385   2.946   0.713   0.785
 2609SOL     OW 8386   3.633   0.600   0.231
 2609SOL    HW1 8387   3.590   0.603   0.146
 2609SOL    HW2 8388   3.591   0.526   0.276
 2610SOL     OW 8389   2.618   1.143   1.040
 2610SOL    HW1 8390   2.549   1.177   1.096
 2610SOL    HW2 8391   2.653   1.220   0.995
 2611SOL     OW 8392   2.726   0.779   1.822
 2611SOL    HW1 8393   2.716   0.850   1.885
 2611SOL    HW2 8394   2.751   0.822   1.740
 2612SOL     OW 8395   2.547   1.003   0.650
 2612SOL    HW1 8396   2.612   0.991   0.718
 2612SOL    HW2 8397   2.478   1.055   0.691
 2613SOL     OW 8398   2.572   1.151   1.811
 2613SOL    HW1 8399   2.619   1.230   1.838
 2613SOL    HW2 8400   2.488   1.184   1.777
 2614SOL     OW 8401   2.192   1.427   1.068
 2614SOL    HW1 8402   2.120   1.389   1.017
 2614SOL    HW2 8403   2.243   1.477   1.004
 2615SOL     OW 8404   3.323   1.499   1.353
 2615SOL    HW1 8405   3.372   1.581   1.363
 2615SOL    HW2 8406   3.263   1.498   1.428
 2616SOL     OW 8407   2.306   0.398   1.487
 2616SOL    HW1 8408   2.381   0.339   1.485
 2616SOL    HW2 8409   2.230   0.341   1.502
 2617SOL     OW 8410   3.473   0.452   0.738
 2617SOL    HW1 8411   3.395   0.474   0.687
 2617SOL    HW2 8412   3.491   0.530   0.790
 2618SOL     OW 8413   2.082   1.715   0.472
 2618SOL    HW1 8414   2.104   1.791   0.526
 2618SOL    HW2 8415   2.155   1.705   0.412
 2619SOL     OW 8416   2.998   1.341   1.692
 2619SOL    HW1 8417   3.039   1.337   1.779
 2619SOL    HW2 8418   2.946   1.262   1.686
 2620SOL     OW 8419   2.089   1.441   0.531
 2620SOL    HW1 8420   2.074   1.535   0.536
 2620SOL    HW2 8421   2.030   1.404   0.596
 2621SOL     OW 8422   2.118   1.090   0.891
 2621SOL    HW1 8423   2.116   1.004   0.932
 2621SOL    HW2 8424   2.060   1.144   0.945
 2622SOL     OW 8425   2.473   1.791   1.428
 2622SOL    HW1 8426   2.392   1.773   1.476
 2622SOL    HW2 8427   2.497   1.880   1.454
 2623SOL     OW 8428   2.491   0.961   0.133
 2623SOL    HW1 8429   2.441   1.039   0.107
 2623SOL    HW2 8430   2.541   0.989   0.209
 2624SOL     OW 8431   3.448   0.134   1.457
 2624SOL    HW1 8432   3.468   0.219   1.418
 2624SOL    HW2 8433   3.447   0.151   1.551
 2625SOL     OW 8434   1.976   0.651   0.561
 2625SOL    HW1 8435   1.948   0.562   0.582
 2625SOL    HW2 8436   1.968   0.699   0.644
 2626SOL     OW 8437   3.707   1.759   0.333
 2626SOL    HW1 8438   3.770   1.729   0.398
 2626SOL    HW2 8439   3.732   1.849   0.315
 2627SOL     OW 8440   1.890   1.596   0.111
 2627SOL    HW1 8441   1.877   1.508   0.145
 2627SOL    HW2 8442   1.874   1.653   0.187
 2628SOL     OW 8443   3.551   0.919   0.643
 2628SOL    HW1 8444   3.633   0.876   0.621
 2628SOL    HW2 8445   3.528   0.970   0.565
 2629SOL     OW 8446   3.508   1.105   0.434
 2629SOL    HW1 8447   3.588   1.120   0.384
 2629SOL    HW2 8448   3.513   1.167   0.507
 2630SOL     OW 8449   1.984   0.743   1.585
 2630SOL    HW1 8450   2.076   0.768   1.595
 2630SOL    HW2 8451   1.936   0.826   1.594
 2631SOL     OW 8452   2.475   1.385   0.735
 2631SOL    HW1 8453   2.429   1.302   0.744
 2631SOL    HW2 8454   2.459   1.411   0.644
 2632SOL     OW 8455   3.151   1.239   1.423
 2632SOL    HW1 8456   3.183   1.171   1.364
 2632SOL    HW2 8457   3.208   1.232   1.500
 2633SOL     OW 8458   2.672   0.026   0.528
 2633SOL    HW1 8459   2.702   0.112   0.499
 2633SOL    HW2 8460   2.577   0.030   0.522
 2634SOL     OW 8461   2.053   0.967   1.270
 2634SOL    HW1 8462   2.137   0.925   1.255
 2634SOL    HW2 8463   1.989   0.911   1.225
 2635SOL     OW 8464   3.373   1.006   0.211
 2635SOL    HW1 8465   3.312   0.940   0.243
 2635SOL    HW2 8466   3.424   1.030   0.288
 2636SOL     OW 8467   3.047   1.806   1.621
 2636SOL    HW1 8468   3.059   1.864   1.546
 2636SOL    HW2 8469   3.063   1.718   1.586
 2637SOL     OW 8470   2.188   0.265   1.810
 2637SOL    HW1 8471   2.240   0.341   1.837
 2637SOL    HW2 8472   2.102   0.280   1.849
 2638SOL     OW 8473   3.328   1.420   0.952
 2638SOL    HW1 8474   3.260   1.434   1.017
 2638SOL    HW2 8475   3.316   1.328   0.925
 2639SOL     OW 8476   3.521   1.739   0.581
 2639SOL    HW1 8477   3.500   1.711   0.492
 2639SOL    HW2 8478   3.496   1.665   0.636
 2640SOL     OW 8479   2.460   0.715   0.282
 2640SOL    HW1 8480   2.478   0.791   0.227
 2640SOL    HW2 8481   2.394   0.745   0.345
 2641SOL     OW 8482   3.140   0.346   0.931
 2641SOL    HW1 8483   3.049   0.317   0.943
 2641SOL    HW2 8484   3.190   0.296   0.996
 2642SOL     OW 8485   3.448   1.671   0.319
 2642SOL    HW1 8486   3.539   1.701   0.312
 2642SOL    HW2 8487   3.422   1.654   0.228
 2643SOL     OW 8488   2.656   0.618   1.451
 2643SOL    HW1 8489   2.629   0.597   1.540
 2643SOL    HW2 8490   2.613   0.552   1.396
 2644SOL     OW 8491   3.257   0.475   1.678
 2644SOL    HW1 8492   3.258   0.519   1.763
 2644SOL    HW2 8493   3.320   0.404   1.687
 2645SOL     OW 8494   2.818   0.888   1.582
 2645SOL    HW1 8495   2.872   0.817   1.547
 2645SOL    HW2 8496   2.770   0.921   1.506
 2646SOL     OW 8497   2.856   0.417   1.236
 2646SOL    HW1 8498   2.771   0.438   1.275
 2646SOL    HW2 8499   2.833   0.368   1.157
 2647SOL     OW 8500   2.914   0.698   0.427
 2647SOL    HW1 8501   2.929   0.691   0.522
 2647SOL    HW2 8502   2.831   0.652   0.412
 2648SOL     OW 8503   1.951   0.821   0.776
 2648SOL    HW1 8504   2.032   0.814   0.827
 2648SOL    HW2 8505   1.908   0.899   0.811
 2649SOL     OW 8506   1.989   1.846   1.577
 2649SOL    HW1 8507   1.990   1.826   1.671
 2649SOL    HW2 8508   1.897   1.840   1.552
 2650SOL     OW 8509   2.748   0.359   0.202
 2650SOL    HW1 8510   2.792   0.406   0.131
 2650SOL    HW2 8511   2.730   0.272   0.166
 2651SOL     OW 8512   3.570   0.575   1.828
 2651SOL    HW1 8513   3.533   0.649   1.780
 2651SOL    HW2 8514   3.599   0.515   1.760
 2652SOL     OW 8515   3.238   1.142   0.542
 2652SOL    HW1 8516   3.316   1.128   0.488
 2652SOL    HW2 8517   3.185   1.204   0.492
 2653SOL     OW 8518   2.388   0.201   0.883
 2653SOL    HW1 8519   2.411   0.216   0.975
 2653SOL    HW2 8520   2.411   0.283   0.839
 2654SOL     OW 8521   2.868   1.445   0.473
 2654SOL    HW1 8522   2.829   1.517   0.424
 2654SOL    HW2 8523   2.851   1.467   0.565
 2655SOL     OW 8524   2.217   1.808   0.860
 2655SOL    HW1 8525   2.260   1.723   0.869
 2655SOL    HW2 8526   2.286   1.872   0.878
 2656SOL     OW 8527   3.661   1.058   0.868
 2656SOL    HW1 8528   3.606   1.039   0.792
 2656SOL    HW2 8529   3.600   1.063   0.941
 2657SOL     OW 8530   3.090   1.539   1.513
 2657SOL    HW1 8531   3.076   1.466   1.574
 2657SOL    HW2 8532   3.027   1.523   1.442
 2658SOL     OW 8533   2.189   0.943   0.253
 2658SOL    HW1 8534   2.262   0.981   0.203
 2658SOL    HW2 8535   2.186   0.852   0.224
 2659SOL     OW 8536   3.340   0.742   0.727
 2659SOL    HW1 8537   3.330   0.698   0.811
 2659SOL    HW2 8538   3.417   0.797   0.737
 2660SOL     OW 8539   2.328   1.264   1.737
 2660SOL    HW1 8540   2.300   1.269   1.646
 2660SOL    HW2 8541   2.246   1.262   1.787
 2661SOL     OW 8542   2.969   1.781   0.225
 2661SOL    HW1 8543   2.914   1.740   0.291
 2661SOL    HW2 8544   2.990   1.710   0.164
 2662SOL     OW 8545   2.059   0.278   1.502
 2662SOL    HW1 8546   1.980   0.332   1.497
 2662SOL    HW2 8547   2.050   0.230   1.584
 2663SOL     OW 8548   3.495   1.373   0.082
 2663SOL    HW1 8549   3.454   1.460   0.081
 2663SOL    HW2 8550   3.424   1.312   0.064
 2664SOL     OW 8551   2.327   1.739   0.323
 2664SOL    HW1 8552   2.369   1.796   0.386
 2664SOL    HW2 8553   2.397   1.711   0.264
 2665SOL     OW 8554   3.276   0.099   0.446
 2665SOL    HW1 8555   3.266   0.079   0.353
 2665SOL    HW2 8556   3.368   0.127   0.455
 2666SOL     OW 8557   2.118   1.792   1.232
 2666SOL    HW1 8558   2.169   1.727   1.280
 2666SOL    HW2 8559   2.108   1.755   1.144
 2667SOL     OW 8560   2.799   1.698   0.899
 2667SOL    HW1 8561   2.877   1.646   0.920
 2667SOL    HW2 8562   2.755   1.649   0.830
 2668SOL     OW 8563   2.247   0.698   0.477
 2668SOL    HW1 8564   2.273   0.606   0.486
 2668SOL    HW2 8565   2.155   0.700   0.500
 2669SOL     OW 8566   3.402   0.228   1.724
 2669SOL    HW1 8567   3.409   0.246   1.817
 2669SOL    HW2 8568   3.327   0.169   1.716
 2670SOL     OW 8569   2.487   0.136   0.124
 2670SOL    HW1 8570   2.578   0.108   0.134
 2670SOL    HW2 8571   2.459   0.098   0.041
 2671SOL     OW 8572   2.645   0.313   1.767
 2671SOL    HW1 8573   2.701   0.236   1.768
 2671SOL    HW2 8574   2.595   0.307   1.848
 2672SOL     OW 8575   2.738   1.521   1.194
 2672SOL    HW1 8576   2.723   1.485   1.106
 2672SOL    HW2 8577   2.808   1.467   1.230
 2673SOL     OW 8578   3.203   0.589   1.432
 2673SOL    HW1 8579   3.234   0.557   1.517
 2673SOL    HW2 8580   3.239   0.677   1.425
 2674SOL     OW 8581   2.676   1.396   0.938
 2674SOL    HW1 8582   2.761   1.384   0.894
 2674SOL    HW2 8583   2.612   1.396   0.867
 2675SOL     OW 8584   2.789   0.510   0.903
 2675SOL    HW1 8585   2.765   0.502   0.810
 2675SOL    HW2 8586   2.821   0.423   0.927
 2676SOL     OW 8587   2.404   0.062   0.512
 2676SOL    HW1 8588   2.317   0.060   0.552
 2676SOL    HW2 8589   2.398   0.131   0.446
 2677SOL     OW 8590   3.296   1.199   0.037
 2677SOL    HW1 8591   3.320   1.125   0.092
 2677SOL    HW2 8592   3.207   1.223   0.065
 2678SOL     OW 8593   2.162   0.068   0.204
 2678SOL    HW1 8594   2.218   0.138   0.172
 2678SOL    HW2 8595   2.215   5.289   0.198
 2679SOL     OW 8596   2.806   0.255   0.455
 2679SOL    HW1 8597   2.778   0.302   0.376
 2679SOL    HW2 8598   2.898   0.278   0.465
 2680SOL     OW 8599   2.942   0.681   1.459
 2680SOL    HW1 8600   2.873   0.615   1.465
 2680SOL    HW2 8601   3.023   0.630   1.453
 2681SOL     OW 8602   3.085   1.570   0.794
 2681SOL    HW1 8603   3.103   1.637   0.728
 2681SOL    HW2 8604   3.154   1.583   0.860
 2682SOL     OW 8605   2.329   1.150   0.735
 2682SOL    HW1 8606   2.260   1.130   0.798
 2682SOL    HW2 8607   2.289   1.133   0.649
 2683SOL     OW 8608   3.131   1.794   0.606
 2683SOL    HW1 8609   3.180   1.857   0.553
 2683SOL    HW2 8610   3.066   1.847   0.652
 2684SOL     OW 8611   2.892   0.530   0.030
 2684SOL    HW1 8612   2.851   0.611   0.001
 2684SOL    HW2 8613   2.955   0.557   0.097
 2685SOL     OW 8614   1.940   0.554   1.393
 2685SOL    HW1 8615   2.032   0.553   1.365
 2685SOL    HW2 8616   1.935   0.624   1.457
 2686SOL     OW 8617   2.418   0.238   1.158
 2686SOL    HW1 8618   2.449   0.151   1.186
 2686SOL    HW2 8619   2.326   0.240   1.184
 2687SOL     OW 8620   2.729   0.460   0.639
 2687SOL    HW1 8621   2.686   0.514   0.573
 2687SOL    HW2 8622   2.751   0.379   0.594
 2688SOL     OW 8623   2.839   0.061   0.762
 2688SOL    HW1 8624   2.775   0.055   0.691
 2688SOL    HW2 8625   2.850   5.271   0.793
 2689SOL     OW 8626   3.298   1.163   0.857
 2689SOL    HW1 8627   3.230   1.096   0.856
 2689SOL    HW2 8628   3.322   1.175   0.765
 2690SOL     OW 8629   3.329   0.605   0.978
 2690SOL    HW1 8630   3.280   0.523   0.982
 2690SOL    HW2 8631   3.389   0.600   1.053
 2691SOL     OW 8632   3.710   0.816   0.387
 2691SOL    HW1 8633   3.762   0.763   0.448
 2691SOL    HW2 8634   3.679   0.753   0.321
 2692SOL     OW 8635   2.344   1.439   0.172
 2692SOL    HW1 8636   2.272   1.397   0.219
 2692SOL    HW2 8637   2.350   1.391   0.090
 2693SOL     OW 8638   3.532   1.265   0.648
 2693SOL    HW1 8639   3.627   1.269   0.661
 2693SOL    HW2 8640   3.501   1.354   0.669
 2694SOL     OW 8641   3.261   0.579   0.087
 2694SOL    HW1 8642   3.198   0.560   0.156
 2694SOL    HW2 8643   3.317   0.502   0.083
 2695SOL     OW 8644   2.385   0.268   0.329
 2695SOL    HW1 8645   2.426   0.212   0.262
 2695SOL    HW2 8646   2.370   0.351   0.284
 2696SOL     OW 8647   3.615   1.238   1.574
 2696SOL    HW1 8648   3.702   1.199   1.571
 2696SOL    HW2 8649   3.630   1.328   1.603
 2697SOL     OW 8650   2.921   1.354   1.334
 2697SOL    HW1 8651   2.846   1.323   1.385
 2697SOL    HW2 8652   2.997   1.312   1.375
 2698SOL     OW 8653   3.469   1.625   1.653
 2698SOL    HW1 8654   3.464   1.659   1.564
 2698SOL    HW2 8655   3.552   1.578   1.656
 2699SOL     OW 8656   2.990   1.203   1.106
 2699SOL    HW1 8657   2.931   1.241   1.171
 2699SOL    HW2 8658   2.956   1.234   1.022
 2700SOL     OW 8659   3.491   1.099   1.078
 2700SOL    HW1 8660   3.487   1.161   1.151
 2700SOL    HW2 8661   3.411   1.115   1.027
 2701SOL     OW 8662   2.767   0.106   1.391
 2701SOL    HW1 8663   2.797   0.072   1.306
 2701SOL    HW2 8664   2.844   0.148   1.429
 2702SOL     OW 8665   2.846   1.115   1.722
 2702SOL    HW1 8666   2.754   1.130   1.743
 2702SOL    HW2 8667   2.845   1.037   1.666
 2703SOL     OW 8668   2.576   1.063   0.380
 2703SOL    HW1 8669   2.559   1.045   0.472
 2703SOL    HW2 8670   2.653   1.010   0.359
 2704SOL     OW 8671   2.280   0.815   1.251
 2704SOL    HW1 8672   2.349   0.824   1.317
 2704SOL    HW2 8673   2.245   0.727   1.266
 2705SOL     OW 8674   3.129   0.379   1.272
 2705SOL    HW1 8675   3.162   0.456   1.319
 2705SOL    HW2 8676   3.039   0.401   1.249
 2706SOL     OW 8677   1.932   1.573   1.352
 2706SOL    HW1 8678   1.902   1.646   1.298
 2706SOL    HW2 8679   2.027   1.577   1.347
 2707SOL     OW 8680   2.208   1.109   0.492
 2707SOL    HW1 8681   2.215   1.182   0.430
 2707SOL    HW2 8682   2.216   1.031   0.438
 2708SOL     OW 8683   2.416   0.538   0.861
 2708SOL    HW1 8684   2.432   0.596   0.786
 2708SOL    HW2 8685   2.481   0.565   0.926
 2709SOL     OW 8686   3.109   1.347   0.393
 2709SOL    HW1 8687   3.165   1.419   0.422
 2709SOL    HW2 8688   3.022   1.370   0.425
 2710SOL     OW 8689   3.142   1.457   1.146
 2710SOL    HW1 8690   3.197   1.459   1.224
 2710SOL    HW2 8691   3.087   1.380   1.159
 2711SOL     OW 8692   3.445   0.626   0.480
 2711SOL    HW1 8693   3.396   0.676   0.545
 2711SOL    HW2 8694   3.480   0.692   0.421
 2712SOL     OW 8695   2.208   1.527   1.316
 2712SOL    HW1 8696   2.196   1.484   1.231
 2712SOL    HW2 8697   2.303   1.539   1.323
 2713SOL     OW 8698   2.276   0.744   1.602
 2713SOL    HW1 8699   2.337   0.790   1.544
 2713SOL    HW2 8700   2.318   0.660   1.620
 2714SOL     OW 8701   3.462   0.778   1.681
 2714SOL    HW1 8702   3.376   0.819   1.674
 2714SOL    HW2 8703   3.515   0.821   1.613
 2715SOL     OW 8704   2.905   0.115   1.783
 2715SOL    HW1 8705   2.929   0.195   1.736
 2715SOL    HW2 8706   2.911   0.046   1.718
 2716SOL     OW 8707   2.345   0.056   1.739
 2716SOL    HW1 8708   2.288   5.292   1.697
 2716SOL    HW2 8709   2.286   0.129   1.760
 2717SOL     OW 8710   2.445   0.872   1.031
 2717SOL    HW1 8711   2.476   0.963   1.030
 2717SOL    HW2 8712   2.388   0.867   1.108
 2718SOL     OW 8713   3.221   0.859   1.031
 2718SOL    HW1 8714   3.138   0.850   0.983
 2718SOL    HW2 8715   3.260   0.772   1.026
 2719SOL     OW 8716   3.066   0.527   0.270
 2719SOL    HW1 8717   3.073   0.447   0.323
 2719SOL    HW2 8718   3.024   0.590   0.329
 2720SOL     OW 8719   2.159   0.204   1.247
 2720SOL    HW1 8720   2.120   0.243   1.325
 2720SOL    HW2 8721   2.157   0.110   1.263
 2721SOL     OW 8722   1.908   1.311   1.276
 2721SOL    HW1 8723   1.941   1.256   1.348
 2721SOL    HW2 8724   1.915   1.400   1.309
 2722SOL     OW 8725   2.588   0.632   1.060
 2722SOL    HW1 8726   2.661   0.614   1.001
 2722SOL    HW2 8727   2.559   0.721   1.037
 2723SOL     OW 8728   3.596   0.960   1.852
 2723SOL    HW1 8729   3.550   0.899   1.794
 2723SOL    HW2 8730   3.536   0.972   1.926
 2724SOL     OW 8731   2.162   0.072   0.649
 2724SOL    HW1 8732   2.147   0.166   0.658
 2724SOL    HW2 8733   2.205   0.046   0.731
 2725SOL     OW 8734   3.481   0.377   0.368
 2725SOL    HW1 8735   3.509   0.311   0.432
 2725SOL    HW2 8736   3.456   0.453   0.421
 2726SOL     OW 8737   2.889   0.759   0.961
 2726SOL    HW1 8738   2.887   0.777   1.055
 2726SOL    HW2 8739   2.863   0.668   0.953
 2727SOL     OW 8740   2.844   1.566   1.716
 2727SOL    HW1 8741   2.829   1.610   1.633
 2727SOL    HW2 8742   2.887   1.484   1.693
 2728SOL     OW 8743   3.717   1.507   1.605
 2728SOL    HW1 8744   3.735   1.533   1.515
 2728SOL    HW2 8745   3.798   1.526   1.652
 2729SOL     OW 8746   2.215   0.916   1.808
 2729SOL    HW1 8747   2.297   0.935   1.854
 2729SOL    HW2 8748   2.240   0.854   1.740
 2730SOL     OW 8749   3.384   0.300   0.126
 2730SOL    HW1 8750   3.346   0.214   0.142
 2730SOL    HW2 8751   3.423   0.324   0.210
 2731SOL     OW 8752   3.156   0.825   0.022
 2731SOL    HW1 8753   3.195   0.739   0.040
 2731SOL    HW2 8754   3.215   0.865   8.038
 2732SOL     OW 8755   2.927   1.336   0.853
 2732SOL    HW1 8756   2.930   1.263   0.792
 2732SOL    HW2 8757   2.989   1.399   0.819
 2733SOL     OW 8758   2.171   0.809   0.947
 2733SOL    HW1 8759   2.264   0.831   0.941
 2733SOL    HW2 8760   2.169   0.719   0.980
 2734SOL     OW 8761   2.194   0.525   1.012
 2734SOL    HW1 8762   2.158   0.438   0.996
 2734SOL    HW2 8763   2.271   0.530   0.955
 2735SOL     OW 8764   2.997   0.378   1.687
 2735SOL    HW1 8765   2.950   0.433   1.750
 2735SOL    HW2 8766   3.085   0.417   1.683
 2736SOL     OW 8767   2.996   0.223   1.465
 2736SOL    HW1 8768   3.000   0.281   1.541
 2736SOL    HW2 8769   3.051   0.264   1.399
 2737SOL     OW 8770   1.873   1.324   0.190
 2737SOL    HW1 8771   1.786   1.338   0.153
 2737SOL    HW2 8772   1.871   1.234   0.222
 2738SOL     OW 8773   1.952   1.788   0.937
 2738SOL    HW1 8774   1.922   1.708   0.894
 2738SOL    HW2 8775   2.042   1.799   0.906
 2739SOL     OW 8776   2.359   1.574   0.905
 2739SOL    HW1 8777   2.428   1.635   0.930
 2739SOL    HW2 8778   2.403   1.509   0.850
 2740SOL     OW 8779   2.846   0.793   1.227
 2740SOL    HW1 8780   2.902   0.769   1.302
 2740SOL    HW2 8781   2.761   0.756   1.248
 2741SOL     OW 8782   1.897   0.544   1.117
 2741SOL    HW1 8783   1.978   0.528   1.067
 2741SOL    HW2 8784   1.927   0.548   1.208
 2742SOL     OW 8785   2.049   0.521   1.726
 2742SOL    HW1 8786   2.112   0.487   1.663
 2742SOL    HW2 8787   2.008   0.595   1.681
 2743SOL     OW 8788   3.239   0.940   1.659
 2743SOL    HW1 8789   3.260   1.033   1.657
 2743SOL    HW2 8790   3.236   0.914   1.567
 2744SOL     OW 8791   2.680   0.570   0.366
 2744SOL    HW1 8792   2.689   0.499   0.303
 2744SOL    HW2 8793   2.603   0.620   0.336
 2745SOL     OW 8794   3.505   0.602   1.187
 2745SOL    HW1 8795   3.493   0.542   1.261
 2745SOL    HW2 8796   3.592   0.581   1.153
 2746SOL     OW 8797   2.106   1.552   1.728
 2746SOL    HW1 8798   2.083   1.616   1.796
 2746SOL    HW2 8799   2.107   1.468   1.774
 2747SOL     OW 8800   2.559   0.452   1.261
 2747SOL    HW1 8801   2.509   0.378   1.227
 2747SOL    HW2 8802   2.559   0.516   1.190
 2748SOL     OW 8803   2.790   1.679   1.467
 2748SOL    HW1 8804   2.764   1.646   1.381
 2748SOL    HW2 8805   2.787   1.774   1.458
 2749SOL     OW 8806   2.330   0.492   0.177
 2749SOL    HW1 8807   2.397   0.557   0.196
 2749SOL    HW2 8808   2.247   0.538   0.193
 2750SOL     OW 8809   2.009   1.140   1.472
 2750SOL    HW1 8810   2.011   1.088   1.552
 2750SOL    HW2 8811   2.026   1.077   1.402
 2751SOL     OW 8812   3.189   1.048   1.224
 2751SOL    HW1 8813   3.212   0.984   1.156
 2751SOL    HW2 8814   3.118   1.099   1.185
 2752SOL     OW 8815   3.168   0.849   0.308
 2752SOL    HW1 8816   3.090   0.820   0.356
 2752SOL    HW2 8817   3.144   0.838   0.216
 2753SOL     OW 8818   3.632   1.745   1.149
 2753SOL    HW1 8819   3.693   1.771   1.080
 2753SOL    HW2 8820   3.609   1.655   1.128
 2754SOL     OW 8821   3.103   1.733   1.114
 2754SOL    HW1 8822   3.185   1.753   1.069
 2754SOL    HW2 8823   3.108   1.639   1.132
 2755SOL     OW 8824   1.945   1.267   1.012
 2755SOL    HW1 8825   1.932   1.279   1.106
 2755SOL    HW2 8826   1.873   1.212   0.984
 2756SOL     OW 8827   2.538   1.665   1.727
 2756SOL    HW1 8828   2.488   1.746   1.726
 2756SOL    HW2 8829   2.604   1.677   1.659
 2757SOL     OW 8830   2.756   0.086   0.139
 2757SOL    HW1 8831   2.803   0.079   0.056
 2757SOL    HW2 8832   2.776   0.005   0.186
 2758SOL     OW 8833   3.575   0.148   0.505
 2758SOL    HW1 8834   3.649   0.127   0.448
 2758SOL    HW2 8835   3.567   0.072   0.563
 2759SOL     OW 8836   3.251   1.568   0.485
 2759SOL    HW1 8837   3.315   1.600   0.421
 2759SOL    HW2 8838   3.204   1.646   0.514
 2760SOL     OW 8839   1.997   1.797   1.843
 2760SOL    HW1 8840   1.947   1.732   1.892
 2760SOL    HW2 8841   2.047   1.844   1.911
 2761SOL     OW 8842   3.139   0.925   0.671
 2761SOL    HW1 8843   3.213   0.864   0.677
 2761SOL    HW2 8844   3.172   0.998   0.619
 2762SOL     OW 8845   2.678   1.273   1.430
 2762SOL    HW1 8846   2.650   1.312   1.513
 2762SOL    HW2 8847   2.607   1.295   1.369
 2763SOL     OW 8848   2.538   1.620   0.156
 2763SOL    HW1 8849   2.543   1.626   0.060
 2763SOL    HW2 8850   2.478   1.548   0.172
 2764SOL     OW 8851   3.490   1.726   1.391
 2764SOL    HW1 8852   3.539   1.734   1.310
 2764SOL    HW2 8853   3.476   1.817   1.419
 2765SOL     OW 8854   3.707   0.158   0.958
 2765SOL    HW1 8855   3.708   0.063   0.942
 2765SOL    HW2 8856   3.620   0.186   0.930
 2766SOL     OW 8857   2.125   0.329   0.720
 2766SOL    HW1 8858   2.037   0.360   0.698
 2766SOL    HW2 8859   2.122   0.316   0.815
 2767SOL     OW 8860   3.019   1.582   0.052
 2767SOL    HW1 8861   3.035   1.490   0.071
 2767SOL    HW2 8862   3.028   1.589   8.037
 2768SOL     OW 8863   2.686   1.006   1.372
 2768SOL    HW1 8864   2.730   1.001   1.287
 2768SOL    HW2 8865   2.686   1.099   1.395
 2769SOL     OW 8866   2.781   0.915   0.298
 2769SOL    HW1 8867   2.835   0.939   0.223
 2769SOL    HW2 8868   2.827   0.841   0.338
 2770SOL     OW 8869   3.372   1.625   0.060
 2770SOL    HW1 8870   3.277   1.624   0.050
 2770SOL    HW2 8871   3.406   1.624   8.051
 2771SOL     OW 8872   2.231   1.302   1.492
 2771SOL    HW1 8873   2.217   1.380   1.437
 2771SOL    HW2 8874   2.154   1.247   1.475
 2772SOL     OW 8875   3.473   1.283   1.281
 2772SOL    HW1 8876   3.533   1.273   1.355
 2772SOL    HW2 8877   3.413   1.352   1.307
 2773SOL     OW 8878   2.913   1.107   0.707
 2773SOL    HW1 8879   2.842   1.055   0.746
 2773SOL    HW2 8880   2.974   1.042   0.673
 2774SOL     OW 8881   2.881   0.243   0.968
 2774SOL    HW1 8882   2.862   0.197   0.886
 2774SOL    HW2 8883   2.874   0.175   1.035
 2775SOL     OW 8884   2.465   1.488   0.480
 2775SOL    HW1 8885   2.508   1.437   0.412
 2775SOL    HW2 8886   2.395   1.535   0.435
 2776SOL     OW 8887   3.585   0.387   1.378
 2776SOL    HW1 8888   3.655   0.452   1.378
 2776SOL    HW2 8889   3.617   0.317   1.321
 2777SOL     OW 8890   2.128   1.321   0.294
 2777SOL    HW1 8891   2.042   1.333   0.254
 2777SOL    HW2 8892   2.122   1.366   0.378
 2778SOL     OW 8893   1.974   1.021   1.719
 2778SOL    HW1 8894   1.898   0.998   1.772
 2778SOL    HW2 8895   2.049   0.984   1.766
 2779SOL     OW 8896   2.534   0.210   1.487
 2779SOL    HW1 8897   2.618   0.193   1.444
 2779SOL    HW2 8898   2.557   0.260   1.566
 2780SOL     OW 8899   1.930   0.362   0.035
 2780SOL    HW1 8900   1.858   0.300   0.022
 2780SOL    HW2 8901   1.946   0.398   8.027
 2781SOL     OW 8902   3.292   0.858   1.401
 2781SOL    HW1 8903   3.244   0.919   1.345
 2781SOL    HW2 8904   3.382   0.861   1.367
 2782SOL     OW 8905   1.930   0.165   0.314
 2782SOL    HW1 8906   1.937   0.252   0.276
 2782SOL    HW2 8907   2.015   0.125   0.296
 2783SOL     OW 8908   3.047   1.319   0.121
 2783SOL    HW1 8909   2.952   1.307   0.121
 2783SOL    HW2 8910   3.070   1.321   0.214
 2784SOL     OW 8911   2.481   0.831   1.433
 2784SOL    HW1 8912   2.536   0.907   1.418
 2784SOL    HW2 8913   2.542   0.758   1.442
 2785SOL     OW 8914   3.346   1.776   0.977
 2785SOL    HW1 8915   3.371   1.835   0.906
 2785SOL    HW2 8916   3.428   1.758   1.024
 2786SOL     OW 8917   2.578   0.572   1.703
 2786SOL    HW1 8918   2.617   0.636   1.763
 2786SOL    HW2 8919   2.610   0.487   1.734
 2787SOL     OW 8920   3.333   1.201   1.632
 2787SOL    HW1 8921   3.320   1.214   1.726
 2787SOL    HW2 8922   3.426   1.215   1.618
 2788SOL     OW 8923   2.241   1.739   1.562
 2788SOL    HW1 8924   2.156   1.780   1.550
 2788SOL    HW2 8925   2.222   1.655   1.605
 2789SOL     OW 8926   3.532   0.881   1.255
 2789SOL    HW1 8927   3.525   0.796   1.213
 2789SOL    HW2 8928   3.523   0.945   1.184
 2790SOL     OW 8929   3.077   0.328   0.474
 2790SOL    HW1 8930   3.136   0.254   0.457
 2790SOL    HW2 8931   3.117   0.374   0.547
 2791SOL     OW 8932   2.450   0.738   0.669
 2791SOL    HW1 8933   2.491   0.824   0.653
 2791SOL    HW2 8934   2.382   0.732   0.603
 2792SOL     OW 8935   3.629   0.361   1.648
 2792SOL    HW1 8936   3.609   0.375   1.556
 2792SOL    HW2 8937   3.558   0.305   1.680
 2793SOL     OW 8938   3.606   0.934   1.512
 2793SOL    HW1 8939   3.605   1.028   1.525
 2793SOL    HW2 8940   3.591   0.922   1.418
 2794SOL     OW 8941   2.756   1.373   0.035
 2794SOL    HW1 8942   2.691   1.364   0.105
 2794SOL    HW2 8943   2.740   1.460   8.078
 2795SOL     OW 8944   2.522   1.792   0.946
 2795SOL    HW1 8945   2.503   1.882   0.920
 2795SOL    HW2 8946   2.617   1.784   0.939
 2796SOL     OW 8947   2.728   0.966   0.856
 2796SOL    HW1 8948   2.779   0.895   0.895
 2796SOL    HW2 8949   2.695   1.016   0.930
 2797SOL     OW 8950   2.939   0.978   0.086
 2797SOL    HW1 8951   2.927   1.039   0.013
 2797SOL    HW2 8952   3.017   0.927   0.062
 2798SOL     OW 8953   3.717   1.555   0.845
 2798SOL    HW1 8954   3.639   1.543   0.790
 2798SOL    HW2 8955   3.708   1.488   0.913
 2799SOL     OW 8956   2.087   1.304   1.856
 2799SOL    HW1 8957   2.019   1.242   1.827
 2799SOL    HW2 8958   2.070   1.316   1.949
 2800SOL     OW 8959   1.947   1.233   0.664
 2800SOL    HW1 8960   1.949   1.184   0.746
 2800SOL    HW2 8961   2.018   1.197   0.612
 2801SOL     OW 8962   2.542   1.403   1.626
 2801SOL    HW1 8963   2.463   1.359   1.658
 2801SOL    HW2 8964   2.538   1.490   1.664
 2802SOL     OW 8965   3.677   0.178   1.233
 2802SOL    HW1 8966   3.645   0.088   1.240
 2802SOL    HW2 8967   3.694   0.190   1.140
 2803SOL     OW 8968   2.287   0.438   0.522
 2803SOL    HW1 8969   2.324   0.366   0.471
 2803SOL    HW2 8970   2.245   0.395   0.596
 2804SOL     OW 8971   3.563   1.490   1.097
 2804SOL    HW1 8972   3.481   1.466   1.053
 2804SOL    HW2 8973   3.576   1.421   1.162
 2805SOL     OW 8974   2.190   0.555   1.290
 2805SOL    HW1 8975   2.246   0.501   1.345
 2805SOL    HW2 8976   2.211   0.528   1.201
 2806SOL     OW 8977   2.688   1.578   0.678
 2806SOL    HW1 8978   2.678   1.627   0.597
 2806SOL    HW2 8979   2.611   1.521   0.682
 2807SOL     OW 8980   3.290   0.218   1.117
 2807SOL    HW1 8981   3.327   0.144   1.164
 2807SOL    HW2 8982   3.242   0.267   1.183
 2808SOL     OW 8983   2.864   0.022   1.141
 2808SOL    HW1 8984   2.814   5.252   1.099
 2808SOL    HW2 8985   2.951   5.284   1.154
 2809SOL     OW 8986   2.631   1.328   0.309
 2809SOL    HW1 8987   2.599   1.238   0.322
 2809SOL    HW2 8988   2.714   1.331   0.356
 2810SOL     OW 8989   2.481   1.557   1.284
 2810SOL    HW1 8990   2.484   1.639   1.334
 2810SOL    HW2 8991   2.569   1.549   1.247
 2811SOL     OW 8992   3.255   0.043   0.170
 2811SOL    HW1 8993   3.248   0.027   0.076
 2811SOL    HW2 8994   3.166   0.068   0.197
 2812SOL     OW 8995   3.170   0.467   0.690
 2812SOL    HW1 8996   3.111   0.543   0.693
 2812SOL    HW2 8997   3.159   0.425   0.775
 2813SOL     OW 8998   3.456   0.216   0.882
 2813SOL    HW1 8999   3.389   0.227   0.949
 2813SOL    HW2 9000   3.449   0.294   0.827
 2814SOL     OW 9001   1.905   1.068   0.303
 2814SOL    HW1 9002   2.000   1.066   0.305
 2814SOL    HW2 9003   1.879   0.985   0.344
 2815SOL     OW 9004   2.744   1.653   0.348
 2815SOL    HW1 9005   2.676   1.635   0.283
 2815SOL    HW2 9006   2.711   1.729   0.396
 2816SOL     OW 9007   2.091   0.625   1.984
 2816SOL    HW1 9008   2.002   0.622   2.019
 2816SOL    HW2 9009   2.081   0.598   1.893
 2817SOL     OW 9010   2.081   0.283   2.854
 2817SOL    HW1 9011   2.109   0.249   2.939
 2817SOL    HW2 9012   1.995   0.243   2.840
 2818SOL     OW 9013   1.866   0.385   2.500
 2818SOL    HW1 9014   1.782   0.406   2.540
 2818SOL    HW2 9015   1.849   0.308   2.447
 2819SOL     OW 9016   2.429   1.286   3.036
 2819SOL    HW1 9017   2.341   1.290   2.998
 2819SOL    HW2 9018   2.444   1.374   3.070
 2820SOL     OW 9019   3.422   1.511   2.568
 2820SOL    HW1 9020   3.379   1.492   2.652
 2820SOL    HW2 9021   3.351   1.516   2.505
 2821SOL     OW 9022   2.993   0.698   2.564
 2821SOL    HW1 9023   3.042   0.779   2.549
 2821SOL    HW2 9024   2.945   0.713   2.646
 2822SOL     OW 9025   3.628   0.607   2.091
 2822SOL    HW1 9026   3.608   0.598   1.998
 2822SOL    HW2 9027   3.593   0.526   2.130
 2823SOL     OW 9028   2.618   1.143   2.902
 2823SOL    HW1 9029   2.549   1.177   2.958
 2823SOL    HW2 9030   2.653   1.220   2.857
 2824SOL     OW 9031   2.727   0.779   3.684
 2824SOL    HW1 9032   2.716   0.850   3.746
 2824SOL    HW2 9033   2.751   0.821   3.602
 2825SOL     OW 9034   2.548   1.004   2.509
 2825SOL    HW1 9035   2.613   0.991   2.579
 2825SOL    HW2 9036   2.479   1.055   2.550
 2826SOL     OW 9037   2.571   1.151   3.674
 2826SOL    HW1 9038   2.619   1.230   3.699
 2826SOL    HW2 9039   2.488   1.183   3.638
 2827SOL     OW 9040   2.193   1.425   2.930
 2827SOL    HW1 9041   2.120   1.390   2.880
 2827SOL    HW2 9042   2.243   1.476   2.866
 2828SOL     OW 9043   3.323   1.499   3.215
 2828SOL    HW1 9044   3.372   1.581   3.225
 2828SOL    HW2 9045   3.263   1.498   3.289
 2829SOL     OW 9046   2.306   0.398   3.350
 2829SOL    HW1 9047   2.380   0.339   3.347
 2829SOL    HW2 9048   2.230   0.341   3.364
 2830SOL     OW 9049   3.473   0.452   2.600
 2830SOL    HW1 9050   3.397   0.476   2.547
 2830SOL    HW2 9051   3.492   0.530   2.651
 2831SOL     OW 9052   2.081   1.714   2.334
 2831SOL    HW1 9053   2.104   1.791   2.388
 2831SOL    HW2 9054   2.154   1.706   2.273
 2832SOL     OW 9055   2.999   1.340   3.555
 2832SOL    HW1 9056   3.040   1.335   3.641
 2832SOL    HW2 9057   2.946   1.260   3.548
 2833SOL     OW 9058   2.091   1.441   2.397
 2833SOL    HW1 9059   2.075   1.535   2.401
 2833SOL    HW2 9060   2.031   1.403   2.460
 2834SOL     OW 9061   2.118   1.090   2.752
 2834SOL    HW1 9062   2.115   1.004   2.794
 2834SOL    HW2 9063   2.061   1.145   2.806
 2835SOL     OW 9064   2.483   1.785   3.301
 2835SOL    HW1 9065   2.397   1.777   3.343
 2835SOL    HW2 9066   2.505   1.878   3.310
 2836SOL     OW 9067   2.448   0.981   1.996
 2836SOL    HW1 9068   2.493   1.031   1.927
 2836SOL    HW2 9069   2.488   1.011   2.077
 2837SOL     OW 9070   3.448   0.134   3.319
 2837SOL    HW1 9071   3.468   0.219   3.280
 2837SOL    HW2 9072   3.447   0.151   3.413
 2838SOL     OW 9073   1.976   0.653   2.421
 2838SOL    HW1 9074   1.949   0.564   2.443
 2838SOL    HW2 9075   1.969   0.701   2.504
 2839SOL     OW 9076   3.704   1.759   2.198
 2839SOL    HW1 9077   3.767   1.731   2.264
 2839SOL    HW2 9078   3.729   1.850   2.178
 2840SOL     OW 9079   1.893   1.596   1.986
 2840SOL    HW1 9080   1.876   1.504   2.006
 2840SOL    HW2 9081   1.869   1.642   2.066
 2841SOL     OW 9082   3.551   0.919   2.502
 2841SOL    HW1 9083   3.635   0.877   2.481
 2841SOL    HW2 9084   3.530   0.969   2.423
 2842SOL     OW 9085   3.508   1.107   2.291
 2842SOL    HW1 9086   3.593   1.113   2.249
 2842SOL    HW2 9087   3.512   1.168   2.365
 2843SOL     OW 9088   1.984   0.743   3.447
 2843SOL    HW1 9089   2.076   0.768   3.457
 2843SOL    HW2 9090   1.936   0.826   3.455
 2844SOL     OW 9091   2.475   1.384   2.597
 2844SOL    HW1 9092   2.429   1.301   2.606
 2844SOL    HW2 9093   2.459   1.411   2.507
 2845SOL     OW 9094   3.151   1.238   3.286
 2845SOL    HW1 9095   3.184   1.171   3.226
 2845SOL    HW2 9096   3.208   1.232   3.362
 2846SOL     OW 9097   2.672   0.025   2.388
 2846SOL    HW1 9098   2.700   0.113   2.364
 2846SOL    HW2 9099   2.576   0.029   2.383
 2847SOL     OW 9100   2.052   0.967   3.133
 2847SOL    HW1 9101   2.137   0.925   3.118
 2847SOL    HW2 9102   1.990   0.912   3.086
 2848SOL     OW 9103   3.394   0.993   2.060
 2848SOL    HW1 9104   3.324   0.936   2.091
 2848SOL    HW2 9105   3.434   1.027   2.140
 2849SOL     OW 9106   3.072   1.803   3.475
 2849SOL    HW1 9107   3.069   1.844   3.388
 2849SOL    HW2 9108   3.074   1.709   3.457
 2850SOL     OW 9109   2.188   0.265   3.672
 2850SOL    HW1 9110   2.240   0.341   3.698
 2850SOL    HW2 9111   2.102   0.280   3.711
 2851SOL     OW 9112   3.328   1.420   2.814
 2851SOL    HW1 9113   3.260   1.434   2.880
 2851SOL    HW2 9114   3.316   1.329   2.787
 2852SOL     OW 9115   3.521   1.738   2.440
 2852SOL    HW1 9116   3.501   1.708   2.351
 2852SOL    HW2 9117   3.496   1.664   2.496
 2853SOL     OW 9118   2.457   0.722   2.127
 2853SOL    HW1 9119   2.464   0.803   2.077
 2853SOL    HW2 9120   2.392   0.741   2.195
 2854SOL     OW 9121   3.140   0.345   2.792
 2854SOL    HW1 9122   3.050   0.318   2.805
 2854SOL    HW2 9123   3.190   0.296   2.858
 2855SOL     OW 9124   3.443   1.670   2.171
 2855SOL    HW1 9125   3.533   1.702   2.164
 2855SOL    HW2 9126   3.417   1.653   2.081
 2856SOL     OW 9127   2.657   0.617   3.313
 2856SOL    HW1 9128   2.629   0.597   3.402
 2856SOL    HW2 9129   2.613   0.552   3.258
 2857SOL     OW 9130   3.257   0.475   3.540
 2857SOL    HW1 9131   3.258   0.519   3.625
 2857SOL    HW2 9132   3.321   0.404   3.549
 2858SOL     OW 9133   2.818   0.888   3.444
 2858SOL    HW1 9134   2.872   0.817   3.409
 2858SOL    HW2 9135   2.770   0.922   3.368
 2859SOL     OW 9136   2.856   0.416   3.098
 2859SOL    HW1 9137   2.772   0.439   3.137
 2859SOL    HW2 9138   2.833   0.368   3.019
 2860SOL     OW 9139   2.913   0.698   2.289
 2860SOL    HW1 9140   2.927   0.691   2.383
 2860SOL    HW2 9141   2.830   0.652   2.274
 2861SOL     OW 9142   1.950   0.821   2.639
 2861SOL    HW1 9143   2.032   0.814   2.689
 2861SOL    HW2 9144   1.908   0.899   2.673
 2862SOL     OW 9145   1.991   1.818   3.436
 2862SOL    HW1 9146   1.982   1.810   3.531
 2862SOL    HW2 9147   1.911   1.863   3.408
 2863SOL     OW 9148   2.734   0.362   2.051
 2863SOL    HW1 9149   2.778   0.422   1.991
 2863SOL    HW2 9150   2.785   0.282   2.047
 2864SOL     OW 9151   3.570   0.575   3.690
 2864SOL    HW1 9152   3.533   0.649   3.642
 2864SOL    HW2 9153   3.599   0.515   3.622
 2865SOL     OW 9154   3.238   1.142   2.404
 2865SOL    HW1 9155   3.317   1.129   2.351
 2865SOL    HW2 9156   3.186   1.204   2.353
 2866SOL     OW 9157   2.390   0.201   2.745
 2866SOL    HW1 9158   2.412   0.217   2.837
 2866SOL    HW2 9159   2.411   0.284   2.701
 2867SOL     OW 9160   2.869   1.445   2.335
 2867SOL    HW1 9161   2.830   1.517   2.285
 2867SOL    HW2 9162   2.852   1.466   2.426
 2868SOL     OW 9163   2.217   1.807   2.722
 2868SOL    HW1 9164   2.258   1.721   2.730
 2868SOL    HW2 9165   2.288   1.869   2.740
 2869SOL     OW 9166   3.661   1.058   2.730
 2869SOL    HW1 9167   3.606   1.040   2.653
 2869SOL    HW2 9168   3.599   1.063   2.803
 2870SOL     OW 9169   3.090   1.536   3.375
 2870SOL    HW1 9170   3.075   1.463   3.435
 2870SOL    HW2 9171   3.025   1.524   3.306
 2871SOL     OW 9172   2.182   0.957   2.111
 2871SOL    HW1 9173   2.265   0.976   2.066
 2871SOL    HW2 9174   2.152   0.875   2.073
 2872SOL     OW 9175   3.340   0.742   2.589
 2872SOL    HW1 9176   3.331   0.698   2.674
 2872SOL    HW2 9177   3.417   0.797   2.599
 2873SOL     OW 9178   2.327   1.264   3.600
 2873SOL    HW1 9179   2.300   1.269   3.509
 2873SOL    HW2 9180   2.245   1.262   3.650
 2874SOL     OW 9181   2.984   1.778   2.093
 2874SOL    HW1 9182   2.911   1.736   2.139
 2874SOL    HW2 9183   3.006   1.717   2.023
 2875SOL     OW 9184   2.059   0.278   3.364
 2875SOL    HW1 9185   1.980   0.332   3.359
 2875SOL    HW2 9186   2.050   0.230   3.446
 2876SOL     OW 9187   3.491   1.380   1.949
 2876SOL    HW1 9188   3.449   1.465   1.934
 2876SOL    HW2 9189   3.422   1.316   1.930
 2877SOL     OW 9190   2.328   1.736   2.185
 2877SOL    HW1 9191   2.370   1.795   2.247
 2877SOL    HW2 9192   2.399   1.709   2.126
 2878SOL     OW 9193   3.269   0.099   2.293
 2878SOL    HW1 9194   3.260   0.082   2.199
 2878SOL    HW2 9195   3.361   0.122   2.305
 2879SOL     OW 9196   2.101   1.782   3.091
 2879SOL    HW1 9197   2.163   1.732   3.143
 2879SOL    HW2 9198   2.113   1.750   3.001
 2880SOL     OW 9199   2.799   1.698   2.762
 2880SOL    HW1 9200   2.877   1.646   2.782
 2880SOL    HW2 9201   2.755   1.649   2.692
 2881SOL     OW 9202   2.254   0.696   2.338
 2881SOL    HW1 9203   2.275   0.603   2.349
 2881SOL    HW2 9204   2.160   0.701   2.357
 2882SOL     OW 9205   3.402   0.228   3.586
 2882SOL    HW1 9206   3.409   0.246   3.679
 2882SOL    HW2 9207   3.326   0.169   3.578
 2883SOL     OW 9208   2.486   0.133   1.969
 2883SOL    HW1 9209   2.552   0.067   1.992
 2883SOL    HW2 9210   2.435   0.092   1.899
 2884SOL     OW 9211   2.645   0.313   3.629
 2884SOL    HW1 9212   2.701   0.235   3.630
 2884SOL    HW2 9213   2.595   0.307   3.710
 2885SOL     OW 9214   2.738   1.520   3.056
 2885SOL    HW1 9215   2.723   1.485   2.969
 2885SOL    HW2 9216   2.809   1.465   3.091
 2886SOL     OW 9217   3.203   0.589   3.294
 2886SOL    HW1 9218   3.234   0.558   3.379
 2886SOL    HW2 9219   3.239   0.677   3.287
 2887SOL     OW 9220   2.676   1.396   2.800
 2887SOL    HW1 9221   2.761   1.385   2.756
 2887SOL    HW2 9222   2.612   1.396   2.730
 2888SOL     OW 9223   2.789   0.510   2.766
 2888SOL    HW1 9224   2.766   0.502   2.673
 2888SOL    HW2 9225   2.821   0.423   2.790
 2889SOL     OW 9226   2.404   0.063   2.371
 2889SOL    HW1 9227   2.318   0.062   2.414
 2889SOL    HW2 9228   2.397   0.133   2.306
 2890SOL     OW 9229   3.290   1.198   1.903
 2890SOL    HW1 9230   3.321   1.122   1.953
 2890SOL    HW2 9231   3.204   1.219   1.941
 2891SOL     OW 9232   2.163   0.061   2.052
 2891SOL    HW1 9233   2.222   0.130   2.022
 2891SOL    HW2 9234   2.219   5.285   2.065
 2892SOL     OW 9235   2.801   0.260   2.324
 2892SOL    HW1 9236   2.772   0.299   2.241
 2892SOL    HW2 9237   2.896   0.272   2.325
 2893SOL     OW 9238   2.943   0.681   3.322
 2893SOL    HW1 9239   2.873   0.615   3.327
 2893SOL    HW2 9240   3.023   0.630   3.315
 2894SOL     OW 9241   3.086   1.570   2.656
 2894SOL    HW1 9242   3.102   1.637   2.590
 2894SOL    HW2 9243   3.154   1.583   2.721
 2895SOL     OW 9244   2.330   1.149   2.596
 2895SOL    HW1 9245   2.260   1.130   2.659
 2895SOL    HW2 9246   2.291   1.132   2.511
 2896SOL     OW 9247   3.132   1.794   2.470
 2896SOL    HW1 9248   3.177   1.856   2.412
 2896SOL    HW2 9249   3.065   1.847   2.513
 2897SOL     OW 9250   2.889   0.547   1.883
 2897SOL    HW1 9251   2.845   0.631   1.865
 2897SOL    HW2 9252   2.952   0.567   1.952
 2898SOL     OW 9253   1.940   0.553   3.255
 2898SOL    HW1 9254   2.031   0.553   3.227
 2898SOL    HW2 9255   1.935   0.624   3.319
 2899SOL     OW 9256   2.418   0.237   3.020
 2899SOL    HW1 9257   2.449   0.151   3.048
 2899SOL    HW2 9258   2.326   0.240   3.046
 2900SOL     OW 9259   2.729   0.462   2.503
 2900SOL    HW1 9260   2.683   0.515   2.438
 2900SOL    HW2 9261   2.752   0.381   2.456
 2901SOL     OW 9262   2.840   0.061   2.624
 2901SOL    HW1 9263   2.775   0.054   2.554
 2901SOL    HW2 9264   2.850   5.271   2.656
 2902SOL     OW 9265   3.299   1.163   2.719
 2902SOL    HW1 9266   3.230   1.097   2.718
 2902SOL    HW2 9267   3.323   1.175   2.627
 2903SOL     OW 9268   3.329   0.605   2.841
 2903SOL    HW1 9269   3.280   0.523   2.844
 2903SOL    HW2 9270   3.389   0.600   2.914
 2904SOL     OW 9271   3.708   0.817   2.244
 2904SOL    HW1 9272   3.764   0.766   2.302
 2904SOL    HW2 9273   3.679   0.755   2.177
 2905SOL     OW 9274   2.353   1.417   2.020
 2905SOL    HW1 9275   2.278   1.388   2.072
 2905SOL    HW2 9276   2.337   1.380   1.933
 2906SOL     OW 9277   3.531   1.264   2.509
 2906SOL    HW1 9278   3.626   1.268   2.522
 2906SOL    HW2 9279   3.501   1.353   2.530
 2907SOL     OW 9280   3.256   0.572   1.933
 2907SOL    HW1 9281   3.195   0.553   2.004
 2907SOL    HW2 9282   3.340   0.541   1.965
 2908SOL     OW 9283   2.386   0.264   2.183
 2908SOL    HW1 9284   2.430   0.216   2.114
 2908SOL    HW2 9285   2.366   0.349   2.144
 2909SOL     OW 9286   3.615   1.238   3.436
 2909SOL    HW1 9287   3.702   1.199   3.432
 2909SOL    HW2 9288   3.630   1.328   3.465
 2910SOL     OW 9289   2.921   1.352   3.195
 2910SOL    HW1 9290   2.846   1.322   3.247
 2910SOL    HW2 9291   2.997   1.312   3.237
 2911SOL     OW 9292   3.469   1.624   3.515
 2911SOL    HW1 9293   3.464   1.660   3.426
 2911SOL    HW2 9294   3.553   1.578   3.517
 2912SOL     OW 9295   2.990   1.202   2.968
 2912SOL    HW1 9296   2.932   1.241   3.033
 2912SOL    HW2 9297   2.956   1.234   2.884
 2913SOL     OW 9298   3.491   1.099   2.940
 2913SOL    HW1 9299   3.486   1.161   3.012
 2913SOL    HW2 9300   3.412   1.115   2.889
 2914SOL     OW 9301   2.767   0.106   3.253
 2914SOL    HW1 9302   2.797   0.072   3.168
 2914SOL    HW2 9303   2.844   0.148   3.291
 2915SOL     OW 9304   2.846   1.114   3.585
 2915SOL    HW1 9305   2.754   1.130   3.605
 2915SOL    HW2 9306   2.845   1.037   3.529
 2916SOL     OW 9307   2.571   1.061   2.233
 2916SOL    HW1 9308   2.557   1.045   2.327
 2916SOL    HW2 9309   2.646   1.007   2.211
 2917SOL     OW 9310   2.280   0.815   3.113
 2917SOL    HW1 9311   2.349   0.824   3.179
 2917SOL    HW2 9312   2.245   0.727   3.128
 2918SOL     OW 9313   3.129   0.379   3.134
 2918SOL    HW1 9314   3.162   0.456   3.181
 2918SOL    HW2 9315   3.039   0.401   3.111
 2919SOL     OW 9316   1.930   1.570   3.210
 2919SOL    HW1 9317   1.901   1.649   3.164
 2919SOL    HW2 9318   2.026   1.578   3.213
 2920SOL     OW 9319   2.212   1.108   2.353
 2920SOL    HW1 9320   2.217   1.182   2.292
 2920SOL    HW2 9321   2.210   1.031   2.297
 2921SOL     OW 9322   2.416   0.538   2.723
 2921SOL    HW1 9323   2.431   0.596   2.648
 2921SOL    HW2 9324   2.481   0.565   2.788
 2922SOL     OW 9325   3.110   1.348   2.251
 2922SOL    HW1 9326   3.166   1.420   2.282
 2922SOL    HW2 9327   3.023   1.369   2.285
 2923SOL     OW 9328   3.142   1.457   3.009
 2923SOL    HW1 9329   3.197   1.460   3.087
 2923SOL    HW2 9330   3.086   1.380   3.022
 2924SOL     OW 9331   3.444   0.623   2.340
 2924SOL    HW1 9332   3.398   0.678   2.404
 2924SOL    HW2 9333   3.489   0.685   2.283
 2925SOL     OW 9334   2.211   1.520   3.181
 2925SOL    HW1 9335   2.197   1.481   3.094
 2925SOL    HW2 9336   2.305   1.536   3.184
 2926SOL     OW 9337   2.276   0.744   3.464
 2926SOL    HW1 9338   2.337   0.790   3.406
 2926SOL    HW2 9339   2.318   0.660   3.482
 2927SOL     OW 9340   3.462   0.778   3.543
 2927SOL    HW1 9341   3.376   0.819   3.536
 2927SOL    HW2 9342   3.515   0.820   3.475
 2928SOL     OW 9343   2.905   0.115   3.646
 2928SOL    HW1 9344   2.929   0.195   3.599
 2928SOL    HW2 9345   2.911   0.046   3.580
 2929SOL     OW 9346   2.345   0.056   3.601
 2929SOL    HW1 9347   2.288   5.292   3.558
 2929SOL    HW2 9348   2.286   0.129   3.622
 2930SOL     OW 9349   2.446   0.872   2.894
 2930SOL    HW1 9350   2.475   0.963   2.891
 2930SOL    HW2 9351   2.388   0.868   2.970
 2931SOL     OW 9352   3.221   0.859   2.893
 2931SOL    HW1 9353   3.138   0.851   2.845
 2931SOL    HW2 9354   3.260   0.772   2.888
 2932SOL     OW 9355   3.068   0.529   2.130
 2932SOL    HW1 9356   3.072   0.448   2.181
 2932SOL    HW2 9357   3.026   0.592   2.188
 2933SOL     OW 9358   2.159   0.204   3.109
 2933SOL    HW1 9359   2.120   0.243   3.187
 2933SOL    HW2 9360   2.157   0.110   3.125
 2934SOL     OW 9361   1.905   1.310   3.139
 2934SOL    HW1 9362   1.941   1.257   3.210
 2934SOL    HW2 9363   1.915   1.400   3.168
 2935SOL     OW 9364   2.588   0.632   2.922
 2935SOL    HW1 9365   2.661   0.615   2.863
 2935SOL    HW2 9366   2.559   0.720   2.900
 2936SOL     OW 9367   3.596   0.959   3.714
 2936SOL    HW1 9368   3.550   0.899   3.656
 2936SOL    HW2 9369   3.537   0.972   3.788
 2937SOL     OW 9370   2.164   0.073   2.511
 2937SOL    HW1 9371   2.148   0.167   2.520
 2937SOL    HW2 9372   2.203   0.047   2.594
 2938SOL     OW 9373   3.473   0.374   2.228
 2938SOL    HW1 9374   3.507   0.311   2.292
 2938SOL    HW2 9375   3.453   0.452   2.280
 2939SOL     OW 9376   2.890   0.759   2.823
 2939SOL    HW1 9377   2.887   0.777   2.917
 2939SOL    HW2 9378   2.863   0.668   2.815
 2940SOL     OW 9379   2.846   1.563   3.582
 2940SOL    HW1 9380   2.827   1.604   3.497
 2940SOL    HW2 9381   2.890   1.481   3.559
 2941SOL     OW 9382   3.717   1.507   3.467
 2941SOL    HW1 9383   3.735   1.533   3.377
 2941SOL    HW2 9384   3.798   1.526   3.514
 2942SOL     OW 9385   2.215   0.915   3.671
 2942SOL    HW1 9386   2.298   0.935   3.716
 2942SOL    HW2 9387   2.239   0.853   3.602
 2943SOL     OW 9388   3.389   0.273   1.988
 2943SOL    HW1 9389   3.325   0.208   2.019
 2943SOL    HW2 9390   3.425   0.311   2.068
 2944SOL     OW 9391   3.155   0.827   1.894
 2944SOL    HW1 9392   3.197   0.741   1.897
 2944SOL    HW2 9393   3.186   0.866   1.812
 2945SOL     OW 9394   2.927   1.335   2.716
 2945SOL    HW1 9395   2.930   1.263   2.653
 2945SOL    HW2 9396   2.989   1.400   2.681
 2946SOL     OW 9397   2.171   0.809   2.810
 2946SOL    HW1 9398   2.264   0.831   2.803
 2946SOL    HW2 9399   2.170   0.719   2.842
 2947SOL     OW 9400   2.195   0.525   2.875
 2947SOL    HW1 9401   2.158   0.438   2.858
 2947SOL    HW2 9402   2.271   0.530   2.817
 2948SOL     OW 9403   2.997   0.378   3.550
 2948SOL    HW1 9404   2.950   0.433   3.612
 2948SOL    HW2 9405   3.085   0.417   3.545
 2949SOL     OW 9406   2.996   0.222   3.327
 2949SOL    HW1 9407   3.001   0.281   3.403
 2949SOL    HW2 9408   3.051   0.265   3.261
 2950SOL     OW 9409   1.867   1.322   2.057
 2950SOL    HW1 9410   1.780   1.336   2.019
 2950SOL    HW2 9411   1.864   1.232   2.090
 2951SOL     OW 9412   1.950   1.789   2.795
 2951SOL    HW1 9413   1.921   1.708   2.754
 2951SOL    HW2 9414   2.041   1.799   2.767
 2952SOL     OW 9415   2.359   1.573   2.767
 2952SOL    HW1 9416   2.427   1.635   2.790
 2952SOL    HW2 9417   2.403   1.508   2.711
 2953SOL     OW 9418   2.847   0.793   3.089
 2953SOL    HW1 9419   2.902   0.769   3.164
 2953SOL    HW2 9420   2.761   0.756   3.110
 2954SOL     OW 9421   1.897   0.543   2.979
 2954SOL    HW1 9422   1.977   0.529   2.928
 2954SOL    HW2 9423   1.927   0.548   3.070
 2955SOL     OW 9424   2.049   0.521   3.588
 2955SOL    HW1 9425   2.112   0.487   3.525
 2955SOL    HW2 9426   2.008   0.595   3.543
 2956SOL     OW 9427   3.239   0.940   3.521
 2956SOL    HW1 9428   3.260   1.033   3.519
 2956SOL    HW2 9429   3.236   0.914   3.429
 2957SOL     OW 9430   2.676   0.572   2.223
 2957SOL    HW1 9431   2.679   0.497   2.163
 2957SOL    HW2 9432   2.602   0.624   2.192
 2958SOL     OW 9433   3.504   0.601   3.049
 2958SOL    HW1 9434   3.493   0.542   3.123
 2958SOL    HW2 9435   3.591   0.581   3.015
 2959SOL     OW 9436   2.111   1.550   3.592
 2959SOL    HW1 9437   2.082   1.613   3.658
 2959SOL    HW2 9438   2.108   1.466   3.638
 2960SOL     OW 9439   2.559   0.452   3.123
 2960SOL    HW1 9440   2.509   0.378   3.089
 2960SOL    HW2 9441   2.559   0.516   3.052
 2961SOL     OW 9442   2.788   1.652   3.331
 2961SOL    HW1 9443   2.761   1.621   3.244
 2961SOL    HW2 9444   2.797   1.747   3.321
 2962SOL     OW 9445   2.326   0.493   2.046
 2962SOL    HW1 9446   2.386   0.564   2.069
 2962SOL    HW2 9447   2.240   0.535   2.037
 2963SOL     OW 9448   2.008   1.140   3.334
 2963SOL    HW1 9449   2.011   1.088   3.414
 2963SOL    HW2 9450   2.025   1.077   3.264
 2964SOL     OW 9451   3.189   1.048   3.086
 2964SOL    HW1 9452   3.212   0.984   3.018
 2964SOL    HW2 9453   3.118   1.099   3.047
 2965SOL     OW 9454   3.172   0.857   2.169
 2965SOL    HW1 9455   3.097   0.826   2.218
 2965SOL    HW2 9456   3.149   0.843   2.077
 2966SOL     OW 9457   3.632   1.745   3.011
 2966SOL    HW1 9458   3.693   1.771   2.942
 2966SOL    HW2 9459   3.609   1.655   2.990
 2967SOL     OW 9460   3.103   1.733   2.976
 2967SOL    HW1 9461   3.185   1.753   2.931
 2967SOL    HW2 9462   3.108   1.639   2.994
 2968SOL     OW 9463   1.947   1.266   2.875
 2968SOL    HW1 9464   1.932   1.279   2.969
 2968SOL    HW2 9465   1.872   1.213   2.846
 2969SOL     OW 9466   2.541   1.661   3.588
 2969SOL    HW1 9467   2.474   1.723   3.559
 2969SOL    HW2 9468   2.610   1.669   3.523
 2970SOL     OW 9469   3.575   0.148   2.365
 2970SOL    HW1 9470   3.650   0.127   2.310
 2970SOL    HW2 9471   3.567   0.073   2.424
 2971SOL     OW 9472   3.252   1.568   2.346
 2971SOL    HW1 9473   3.313   1.600   2.279
 2971SOL    HW2 9474   3.204   1.645   2.374
 2972SOL     OW 9475   1.997   1.798   3.707
 2972SOL    HW1 9476   1.948   1.730   3.754
 2972SOL    HW2 9477   2.036   1.851   3.776
 2973SOL     OW 9478   3.139   0.925   2.533
 2973SOL    HW1 9479   3.213   0.864   2.539
 2973SOL    HW2 9480   3.173   0.998   2.481
 2974SOL     OW 9481   2.678   1.272   3.292
 2974SOL    HW1 9482   2.650   1.312   3.375
 2974SOL    HW2 9483   2.608   1.295   3.230
 2975SOL     OW 9484   2.535   1.617   2.018
 2975SOL    HW1 9485   2.543   1.631   1.924
 2975SOL    HW2 9486   2.479   1.540   2.026
 2976SOL     OW 9487   3.490   1.727   3.253
 2976SOL    HW1 9488   3.539   1.734   3.171
 2976SOL    HW2 9489   3.476   1.817   3.281
 2977SOL     OW 9490   3.707   0.158   2.820
 2977SOL    HW1 9491   3.708   0.063   2.804
 2977SOL    HW2 9492   3.620   0.186   2.792
 2978SOL     OW 9493   2.125   0.329   2.582
 2978SOL    HW1 9494   2.037   0.360   2.559
 2978SOL    HW2 9495   2.122   0.317   2.677
 2979SOL     OW 9496   3.069   1.606   1.893
 2979SOL    HW1 9497   3.059   1.515   1.920
 2979SOL    HW2 9498   3.004   1.618   1.824
 2980SOL     OW 9499   2.686   1.006   3.234
 2980SOL    HW1 9500   2.730   1.002   3.149
 2980SOL    HW2 9501   2.686   1.099   3.257
 2981SOL     OW 9502   2.778   0.910   2.152
 2981SOL    HW1 9503   2.839   0.942   2.086
 2981SOL    HW2 9504   2.825   0.840   2.197
 2982SOL     OW 9505   3.355   1.625   1.904
 2982SOL    HW1 9506   3.260   1.619   1.891
 2982SOL    HW2 9507   3.391   1.631   1.816
 2983SOL     OW 9508   2.231   1.300   3.355
 2983SOL    HW1 9509   2.220   1.378   3.300
 2983SOL    HW2 9510   2.154   1.247   3.338
 2984SOL     OW 9511   3.473   1.283   3.143
 2984SOL    HW1 9512   3.533   1.273   3.217
 2984SOL    HW2 9513   3.413   1.352   3.169
 2985SOL     OW 9514   2.913   1.107   2.568
 2985SOL    HW1 9515   2.842   1.055   2.607
 2985SOL    HW2 9516   2.975   1.041   2.536
 2986SOL     OW 9517   2.882   0.243   2.830
 2986SOL    HW1 9518   2.862   0.197   2.748
 2986SOL    HW2 9519   2.874   0.176   2.897
 2987SOL     OW 9520   2.464   1.488   2.344
 2987SOL    HW1 9521   2.508   1.438   2.274
 2987SOL    HW2 9522   2.397   1.539   2.298
 2988SOL     OW 9523   3.585   0.387   3.240
 2988SOL    HW1 9524   3.655   0.452   3.240
 2988SOL    HW2 9525   3.617   0.317   3.183
 2989SOL     OW 9526   2.121   1.346   2.149
 2989SOL    HW1 9527   2.028   1.343   2.127
 2989SOL    HW2 9528   2.123   1.382   2.238
 2990SOL     OW 9529   1.975   1.020   3.581
 2990SOL    HW1 9530   1.898   0.998   3.635
 2990SOL    HW2 9531   2.049   0.983   3.629
 2991SOL     OW 9532   2.534   0.210   3.350
 2991SOL    HW1 9533   2.618   0.193   3.306
 2991SOL    HW2 9534   2.557   0.260   3.428
 2992SOL     OW 9535   1.939   0.339   1.903
 2992SOL    HW1 9536   1.856   0.307   1.870
 2992SOL    HW2 9537   1.961   0.413   1.845
 2993SOL     OW 9538   3.292   0.858   3.263
 2993SOL    HW1 9539   3.244   0.919   3.207
 2993SOL    HW2 9540   3.382   0.861   3.229
 2994SOL     OW 9541   1.934   0.167   2.178
 2994SOL    HW1 9542   1.934   0.250   2.130
 2994SOL    HW2 9543   2.019   0.127   2.158
 2995SOL     OW 9544   3.041   1.340   1.979
 2995SOL    HW1 9545   2.951   1.309   1.982
 2995SOL    HW2 9546   3.070   1.340   2.070
 2996SOL     OW 9547   2.481   0.831   3.295
 2996SOL    HW1 9548   2.536   0.907   3.280
 2996SOL    HW2 9549   2.543   0.758   3.304
 2997SOL     OW 9550   3.346   1.775   2.840
 2997SOL    HW1 9551   3.370   1.834   2.768
 2997SOL    HW2 9552   3.429   1.757   2.885
 2998SOL     OW 9553   2.578   0.572   3.565
 2998SOL    HW1 9554   2.617   0.636   3.625
 2998SOL    HW2 9555   2.610   0.487   3.596
 2999SOL     OW 9556   3.333   1.201   3.494
 2999SOL    HW1 9557   3.320   1.215   3.588
 2999SOL    HW2 9558   3.426   1.215   3.480
 3000SOL     OW 9559   2.252   1.740   3.432
 3000SOL    HW1 9560   2.168   1.783   3.416
 3000SOL    HW2 9561   2.229   1.657   3.473
 3001SOL     OW 9562   3.532   0.882   3.117
 3001SOL    HW1 9563   3.525   0.796   3.074
 3001SOL    HW2 9564   3.523   0.945   3.046
 3002SOL     OW 9565   3.082   0.319   2.328
 3002SOL    HW1 9566   3.145   0.248   2.320
 3002SOL    HW2 9567   3.113   0.371   2.403
 3003SOL     OW 9568   2.452   0.739   2.531
 3003SOL    HW1 9569   2.491   0.825   2.515
 3003SOL    HW2 9570   2.384   0.731   2.465
 3004SOL     OW 9571   3.629   0.361   3.510
 3004SOL    HW1 9572   3.609   0.375   3.418
 3004SOL    HW2 9573   3.558   0.305   3.542
 3005SOL     OW 9574   3.606   0.934   3.374
 3005SOL    HW1 9575   3.605   1.028   3.388
 3005SOL    HW2 9576   3.591   0.922   3.281
 3006SOL     OW 9577   2.723   1.368   1.894
 3006SOL    HW1 9578   2.685   1.395   1.978
 3006SOL    HW2 9579   2.743   1.450   1.849
 3007SOL     OW 9580   2.522   1.790   2.803
 3007SOL    HW1 9581   2.504   1.882   2.786
 3007SOL    HW2 9582   2.618   1.783   2.800
 3008SOL     OW 9583   2.729   0.966   2.718
 3008SOL    HW1 9584   2.779   0.895   2.757
 3008SOL    HW2 9585   2.695   1.016   2.792
 3009SOL     OW 9586   2.941   0.988   1.950
 3009SOL    HW1 9587   2.920   1.039   1.872
 3009SOL    HW2 9588   3.016   0.935   1.925
 3010SOL     OW 9589   3.717   1.555   2.706
 3010SOL    HW1 9590   3.639   1.544   2.652
 3010SOL    HW2 9591   3.708   1.488   2.775
 3011SOL     OW 9592   2.086   1.302   3.718
 3011SOL    HW1 9593   2.019   1.242   3.687
 3011SOL    HW2 9594   2.067   1.314   3.811
 3012SOL     OW 9595   1.945   1.233   2.526
 3012SOL    HW1 9596   1.951   1.185   2.609
 3012SOL    HW2 9597   2.015   1.195   2.472
 3013SOL     OW 9598   2.543   1.399   3.489
 3013SOL    HW1 9599   2.462   1.357   3.519
 3013SOL    HW2 9600   2.539   1.488   3.526
 3014SOL     OW 9601   3.677   0.178   3.095
 3014SOL    HW1 9602   3.645   0.088   3.102
 3014SOL    HW2 9603   3.694   0.190   3.002
 3015SOL     OW 9604   2.291   0.435   2.385
 3015SOL    HW1 9605   2.323   0.362   2.332
 3015SOL    HW2 9606   2.245   0.393   2.458
 3016SOL     OW 9607   3.563   1.490   2.959
 3016SOL    HW1 9608   3.482   1.466   2.914
 3016SOL    HW2 9609   3.575   1.421   3.025
 3017SOL     OW 9610   2.190   0.555   3.152
 3017SOL    HW1 9611   2.246   0.501   3.207
 3017SOL    HW2 9612   2.210   0.528   3.063
 3018SOL     OW 9613   2.689   1.577   2.540
 3018SOL    HW1 9614   2.678   1.630   2.461
 3018SOL    HW2 9615   2.612   1.521   2.543
 3019SOL     OW 9616   3.290   0.218   2.979
 3019SOL    HW1 9617   3.327   0.144   3.027
 3019SOL    HW2 9618   3.241   0.268   3.044
 3020SOL     OW 9619   2.864   0.022   3.003
 3020SOL    HW1 9620   2.814   5.252   2.962
 3020SOL    HW2 9621   2.951   5.284   3.016
 3021SOL     OW 9622   2.634   1.332   2.175
 3021SOL    HW1 9623   2.602   1.242   2.182
 3021SOL    HW2 9624   2.716   1.332   2.225
 3022SOL     OW 9625   2.482   1.557   3.146
 3022SOL    HW1 9626   2.486   1.637   3.200
 3022SOL    HW2 9627   2.569   1.550   3.108
 3023SOL     OW 9628   3.218   0.039   2.024
 3023SOL    HW1 9629   3.248   5.296   1.944
 3023SOL    HW2 9630   3.137   5.294   2.047
 3024SOL     OW 9631   3.163   0.464   2.547
 3024SOL    HW1 9632   3.108   0.542   2.553
 3024SOL    HW2 9633   3.157   0.423   2.634
 3025SOL     OW 9634   3.456   0.216   2.743
 3025SOL    HW1 9635   3.389   0.227   2.811
 3025SOL    HW2 9636   3.449   0.294   2.689
 3026SOL     OW 9637   1.905   1.072   2.167
 3026SOL    HW1 9638   1.999   1.063   2.150
 3026SOL    HW2 9639   1.877   0.983   2.190
 3027SOL     OW 9640   2.746   1.651   2.204
 3027SOL    HW1 9641   2.673   1.634   2.144
 3027SOL    HW2 9642   2.716   1.726   2.256
 3028SOL     OW 9643   2.091   0.625   3.846
 3028SOL    HW1 9644   2.002   0.622   3.881
 3028SOL    HW2 9645   2.082   0.598   3.755
 3029SOL     OW 9646   2.081   0.283   4.716
 3029SOL    HW1 9647   2.109   0.249   4.801
 3029SOL    HW2 9648   1.995   0.243   4.702
 3030SOL     OW 9649   1.866   0.385   4.362
 3030SOL    HW1 9650   1.782   0.406   4.402
 3030SOL    HW2 9651   1.849   0.308   4.309
 3031SOL     OW 9652   2.428   1.286   4.898
 3031SOL    HW1 9653   2.341   1.290   4.860
 3031SOL    HW2 9654   2.444   1.374   4.931
 3032SOL     OW 9655   3.423   1.512   4.430
 3032SOL    HW1 9656   3.379   1.492   4.513
 3032SOL    HW2 9657   3.352   1.514   4.366
 3033SOL     OW 9658   2.993   0.698   4.427
 3033SOL    HW1 9659   3.042   0.779   4.411
 3033SOL    HW2 9660   2.946   0.713   4.508
 3034SOL     OW 9661   3.628   0.607   3.953
 3034SOL    HW1 9662   3.608   0.598   3.860
 3034SOL    HW2 9663   3.593   0.526   3.992
 3035SOL     OW 9664   2.618   1.143   4.764
 3035SOL    HW1 9665   2.549   1.177   4.820
 3035SOL    HW2 9666   2.653   1.220   4.720
 3036SOL     OW 9667   2.726   0.778   5.546
 3036SOL    HW1 9668   2.715   0.850   5.608
 3036SOL    HW2 9669   2.751   0.822   5.464
 3037SOL     OW 9670   2.548   1.004   4.371
 3037SOL    HW1 9671   2.613   0.991   4.441
 3037SOL    HW2 9672   2.478   1.055   4.412
 3038SOL     OW 9673   2.572   1.151   5.535
 3038SOL    HW1 9674   2.619   1.230   5.561
 3038SOL    HW2 9675   2.489   1.184   5.501
 3039SOL     OW 9676   2.194   1.425   4.792
 3039SOL    HW1 9677   2.120   1.390   4.741
 3039SOL    HW2 9678   2.243   1.477   4.728
 3040SOL     OW 9679   3.323   1.499   5.077
 3040SOL    HW1 9680   3.372   1.580   5.087
 3040SOL    HW2 9681   3.262   1.498   5.151
 3041SOL     OW 9682   2.305   0.398   5.211
 3041SOL    HW1 9683   2.380   0.339   5.209
 3041SOL    HW2 9684   2.230   0.341   5.226
 3042SOL     OW 9685   3.473   0.452   4.462
 3042SOL    HW1 9686   3.397   0.476   4.409
 3042SOL    HW2 9687   3.492   0.530   4.513
 3043SOL     OW 9688   2.083   1.726   4.200
 3043SOL    HW1 9689   2.119   1.769   4.278
 3043SOL    HW2 9690   2.158   1.719   4.140
 3044SOL     OW 9691   2.998   1.341   5.416
 3044SOL    HW1 9692   3.038   1.337   5.503
 3044SOL    HW2 9693   2.946   1.262   5.410
 3045SOL     OW 9694   2.090   1.444   4.259
 3045SOL    HW1 9695   2.068   1.537   4.268
 3045SOL    HW2 9696   2.032   1.399   4.321
 3046SOL     OW 9697   2.118   1.090   4.614
 3046SOL    HW1 9698   2.115   1.004   4.656
 3046SOL    HW2 9699   2.061   1.144   4.668
 3047SOL     OW 9700   2.477   1.783   5.160
 3047SOL    HW1 9701   2.392   1.768   5.202
 3047SOL    HW2 9702   2.497   1.875   5.177
 3048SOL     OW 9703   2.448   0.981   3.858
 3048SOL    HW1 9704   2.493   1.031   3.789
 3048SOL    HW2 9705   2.489   1.011   3.939
 3049SOL     OW 9706   3.448   0.134   5.181
 3049SOL    HW1 9707   3.468   0.219   5.142
 3049SOL    HW2 9708   3.447   0.151   5.275
 3050SOL     OW 9709   1.976   0.653   4.283
 3050SOL    HW1 9710   1.949   0.564   4.305
 3050SOL    HW2 9711   1.969   0.701   4.366
 3051SOL     OW 9712   3.705   1.760   4.060
 3051SOL    HW1 9713   3.768   1.732   4.125
 3051SOL    HW2 9714   3.729   1.851   4.040
 3052SOL     OW 9715   1.896   1.595   3.849
 3052SOL    HW1 9716   1.877   1.503   3.866
 3052SOL    HW2 9717   1.868   1.641   3.929
 3053SOL     OW 9718   3.551   0.919   4.364
 3053SOL    HW1 9719   3.635   0.877   4.343
 3053SOL    HW2 9720   3.529   0.969   4.286
 3054SOL     OW 9721   3.507   1.107   4.154
 3054SOL    HW1 9722   3.593   1.114   4.111
 3054SOL    HW2 9723   3.512   1.168   4.227
 3055SOL     OW 9724   1.984   0.743   5.309
 3055SOL    HW1 9725   2.076   0.768   5.319
 3055SOL    HW2 9726   1.937   0.826   5.317
 3056SOL     OW 9727   2.476   1.385   4.458
 3056SOL    HW1 9728   2.430   1.302   4.468
 3056SOL    HW2 9729   2.459   1.411   4.368
 3057SOL     OW 9730   3.152   1.238   5.148
 3057SOL    HW1 9731   3.184   1.171   5.088
 3057SOL    HW2 9732   3.209   1.231   5.224
 3058SOL     OW 9733   2.672   0.025   4.250
 3058SOL    HW1 9734   2.701   0.113   4.226
 3058SOL    HW2 9735   2.576   0.029   4.245
 3059SOL     OW 9736   2.052   0.967   4.995
 3059SOL    HW1 9737   2.137   0.925   4.979
 3059SOL    HW2 9738   1.990   0.912   4.948
 3060SOL     OW 9739   3.394   0.993   3.922
 3060SOL    HW1 9740   3.324   0.935   3.953
 3060SOL    HW2 9741   3.434   1.027   4.002
 3061SOL     OW 9742   3.049   1.804   5.348
 3061SOL    HW1 9743   3.058   1.862   5.273
 3061SOL    HW2 9744   3.063   1.716   5.312
 3062SOL     OW 9745   2.188   0.265   5.534
 3062SOL    HW1 9746   2.240   0.341   5.560
 3062SOL    HW2 9747   2.102   0.280   5.573
 3063SOL     OW 9748   3.327   1.420   4.675
 3063SOL    HW1 9749   3.260   1.434   4.742
 3063SOL    HW2 9750   3.316   1.329   4.649
 3064SOL     OW 9751   3.521   1.738   4.302
 3064SOL    HW1 9752   3.502   1.708   4.213
 3064SOL    HW2 9753   3.496   1.664   4.358
 3065SOL     OW 9754   2.457   0.722   3.989
 3065SOL    HW1 9755   2.463   0.802   3.938
 3065SOL    HW2 9756   2.392   0.741   4.057
 3066SOL     OW 9757   3.140   0.345   4.654
 3066SOL    HW1 9758   3.050   0.318   4.667
 3066SOL    HW2 9759   3.190   0.296   4.720
 3067SOL     OW 9760   3.447   1.662   4.035
 3067SOL    HW1 9761   3.535   1.700   4.027
 3067SOL    HW2 9762   3.417   1.652   3.945
 3068SOL     OW 9763   2.657   0.617   5.175
 3068SOL    HW1 9764   2.629   0.597   5.264
 3068SOL    HW2 9765   2.613   0.552   5.120
 3069SOL     OW 9766   3.257   0.475   5.402
 3069SOL    HW1 9767   3.258   0.519   5.487
 3069SOL    HW2 9768   3.320   0.404   5.411
 3070SOL     OW 9769   2.818   0.888   5.306
 3070SOL    HW1 9770   2.872   0.817   5.271
 3070SOL    HW2 9771   2.770   0.922   5.230
 3071SOL     OW 9772   2.856   0.416   4.960
 3071SOL    HW1 9773   2.772   0.439   5.000
 3071SOL    HW2 9774   2.833   0.368   4.881
 3072SOL     OW 9775   2.912   0.698   4.151
 3072SOL    HW1 9776   2.927   0.691   4.245
 3072SOL    HW2 9777   2.830   0.652   4.136
 3073SOL     OW 9778   1.950   0.821   4.501
 3073SOL    HW1 9779   2.032   0.814   4.551
 3073SOL    HW2 9780   1.908   0.899   4.535
 3074SOL     OW 9781   1.989   1.849   5.302
 3074SOL    HW1 9782   1.989   1.827   5.395
 3074SOL    HW2 9783   1.898   1.838   5.275
 3075SOL     OW 9784   2.734   0.363   3.913
 3075SOL    HW1 9785   2.778   0.422   3.853
 3075SOL    HW2 9786   2.785   0.282   3.908
 3076SOL     OW 9787   3.570   0.575   5.552
 3076SOL    HW1 9788   3.533   0.649   5.504
 3076SOL    HW2 9789   3.599   0.515   5.484
 3077SOL     OW 9790   3.238   1.142   4.266
 3077SOL    HW1 9791   3.317   1.129   4.213
 3077SOL    HW2 9792   3.185   1.204   4.215
 3078SOL     OW 9793   2.390   0.201   4.607
 3078SOL    HW1 9794   2.411   0.217   4.699
 3078SOL    HW2 9795   2.411   0.284   4.563
 3079SOL     OW 9796   2.870   1.444   4.198
 3079SOL    HW1 9797   2.831   1.515   4.146
 3079SOL    HW2 9798   2.852   1.468   4.289
 3080SOL     OW 9799   2.207   1.793   4.557
 3080SOL    HW1 9800   2.257   1.714   4.578
 3080SOL    HW2 9801   2.261   1.865   4.589
 3081SOL     OW 9802   3.661   1.058   4.592
 3081SOL    HW1 9803   3.606   1.041   4.515
 3081SOL    HW2 9804   3.599   1.063   4.665
 3082SOL     OW 9805   3.090   1.539   5.237
 3082SOL    HW1 9806   3.076   1.466   5.297
 3082SOL    HW2 9807   3.027   1.525   5.167
 3083SOL     OW 9808   2.183   0.957   3.973
 3083SOL    HW1 9809   2.265   0.976   3.928
 3083SOL    HW2 9810   2.152   0.875   3.934
 3084SOL     OW 9811   3.340   0.742   4.451
 3084SOL    HW1 9812   3.331   0.698   4.536
 3084SOL    HW2 9813   3.417   0.797   4.461
 3085SOL     OW 9814   2.328   1.264   5.462
 3085SOL    HW1 9815   2.300   1.269   5.370
 3085SOL    HW2 9816   2.246   1.263   5.511
 3086SOL     OW 9817   2.985   1.772   3.961
 3086SOL    HW1 9818   2.907   1.731   3.999
 3086SOL    HW2 9819   3.004   1.719   3.884
 3087SOL     OW 9820   2.059   0.278   5.226
 3087SOL    HW1 9821   1.980   0.332   5.221
 3087SOL    HW2 9822   2.050   0.230   5.308
 3088SOL     OW 9823   3.491   1.379   3.811
 3088SOL    HW1 9824   3.451   1.464   3.797
 3088SOL    HW2 9825   3.422   1.316   3.792
 3089SOL     OW 9826   2.333   1.744   4.060
 3089SOL    HW1 9827   2.398   1.782   4.118
 3089SOL    HW2 9828   2.383   1.710   3.986
 3090SOL     OW 9829   3.269   0.099   4.155
 3090SOL    HW1 9830   3.260   0.082   4.062
 3090SOL    HW2 9831   3.361   0.122   4.167
 3091SOL     OW 9832   2.111   1.790   4.961
 3091SOL    HW1 9833   2.169   1.726   5.001
 3091SOL    HW2 9834   2.105   1.764   4.869
 3092SOL     OW 9835   2.792   1.706   4.627
 3092SOL    HW1 9836   2.877   1.663   4.642
 3092SOL    HW2 9837   2.756   1.662   4.551
 3093SOL     OW 9838   2.254   0.696   4.201
 3093SOL    HW1 9839   2.276   0.603   4.211
 3093SOL    HW2 9840   2.160   0.701   4.218
 3094SOL     OW 9841   3.402   0.228   5.448
 3094SOL    HW1 9842   3.409   0.246   5.541
 3094SOL    HW2 9843   3.326   0.169   5.440
 3095SOL     OW 9844   2.486   0.133   3.831
 3095SOL    HW1 9845   2.552   0.067   3.854
 3095SOL    HW2 9846   2.435   0.092   3.761
 3096SOL     OW 9847   2.645   0.313   5.491
 3096SOL    HW1 9848   2.701   0.236   5.492
 3096SOL    HW2 9849   2.595   0.307   5.572
 3097SOL     OW 9850   2.736   1.518   4.919
 3097SOL    HW1 9851   2.723   1.485   4.830
 3097SOL    HW2 9852   2.808   1.466   4.954
 3098SOL     OW 9853   3.203   0.588   5.156
 3098SOL    HW1 9854   3.234   0.558   5.241
 3098SOL    HW2 9855   3.239   0.677   5.149
 3099SOL     OW 9856   2.676   1.396   4.662
 3099SOL    HW1 9857   2.761   1.386   4.619
 3099SOL    HW2 9858   2.612   1.395   4.591
 3100SOL     OW 9859   2.789   0.510   4.628
 3100SOL    HW1 9860   2.765   0.502   4.535
 3100SOL    HW2 9861   2.821   0.423   4.652
 3101SOL     OW 9862   2.404   0.063   4.233
 3101SOL    HW1 9863   2.318   0.062   4.276
 3101SOL    HW2 9864   2.397   0.133   4.168
 3102SOL     OW 9865   3.290   1.198   3.765
 3102SOL    HW1 9866   3.320   1.122   3.815
 3102SOL    HW2 9867   3.204   1.219   3.803
 3103SOL     OW 9868   2.163   0.061   3.914
 3103SOL    HW1 9869   2.221   0.130   3.884
 3103SOL    HW2 9870   2.220   5.285   3.927
 3104SOL     OW 9871   2.801   0.259   4.186
 3104SOL    HW1 9872   2.772   0.299   4.103
 3104SOL    HW2 9873   2.896   0.271   4.187
 3105SOL     OW 9874   2.943   0.681   5.184
 3105SOL    HW1 9875   2.873   0.615   5.189
 3105SOL    HW2 9876   3.023   0.630   5.177
 3106SOL     OW 9877   3.086   1.569   4.518
 3106SOL    HW1 9878   3.112   1.630   4.449
 3106SOL    HW2 9879   3.154   1.579   4.585
 3107SOL     OW 9880   2.330   1.150   4.458
 3107SOL    HW1 9881   2.261   1.130   4.521
 3107SOL    HW2 9882   2.291   1.132   4.373
 3108SOL     OW 9883   3.156   1.780   4.332
 3108SOL    HW1 9884   3.200   1.840   4.272
 3108SOL    HW2 9885   3.098   1.836   4.384
 3109SOL     OW 9886   2.888   0.547   3.745
 3109SOL    HW1 9887   2.845   0.630   3.727
 3109SOL    HW2 9888   2.952   0.567   3.814
 3110SOL     OW 9889   1.940   0.553   5.117
 3110SOL    HW1 9890   2.031   0.553   5.089
 3110SOL    HW2 9891   1.935   0.624   5.181
 3111SOL     OW 9892   2.418   0.237   4.882
 3111SOL    HW1 9893   2.449   0.151   4.910
 3111SOL    HW2 9894   2.326   0.240   4.908
 3112SOL     OW 9895   2.729   0.462   4.365
 3112SOL    HW1 9896   2.683   0.515   4.300
 3112SOL    HW2 9897   2.752   0.381   4.318
 3113SOL     OW 9898   2.840   0.061   4.486
 3113SOL    HW1 9899   2.775   0.055   4.416
 3113SOL    HW2 9900   2.850   5.271   4.518
 3114SOL     OW 9901   3.299   1.163   4.581
 3114SOL    HW1 9902   3.230   1.097   4.580
 3114SOL    HW2 9903   3.323   1.175   4.489
 3115SOL     OW 9904   3.329   0.605   4.703
 3115SOL    HW1 9905   3.280   0.523   4.706
 3115SOL    HW2 9906   3.389   0.600   4.777
 3116SOL     OW 9907   3.708   0.817   4.106
 3116SOL    HW1 9908   3.764   0.765   4.164
 3116SOL    HW2 9909   3.679   0.755   4.039
 3117SOL     OW 9910   2.350   1.417   3.881
 3117SOL    HW1 9911   2.276   1.386   3.933
 3117SOL    HW2 9912   2.337   1.379   3.794
 3118SOL     OW 9913   3.531   1.264   4.372
 3118SOL    HW1 9914   3.626   1.268   4.384
 3118SOL    HW2 9915   3.501   1.353   4.392
 3119SOL     OW 9916   3.256   0.572   3.795
 3119SOL    HW1 9917   3.195   0.553   3.866
 3119SOL    HW2 9918   3.341   0.541   3.827
 3120SOL     OW 9919   2.386   0.264   4.045
 3120SOL    HW1 9920   2.430   0.215   3.976
 3120SOL    HW2 9921   2.366   0.349   4.006
 3121SOL     OW 9922   3.615   1.238   5.298
 3121SOL    HW1 9923   3.702   1.199   5.294
 3121SOL    HW2 9924   3.630   1.328   5.327
 3122SOL     OW 9925   2.922   1.353   5.057
 3122SOL    HW1 9926   2.847   1.322   5.109
 3122SOL    HW2 9927   2.997   1.312   5.099
 3123SOL     OW 9928   3.469   1.626   5.377
 3123SOL    HW1 9929   3.464   1.659   5.288
 3123SOL    HW2 9930   3.552   1.578   5.380
 3124SOL     OW 9931   2.990   1.202   4.830
 3124SOL    HW1 9932   2.931   1.241   4.895
 3124SOL    HW2 9933   2.956   1.234   4.746
 3125SOL     OW 9934   3.491   1.099   4.802
 3125SOL    HW1 9935   3.486   1.161   4.874
 3125SOL    HW2 9936   3.412   1.115   4.751
 3126SOL     OW 9937   2.767   0.106   5.115
 3126SOL    HW1 9938   2.797   0.072   5.030
 3126SOL    HW2 9939   2.844   0.148   5.153
 3127SOL     OW 9940   2.846   1.114   5.447
 3127SOL    HW1 9941   2.754   1.130   5.467
 3127SOL    HW2 9942   2.845   1.037   5.391
 3128SOL     OW 9943   2.571   1.061   4.095
 3128SOL    HW1 9944   2.557   1.045   4.189
 3128SOL    HW2 9945   2.646   1.007   4.073
 3129SOL     OW 9946   2.280   0.815   4.975
 3129SOL    HW1 9947   2.349   0.824   5.041
 3129SOL    HW2 9948   2.245   0.727   4.990
 3130SOL     OW 9949   3.129   0.379   4.996
 3130SOL    HW1 9950   3.162   0.456   5.043
 3130SOL    HW2 9951   3.039   0.401   4.973
 3131SOL     OW 9952   1.932   1.573   5.075
 3131SOL    HW1 9953   1.901   1.646   5.021
 3131SOL    HW2 9954   2.027   1.578   5.071
 3132SOL     OW 9955   2.212   1.109   4.215
 3132SOL    HW1 9956   2.217   1.181   4.152
 3132SOL    HW2 9957   2.210   1.030   4.160
 3133SOL     OW 9958   2.416   0.538   4.585
 3133SOL    HW1 9959   2.431   0.596   4.510
 3133SOL    HW2 9960   2.481   0.565   4.650
 3134SOL     OW 9961   3.109   1.346   4.112
 3134SOL    HW1 9962   3.166   1.417   4.142
 3134SOL    HW2 9963   3.023   1.368   4.147
 3135SOL     OW 9964   3.142   1.457   4.870
 3135SOL    HW1 9965   3.197   1.460   4.949
 3135SOL    HW2 9966   3.086   1.381   4.883
 3136SOL     OW 9967   3.445   0.623   4.202
 3136SOL    HW1 9968   3.398   0.678   4.265
 3136SOL    HW2 9969   3.489   0.685   4.145
 3137SOL     OW 9970   2.209   1.524   5.040
 3137SOL    HW1 9971   2.197   1.482   4.955
 3137SOL    HW2 9972   2.304   1.538   5.046
 3138SOL     OW 9973   2.276   0.744   5.326
 3138SOL    HW1 9974   2.337   0.790   5.268
 3138SOL    HW2 9975   2.318   0.660   5.344
 3139SOL     OW 9976   3.462   0.778   5.405
 3139SOL    HW1 9977   3.376   0.819   5.398
 3139SOL    HW2 9978   3.515   0.820   5.337
 3140SOL     OW 9979   2.905   0.115   5.507
 3140SOL    HW1 9980   2.929   0.195   5.460
 3140SOL    HW2 9981   2.911   0.046   5.442
 3141SOL     OW 9982   2.344   0.056   5.463
 3141SOL    HW1 9983   2.288   5.292   5.421
 3141SOL    HW2 9984   2.286   0.129   5.484
 3142SOL     OW 9985   2.446   0.872   4.756
 3142SOL    HW1 9986   2.476   0.963   4.753
 3142SOL    HW2 9987   2.388   0.868   4.832
 3143SOL     OW 9988   3.221   0.859   4.755
 3143SOL    HW1 9989   3.138   0.851   4.707
 3143SOL    HW2 9990   3.260   0.772   4.750
 3144SOL     OW 9991   3.069   0.529   3.992
 3144SOL    HW1 9992   3.072   0.448   4.043
 3144SOL    HW2 9993   3.026   0.592   4.050
 3145SOL     OW 9994   2.159   0.204   4.971
 3145SOL    HW1 9995   2.120   0.243   5.049
 3145SOL    HW2 9996   2.157   0.110   4.988
 3146SOL     OW 9997   1.906   1.311   5.001
 3146SOL    HW1 9998   1.941   1.257   5.072
 3146SOL    HW2 9999   1.915   1.401   5.032
 3147SOL     OW10000   2.588   0.632   4.784
 3147SOL    HW110001   2.661   0.615   4.725
 3147SOL    HW210002   2.559   0.721   4.762
 3148SOL     OW10003   3.596   0.959   5.576
 3148SOL    HW110004   3.550   0.899   5.518
 3148SOL    HW210005   3.536   0.972   5.650
 3149SOL     OW10006   2.163   0.073   4.373
 3149SOL    HW110007   2.148   0.167   4.382
 3149SOL    HW210008   2.203   0.047   4.456
 3150SOL     OW10009   3.473   0.374   4.090
 3150SOL    HW110010   3.507   0.311   4.154
 3150SOL    HW210011   3.453   0.452   4.142
 3151SOL     OW10012   2.890   0.759   4.685
 3151SOL    HW110013   2.887   0.777   4.779
 3151SOL    HW210014   2.863   0.668   4.677
 3152SOL     OW10015   2.845   1.567   5.440
 3152SOL    HW110016   2.829   1.610   5.356
 3152SOL    HW210017   2.887   1.484   5.416
 3153SOL     OW10018   3.717   1.507   5.329
 3153SOL    HW110019   3.735   1.533   5.239
 3153SOL    HW210020   3.798   1.526   5.376
 3154SOL     OW10021   2.215   0.916   5.533
 3154SOL    HW110022   2.297   0.935   5.578
 3154SOL    HW210023   2.239   0.853   5.464
 3155SOL     OW10024   3.389   0.272   3.850
 3155SOL    HW110025   3.326   0.208   3.881
 3155SOL    HW210026   3.425   0.311   3.930
 3156SOL     OW10027   3.155   0.827   3.756
 3156SOL    HW110028   3.197   0.741   3.759
 3156SOL    HW210029   3.186   0.866   3.674
 3157SOL     OW10030   2.927   1.335   4.578
 3157SOL    HW110031   2.931   1.262   4.515
 3157SOL    HW210032   2.989   1.400   4.543
 3158SOL     OW10033   2.171   0.809   4.672
 3158SOL    HW110034   2.264   0.831   4.665
 3158SOL    HW210035   2.170   0.719   4.704
 3159SOL     OW10036   2.195   0.525   4.736
 3159SOL    HW110037   2.158   0.438   4.720
 3159SOL    HW210038   2.271   0.530   4.679
 3160SOL     OW10039   2.997   0.378   5.412
 3160SOL    HW110040   2.950   0.433   5.474
 3160SOL    HW210041   3.085   0.417   5.407
 3161SOL     OW10042   2.996   0.222   5.189
 3161SOL    HW110043   3.001   0.281   5.265
 3161SOL    HW210044   3.051   0.265   5.123
 3162SOL     OW10045   1.867   1.322   3.919
 3162SOL    HW110046   1.780   1.336   3.881
 3162SOL    HW210047   1.864   1.232   3.952
 3163SOL     OW10048   1.949   1.788   4.660
 3163SOL    HW110049   1.922   1.707   4.617
 3163SOL    HW210050   2.036   1.807   4.623
 3164SOL     OW10051   2.361   1.573   4.629
 3164SOL    HW110052   2.430   1.637   4.647
 3164SOL    HW210053   2.403   1.507   4.574
 3165SOL     OW10054   2.847   0.793   4.951
 3165SOL    HW110055   2.902   0.769   5.026
 3165SOL    HW210056   2.761   0.757   4.972
 3166SOL     OW10057   1.897   0.543   4.841
 3166SOL    HW110058   1.977   0.529   4.790
 3166SOL    HW210059   1.927   0.548   4.932
 3167SOL     OW10060   2.049   0.521   5.450
 3167SOL    HW110061   2.113   0.487   5.387
 3167SOL    HW210062   2.008   0.595   5.405
 3168SOL     OW10063   3.239   0.940   5.383
 3168SOL    HW110064   3.260   1.033   5.381
 3168SOL    HW210065   3.236   0.914   5.291
 3169SOL     OW10066   2.676   0.572   4.085
 3169SOL    HW110067   2.679   0.497   4.025
 3169SOL    HW210068   2.602   0.624   4.054
 3170SOL     OW10069   3.504   0.601   4.911
 3170SOL    HW110070   3.493   0.542   4.985
 3170SOL    HW210071   3.591   0.581   4.877
 3171SOL     OW10072   2.105   1.552   5.452
 3171SOL    HW110073   2.083   1.616   5.520
 3171SOL    HW210074   2.107   1.468   5.498
 3172SOL     OW10075   2.559   0.452   4.985
 3172SOL    HW110076   2.509   0.378   4.951
 3172SOL    HW210077   2.559   0.516   4.914
 3173SOL     OW10078   2.793   1.679   5.189
 3173SOL    HW110079   2.766   1.645   5.104
 3173SOL    HW210080   2.785   1.774   5.182
 3174SOL     OW10081   2.326   0.493   3.908
 3174SOL    HW110082   2.386   0.564   3.931
 3174SOL    HW210083   2.241   0.535   3.899
 3175SOL     OW10084   2.008   1.140   5.196
 3175SOL    HW110085   2.011   1.088   5.276
 3175SOL    HW210086   2.025   1.077   5.126
 3176SOL     OW10087   3.189   1.048   4.948
 3176SOL    HW110088   3.212   0.984   4.880
 3176SOL    HW210089   3.118   1.099   4.909
 3177SOL     OW10090   3.172   0.856   4.031
 3177SOL    HW110091   3.096   0.826   4.080
 3177SOL    HW210092   3.149   0.843   3.939
 3178SOL     OW10093   3.633   1.745   4.874
 3178SOL    HW110094   3.693   1.771   4.804
 3178SOL    HW210095   3.609   1.655   4.853
 3179SOL     OW10096   3.108   1.735   4.838
 3179SOL    HW110097   3.190   1.752   4.791
 3179SOL    HW210098   3.110   1.641   4.856
 3180SOL     OW10099   1.946   1.266   4.737
 3180SOL    HW110100   1.932   1.279   4.831
 3180SOL    HW210101   1.872   1.212   4.708
 3181SOL     OW10102   2.539   1.665   5.451
 3181SOL    HW110103   2.485   1.744   5.450
 3181SOL    HW210104   2.600   1.677   5.379
 3182SOL     OW10105   3.575   0.148   4.228
 3182SOL    HW110106   3.650   0.127   4.172
 3182SOL    HW210107   3.567   0.072   4.286
 3183SOL     OW10108   3.256   1.560   4.204
 3183SOL    HW110109   3.317   1.592   4.139
 3183SOL    HW210110   3.212   1.638   4.237
 3184SOL     OW10111   1.996   1.797   5.568
 3184SOL    HW110112   1.947   1.731   5.616
 3184SOL    HW210113   2.046   1.845   5.635
 3185SOL     OW10114   3.139   0.925   4.395
 3185SOL    HW110115   3.213   0.864   4.401
 3185SOL    HW210116   3.173   0.998   4.343
 3186SOL     OW10117   2.678   1.273   5.155
 3186SOL    HW110118   2.650   1.312   5.237
 3186SOL    HW210119   2.609   1.296   5.092
 3187SOL     OW10120   2.531   1.617   3.881
 3187SOL    HW110121   2.544   1.633   3.787
 3187SOL    HW210122   2.476   1.539   3.885
 3188SOL     OW10123   3.490   1.727   5.115
 3188SOL    HW110124   3.539   1.733   5.034
 3188SOL    HW210125   3.475   1.817   5.142
 3189SOL     OW10126   3.707   0.158   4.682
 3189SOL    HW110127   3.708   0.063   4.666
 3189SOL    HW210128   3.620   0.186   4.654
 3190SOL     OW10129   2.125   0.329   4.444
 3190SOL    HW110130   2.037   0.360   4.421
 3190SOL    HW210131   2.122   0.317   4.539
 3191SOL     OW10132   3.069   1.608   3.756
 3191SOL    HW110133   3.060   1.516   3.782
 3191SOL    HW210134   3.003   1.620   3.687
 3192SOL     OW10135   2.686   1.006   5.096
 3192SOL    HW110136   2.730   1.002   5.011
 3192SOL    HW210137   2.686   1.099   5.119
 3193SOL     OW10138   2.778   0.911   4.014
 3193SOL    HW110139   2.839   0.942   3.948
 3193SOL    HW210140   2.825   0.840   4.059
 3194SOL     OW10141   3.355   1.623   3.765
 3194SOL    HW110142   3.260   1.617   3.752
 3194SOL    HW210143   3.391   1.629   3.677
 3195SOL     OW10144   2.231   1.302   5.216
 3195SOL    HW110145   2.219   1.379   5.161
 3195SOL    HW210146   2.154   1.248   5.199
 3196SOL     OW10147   3.473   1.283   5.005
 3196SOL    HW110148   3.533   1.273   5.079
 3196SOL    HW210149   3.413   1.352   5.031
 3197SOL     OW10150   2.913   1.107   4.430
 3197SOL    HW110151   2.842   1.055   4.469
 3197SOL    HW210152   2.975   1.041   4.397
 3198SOL     OW10153   2.882   0.243   4.692
 3198SOL    HW110154   2.862   0.197   4.610
 3198SOL    HW210155   2.874   0.176   4.759
 3199SOL     OW10156   2.465   1.490   4.204
 3199SOL    HW110157   2.512   1.438   4.138
 3199SOL    HW210158   2.393   1.530   4.154
 3200SOL     OW10159   3.585   0.387   5.102
 3200SOL    HW110160   3.655   0.452   5.102
 3200SOL    HW210161   3.617   0.317   5.045
 3201SOL     OW10162   2.120   1.345   4.013
 3201SOL    HW110163   2.028   1.343   3.990
 3201SOL    HW210164   2.122   1.383   4.101
 3202SOL     OW10165   1.974   1.020   5.443
 3202SOL    HW110166   1.898   0.998   5.497
 3202SOL    HW210167   2.049   0.984   5.491
 3203SOL     OW10168   2.534   0.210   5.212
 3203SOL    HW110169   2.618   0.193   5.168
 3203SOL    HW210170   2.557   0.260   5.290
 3204SOL     OW10171   1.939   0.339   3.765
 3204SOL    HW110172   1.856   0.307   3.731
 3204SOL    HW210173   1.961   0.413   3.707
 3205SOL     OW10174   3.292   0.858   5.125
 3205SOL    HW110175   3.244   0.919   5.069
 3205SOL    HW210176   3.382   0.861   5.091
 3206SOL     OW10177   1.934   0.167   4.040
 3206SOL    HW110178   1.934   0.250   3.992
 3206SOL    HW210179   2.019   0.127   4.020
 3207SOL     OW10180   3.041   1.340   3.841
 3207SOL    HW110181   2.951   1.310   3.843
 3207SOL    HW210182   3.070   1.340   3.932
 3208SOL     OW10183   2.481   0.831   5.157
 3208SOL    HW110184   2.536   0.907   5.142
 3208SOL    HW210185   2.543   0.758   5.166
 3209SOL     OW10186   3.347   1.777   4.700
 3209SOL    HW110187   3.372   1.838   4.631
 3209SOL    HW210188   3.429   1.758   4.746
 3210SOL     OW10189   2.578   0.572   5.427
 3210SOL    HW110190   2.617   0.636   5.487
 3210SOL    HW210191   2.610   0.487   5.458
 3211SOL     OW10192   3.333   1.201   5.356
 3211SOL    HW110193   3.321   1.214   5.450
 3211SOL    HW210194   3.426   1.215   5.342
 3212SOL     OW10195   2.241   1.738   5.287
 3212SOL    HW110196   2.156   1.780   5.273
 3212SOL    HW210197   2.220   1.655   5.330
 3213SOL     OW10198   3.532   0.882   4.979
 3213SOL    HW110199   3.525   0.796   4.936
 3213SOL    HW210200   3.523   0.945   4.908
 3214SOL     OW10201   3.082   0.319   4.190
 3214SOL    HW110202   3.145   0.248   4.182
 3214SOL    HW210203   3.113   0.371   4.265
 3215SOL     OW10204   2.452   0.739   4.393
 3215SOL    HW110205   2.491   0.824   4.377
 3215SOL    HW210206   2.384   0.730   4.327
 3216SOL     OW10207   3.629   0.361   5.372
 3216SOL    HW110208   3.609   0.375   5.280
 3216SOL    HW210209   3.558   0.305   5.404
 3217SOL     OW10210   3.607   0.934   5.236
 3217SOL    HW110211   3.605   1.028   5.249
 3217SOL    HW210212   3.591   0.922   5.143
 3218SOL     OW10213   2.724   1.368   3.757
 3218SOL    HW110214   2.685   1.397   3.840
 3218SOL    HW210215   2.744   1.448   3.710
 3219SOL     OW10216   2.524   1.799   4.654
 3219SOL    HW110217   2.519   1.879   4.707
 3219SOL    HW210218   2.617   1.774   4.657
 3220SOL     OW10219   2.729   0.966   4.579
 3220SOL    HW110220   2.779   0.895   4.619
 3220SOL    HW210221   2.695   1.016   4.654
 3221SOL     OW10222   2.941   0.988   3.813
 3221SOL    HW110223   2.919   1.038   3.734
 3221SOL    HW210224   3.016   0.935   3.787
 3222SOL     OW10225   3.716   1.556   4.569
 3222SOL    HW110226   3.639   1.544   4.513
 3222SOL    HW210227   3.708   1.488   4.636
 3223SOL     OW10228   2.087   1.304   5.580
 3223SOL    HW110229   2.019   1.242   5.551
 3223SOL    HW210230   2.070   1.316   5.673
 3224SOL     OW10231   1.948   1.234   4.387
 3224SOL    HW110232   1.951   1.187   4.470
 3224SOL    HW210233   2.015   1.192   4.333
 3225SOL     OW10234   2.543   1.402   5.351
 3225SOL    HW110235   2.463   1.359   5.382
 3225SOL    HW210236   2.538   1.490   5.388
 3226SOL     OW10237   3.677   0.178   4.957
 3226SOL    HW110238   3.645   0.088   4.964
 3226SOL    HW210239   3.694   0.190   4.864
 3227SOL     OW10240   2.291   0.435   4.248
 3227SOL    HW110241   2.323   0.363   4.194
 3227SOL    HW210242   2.246   0.393   4.320
 3228SOL     OW10243   3.562   1.490   4.822
 3228SOL    HW110244   3.481   1.466   4.776
 3228SOL    HW210245   3.575   1.421   4.887
 3229SOL     OW10246   2.190   0.555   5.014
 3229SOL    HW110247   2.246   0.501   5.069
 3229SOL    HW210248   2.210   0.528   4.925
 3230SOL     OW10249   2.689   1.580   4.400
 3230SOL    HW110250   2.676   1.622   4.315
 3230SOL    HW210251   2.614   1.522   4.410
 3231SOL     OW10252   3.290   0.218   4.841
 3231SOL    HW110253   3.327   0.144   4.889
 3231SOL    HW210254   3.241   0.268   4.906
 3232SOL     OW10255   2.864   0.022   4.865
 3232SOL    HW110256   2.814   5.252   4.824
 3232SOL    HW210257   2.951   5.284   4.878
 3233SOL     OW10258   2.632   1.332   4.040
 3233SOL    HW110259   2.601   1.242   4.045
 3233SOL    HW210260   2.717   1.331   4.086
 3234SOL     OW10261   2.481   1.557   5.007
 3234SOL    HW110262   2.485   1.637   5.060
 3234SOL    HW210263   2.569   1.548   4.971
 3235SOL     OW10264   3.219   0.039   3.886
 3235SOL    HW110265   3.248   5.296   3.806
 3235SOL    HW210266   3.137   5.295   3.909
 3236SOL     OW10267   3.163   0.464   4.409
 3236SOL    HW110268   3.108   0.542   4.415
 3236SOL    HW210269   3.157   0.423   4.496
 3237SOL     OW10270   3.456   0.216   4.605
 3237SOL    HW110271   3.389   0.227   4.673
 3237SOL    HW210272   3.449   0.294   4.551
 3238SOL     OW10273   1.906   1.072   4.030
 3238SOL    HW110274   1.999   1.063   4.012
 3238SOL    HW210275   1.877   0.983   4.052
 3239SOL     OW10276   2.746   1.645   4.060
 3239SOL    HW110277   2.676   1.625   3.997
 3239SOL    HW210278   2.711   1.718   4.111
 3240SOL     OW10279   2.091   0.625   5.708
 3240SOL    HW110280   2.002   0.622   5.743
 3240SOL    HW210281   2.081   0.598   5.617
 3241SOL     OW10282   2.081   0.283   6.578
 3241SOL    HW110283   2.110   0.249   6.663
 3241SOL    HW210284   1.995   0.243   6.564
 3242SOL     OW10285   1.866   0.385   6.224
 3242SOL    HW110286   1.782   0.406   6.264
 3242SOL    HW210287   1.849   0.308   6.171
 3243SOL     OW10288   2.429   1.286   6.760
 3243SOL    HW110289   2.341   1.290   6.722
 3243SOL    HW210290   2.444   1.374   6.794
 3244SOL     OW10291   3.422   1.512   6.292
 3244SOL    HW110292   3.379   1.492   6.376
 3244SOL    HW210293   3.351   1.516   6.229
 3245SOL     OW10294   2.993   0.698   6.289
 3245SOL    HW110295   3.042   0.779   6.273
 3245SOL    HW210296   2.945   0.713   6.370
 3246SOL     OW10297   3.628   0.607   5.815
 3246SOL    HW110298   3.608   0.598   5.722
 3246SOL    HW210299   3.593   0.526   5.854
 3247SOL     OW10300   2.618   1.143   6.626
 3247SOL    HW110301   2.549   1.177   6.682
 3247SOL    HW210302   2.653   1.220   6.581
 3248SOL     OW10303   2.725   0.780   7.407
 3248SOL    HW110304   2.713   0.855   7.465
 3248SOL    HW210305   2.752   0.819   7.323
 3249SOL     OW10306   2.548   1.004   6.233
 3249SOL    HW110307   2.613   0.991   6.303
 3249SOL    HW210308   2.479   1.055   6.274
 3250SOL     OW10309   2.571   1.151   7.397
 3250SOL    HW110310   2.619   1.230   7.423
 3250SOL    HW210311   2.488   1.184   7.362
 3251SOL     OW10312   2.192   1.427   6.654
 3251SOL    HW110313   2.120   1.389   6.603
 3251SOL    HW210314   2.243   1.477   6.590
 3252SOL     OW10315   3.323   1.499   6.939
 3252SOL    HW110316   3.372   1.581   6.949
 3252SOL    HW210317   3.263   1.498   7.013
 3253SOL     OW10318   2.305   0.398   7.075
 3253SOL    HW110319   2.381   0.339   7.072
 3253SOL    HW210320   2.230   0.341   7.087
 3254SOL     OW10321   3.473   0.452   6.324
 3254SOL    HW110322   3.397   0.476   6.271
 3254SOL    HW210323   3.492   0.530   6.375
 3255SOL     OW10324   2.081   1.714   6.059
 3255SOL    HW110325   2.104   1.791   6.112
 3255SOL    HW210326   2.154   1.706   5.997
 3256SOL     OW10327   2.998   1.341   7.276
 3256SOL    HW110328   3.038   1.338   7.363
 3256SOL    HW210329   2.946   1.261   7.271
 3257SOL     OW10330   2.092   1.441   6.121
 3257SOL    HW110331   2.075   1.535   6.125
 3257SOL    HW210332   2.031   1.403   6.184
 3258SOL     OW10333   2.118   1.090   6.477
 3258SOL    HW110334   2.115   1.004   6.518
 3258SOL    HW210335   2.060   1.144   6.530
 3259SOL     OW10336   2.473   1.791   7.014
 3259SOL    HW110337   2.392   1.773   7.062
 3259SOL    HW210338   2.497   1.880   7.040
 3260SOL     OW10339   2.448   0.981   5.720
 3260SOL    HW110340   2.493   1.031   5.651
 3260SOL    HW210341   2.489   1.011   5.801
 3261SOL     OW10342   3.448   0.134   7.043
 3261SOL    HW110343   3.468   0.220   7.004
 3261SOL    HW210344   3.447   0.151   7.137
 3262SOL     OW10345   1.976   0.653   6.145
 3262SOL    HW110346   1.949   0.564   6.167
 3262SOL    HW210347   1.969   0.701   6.228
 3263SOL     OW10348   3.704   1.760   5.922
 3263SOL    HW110349   3.767   1.731   5.988
 3263SOL    HW210350   3.729   1.850   5.902
 3264SOL     OW10351   1.893   1.596   5.710
 3264SOL    HW110352   1.876   1.503   5.730
 3264SOL    HW210353   1.869   1.642   5.791
 3265SOL     OW10354   3.551   0.919   6.226
 3265SOL    HW110355   3.635   0.877   6.205
 3265SOL    HW210356   3.529   0.969   6.147
 3266SOL     OW10357   3.507   1.107   6.015
 3266SOL    HW110358   3.593   1.113   5.973
 3266SOL    HW210359   3.512   1.168   6.089
 3267SOL     OW10360   1.984   0.743   7.172
 3267SOL    HW110361   2.076   0.768   7.181
 3267SOL    HW210362   1.936   0.825   7.180
 3268SOL     OW10363   2.475   1.385   6.321
 3268SOL    HW110364   2.429   1.301   6.330
 3268SOL    HW210365   2.459   1.411   6.231
 3269SOL     OW10366   3.151   1.238   7.009
 3269SOL    HW110367   3.184   1.171   6.950
 3269SOL    HW210368   3.208   1.232   7.086
 3270SOL     OW10369   2.672   0.025   6.112
 3270SOL    HW110370   2.701   0.113   6.088
 3270SOL    HW210371   2.576   0.029   6.107
 3271SOL     OW10372   2.052   0.967   6.856
 3271SOL    HW110373   2.137   0.925   6.841
 3271SOL    HW210374   1.989   0.912   6.810
 3272SOL     OW10375   3.394   0.993   5.784
 3272SOL    HW110376   3.324   0.935   5.815
 3272SOL    HW210377   3.434   1.027   5.864
 3273SOL     OW10378   3.047   1.806   7.207
 3273SOL    HW110379   3.059   1.864   7.132
 3273SOL    HW210380   3.064   1.718   7.172
 3274SOL     OW10381   2.187   0.262   7.401
 3274SOL    HW110382   2.240   0.340   7.421
 3274SOL    HW210383   2.101   0.281   7.436
 3275SOL     OW10384   3.328   1.419   6.538
 3275SOL    HW110385   3.260   1.434   6.603
 3275SOL    HW210386   3.316   1.328   6.511
 3276SOL     OW10387   3.521   1.738   6.164
 3276SOL    HW110388   3.501   1.709   6.075
 3276SOL    HW210389   3.496   1.664   6.220
 3277SOL     OW10390   2.457   0.722   5.851
 3277SOL    HW110391   2.464   0.803   5.800
 3277SOL    HW210392   2.392   0.741   5.919
 3278SOL     OW10393   3.140   0.345   6.516
 3278SOL    HW110394   3.050   0.318   6.529
 3278SOL    HW210395   3.190   0.296   6.582
 3279SOL     OW10396   3.443   1.670   5.895
 3279SOL    HW110397   3.533   1.702   5.888
 3279SOL    HW210398   3.417   1.653   5.805
 3280SOL     OW10399   2.656   0.617   7.037
 3280SOL    HW110400   2.629   0.597   7.126
 3280SOL    HW210401   2.613   0.552   6.982
 3281SOL     OW10402   3.257   0.475   7.264
 3281SOL    HW110403   3.258   0.519   7.348
 3281SOL    HW210404   3.320   0.404   7.273
 3282SOL     OW10405   2.818   0.888   7.168
 3282SOL    HW110406   2.872   0.818   7.132
 3282SOL    HW210407   2.770   0.922   7.092
 3283SOL     OW10408   2.856   0.416   6.822
 3283SOL    HW110409   2.772   0.439   6.862
 3283SOL    HW210410   2.833   0.368   6.743
 3284SOL     OW10411   2.913   0.698   6.013
 3284SOL    HW110412   2.927   0.691   6.107
 3284SOL    HW210413   2.830   0.652   5.998
 3285SOL     OW10414   1.950   0.820   6.363
 3285SOL    HW110415   2.032   0.813   6.413
 3285SOL    HW210416   1.908   0.899   6.397
 3286SOL     OW10417   1.989   1.846   7.164
 3286SOL    HW110418   1.989   1.826   7.257
 3286SOL    HW210419   1.897   1.840   7.138
 3287SOL     OW10420   2.734   0.362   5.775
 3287SOL    HW110421   2.778   0.422   5.715
 3287SOL    HW210422   2.786   0.282   5.770
 3288SOL     OW10423   3.572   0.576   7.415
 3288SOL    HW110424   3.534   0.650   7.368
 3288SOL    HW210425   3.599   0.515   7.346
 3289SOL     OW10426   3.238   1.142   6.128
 3289SOL    HW110427   3.317   1.129   6.075
 3289SOL    HW210428   3.186   1.204   6.077
 3290SOL     OW10429   2.390   0.201   6.469
 3290SOL    HW110430   2.412   0.217   6.561
 3290SOL    HW210431   2.411   0.284   6.425
 3291SOL     OW10432   2.869   1.445   6.059
 3291SOL    HW110433   2.830   1.517   6.009
 3291SOL    HW210434   2.852   1.467   6.150
 3292SOL     OW10435   2.217   1.808   6.447
 3292SOL    HW110436   2.260   1.723   6.455
 3292SOL    HW210437   2.286   1.872   6.464
 3293SOL     OW10438   3.661   1.057   6.454
 3293SOL    HW110439   3.606   1.040   6.377
 3293SOL    HW210440   3.599   1.063   6.527
 3294SOL     OW10441   3.090   1.539   7.099
 3294SOL    HW110442   3.076   1.466   7.159
 3294SOL    HW210443   3.027   1.524   7.028
 3295SOL     OW10444   2.183   0.957   5.836
 3295SOL    HW110445   2.265   0.976   5.790
 3295SOL    HW210446   2.152   0.875   5.796
 3296SOL     OW10447   3.340   0.742   6.313
 3296SOL    HW110448   3.331   0.698   6.398
 3296SOL    HW210449   3.417   0.797   6.323
 3297SOL     OW10450   2.327   1.263   7.323
 3297SOL    HW110451   2.300   1.269   7.232
 3297SOL    HW210452   2.245   1.262   7.373
 3298SOL     OW10453   2.984   1.778   5.817
 3298SOL    HW110454   2.911   1.736   5.863
 3298SOL    HW210455   3.006   1.717   5.747
 3299SOL     OW10456   2.059   0.278   7.087
 3299SOL    HW110457   1.980   0.332   7.082
 3299SOL    HW210458   2.048   0.229   7.169
 3300SOL     OW10459   3.491   1.380   5.673
 3300SOL    HW110460   3.449   1.465   5.658
 3300SOL    HW210461   3.422   1.316   5.654
 3301SOL     OW10462   2.329   1.736   5.908
 3301SOL    HW110463   2.370   1.795   5.971
 3301SOL    HW210464   2.400   1.709   5.850
 3302SOL     OW10465   3.269   0.099   6.017
 3302SOL    HW110466   3.260   0.082   5.923
 3302SOL    HW210467   3.361   0.122   6.029
 3303SOL     OW10468   2.117   1.792   6.818
 3303SOL    HW110469   2.169   1.727   6.865
 3303SOL    HW210470   2.108   1.756   6.730
 3304SOL     OW10471   2.799   1.698   6.485
 3304SOL    HW110472   2.877   1.647   6.506
 3304SOL    HW210473   2.755   1.649   6.416
 3305SOL     OW10474   2.254   0.696   6.063
 3305SOL    HW110475   2.275   0.603   6.073
 3305SOL    HW210476   2.160   0.701   6.080
 3306SOL     OW10477   3.402   0.228   7.311
 3306SOL    HW110478   3.408   0.246   7.404
 3306SOL    HW210479   3.326   0.169   7.303
 3307SOL     OW10480   2.486   0.133   5.693
 3307SOL    HW110481   2.552   0.067   5.716
 3307SOL    HW210482   2.435   0.092   5.623
 3308SOL     OW10483   2.643   0.312   7.350
 3308SOL    HW110484   2.702   0.238   7.352
 3308SOL    HW210485   2.600   0.312   7.435
 3309SOL     OW10486   2.738   1.521   6.780
 3309SOL    HW110487   2.723   1.485   6.692
 3309SOL    HW210488   2.808   1.467   6.816
 3310SOL     OW10489   3.203   0.589   7.018
 3310SOL    HW110490   3.234   0.558   7.103
 3310SOL    HW210491   3.239   0.677   7.011
 3311SOL     OW10492   2.676   1.396   6.524
 3311SOL    HW110493   2.761   1.385   6.480
 3311SOL    HW210494   2.612   1.396   6.453
 3312SOL     OW10495   2.789   0.510   6.490
 3312SOL    HW110496   2.765   0.502   6.397
 3312SOL    HW210497   2.821   0.423   6.514
 3313SOL     OW10498   2.404   0.063   6.095
 3313SOL    HW110499   2.318   0.062   6.138
 3313SOL    HW210500   2.397   0.133   6.030
 3314SOL     OW10501   3.290   1.198   5.627
 3314SOL    HW110502   3.321   1.122   5.677
 3314SOL    HW210503   3.204   1.219   5.664
 3315SOL     OW10504   2.163   0.061   5.776
 3315SOL    HW110505   2.222   0.130   5.746
 3315SOL    HW210506   2.220   5.285   5.789
 3316SOL     OW10507   2.801   0.259   6.048
 3316SOL    HW110508   2.772   0.299   5.965
 3316SOL    HW210509   2.896   0.272   6.049
 3317SOL     OW10510   2.943   0.681   7.045
 3317SOL    HW110511   2.873   0.615   7.052
 3317SOL    HW210512   3.023   0.630   7.039
 3318SOL     OW10513   3.086   1.570   6.380
 3318SOL    HW110514   3.102   1.637   6.314
 3318SOL    HW210515   3.154   1.583   6.446
 3319SOL     OW10516   2.330   1.149   6.321
 3319SOL    HW110517   2.260   1.130   6.383
 3319SOL    HW210518   2.291   1.132   6.235
 3320SOL     OW10519   3.132   1.794   6.194
 3320SOL    HW110520   3.177   1.856   6.135
 3320SOL    HW210521   3.065   1.847   6.238
 3321SOL     OW10522   2.888   0.547   5.607
 3321SOL    HW110523   2.845   0.630   5.589
 3321SOL    HW210524   2.952   0.567   5.676
 3322SOL     OW10525   1.940   0.553   6.979
 3322SOL    HW110526   2.032   0.553   6.951
 3322SOL    HW210527   1.935   0.624   7.043
 3323SOL     OW10528   2.418   0.237   6.744
 3323SOL    HW110529   2.449   0.151   6.772
 3323SOL    HW210530   2.326   0.239   6.770
 3324SOL     OW10531   2.729   0.462   6.227
 3324SOL    HW110532   2.683   0.515   6.162
 3324SOL    HW210533   2.752   0.381   6.180
 3325SOL     OW10534   2.840   0.061   6.348
 3325SOL    HW110535   2.775   0.054   6.278
 3325SOL    HW210536   2.850   5.271   6.380
 3326SOL     OW10537   3.299   1.163   6.443
 3326SOL    HW110538   3.230   1.097   6.442
 3326SOL    HW210539   3.323   1.175   6.351
 3327SOL     OW10540   3.329   0.605   6.565
 3327SOL    HW110541   3.280   0.523   6.568
 3327SOL    HW210542   3.389   0.600   6.638
 3328SOL     OW10543   3.708   0.817   5.968
 3328SOL    HW110544   3.764   0.765   6.026
 3328SOL    HW210545   3.679   0.755   5.901
 3329SOL     OW10546   2.353   1.417   5.744
 3329SOL    HW110547   2.278   1.388   5.796
 3329SOL    HW210548   2.337   1.381   5.656
 3330SOL     OW10549   3.531   1.264   6.233
 3330SOL    HW110550   3.626   1.268   6.246
 3330SOL    HW210551   3.501   1.353   6.254
 3331SOL     OW10552   3.256   0.572   5.657
 3331SOL    HW110553   3.195   0.553   5.728
 3331SOL    HW210554   3.340   0.541   5.689
 3332SOL     OW10555   2.386   0.264   5.907
 3332SOL    HW110556   2.430   0.216   5.838
 3332SOL    HW210557   2.366   0.349   5.868
 3333SOL     OW10558   3.615   1.238   7.160
 3333SOL    HW110559   3.702   1.200   7.156
 3333SOL    HW210560   3.629   1.328   7.190
 3334SOL     OW10561   2.921   1.353   6.920
 3334SOL    HW110562   2.846   1.322   6.971
 3334SOL    HW210563   2.997   1.312   6.961
 3335SOL     OW10564   3.469   1.625   7.238
 3335SOL    HW110565   3.465   1.659   7.148
 3335SOL    HW210566   3.552   1.578   7.241
 3336SOL     OW10567   2.990   1.202   6.692
 3336SOL    HW110568   2.931   1.241   6.757
 3336SOL    HW210569   2.957   1.234   6.608
 3337SOL     OW10570   3.491   1.099   6.664
 3337SOL    HW110571   3.487   1.161   6.736
 3337SOL    HW210572   3.412   1.115   6.613
 3338SOL     OW10573   2.767   0.106   6.977
 3338SOL    HW110574   2.797   0.072   6.892
 3338SOL    HW210575   2.844   0.148   7.015
 3339SOL     OW10576   2.846   1.114   7.310
 3339SOL    HW110577   2.754   1.131   7.328
 3339SOL    HW210578   2.846   1.037   7.254
 3340SOL     OW10579   2.570   1.061   5.957
 3340SOL    HW110580   2.557   1.045   6.051
 3340SOL    HW210581   2.646   1.007   5.935
 3341SOL     OW10582   2.280   0.815   6.838
 3341SOL    HW110583   2.349   0.824   6.903
 3341SOL    HW210584   2.245   0.727   6.852
 3342SOL     OW10585   3.129   0.379   6.858
 3342SOL    HW110586   3.162   0.456   6.905
 3342SOL    HW210587   3.039   0.401   6.835
 3343SOL     OW10588   1.932   1.573   6.938
 3343SOL    HW110589   1.902   1.646   6.884
 3343SOL    HW210590   2.027   1.577   6.933
 3344SOL     OW10591   2.212   1.108   6.077
 3344SOL    HW110592   2.217   1.182   6.016
 3344SOL    HW210593   2.210   1.031   6.021
 3345SOL     OW10594   2.416   0.538   6.447
 3345SOL    HW110595   2.431   0.596   6.372
 3345SOL    HW210596   2.481   0.565   6.512
 3346SOL     OW10597   3.110   1.348   5.975
 3346SOL    HW110598   3.166   1.420   6.006
 3346SOL    HW210599   3.023   1.369   6.009
 3347SOL     OW10600   3.142   1.457   6.733
 3347SOL    HW110601   3.197   1.460   6.811
 3347SOL    HW210602   3.086   1.380   6.746
 3348SOL     OW10603   3.445   0.623   6.064
 3348SOL    HW110604   3.398   0.678   6.128
 3348SOL    HW210605   3.489   0.685   6.007
 3349SOL     OW10606   2.209   1.526   6.902
 3349SOL    HW110607   2.196   1.484   6.817
 3349SOL    HW210608   2.303   1.539   6.909
 3350SOL     OW10609   2.276   0.744   7.188
 3350SOL    HW110610   2.337   0.790   7.130
 3350SOL    HW210611   2.318   0.660   7.205
 3351SOL     OW10612   3.462   0.778   7.267
 3351SOL    HW110613   3.376   0.819   7.260
 3351SOL    HW210614   3.514   0.820   7.199
 3352SOL     OW10615   2.903   0.115   7.370
 3352SOL    HW110616   2.930   0.195   7.325
 3352SOL    HW210617   2.911   0.046   7.305
 3353SOL     OW10618   2.345   0.056   7.325
 3353SOL    HW110619   2.288   5.292   7.283
 3353SOL    HW210620   2.286   0.129   7.347
 3354SOL     OW10621   2.446   0.872   6.618
 3354SOL    HW110622   2.476   0.963   6.615
 3354SOL    HW210623   2.388   0.868   6.694
 3355SOL     OW10624   3.221   0.859   6.617
 3355SOL    HW110625   3.138   0.851   6.569
 3355SOL    HW210626   3.260   0.772   6.612
 3356SOL     OW10627   3.069   0.529   5.854
 3356SOL    HW110628   3.072   0.448   5.905
 3356SOL    HW210629   3.026   0.592   5.912
 3357SOL     OW10630   2.159   0.204   6.833
 3357SOL    HW110631   2.120   0.243   6.911
 3357SOL    HW210632   2.157   0.110   6.849
 3358SOL     OW10633   1.908   1.311   6.863
 3358SOL    HW110634   1.941   1.257   6.934
 3358SOL    HW210635   1.915   1.400   6.895
 3359SOL     OW10636   2.588   0.632   6.646
 3359SOL    HW110637   2.661   0.615   6.587
 3359SOL    HW210638   2.559   0.720   6.624
 3360SOL     OW10639   3.597   0.959   7.437
 3360SOL    HW110640   3.548   0.900   7.381
 3360SOL    HW210641   3.539   0.973   7.513
 3361SOL     OW10642   2.164   0.073   6.235
 3361SOL    HW110643   2.148   0.167   6.244
 3361SOL    HW210644   2.204   0.047   6.318
 3362SOL     OW10645   3.473   0.374   5.952
 3362SOL    HW110646   3.507   0.311   6.016
 3362SOL    HW210647   3.453   0.452   6.004
 3363SOL     OW10648   2.890   0.759   6.547
 3363SOL    HW110649   2.887   0.777   6.641
 3363SOL    HW210650   2.863   0.668   6.539
 3364SOL     OW10651   2.843   1.565   7.302
 3364SOL    HW110652   2.829   1.610   7.219
 3364SOL    HW210653   2.888   1.484   7.278
 3365SOL     OW10654   3.717   1.507   7.191
 3365SOL    HW110655   3.735   1.533   7.101
 3365SOL    HW210656   3.798   1.526   7.238
 3366SOL     OW10657   2.215   0.914   7.396
 3366SOL    HW110658   2.298   0.935   7.439
 3366SOL    HW210659   2.239   0.853   7.326
 3367SOL     OW10660   3.389   0.273   5.712
 3367SOL    HW110661   3.325   0.208   5.743
 3367SOL    HW210662   3.425   0.311   5.792
 3368SOL     OW10663   3.155   0.827   5.618
 3368SOL    HW110664   3.197   0.741   5.621
 3368SOL    HW210665   3.186   0.866   5.536
 3369SOL     OW10666   2.927   1.335   6.440
 3369SOL    HW110667   2.930   1.263   6.377
 3369SOL    HW210668   2.989   1.400   6.405
 3370SOL     OW10669   2.171   0.809   6.534
 3370SOL    HW110670   2.264   0.831   6.526
 3370SOL    HW210671   2.170   0.719   6.566
 3371SOL     OW10672   2.195   0.525   6.599
 3371SOL    HW110673   2.158   0.438   6.582
 3371SOL    HW210674   2.271   0.530   6.541
 3372SOL     OW10675   2.998   0.377   7.273
 3372SOL    HW110676   2.950   0.432   7.335
 3372SOL    HW210677   3.085   0.416   7.268
 3373SOL     OW10678   2.996   0.222   7.051
 3373SOL    HW110679   3.000   0.281   7.127
 3373SOL    HW210680   3.051   0.264   6.985
 3374SOL     OW10681   1.867   1.322   5.781
 3374SOL    HW110682   1.780   1.336   5.744
 3374SOL    HW210683   1.864   1.232   5.815
 3375SOL     OW10684   1.952   1.788   6.523
 3375SOL    HW110685   1.922   1.708   6.480
 3375SOL    HW210686   2.042   1.800   6.493
 3376SOL     OW10687   2.359   1.573   6.491
 3376SOL    HW110688   2.428   1.635   6.516
 3376SOL    HW210689   2.403   1.510   6.435
 3377SOL     OW10690   2.847   0.793   6.813
 3377SOL    HW110691   2.902   0.769   6.887
 3377SOL    HW210692   2.761   0.756   6.834
 3378SOL     OW10693   1.897   0.543   6.703
 3378SOL    HW110694   1.977   0.529   6.652
 3378SOL    HW210695   1.927   0.548   6.794
 3379SOL     OW10696   2.050   0.520   7.312
 3379SOL    HW110697   2.113   0.487   7.248
 3379SOL    HW210698   2.008   0.594   7.268
 3380SOL     OW10699   3.238   0.939   7.245
 3380SOL    HW110700   3.259   1.033   7.244
 3380SOL    HW210701   3.236   0.914   7.153
 3381SOL     OW10702   2.676   0.572   5.947
 3381SOL    HW110703   2.679   0.497   5.887
 3381SOL    HW210704   2.602   0.624   5.916
 3382SOL     OW10705   3.504   0.601   6.773
 3382SOL    HW110706   3.493   0.542   6.847
 3382SOL    HW210707   3.591   0.581   6.739
 3383SOL     OW10708   2.105   1.552   7.314
 3383SOL    HW110709   2.084   1.616   7.382
 3383SOL    HW210710   2.107   1.468   7.360
 3384SOL     OW10711   2.558   0.453   6.847
 3384SOL    HW110712   2.509   0.378   6.813
 3384SOL    HW210713   2.559   0.516   6.776
 3385SOL     OW10714   2.790   1.679   7.053
 3385SOL    HW110715   2.764   1.646   6.967
 3385SOL    HW210716   2.787   1.774   7.044
 3386SOL     OW10717   2.326   0.493   5.770
 3386SOL    HW110718   2.386   0.564   5.793
 3386SOL    HW210719   2.241   0.535   5.761
 3387SOL     OW10720   2.008   1.140   7.058
 3387SOL    HW110721   2.011   1.088   7.138
 3387SOL    HW210722   2.025   1.077   6.988
 3388SOL     OW10723   3.189   1.047   6.810
 3388SOL    HW110724   3.212   0.984   6.742
 3388SOL    HW210725   3.118   1.099   6.771
 3389SOL     OW10726   3.172   0.857   5.893
 3389SOL    HW110727   3.096   0.826   5.942
 3389SOL    HW210728   3.149   0.843   5.801
 3390SOL     OW10729   3.632   1.745   6.735
 3390SOL    HW110730   3.693   1.771   6.666
 3390SOL    HW210731   3.609   1.655   6.714
 3391SOL     OW10732   3.103   1.733   6.700
 3391SOL    HW110733   3.185   1.753   6.654
 3391SOL    HW210734   3.108   1.639   6.718
 3392SOL     OW10735   1.946   1.267   6.598
 3392SOL    HW110736   1.931   1.279   6.692
 3392SOL    HW210737   1.872   1.212   6.570
 3393SOL     OW10738   2.538   1.664   7.312
 3393SOL    HW110739   2.488   1.746   7.312
 3393SOL    HW210740   2.605   1.677   7.245
 3394SOL     OW10741   3.575   0.148   6.090
 3394SOL    HW110742   3.650   0.127   6.034
 3394SOL    HW210743   3.567   0.073   6.148
 3395SOL     OW10744   3.252   1.568   6.070
 3395SOL    HW110745   3.313   1.600   6.003
 3395SOL    HW210746   3.204   1.645   6.098
 3396SOL     OW10747   1.997   1.796   7.430
 3396SOL    HW110748   1.947   1.732   7.479
 3396SOL    HW210749   2.046   1.845   7.497
 3397SOL     OW10750   3.139   0.925   6.257
 3397SOL    HW110751   3.213   0.864   6.263
 3397SOL    HW210752   3.173   0.998   6.205
 3398SOL     OW10753   2.678   1.273   7.016
 3398SOL    HW110754   2.650   1.312   7.099
 3398SOL    HW210755   2.608   1.295   6.955
 3399SOL     OW10756   2.535   1.618   5.742
 3399SOL    HW110757   2.543   1.632   5.648
 3399SOL    HW210758   2.479   1.540   5.750
 3400SOL     OW10759   3.490   1.727   6.977
 3400SOL    HW110760   3.539   1.734   6.895
 3400SOL    HW210761   3.476   1.817   7.005
 3401SOL     OW10762   3.707   0.158   6.544
 3401SOL    HW110763   3.708   0.063   6.528
 3401SOL    HW210764   3.620   0.186   6.516
 3402SOL     OW10765   2.125   0.329   6.306
 3402SOL    HW110766   2.037   0.360   6.283
 3402SOL    HW210767   2.122   0.317   6.401
 3403SOL     OW10768   3.069   1.606   5.617
 3403SOL    HW110769   3.059   1.515   5.644
 3403SOL    HW210770   3.004   1.618   5.548
 3404SOL     OW10771   2.686   1.006   6.958
 3404SOL    HW110772   2.730   1.002   6.873
 3404SOL    HW210773   2.686   1.099   6.981
 3405SOL     OW10774   2.778   0.911   5.876
 3405SOL    HW110775   2.839   0.942   5.810
 3405SOL    HW210776   2.825   0.840   5.921
 3406SOL     OW10777   3.354   1.625   5.628
 3406SOL    HW110778   3.260   1.619   5.615
 3406SOL    HW210779   3.391   1.631   5.540
 3407SOL     OW10780   2.231   1.302   7.078
 3407SOL    HW110781   2.218   1.379   7.023
 3407SOL    HW210782   2.154   1.248   7.061
 3408SOL     OW10783   3.473   1.283   6.867
 3408SOL    HW110784   3.532   1.273   6.941
 3408SOL    HW210785   3.413   1.352   6.893
 3409SOL     OW10786   2.913   1.107   6.292
 3409SOL    HW110787   2.842   1.055   6.331
 3409SOL    HW210788   2.975   1.041   6.260
 3410SOL     OW10789   2.882   0.243   6.554
 3410SOL    HW110790   2.862   0.197   6.472
 3410SOL    HW210791   2.874   0.176   6.621
 3411SOL     OW10792   2.464   1.488   6.068
 3411SOL    HW110793   2.508   1.438   5.999
 3411SOL    HW210794   2.397   1.539   6.022
 3412SOL     OW10795   3.585   0.387   6.964
 3412SOL    HW110796   3.655   0.452   6.964
 3412SOL    HW210797   3.617   0.317   6.907
 3413SOL     OW10798   2.121   1.345   5.874
 3413SOL    HW110799   2.028   1.343   5.851
 3413SOL    HW210800   2.124   1.382   5.962
 3414SOL     OW10801   1.975   1.020   7.305
 3414SOL    HW110802   1.898   0.998   7.358
 3414SOL    HW210803   2.049   0.983   7.353
 3415SOL     OW10804   2.534   0.210   7.075
 3415SOL    HW110805   2.618   0.193   7.031
 3415SOL    HW210806   2.558   0.260   7.153
 3416SOL     OW10807   1.939   0.339   5.627
 3416SOL    HW110808   1.856   0.307   5.593
 3416SOL    HW210809   1.961   0.413   5.569
 3417SOL     OW10810   3.292   0.858   6.987
 3417SOL    HW110811   3.244   0.919   6.931
 3417SOL    HW210812   3.382   0.861   6.953
 3418SOL     OW10813   1.934   0.167   5.902
 3418SOL    HW110814   1.934   0.250   5.854
 3418SOL    HW210815   2.019   0.127   5.882
 3419SOL     OW10816   3.041   1.340   5.703
 3419SOL    HW110817   2.950   1.310   5.705
 3419SOL    HW210818   3.069   1.340   5.794
 3420SOL     OW10819   2.481   0.831   7.019
 3420SOL    HW110820   2.536   0.907   7.004
 3420SOL    HW210821   2.543   0.758   7.028
 3421SOL     OW10822   3.346   1.775   6.564
 3421SOL    HW110823   3.370   1.834   6.492
 3421SOL    HW210824   3.428   1.758   6.609
 3422SOL     OW10825   2.577   0.573   7.289
 3422SOL    HW110826   2.617   0.635   7.349
 3422SOL    HW210827   2.609   0.487   7.319
 3423SOL     OW10828   3.332   1.201   7.218
 3423SOL    HW110829   3.320   1.214   7.312
 3423SOL    HW210830   3.426   1.215   7.204
 3424SOL     OW10831   2.242   1.739   7.149
 3424SOL    HW110832   2.156   1.780   7.136
 3424SOL    HW210833   2.222   1.655   7.191
 3425SOL     OW10834   3.532   0.882   6.841
 3425SOL    HW110835   3.525   0.796   6.798
 3425SOL    HW210836   3.523   0.945   6.770
 3426SOL     OW10837   3.082   0.319   6.052
 3426SOL    HW110838   3.145   0.248   6.044
 3426SOL    HW210839   3.113   0.371   6.127
 3427SOL     OW10840   2.452   0.739   6.255
 3427SOL    HW110841   2.491   0.824   6.239
 3427SOL    HW210842   2.384   0.731   6.189
 3428SOL     OW10843   3.629   0.360   7.235
 3428SOL    HW110844   3.610   0.375   7.143
 3428SOL    HW210845   3.557   0.305   7.266
 3429SOL     OW10846   3.607   0.933   7.098
 3429SOL    HW110847   3.605   1.028   7.112
 3429SOL    HW210848   3.591   0.922   7.005
 3430SOL     OW10849   2.725   1.368   5.619
 3430SOL    HW110850   2.685   1.396   5.702
 3430SOL    HW210851   2.743   1.449   5.572
 3431SOL     OW10852   2.522   1.791   6.533
 3431SOL    HW110853   2.502   1.881   6.507
 3431SOL    HW210854   2.617   1.784   6.525
 3432SOL     OW10855   2.729   0.966   6.442
 3432SOL    HW110856   2.779   0.895   6.481
 3432SOL    HW210857   2.695   1.016   6.516
 3433SOL     OW10858   2.941   0.988   5.675
 3433SOL    HW110859   2.920   1.039   5.596
 3433SOL    HW210860   3.016   0.935   5.649
 3434SOL     OW10861   3.717   1.555   6.430
 3434SOL    HW110862   3.639   1.543   6.376
 3434SOL    HW210863   3.708   1.488   6.499
 3435SOL     OW10864   2.087   1.304   7.443
 3435SOL    HW110865   2.019   1.243   7.413
 3435SOL    HW210866   2.068   1.317   7.535
 3436SOL     OW10867   1.945   1.234   6.250
 3436SOL    HW110868   1.951   1.185   6.333
 3436SOL    HW210869   2.014   1.196   6.195
 3437SOL     OW10870   2.542   1.402   7.212
 3437SOL    HW110871   2.462   1.359   7.244
 3437SOL    HW210872   2.538   1.490   7.249
 3438SOL     OW10873   3.678   0.178   6.819
 3438SOL    HW110874   3.645   0.088   6.826
 3438SOL    HW210875   3.694   0.190   6.726
 3439SOL     OW10876   2.291   0.435   6.110
 3439SOL    HW110877   2.323   0.362   6.056
 3439SOL    HW210878   2.246   0.393   6.182
 3440SOL     OW10879   3.563   1.490   6.683
 3440SOL    HW110880   3.482   1.466   6.638
 3440SOL    HW210881   3.575   1.421   6.749
 3441SOL     OW10882   2.190   0.555   6.876
 3441SOL    HW110883   2.246   0.501   6.931
 3441SOL    HW210884   2.210   0.528   6.787
 3442SOL     OW10885   2.689   1.578   6.264
 3442SOL    HW110886   2.678   1.631   6.185
 3442SOL    HW210887   2.611   1.521   6.266
 3443SOL     OW10888   3.290   0.218   6.703
 3443SOL    HW110889   3.327   0.144   6.751
 3443SOL    HW210890   3.241   0.268   6.768
 3444SOL     OW10891   2.864   0.022   6.727
 3444SOL    HW110892   2.814   5.252   6.686
 3444SOL    HW210893   2.951   5.284   6.740
 3445SOL     OW10894   2.633   1.332   5.900
 3445SOL    HW110895   2.602   1.242   5.906
 3445SOL    HW210896   2.716   1.332   5.948
 3446SOL     OW10897   2.481   1.557   6.870
 3446SOL    HW110898   2.484   1.639   6.920
 3446SOL    HW210899   2.569   1.549   6.833
 3447SOL     OW10900   3.218   0.039   5.748
 3447SOL    HW110901   3.248   5.296   5.668
 3447SOL    HW210902   3.137   5.294   5.771
 3448SOL     OW10903   3.163   0.464   6.271
 3448SOL    HW110904   3.108   0.542   6.277
 3448SOL    HW210905   3.157   0.423   6.358
 3449SOL     OW10906   3.456   0.216   6.468
 3449SOL    HW110907   3.389   0.227   6.535
 3449SOL    HW210908   3.449   0.294   6.413
 3450SOL     OW10909   1.905   1.072   5.892
 3450SOL    HW110910   1.999   1.063   5.874
 3450SOL    HW210911   1.877   0.983   5.914
 3451SOL     OW10912   2.746   1.651   5.928
 3451SOL    HW110913   2.674   1.634   5.868
 3451SOL    HW210914   2.716   1.726   5.980
 3452SOL     OW10915   2.089   0.620   7.571
 3452SOL    HW110916   1.999   0.628   7.602
 3452SOL    HW210917   2.081   0.597   7.479
 3453SOL     OW10918   3.630   0.599   7.680
 3453SOL    HW110919   3.609   0.594   7.586
 3453SOL    HW210920   3.587   0.522   7.717
 3454SOL     OW10921   2.082   1.718   7.918
 3454SOL    HW110922   2.112   1.760   7.999
 3454SOL    HW210923   2.160   1.715   7.863
 3455SOL     OW10924   2.080   1.438   7.990
 3455SOL    HW110925   2.064   1.532   7.991
 3455SOL    HW210926   2.021   1.403   8.056
 3456SOL     OW10927   2.449   0.981   7.579
 3456SOL    HW110928   2.493   1.032   7.510
 3456SOL    HW210929   2.488   1.013   7.660
 3457SOL     OW10930   3.699   1.760   7.797
 3457SOL    HW110931   3.769   1.729   7.855
 3457SOL    HW210932   3.726   1.848   7.772
 3458SOL     OW10933   1.891   1.599   7.577
 3458SOL    HW110934   1.876   1.506   7.592
 3458SOL    HW210935   1.864   1.642   7.659
 3459SOL     OW10936   3.546   0.868   8.035
 3459SOL    HW110937   3.627   0.880   0.005
 3459SOL    HW210938   3.533   0.951   7.990
 3460SOL     OW10939   3.516   1.099   7.876
 3460SOL    HW110940   3.603   1.125   7.846
 3460SOL    HW210941   3.489   1.170   7.935
 3461SOL     OW10942   2.672   5.291   7.945
 3461SOL    HW110943   2.713   0.076   7.930
 3461SOL    HW210944   2.578   0.009   7.942
 3462SOL     OW10945   3.395   0.994   7.648
 3462SOL    HW110946   3.328   0.935   7.681
 3462SOL    HW210947   3.438   1.028   7.727
 3463SOL     OW10948   2.452   0.725   7.708
 3463SOL    HW110949   2.458   0.806   7.658
 3463SOL    HW210950   2.392   0.744   7.779
 3464SOL     OW10951   3.437   1.671   7.757
 3464SOL    HW110952   3.528   1.700   7.765
 3464SOL    HW210953   3.424   1.657   7.663
 3465SOL     OW10954   1.923   0.863   0.091
 3465SOL    HW110955   1.988   0.798   0.119
 3465SOL    HW210956   1.916   0.923   0.164
 3466SOL     OW10957   2.729   0.356   7.631
 3466SOL    HW110958   2.777   0.419   7.578
 3466SOL    HW210959   2.789   0.281   7.638
 3467SOL     OW10960   2.185   0.956   7.697
 3467SOL    HW110961   2.266   0.974   7.648
 3467SOL    HW210962   2.150   0.877   7.657
 3468SOL     OW10963   2.985   1.775   7.682
 3468SOL    HW110964   2.909   1.735   7.724
 3468SOL    HW210965   3.008   1.716   7.611
 3469SOL     OW10966   3.491   1.380   7.533
 3469SOL    HW110967   3.449   1.465   7.520
 3469SOL    HW210968   3.422   1.316   7.516
 3470SOL     OW10969   2.329   1.737   7.770
 3470SOL    HW110970   2.377   1.791   7.833
 3470SOL    HW210971   2.396   1.703   7.710
 3471SOL     OW10972   3.271   0.106   7.882
 3471SOL    HW110973   3.265   0.083   7.789
 3471SOL    HW210974   3.365   0.112   7.899
 3472SOL     OW10975   2.252   0.696   7.918
 3472SOL    HW110976   2.260   0.601   7.926
 3472SOL    HW210977   2.161   0.714   7.943
 3473SOL     OW10978   2.481   0.131   7.559
 3473SOL    HW110979   2.554   0.072   7.578
 3473SOL    HW210980   2.434   0.089   7.487
 3474SOL     OW10981   2.408   0.064   7.953
 3474SOL    HW110982   2.317   0.048   7.975
 3474SOL    HW210983   2.406   0.137   7.890
 3475SOL     OW10984   3.290   1.198   7.489
 3475SOL    HW110985   3.321   1.123   7.542
 3475SOL    HW210986   3.206   1.221   7.528
 3476SOL     OW10987   2.166   0.071   7.658
 3476SOL    HW110988   2.218   0.128   7.602
 3476SOL    HW210989   2.215   5.289   7.660
 3477SOL     OW10990   2.812   0.228   7.907
 3477SOL    HW110991   2.761   0.299   7.867
 3477SOL    HW210992   2.900   0.264   7.917
 3478SOL     OW10993   2.304   1.152   0.099
 3478SOL    HW110994   2.228   1.182   0.147
 3478SOL    HW210995   2.273   1.136   0.010
 3479SOL     OW10996   3.152   1.811   8.014
 3479SOL    HW110997   3.187   1.880   7.958
 3479SOL    HW210998   3.069   1.846   8.046
 3480SOL     OW10999   2.890   0.547   7.466
 3480SOL    HW111000   2.845   0.631   7.451
 3480SOL    HW211001   2.949   0.565   7.540
 3481SOL     OW11002   3.734   0.817   7.802
 3481SOL    HW111003   3.730   0.788   7.893
 3481SOL    HW211004   3.692   0.746   7.752
 3482SOL     OW11005   2.351   1.415   7.606
 3482SOL    HW111006   2.276   1.386   7.658
 3482SOL    HW211007   2.334   1.380   7.519
 3483SOL     OW11008   3.255   0.572   7.519
 3483SOL    HW111009   3.194   0.552   7.590
 3483SOL    HW211010   3.339   0.539   7.551
 3484SOL     OW11011   2.386   0.270   7.773
 3484SOL    HW111012   2.427   0.217   7.705
 3484SOL    HW211013   2.366   0.353   7.730
 3485SOL     OW11014   2.573   1.062   7.812
 3485SOL    HW111015   2.549   1.049   7.903
 3485SOL    HW211016   2.652   1.009   7.799
 3486SOL     OW11017   2.228   1.101   7.928
 3486SOL    HW111018   2.210   1.180   7.878
 3486SOL    HW211019   2.214   1.029   7.866
 3487SOL     OW11020   3.087   1.356   7.821
 3487SOL    HW111021   3.150   1.424   7.847
 3487SOL    HW211022   3.044   1.330   7.902
 3488SOL     OW11023   3.451   0.627   7.921
 3488SOL    HW111024   3.433   0.685   7.996
 3488SOL    HW211025   3.489   0.684   7.855
 3489SOL     OW11026   3.066   0.526   7.716
 3489SOL    HW111027   3.068   0.439   7.756
 3489SOL    HW211028   3.042   0.585   7.788
 3490SOL     OW11029   3.478   0.376   7.815
 3490SOL    HW111030   3.499   0.308   7.879
 3490SOL    HW211031   3.454   0.452   7.867
 3491SOL     OW11032   3.391   0.273   7.575
 3491SOL    HW111033   3.328   0.208   7.605
 3491SOL    HW211034   3.426   0.310   7.656
 3492SOL     OW11035   3.156   0.828   7.482
 3492SOL    HW111036   3.197   0.741   7.483
 3492SOL    HW211037   3.187   0.867   7.400
 3493SOL     OW11038   1.867   1.324   7.640
 3493SOL    HW111039   1.780   1.337   7.603
 3493SOL    HW211040   1.867   1.235   7.674
 3494SOL     OW11041   2.698   0.598   7.766
 3494SOL    HW111042   2.688   0.509   7.734
 3494SOL    HW211043   2.609   0.634   7.764
 3495SOL     OW11044   2.323   0.494   7.638
 3495SOL    HW111045   2.383   0.567   7.654
 3495SOL    HW211046   2.238   0.536   7.622
 3496SOL     OW11047   3.173   0.851   7.755
 3496SOL    HW111048   3.086   0.852   7.795
 3496SOL    HW211049   3.156   0.841   7.661
 3497SOL     OW11050   3.571   0.130   7.945
 3497SOL    HW111051   3.646   0.131   7.887
 3497SOL    HW211052   3.601   0.083   8.023
 3498SOL     OW11053   3.227   1.576   7.897
 3498SOL    HW111054   3.302   1.597   7.841
 3498SOL    HW211055   3.195   1.661   7.927
 3499SOL     OW11056   2.529   1.618   7.604
 3499SOL    HW111057   2.541   1.630   7.510
 3499SOL    HW211058   2.478   1.538   7.612
 3500SOL     OW11059   3.070   1.608   7.478
 3500SOL    HW111060   3.060   1.516   7.506
 3500SOL    HW211061   3.004   1.620   7.410
 3501SOL     OW11062   2.789   0.910   7.756
 3501SOL    HW111063   2.842   0.935   7.680
 3501SOL    HW211064   2.785   0.815   7.753
 3502SOL     OW11065   3.356   1.625   7.489
 3502SOL    HW111066   3.261   1.619   7.477
 3502SOL    HW211067   3.391   1.631   7.399
 3503SOL     OW11068   2.468   1.507   7.936
 3503SOL    HW111069   2.511   1.445   7.878
 3503SOL    HW211070   2.395   1.542   7.884
 3504SOL     OW11071   2.120   1.347   7.740
 3504SOL    HW111072   2.027   1.345   7.715
 3504SOL    HW211073   2.120   1.382   7.829
 3505SOL     OW11074   1.937   0.339   7.489
 3505SOL    HW111075   1.854   0.308   7.452
 3505SOL    HW211076   1.961   0.413   7.435
 3506SOL     OW11077   1.925   0.182   7.746
 3506SOL    HW111078   1.923   0.258   7.688
 3506SOL    HW211079   2.006   0.135   7.722
 3507SOL     OW11080   3.039   1.339   7.556
 3507SOL    HW111081   2.947   1.313   7.558
 3507SOL    HW211082   3.064   1.345   7.649
 3508SOL     OW11083   3.085   0.320   7.916
 3508SOL    HW111084   3.150   0.250   7.909
 3508SOL    HW211085   3.109   0.367   7.996
 3509SOL     OW11086   2.485   0.735   8.057
 3509SOL    HW111087   2.492   0.818   0.024
 3509SOL    HW211088   2.398   0.736   8.018
 3510SOL     OW11089   2.723   1.368   7.481
 3510SOL    HW111090   2.686   1.395   7.565
 3510SOL    HW211091   2.743   1.449   7.435
 3511SOL     OW11092   2.935   0.979   7.537
 3511SOL    HW111093   2.916   1.036   7.462
 3511SOL    HW211094   3.014   0.931   7.512
 3512SOL     OW11095   2.250   0.420   7.984
 3512SOL    HW111096   2.303   0.369   7.923
 3512SOL    HW211097   2.299   0.417   8.066
 3513SOL     OW11098   2.628   1.335   7.759
 3513SOL    HW111099   2.597   1.244   7.761
 3513SOL    HW211100   2.710   1.332   7.810
 3514SOL     OW11101   3.227   0.038   7.610
 3514SOL    HW111102   3.239   5.291   7.528
 3514SOL    HW211103   3.143   0.006   7.644
 3515SOL     OW11104   1.913   1.079   7.750
 3515SOL    HW111105   2.007   1.068   7.736
 3515SOL    HW211106   1.880   0.990   7.766
 3516SOL     OW11107   2.754   1.651   7.781
 3516SOL    HW111108   2.678   1.627   7.729
 3516SOL    HW211109   2.721   1.714   7.845
 3517SOL     OW11110   2.087   2.482   0.124
 3517SOL    HW111111   2.003   2.456   0.161
 3517SOL    HW211112   2.098   2.425   0.047
 3518SOL     OW11113   2.086   2.140   0.991
 3518SOL    HW111114   2.114   2.106   1.076
 3518SOL    HW211115   1.996   2.109   0.981
 3519SOL     OW11116   1.866   2.244   0.638
 3519SOL    HW111117   1.784   2.270   0.680
 3519SOL    HW211118   1.844   2.164   0.590
 3520SOL     OW11119   2.428   3.148   1.175
 3520SOL    HW111120   2.341   3.153   1.135
 3520SOL    HW211121   2.443   3.236   1.210
 3521SOL     OW11122   3.421   3.373   0.706
 3521SOL    HW111123   3.378   3.355   0.790
 3521SOL    HW211124   3.349   3.378   0.643
 3522SOL     OW11125   3.025   2.541   0.736
 3522SOL    HW111126   3.045   2.629   0.705
 3522SOL    HW211127   2.940   2.550   0.780
 3523SOL     OW11128   3.629   2.463   0.233
 3523SOL    HW111129   3.594   2.464   0.145
 3523SOL    HW211130   3.591   2.386   0.274
 3524SOL     OW11131   2.633   3.021   1.038
 3524SOL    HW111132   2.555   3.039   1.091
 3524SOL    HW211133   2.653   3.105   0.996
 3525SOL     OW11134   2.568   3.024   1.822
 3525SOL    HW111135   2.621   3.102   1.835
 3525SOL    HW211136   2.491   3.055   1.775
 3526SOL     OW11137   2.191   3.291   1.068
 3526SOL    HW111138   2.120   3.252   1.016
 3526SOL    HW211139   2.243   3.340   1.004
 3527SOL     OW11140   3.323   3.361   1.353
 3527SOL    HW111141   3.372   3.442   1.363
 3527SOL    HW211142   3.262   3.360   1.427
 3528SOL     OW11143   2.312   2.264   1.500
 3528SOL    HW111144   2.387   2.206   1.496
 3528SOL    HW211145   2.237   2.206   1.508
 3529SOL     OW11146   3.475   2.310   0.740
 3529SOL    HW111147   3.398   2.333   0.687
 3529SOL    HW211148   3.489   2.387   0.796
 3530SOL     OW11149   2.082   3.576   0.472
 3530SOL    HW111150   2.104   3.653   0.526
 3530SOL    HW211151   2.156   3.568   0.412
 3531SOL     OW11152   3.000   3.204   1.694
 3531SOL    HW111153   3.039   3.199   1.781
 3531SOL    HW211154   2.948   3.125   1.686
 3532SOL     OW11155   2.087   3.304   0.534
 3532SOL    HW111156   2.074   3.399   0.537
 3532SOL    HW211157   2.028   3.269   0.600
 3533SOL     OW11158   2.114   2.952   0.887
 3533SOL    HW111159   2.112   2.868   0.931
 3533SOL    HW211160   2.060   3.009   0.942
 3534SOL     OW11161   2.475   3.654   1.430
 3534SOL    HW111162   2.392   3.636   1.476
 3534SOL    HW211163   2.497   3.744   1.455
 3535SOL     OW11164   2.469   2.854   0.104
 3535SOL    HW111165   2.421   2.937   0.093
 3535SOL    HW211166   2.506   2.860   0.192
 3536SOL     OW11167   3.458   1.985   1.468
 3536SOL    HW111168   3.463   2.065   1.417
 3536SOL    HW211169   3.445   2.015   1.558
 3537SOL     OW11170   1.978   2.510   0.563
 3537SOL    HW111171   1.943   2.423   0.585
 3537SOL    HW211172   1.968   2.560   0.644
 3538SOL     OW11173   3.707   3.621   0.333
 3538SOL    HW111174   3.770   3.591   0.398
 3538SOL    HW211175   3.732   3.711   0.315
 3539SOL     OW11176   1.889   3.459   0.111
 3539SOL    HW111177   1.877   3.370   0.145
 3539SOL    HW211178   1.874   3.515   0.187
 3540SOL     OW11179   3.550   2.780   0.642
 3540SOL    HW111180   3.634   2.739   0.622
 3540SOL    HW211181   3.529   2.832   0.564
 3541SOL     OW11182   3.508   2.967   0.435
 3541SOL    HW111183   3.588   2.982   0.384
 3541SOL    HW211184   3.514   3.029   0.507
 3542SOL     OW11185   1.981   2.604   1.586
 3542SOL    HW111186   2.072   2.630   1.602
 3542SOL    HW211187   1.932   2.686   1.593
 3543SOL     OW11188   2.478   3.246   0.735
 3543SOL    HW111189   2.433   3.162   0.745
 3543SOL    HW211190   2.458   3.273   0.645
 3544SOL     OW11191   3.151   3.099   1.426
 3544SOL    HW111192   3.184   3.033   1.365
 3544SOL    HW211193   3.210   3.093   1.501
 3545SOL     OW11194   2.677   1.865   0.510
 3545SOL    HW111195   2.716   1.950   0.489
 3545SOL    HW211196   2.584   1.882   0.518
 3546SOL     OW11197   2.046   2.833   1.269
 3546SOL    HW111198   2.130   2.789   1.256
 3546SOL    HW211199   1.983   2.776   1.226
 3547SOL     OW11200   3.370   2.869   0.213
 3547SOL    HW111201   3.321   2.792   0.242
 3547SOL    HW211202   3.424   2.893   0.288
 3548SOL     OW11203   3.048   3.667   1.622
 3548SOL    HW111204   3.059   3.726   1.547
 3548SOL    HW211205   3.063   3.580   1.586
 3549SOL     OW11206   2.192   2.111   1.807
 3549SOL    HW111207   2.238   2.193   1.823
 3549SOL    HW211208   2.104   2.126   1.841
 3550SOL     OW11209   3.329   3.282   0.953
 3550SOL    HW111210   3.260   3.297   1.018
 3550SOL    HW211211   3.317   3.191   0.926
 3551SOL     OW11212   3.522   3.600   0.581
 3551SOL    HW111213   3.501   3.573   0.492
 3551SOL    HW211214   3.496   3.526   0.636
 3552SOL     OW11215   3.143   2.210   0.932
 3552SOL    HW111216   3.054   2.178   0.941
 3552SOL    HW211217   3.194   2.158   0.995
 3553SOL     OW11218   3.449   3.532   0.319
 3553SOL    HW111219   3.539   3.563   0.312
 3553SOL    HW211220   3.422   3.515   0.228
 3554SOL     OW11221   3.257   2.336   1.677
 3554SOL    HW111222   3.257   2.380   1.762
 3554SOL    HW211223   3.318   2.263   1.688
 3555SOL     OW11224   2.851   2.272   1.247
 3555SOL    HW111225   2.763   2.285   1.283
 3555SOL    HW211226   2.836   2.238   1.159
 3556SOL     OW11227   1.951   2.683   0.776
 3556SOL    HW111228   2.032   2.677   0.826
 3556SOL    HW211229   1.907   2.760   0.810
 3557SOL     OW11230   1.989   3.707   1.577
 3557SOL    HW111231   1.989   3.687   1.671
 3557SOL    HW211232   1.897   3.703   1.551
 3558SOL     OW11233   2.748   2.220   0.208
 3558SOL    HW111234   2.796   2.268   0.141
 3558SOL    HW211235   2.746   2.129   0.176
 3559SOL     OW11236   3.571   2.437   1.828
 3559SOL    HW111237   3.533   2.512   1.781
 3559SOL    HW211238   3.598   2.376   1.759
 3560SOL     OW11239   3.235   3.000   0.538
 3560SOL    HW111240   3.317   2.991   0.489
 3560SOL    HW211241   3.186   3.067   0.491
 3561SOL     OW11242   2.410   2.041   0.889
 3561SOL    HW111243   2.411   2.065   0.981
 3561SOL    HW211244   2.409   2.125   0.842
 3562SOL     OW11245   2.866   3.306   0.474
 3562SOL    HW111246   2.829   3.379   0.423
 3562SOL    HW211247   2.849   3.330   0.565
 3563SOL     OW11248   2.217   3.670   0.861
 3563SOL    HW111249   2.260   3.585   0.869
 3563SOL    HW211250   2.285   3.734   0.879
 3564SOL     OW11251   3.661   2.919   0.868
 3564SOL    HW111252   3.605   2.902   0.792
 3564SOL    HW211253   3.600   2.925   0.942
 3565SOL     OW11254   3.089   3.400   1.512
 3565SOL    HW111255   3.076   3.328   1.574
 3565SOL    HW211256   3.027   3.384   1.442
 3566SOL     OW11257   2.195   2.810   0.245
 3566SOL    HW111258   2.273   2.831   0.194
 3566SOL    HW211259   2.190   2.714   0.242
 3567SOL     OW11260   3.337   2.607   0.726
 3567SOL    HW111261   3.328   2.561   0.810
 3567SOL    HW211262   3.416   2.660   0.737
 3568SOL     OW11263   2.326   3.127   1.737
 3568SOL    HW111264   2.298   3.132   1.646
 3568SOL    HW211265   2.245   3.125   1.787
 3569SOL     OW11266   2.970   3.643   0.225
 3569SOL    HW111267   2.913   3.602   0.290
 3569SOL    HW211268   2.991   3.572   0.164
 3570SOL     OW11269   2.063   2.145   1.501
 3570SOL    HW111270   1.979   2.191   1.495
 3570SOL    HW211271   2.048   2.075   1.565
 3571SOL     OW11272   3.495   3.235   0.083
 3571SOL    HW111273   3.455   3.322   0.081
 3571SOL    HW211274   3.423   3.175   0.064
 3572SOL     OW11275   2.326   3.601   0.324
 3572SOL    HW111276   2.368   3.659   0.386
 3572SOL    HW211277   2.397   3.575   0.264
 3573SOL     OW11278   3.268   1.973   0.442
 3573SOL    HW111279   3.259   1.952   0.350
 3573SOL    HW211280   3.363   1.980   0.456
 3574SOL     OW11281   2.117   3.653   1.232
 3574SOL    HW111282   2.169   3.589   1.279
 3574SOL    HW211283   2.108   3.618   1.144
 3575SOL     OW11284   2.799   3.562   0.899
 3575SOL    HW111285   2.873   3.508   0.925
 3575SOL    HW211286   2.755   3.511   0.831
 3576SOL     OW11287   2.243   2.552   0.466
 3576SOL    HW111288   2.275   2.465   0.488
 3576SOL    HW211289   2.153   2.554   0.498
 3577SOL     OW11290   3.398   2.087   1.726
 3577SOL    HW111291   3.407   2.108   1.818
 3577SOL    HW211292   3.329   2.021   1.722
 3578SOL     OW11293   2.491   1.977   0.134
 3578SOL    HW111294   2.585   1.963   0.142
 3578SOL    HW211295   2.470   1.954   0.044
 3579SOL     OW11296   2.619   2.115   1.745
 3579SOL    HW111297   2.702   2.068   1.753
 3579SOL    HW211298   2.600   2.146   1.834
 3580SOL     OW11299   2.739   3.386   1.194
 3580SOL    HW111300   2.722   3.349   1.107
 3580SOL    HW211301   2.805   3.328   1.232
 3581SOL     OW11302   3.211   2.450   1.428
 3581SOL    HW111303   3.237   2.419   1.515
 3581SOL    HW211304   3.246   2.539   1.423
 3582SOL     OW11305   2.677   3.270   0.935
 3582SOL    HW111306   2.761   3.253   0.892
 3582SOL    HW211307   2.612   3.263   0.865
 3583SOL     OW11308   2.780   2.352   0.899
 3583SOL    HW111309   2.765   2.338   0.806
 3583SOL    HW211310   2.828   2.274   0.927
 3584SOL     OW11311   2.411   1.926   0.506
 3584SOL    HW111312   2.331   1.924   0.557
 3584SOL    HW211313   2.404   2.004   0.451
 3585SOL     OW11314   3.295   3.061   0.036
 3585SOL    HW111315   3.318   2.987   0.092
 3585SOL    HW211316   3.207   3.086   0.064
 3586SOL     OW11317   2.172   1.916   0.168
 3586SOL    HW111318   2.237   1.985   0.184
 3586SOL    HW211319   2.208   1.838   0.211
 3587SOL     OW11320   2.800   2.111   0.459
 3587SOL    HW111321   2.774   2.150   0.376
 3587SOL    HW211322   2.896   2.122   0.462
 3588SOL     OW11323   2.944   2.523   1.460
 3588SOL    HW111324   2.897   2.443   1.440
 3588SOL    HW211325   3.036   2.503   1.441
 3589SOL     OW11326   3.088   3.428   0.792
 3589SOL    HW111327   3.102   3.498   0.728
 3589SOL    HW211328   3.153   3.445   0.860
 3590SOL     OW11329   2.329   3.017   0.732
 3590SOL    HW111330   2.261   2.993   0.795
 3590SOL    HW211331   2.293   2.992   0.647
 3591SOL     OW11332   3.130   3.656   0.607
 3591SOL    HW111333   3.179   3.719   0.553
 3591SOL    HW211334   3.065   3.709   0.652
 3592SOL     OW11335   2.918   2.373   0.025
 3592SOL    HW111336   2.870   2.453   0.004
 3592SOL    HW211337   2.976   2.398   0.097
 3593SOL     OW11338   1.941   2.418   1.390
 3593SOL    HW111339   2.033   2.415   1.366
 3593SOL    HW211340   1.935   2.488   1.455
 3594SOL     OW11341   2.418   2.076   1.160
 3594SOL    HW111342   2.459   2.001   1.202
 3594SOL    HW211343   2.328   2.075   1.193
 3595SOL     OW11344   2.718   2.307   0.641
 3595SOL    HW111345   2.723   2.381   0.580
 3595SOL    HW211346   2.745   2.232   0.589
 3596SOL     OW11347   2.876   1.914   0.751
 3596SOL    HW111348   2.817   1.905   0.676
 3596SOL    HW211349   2.855   1.839   0.806
 3597SOL     OW11350   3.300   3.026   0.858
 3597SOL    HW111351   3.233   2.958   0.856
 3597SOL    HW211352   3.326   3.038   0.766
 3598SOL     OW11353   3.331   2.466   0.977
 3598SOL    HW111354   3.278   2.386   0.981
 3598SOL    HW211355   3.390   2.460   1.052
 3599SOL     OW11356   3.709   2.678   0.388
 3599SOL    HW111357   3.762   2.625   0.448
 3599SOL    HW211358   3.679   2.616   0.322
 3600SOL     OW11359   2.341   3.306   0.175
 3600SOL    HW111360   2.272   3.262   0.225
 3600SOL    HW211361   2.351   3.253   0.096
 3601SOL     OW11362   3.531   3.127   0.649
 3601SOL    HW111363   3.626   3.131   0.661
 3601SOL    HW211364   3.501   3.215   0.669
 3602SOL     OW11365   3.260   2.441   0.087
 3602SOL    HW111366   3.198   2.418   0.156
 3602SOL    HW211367   3.318   2.365   0.081
 3603SOL     OW11368   2.378   2.127   0.324
 3603SOL    HW111369   2.427   2.074   0.262
 3603SOL    HW211370   2.368   2.212   0.281
 3604SOL     OW11371   3.615   3.100   1.574
 3604SOL    HW111372   3.702   3.061   1.570
 3604SOL    HW211373   3.630   3.190   1.603
 3605SOL     OW11374   2.924   3.219   1.335
 3605SOL    HW111375   2.847   3.187   1.382
 3605SOL    HW211376   2.998   3.175   1.376
 3606SOL     OW11377   3.469   3.487   1.653
 3606SOL    HW111378   3.464   3.521   1.564
 3606SOL    HW211379   3.553   3.440   1.656
 3607SOL     OW11380   2.990   3.064   1.104
 3607SOL    HW111381   2.927   3.091   1.172
 3607SOL    HW211382   2.952   3.096   1.022
 3608SOL     OW11383   3.491   2.961   1.078
 3608SOL    HW111384   3.487   3.023   1.151
 3608SOL    HW211385   3.412   2.978   1.027
 3609SOL     OW11386   2.780   1.959   1.396
 3609SOL    HW111387   2.803   1.940   1.306
 3609SOL    HW211388   2.859   1.999   1.434
 3610SOL     OW11389   2.851   2.973   1.717
 3610SOL    HW111390   2.759   2.986   1.740
 3610SOL    HW211391   2.849   2.919   1.638
 3611SOL     OW11392   2.568   2.945   0.363
 3611SOL    HW111393   2.523   2.934   0.447
 3611SOL    HW211394   2.612   2.862   0.348
 3612SOL     OW11395   2.267   2.674   1.255
 3612SOL    HW111396   2.356   2.684   1.288
 3612SOL    HW211397   2.242   2.584   1.276
 3613SOL     OW11398   3.128   2.239   1.274
 3613SOL    HW111399   3.163   2.316   1.319
 3613SOL    HW211400   3.038   2.263   1.252
 3614SOL     OW11401   1.932   3.435   1.352
 3614SOL    HW111402   1.902   3.509   1.298
 3614SOL    HW211403   2.028   3.439   1.347
 3615SOL     OW11404   2.219   2.967   0.485
 3615SOL    HW111405   2.212   3.043   0.427
 3615SOL    HW211406   2.217   2.892   0.426
 3616SOL     OW11407   2.410   2.377   0.869
 3616SOL    HW111408   2.411   2.405   0.777
 3616SOL    HW211409   2.500   2.391   0.899
 3617SOL     OW11410   3.109   3.208   0.396
 3617SOL    HW111411   3.164   3.282   0.422
 3617SOL    HW211412   3.021   3.233   0.426
 3618SOL     OW11413   3.141   3.319   1.146
 3618SOL    HW111414   3.196   3.320   1.225
 3618SOL    HW211415   3.082   3.245   1.159
 3619SOL     OW11416   3.442   2.486   0.480
 3619SOL    HW111417   3.397   2.540   0.545
 3619SOL    HW211418   3.483   2.549   0.421
 3620SOL     OW11419   2.209   3.388   1.316
 3620SOL    HW111420   2.196   3.346   1.231
 3620SOL    HW211421   2.304   3.401   1.323
 3621SOL     OW11422   2.266   2.604   1.610
 3621SOL    HW111423   2.320   2.655   1.550
 3621SOL    HW211424   2.297   2.514   1.600
 3622SOL     OW11425   3.462   2.641   1.681
 3622SOL    HW111426   3.376   2.681   1.673
 3622SOL    HW211427   3.514   2.682   1.613
 3623SOL     OW11428   2.863   1.985   1.759
 3623SOL    HW111429   2.915   2.058   1.725
 3623SOL    HW211430   2.909   1.906   1.732
 3624SOL     OW11431   2.359   1.901   1.746
 3624SOL    HW111432   2.316   1.848   1.679
 3624SOL    HW211433   2.300   1.976   1.758
 3625SOL     OW11434   3.225   2.721   1.031
 3625SOL    HW111435   3.145   2.710   0.980
 3625SOL    HW211436   3.266   2.635   1.030
 3626SOL     OW11437   3.060   2.390   0.272
 3626SOL    HW111438   3.064   2.309   0.322
 3626SOL    HW211439   3.072   2.459   0.338
 3627SOL     OW11440   2.161   2.061   1.247
 3627SOL    HW111441   2.123   2.094   1.329
 3627SOL    HW211442   2.142   1.968   1.247
 3628SOL     OW11443   1.907   3.173   1.276
 3628SOL    HW111444   1.941   3.119   1.348
 3628SOL    HW211445   1.915   3.263   1.308
 3629SOL     OW11446   3.596   2.821   1.852
 3629SOL    HW111447   3.550   2.761   1.794
 3629SOL    HW211448   3.537   2.835   1.925
 3630SOL     OW11449   2.164   1.928   0.623
 3630SOL    HW111450   2.145   2.019   0.648
 3630SOL    HW211451   2.171   1.881   0.706
 3631SOL     OW11452   3.482   2.236   0.370
 3631SOL    HW111453   3.506   2.171   0.436
 3631SOL    HW211454   3.456   2.313   0.421
 3632SOL     OW11455   2.843   3.428   1.716
 3632SOL    HW111456   2.828   3.473   1.632
 3632SOL    HW211457   2.887   3.347   1.691
 3633SOL     OW11458   3.717   3.369   1.605
 3633SOL    HW111459   3.735   3.395   1.515
 3633SOL    HW211460   3.798   3.388   1.652
 3634SOL     OW11461   2.210   2.781   1.813
 3634SOL    HW111462   2.290   2.808   1.856
 3634SOL    HW211463   2.238   2.715   1.749
 3635SOL     OW11464   3.380   2.162   0.127
 3635SOL    HW111465   3.332   2.081   0.142
 3635SOL    HW211466   3.420   2.182   0.211
 3636SOL     OW11467   3.158   2.688   0.022
 3636SOL    HW111468   3.195   2.601   0.038
 3636SOL    HW211469   3.214   2.725   8.034
 3637SOL     OW11470   2.926   3.199   0.849
 3637SOL    HW111471   2.931   3.129   0.784
 3637SOL    HW211472   2.989   3.265   0.819
 3638SOL     OW11473   2.169   2.673   0.949
 3638SOL    HW111474   2.259   2.706   0.957
 3638SOL    HW211475   2.171   2.587   0.989
 3639SOL     OW11476   2.188   2.385   1.019
 3639SOL    HW111477   2.151   2.298   1.003
 3639SOL    HW211478   2.265   2.389   0.963
 3640SOL     OW11479   2.999   2.236   1.678
 3640SOL    HW111480   2.954   2.290   1.743
 3640SOL    HW211481   3.086   2.275   1.672
 3641SOL     OW11482   3.023   2.064   1.469
 3641SOL    HW111483   3.013   2.127   1.541
 3641SOL    HW211484   3.062   2.115   1.398
 3642SOL     OW11485   1.872   3.187   0.191
 3642SOL    HW111486   1.786   3.201   0.153
 3642SOL    HW211487   1.871   3.097   0.222
 3643SOL     OW11488   1.952   3.650   0.937
 3643SOL    HW111489   1.922   3.570   0.894
 3643SOL    HW211490   2.042   3.662   0.907
 3644SOL     OW11491   2.359   3.435   0.905
 3644SOL    HW111492   2.428   3.497   0.930
 3644SOL    HW211493   2.404   3.370   0.850
 3645SOL     OW11494   1.897   2.405   1.117
 3645SOL    HW111495   1.979   2.395   1.068
 3645SOL    HW211496   1.924   2.411   1.208
 3646SOL     OW11497   2.053   2.381   1.726
 3646SOL    HW111498   2.104   2.338   1.657
 3646SOL    HW211499   2.009   2.453   1.682
 3647SOL     OW11500   3.237   2.802   1.659
 3647SOL    HW111501   3.260   2.895   1.657
 3647SOL    HW211502   3.236   2.776   1.567
 3648SOL     OW11503   3.504   2.464   1.187
 3648SOL    HW111504   3.493   2.405   1.261
 3648SOL    HW211505   3.591   2.443   1.153
 3649SOL     OW11506   2.106   3.414   1.728
 3649SOL    HW111507   2.083   3.478   1.796
 3649SOL    HW211508   2.107   3.330   1.774
 3650SOL     OW11509   2.546   2.293   1.255
 3650SOL    HW111510   2.498   2.215   1.229
 3650SOL    HW211511   2.551   2.347   1.176
 3651SOL     OW11512   2.789   3.542   1.468
 3651SOL    HW111513   2.765   3.506   1.383
 3651SOL    HW211514   2.785   3.637   1.456
 3652SOL     OW11515   2.333   2.361   0.190
 3652SOL    HW111516   2.393   2.434   0.201
 3652SOL    HW211517   2.246   2.400   0.191
 3653SOL     OW11518   2.007   3.003   1.473
 3653SOL    HW111519   2.010   2.950   1.552
 3653SOL    HW211520   2.023   2.941   1.402
 3654SOL     OW11521   3.189   2.910   1.224
 3654SOL    HW111522   3.213   2.847   1.156
 3654SOL    HW211523   3.120   2.962   1.185
 3655SOL     OW11524   3.166   2.692   0.305
 3655SOL    HW111525   3.088   2.730   0.344
 3655SOL    HW211526   3.151   2.699   0.210
 3656SOL     OW11527   3.632   3.607   1.149
 3656SOL    HW111528   3.693   3.633   1.080
 3656SOL    HW211529   3.609   3.517   1.128
 3657SOL     OW11530   3.103   3.595   1.113
 3657SOL    HW111531   3.185   3.615   1.069
 3657SOL    HW211532   3.108   3.501   1.132
 3658SOL     OW11533   1.945   3.129   1.012
 3658SOL    HW111534   1.932   3.141   1.106
 3658SOL    HW211535   1.872   3.074   0.985
 3659SOL     OW11536   2.539   3.527   1.727
 3659SOL    HW111537   2.487   3.607   1.723
 3659SOL    HW211538   2.604   3.537   1.658
 3660SOL     OW11539   2.767   1.955   0.135
 3660SOL    HW111540   2.784   1.939   0.042
 3660SOL    HW211541   2.830   1.900   0.181
 3661SOL     OW11542   3.580   2.006   0.510
 3661SOL    HW111543   3.653   1.991   0.450
 3661SOL    HW211544   3.565   1.921   0.552
 3662SOL     OW11545   3.251   3.430   0.484
 3662SOL    HW111546   3.315   3.463   0.420
 3662SOL    HW211547   3.204   3.508   0.514
 3663SOL     OW11548   1.997   3.659   1.843
 3663SOL    HW111549   1.947   3.594   1.892
 3663SOL    HW211550   2.046   3.706   1.911
 3664SOL     OW11551   3.131   2.788   0.670
 3664SOL    HW111552   3.203   2.726   0.679
 3664SOL    HW211553   3.167   2.860   0.619
 3665SOL     OW11554   2.689   3.139   1.436
 3665SOL    HW111555   2.647   3.181   1.511
 3665SOL    HW211556   2.617   3.125   1.374
 3666SOL     OW11557   2.539   3.483   0.155
 3666SOL    HW111558   2.544   3.489   0.059
 3666SOL    HW211559   2.477   3.412   0.172
 3667SOL     OW11560   3.490   3.589   1.391
 3667SOL    HW111561   3.539   3.596   1.310
 3667SOL    HW211562   3.476   3.679   1.419
 3668SOL     OW11563   3.702   2.035   0.967
 3668SOL    HW111564   3.731   1.948   0.940
 3668SOL    HW211565   3.616   2.045   0.927
 3669SOL     OW11566   2.125   2.182   0.717
 3669SOL    HW111567   2.038   2.214   0.693
 3669SOL    HW211568   2.120   2.170   0.812
 3670SOL     OW11569   3.019   3.445   0.052
 3670SOL    HW111570   3.035   3.352   0.070
 3670SOL    HW211571   3.027   3.452   8.037
 3671SOL     OW11572   3.372   3.486   0.060
 3671SOL    HW111573   3.277   3.487   0.050
 3671SOL    HW211574   3.406   3.487   8.051
 3672SOL     OW11575   2.230   3.165   1.493
 3672SOL    HW111576   2.219   3.241   1.436
 3672SOL    HW211577   2.153   3.111   1.475
 3673SOL     OW11578   3.473   3.145   1.281
 3673SOL    HW111579   3.533   3.135   1.355
 3673SOL    HW211580   3.413   3.214   1.307
 3674SOL     OW11581   2.909   2.965   0.701
 3674SOL    HW111582   2.845   2.918   0.753
 3674SOL    HW211583   2.977   2.901   0.682
 3675SOL     OW11584   2.887   2.098   0.966
 3675SOL    HW111585   2.882   2.048   0.884
 3675SOL    HW211586   2.880   2.031   1.034
 3676SOL     OW11587   2.463   3.350   0.480
 3676SOL    HW111588   2.507   3.304   0.409
 3676SOL    HW211589   2.394   3.400   0.437
 3677SOL     OW11590   3.583   2.254   1.380
 3677SOL    HW111591   3.655   2.317   1.379
 3677SOL    HW211592   3.613   2.182   1.324
 3678SOL     OW11593   2.126   3.180   0.301
 3678SOL    HW111594   2.042   3.196   0.257
 3678SOL    HW211595   2.119   3.229   0.383
 3679SOL     OW11596   1.973   2.881   1.718
 3679SOL    HW111597   1.897   2.860   1.772
 3679SOL    HW211598   2.047   2.846   1.767
 3680SOL     OW11599   2.533   2.057   1.494
 3680SOL    HW111600   2.618   2.039   1.455
 3680SOL    HW211601   2.552   2.079   1.585
 3681SOL     OW11602   1.921   2.220   0.039
 3681SOL    HW111603   1.844   2.167   0.015
 3681SOL    HW211604   1.961   2.243   8.035
 3682SOL     OW11605   3.293   2.721   1.402
 3682SOL    HW111606   3.244   2.780   1.346
 3682SOL    HW211607   3.382   2.724   1.367
 3683SOL     OW11608   1.934   2.017   0.307
 3683SOL    HW111609   1.917   2.100   0.262
 3683SOL    HW211610   2.017   1.987   0.271
 3684SOL     OW11611   3.048   3.183   0.121
 3684SOL    HW111612   2.953   3.170   0.119
 3684SOL    HW211613   3.070   3.184   0.214
 3685SOL     OW11614   3.346   3.637   0.977
 3685SOL    HW111615   3.371   3.697   0.906
 3685SOL    HW211616   3.428   3.621   1.024
 3686SOL     OW11617   3.334   3.062   1.632
 3686SOL    HW111618   3.321   3.076   1.726
 3686SOL    HW211619   3.427   3.077   1.618
 3687SOL     OW11620   2.242   3.601   1.564
 3687SOL    HW111621   2.157   3.642   1.550
 3687SOL    HW211622   2.223   3.517   1.605
 3688SOL     OW11623   3.532   2.743   1.256
 3688SOL    HW111624   3.525   2.658   1.213
 3688SOL    HW211625   3.523   2.807   1.184
 3689SOL     OW11626   3.080   2.180   0.459
 3689SOL    HW111627   3.144   2.110   0.450
 3689SOL    HW211628   3.108   2.229   0.536
 3690SOL     OW11629   3.625   2.223   1.650
 3690SOL    HW111630   3.608   2.238   1.557
 3690SOL    HW211631   3.554   2.167   1.679
 3691SOL     OW11632   3.607   2.795   1.513
 3691SOL    HW111633   3.605   2.890   1.526
 3691SOL    HW211634   3.591   2.784   1.419
 3692SOL     OW11635   2.758   3.236   0.036
 3692SOL    HW111636   2.694   3.229   0.107
 3692SOL    HW211637   2.739   3.321   8.075
 3693SOL     OW11638   2.521   3.655   0.945
 3693SOL    HW111639   2.502   3.745   0.922
 3693SOL    HW211640   2.616   3.648   0.939
 3694SOL     OW11641   2.961   2.864   0.091
 3694SOL    HW111642   2.944   2.918   0.014
 3694SOL    HW211643   3.029   2.802   0.063
 3695SOL     OW11644   3.717   3.416   0.844
 3695SOL    HW111645   3.639   3.406   0.791
 3695SOL    HW211646   3.707   3.351   0.914
 3696SOL     OW11647   2.086   3.166   1.856
 3696SOL    HW111648   2.018   3.105   1.828
 3696SOL    HW211649   2.070   3.178   1.950
 3697SOL     OW11650   1.945   3.094   0.665
 3697SOL    HW111651   1.950   3.046   0.748
 3697SOL    HW211652   2.019   3.062   0.614
 3698SOL     OW11653   2.542   3.264   1.627
 3698SOL    HW111654   2.461   3.222   1.656
 3698SOL    HW211655   2.537   3.352   1.664
 3699SOL     OW11656   3.675   2.047   1.238
 3699SOL    HW111657   3.686   1.953   1.253
 3699SOL    HW211658   3.684   2.057   1.143
 3700SOL     OW11659   2.305   2.296   0.539
 3700SOL    HW111660   2.324   2.229   0.473
 3700SOL    HW211661   2.244   2.254   0.599
 3701SOL     OW11662   3.563   3.351   1.096
 3701SOL    HW111663   3.482   3.328   1.053
 3701SOL    HW211664   3.575   3.283   1.163
 3702SOL     OW11665   2.195   2.413   1.297
 3702SOL    HW111666   2.250   2.355   1.349
 3702SOL    HW211667   2.208   2.384   1.206
 3703SOL     OW11668   2.690   3.440   0.675
 3703SOL    HW111669   2.676   3.491   0.596
 3703SOL    HW211670   2.612   3.384   0.681
 3704SOL     OW11671   3.295   2.086   1.119
 3704SOL    HW111672   3.321   2.007   1.166
 3704SOL    HW211673   3.242   2.135   1.182
 3705SOL     OW11674   2.870   1.880   1.143
 3705SOL    HW111675   2.817   1.811   1.104
 3705SOL    HW211676   2.959   1.843   1.146
 3706SOL     OW11677   2.634   3.203   0.302
 3706SOL    HW111678   2.602   3.113   0.313
 3706SOL    HW211679   2.715   3.206   0.353
 3707SOL     OW11680   2.481   3.421   1.283
 3707SOL    HW111681   2.485   3.503   1.334
 3707SOL    HW211682   2.569   3.410   1.248
 3708SOL     OW11683   3.218   1.916   0.184
 3708SOL    HW111684   3.240   1.868   0.104
 3708SOL    HW211685   3.132   1.882   0.209
 3709SOL     OW11686   3.164   2.316   0.681
 3709SOL    HW111687   3.118   2.399   0.693
 3709SOL    HW211688   3.161   2.274   0.768
 3710SOL     OW11689   3.449   2.065   0.877
 3710SOL    HW111690   3.387   2.084   0.948
 3710SOL    HW211691   3.448   2.143   0.823
 3711SOL     OW11692   1.904   2.929   0.300
 3711SOL    HW111693   1.999   2.930   0.302
 3711SOL    HW211694   1.879   2.847   0.343
 3712SOL     OW11695   2.745   3.515   0.347
 3712SOL    HW111696   2.677   3.497   0.282
 3712SOL    HW211697   2.712   3.591   0.396
 3713SOL     OW11698   2.094   2.481   1.984
 3713SOL    HW111699   2.005   2.486   2.020
 3713SOL    HW211700   2.081   2.457   1.892
 3714SOL     OW11701   2.091   2.134   2.863
 3714SOL    HW111702   2.110   2.092   2.947
 3714SOL    HW211703   2.000   2.109   2.844
 3715SOL     OW11704   1.867   2.243   2.500
 3715SOL    HW111705   1.784   2.269   2.542
 3715SOL    HW211706   1.845   2.164   2.452
 3716SOL     OW11707   3.421   3.373   2.568
 3716SOL    HW111708   3.378   3.355   2.652
 3716SOL    HW211709   3.350   3.379   2.505
 3717SOL     OW11710   3.016   2.540   2.581
 3717SOL    HW111711   3.044   2.630   2.566
 3717SOL    HW211712   2.942   2.547   2.641
 3718SOL     OW11713   3.628   2.468   2.091
 3718SOL    HW111714   3.608   2.460   1.998
 3718SOL    HW211715   3.593   2.388   2.131
 3719SOL     OW11716   2.175   3.310   2.928
 3719SOL    HW111717   2.120   3.253   2.874
 3719SOL    HW211718   2.240   3.346   2.868
 3720SOL     OW11719   3.323   3.358   3.215
 3720SOL    HW111720   3.371   3.441   3.215
 3720SOL    HW211721   3.282   3.354   3.301
 3721SOL     OW11722   3.475   2.311   2.601
 3721SOL    HW111723   3.398   2.333   2.549
 3721SOL    HW211724   3.489   2.387   2.658
 3722SOL     OW11725   2.081   3.576   2.334
 3722SOL    HW111726   2.103   3.652   2.388
 3722SOL    HW211727   2.154   3.569   2.273
 3723SOL     OW11728   2.090   3.303   2.396
 3723SOL    HW111729   2.075   3.397   2.401
 3723SOL    HW211730   2.031   3.265   2.461
 3724SOL     OW11731   2.115   2.953   2.749
 3724SOL    HW111732   2.108   2.866   2.786
 3724SOL    HW211733   2.058   3.008   2.803
 3725SOL     OW11734   2.482   3.657   3.301
 3725SOL    HW111735   2.396   3.639   3.338
 3725SOL    HW211736   2.499   3.749   3.322
 3726SOL     OW11737   2.429   2.862   1.988
 3726SOL    HW111738   2.476   2.919   1.927
 3726SOL    HW211739   2.491   2.849   2.060
 3727SOL     OW11740   3.458   1.984   3.329
 3727SOL    HW111741   3.461   2.066   3.280
 3727SOL    HW211742   3.446   2.012   3.420
 3728SOL     OW11743   1.977   2.512   2.422
 3728SOL    HW111744   1.945   2.425   2.444
 3728SOL    HW211745   1.968   2.562   2.503
 3729SOL     OW11746   3.704   3.622   2.198
 3729SOL    HW111747   3.767   3.593   2.264
 3729SOL    HW211748   3.729   3.712   2.178
 3730SOL     OW11749   1.893   3.458   1.986
 3730SOL    HW111750   1.876   3.366   2.006
 3730SOL    HW211751   1.869   3.504   2.066
 3731SOL     OW11752   3.552   2.781   2.502
 3731SOL    HW111753   3.636   2.739   2.482
 3731SOL    HW211754   3.531   2.831   2.423
 3732SOL     OW11755   3.507   2.969   2.291
 3732SOL    HW111756   3.593   2.975   2.249
 3732SOL    HW211757   3.513   3.030   2.365
 3733SOL     OW11758   2.479   3.244   2.597
 3733SOL    HW111759   2.434   3.160   2.607
 3733SOL    HW211760   2.459   3.272   2.508
 3734SOL     OW11761   2.675   1.857   2.371
 3734SOL    HW111762   2.718   1.940   2.350
 3734SOL    HW211763   2.582   1.880   2.379
 3735SOL     OW11764   3.394   2.855   2.060
 3735SOL    HW111765   3.328   2.794   2.091
 3735SOL    HW211766   3.435   2.890   2.139
 3736SOL     OW11767   3.052   3.670   3.491
 3736SOL    HW111768   3.057   3.731   3.417
 3736SOL    HW211769   3.059   3.583   3.451
 3737SOL     OW11770   3.331   3.281   2.817
 3737SOL    HW111771   3.260   3.295   2.879
 3737SOL    HW211772   3.319   3.191   2.786
 3738SOL     OW11773   3.521   3.599   2.440
 3738SOL    HW111774   3.501   3.571   2.351
 3738SOL    HW211775   3.496   3.526   2.496
 3739SOL     OW11776   3.144   2.216   2.800
 3739SOL    HW111777   3.055   2.181   2.802
 3739SOL    HW211778   3.195   2.156   2.855
 3740SOL     OW11779   3.443   3.531   2.171
 3740SOL    HW111780   3.533   3.564   2.164
 3740SOL    HW211781   3.417   3.515   2.081
 3741SOL     OW11782   1.948   2.683   2.635
 3741SOL    HW111783   2.029   2.674   2.684
 3741SOL    HW211784   1.906   2.761   2.672
 3742SOL     OW11785   1.989   3.713   3.440
 3742SOL    HW111786   1.988   3.691   3.533
 3742SOL    HW211787   1.898   3.702   3.412
 3743SOL     OW11788   2.745   2.189   2.007
 3743SOL    HW111789   2.799   2.251   1.959
 3743SOL    HW211790   2.792   2.106   2.000
 3744SOL     OW11791   3.589   2.447   3.685
 3744SOL    HW111792   3.555   2.520   3.632
 3744SOL    HW211793   3.598   2.375   3.623
 3745SOL     OW11794   3.235   3.000   2.401
 3745SOL    HW111795   3.317   2.991   2.352
 3745SOL    HW211796   3.186   3.067   2.353
 3746SOL     OW11797   2.413   2.044   2.765
 3746SOL    HW111798   2.396   2.081   2.852
 3746SOL    HW211799   2.416   2.121   2.707
 3747SOL     OW11800   2.866   3.305   2.335
 3747SOL    HW111801   2.830   3.379   2.287
 3747SOL    HW211802   2.852   3.327   2.427
 3748SOL     OW11803   2.217   3.669   2.723
 3748SOL    HW111804   2.259   3.584   2.731
 3748SOL    HW211805   2.286   3.732   2.741
 3749SOL     OW11806   3.661   2.920   2.729
 3749SOL    HW111807   3.606   2.902   2.653
 3749SOL    HW211808   3.600   2.925   2.803
 3750SOL     OW11809   3.089   3.412   3.379
 3750SOL    HW111810   3.087   3.332   3.430
 3750SOL    HW211811   3.014   3.406   3.321
 3751SOL     OW11812   2.176   2.825   2.112
 3751SOL    HW111813   2.258   2.846   2.066
 3751SOL    HW211814   2.151   2.739   2.078
 3752SOL     OW11815   3.338   2.607   2.588
 3752SOL    HW111816   3.329   2.561   2.671
 3752SOL    HW211817   3.416   2.661   2.599
 3753SOL     OW11818   2.984   3.640   2.093
 3753SOL    HW111819   2.911   3.598   2.139
 3753SOL    HW211820   3.006   3.579   2.023
 3754SOL     OW11821   2.018   2.121   3.361
 3754SOL    HW111822   1.967   2.201   3.378
 3754SOL    HW211823   2.032   2.084   3.448
 3755SOL     OW11824   3.490   3.241   1.950
 3755SOL    HW111825   3.450   3.327   1.934
 3755SOL    HW211826   3.421   3.178   1.930
 3756SOL     OW11827   2.328   3.599   2.183
 3756SOL    HW111828   2.369   3.657   2.248
 3756SOL    HW211829   2.401   3.570   2.128
 3757SOL     OW11830   3.263   1.970   2.294
 3757SOL    HW111831   3.253   1.944   2.202
 3757SOL    HW211832   3.358   1.976   2.307
 3758SOL     OW11833   2.118   3.652   3.093
 3758SOL    HW111834   2.167   3.585   3.140
 3758SOL    HW211835   2.108   3.617   3.005
 3759SOL     OW11836   2.799   3.561   2.761
 3759SOL    HW111837   2.870   3.504   2.788
 3759SOL    HW211838   2.753   3.512   2.693
 3760SOL     OW11839   2.249   2.552   2.334
 3760SOL    HW111840   2.276   2.462   2.354
 3760SOL    HW211841   2.157   2.556   2.358
 3761SOL     OW11842   3.406   2.075   3.587
 3761SOL    HW111843   3.413   2.104   3.678
 3761SOL    HW211844   3.331   2.016   3.586
 3762SOL     OW11845   2.479   1.975   1.980
 3762SOL    HW111846   2.568   1.939   1.980
 3762SOL    HW211847   2.444   1.952   1.894
 3763SOL     OW11848   2.736   3.384   3.053
 3763SOL    HW111849   2.713   3.351   2.967
 3763SOL    HW211850   2.809   3.329   3.082
 3764SOL     OW11851   2.675   3.273   2.805
 3764SOL    HW111852   2.759   3.248   2.766
 3764SOL    HW211853   2.610   3.253   2.738
 3765SOL     OW11854   2.799   2.368   2.754
 3765SOL    HW111855   2.773   2.346   2.665
 3765SOL    HW211856   2.829   2.285   2.791
 3766SOL     OW11857   2.410   1.926   2.365
 3766SOL    HW111858   2.329   1.926   2.415
 3766SOL    HW211859   2.404   2.005   2.310
 3767SOL     OW11860   3.290   3.060   1.903
 3767SOL    HW111861   3.320   2.985   1.953
 3767SOL    HW211862   3.204   3.081   1.940
 3768SOL     OW11863   2.156   1.910   2.047
 3768SOL    HW111864   2.216   1.971   2.005
 3768SOL    HW211865   2.212   1.845   2.088
 3769SOL     OW11866   2.807   2.093   2.325
 3769SOL    HW111867   2.768   2.164   2.274
 3769SOL    HW211868   2.901   2.112   2.325
 3770SOL     OW11869   3.094   3.429   2.652
 3770SOL    HW111870   3.105   3.500   2.588
 3770SOL    HW211871   3.157   3.450   2.721
 3771SOL     OW11872   2.331   3.014   2.597
 3771SOL    HW111873   2.259   2.993   2.657
 3771SOL    HW211874   2.298   2.990   2.511
 3772SOL     OW11875   3.132   3.656   2.470
 3772SOL    HW111876   3.177   3.718   2.412
 3772SOL    HW211877   3.065   3.709   2.513
 3773SOL     OW11878   2.906   2.391   1.884
 3773SOL    HW111879   2.843   2.463   1.880
 3773SOL    HW211880   2.963   2.414   1.958
 3774SOL     OW11881   1.952   2.413   3.249
 3774SOL    HW111882   2.043   2.385   3.263
 3774SOL    HW211883   1.942   2.489   3.307
 3775SOL     OW11884   2.730   2.299   2.509
 3775SOL    HW111885   2.708   2.364   2.443
 3775SOL    HW211886   2.754   2.221   2.460
 3776SOL     OW11887   2.878   1.912   2.612
 3776SOL    HW111888   2.819   1.906   2.537
 3776SOL    HW211889   2.855   1.837   2.667
 3777SOL     OW11890   3.299   3.027   2.719
 3777SOL    HW111891   3.239   2.952   2.723
 3777SOL    HW211892   3.320   3.037   2.627
 3778SOL     OW11893   3.333   2.465   2.834
 3778SOL    HW111894   3.283   2.383   2.838
 3778SOL    HW211895   3.392   2.461   2.910
 3779SOL     OW11896   3.708   2.679   2.244
 3779SOL    HW111897   3.764   2.627   2.302
 3779SOL    HW211898   3.679   2.616   2.177
 3780SOL     OW11899   2.355   3.276   2.021
 3780SOL    HW111900   2.279   3.249   2.073
 3780SOL    HW211901   2.338   3.242   1.934
 3781SOL     OW11902   3.531   3.126   2.508
 3781SOL    HW111903   3.625   3.130   2.522
 3781SOL    HW211904   3.500   3.214   2.530
 3782SOL     OW11905   3.257   2.433   1.934
 3782SOL    HW111906   3.197   2.412   2.005
 3782SOL    HW211907   3.342   2.401   1.963
 3783SOL     OW11908   2.386   2.129   2.184
 3783SOL    HW111909   2.424   2.075   2.115
 3783SOL    HW211910   2.368   2.213   2.142
 3784SOL     OW11911   3.615   3.097   3.438
 3784SOL    HW111912   3.703   3.060   3.426
 3784SOL    HW211913   3.630   3.187   3.467
 3785SOL     OW11914   2.936   3.229   3.192
 3785SOL    HW111915   2.856   3.207   3.240
 3785SOL    HW211916   3.001   3.167   3.224
 3786SOL     OW11917   3.470   3.487   3.513
 3786SOL    HW111918   3.464   3.523   3.424
 3786SOL    HW211919   3.553   3.440   3.514
 3787SOL     OW11920   3.492   2.961   2.939
 3787SOL    HW111921   3.486   3.024   3.010
 3787SOL    HW211922   3.410   2.971   2.891
 3788SOL     OW11923   2.818   1.910   3.270
 3788SOL    HW111924   2.826   1.910   3.174
 3788SOL    HW211925   2.852   1.995   3.297
 3789SOL     OW11926   2.291   2.628   3.048
 3789SOL    HW111927   2.341   2.678   3.113
 3789SOL    HW211928   2.223   2.584   3.100
 3790SOL     OW11929   3.134   2.204   3.137
 3790SOL    HW111930   3.142   2.264   3.211
 3790SOL    HW211931   3.057   2.236   3.089
 3791SOL     OW11932   1.933   3.433   3.210
 3791SOL    HW111933   1.907   3.508   3.157
 3791SOL    HW211934   2.029   3.432   3.207
 3792SOL     OW11935   2.220   2.967   2.351
 3792SOL    HW111936   2.213   3.042   2.291
 3792SOL    HW211937   2.210   2.891   2.294
 3793SOL     OW11938   2.409   2.382   2.738
 3793SOL    HW111939   2.422   2.410   2.648
 3793SOL    HW211940   2.493   2.399   2.781
 3794SOL     OW11941   3.109   3.210   2.253
 3794SOL    HW111942   3.165   3.282   2.282
 3794SOL    HW211943   3.022   3.232   2.286
 3795SOL     OW11944   3.140   3.318   3.007
 3795SOL    HW111945   3.196   3.325   3.085
 3795SOL    HW211946   3.061   3.273   3.038
 3796SOL     OW11947   3.442   2.486   2.339
 3796SOL    HW111948   3.398   2.541   2.404
 3796SOL    HW211949   3.490   2.548   2.284
 3797SOL     OW11950   2.208   3.396   3.179
 3797SOL    HW111951   2.193   3.352   3.095
 3797SOL    HW211952   2.303   3.400   3.188
 3798SOL     OW11953   3.235   2.736   2.877
 3798SOL    HW111954   3.152   2.715   2.835
 3798SOL    HW211955   3.275   2.650   2.895
 3799SOL     OW11956   3.063   2.390   2.131
 3799SOL    HW111957   3.069   2.307   2.179
 3799SOL    HW211958   3.057   2.457   2.199
 3800SOL     OW11959   1.912   3.167   3.144
 3800SOL    HW111960   1.970   3.126   3.209
 3800SOL    HW211961   1.916   3.260   3.165
 3801SOL     OW11962   2.165   1.927   2.485
 3801SOL    HW111963   2.144   2.018   2.510
 3801SOL    HW211964   2.171   1.881   2.568
 3802SOL     OW11965   3.477   2.236   2.230
 3802SOL    HW111966   3.505   2.172   2.295
 3802SOL    HW211967   3.454   2.314   2.280
 3803SOL     OW11968   3.716   3.369   3.467
 3803SOL    HW111969   3.735   3.395   3.377
 3803SOL    HW211970   3.797   3.387   3.514
 3804SOL     OW11971   3.391   2.136   1.989
 3804SOL    HW111972   3.327   2.070   2.016
 3804SOL    HW211973   3.424   2.171   2.072
 3805SOL     OW11974   3.155   2.687   1.892
 3805SOL    HW111975   3.198   2.601   1.895
 3805SOL    HW211976   3.186   2.727   1.810
 3806SOL     OW11977   2.919   3.210   2.704
 3806SOL    HW111978   2.930   3.131   2.651
 3806SOL    HW211979   2.989   3.269   2.676
 3807SOL     OW11980   2.167   2.674   2.799
 3807SOL    HW111981   2.254   2.706   2.821
 3807SOL    HW211982   2.162   2.588   2.839
 3808SOL     OW11983   2.169   2.393   2.863
 3808SOL    HW111984   2.145   2.300   2.861
 3808SOL    HW211985   2.254   2.397   2.821
 3809SOL     OW11986   1.867   3.184   2.057
 3809SOL    HW111987   1.780   3.197   2.019
 3809SOL    HW211988   1.865   3.094   2.090
 3810SOL     OW11989   1.952   3.651   2.799
 3810SOL    HW111990   1.922   3.571   2.756
 3810SOL    HW211991   2.042   3.661   2.769
 3811SOL     OW11992   2.360   3.435   2.766
 3811SOL    HW111993   2.429   3.495   2.794
 3811SOL    HW211994   2.406   3.369   2.714
 3812SOL     OW11995   1.900   2.407   2.978
 3812SOL    HW111996   1.981   2.401   2.927
 3812SOL    HW211997   1.929   2.405   3.069
 3813SOL     OW11998   2.707   2.333   2.231
 3813SOL    HW111999   2.706   2.290   2.145
 3813SOL    HW212000   2.636   2.397   2.227
 3814SOL     OW12001   3.505   2.462   3.045
 3814SOL    HW112002   3.494   2.409   3.123
 3814SOL    HW212003   3.592   2.442   3.012
 3815SOL     OW12004   2.091   3.425   3.579
 3815SOL    HW112005   2.071   3.500   3.634
 3815SOL    HW212006   2.109   3.354   3.641
 3816SOL     OW12007   2.806   3.532   3.318
 3816SOL    HW112008   2.765   3.505   3.236
 3816SOL    HW212009   2.790   3.626   3.322
 3817SOL     OW12010   2.331   2.365   2.057
 3817SOL    HW112011   2.379   2.446   2.071
 3817SOL    HW212012   2.240   2.393   2.043
 3818SOL     OW12013   3.176   2.709   2.165
 3818SOL    HW112014   3.093   2.726   2.209
 3818SOL    HW212015   3.153   2.704   2.072
 3819SOL     OW12016   3.633   3.607   3.012
 3819SOL    HW112017   3.693   3.633   2.942
 3819SOL    HW212018   3.609   3.517   2.990
 3820SOL     OW12019   3.105   3.596   2.977
 3820SOL    HW112020   3.186   3.617   2.931
 3820SOL    HW212021   3.109   3.502   2.992
 3821SOL     OW12022   1.945   3.123   2.877
 3821SOL    HW112023   1.930   3.139   2.970
 3821SOL    HW212024   1.869   3.072   2.849
 3822SOL     OW12025   2.560   3.544   3.580
 3822SOL    HW112026   2.496   3.615   3.577
 3822SOL    HW212027   2.595   3.539   3.491
 3823SOL     OW12028   3.581   2.007   2.372
 3823SOL    HW112029   3.654   1.993   2.312
 3823SOL    HW212030   3.565   1.922   2.412
 3824SOL     OW12031   3.252   3.429   2.345
 3824SOL    HW112032   3.313   3.462   2.279
 3824SOL    HW212033   3.204   3.507   2.374
 3825SOL     OW12034   1.999   3.657   3.705
 3825SOL    HW112035   1.947   3.593   3.755
 3825SOL    HW212036   2.045   3.707   3.772
 3826SOL     OW12037   3.131   2.786   2.531
 3826SOL    HW112038   3.205   2.724   2.540
 3826SOL    HW212039   3.167   2.859   2.481
 3827SOL     OW12040   2.533   3.481   2.017
 3827SOL    HW112041   2.543   3.493   1.922
 3827SOL    HW212042   2.479   3.403   2.026
 3828SOL     OW12043   3.488   3.588   3.252
 3828SOL    HW112044   3.539   3.595   3.171
 3828SOL    HW212045   3.475   3.678   3.280
 3829SOL     OW12046   3.703   2.035   2.829
 3829SOL    HW112047   3.732   1.948   2.802
 3829SOL    HW212048   3.617   2.045   2.788
 3830SOL     OW12049   2.124   2.179   2.582
 3830SOL    HW112050   2.039   2.214   2.557
 3830SOL    HW212051   2.120   2.171   2.677
 3831SOL     OW12052   3.069   3.469   1.893
 3831SOL    HW112053   3.059   3.377   1.920
 3831SOL    HW212054   3.004   3.480   1.824
 3832SOL     OW12055   3.355   3.486   1.904
 3832SOL    HW112056   3.260   3.481   1.891
 3832SOL    HW212057   3.391   3.493   1.816
 3833SOL     OW12058   3.469   3.141   3.142
 3833SOL    HW112059   3.535   3.134   3.211
 3833SOL    HW212060   3.413   3.214   3.169
 3834SOL     OW12061   2.916   2.969   2.569
 3834SOL    HW112062   2.837   2.921   2.594
 3834SOL    HW212063   2.979   2.902   2.544
 3835SOL     OW12064   2.892   2.100   2.820
 3835SOL    HW112065   2.885   2.048   2.740
 3835SOL    HW212066   2.879   2.037   2.891
 3836SOL     OW12067   2.463   3.352   2.343
 3836SOL    HW112068   2.507   3.306   2.272
 3836SOL    HW212069   2.393   3.403   2.300
 3837SOL     OW12070   3.583   2.254   3.242
 3837SOL    HW112071   3.655   2.317   3.240
 3837SOL    HW212072   3.612   2.183   3.186
 3838SOL     OW12073   2.121   3.207   2.150
 3838SOL    HW112074   2.028   3.205   2.127
 3838SOL    HW212075   2.123   3.245   2.238
 3839SOL     OW12076   1.940   2.196   1.898
 3839SOL    HW112077   1.852   2.176   1.865
 3839SOL    HW212078   1.968   2.272   1.846
 3840SOL     OW12079   3.325   2.685   3.226
 3840SOL    HW112080   3.258   2.754   3.231
 3840SOL    HW212081   3.405   2.732   3.201
 3841SOL     OW12082   1.932   2.018   2.173
 3841SOL    HW112083   1.917   2.098   2.122
 3841SOL    HW212084   2.016   1.986   2.143
 3842SOL     OW12085   3.042   3.202   1.979
 3842SOL    HW112086   2.951   3.172   1.981
 3842SOL    HW212087   3.069   3.202   2.071
 3843SOL     OW12088   3.346   3.637   2.840
 3843SOL    HW112089   3.369   3.696   2.768
 3843SOL    HW212090   3.429   3.621   2.884
 3844SOL     OW12091   3.326   3.125   3.479
 3844SOL    HW112092   3.312   3.091   3.567
 3844SOL    HW212093   3.418   3.104   3.460
 3845SOL     OW12094   2.244   3.608   3.423
 3845SOL    HW112095   2.158   3.648   3.410
 3845SOL    HW212096   2.224   3.519   3.454
 3846SOL     OW12097   3.563   2.750   3.112
 3846SOL    HW112098   3.537   2.665   3.077
 3846SOL    HW212099   3.542   2.812   3.041
 3847SOL     OW12100   3.081   2.181   2.319
 3847SOL    HW112101   3.143   2.109   2.310
 3847SOL    HW212102   3.109   2.228   2.397
 3848SOL     OW12103   3.621   2.226   3.512
 3848SOL    HW112104   3.605   2.239   3.419
 3848SOL    HW212105   3.551   2.168   3.541
 3849SOL     OW12106   3.627   2.795   3.381
 3849SOL    HW112107   3.603   2.888   3.391
 3849SOL    HW212108   3.605   2.774   3.290
 3850SOL     OW12109   2.730   3.233   1.895
 3850SOL    HW112110   2.689   3.263   1.976
 3850SOL    HW212111   2.747   3.314   1.846
 3851SOL     OW12112   2.522   3.656   2.810
 3851SOL    HW112113   2.503   3.746   2.784
 3851SOL    HW212114   2.617   3.647   2.800
 3852SOL     OW12115   2.956   2.861   1.953
 3852SOL    HW112116   2.923   2.903   1.873
 3852SOL    HW212117   3.024   2.801   1.923
 3853SOL     OW12118   3.717   3.417   2.707
 3853SOL    HW112119   3.639   3.406   2.652
 3853SOL    HW212120   3.709   3.349   2.773
 3854SOL     OW12121   1.945   3.095   2.527
 3854SOL    HW112122   1.951   3.047   2.610
 3854SOL    HW212123   2.015   3.059   2.473
 3855SOL     OW12124   3.676   2.047   3.100
 3855SOL    HW112125   3.685   1.953   3.115
 3855SOL    HW212126   3.685   2.057   3.005
 3856SOL     OW12127   2.303   2.294   2.400
 3856SOL    HW112128   2.324   2.227   2.334
 3856SOL    HW212129   2.244   2.250   2.460
 3857SOL     OW12130   3.562   3.353   2.961
 3857SOL    HW112131   3.482   3.327   2.915
 3857SOL    HW212132   3.577   3.281   3.023
 3858SOL     OW12133   2.688   3.443   2.538
 3858SOL    HW112134   2.670   3.488   2.456
 3858SOL    HW212135   2.615   3.382   2.550
 3859SOL     OW12136   3.302   2.076   2.974
 3859SOL    HW112137   3.332   1.997   3.018
 3859SOL    HW212138   3.249   2.121   3.039
 3860SOL     OW12139   2.872   1.883   3.001
 3860SOL    HW112140   2.816   1.816   2.962
 3860SOL    HW212141   2.960   1.844   3.001
 3861SOL     OW12142   2.635   3.204   2.174
 3861SOL    HW112143   2.606   3.113   2.169
 3861SOL    HW212144   2.717   3.200   2.224
 3862SOL     OW12145   2.480   3.428   3.156
 3862SOL    HW112146   2.491   3.512   3.200
 3862SOL    HW212147   2.562   3.413   3.111
 3863SOL     OW12148   3.214   1.916   2.027
 3863SOL    HW112149   3.242   1.853   1.960
 3863SOL    HW212150   3.127   1.885   2.053
 3864SOL     OW12151   3.164   2.315   2.545
 3864SOL    HW112152   3.115   2.397   2.552
 3864SOL    HW212153   3.160   2.277   2.632
 3865SOL     OW12154   3.450   2.064   2.736
 3865SOL    HW112155   3.391   2.082   2.809
 3865SOL    HW212156   3.449   2.144   2.683
 3866SOL     OW12157   1.906   2.933   2.167
 3866SOL    HW112158   1.999   2.924   2.148
 3866SOL    HW212159   1.877   2.845   2.191
 3867SOL     OW12160   2.746   3.514   2.205
 3867SOL    HW112161   2.674   3.497   2.144
 3867SOL    HW212162   2.717   3.589   2.256
 3868SOL     OW12163   2.094   2.078   4.704
 3868SOL    HW112164   2.122   2.099   4.793
 3868SOL    HW212165   1.999   2.087   4.706
 3869SOL     OW12166   1.855   2.222   4.364
 3869SOL    HW112167   1.775   2.257   4.404
 3869SOL    HW212168   1.827   2.142   4.320
 3870SOL     OW12169   2.401   3.179   4.960
 3870SOL    HW112170   2.353   3.183   4.877
 3870SOL    HW212171   2.441   3.266   4.969
 3871SOL     OW12172   3.430   3.377   4.433
 3871SOL    HW112173   3.379   3.358   4.512
 3871SOL    HW212174   3.364   3.388   4.364
 3872SOL     OW12175   3.625   2.465   3.956
 3872SOL    HW112176   3.606   2.457   3.862
 3872SOL    HW212177   3.587   2.386   3.994
 3873SOL     OW12178   2.572   3.024   5.542
 3873SOL    HW112179   2.622   3.105   5.554
 3873SOL    HW212180   2.492   3.053   5.497
 3874SOL     OW12181   2.193   3.281   4.788
 3874SOL    HW112182   2.113   3.251   4.744
 3874SOL    HW212183   2.229   3.347   4.729
 3875SOL     OW12184   3.321   3.363   5.076
 3875SOL    HW112185   3.374   3.442   5.081
 3875SOL    HW212186   3.263   3.368   5.152
 3876SOL     OW12187   2.317   2.258   5.261
 3876SOL    HW112188   2.385   2.194   5.241
 3876SOL    HW212189   2.236   2.216   5.233
 3877SOL     OW12190   3.496   2.308   4.469
 3877SOL    HW112191   3.419   2.332   4.417
 3877SOL    HW212192   3.486   2.356   4.551
 3878SOL     OW12193   2.077   3.584   4.198
 3878SOL    HW112194   2.104   3.661   4.248
 3878SOL    HW212195   2.149   3.568   4.136
 3879SOL     OW12196   3.000   3.202   5.414
 3879SOL    HW112197   3.038   3.202   5.502
 3879SOL    HW212198   2.946   3.123   5.412
 3880SOL     OW12199   2.055   3.318   4.258
 3880SOL    HW112200   2.044   3.413   4.264
 3880SOL    HW212201   1.995   3.283   4.324
 3881SOL     OW12202   2.475   3.656   5.158
 3881SOL    HW112203   2.392   3.637   5.202
 3881SOL    HW212204   2.496   3.746   5.182
 3882SOL     OW12205   2.506   2.879   3.836
 3882SOL    HW112206   2.464   2.950   3.787
 3882SOL    HW212207   2.504   2.908   3.927
 3883SOL     OW12208   3.455   1.985   5.191
 3883SOL    HW112209   3.469   2.064   5.140
 3883SOL    HW212210   3.444   2.017   5.281
 3884SOL     OW12211   3.706   3.622   4.058
 3884SOL    HW112212   3.768   3.593   4.126
 3884SOL    HW212213   3.731   3.713   4.040
 3885SOL     OW12214   1.891   3.458   3.848
 3885SOL    HW112215   1.876   3.366   3.867
 3885SOL    HW212216   1.868   3.504   3.929
 3886SOL     OW12217   3.581   2.806   4.365
 3886SOL    HW112218   3.645   2.747   4.325
 3886SOL    HW212219   3.537   2.847   4.291
 3887SOL     OW12220   3.509   2.968   4.152
 3887SOL    HW112221   3.595   2.983   4.113
 3887SOL    HW212222   3.504   3.030   4.225
 3888SOL     OW12223   1.980   2.599   5.317
 3888SOL    HW112224   2.072   2.626   5.323
 3888SOL    HW212225   1.931   2.681   5.310
 3889SOL     OW12226   3.152   3.079   5.141
 3889SOL    HW112227   3.214   3.038   5.082
 3889SOL    HW212228   3.200   3.090   5.223
 3890SOL     OW12229   2.655   1.844   4.214
 3890SOL    HW112230   2.724   1.909   4.211
 3890SOL    HW212231   2.585   1.884   4.266
 3891SOL     OW12232   2.045   2.812   5.003
 3891SOL    HW112233   2.130   2.812   4.959
 3891SOL    HW212234   1.985   2.772   4.940
 3892SOL     OW12235   3.048   3.669   5.346
 3892SOL    HW112236   3.059   3.728   5.271
 3892SOL    HW212237   3.065   3.582   5.311
 3893SOL     OW12238   2.191   2.107   5.538
 3893SOL    HW112239   2.236   2.191   5.533
 3893SOL    HW212240   2.104   2.127   5.570
 3894SOL     OW12241   3.323   3.276   4.672
 3894SOL    HW112242   3.256   3.290   4.740
 3894SOL    HW212243   3.308   3.186   4.643
 3895SOL     OW12244   3.525   3.602   4.301
 3895SOL    HW112245   3.501   3.573   4.213
 3895SOL    HW212246   3.501   3.530   4.359
 3896SOL     OW12247   3.447   3.538   4.026
 3896SOL    HW112248   3.538   3.569   4.024
 3896SOL    HW212249   3.427   3.518   3.934
 3897SOL     OW12250   3.257   2.333   5.403
 3897SOL    HW112251   3.258   2.379   5.487
 3897SOL    HW212252   3.318   2.260   5.414
 3898SOL     OW12253   2.940   2.531   4.132
 3898SOL    HW112254   2.956   2.571   4.217
 3898SOL    HW212255   2.846   2.514   4.131
 3899SOL     OW12256   1.989   3.707   5.301
 3899SOL    HW112257   1.989   3.687   5.394
 3899SOL    HW212258   1.897   3.703   5.275
 3900SOL     OW12259   3.570   2.437   5.552
 3900SOL    HW112260   3.532   2.510   5.503
 3900SOL    HW212261   3.598   2.375   5.484
 3901SOL     OW12262   2.213   3.676   4.584
 3901SOL    HW112263   2.258   3.593   4.598
 3901SOL    HW212264   2.280   3.742   4.601
 3902SOL     OW12265   3.667   2.929   4.594
 3902SOL    HW112266   3.623   2.899   4.515
 3902SOL    HW212267   3.599   2.928   4.661
 3903SOL     OW12268   3.096   3.402   5.241
 3903SOL    HW112269   3.078   3.333   5.305
 3903SOL    HW212270   3.031   3.388   5.172
 3904SOL     OW12271   2.327   3.124   5.463
 3904SOL    HW112272   2.298   3.133   5.373
 3904SOL    HW212273   2.247   3.122   5.515
 3905SOL     OW12274   2.992   3.624   3.943
 3905SOL    HW112275   2.922   3.602   4.005
 3905SOL    HW212276   2.960   3.592   3.859
 3906SOL     OW12277   2.062   2.149   5.231
 3906SOL    HW112278   1.972   2.181   5.235
 3906SOL    HW212279   2.063   2.072   5.289
 3907SOL     OW12280   3.487   3.231   3.806
 3907SOL    HW112281   3.457   3.321   3.793
 3907SOL    HW212282   3.407   3.180   3.815
 3908SOL     OW12283   2.321   3.608   4.043
 3908SOL    HW112284   2.362   3.660   4.113
 3908SOL    HW212285   2.395   3.580   3.988
 3909SOL     OW12286   3.271   1.959   4.163
 3909SOL    HW112287   3.262   1.929   4.073
 3909SOL    HW212288   3.364   1.978   4.174
 3910SOL     OW12289   2.119   3.655   4.956
 3910SOL    HW112290   2.166   3.586   5.003
 3910SOL    HW212291   2.103   3.619   4.869
 3911SOL     OW12292   2.808   3.544   4.620
 3911SOL    HW112293   2.900   3.517   4.624
 3911SOL    HW212294   2.771   3.497   4.546
 3912SOL     OW12295   3.398   2.087   5.450
 3912SOL    HW112296   3.406   2.108   5.543
 3912SOL    HW212297   3.332   2.018   5.447
 3913SOL     OW12298   2.626   2.123   5.473
 3913SOL    HW112299   2.704   2.069   5.484
 3913SOL    HW212300   2.596   2.141   5.562
 3914SOL     OW12301   2.752   3.412   4.940
 3914SOL    HW112302   2.740   3.386   4.848
 3914SOL    HW212303   2.820   3.353   4.972
 3915SOL     OW12304   3.210   2.442   5.158
 3915SOL    HW112305   3.232   2.402   5.241
 3915SOL    HW212306   3.267   2.519   5.152
 3916SOL     OW12307   2.957   2.525   5.190
 3916SOL    HW112308   2.899   2.451   5.177
 3916SOL    HW212309   3.044   2.492   5.167
 3917SOL     OW12310   3.075   3.468   4.546
 3917SOL    HW112311   3.098   3.514   4.465
 3917SOL    HW212312   3.158   3.463   4.595
 3918SOL     OW12313   3.127   3.663   4.332
 3918SOL    HW112314   3.175   3.723   4.275
 3918SOL    HW212315   3.064   3.718   4.377
 3919SOL     OW12316   3.387   2.409   4.696
 3919SOL    HW112317   3.294   2.397   4.718
 3919SOL    HW212318   3.427   2.442   4.777
 3920SOL     OW12319   3.715   2.679   4.105
 3920SOL    HW112320   3.769   2.626   4.163
 3920SOL    HW212321   3.674   2.615   4.046
 3921SOL     OW12322   3.531   3.129   4.373
 3921SOL    HW112323   3.626   3.131   4.383
 3921SOL    HW212324   3.503   3.219   4.391
 3922SOL     OW12325   3.615   3.102   5.300
 3922SOL    HW112326   3.702   3.063   5.295
 3922SOL    HW212327   3.631   3.193   5.328
 3923SOL     OW12328   2.942   3.237   5.068
 3923SOL    HW112329   2.868   3.211   5.124
 3923SOL    HW212330   3.014   3.180   5.096
 3924SOL     OW12331   3.468   3.485   5.376
 3924SOL    HW112332   3.464   3.521   5.287
 3924SOL    HW212333   3.552   3.440   5.380
 3925SOL     OW12334   3.492   2.959   4.805
 3925SOL    HW112335   3.492   3.022   4.877
 3925SOL    HW212336   3.400   2.952   4.780
 3926SOL     OW12337   2.777   1.961   5.127
 3926SOL    HW112338   2.799   1.936   5.037
 3926SOL    HW212339   2.860   1.994   5.163
 3927SOL     OW12340   2.848   2.975   5.437
 3927SOL    HW112341   2.759   2.991   5.468
 3927SOL    HW212342   2.839   2.904   5.374
 3928SOL     OW12343   2.569   2.971   4.078
 3928SOL    HW112344   2.537   2.960   4.167
 3928SOL    HW212345   2.617   2.891   4.059
 3929SOL     OW12346   1.931   3.433   5.075
 3929SOL    HW112347   1.902   3.508   5.023
 3929SOL    HW212348   2.026   3.437   5.071
 3930SOL     OW12349   3.140   3.310   4.872
 3930SOL    HW112350   3.201   3.323   4.945
 3930SOL    HW212351   3.067   3.261   4.909
 3931SOL     OW12352   2.206   3.394   5.036
 3931SOL    HW112353   2.197   3.340   4.957
 3931SOL    HW212354   2.300   3.404   5.048
 3932SOL     OW12355   2.263   2.604   5.334
 3932SOL    HW112356   2.320   2.649   5.271
 3932SOL    HW212357   2.291   2.513   5.331
 3933SOL     OW12358   3.457   2.637   5.403
 3933SOL    HW112359   3.373   2.683   5.400
 3933SOL    HW212360   3.511   2.681   5.338
 3934SOL     OW12361   2.862   1.982   5.487
 3934SOL    HW112362   2.913   2.054   5.449
 3934SOL    HW212363   2.908   1.903   5.460
 3935SOL     OW12364   2.359   1.899   5.473
 3935SOL    HW112365   2.318   1.848   5.403
 3935SOL    HW212366   2.300   1.974   5.486
 3936SOL     OW12367   2.154   2.066   4.972
 3936SOL    HW112368   2.128   2.095   5.060
 3936SOL    HW212369   2.142   1.971   4.974
 3937SOL     OW12370   1.912   3.170   4.997
 3937SOL    HW112371   1.942   3.116   5.070
 3937SOL    HW212372   1.916   3.260   5.030
 3938SOL     OW12373   3.596   2.821   5.576
 3938SOL    HW112374   3.549   2.762   5.516
 3938SOL    HW212375   3.537   2.833   5.650
 3939SOL     OW12376   3.485   2.239   4.094
 3939SOL    HW112377   3.515   2.167   4.149
 3939SOL    HW212378   3.426   2.290   4.150
 3940SOL     OW12379   2.847   3.430   5.440
 3940SOL    HW112380   2.829   3.474   5.358
 3940SOL    HW212381   2.884   3.346   5.415
 3941SOL     OW12382   3.717   3.369   5.329
 3941SOL    HW112383   3.736   3.395   5.238
 3941SOL    HW212384   3.798   3.388   5.376
 3942SOL     OW12385   2.209   2.782   5.537
 3942SOL    HW112386   2.291   2.808   5.579
 3942SOL    HW212387   2.236   2.716   5.473
 3943SOL     OW12388   3.408   2.123   3.853
 3943SOL    HW112389   3.349   2.057   3.890
 3943SOL    HW212390   3.435   2.176   3.927
 3944SOL     OW12391   2.998   2.241   5.402
 3944SOL    HW112392   2.953   2.292   5.468
 3944SOL    HW212393   3.086   2.277   5.399
 3945SOL     OW12394   3.022   2.060   5.205
 3945SOL    HW112395   3.012   2.122   5.278
 3945SOL    HW212396   3.058   2.113   5.134
 3946SOL     OW12397   1.848   3.194   3.918
 3946SOL    HW112398   1.764   3.206   3.875
 3946SOL    HW212399   1.848   3.103   3.947
 3947SOL     OW12400   1.951   3.649   4.663
 3947SOL    HW112401   1.921   3.569   4.619
 3947SOL    HW212402   2.040   3.663   4.630
 3948SOL     OW12403   2.358   3.453   4.647
 3948SOL    HW112404   2.419   3.522   4.672
 3948SOL    HW212405   2.412   3.386   4.608
 3949SOL     OW12406   2.055   2.377   5.449
 3949SOL    HW112407   2.108   2.336   5.381
 3949SOL    HW212408   2.013   2.451   5.405
 3950SOL     OW12409   3.241   2.803   5.378
 3950SOL    HW112410   3.269   2.894   5.388
 3950SOL    HW212411   3.203   2.799   5.291
 3951SOL     OW12412   3.511   2.476   4.931
 3951SOL    HW112413   3.496   2.406   4.994
 3951SOL    HW212414   3.593   2.452   4.888
 3952SOL     OW12415   2.106   3.414   5.453
 3952SOL    HW112416   2.082   3.477   5.522
 3952SOL    HW212417   2.108   3.329   5.497
 3953SOL     OW12418   2.794   3.542   5.192
 3953SOL    HW112419   2.766   3.510   5.106
 3953SOL    HW212420   2.789   3.638   5.185
 3954SOL     OW12421   2.007   2.998   5.195
 3954SOL    HW112422   2.010   2.952   5.279
 3954SOL    HW212423   2.021   2.930   5.129
 3955SOL     OW12424   3.632   3.609   4.873
 3955SOL    HW112425   3.693   3.634   4.804
 3955SOL    HW212426   3.609   3.518   4.852
 3956SOL     OW12427   3.104   3.594   4.842
 3956SOL    HW112428   3.184   3.617   4.794
 3956SOL    HW212429   3.109   3.499   4.854
 3957SOL     OW12430   1.949   3.143   4.726
 3957SOL    HW112431   1.936   3.145   4.821
 3957SOL    HW212432   1.900   3.067   4.697
 3958SOL     OW12433   2.539   3.528   5.453
 3958SOL    HW112434   2.486   3.608   5.448
 3958SOL    HW212435   2.602   3.537   5.382
 3959SOL     OW12436   3.578   2.008   4.231
 3959SOL    HW112437   3.653   1.993   4.173
 3959SOL    HW212438   3.563   1.923   4.273
 3960SOL     OW12439   3.275   3.451   4.218
 3960SOL    HW112440   3.322   3.476   4.139
 3960SOL    HW212441   3.214   3.523   4.234
 3961SOL     OW12442   1.997   3.660   5.567
 3961SOL    HW112443   1.947   3.594   5.615
 3961SOL    HW212444   2.046   3.707   5.635
 3962SOL     OW12445   3.489   3.588   5.113
 3962SOL    HW112446   3.540   3.596   5.033
 3962SOL    HW212447   3.475   3.678   5.143
 3963SOL     OW12448   3.701   2.035   4.691
 3963SOL    HW112449   3.731   1.948   4.664
 3963SOL    HW212450   3.614   2.043   4.650
 3964SOL     OW12451   3.365   3.481   3.763
 3964SOL    HW112452   3.271   3.486   3.746
 3964SOL    HW212453   3.405   3.490   3.676
 3965SOL     OW12454   2.221   3.170   5.226
 3965SOL    HW112455   2.226   3.234   5.155
 3965SOL    HW212456   2.149   3.112   5.202
 3966SOL     OW12457   3.461   3.137   5.010
 3966SOL    HW112458   3.535   3.135   5.070
 3966SOL    HW212459   3.412   3.216   5.035
 3967SOL     OW12460   3.584   2.252   5.106
 3967SOL    HW112461   3.655   2.316   5.104
 3967SOL    HW212462   3.613   2.182   5.048
 3968SOL     OW12463   2.092   3.207   4.021
 3968SOL    HW112464   2.004   3.214   3.984
 3968SOL    HW212465   2.085   3.248   4.108
 3969SOL     OW12466   1.973   2.888   5.445
 3969SOL    HW112467   1.897   2.862   5.496
 3969SOL    HW212468   2.047   2.848   5.490
 3970SOL     OW12469   2.531   2.043   5.235
 3970SOL    HW112470   2.615   2.026   5.192
 3970SOL    HW212471   2.556   2.073   5.323
 3971SOL     OW12472   1.916   2.185   3.783
 3971SOL    HW112473   1.850   2.189   3.714
 3971SOL    HW212474   1.980   2.251   3.759
 3972SOL     OW12475   1.929   2.018   4.030
 3972SOL    HW112476   1.902   2.089   3.971
 3972SOL    HW212477   2.025   2.022   4.029
 3973SOL     OW12478   3.346   3.634   4.701
 3973SOL    HW112479   3.368   3.694   4.630
 3973SOL    HW212480   3.429   3.620   4.747
 3974SOL     OW12481   3.332   3.065   5.354
 3974SOL    HW112482   3.320   3.080   5.448
 3974SOL    HW212483   3.425   3.079   5.339
 3975SOL     OW12484   2.242   3.601   5.288
 3975SOL    HW112485   2.157   3.642   5.274
 3975SOL    HW212486   2.222   3.517   5.330
 3976SOL     OW12487   3.600   2.744   4.974
 3976SOL    HW112488   3.564   2.658   4.951
 3976SOL    HW212489   3.569   2.802   4.904
 3977SOL     OW12490   3.625   2.224   5.376
 3977SOL    HW112491   3.609   2.237   5.282
 3977SOL    HW212492   3.553   2.167   5.404
 3978SOL     OW12493   3.591   2.798   5.238
 3978SOL    HW112494   3.607   2.892   5.249
 3978SOL    HW212495   3.601   2.782   5.145
 3979SOL     OW12496   2.528   3.659   4.668
 3979SOL    HW112497   2.501   3.748   4.646
 3979SOL    HW212498   2.623   3.661   4.665
 3980SOL     OW12499   3.716   3.419   4.569
 3980SOL    HW112500   3.640   3.404   4.512
 3980SOL    HW212501   3.714   3.346   4.631
 3981SOL     OW12502   2.087   3.166   5.580
 3981SOL    HW112503   2.021   3.103   5.550
 3981SOL    HW212504   2.068   3.177   5.673
 3982SOL     OW12505   1.928   3.118   4.390
 3982SOL    HW112506   1.934   3.070   4.472
 3982SOL    HW212507   2.005   3.092   4.341
 3983SOL     OW12508   2.550   3.265   5.351
 3983SOL    HW112509   2.468   3.218   5.366
 3983SOL    HW212510   2.535   3.352   5.387
 3984SOL     OW12511   3.675   2.045   4.962
 3984SOL    HW112512   3.686   1.951   4.975
 3984SOL    HW212513   3.682   2.058   4.868
 3985SOL     OW12514   3.560   3.354   4.826
 3985SOL    HW112515   3.482   3.324   4.779
 3985SOL    HW212516   3.582   3.282   4.885
 3986SOL     OW12517   3.315   2.093   4.835
 3986SOL    HW112518   3.317   2.010   4.883
 3986SOL    HW212519   3.236   2.137   4.866
 3987SOL     OW12520   2.871   1.868   4.887
 3987SOL    HW112521   2.820   1.824   4.819
 3987SOL    HW212522   2.959   1.833   4.877
 3988SOL     OW12523   2.484   3.437   5.000
 3988SOL    HW112524   2.482   3.515   5.055
 3988SOL    HW212525   2.576   3.424   4.980
 3989SOL     OW12526   3.241   1.869   3.911
 3989SOL    HW112527   3.264   1.823   3.830
 3989SOL    HW212528   3.152   1.840   3.931
 3990SOL     OW12529   3.446   2.061   4.598
 3990SOL    HW112530   3.396   2.084   4.676
 3990SOL    HW212531   3.456   2.143   4.550
 3991SOL     OW12532   1.883   2.942   4.033
 3991SOL    HW112533   1.975   2.961   4.013
 3991SOL    HW212534   1.870   2.851   4.006
 3992SOL     OW12535   2.749   3.537   4.046
 3992SOL    HW112536   2.678   3.476   4.029
 3992SOL    HW212537   2.720   3.587   4.123
 3993SOL     OW12538   2.094   2.481   5.707
 3993SOL    HW112539   2.006   2.486   5.742
 3993SOL    HW212540   2.082   2.457   5.615
 3994SOL     OW12541   2.087   2.141   6.577
 3994SOL    HW112542   2.115   2.107   6.662
 3994SOL    HW212543   1.997   2.110   6.567
 3995SOL     OW12544   1.867   2.243   6.225
 3995SOL    HW112545   1.784   2.269   6.266
 3995SOL    HW212546   1.845   2.164   6.175
 3996SOL     OW12547   2.427   3.148   6.761
 3996SOL    HW112548   2.340   3.154   6.721
 3996SOL    HW212549   2.443   3.235   6.796
 3997SOL     OW12550   3.421   3.373   6.292
 3997SOL    HW112551   3.379   3.355   6.376
 3997SOL    HW212552   3.349   3.379   6.230
 3998SOL     OW12553   3.016   2.541   6.305
 3998SOL    HW112554   3.045   2.630   6.288
 3998SOL    HW212555   2.940   2.551   6.363
 3999SOL     OW12556   3.627   2.468   5.815
 3999SOL    HW112557   3.607   2.459   5.722
 3999SOL    HW212558   3.593   2.388   5.855
 4000SOL     OW12559   2.637   3.025   6.629
 4000SOL    HW112560   2.557   3.040   6.679
 4000SOL    HW212561   2.653   3.108   6.584
 4001SOL     OW12562   2.573   3.016   7.395
 4001SOL    HW112563   2.621   3.095   7.420
 4001SOL    HW212564   2.491   3.048   7.359
 4002SOL     OW12565   2.191   3.291   6.654
 4002SOL    HW112566   2.120   3.252   6.602
 4002SOL    HW212567   2.243   3.340   6.590
 4003SOL     OW12568   3.323   3.360   6.940
 4003SOL    HW112569   3.371   3.443   6.950
 4003SOL    HW212570   3.261   3.360   7.013
 4004SOL     OW12571   2.311   2.265   7.088
 4004SOL    HW112572   2.387   2.208   7.081
 4004SOL    HW212573   2.236   2.205   7.094
 4005SOL     OW12574   3.475   2.310   6.325
 4005SOL    HW112575   3.397   2.333   6.274
 4005SOL    HW212576   3.489   2.387   6.381
 4006SOL     OW12577   2.081   3.576   6.059
 4006SOL    HW112578   2.103   3.652   6.112
 4006SOL    HW212579   2.154   3.569   5.997
 4007SOL     OW12580   2.997   3.201   7.278
 4007SOL    HW112581   3.035   3.199   7.365
 4007SOL    HW212582   2.946   3.121   7.271
 4008SOL     OW12583   2.091   3.303   6.120
 4008SOL    HW112584   2.074   3.397   6.125
 4008SOL    HW212585   2.031   3.265   6.185
 4009SOL     OW12586   2.113   2.951   6.473
 4009SOL    HW112587   2.112   2.867   6.518
 4009SOL    HW212588   2.060   3.009   6.528
 4010SOL     OW12589   2.474   3.655   7.015
 4010SOL    HW112590   2.393   3.636   7.062
 4010SOL    HW212591   2.497   3.744   7.041
 4011SOL     OW12592   2.430   2.864   5.711
 4011SOL    HW112593   2.478   2.920   5.649
 4011SOL    HW212594   2.488   2.858   5.787
 4012SOL     OW12595   3.458   1.985   7.054
 4012SOL    HW112596   3.462   2.065   7.003
 4012SOL    HW212597   3.445   2.014   7.145
 4013SOL     OW12598   1.977   2.512   6.147
 4013SOL    HW112599   1.944   2.425   6.168
 4013SOL    HW212600   1.968   2.562   6.228
 4014SOL     OW12601   3.704   3.621   5.922
 4014SOL    HW112602   3.767   3.593   5.988
 4014SOL    HW212603   3.729   3.712   5.902
 4015SOL     OW12604   1.893   3.458   5.710
 4015SOL    HW112605   1.876   3.366   5.730
 4015SOL    HW212606   1.869   3.504   5.790
 4016SOL     OW12607   3.551   2.780   6.225
 4016SOL    HW112608   3.636   2.740   6.207
 4016SOL    HW212609   3.531   2.830   6.146
 4017SOL     OW12610   3.508   2.970   6.015
 4017SOL    HW112611   3.594   2.975   5.973
 4017SOL    HW212612   3.513   3.031   6.088
 4018SOL     OW12613   1.976   2.603   7.173
 4018SOL    HW112614   2.068   2.624   7.184
 4018SOL    HW212615   1.930   2.687   7.181
 4019SOL     OW12616   2.478   3.246   6.321
 4019SOL    HW112617   2.434   3.162   6.332
 4019SOL    HW212618   2.458   3.272   6.231
 4020SOL     OW12619   3.152   3.099   7.011
 4020SOL    HW112620   3.185   3.033   6.951
 4020SOL    HW212621   3.209   3.093   7.087
 4021SOL     OW12622   2.674   1.857   6.095
 4021SOL    HW112623   2.718   1.939   6.074
 4021SOL    HW212624   2.582   1.880   6.103
 4022SOL     OW12625   2.045   2.834   6.854
 4022SOL    HW112626   2.129   2.789   6.844
 4022SOL    HW212627   1.982   2.777   6.811
 4023SOL     OW12628   3.393   2.856   5.783
 4023SOL    HW112629   3.327   2.795   5.816
 4023SOL    HW212630   3.435   2.891   5.862
 4024SOL     OW12631   3.048   3.668   7.207
 4024SOL    HW112632   3.059   3.725   7.131
 4024SOL    HW212633   3.062   3.580   7.173
 4025SOL     OW12634   2.192   2.110   7.396
 4025SOL    HW112635   2.238   2.193   7.408
 4025SOL    HW212636   2.103   2.126   7.428
 4026SOL     OW12637   3.329   3.282   6.539
 4026SOL    HW112638   3.261   3.297   6.604
 4026SOL    HW212639   3.317   3.191   6.512
 4027SOL     OW12640   3.521   3.599   6.164
 4027SOL    HW112641   3.501   3.570   6.075
 4027SOL    HW212642   3.496   3.526   6.220
 4028SOL     OW12643   3.143   2.212   6.518
 4028SOL    HW112644   3.053   2.180   6.527
 4028SOL    HW212645   3.193   2.159   6.581
 4029SOL     OW12646   3.443   3.531   5.895
 4029SOL    HW112647   3.533   3.564   5.889
 4029SOL    HW212648   3.417   3.515   5.804
 4030SOL     OW12649   3.257   2.336   7.261
 4030SOL    HW112650   3.256   2.381   7.346
 4030SOL    HW212651   3.318   2.263   7.274
 4031SOL     OW12652   2.852   2.272   6.834
 4031SOL    HW112653   2.765   2.290   6.869
 4031SOL    HW212654   2.836   2.239   6.746
 4032SOL     OW12655   1.950   2.682   6.362
 4032SOL    HW112656   2.031   2.676   6.413
 4032SOL    HW212657   1.907   2.761   6.396
 4033SOL     OW12658   1.989   3.709   7.164
 4033SOL    HW112659   1.989   3.688   7.257
 4033SOL    HW212660   1.898   3.700   7.137
 4034SOL     OW12661   2.747   2.192   5.737
 4034SOL    HW112662   2.798   2.254   5.684
 4034SOL    HW212663   2.791   2.108   5.725
 4035SOL     OW12664   3.572   2.439   7.415
 4035SOL    HW112665   3.534   2.513   7.369
 4035SOL    HW212666   3.598   2.377   7.346
 4036SOL     OW12667   3.235   3.000   6.124
 4036SOL    HW112668   3.318   2.992   6.076
 4036SOL    HW212669   3.186   3.067   6.077
 4037SOL     OW12670   2.410   2.040   6.475
 4037SOL    HW112671   2.411   2.065   6.567
 4037SOL    HW212672   2.412   2.122   6.427
 4038SOL     OW12673   2.867   3.305   6.059
 4038SOL    HW112674   2.830   3.378   6.009
 4038SOL    HW212675   2.852   3.328   6.150
 4039SOL     OW12676   2.217   3.670   6.447
 4039SOL    HW112677   2.260   3.585   6.455
 4039SOL    HW212678   2.286   3.734   6.465
 4040SOL     OW12679   3.660   2.919   6.454
 4040SOL    HW112680   3.605   2.903   6.378
 4040SOL    HW212681   3.600   2.925   6.527
 4041SOL     OW12682   3.089   3.400   7.098
 4041SOL    HW112683   3.076   3.328   7.160
 4041SOL    HW212684   3.026   3.383   7.028
 4042SOL     OW12685   2.177   2.824   5.836
 4042SOL    HW112686   2.257   2.846   5.789
 4042SOL    HW212687   2.151   2.739   5.801
 4043SOL     OW12688   3.337   2.608   6.314
 4043SOL    HW112689   3.329   2.560   6.396
 4043SOL    HW212690   3.417   2.660   6.323
 4044SOL     OW12691   2.327   3.126   7.324
 4044SOL    HW112692   2.299   3.131   7.232
 4044SOL    HW212693   2.245   3.124   7.374
 4045SOL     OW12694   2.984   3.640   5.817
 4045SOL    HW112695   2.911   3.598   5.863
 4045SOL    HW212696   3.006   3.578   5.747
 4046SOL     OW12697   2.063   2.145   7.087
 4046SOL    HW112698   1.980   2.192   7.080
 4046SOL    HW212699   2.046   2.075   7.150
 4047SOL     OW12700   3.490   3.240   5.673
 4047SOL    HW112701   3.450   3.326   5.659
 4047SOL    HW212702   3.420   3.177   5.653
 4048SOL     OW12703   2.328   3.599   5.907
 4048SOL    HW112704   2.369   3.657   5.972
 4048SOL    HW212705   2.401   3.570   5.852
 4049SOL     OW12706   3.263   1.970   6.018
 4049SOL    HW112707   3.253   1.944   5.926
 4049SOL    HW212708   3.358   1.975   6.031
 4050SOL     OW12709   2.117   3.653   6.818
 4050SOL    HW112710   2.169   3.589   6.865
 4050SOL    HW212711   2.108   3.617   6.730
 4051SOL     OW12712   2.799   3.563   6.485
 4051SOL    HW112713   2.872   3.507   6.513
 4051SOL    HW212714   2.755   3.511   6.417
 4052SOL     OW12715   2.250   2.553   6.060
 4052SOL    HW112716   2.276   2.462   6.078
 4052SOL    HW212717   2.157   2.556   6.082
 4053SOL     OW12718   3.398   2.087   7.312
 4053SOL    HW112719   3.407   2.108   7.405
 4053SOL    HW212720   3.328   2.022   7.308
 4054SOL     OW12721   2.484   1.977   5.702
 4054SOL    HW112722   2.568   1.932   5.703
 4054SOL    HW212723   2.444   1.952   5.619
 4055SOL     OW12724   2.620   2.119   7.332
 4055SOL    HW112725   2.702   2.070   7.341
 4055SOL    HW212726   2.595   2.139   7.422
 4056SOL     OW12727   2.740   3.387   6.780
 4056SOL    HW112728   2.722   3.349   6.694
 4056SOL    HW212729   2.805   3.328   6.819
 4057SOL     OW12730   3.216   2.448   7.012
 4057SOL    HW112731   3.241   2.417   7.098
 4057SOL    HW212732   3.249   2.538   7.008
 4058SOL     OW12733   2.677   3.273   6.521
 4058SOL    HW112734   2.760   3.253   6.479
 4058SOL    HW212735   2.612   3.262   6.451
 4059SOL     OW12736   2.782   2.356   6.489
 4059SOL    HW112737   2.764   2.341   6.396
 4059SOL    HW212738   2.825   2.275   6.518
 4060SOL     OW12739   2.410   1.926   6.089
 4060SOL    HW112740   2.329   1.926   6.140
 4060SOL    HW212741   2.404   2.004   6.034
 4061SOL     OW12742   3.288   3.058   5.624
 4061SOL    HW112743   3.320   2.985   5.677
 4061SOL    HW212744   3.204   3.082   5.664
 4062SOL     OW12745   2.154   1.909   5.771
 4062SOL    HW112746   2.211   1.971   5.725
 4062SOL    HW212747   2.214   1.846   5.811
 4063SOL     OW12748   2.807   2.092   6.051
 4063SOL    HW112749   2.767   2.163   6.001
 4063SOL    HW212750   2.901   2.112   6.048
 4064SOL     OW12751   2.950   2.517   7.061
 4064SOL    HW112752   2.899   2.442   7.029
 4064SOL    HW212753   3.040   2.494   7.039
 4065SOL     OW12754   3.090   3.428   6.376
 4065SOL    HW112755   3.104   3.499   6.314
 4065SOL    HW212756   3.153   3.445   6.446
 4066SOL     OW12757   2.329   3.018   6.321
 4066SOL    HW112758   2.258   2.994   6.381
 4066SOL    HW212759   2.296   2.992   6.235
 4067SOL     OW12760   3.132   3.656   6.193
 4067SOL    HW112761   3.177   3.717   6.136
 4067SOL    HW212762   3.066   3.709   6.238
 4068SOL     OW12763   2.908   2.396   5.608
 4068SOL    HW112764   2.844   2.467   5.610
 4068SOL    HW212765   2.963   2.411   5.684
 4069SOL     OW12766   1.941   2.417   6.976
 4069SOL    HW112767   2.034   2.416   6.952
 4069SOL    HW212768   1.934   2.487   7.042
 4070SOL     OW12769   2.418   2.076   6.746
 4070SOL    HW112770   2.459   2.000   6.788
 4070SOL    HW212771   2.328   2.075   6.778
 4071SOL     OW12772   2.734   2.294   6.238
 4071SOL    HW112773   2.711   2.361   6.174
 4071SOL    HW212774   2.756   2.217   6.185
 4072SOL     OW12775   2.877   1.915   6.338
 4072SOL    HW112776   2.820   1.908   6.262
 4072SOL    HW212777   2.855   1.839   6.392
 4073SOL     OW12778   3.301   3.025   6.444
 4073SOL    HW112779   3.231   2.960   6.442
 4073SOL    HW212780   3.325   3.037   6.352
 4074SOL     OW12781   3.329   2.466   6.563
 4074SOL    HW112782   3.278   2.385   6.567
 4074SOL    HW212783   3.389   2.460   6.637
 4075SOL     OW12784   3.708   2.679   5.968
 4075SOL    HW112785   3.764   2.628   6.026
 4075SOL    HW212786   3.679   2.616   5.901
 4076SOL     OW12787   2.355   3.276   5.745
 4076SOL    HW112788   2.279   3.249   5.796
 4076SOL    HW212789   2.338   3.242   5.657
 4077SOL     OW12790   3.530   3.126   6.232
 4077SOL    HW112791   3.625   3.129   6.246
 4077SOL    HW212792   3.500   3.214   6.254
 4078SOL     OW12793   3.257   2.435   5.658
 4078SOL    HW112794   3.197   2.413   5.730
 4078SOL    HW212795   3.341   2.401   5.687
 4079SOL     OW12796   2.386   2.129   5.908
 4079SOL    HW112797   2.425   2.075   5.838
 4079SOL    HW212798   2.368   2.213   5.866
 4080SOL     OW12799   3.615   3.100   7.160
 4080SOL    HW112800   3.703   3.061   7.156
 4080SOL    HW212801   3.629   3.190   7.189
 4081SOL     OW12802   2.924   3.220   6.921
 4081SOL    HW112803   2.847   3.188   6.968
 4081SOL    HW212804   2.998   3.175   6.963
 4082SOL     OW12805   3.469   3.488   7.238
 4082SOL    HW112806   3.465   3.521   7.149
 4082SOL    HW212807   3.552   3.440   7.242
 4083SOL     OW12808   2.990   3.064   6.691
 4083SOL    HW112809   2.927   3.089   6.758
 4083SOL    HW212810   2.951   3.094   6.609
 4084SOL     OW12811   3.492   2.961   6.664
 4084SOL    HW112812   3.488   3.023   6.737
 4084SOL    HW212813   3.412   2.978   6.614
 4085SOL     OW12814   2.780   1.958   6.982
 4085SOL    HW112815   2.803   1.940   6.891
 4085SOL    HW212816   2.858   1.999   7.020
 4086SOL     OW12817   2.848   2.964   7.308
 4086SOL    HW112818   2.757   2.986   7.326
 4086SOL    HW212819   2.846   2.914   7.227
 4087SOL     OW12820   2.262   2.674   6.845
 4087SOL    HW112821   2.354   2.682   6.870
 4087SOL    HW212822   2.239   2.583   6.863
 4088SOL     OW12823   3.129   2.238   6.859
 4088SOL    HW112824   3.165   2.315   6.904
 4088SOL    HW212825   3.039   2.262   6.839
 4089SOL     OW12826   1.932   3.435   6.938
 4089SOL    HW112827   1.903   3.508   6.884
 4089SOL    HW212828   2.028   3.438   6.933
 4090SOL     OW12829   2.219   2.967   6.074
 4090SOL    HW112830   2.212   3.041   6.014
 4090SOL    HW212831   2.210   2.890   6.018
 4091SOL     OW12832   2.414   2.392   6.463
 4091SOL    HW112833   2.415   2.413   6.369
 4091SOL    HW212834   2.505   2.400   6.491
 4092SOL     OW12835   3.109   3.210   5.976
 4092SOL    HW112836   3.165   3.282   6.005
 4092SOL    HW212837   3.023   3.232   6.009
 4093SOL     OW12838   3.142   3.318   6.731
 4093SOL    HW112839   3.195   3.320   6.811
 4093SOL    HW212840   3.081   3.245   6.744
 4094SOL     OW12841   3.441   2.486   6.063
 4094SOL    HW112842   3.398   2.542   6.128
 4094SOL    HW212843   3.490   2.548   6.008
 4095SOL     OW12844   2.209   3.388   6.902
 4095SOL    HW112845   2.196   3.346   6.817
 4095SOL    HW212846   2.304   3.401   6.909
 4096SOL     OW12847   2.250   2.599   7.186
 4096SOL    HW112848   2.312   2.656   7.141
 4096SOL    HW212849   2.294   2.514   7.189
 4097SOL     OW12850   3.462   2.640   7.267
 4097SOL    HW112851   3.376   2.681   7.260
 4097SOL    HW212852   3.514   2.682   7.199
 4098SOL     OW12853   2.861   1.985   7.343
 4098SOL    HW112854   2.915   2.058   7.313
 4098SOL    HW212855   2.909   1.906   7.316
 4099SOL     OW12856   2.359   1.901   7.334
 4099SOL    HW112857   2.317   1.848   7.266
 4099SOL    HW212858   2.301   1.976   7.345
 4100SOL     OW12859   3.225   2.721   6.618
 4100SOL    HW112860   3.146   2.711   6.565
 4100SOL    HW212861   3.266   2.635   6.616
 4101SOL     OW12862   3.063   2.390   5.855
 4101SOL    HW112863   3.068   2.307   5.902
 4101SOL    HW212864   3.056   2.457   5.924
 4102SOL     OW12865   2.160   2.061   6.833
 4102SOL    HW112866   2.123   2.094   6.915
 4102SOL    HW212867   2.141   1.967   6.833
 4103SOL     OW12868   1.906   3.173   6.862
 4103SOL    HW112869   1.940   3.119   6.933
 4103SOL    HW212870   1.915   3.263   6.895
 4104SOL     OW12871   3.597   2.821   7.438
 4104SOL    HW112872   3.548   2.762   7.380
 4104SOL    HW212873   3.539   2.835   7.512
 4105SOL     OW12874   2.164   1.928   6.209
 4105SOL    HW112875   2.145   2.018   6.233
 4105SOL    HW212876   2.171   1.882   6.293
 4106SOL     OW12877   3.477   2.236   5.954
 4106SOL    HW112878   3.505   2.172   6.019
 4106SOL    HW212879   3.454   2.314   6.004
 4107SOL     OW12880   2.845   3.428   7.302
 4107SOL    HW112881   2.829   3.472   7.218
 4107SOL    HW212882   2.886   3.345   7.278
 4108SOL     OW12883   3.717   3.369   7.191
 4108SOL    HW112884   3.735   3.395   7.101
 4108SOL    HW212885   3.799   3.388   7.238
 4109SOL     OW12886   2.211   2.779   7.397
 4109SOL    HW112887   2.292   2.803   7.443
 4109SOL    HW212888   2.238   2.712   7.334
 4110SOL     OW12889   3.390   2.137   5.713
 4110SOL    HW112890   3.327   2.070   5.739
 4110SOL    HW212891   3.424   2.171   5.796
 4111SOL     OW12892   3.154   2.687   5.614
 4111SOL    HW112893   3.196   2.601   5.620
 4111SOL    HW212894   3.189   2.725   5.533
 4112SOL     OW12895   2.925   3.201   6.436
 4112SOL    HW112896   2.931   3.129   6.373
 4112SOL    HW212897   2.989   3.265   6.404
 4113SOL     OW12898   2.169   2.673   6.535
 4113SOL    HW112899   2.259   2.705   6.542
 4113SOL    HW212900   2.171   2.585   6.574
 4114SOL     OW12901   2.190   2.386   6.605
 4114SOL    HW112902   2.154   2.299   6.586
 4114SOL    HW212903   2.269   2.391   6.552
 4115SOL     OW12904   3.000   2.233   7.264
 4115SOL    HW112905   2.953   2.286   7.329
 4115SOL    HW212906   3.086   2.274   7.257
 4116SOL     OW12907   3.023   2.063   7.054
 4116SOL    HW112908   3.013   2.125   7.126
 4116SOL    HW212909   3.062   2.115   6.983
 4117SOL     OW12910   1.867   3.184   5.781
 4117SOL    HW112911   1.780   3.197   5.743
 4117SOL    HW212912   1.865   3.094   5.815
 4118SOL     OW12913   1.952   3.650   6.523
 4118SOL    HW112914   1.922   3.570   6.480
 4118SOL    HW212915   2.042   3.662   6.493
 4119SOL     OW12916   2.359   3.435   6.490
 4119SOL    HW112917   2.428   3.496   6.516
 4119SOL    HW212918   2.404   3.370   6.437
 4120SOL     OW12919   1.897   2.405   6.703
 4120SOL    HW112920   1.978   2.393   6.654
 4120SOL    HW212921   1.924   2.410   6.794
 4121SOL     OW12922   2.052   2.380   7.312
 4121SOL    HW112923   2.105   2.340   7.243
 4121SOL    HW212924   2.008   2.453   7.269
 4122SOL     OW12925   3.238   2.801   7.245
 4122SOL    HW112926   3.259   2.895   7.244
 4122SOL    HW212927   3.235   2.776   7.153
 4123SOL     OW12928   2.703   2.330   5.961
 4123SOL    HW112929   2.705   2.289   5.874
 4123SOL    HW212930   2.631   2.393   5.955
 4124SOL     OW12931   3.504   2.464   6.772
 4124SOL    HW112932   3.492   2.406   6.847
 4124SOL    HW212933   3.591   2.443   6.739
 4125SOL     OW12934   2.105   3.414   7.314
 4125SOL    HW112935   2.083   3.477   7.383
 4125SOL    HW212936   2.108   3.329   7.359
 4126SOL     OW12937   2.540   2.297   6.850
 4126SOL    HW112938   2.498   2.219   6.814
 4126SOL    HW212939   2.560   2.350   6.773
 4127SOL     OW12940   2.790   3.542   7.054
 4127SOL    HW112941   2.766   3.506   6.969
 4127SOL    HW212942   2.785   3.637   7.042
 4128SOL     OW12943   2.331   2.365   5.783
 4128SOL    HW112944   2.380   2.447   5.792
 4128SOL    HW212945   2.241   2.392   5.767
 4129SOL     OW12946   2.007   3.003   7.059
 4129SOL    HW112947   2.010   2.950   7.138
 4129SOL    HW212948   2.023   2.941   6.988
 4130SOL     OW12949   3.190   2.910   6.810
 4130SOL    HW112950   3.213   2.847   6.742
 4130SOL    HW212951   3.120   2.963   6.771
 4131SOL     OW12952   3.177   2.711   5.888
 4131SOL    HW112953   3.094   2.725   5.935
 4131SOL    HW212954   3.151   2.705   5.796
 4132SOL     OW12955   3.632   3.607   6.735
 4132SOL    HW112956   3.693   3.633   6.666
 4132SOL    HW212957   3.609   3.517   6.714
 4133SOL     OW12958   3.103   3.595   6.699
 4133SOL    HW112959   3.186   3.614   6.655
 4133SOL    HW212960   3.108   3.501   6.719
 4134SOL     OW12961   1.945   3.129   6.598
 4134SOL    HW112962   1.932   3.141   6.692
 4134SOL    HW212963   1.873   3.073   6.570
 4135SOL     OW12964   2.539   3.526   7.313
 4135SOL    HW112965   2.488   3.607   7.309
 4135SOL    HW212966   2.605   3.537   7.244
 4136SOL     OW12967   3.580   2.007   6.096
 4136SOL    HW112968   3.654   1.993   6.036
 4136SOL    HW212969   3.565   1.922   6.136
 4137SOL     OW12970   3.252   3.430   6.069
 4137SOL    HW112971   3.313   3.463   6.003
 4137SOL    HW212972   3.204   3.507   6.098
 4138SOL     OW12973   1.997   3.659   7.430
 4138SOL    HW112974   1.946   3.594   7.479
 4138SOL    HW212975   2.046   3.707   7.497
 4139SOL     OW12976   3.132   2.786   6.255
 4139SOL    HW112977   3.205   2.725   6.264
 4139SOL    HW212978   3.167   2.860   6.205
 4140SOL     OW12979   2.690   3.142   7.022
 4140SOL    HW112980   2.646   3.183   7.097
 4140SOL    HW212981   2.619   3.120   6.961
 4141SOL     OW12982   2.533   3.481   5.741
 4141SOL    HW112983   2.542   3.493   5.646
 4141SOL    HW212984   2.479   3.402   5.749
 4142SOL     OW12985   3.491   3.589   6.977
 4142SOL    HW112986   3.539   3.596   6.895
 4142SOL    HW212987   3.477   3.679   7.005
 4143SOL     OW12988   3.702   2.035   6.553
 4143SOL    HW112989   3.731   1.948   6.525
 4143SOL    HW212990   3.616   2.045   6.513
 4144SOL     OW12991   2.125   2.181   6.303
 4144SOL    HW112992   2.038   2.214   6.279
 4144SOL    HW212993   2.120   2.169   6.398
 4145SOL     OW12994   3.069   3.468   5.616
 4145SOL    HW112995   3.059   3.378   5.645
 4145SOL    HW212996   3.002   3.480   5.549
 4146SOL     OW12997   3.355   3.485   5.628
 4146SOL    HW112998   3.260   3.482   5.615
 4146SOL    HW212999   3.391   3.492   5.540
 4147SOL     OW13000   2.229   3.165   7.079
 4147SOL    HW113001   2.219   3.241   7.022
 4147SOL    HW213002   2.152   3.111   7.061
 4148SOL     OW13003   3.474   3.145   6.867
 4148SOL    HW113004   3.532   3.135   6.942
 4148SOL    HW213005   3.413   3.214   6.893
 4149SOL     OW13006   2.912   2.969   6.288
 4149SOL    HW113007   2.838   2.922   6.327
 4149SOL    HW213008   2.976   2.900   6.268
 4150SOL     OW13009   2.886   2.100   6.552
 4150SOL    HW113010   2.881   2.051   6.470
 4150SOL    HW213011   2.879   2.033   6.620
 4151SOL     OW13012   2.463   3.353   6.067
 4151SOL    HW113013   2.506   3.306   5.995
 4151SOL    HW213014   2.393   3.403   6.025
 4152SOL     OW13015   3.583   2.254   6.967
 4152SOL    HW113016   3.655   2.317   6.965
 4152SOL    HW213017   3.613   2.182   6.910
 4153SOL     OW13018   2.121   3.208   5.874
 4153SOL    HW113019   2.028   3.205   5.851
 4153SOL    HW213020   2.123   3.245   5.962
 4154SOL     OW13021   1.973   2.881   7.304
 4154SOL    HW113022   1.897   2.860   7.358
 4154SOL    HW213023   2.048   2.846   7.352
 4155SOL     OW13024   2.533   2.055   7.081
 4155SOL    HW113025   2.618   2.039   7.041
 4155SOL    HW213026   2.553   2.080   7.171
 4156SOL     OW13027   1.939   2.198   5.623
 4156SOL    HW113028   1.852   2.177   5.589
 4156SOL    HW213029   1.969   2.271   5.569
 4157SOL     OW13030   3.293   2.721   6.987
 4157SOL    HW113031   3.244   2.781   6.932
 4157SOL    HW213032   3.383   2.724   6.953
 4158SOL     OW13033   1.931   2.019   5.897
 4158SOL    HW113034   1.917   2.098   5.845
 4158SOL    HW213035   2.016   1.986   5.867
 4159SOL     OW13036   3.041   3.202   5.702
 4159SOL    HW113037   2.949   3.177   5.704
 4159SOL    HW213038   3.068   3.202   5.794
 4160SOL     OW13039   3.347   3.637   6.563
 4160SOL    HW113040   3.371   3.697   6.492
 4160SOL    HW213041   3.428   3.620   6.610
 4161SOL     OW13042   3.333   3.062   7.219
 4161SOL    HW113043   3.320   3.076   7.313
 4161SOL    HW213044   3.427   3.077   7.205
 4162SOL     OW13045   2.242   3.602   7.150
 4162SOL    HW113046   2.156   3.642   7.137
 4162SOL    HW213047   2.223   3.517   7.191
 4163SOL     OW13048   3.532   2.744   6.842
 4163SOL    HW113049   3.525   2.658   6.799
 4163SOL    HW213050   3.523   2.807   6.770
 4164SOL     OW13051   3.081   2.182   6.042
 4164SOL    HW113052   3.143   2.109   6.034
 4164SOL    HW213053   3.109   2.229   6.120
 4165SOL     OW13054   3.625   2.223   7.237
 4165SOL    HW113055   3.608   2.238   7.144
 4165SOL    HW213056   3.553   2.166   7.265
 4166SOL     OW13057   3.607   2.795   7.098
 4166SOL    HW113058   3.604   2.890   7.112
 4166SOL    HW213059   3.592   2.784   7.005
 4167SOL     OW13060   2.737   3.233   5.622
 4167SOL    HW113061   2.689   3.258   5.701
 4167SOL    HW213062   2.745   3.314   5.571
 4168SOL     OW13063   2.521   3.655   6.531
 4168SOL    HW113064   2.503   3.746   6.508
 4168SOL    HW213065   2.616   3.647   6.525
 4169SOL     OW13066   2.949   2.854   5.677
 4169SOL    HW113067   2.923   2.903   5.599
 4169SOL    HW213068   3.021   2.799   5.647
 4170SOL     OW13069   3.717   3.416   6.430
 4170SOL    HW113070   3.638   3.406   6.377
 4170SOL    HW213071   3.708   3.351   6.500
 4171SOL     OW13072   2.087   3.166   7.443
 4171SOL    HW113073   2.019   3.105   7.414
 4171SOL    HW213074   2.070   3.178   7.536
 4172SOL     OW13075   1.945   3.095   6.251
 4172SOL    HW113076   1.951   3.048   6.334
 4172SOL    HW213077   2.015   3.059   6.197
 4173SOL     OW13078   2.540   3.264   7.211
 4173SOL    HW113079   2.461   3.221   7.243
 4173SOL    HW213080   2.537   3.352   7.250
 4174SOL     OW13081   3.676   2.047   6.824
 4174SOL    HW113082   3.685   1.953   6.838
 4174SOL    HW213083   3.685   2.057   6.729
 4175SOL     OW13084   2.305   2.294   6.125
 4175SOL    HW113085   2.325   2.228   6.057
 4175SOL    HW213086   2.244   2.250   6.183
 4176SOL     OW13087   3.563   3.351   6.683
 4176SOL    HW113088   3.482   3.328   6.639
 4176SOL    HW213089   3.575   3.283   6.749
 4177SOL     OW13090   2.196   2.413   6.882
 4177SOL    HW113091   2.250   2.354   6.934
 4177SOL    HW213092   2.208   2.384   6.791
 4178SOL     OW13093   2.690   3.440   6.261
 4178SOL    HW113094   2.674   3.491   6.182
 4178SOL    HW213095   2.613   3.383   6.269
 4179SOL     OW13096   3.295   2.086   6.704
 4179SOL    HW113097   3.321   2.007   6.752
 4179SOL    HW213098   3.242   2.135   6.767
 4180SOL     OW13099   2.871   1.880   6.729
 4180SOL    HW113100   2.817   1.812   6.689
 4180SOL    HW213101   2.959   1.843   6.731
 4181SOL     OW13102   2.636   3.203   5.897
 4181SOL    HW113103   2.605   3.112   5.897
 4181SOL    HW213104   2.716   3.200   5.949
 4182SOL     OW13105   2.480   3.422   6.868
 4182SOL    HW113106   2.485   3.503   6.919
 4182SOL    HW213107   2.569   3.410   6.834
 4183SOL     OW13108   3.214   1.916   5.750
 4183SOL    HW113109   3.242   1.852   5.684
 4183SOL    HW213110   3.127   1.885   5.777
 4184SOL     OW13111   3.165   2.316   6.267
 4184SOL    HW113112   3.115   2.397   6.275
 4184SOL    HW213113   3.160   2.276   6.354
 4185SOL     OW13114   3.449   2.065   6.463
 4185SOL    HW113115   3.387   2.084   6.534
 4185SOL    HW213116   3.448   2.143   6.408
 4186SOL     OW13117   1.906   2.933   5.892
 4186SOL    HW113118   1.999   2.924   5.872
 4186SOL    HW213119   1.877   2.845   5.915
 4187SOL     OW13120   2.746   3.514   5.928
 4187SOL    HW113121   2.674   3.496   5.868
 4187SOL    HW213122   2.717   3.589   5.980
 4188SOL     OW13123   2.093   2.478   7.570
 4188SOL    HW113124   2.004   2.492   7.602
 4188SOL    HW213125   2.083   2.457   7.478
 4189SOL     OW13126   3.628   2.462   7.680
 4189SOL    HW113127   3.609   2.457   7.586
 4189SOL    HW213128   3.588   2.383   7.716
 4190SOL     OW13129   2.082   3.582   7.919
 4190SOL    HW113130   2.113   3.623   8.000
 4190SOL    HW213131   2.160   3.577   7.863
 4191SOL     OW13132   2.079   3.301   7.988
 4191SOL    HW113133   2.063   3.395   7.991
 4191SOL    HW213134   2.024   3.265   8.057
 4192SOL     OW13135   2.429   2.860   7.569
 4192SOL    HW113136   2.481   2.909   7.506
 4192SOL    HW213137   2.471   2.878   7.653
 4193SOL     OW13138   3.699   3.622   7.797
 4193SOL    HW113139   3.769   3.591   7.855
 4193SOL    HW213140   3.726   3.710   7.772
 4194SOL     OW13141   1.891   3.462   7.577
 4194SOL    HW113142   1.877   3.368   7.592
 4194SOL    HW213143   1.864   3.503   7.659
 4195SOL     OW13144   3.544   2.730   8.037
 4195SOL    HW113145   3.627   2.741   0.005
 4195SOL    HW213146   3.532   2.813   7.991
 4196SOL     OW13147   3.516   2.960   7.877
 4196SOL    HW113148   3.603   2.986   7.845
 4196SOL    HW213149   3.489   3.032   7.934
 4197SOL     OW13150   2.665   1.858   7.942
 4197SOL    HW113151   2.712   1.939   7.923
 4197SOL    HW213152   2.573   1.884   7.947
 4198SOL     OW13153   3.395   2.855   7.648
 4198SOL    HW113154   3.328   2.794   7.680
 4198SOL    HW213155   3.436   2.889   7.727
 4199SOL     OW13156   3.437   3.532   7.757
 4199SOL    HW113157   3.527   3.562   7.765
 4199SOL    HW213158   3.424   3.519   7.663
 4200SOL     OW13159   1.924   2.720   0.093
 4200SOL    HW113160   1.995   2.665   0.124
 4200SOL    HW213161   1.914   2.787   0.161
 4201SOL     OW13162   2.744   2.204   7.641
 4201SOL    HW113163   2.786   2.273   7.590
 4201SOL    HW213164   2.783   2.123   7.610
 4202SOL     OW13165   2.178   2.823   7.695
 4202SOL    HW113166   2.260   2.839   7.648
 4202SOL    HW213167   2.149   2.737   7.665
 4203SOL     OW13168   2.985   3.637   7.682
 4203SOL    HW113169   2.909   3.597   7.723
 4203SOL    HW213170   3.008   3.577   7.611
 4204SOL     OW13171   3.491   3.242   7.533
 4204SOL    HW113172   3.449   3.327   7.520
 4204SOL    HW213173   3.421   3.178   7.516
 4205SOL     OW13174   2.328   3.601   7.769
 4205SOL    HW113175   2.377   3.652   7.833
 4205SOL    HW213176   2.396   3.564   7.711
 4206SOL     OW13177   3.277   1.993   7.864
 4206SOL    HW113178   3.264   1.958   7.776
 4206SOL    HW213179   3.372   1.990   7.877
 4207SOL     OW13180   2.242   2.549   7.902
 4207SOL    HW113181   2.251   2.456   7.927
 4207SOL    HW213182   2.168   2.580   7.955
 4208SOL     OW13183   2.482   1.977   7.566
 4208SOL    HW113184   2.567   1.933   7.569
 4208SOL    HW213185   2.445   1.953   7.482
 4209SOL     OW13186   2.394   1.935   7.959
 4209SOL    HW113187   2.308   1.936   7.999
 4209SOL    HW213188   2.392   2.006   7.895
 4210SOL     OW13189   3.290   3.060   7.490
 4210SOL    HW113190   3.320   2.985   7.541
 4210SOL    HW213191   3.204   3.081   7.526
 4211SOL     OW13192   2.155   1.911   7.633
 4211SOL    HW113193   2.214   1.971   7.586
 4211SOL    HW213194   2.213   1.845   7.671
 4212SOL     OW13195   2.802   2.092   7.908
 4212SOL    HW113196   2.763   2.147   7.841
 4212SOL    HW213197   2.893   2.121   7.914
 4213SOL     OW13198   2.290   3.044   0.092
 4213SOL    HW113199   2.212   3.038   0.147
 4213SOL    HW213200   2.261   3.012   0.006
 4214SOL     OW13201   3.153   3.673   8.014
 4214SOL    HW113202   3.187   3.742   7.958
 4214SOL    HW213203   3.069   3.708   8.047
 4215SOL     OW13204   2.908   2.386   7.472
 4215SOL    HW113205   2.863   2.471   7.468
 4215SOL    HW213206   2.971   2.395   7.542
 4216SOL     OW13207   3.733   2.679   7.802
 4216SOL    HW113208   3.732   2.647   7.893
 4216SOL    HW213209   3.691   2.609   7.752
 4217SOL     OW13210   2.351   3.278   7.606
 4217SOL    HW113211   2.276   3.248   7.658
 4217SOL    HW213212   2.336   3.240   7.519
 4218SOL     OW13213   3.256   2.432   7.518
 4218SOL    HW113214   3.195   2.414   7.590
 4218SOL    HW213215   3.340   2.399   7.549
 4219SOL     OW13216   2.386   2.130   7.772
 4219SOL    HW113217   2.427   2.077   7.704
 4219SOL    HW213218   2.368   2.214   7.730
 4220SOL     OW13219   2.574   2.944   7.823
 4220SOL    HW113220   2.520   2.945   7.902
 4220SOL    HW213221   2.604   2.853   7.816
 4221SOL     OW13222   2.231   2.961   7.926
 4221SOL    HW113223   2.209   3.039   7.874
 4221SOL    HW213224   2.216   2.888   7.867
 4222SOL     OW13225   3.088   3.217   7.821
 4222SOL    HW113226   3.150   3.285   7.847
 4222SOL    HW213227   3.042   3.195   7.903
 4223SOL     OW13228   3.449   2.491   7.922
 4223SOL    HW113229   3.437   2.552   7.995
 4223SOL    HW213230   3.489   2.544   7.853
 4224SOL     OW13231   3.064   2.388   7.715
 4224SOL    HW113232   3.065   2.307   7.766
 4224SOL    HW213233   3.059   2.458   7.780
 4225SOL     OW13234   3.480   2.240   7.815
 4225SOL    HW113235   3.501   2.173   7.880
 4225SOL    HW213236   3.455   2.317   7.867
 4226SOL     OW13237   3.392   2.136   7.576
 4226SOL    HW113238   3.327   2.071   7.601
 4226SOL    HW213239   3.425   2.172   7.658
 4227SOL     OW13240   3.158   2.689   7.482
 4227SOL    HW113241   3.197   2.602   7.481
 4227SOL    HW213242   3.186   2.729   7.399
 4228SOL     OW13243   1.867   3.187   7.641
 4228SOL    HW113244   1.780   3.199   7.603
 4228SOL    HW213245   1.867   3.097   7.674
 4229SOL     OW13246   2.331   2.364   7.644
 4229SOL    HW113247   2.385   2.442   7.657
 4229SOL    HW213248   2.243   2.398   7.630
 4230SOL     OW13249   3.167   2.704   7.755
 4230SOL    HW113250   3.080   2.725   7.788
 4230SOL    HW213251   3.156   2.702   7.660
 4231SOL     OW13252   3.574   2.008   7.949
 4231SOL    HW113253   3.652   2.000   7.893
 4231SOL    HW213254   3.576   1.929   8.003
 4232SOL     OW13255   3.227   3.438   7.897
 4232SOL    HW113256   3.301   3.459   7.841
 4232SOL    HW213257   3.195   3.523   7.927
 4233SOL     OW13258   2.528   3.482   7.603
 4233SOL    HW113259   2.542   3.492   7.509
 4233SOL    HW213260   2.478   3.402   7.612
 4234SOL     OW13261   3.070   3.469   7.478
 4234SOL    HW113262   3.060   3.378   7.506
 4234SOL    HW213263   3.004   3.481   7.410
 4235SOL     OW13264   3.356   3.488   7.489
 4235SOL    HW113265   3.261   3.481   7.477
 4235SOL    HW213266   3.390   3.493   7.400
 4236SOL     OW13267   2.471   3.371   7.935
 4236SOL    HW113268   2.513   3.308   7.876
 4236SOL    HW213269   2.394   3.402   7.887
 4237SOL     OW13270   2.120   3.209   7.739
 4237SOL    HW113271   2.027   3.206   7.714
 4237SOL    HW213272   2.120   3.244   7.828
 4238SOL     OW13273   1.939   2.195   7.484
 4238SOL    HW113274   1.852   2.176   7.448
 4238SOL    HW213275   1.969   2.271   7.434
 4239SOL     OW13276   1.933   2.019   7.759
 4239SOL    HW113277   1.916   2.096   7.704
 4239SOL    HW213278   2.016   1.984   7.726
 4240SOL     OW13279   3.039   3.203   7.556
 4240SOL    HW113280   2.949   3.169   7.558
 4240SOL    HW213281   3.064   3.207   7.649
 4241SOL     OW13282   3.076   2.181   7.901
 4241SOL    HW113283   3.150   2.120   7.892
 4241SOL    HW213284   3.093   2.228   7.982
 4242SOL     OW13285   2.725   3.230   7.479
 4242SOL    HW113286   2.688   3.256   7.564
 4242SOL    HW213287   2.744   3.312   7.435
 4243SOL     OW13288   2.961   2.871   7.545
 4243SOL    HW113289   2.923   2.906   7.464
 4243SOL    HW213290   3.023   2.805   7.516
 4244SOL     OW13291   2.254   2.285   7.982
 4244SOL    HW113292   2.301   2.235   7.916
 4244SOL    HW213293   2.295   2.260   8.065
 4245SOL     OW13294   2.632   3.206   7.756
 4245SOL    HW113295   2.601   3.115   7.762
 4245SOL    HW213296   2.714   3.207   7.805
 4246SOL     OW13297   3.214   1.915   7.610
 4246SOL    HW113298   3.242   1.850   7.545
 4246SOL    HW213299   3.128   1.884   7.638
 4247SOL     OW13300   1.913   2.941   7.750
 4247SOL    HW113301   2.007   2.929   7.733
 4247SOL    HW213302   1.880   2.853   7.766
 4248SOL     OW13303   2.755   3.513   7.782
 4248SOL    HW113304   2.679   3.488   7.730
 4248SOL    HW213305   2.721   3.576   7.845
 4249SOL     OW13306   2.083   4.348   0.121
 4249SOL    HW113307   2.002   4.314   0.160
 4249SOL    HW213308   2.104   4.285   0.052
 4250SOL     OW13309   2.087   4.005   0.991
 4250SOL    HW113310   2.115   3.971   1.076
 4250SOL    HW213311   1.997   3.972   0.982
 4251SOL     OW13312   1.867   4.107   0.638
 4251SOL    HW113313   1.784   4.132   0.679
 4251SOL    HW213314   1.846   4.027   0.590
 4252SOL     OW13315   2.428   5.004   1.178
 4252SOL    HW113316   2.343   5.003   1.134
 4252SOL    HW213317   2.439   5.095   1.205
 4253SOL     OW13318   3.417   5.232   0.688
 4253SOL    HW113319   3.393   5.229   0.780
 4253SOL    HW213320   3.340   5.268   0.644
 4254SOL     OW13321   2.992   4.422   0.702
 4254SOL    HW113322   3.041   4.503   0.688
 4254SOL    HW213323   2.945   4.437   0.784
 4255SOL     OW13324   3.631   4.325   0.233
 4255SOL    HW113325   3.593   4.325   0.145
 4255SOL    HW213326   3.591   4.249   0.276
 4256SOL     OW13327   2.619   4.869   1.038
 4256SOL    HW113328   2.551   4.900   1.097
 4256SOL    HW213329   2.649   4.947   0.992
 4257SOL     OW13330   2.727   4.500   1.822
 4257SOL    HW113331   2.714   4.572   1.884
 4257SOL    HW213332   2.751   4.544   1.740
 4258SOL     OW13333   2.546   4.726   0.651
 4258SOL    HW113334   2.612   4.715   0.720
 4258SOL    HW213335   2.478   4.780   0.691
 4259SOL     OW13336   2.570   4.873   1.810
 4259SOL    HW113337   2.618   4.952   1.835
 4259SOL    HW213338   2.487   4.905   1.776
 4260SOL     OW13339   2.199   5.153   1.060
 4260SOL    HW113340   2.122   5.109   1.024
 4260SOL    HW213341   2.240   5.197   0.986
 4261SOL     OW13342   3.317   5.220   1.347
 4261SOL    HW113343   3.371   5.293   1.378
 4261SOL    HW213344   3.251   5.208   1.414
 4262SOL     OW13345   2.310   4.122   1.488
 4262SOL    HW113346   2.385   4.063   1.493
 4262SOL    HW213347   2.234   4.066   1.501
 4263SOL     OW13348   3.474   4.172   0.740
 4263SOL    HW113349   3.399   4.196   0.686
 4263SOL    HW213350   3.491   4.250   0.794
 4264SOL     OW13351   2.995   5.072   1.700
 4264SOL    HW113352   3.026   5.072   1.790
 4264SOL    HW213353   2.942   4.993   1.693
 4265SOL     OW13354   2.070   5.155   0.516
 4265SOL    HW113355   2.097   5.238   0.555
 4265SOL    HW213356   2.017   5.112   0.584
 4266SOL     OW13357   2.118   4.811   0.891
 4266SOL    HW113358   2.116   4.724   0.931
 4266SOL    HW213359   2.061   4.865   0.946
 4267SOL     OW13360   2.492   4.686   0.131
 4267SOL    HW113361   2.441   4.762   0.106
 4267SOL    HW213362   2.540   4.713   0.209
 4268SOL     OW13363   3.458   3.847   1.468
 4268SOL    HW113364   3.463   3.927   1.417
 4268SOL    HW213365   3.445   3.877   1.558
 4269SOL     OW13366   1.977   4.374   0.562
 4269SOL    HW113367   1.946   4.286   0.583
 4269SOL    HW213368   1.968   4.422   0.644
 4270SOL     OW13369   1.840   0.019   0.096
 4270SOL    HW113370   1.857   5.229   0.124
 4270SOL    HW213371   1.869   0.072   0.170
 4271SOL     OW13372   3.549   4.642   0.642
 4271SOL    HW113373   3.633   4.601   0.621
 4271SOL    HW213374   3.528   4.694   0.564
 4272SOL     OW13375   3.508   4.830   0.434
 4272SOL    HW113376   3.589   4.843   0.385
 4272SOL    HW213377   3.514   4.891   0.507
 4273SOL     OW13378   1.985   4.466   1.586
 4273SOL    HW113379   2.077   4.491   1.595
 4273SOL    HW213380   1.937   4.549   1.594
 4274SOL     OW13381   2.483   5.098   0.737
 4274SOL    HW113382   2.429   5.019   0.735
 4274SOL    HW213383   2.465   5.141   0.653
 4275SOL     OW13384   3.151   4.955   1.426
 4275SOL    HW113385   3.186   4.889   1.365
 4275SOL    HW213386   3.210   4.952   1.501
 4276SOL     OW13387   2.677   3.725   0.509
 4276SOL    HW113388   2.716   3.810   0.489
 4276SOL    HW213389   2.583   3.744   0.518
 4277SOL     OW13390   2.053   4.691   1.269
 4277SOL    HW113391   2.137   4.648   1.255
 4277SOL    HW213392   1.989   4.635   1.225
 4278SOL     OW13393   3.373   4.733   0.209
 4278SOL    HW113394   3.312   4.665   0.241
 4278SOL    HW213395   3.425   4.756   0.286
 4279SOL     OW13396   2.194   3.974   1.809
 4279SOL    HW113397   2.239   4.057   1.826
 4279SOL    HW213398   2.105   3.989   1.842
 4280SOL     OW13399   3.338   5.146   0.963
 4280SOL    HW113400   3.265   5.159   1.023
 4280SOL    HW213401   3.325   5.058   0.928
 4281SOL     OW13402   2.460   4.439   0.282
 4281SOL    HW113403   2.479   4.515   0.228
 4281SOL    HW213404   2.395   4.470   0.345
 4282SOL     OW13405   3.141   4.075   0.932
 4282SOL    HW113406   3.052   4.042   0.941
 4282SOL    HW213407   3.192   4.022   0.994
 4283SOL     OW13408   2.654   4.341   1.452
 4283SOL    HW113409   2.628   4.318   1.541
 4283SOL    HW213410   2.613   4.275   1.396
 4284SOL     OW13411   3.255   4.198   1.678
 4284SOL    HW113412   3.257   4.242   1.762
 4284SOL    HW213413   3.318   4.126   1.687
 4285SOL     OW13414   2.818   4.612   1.582
 4285SOL    HW113415   2.872   4.542   1.547
 4285SOL    HW213416   2.770   4.646   1.506
 4286SOL     OW13417   2.854   4.137   1.239
 4286SOL    HW113418   2.770   4.159   1.277
 4286SOL    HW213419   2.833   4.090   1.158
 4287SOL     OW13420   2.914   4.422   0.427
 4287SOL    HW113421   2.929   4.416   0.522
 4287SOL    HW213422   2.831   4.376   0.413
 4288SOL     OW13423   1.951   4.545   0.775
 4288SOL    HW113424   2.032   4.538   0.826
 4288SOL    HW213425   1.907   4.622   0.811
 4289SOL     OW13426   2.746   4.081   0.201
 4289SOL    HW113427   2.791   4.130   0.132
 4289SOL    HW213428   2.747   3.990   0.170
 4290SOL     OW13429   3.571   4.299   1.828
 4290SOL    HW113430   3.533   4.374   1.781
 4290SOL    HW213431   3.598   4.238   1.759
 4291SOL     OW13432   3.238   4.864   0.540
 4291SOL    HW113433   3.318   4.850   0.490
 4291SOL    HW213434   3.187   4.926   0.488
 4292SOL     OW13435   2.412   3.907   0.892
 4292SOL    HW113436   2.414   3.935   0.984
 4292SOL    HW213437   2.414   3.988   0.842
 4293SOL     OW13438   2.880   5.166   0.469
 4293SOL    HW113439   2.804   5.225   0.464
 4293SOL    HW213440   2.900   5.160   0.562
 4294SOL     OW13441   3.661   4.781   0.867
 4294SOL    HW113442   3.604   4.765   0.792
 4294SOL    HW213443   3.603   4.788   0.942
 4295SOL     OW13444   3.112   5.239   1.523
 4295SOL    HW113445   3.075   5.173   1.582
 4295SOL    HW213446   3.041   5.259   1.462
 4296SOL     OW13447   2.190   4.665   0.253
 4296SOL    HW113448   2.261   4.706   0.203
 4296SOL    HW213449   2.189   4.574   0.222
 4297SOL     OW13450   3.339   4.464   0.727
 4297SOL    HW113451   3.330   4.421   0.812
 4297SOL    HW213452   3.416   4.521   0.736
 4298SOL     OW13453   2.326   4.987   1.740
 4298SOL    HW113454   2.299   4.990   1.648
 4298SOL    HW213455   2.244   4.986   1.789
 4299SOL     OW13456   3.018   0.160   0.238
 4299SOL    HW113457   2.934   0.176   0.280
 4299SOL    HW213458   2.997   0.142   0.146
 4300SOL     OW13459   2.062   4.006   1.501
 4300SOL    HW113460   1.980   4.055   1.496
 4300SOL    HW213461   2.046   3.938   1.566
 4301SOL     OW13462   3.492   5.095   0.076
 4301SOL    HW113463   3.454   5.181   0.092
 4301SOL    HW213464   3.417   5.037   0.062
 4302SOL     OW13465   3.269   3.835   0.443
 4302SOL    HW113466   3.259   3.814   0.350
 4302SOL    HW213467   3.363   3.842   0.456
 4303SOL     OW13468   2.248   4.421   0.477
 4303SOL    HW113469   2.273   4.330   0.487
 4303SOL    HW213470   2.155   4.423   0.500
 4304SOL     OW13471   3.398   3.949   1.725
 4304SOL    HW113472   3.407   3.970   1.818
 4304SOL    HW213473   3.329   3.883   1.722
 4305SOL     OW13474   2.491   3.835   0.135
 4305SOL    HW113475   2.586   3.823   0.142
 4305SOL    HW213476   2.471   3.816   0.044
 4306SOL     OW13477   2.629   4.001   1.753
 4306SOL    HW113478   2.704   3.942   1.756
 4306SOL    HW213479   2.580   3.982   1.833
 4307SOL     OW13480   3.203   4.312   1.432
 4307SOL    HW113481   3.234   4.281   1.517
 4307SOL    HW213482   3.239   4.401   1.424
 4308SOL     OW13483   2.674   5.121   0.935
 4308SOL    HW113484   2.754   5.106   0.886
 4308SOL    HW213485   2.606   5.127   0.868
 4309SOL     OW13486   2.789   4.233   0.903
 4309SOL    HW113487   2.766   4.225   0.811
 4309SOL    HW213488   2.821   4.146   0.927
 4310SOL     OW13489   2.411   3.787   0.506
 4310SOL    HW113490   2.331   3.787   0.557
 4310SOL    HW213491   2.405   3.866   0.452
 4311SOL     OW13492   3.288   4.925   0.036
 4311SOL    HW113493   3.318   4.851   0.089
 4311SOL    HW213494   3.202   4.946   0.070
 4312SOL     OW13495   2.172   3.778   0.168
 4312SOL    HW113496   2.236   3.847   0.183
 4312SOL    HW213497   2.209   3.701   0.211
 4313SOL     OW13498   2.801   3.970   0.460
 4313SOL    HW113499   2.773   4.012   0.378
 4313SOL    HW213500   2.895   3.985   0.464
 4314SOL     OW13501   2.942   4.404   1.460
 4314SOL    HW113502   2.873   4.338   1.465
 4314SOL    HW213503   3.023   4.354   1.453
 4315SOL     OW13504   3.124   5.266   0.781
 4315SOL    HW113505   3.089   0.048   0.747
 4315SOL    HW213506   3.169   5.292   0.862
 4316SOL     OW13507   2.326   4.872   0.732
 4316SOL    HW113508   2.258   4.852   0.796
 4316SOL    HW213509   2.286   4.854   0.647
 4317SOL     OW13510   2.894   4.254   0.029
 4317SOL    HW113511   2.851   4.334   0.000
 4317SOL    HW213512   2.956   4.283   0.097
 4318SOL     OW13513   1.940   4.279   1.392
 4318SOL    HW113514   2.032   4.277   1.365
 4318SOL    HW213515   1.936   4.349   1.457
 4319SOL     OW13516   2.422   3.951   1.165
 4319SOL    HW113517   2.463   3.874   1.203
 4319SOL    HW213518   2.331   3.948   1.195
 4320SOL     OW13519   2.729   4.182   0.639
 4320SOL    HW113520   2.687   4.238   0.574
 4320SOL    HW213521   2.751   4.102   0.592
 4321SOL     OW13522   2.878   3.777   0.751
 4321SOL    HW113523   2.818   3.771   0.676
 4321SOL    HW213524   2.855   3.702   0.806
 4322SOL     OW13525   3.299   4.889   0.859
 4322SOL    HW113526   3.232   4.821   0.855
 4322SOL    HW213527   3.323   4.904   0.767
 4323SOL     OW13528   3.329   4.328   0.978
 4323SOL    HW113529   3.279   4.247   0.982
 4323SOL    HW213530   3.389   4.323   1.052
 4324SOL     OW13531   3.710   4.540   0.388
 4324SOL    HW113532   3.762   4.486   0.448
 4324SOL    HW213533   3.679   4.478   0.322
 4325SOL     OW13534   2.329   5.161   0.156
 4325SOL    HW113535   2.281   5.104   0.217
 4325SOL    HW213536   2.365   5.101   0.091
 4326SOL     OW13537   3.531   4.988   0.648
 4326SOL    HW113538   3.625   4.995   0.666
 4326SOL    HW213539   3.497   5.075   0.665
 4327SOL     OW13540   3.260   4.304   0.087
 4327SOL    HW113541   3.198   4.284   0.157
 4327SOL    HW213542   3.317   4.227   0.082
 4328SOL     OW13543   2.380   3.987   0.324
 4328SOL    HW113544   2.429   3.935   0.261
 4328SOL    HW213545   2.368   4.072   0.281
 4329SOL     OW13546   3.614   4.959   1.577
 4329SOL    HW113547   3.700   4.918   1.576
 4329SOL    HW213548   3.632   5.052   1.591
 4330SOL     OW13549   2.927   5.074   1.331
 4330SOL    HW113550   2.848   5.049   1.380
 4330SOL    HW213551   2.999   5.035   1.379
 4331SOL     OW13552   2.987   4.925   1.108
 4331SOL    HW113553   2.937   4.967   1.177
 4331SOL    HW213554   2.944   4.953   1.027
 4332SOL     OW13555   3.491   4.823   1.077
 4332SOL    HW113556   3.487   4.884   1.150
 4332SOL    HW213557   3.413   4.841   1.025
 4333SOL     OW13558   2.780   3.821   1.397
 4333SOL    HW113559   2.803   3.803   1.306
 4333SOL    HW213560   2.859   3.861   1.434
 4334SOL     OW13561   2.846   4.839   1.725
 4334SOL    HW113562   2.754   4.854   1.743
 4334SOL    HW213563   2.847   4.762   1.667
 4335SOL     OW13564   2.571   4.782   0.380
 4335SOL    HW113565   2.556   4.766   0.474
 4335SOL    HW213566   2.651   4.733   0.360
 4336SOL     OW13567   2.280   4.538   1.251
 4336SOL    HW113568   2.349   4.548   1.317
 4336SOL    HW213569   2.245   4.450   1.266
 4337SOL     OW13570   3.128   4.101   1.274
 4337SOL    HW113571   3.161   4.179   1.320
 4337SOL    HW213572   3.038   4.124   1.251
 4338SOL     OW13573   2.207   4.831   0.491
 4338SOL    HW113574   2.210   4.904   0.429
 4338SOL    HW213575   2.216   4.753   0.437
 4339SOL     OW13576   2.415   4.261   0.860
 4339SOL    HW113577   2.431   4.319   0.786
 4339SOL    HW213578   2.480   4.288   0.926
 4340SOL     OW13579   3.119   5.072   0.387
 4340SOL    HW113580   3.173   5.147   0.412
 4340SOL    HW213581   3.030   5.096   0.413
 4341SOL     OW13582   3.131   5.181   1.142
 4341SOL    HW113583   3.190   5.195   1.216
 4341SOL    HW213584   3.086   5.099   1.162
 4342SOL     OW13585   3.445   4.348   0.480
 4342SOL    HW113586   3.396   4.399   0.545
 4342SOL    HW213587   3.481   4.414   0.421
 4343SOL     OW13588   2.210   5.236   1.315
 4343SOL    HW113589   2.199   5.201   1.227
 4343SOL    HW213590   2.303   5.257   1.321
 4344SOL     OW13591   2.276   4.469   1.602
 4344SOL    HW113592   2.337   4.513   1.544
 4344SOL    HW213593   2.316   4.383   1.618
 4345SOL     OW13594   3.462   4.502   1.681
 4345SOL    HW113595   3.376   4.543   1.674
 4345SOL    HW213596   3.515   4.544   1.613
 4346SOL     OW13597   2.858   3.845   1.755
 4346SOL    HW113598   2.913   3.918   1.726
 4346SOL    HW213599   2.906   3.767   1.730
 4347SOL     OW13600   2.360   3.765   1.747
 4347SOL    HW113601   2.317   3.711   1.681
 4347SOL    HW213602   2.300   3.839   1.759
 4348SOL     OW13603   2.445   4.596   1.031
 4348SOL    HW113604   2.475   4.687   1.029
 4348SOL    HW213605   2.389   4.591   1.108
 4349SOL     OW13606   3.221   4.582   1.030
 4349SOL    HW113607   3.138   4.573   0.982
 4349SOL    HW213608   3.260   4.495   1.025
 4350SOL     OW13609   3.067   4.252   0.271
 4350SOL    HW113610   3.074   4.173   0.325
 4350SOL    HW213611   3.024   4.316   0.328
 4351SOL     OW13612   2.161   3.923   1.246
 4351SOL    HW113613   2.124   3.956   1.328
 4351SOL    HW213614   2.142   3.829   1.247
 4352SOL     OW13615   1.914   5.046   1.284
 4352SOL    HW113616   1.939   4.982   1.351
 4352SOL    HW213617   1.949   5.129   1.316
 4353SOL     OW13618   2.586   4.355   1.058
 4353SOL    HW113619   2.661   4.339   1.000
 4353SOL    HW213620   2.558   4.444   1.037
 4354SOL     OW13621   3.596   4.683   1.852
 4354SOL    HW113622   3.550   4.623   1.794
 4354SOL    HW213623   3.536   4.696   1.925
 4355SOL     OW13624   2.164   3.789   0.623
 4355SOL    HW113625   2.146   3.880   0.647
 4355SOL    HW213626   2.171   3.743   0.707
 4356SOL     OW13627   3.482   4.098   0.370
 4356SOL    HW113628   3.506   4.034   0.436
 4356SOL    HW213629   3.456   4.176   0.420
 4357SOL     OW13630   2.889   4.483   0.961
 4357SOL    HW113631   2.887   4.501   1.055
 4357SOL    HW213632   2.863   4.391   0.953
 4358SOL     OW13633   3.716   5.214   1.586
 4358SOL    HW113634   3.713   5.288   1.525
 4358SOL    HW213635   3.785   5.237   1.648
 4359SOL     OW13636   2.215   4.640   1.808
 4359SOL    HW113637   2.297   4.659   1.854
 4359SOL    HW213638   2.239   4.578   1.740
 4360SOL     OW13639   3.382   4.022   0.126
 4360SOL    HW113640   3.332   3.943   0.143
 4360SOL    HW213641   3.421   4.044   0.211
 4361SOL     OW13642   3.156   4.549   0.020
 4361SOL    HW113643   3.195   4.463   0.039
 4361SOL    HW213644   3.215   4.587   8.036
 4362SOL     OW13645   2.920   5.077   0.829
 4362SOL    HW113646   2.926   4.993   0.784
 4362SOL    HW213647   3.006   5.118   0.814
 4363SOL     OW13648   2.171   4.533   0.947
 4363SOL    HW113649   2.264   4.554   0.941
 4363SOL    HW213650   2.169   4.443   0.981
 4364SOL     OW13651   2.194   4.249   1.012
 4364SOL    HW113652   2.159   4.162   0.997
 4364SOL    HW213653   2.270   4.255   0.955
 4365SOL     OW13654   2.996   4.100   1.681
 4365SOL    HW113655   2.949   4.155   1.744
 4365SOL    HW213656   3.084   4.138   1.677
 4366SOL     OW13657   3.023   3.927   1.470
 4366SOL    HW113658   3.012   3.990   1.541
 4366SOL    HW213659   3.062   3.978   1.399
 4367SOL     OW13660   1.872   5.045   0.180
 4367SOL    HW113661   1.784   5.057   0.146
 4367SOL    HW213662   1.871   4.958   0.219
 4368SOL     OW13663   2.846   4.516   1.227
 4368SOL    HW113664   2.902   4.493   1.301
 4368SOL    HW213665   2.760   4.479   1.249
 4369SOL     OW13666   1.898   4.268   1.116
 4369SOL    HW113667   1.979   4.253   1.068
 4369SOL    HW213668   1.925   4.272   1.208
 4370SOL     OW13669   2.053   4.243   1.727
 4370SOL    HW113670   2.110   4.205   1.660
 4370SOL    HW213671   2.010   4.316   1.683
 4371SOL     OW13672   3.238   4.663   1.658
 4371SOL    HW113673   3.259   4.757   1.656
 4371SOL    HW213674   3.235   4.638   1.566
 4372SOL     OW13675   2.680   4.294   0.366
 4372SOL    HW113676   2.689   4.222   0.303
 4372SOL    HW213677   2.604   4.343   0.335
 4373SOL     OW13678   3.504   4.325   1.187
 4373SOL    HW113679   3.494   4.266   1.261
 4373SOL    HW213680   3.591   4.305   1.152
 4374SOL     OW13681   2.068   5.277   1.745
 4374SOL    HW113682   2.056   0.030   1.824
 4374SOL    HW213683   2.081   5.188   1.777
 4375SOL     OW13684   2.561   4.175   1.260
 4375SOL    HW113685   2.509   4.101   1.230
 4375SOL    HW213686   2.558   4.238   1.188
 4376SOL     OW13687   2.330   4.215   0.179
 4376SOL    HW113688   2.397   4.281   0.199
 4376SOL    HW213689   2.247   4.260   0.190
 4377SOL     OW13690   2.008   4.863   1.471
 4377SOL    HW113691   2.010   4.811   1.551
 4377SOL    HW213692   2.025   4.800   1.401
 4378SOL     OW13693   3.190   4.770   1.223
 4378SOL    HW113694   3.213   4.708   1.154
 4378SOL    HW213695   3.118   4.821   1.186
 4379SOL     OW13696   3.169   4.573   0.307
 4379SOL    HW113697   3.091   4.545   0.357
 4379SOL    HW213698   3.144   4.562   0.216
 4380SOL     OW13699   1.955   4.986   1.021
 4380SOL    HW113700   1.934   5.003   1.113
 4380SOL    HW213701   1.875   4.948   0.985
 4381SOL     OW13702   2.613   0.040   1.709
 4381SOL    HW113703   2.521   0.062   1.720
 4381SOL    HW213704   2.632   0.063   1.618
 4382SOL     OW13705   2.767   3.815   0.134
 4382SOL    HW113706   2.786   3.799   0.042
 4382SOL    HW213707   2.831   3.762   0.181
 4383SOL     OW13708   3.580   3.868   0.510
 4383SOL    HW113709   3.653   3.853   0.450
 4383SOL    HW213710   3.565   3.783   0.552
 4384SOL     OW13711   3.139   4.649   0.671
 4384SOL    HW113712   3.213   4.587   0.677
 4384SOL    HW213713   3.173   4.721   0.619
 4385SOL     OW13714   2.682   4.993   1.423
 4385SOL    HW113715   2.653   5.030   1.507
 4385SOL    HW213716   2.606   5.005   1.365
 4386SOL     OW13717   3.702   3.897   0.967
 4386SOL    HW113718   3.731   3.810   0.939
 4386SOL    HW213719   3.616   3.907   0.927
 4387SOL     OW13720   2.125   4.040   0.718
 4387SOL    HW113721   2.039   4.076   0.694
 4387SOL    HW213722   2.121   4.032   0.813
 4388SOL     OW13723   3.004   0.020   0.005
 4388SOL    HW113724   3.018   5.230   0.034
 4388SOL    HW213725   3.005   0.014   7.989
 4389SOL     OW13726   2.687   4.728   1.370
 4389SOL    HW113727   2.733   4.722   1.287
 4389SOL    HW213728   2.690   4.821   1.393
 4390SOL     OW13729   2.781   4.639   0.299
 4390SOL    HW113730   2.836   4.665   0.225
 4390SOL    HW213731   2.828   4.566   0.339
 4391SOL     OW13732   2.228   5.025   1.496
 4391SOL    HW113733   2.216   5.100   1.437
 4391SOL    HW213734   2.152   4.969   1.479
 4392SOL     OW13735   3.474   5.004   1.282
 4392SOL    HW113736   3.532   4.998   1.359
 4392SOL    HW213737   3.412   5.074   1.304
 4393SOL     OW13738   2.915   4.833   0.712
 4393SOL    HW113739   2.843   4.781   0.748
 4393SOL    HW213740   2.975   4.768   0.676
 4394SOL     OW13741   2.883   3.964   0.966
 4394SOL    HW113742   2.878   3.916   0.883
 4394SOL    HW213743   2.877   3.896   1.033
 4395SOL     OW13744   3.583   4.116   1.380
 4395SOL    HW113745   3.655   4.179   1.379
 4395SOL    HW213746   3.613   4.045   1.324
 4396SOL     OW13747   2.126   5.029   0.288
 4396SOL    HW113748   2.044   5.045   0.241
 4396SOL    HW213749   2.118   5.080   0.369
 4397SOL     OW13750   1.974   4.745   1.718
 4397SOL    HW113751   1.898   4.722   1.772
 4397SOL    HW213752   2.049   4.708   1.766
 4398SOL     OW13753   2.536   3.920   1.499
 4398SOL    HW113754   2.620   3.901   1.457
 4398SOL    HW213755   2.559   3.951   1.587
 4399SOL     OW13756   1.919   4.087   0.039
 4399SOL    HW113757   1.845   4.031   0.015
 4399SOL    HW213758   1.967   4.101   8.037
 4400SOL     OW13759   3.292   4.582   1.401
 4400SOL    HW113760   3.244   4.642   1.345
 4400SOL    HW213761   3.382   4.585   1.367
 4401SOL     OW13762   1.933   3.879   0.307
 4401SOL    HW113763   1.918   3.963   0.264
 4401SOL    HW213764   2.017   3.849   0.272
 4402SOL     OW13765   3.044   5.064   0.113
 4402SOL    HW113766   2.949   5.049   0.111
 4402SOL    HW213767   3.067   5.060   0.205
 4403SOL     OW13768   2.481   4.555   1.433
 4403SOL    HW113769   2.537   4.631   1.418
 4403SOL    HW213770   2.542   4.481   1.442
 4404SOL     OW13771   2.580   4.288   1.704
 4404SOL    HW113772   2.619   4.351   1.765
 4404SOL    HW213773   2.609   4.203   1.736
 4405SOL     OW13774   3.335   4.924   1.631
 4405SOL    HW113775   3.321   4.936   1.725
 4405SOL    HW213776   3.429   4.937   1.619
 4406SOL     OW13777   3.532   4.606   1.255
 4406SOL    HW113778   3.525   4.520   1.212
 4406SOL    HW213779   3.522   4.669   1.184
 4407SOL     OW13780   3.079   4.042   0.460
 4407SOL    HW113781   3.145   3.972   0.452
 4407SOL    HW213782   3.107   4.092   0.536
 4408SOL     OW13783   2.451   4.462   0.669
 4408SOL    HW113784   2.491   4.547   0.655
 4408SOL    HW213785   2.382   4.456   0.602
 4409SOL     OW13786   3.625   4.085   1.650
 4409SOL    HW113787   3.608   4.100   1.557
 4409SOL    HW213788   3.554   4.028   1.679
 4410SOL     OW13789   3.606   4.657   1.512
 4410SOL    HW113790   3.604   4.752   1.525
 4410SOL    HW213791   3.591   4.646   1.418
 4411SOL     OW13792   2.769   5.097   0.036
 4411SOL    HW113793   2.709   5.080   0.109
 4411SOL    HW213794   2.724   5.161   8.062
 4412SOL     OW13795   2.729   4.690   0.856
 4412SOL    HW113796   2.779   4.619   0.896
 4412SOL    HW213797   2.695   4.741   0.930
 4413SOL     OW13798   2.942   4.703   0.088
 4413SOL    HW113799   2.922   4.757   0.012
 4413SOL    HW213800   3.018   4.652   0.062
 4414SOL     OW13801   2.085   5.025   1.853
 4414SOL    HW113802   2.017   4.963   1.828
 4414SOL    HW213803   2.074   5.036   1.947
 4415SOL     OW13804   1.948   4.955   0.669
 4415SOL    HW113805   1.946   4.902   0.749
 4415SOL    HW213806   2.017   4.915   0.616
 4416SOL     OW13807   2.532   5.109   1.608
 4416SOL    HW113808   2.457   5.073   1.656
 4416SOL    HW213809   2.562   5.181   1.662
 4417SOL     OW13810   3.674   3.909   1.238
 4417SOL    HW113811   3.686   3.815   1.253
 4417SOL    HW213812   3.684   3.919   1.143
 4418SOL     OW13813   2.287   4.160   0.523
 4418SOL    HW113814   2.320   4.088   0.469
 4418SOL    HW213815   2.243   4.116   0.596
 4419SOL     OW13816   3.569   5.223   1.119
 4419SOL    HW113817   3.495   5.206   1.060
 4419SOL    HW213818   3.576   5.143   1.172
 4420SOL     OW13819   2.191   4.278   1.291
 4420SOL    HW113820   2.247   4.223   1.347
 4420SOL    HW213821   2.211   4.250   1.202
 4421SOL     OW13822   3.294   3.949   1.118
 4421SOL    HW113823   3.321   3.870   1.165
 4421SOL    HW213824   3.242   3.998   1.181
 4422SOL     OW13825   2.871   3.743   1.143
 4422SOL    HW113826   2.816   3.675   1.105
 4422SOL    HW213827   2.958   3.705   1.145
 4423SOL     OW13828   2.656   5.040   0.283
 4423SOL    HW113829   2.601   4.966   0.308
 4423SOL    HW213830   2.715   5.052   0.357
 4424SOL     OW13831   2.484   5.299   1.290
 4424SOL    HW113832   2.491   0.054   1.367
 4424SOL    HW213833   2.574   5.279   1.265
 4425SOL     OW13834   3.218   3.778   0.184
 4425SOL    HW113835   3.240   3.731   0.104
 4425SOL    HW213836   3.132   3.745   0.209
 4426SOL     OW13837   3.159   4.185   0.682
 4426SOL    HW113838   3.106   4.264   0.689
 4426SOL    HW213839   3.155   4.145   0.769
 4427SOL     OW13840   3.449   3.927   0.877
 4427SOL    HW113841   3.387   3.947   0.948
 4427SOL    HW213842   3.448   4.005   0.823
 4428SOL     OW13843   1.903   4.792   0.303
 4428SOL    HW113844   1.998   4.794   0.306
 4428SOL    HW213845   1.879   4.708   0.343
 4429SOL     OW13846   2.092   4.347   1.984
 4429SOL    HW113847   2.002   4.346   2.019
 4429SOL    HW213848   2.083   4.322   1.893
 4430SOL     OW13849   2.086   4.005   2.854
 4430SOL    HW113850   2.115   3.970   2.938
 4430SOL    HW213851   1.997   3.972   2.844
 4431SOL     OW13852   1.867   4.107   2.500
 4431SOL    HW113853   1.784   4.131   2.541
 4431SOL    HW213854   1.847   4.027   2.451
 4432SOL     OW13855   2.428   5.004   3.040
 4432SOL    HW113856   2.343   5.002   2.996
 4432SOL    HW213857   2.439   5.096   3.067
 4433SOL     OW13858   3.417   5.232   2.551
 4433SOL    HW113859   3.395   5.229   2.644
 4433SOL    HW213860   3.338   5.267   2.509
 4434SOL     OW13861   2.992   4.422   2.564
 4434SOL    HW113862   3.041   4.503   2.549
 4434SOL    HW213863   2.945   4.437   2.646
 4435SOL     OW13864   3.628   4.330   2.091
 4435SOL    HW113865   3.608   4.322   1.998
 4435SOL    HW213866   3.593   4.250   2.130
 4436SOL     OW13867   2.620   4.869   2.900
 4436SOL    HW113868   2.551   4.900   2.959
 4436SOL    HW213869   2.649   4.948   2.854
 4437SOL     OW13870   2.728   4.500   3.684
 4437SOL    HW113871   2.714   4.572   3.746
 4437SOL    HW213872   2.751   4.543   3.602
 4438SOL     OW13873   2.548   4.728   2.510
 4438SOL    HW113874   2.613   4.716   2.580
 4438SOL    HW213875   2.479   4.780   2.550
 4439SOL     OW13876   2.570   4.873   3.673
 4439SOL    HW113877   2.618   4.952   3.697
 4439SOL    HW213878   2.487   4.905   3.638
 4440SOL     OW13879   2.199   5.153   2.922
 4440SOL    HW113880   2.122   5.108   2.886
 4440SOL    HW213881   2.239   5.196   2.848
 4441SOL     OW13882   3.317   5.220   3.209
 4441SOL    HW113883   3.371   5.293   3.240
 4441SOL    HW213884   3.251   5.208   3.276
 4442SOL     OW13885   2.311   4.123   3.351
 4442SOL    HW113886   2.385   4.063   3.355
 4442SOL    HW213887   2.234   4.066   3.363
 4443SOL     OW13888   3.474   4.172   2.602
 4443SOL    HW113889   3.399   4.196   2.548
 4443SOL    HW213890   3.491   4.250   2.655
 4444SOL     OW13891   2.995   5.072   3.562
 4444SOL    HW113892   3.026   5.072   3.652
 4444SOL    HW213893   2.942   4.993   3.555
 4445SOL     OW13894   2.072   5.155   2.382
 4445SOL    HW113895   2.097   5.238   2.423
 4445SOL    HW213896   2.020   5.110   2.448
 4446SOL     OW13897   2.119   4.811   2.754
 4446SOL    HW113898   2.116   4.724   2.793
 4446SOL    HW213899   2.061   4.864   2.809
 4447SOL     OW13900   2.448   4.705   1.995
 4447SOL    HW113901   2.494   4.754   1.927
 4447SOL    HW213902   2.488   4.735   2.077
 4448SOL     OW13903   3.457   3.846   3.331
 4448SOL    HW113904   3.464   3.925   3.278
 4448SOL    HW213905   3.446   3.878   3.420
 4449SOL     OW13906   1.977   4.376   2.421
 4449SOL    HW113907   1.948   4.287   2.442
 4449SOL    HW213908   1.968   4.424   2.504
 4450SOL     OW13909   1.848   0.014   1.961
 4450SOL    HW113910   1.865   5.225   1.991
 4450SOL    HW213911   1.871   0.069   2.036
 4451SOL     OW13912   3.551   4.642   2.501
 4451SOL    HW113913   3.635   4.601   2.482
 4451SOL    HW213914   3.530   4.693   2.423
 4452SOL     OW13915   3.507   4.831   2.292
 4452SOL    HW113916   3.592   4.837   2.248
 4452SOL    HW213917   3.513   4.892   2.365
 4453SOL     OW13918   1.985   4.466   3.448
 4453SOL    HW113919   2.077   4.490   3.457
 4453SOL    HW213920   1.937   4.549   3.456
 4454SOL     OW13921   2.484   5.097   2.598
 4454SOL    HW113922   2.429   5.018   2.597
 4454SOL    HW213923   2.464   5.140   2.515
 4455SOL     OW13924   3.151   4.955   3.288
 4455SOL    HW113925   3.186   4.889   3.227
 4455SOL    HW213926   3.210   4.952   3.363
 4456SOL     OW13927   2.675   3.724   2.366
 4456SOL    HW113928   2.716   3.809   2.350
 4456SOL    HW213929   2.582   3.743   2.378
 4457SOL     OW13930   2.053   4.691   3.131
 4457SOL    HW113931   2.137   4.648   3.117
 4457SOL    HW213932   1.989   4.635   3.086
 4458SOL     OW13933   3.393   4.718   2.059
 4458SOL    HW113934   3.323   4.660   2.090
 4458SOL    HW213935   3.434   4.752   2.138
 4459SOL     OW13936   2.193   3.975   3.673
 4459SOL    HW113937   2.238   4.059   3.687
 4459SOL    HW213938   2.104   3.990   3.705
 4460SOL     OW13939   3.338   5.146   2.824
 4460SOL    HW113940   3.265   5.159   2.885
 4460SOL    HW213941   3.325   5.058   2.790
 4461SOL     OW13942   2.458   4.446   2.127
 4461SOL    HW113943   2.465   4.527   2.077
 4461SOL    HW213944   2.393   4.465   2.195
 4462SOL     OW13945   3.141   4.075   2.795
 4462SOL    HW113946   3.052   4.042   2.802
 4462SOL    HW213947   3.192   4.022   2.856
 4463SOL     OW13948   2.655   4.341   3.314
 4463SOL    HW113949   2.627   4.318   3.403
 4463SOL    HW213950   2.614   4.275   3.258
 4464SOL     OW13951   3.255   4.198   3.540
 4464SOL    HW113952   3.257   4.243   3.624
 4464SOL    HW213953   3.319   4.127   3.549
 4465SOL     OW13954   2.817   4.612   3.444
 4465SOL    HW113955   2.872   4.542   3.409
 4465SOL    HW213956   2.770   4.646   3.368
 4466SOL     OW13957   2.854   4.136   3.102
 4466SOL    HW113958   2.769   4.159   3.139
 4466SOL    HW213959   2.834   4.090   3.021
 4467SOL     OW13960   2.913   4.422   2.288
 4467SOL    HW113961   2.928   4.415   2.382
 4467SOL    HW213962   2.830   4.376   2.274
 4468SOL     OW13963   1.950   4.545   2.638
 4468SOL    HW113964   2.031   4.537   2.688
 4468SOL    HW213965   1.907   4.622   2.673
 4469SOL     OW13966   2.753   4.072   2.056
 4469SOL    HW113967   2.794   4.133   1.996
 4469SOL    HW213968   2.770   3.986   2.018
 4470SOL     OW13969   3.570   4.299   3.690
 4470SOL    HW113970   3.533   4.374   3.643
 4470SOL    HW213971   3.599   4.239   3.621
 4471SOL     OW13972   3.238   4.864   2.402
 4471SOL    HW113973   3.320   4.850   2.353
 4471SOL    HW213974   3.188   4.925   2.348
 4472SOL     OW13975   2.413   3.908   2.754
 4472SOL    HW113976   2.414   3.935   2.846
 4472SOL    HW213977   2.413   3.989   2.704
 4473SOL     OW13978   2.884   5.171   2.331
 4473SOL    HW113979   2.806   5.225   2.325
 4473SOL    HW213980   2.898   5.161   2.426
 4474SOL     OW13981   3.662   4.781   2.728
 4474SOL    HW113982   3.605   4.765   2.653
 4474SOL    HW213983   3.602   4.788   2.803
 4475SOL     OW13984   3.112   5.239   3.385
 4475SOL    HW113985   3.075   5.173   3.444
 4475SOL    HW213986   3.041   5.259   3.324
 4476SOL     OW13987   2.183   4.680   2.112
 4476SOL    HW113988   2.265   4.699   2.066
 4476SOL    HW213989   2.152   4.598   2.072
 4477SOL     OW13990   3.339   4.465   2.590
 4477SOL    HW113991   3.331   4.422   2.674
 4477SOL    HW213992   3.417   4.521   2.599
 4478SOL     OW13993   2.326   4.987   3.602
 4478SOL    HW113994   2.299   4.990   3.510
 4478SOL    HW213995   2.244   4.986   3.651
 4479SOL     OW13996   2.937   0.182   2.070
 4479SOL    HW113997   2.938   0.106   2.128
 4479SOL    HW213998   2.967   0.148   1.986
 4480SOL     OW13999   2.063   4.006   3.363
 4480SOL    HW114000   1.980   4.054   3.357
 4480SOL    HW214001   2.045   3.935   3.425
 4481SOL     OW14002   3.485   5.100   1.968
 4481SOL    HW114003   3.480   5.178   1.914
 4481SOL    HW214004   3.416   5.042   1.935
 4482SOL     OW14005   3.263   3.832   2.294
 4482SOL    HW114006   3.252   3.807   2.202
 4482SOL    HW214007   3.358   3.839   2.306
 4483SOL     OW14008   2.254   4.419   2.339
 4483SOL    HW114009   2.276   4.327   2.350
 4483SOL    HW214010   2.160   4.424   2.356
 4484SOL     OW14011   3.399   3.950   3.587
 4484SOL    HW114012   3.408   3.970   3.680
 4484SOL    HW214013   3.328   3.887   3.583
 4485SOL     OW14014   2.495   3.847   1.968
 4485SOL    HW114015   2.566   3.785   1.980
 4485SOL    HW214016   2.447   3.815   1.892
 4486SOL     OW14017   2.631   4.002   3.616
 4486SOL    HW114018   2.704   3.940   3.620
 4486SOL    HW214019   2.578   3.982   3.693
 4487SOL     OW14020   3.203   4.312   3.294
 4487SOL    HW114021   3.233   4.282   3.379
 4487SOL    HW214022   3.238   4.401   3.286
 4488SOL     OW14023   2.674   5.121   2.796
 4488SOL    HW114024   2.754   5.106   2.747
 4488SOL    HW214025   2.605   5.126   2.730
 4489SOL     OW14026   2.790   4.233   2.765
 4489SOL    HW114027   2.766   4.225   2.673
 4489SOL    HW214028   2.821   4.146   2.790
 4490SOL     OW14029   2.410   3.787   2.365
 4490SOL    HW114030   2.330   3.788   2.417
 4490SOL    HW214031   2.404   3.866   2.311
 4491SOL     OW14032   3.289   4.923   1.901
 4491SOL    HW114033   3.321   4.848   1.951
 4491SOL    HW214034   3.202   4.941   1.935
 4492SOL     OW14035   2.154   3.771   2.046
 4492SOL    HW114036   2.213   3.836   2.008
 4492SOL    HW214037   2.212   3.708   2.088
 4493SOL     OW14038   2.800   3.970   2.323
 4493SOL    HW114039   2.772   4.012   2.242
 4493SOL    HW214040   2.894   3.983   2.327
 4494SOL     OW14041   2.942   4.404   3.322
 4494SOL    HW114042   2.872   4.338   3.326
 4494SOL    HW214043   3.022   4.354   3.314
 4495SOL     OW14044   3.126   5.267   2.641
 4495SOL    HW114045   3.086   0.049   2.612
 4495SOL    HW214046   3.170   5.290   2.723
 4496SOL     OW14047   2.327   4.872   2.594
 4496SOL    HW114048   2.258   4.852   2.657
 4496SOL    HW214049   2.288   4.853   2.509
 4497SOL     OW14050   2.886   4.267   1.884
 4497SOL    HW114051   2.843   4.350   1.864
 4497SOL    HW214052   2.951   4.289   1.950
 4498SOL     OW14053   1.940   4.279   3.254
 4498SOL    HW114054   2.032   4.277   3.227
 4498SOL    HW214055   1.936   4.349   3.319
 4499SOL     OW14056   2.422   3.951   3.027
 4499SOL    HW114057   2.462   3.872   3.062
 4499SOL    HW214058   2.331   3.948   3.057
 4500SOL     OW14059   2.730   4.183   2.502
 4500SOL    HW114060   2.684   4.238   2.438
 4500SOL    HW214061   2.751   4.103   2.455
 4501SOL     OW14062   2.878   3.777   2.614
 4501SOL    HW114063   2.819   3.769   2.538
 4501SOL    HW214064   2.856   3.701   2.668
 4502SOL     OW14065   3.299   4.890   2.721
 4502SOL    HW114066   3.232   4.821   2.717
 4502SOL    HW214067   3.324   4.904   2.630
 4503SOL     OW14068   3.328   4.328   2.840
 4503SOL    HW114069   3.279   4.247   2.843
 4503SOL    HW214070   3.389   4.323   2.914
 4504SOL     OW14071   3.708   4.540   2.244
 4504SOL    HW114072   3.764   4.489   2.302
 4504SOL    HW214073   3.679   4.478   2.177
 4505SOL     OW14074   2.344   5.146   2.017
 4505SOL    HW114075   2.281   5.094   2.068
 4505SOL    HW214076   2.342   5.106   1.930
 4506SOL     OW14077   3.531   4.987   2.510
 4506SOL    HW114078   3.625   4.994   2.526
 4506SOL    HW214079   3.497   5.075   2.526
 4507SOL     OW14080   3.256   4.296   1.933
 4507SOL    HW114081   3.195   4.276   2.005
 4507SOL    HW214082   3.341   4.263   1.964
 4508SOL     OW14083   2.387   3.987   2.181
 4508SOL    HW114084   2.431   3.939   2.111
 4508SOL    HW214085   2.366   4.072   2.142
 4509SOL     OW14086   3.614   4.959   3.439
 4509SOL    HW114087   3.700   4.918   3.438
 4509SOL    HW214088   3.632   5.052   3.453
 4510SOL     OW14089   2.927   5.074   3.193
 4510SOL    HW114090   2.848   5.049   3.242
 4510SOL    HW214091   2.999   5.035   3.241
 4511SOL     OW14092   2.987   4.925   2.970
 4511SOL    HW114093   2.937   4.966   3.040
 4511SOL    HW214094   2.943   4.952   2.889
 4512SOL     OW14095   3.491   4.823   2.939
 4512SOL    HW114096   3.487   4.884   3.012
 4512SOL    HW214097   3.413   4.841   2.888
 4513SOL     OW14098   2.780   3.822   3.261
 4513SOL    HW114099   2.801   3.800   3.170
 4513SOL    HW214100   2.860   3.861   3.296
 4514SOL     OW14101   2.846   4.838   3.587
 4514SOL    HW114102   2.754   4.854   3.605
 4514SOL    HW214103   2.847   4.762   3.529
 4515SOL     OW14104   2.566   4.782   2.234
 4515SOL    HW114105   2.555   4.767   2.328
 4515SOL    HW214106   2.644   4.731   2.211
 4516SOL     OW14107   2.280   4.538   3.113
 4516SOL    HW114108   2.349   4.548   3.179
 4516SOL    HW214109   2.245   4.450   3.127
 4517SOL     OW14110   3.128   4.100   3.137
 4517SOL    HW114111   3.160   4.178   3.183
 4517SOL    HW214112   3.038   4.123   3.113
 4518SOL     OW14113   2.211   4.832   2.352
 4518SOL    HW114114   2.214   4.905   2.290
 4518SOL    HW214115   2.210   4.753   2.296
 4519SOL     OW14116   2.415   4.261   2.722
 4519SOL    HW114117   2.431   4.319   2.648
 4519SOL    HW214118   2.480   4.288   2.788
 4520SOL     OW14119   3.121   5.076   2.248
 4520SOL    HW114120   3.177   5.144   2.286
 4520SOL    HW214121   3.033   5.099   2.277
 4521SOL     OW14122   3.131   5.181   3.004
 4521SOL    HW114123   3.190   5.195   3.077
 4521SOL    HW214124   3.086   5.098   3.023
 4522SOL     OW14125   3.444   4.347   2.340
 4522SOL    HW114126   3.398   4.402   2.404
 4522SOL    HW214127   3.490   4.409   2.283
 4523SOL     OW14128   2.210   5.236   3.177
 4523SOL    HW114129   2.199   5.201   3.089
 4523SOL    HW214130   2.303   5.257   3.183
 4524SOL     OW14131   2.276   4.469   3.464
 4524SOL    HW114132   2.337   4.513   3.406
 4524SOL    HW214133   2.315   4.383   3.479
 4525SOL     OW14134   3.462   4.502   3.543
 4525SOL    HW114135   3.376   4.543   3.536
 4525SOL    HW214136   3.515   4.544   3.475
 4526SOL     OW14137   2.861   3.846   3.622
 4526SOL    HW114138   2.912   3.920   3.590
 4526SOL    HW214139   2.908   3.769   3.589
 4527SOL     OW14140   2.359   3.769   3.609
 4527SOL    HW114141   2.319   3.714   3.543
 4527SOL    HW214142   2.298   3.842   3.621
 4528SOL     OW14143   2.445   4.596   2.893
 4528SOL    HW114144   2.475   4.687   2.891
 4528SOL    HW214145   2.388   4.591   2.970
 4529SOL     OW14146   3.220   4.582   2.892
 4529SOL    HW114147   3.138   4.573   2.844
 4529SOL    HW214148   3.260   4.495   2.887
 4530SOL     OW14149   3.068   4.253   2.130
 4530SOL    HW114150   3.075   4.174   2.184
 4530SOL    HW214151   3.025   4.317   2.186
 4531SOL     OW14152   2.162   3.922   3.108
 4531SOL    HW114153   2.124   3.954   3.190
 4531SOL    HW214154   2.143   3.828   3.108
 4532SOL     OW14155   1.913   5.046   3.146
 4532SOL    HW114156   1.939   4.982   3.213
 4532SOL    HW214157   1.949   5.129   3.177
 4533SOL     OW14158   2.587   4.355   2.920
 4533SOL    HW114159   2.661   4.339   2.862
 4533SOL    HW214160   2.559   4.444   2.899
 4534SOL     OW14161   3.596   4.683   3.714
 4534SOL    HW114162   3.550   4.623   3.655
 4534SOL    HW214163   3.536   4.696   3.787
 4535SOL     OW14164   2.164   3.789   2.485
 4535SOL    HW114165   2.146   3.880   2.509
 4535SOL    HW214166   2.172   3.743   2.569
 4536SOL     OW14167   3.477   4.097   2.230
 4536SOL    HW114168   3.505   4.034   2.296
 4536SOL    HW214169   3.455   4.176   2.280
 4537SOL     OW14170   2.889   4.483   2.823
 4537SOL    HW114171   2.887   4.501   2.917
 4537SOL    HW214172   2.863   4.392   2.815
 4538SOL     OW14173   3.716   5.214   3.448
 4538SOL    HW114174   3.713   5.288   3.387
 4538SOL    HW214175   3.785   5.237   3.510
 4539SOL     OW14176   2.215   4.640   3.671
 4539SOL    HW114177   2.298   4.659   3.716
 4539SOL    HW214178   2.239   4.578   3.602
 4540SOL     OW14179   3.392   3.997   1.989
 4540SOL    HW114180   3.327   3.932   2.016
 4540SOL    HW214181   3.424   4.033   2.072
 4541SOL     OW14182   3.155   4.550   1.894
 4541SOL    HW114183   3.197   4.465   1.897
 4541SOL    HW214184   3.186   4.590   1.812
 4542SOL     OW14185   2.920   5.078   2.689
 4542SOL    HW114186   2.925   4.993   2.645
 4542SOL    HW214187   3.006   5.117   2.676
 4543SOL     OW14188   2.171   4.533   2.810
 4543SOL    HW114189   2.264   4.554   2.803
 4543SOL    HW214190   2.169   4.443   2.843
 4544SOL     OW14191   2.194   4.249   2.874
 4544SOL    HW114192   2.158   4.162   2.859
 4544SOL    HW214193   2.270   4.255   2.817
 4545SOL     OW14194   2.996   4.100   3.545
 4545SOL    HW114195   2.949   4.156   3.606
 4545SOL    HW214196   3.084   4.138   3.540
 4546SOL     OW14197   3.023   3.925   3.335
 4546SOL    HW114198   3.012   3.990   3.405
 4546SOL    HW214199   3.061   3.975   3.262
 4547SOL     OW14200   1.868   5.041   2.053
 4547SOL    HW114201   1.778   5.058   2.025
 4547SOL    HW214202   1.866   4.953   2.090
 4548SOL     OW14203   2.846   4.516   3.089
 4548SOL    HW114204   2.901   4.494   3.164
 4548SOL    HW214205   2.761   4.479   3.110
 4549SOL     OW14206   1.897   4.269   2.978
 4549SOL    HW114207   1.978   4.253   2.929
 4549SOL    HW214208   1.926   4.272   3.070
 4550SOL     OW14209   2.054   4.243   3.589
 4550SOL    HW114210   2.109   4.204   3.521
 4550SOL    HW214211   2.010   4.316   3.545
 4551SOL     OW14212   3.238   4.663   3.521
 4551SOL    HW114213   3.259   4.757   3.518
 4551SOL    HW214214   3.235   4.638   3.428
 4552SOL     OW14215   2.678   4.293   2.221
 4552SOL    HW114216   2.681   4.218   2.161
 4552SOL    HW214217   2.604   4.345   2.190
 4553SOL     OW14218   3.504   4.325   3.049
 4553SOL    HW114219   3.494   4.266   3.123
 4553SOL    HW214220   3.591   4.305   3.014
 4554SOL     OW14221   2.068   5.277   3.607
 4554SOL    HW114222   2.056   0.030   3.686
 4554SOL    HW214223   2.081   5.188   3.639
 4555SOL     OW14224   2.561   4.175   3.122
 4555SOL    HW114225   2.509   4.101   3.092
 4555SOL    HW214226   2.558   4.238   3.050
 4556SOL     OW14227   2.327   4.217   2.049
 4556SOL    HW114228   2.385   4.290   2.071
 4556SOL    HW214229   2.241   4.257   2.037
 4557SOL     OW14230   2.008   4.863   3.333
 4557SOL    HW114231   2.010   4.811   3.413
 4557SOL    HW214232   2.025   4.800   3.263
 4558SOL     OW14233   3.190   4.770   3.085
 4558SOL    HW114234   3.213   4.708   3.016
 4558SOL    HW214235   3.118   4.821   3.048
 4559SOL     OW14236   3.172   4.581   2.169
 4559SOL    HW114237   3.096   4.550   2.218
 4559SOL    HW214238   3.148   4.567   2.077
 4560SOL     OW14239   1.955   4.986   2.883
 4560SOL    HW114240   1.933   5.003   2.975
 4560SOL    HW214241   1.875   4.947   2.847
 4561SOL     OW14242   2.613   0.039   3.571
 4561SOL    HW114243   2.521   0.062   3.582
 4561SOL    HW214244   2.632   0.063   3.480
 4562SOL     OW14245   3.581   3.869   2.372
 4562SOL    HW114246   3.654   3.855   2.312
 4562SOL    HW214247   3.566   3.784   2.412
 4563SOL     OW14248   3.139   4.649   2.533
 4563SOL    HW114249   3.212   4.588   2.540
 4563SOL    HW214250   3.173   4.721   2.481
 4564SOL     OW14251   2.682   4.994   3.285
 4564SOL    HW114252   2.653   5.030   3.369
 4564SOL    HW214253   2.606   5.005   3.227
 4565SOL     OW14254   3.702   3.897   2.829
 4565SOL    HW114255   3.731   3.810   2.801
 4565SOL    HW214256   3.616   3.908   2.789
 4566SOL     OW14257   2.125   4.040   2.579
 4566SOL    HW114258   2.039   4.076   2.555
 4566SOL    HW214259   2.121   4.032   2.675
 4567SOL     OW14260   2.687   4.728   3.233
 4567SOL    HW114261   2.732   4.722   3.149
 4567SOL    HW214262   2.690   4.821   3.255
 4568SOL     OW14263   2.778   4.635   2.152
 4568SOL    HW114264   2.839   4.667   2.086
 4568SOL    HW214265   2.826   4.565   2.197
 4569SOL     OW14266   2.228   5.025   3.358
 4569SOL    HW114267   2.216   5.100   3.299
 4569SOL    HW214268   2.152   4.969   3.341
 4570SOL     OW14269   3.474   5.004   3.144
 4570SOL    HW114270   3.532   4.999   3.221
 4570SOL    HW214271   3.412   5.074   3.166
 4571SOL     OW14272   2.915   4.833   2.573
 4571SOL    HW114273   2.843   4.781   2.609
 4571SOL    HW214274   2.976   4.767   2.539
 4572SOL     OW14275   2.883   3.964   2.828
 4572SOL    HW114276   2.878   3.916   2.745
 4572SOL    HW214277   2.877   3.896   2.895
 4573SOL     OW14278   3.583   4.116   3.243
 4573SOL    HW114279   3.655   4.179   3.241
 4573SOL    HW214280   3.613   4.045   3.186
 4574SOL     OW14281   2.120   5.054   2.144
 4574SOL    HW114282   2.028   5.055   2.117
 4574SOL    HW214283   2.121   5.096   2.230
 4575SOL     OW14284   1.974   4.745   3.580
 4575SOL    HW114285   1.898   4.722   3.633
 4575SOL    HW214286   2.049   4.708   3.628
 4576SOL     OW14287   2.536   3.924   3.361
 4576SOL    HW114288   2.619   3.903   3.319
 4576SOL    HW214289   2.560   3.953   3.449
 4577SOL     OW14290   1.940   4.059   1.897
 4577SOL    HW114291   1.853   4.039   1.864
 4577SOL    HW214292   1.970   4.133   1.845
 4578SOL     OW14293   3.292   4.582   3.263
 4578SOL    HW114294   3.244   4.642   3.207
 4578SOL    HW214295   3.382   4.584   3.229
 4579SOL     OW14296   1.931   3.881   2.173
 4579SOL    HW114297   1.917   3.961   2.122
 4579SOL    HW214298   2.016   3.848   2.143
 4580SOL     OW14299   3.044   5.064   1.982
 4580SOL    HW114300   2.953   5.036   1.982
 4580SOL    HW214301   3.072   5.057   2.073
 4581SOL     OW14302   2.481   4.555   3.295
 4581SOL    HW114303   2.537   4.631   3.280
 4581SOL    HW214304   2.542   4.481   3.304
 4582SOL     OW14305   2.580   4.288   3.567
 4582SOL    HW114306   2.619   4.351   3.627
 4582SOL    HW214307   2.610   4.203   3.598
 4583SOL     OW14308   3.335   4.924   3.493
 4583SOL    HW114309   3.321   4.936   3.587
 4583SOL    HW214310   3.429   4.937   3.481
 4584SOL     OW14311   3.532   4.606   3.117
 4584SOL    HW114312   3.525   4.520   3.074
 4584SOL    HW214313   3.522   4.669   3.046
 4585SOL     OW14314   3.079   4.043   2.320
 4585SOL    HW114315   3.143   3.972   2.311
 4585SOL    HW214316   3.108   4.092   2.397
 4586SOL     OW14317   2.452   4.462   2.531
 4586SOL    HW114318   2.491   4.549   2.515
 4586SOL    HW214319   2.384   4.455   2.465
 4587SOL     OW14320   3.626   4.085   3.512
 4587SOL    HW114321   3.609   4.100   3.419
 4587SOL    HW214322   3.554   4.029   3.541
 4588SOL     OW14323   3.606   4.657   3.374
 4588SOL    HW114324   3.604   4.752   3.387
 4588SOL    HW214325   3.591   4.646   3.280
 4589SOL     OW14326   2.712   5.095   1.881
 4589SOL    HW114327   2.692   5.096   1.975
 4589SOL    HW214328   2.729   5.186   1.859
 4590SOL     OW14329   2.729   4.691   2.718
 4590SOL    HW114330   2.779   4.620   2.758
 4590SOL    HW214331   2.695   4.741   2.792
 4591SOL     OW14332   2.942   4.713   1.951
 4591SOL    HW114333   2.919   4.763   1.873
 4591SOL    HW214334   3.017   4.659   1.925
 4592SOL     OW14335   2.085   5.025   3.715
 4592SOL    HW114336   2.017   4.963   3.689
 4592SOL    HW214337   2.074   5.036   3.809
 4593SOL     OW14338   1.947   4.956   2.532
 4593SOL    HW114339   1.946   4.903   2.611
 4593SOL    HW214340   2.011   4.913   2.475
 4594SOL     OW14341   2.532   5.108   3.470
 4594SOL    HW114342   2.457   5.073   3.518
 4594SOL    HW214343   2.562   5.182   3.524
 4595SOL     OW14344   3.674   3.908   3.100
 4595SOL    HW114345   3.686   3.814   3.114
 4595SOL    HW214346   3.683   3.920   3.005
 4596SOL     OW14347   2.291   4.158   2.387
 4596SOL    HW114348   2.321   4.087   2.330
 4596SOL    HW214349   2.244   4.114   2.458
 4597SOL     OW14350   3.569   5.223   2.981
 4597SOL    HW114351   3.495   5.207   2.922
 4597SOL    HW214352   3.576   5.143   3.034
 4598SOL     OW14353   2.191   4.278   3.153
 4598SOL    HW114354   2.247   4.223   3.208
 4598SOL    HW214355   2.211   4.250   3.064
 4599SOL     OW14356   3.294   3.949   2.980
 4599SOL    HW114357   3.320   3.869   3.027
 4599SOL    HW214358   3.242   3.998   3.044
 4600SOL     OW14359   2.870   3.743   3.006
 4600SOL    HW114360   2.816   3.676   2.966
 4600SOL    HW214361   2.958   3.705   3.008
 4601SOL     OW14362   2.664   5.047   2.146
 4601SOL    HW114363   2.602   4.977   2.164
 4601SOL    HW214364   2.719   5.052   2.225
 4602SOL     OW14365   2.483   5.299   3.152
 4602SOL    HW114366   2.491   0.054   3.229
 4602SOL    HW214367   2.574   5.279   3.127
 4603SOL     OW14368   3.214   3.778   2.027
 4603SOL    HW114369   3.241   3.715   1.959
 4603SOL    HW214370   3.127   3.747   2.054
 4604SOL     OW14371   3.159   4.184   2.544
 4604SOL    HW114372   3.105   4.264   2.551
 4604SOL    HW214373   3.155   4.145   2.631
 4605SOL     OW14374   3.449   3.927   2.740
 4605SOL    HW114375   3.387   3.947   2.810
 4605SOL    HW214376   3.448   4.005   2.684
 4606SOL     OW14377   1.904   4.795   2.169
 4606SOL    HW114378   1.998   4.788   2.152
 4606SOL    HW214379   1.877   4.706   2.191
 4607SOL     OW14380   2.092   4.347   3.847
 4607SOL    HW114381   2.002   4.346   3.880
 4607SOL    HW214382   2.083   4.321   3.755
 4608SOL     OW14383   2.087   4.004   4.715
 4608SOL    HW114384   2.115   3.971   4.801
 4608SOL    HW214385   1.997   3.972   4.706
 4609SOL     OW14386   1.867   4.106   4.362
 4609SOL    HW114387   1.784   4.131   4.403
 4609SOL    HW214388   1.846   4.027   4.313
 4610SOL     OW14389   2.428   5.004   4.902
 4610SOL    HW114390   2.343   5.003   4.858
 4610SOL    HW214391   2.439   5.095   4.929
 4611SOL     OW14392   3.417   5.232   4.413
 4611SOL    HW114393   3.395   5.229   4.506
 4611SOL    HW214394   3.338   5.268   4.371
 4612SOL     OW14395   2.992   4.422   4.426
 4612SOL    HW114396   3.041   4.503   4.411
 4612SOL    HW214397   2.945   4.437   4.508
 4613SOL     OW14398   3.628   4.330   3.953
 4613SOL    HW114399   3.608   4.322   3.860
 4613SOL    HW214400   3.593   4.250   3.992
 4614SOL     OW14401   2.619   4.869   4.762
 4614SOL    HW114402   2.551   4.900   4.821
 4614SOL    HW214403   2.649   4.948   4.716
 4615SOL     OW14404   2.727   4.500   5.546
 4615SOL    HW114405   2.714   4.572   5.608
 4615SOL    HW214406   2.751   4.544   5.464
 4616SOL     OW14407   2.548   4.727   4.372
 4616SOL    HW114408   2.612   4.716   4.442
 4616SOL    HW214409   2.479   4.780   4.412
 4617SOL     OW14410   2.570   4.873   5.534
 4617SOL    HW114411   2.618   4.952   5.559
 4617SOL    HW214412   2.487   4.905   5.500
 4618SOL     OW14413   2.199   5.153   4.784
 4618SOL    HW114414   2.122   5.108   4.748
 4618SOL    HW214415   2.239   5.196   4.710
 4619SOL     OW14416   3.317   5.220   5.071
 4619SOL    HW114417   3.371   5.293   5.102
 4619SOL    HW214418   3.251   5.208   5.138
 4620SOL     OW14419   2.310   4.122   5.211
 4620SOL    HW114420   2.385   4.063   5.218
 4620SOL    HW214421   2.234   4.066   5.225
 4621SOL     OW14422   3.474   4.172   4.464
 4621SOL    HW114423   3.400   4.197   4.409
 4621SOL    HW214424   3.492   4.250   4.517
 4622SOL     OW14425   2.995   5.072   5.424
 4622SOL    HW114426   3.026   5.072   5.514
 4622SOL    HW214427   2.942   4.993   5.417
 4623SOL     OW14428   2.072   5.155   4.244
 4623SOL    HW114429   2.097   5.238   4.284
 4623SOL    HW214430   2.020   5.111   4.311
 4624SOL     OW14431   2.119   4.812   4.616
 4624SOL    HW114432   2.116   4.724   4.655
 4624SOL    HW214433   2.061   4.865   4.670
 4625SOL     OW14434   2.448   4.705   3.857
 4625SOL    HW114435   2.494   4.754   3.789
 4625SOL    HW214436   2.488   4.735   3.939
 4626SOL     OW14437   3.457   3.846   5.193
 4626SOL    HW114438   3.465   3.926   5.141
 4626SOL    HW214439   3.445   3.876   5.283
 4627SOL     OW14440   1.977   4.376   4.283
 4627SOL    HW114441   1.947   4.287   4.304
 4627SOL    HW214442   1.968   4.424   4.366
 4628SOL     OW14443   1.848   0.014   3.823
 4628SOL    HW114444   1.865   5.225   3.853
 4628SOL    HW214445   1.871   0.069   3.898
 4629SOL     OW14446   3.550   4.641   4.363
 4629SOL    HW114447   3.635   4.601   4.344
 4629SOL    HW214448   3.530   4.693   4.285
 4630SOL     OW14449   3.507   4.831   4.154
 4630SOL    HW114450   3.592   4.837   4.110
 4630SOL    HW214451   3.513   4.892   4.227
 4631SOL     OW14452   1.985   4.466   5.310
 4631SOL    HW114453   2.077   4.491   5.320
 4631SOL    HW214454   1.937   4.549   5.318
 4632SOL     OW14455   2.484   5.097   4.460
 4632SOL    HW114456   2.429   5.018   4.459
 4632SOL    HW214457   2.464   5.140   4.377
 4633SOL     OW14458   3.151   4.955   5.150
 4633SOL    HW114459   3.186   4.889   5.089
 4633SOL    HW214460   3.210   4.952   5.225
 4634SOL     OW14461   2.678   3.725   4.243
 4634SOL    HW114462   2.717   3.808   4.217
 4634SOL    HW214463   2.584   3.743   4.247
 4635SOL     OW14464   2.053   4.691   4.993
 4635SOL    HW114465   2.137   4.648   4.979
 4635SOL    HW214466   1.989   4.636   4.948
 4636SOL     OW14467   3.393   4.718   3.921
 4636SOL    HW114468   3.324   4.660   3.953
 4636SOL    HW214469   3.434   4.752   4.000
 4637SOL     OW14470   2.194   3.975   5.534
 4637SOL    HW114471   2.239   4.057   5.551
 4637SOL    HW214472   2.105   3.989   5.566
 4638SOL     OW14473   3.338   5.146   4.686
 4638SOL    HW114474   3.265   5.159   4.747
 4638SOL    HW214475   3.325   5.058   4.652
 4639SOL     OW14476   2.458   4.446   3.989
 4639SOL    HW114477   2.465   4.527   3.939
 4639SOL    HW214478   2.393   4.465   4.057
 4640SOL     OW14479   3.141   4.075   4.656
 4640SOL    HW114480   3.052   4.043   4.665
 4640SOL    HW214481   3.192   4.022   4.718
 4641SOL     OW14482   2.655   4.341   5.176
 4641SOL    HW114483   2.628   4.318   5.265
 4641SOL    HW214484   2.613   4.275   5.120
 4642SOL     OW14485   3.255   4.198   5.402
 4642SOL    HW114486   3.257   4.242   5.486
 4642SOL    HW214487   3.318   4.126   5.411
 4643SOL     OW14488   2.817   4.612   5.306
 4643SOL    HW114489   2.872   4.542   5.271
 4643SOL    HW214490   2.770   4.646   5.230
 4644SOL     OW14491   2.854   4.136   4.964
 4644SOL    HW114492   2.770   4.159   5.001
 4644SOL    HW214493   2.832   4.092   4.881
 4645SOL     OW14494   2.913   4.422   4.150
 4645SOL    HW114495   2.928   4.416   4.244
 4645SOL    HW214496   2.830   4.376   4.136
 4646SOL     OW14497   1.950   4.544   4.500
 4646SOL    HW114498   2.031   4.538   4.550
 4646SOL    HW214499   1.907   4.622   4.535
 4647SOL     OW14500   2.754   4.072   3.919
 4647SOL    HW114501   2.794   4.135   3.858
 4647SOL    HW214502   2.769   3.987   3.878
 4648SOL     OW14503   3.571   4.299   5.552
 4648SOL    HW114504   3.533   4.373   5.505
 4648SOL    HW214505   3.598   4.239   5.483
 4649SOL     OW14506   3.238   4.864   4.264
 4649SOL    HW114507   3.319   4.850   4.215
 4649SOL    HW214508   3.188   4.925   4.210
 4650SOL     OW14509   2.411   3.904   4.618
 4650SOL    HW114510   2.413   3.934   4.708
 4650SOL    HW214511   2.412   3.985   4.566
 4651SOL     OW14512   2.884   5.171   4.193
 4651SOL    HW114513   2.805   5.225   4.186
 4651SOL    HW214514   2.898   5.162   4.288
 4652SOL     OW14515   3.662   4.781   4.590
 4652SOL    HW114516   3.604   4.765   4.515
 4652SOL    HW214517   3.602   4.788   4.665
 4653SOL     OW14518   3.112   5.239   5.247
 4653SOL    HW114519   3.075   5.173   5.306
 4653SOL    HW214520   3.041   5.259   5.186
 4654SOL     OW14521   2.183   4.680   3.974
 4654SOL    HW114522   2.265   4.699   3.928
 4654SOL    HW214523   2.152   4.599   3.933
 4655SOL     OW14524   3.339   4.465   4.452
 4655SOL    HW114525   3.331   4.422   4.537
 4655SOL    HW214526   3.417   4.521   4.460
 4656SOL     OW14527   2.326   4.987   5.464
 4656SOL    HW114528   2.299   4.990   5.372
 4656SOL    HW214529   2.244   4.986   5.513
 4657SOL     OW14530   2.938   0.182   3.932
 4657SOL    HW114531   2.937   0.106   3.989
 4657SOL    HW214532   2.967   0.148   3.847
 4658SOL     OW14533   2.062   4.006   5.225
 4658SOL    HW114534   1.980   4.055   5.219
 4658SOL    HW214535   2.045   3.938   5.290
 4659SOL     OW14536   3.485   5.100   3.830
 4659SOL    HW114537   3.480   5.178   3.776
 4659SOL    HW214538   3.416   5.043   3.797
 4660SOL     OW14539   3.265   3.832   4.158
 4660SOL    HW114540   3.255   3.809   4.066
 4660SOL    HW214541   3.359   3.839   4.171
 4661SOL     OW14542   2.254   4.419   4.201
 4661SOL    HW114543   2.276   4.327   4.212
 4661SOL    HW214544   2.160   4.424   4.218
 4662SOL     OW14545   3.399   3.949   5.449
 4662SOL    HW114546   3.408   3.970   5.542
 4662SOL    HW214547   3.329   3.884   5.446
 4663SOL     OW14548   2.495   3.843   3.831
 4663SOL    HW114549   2.572   3.786   3.834
 4663SOL    HW214550   2.446   3.814   3.754
 4664SOL     OW14551   2.629   4.001   5.477
 4664SOL    HW114552   2.703   3.941   5.481
 4664SOL    HW214553   2.580   3.983   5.557
 4665SOL     OW14554   3.203   4.312   5.156
 4665SOL    HW114555   3.234   4.281   5.241
 4665SOL    HW214556   3.239   4.401   5.148
 4666SOL     OW14557   2.674   5.121   4.659
 4666SOL    HW114558   2.754   5.106   4.609
 4666SOL    HW214559   2.605   5.126   4.592
 4667SOL     OW14560   2.789   4.233   4.627
 4667SOL    HW114561   2.766   4.225   4.535
 4667SOL    HW214562   2.822   4.146   4.651
 4668SOL     OW14563   2.411   3.787   4.229
 4668SOL    HW114564   2.330   3.789   4.279
 4668SOL    HW214565   2.407   3.865   4.173
 4669SOL     OW14566   3.289   4.924   3.763
 4669SOL    HW114567   3.320   4.848   3.813
 4669SOL    HW214568   3.202   4.941   3.797
 4670SOL     OW14569   2.151   3.775   3.907
 4670SOL    HW114570   2.211   3.838   3.866
 4670SOL    HW214571   2.208   3.712   3.951
 4671SOL     OW14572   2.800   3.969   4.184
 4671SOL    HW114573   2.772   4.011   4.103
 4671SOL    HW214574   2.895   3.984   4.188
 4672SOL     OW14575   2.942   4.404   5.184
 4672SOL    HW114576   2.873   4.338   5.189
 4672SOL    HW214577   3.023   4.354   5.177
 4673SOL     OW14578   3.126   5.267   4.504
 4673SOL    HW114579   3.086   0.049   4.474
 4673SOL    HW214580   3.170   5.290   4.586
 4674SOL     OW14581   2.327   4.871   4.456
 4674SOL    HW114582   2.258   4.852   4.519
 4674SOL    HW214583   2.288   4.853   4.371
 4675SOL     OW14584   2.885   4.267   3.746
 4675SOL    HW114585   2.843   4.350   3.725
 4675SOL    HW214586   2.951   4.289   3.812
 4676SOL     OW14587   1.940   4.279   5.116
 4676SOL    HW114588   2.032   4.277   5.089
 4676SOL    HW214589   1.935   4.349   5.181
 4677SOL     OW14590   2.421   3.950   4.889
 4677SOL    HW114591   2.462   3.875   4.933
 4677SOL    HW214592   2.330   3.949   4.919
 4678SOL     OW14593   2.729   4.182   4.364
 4678SOL    HW114594   2.684   4.238   4.300
 4678SOL    HW214595   2.750   4.102   4.316
 4679SOL     OW14596   2.873   3.777   4.479
 4679SOL    HW114597   2.817   3.769   4.402
 4679SOL    HW214598   2.854   3.699   4.531
 4680SOL     OW14599   3.299   4.890   4.583
 4680SOL    HW114600   3.232   4.821   4.579
 4680SOL    HW214601   3.325   4.904   4.492
 4681SOL     OW14602   3.328   4.329   4.702
 4681SOL    HW114603   3.279   4.247   4.706
 4681SOL    HW214604   3.389   4.323   4.776
 4682SOL     OW14605   3.708   4.540   4.106
 4682SOL    HW114606   3.764   4.489   4.164
 4682SOL    HW214607   3.679   4.478   4.039
 4683SOL     OW14608   2.344   5.145   3.879
 4683SOL    HW114609   2.281   5.094   3.930
 4683SOL    HW214610   2.342   5.106   3.792
 4684SOL     OW14611   3.531   4.987   4.372
 4684SOL    HW114612   3.625   4.993   4.388
 4684SOL    HW214613   3.497   5.075   4.388
 4685SOL     OW14614   3.256   4.296   3.795
 4685SOL    HW114615   3.196   4.277   3.867
 4685SOL    HW214616   3.341   4.265   3.826
 4686SOL     OW14617   2.389   3.986   4.044
 4686SOL    HW114618   2.430   3.937   3.973
 4686SOL    HW214619   2.367   4.071   4.005
 4687SOL     OW14620   3.614   4.959   5.301
 4687SOL    HW114621   3.700   4.918   5.300
 4687SOL    HW214622   3.632   5.052   5.315
 4688SOL     OW14623   2.927   5.074   5.055
 4688SOL    HW114624   2.848   5.049   5.104
 4688SOL    HW214625   2.999   5.035   5.103
 4689SOL     OW14626   2.987   4.924   4.832
 4689SOL    HW114627   2.937   4.966   4.902
 4689SOL    HW214628   2.943   4.952   4.751
 4690SOL     OW14629   3.491   4.823   4.801
 4690SOL    HW114630   3.487   4.884   4.874
 4690SOL    HW214631   3.413   4.841   4.750
 4691SOL     OW14632   2.781   3.821   5.122
 4691SOL    HW114633   2.803   3.804   5.030
 4691SOL    HW214634   2.859   3.861   5.159
 4692SOL     OW14635   2.846   4.839   5.449
 4692SOL    HW114636   2.754   4.854   5.467
 4692SOL    HW214637   2.847   4.762   5.391
 4693SOL     OW14638   2.567   4.782   4.096
 4693SOL    HW114639   2.555   4.767   4.190
 4693SOL    HW214640   2.644   4.731   4.073
 4694SOL     OW14641   2.280   4.538   4.975
 4694SOL    HW114642   2.349   4.548   5.041
 4694SOL    HW214643   2.245   4.451   4.990
 4695SOL     OW14644   3.128   4.101   4.999
 4695SOL    HW114645   3.161   4.178   5.044
 4695SOL    HW214646   3.038   4.124   4.975
 4696SOL     OW14647   2.211   4.832   4.214
 4696SOL    HW114648   2.214   4.905   4.152
 4696SOL    HW214649   2.210   4.753   4.158
 4697SOL     OW14650   2.416   4.261   4.584
 4697SOL    HW114651   2.431   4.319   4.510
 4697SOL    HW214652   2.480   4.289   4.650
 4698SOL     OW14653   3.121   5.076   4.110
 4698SOL    HW114654   3.177   5.144   4.147
 4698SOL    HW214655   3.033   5.099   4.139
 4699SOL     OW14656   3.131   5.181   4.866
 4699SOL    HW114657   3.190   5.195   4.939
 4699SOL    HW214658   3.086   5.099   4.886
 4700SOL     OW14659   3.444   4.347   4.202
 4700SOL    HW114660   3.398   4.402   4.266
 4700SOL    HW214661   3.490   4.409   4.145
 4701SOL     OW14662   2.210   5.236   5.039
 4701SOL    HW114663   2.199   5.201   4.951
 4701SOL    HW214664   2.303   5.257   5.045
 4702SOL     OW14665   2.276   4.469   5.326
 4702SOL    HW114666   2.337   4.513   5.268
 4702SOL    HW214667   2.316   4.383   5.342
 4703SOL     OW14668   3.462   4.502   5.405
 4703SOL    HW114669   3.376   4.543   5.398
 4703SOL    HW214670   3.515   4.544   5.337
 4704SOL     OW14671   2.858   3.846   5.479
 4704SOL    HW114672   2.912   3.919   5.451
 4704SOL    HW214673   2.907   3.768   5.454
 4705SOL     OW14674   2.360   3.765   5.471
 4705SOL    HW114675   2.316   3.711   5.405
 4705SOL    HW214676   2.300   3.839   5.483
 4706SOL     OW14677   2.446   4.596   4.756
 4706SOL    HW114678   2.475   4.687   4.753
 4706SOL    HW214679   2.388   4.591   4.832
 4707SOL     OW14680   3.220   4.582   4.754
 4707SOL    HW114681   3.138   4.573   4.706
 4707SOL    HW214682   3.260   4.495   4.749
 4708SOL     OW14683   3.068   4.252   3.992
 4708SOL    HW114684   3.075   4.174   4.047
 4708SOL    HW214685   3.025   4.317   4.048
 4709SOL     OW14686   2.161   3.924   4.971
 4709SOL    HW114687   2.124   3.956   5.052
 4709SOL    HW214688   2.143   3.830   4.971
 4710SOL     OW14689   1.913   5.046   5.008
 4710SOL    HW114690   1.939   4.982   5.075
 4710SOL    HW214691   1.949   5.129   5.039
 4711SOL     OW14692   2.586   4.355   4.782
 4711SOL    HW114693   2.661   4.339   4.724
 4711SOL    HW214694   2.558   4.444   4.762
 4712SOL     OW14695   3.596   4.683   5.576
 4712SOL    HW114696   3.549   4.623   5.517
 4712SOL    HW214697   3.537   4.696   5.649
 4713SOL     OW14698   2.166   3.792   4.346
 4713SOL    HW114699   2.146   3.883   4.369
 4713SOL    HW214700   2.170   3.746   4.430
 4714SOL     OW14701   3.477   4.098   4.091
 4714SOL    HW114702   3.505   4.034   4.157
 4714SOL    HW214703   3.455   4.176   4.141
 4715SOL     OW14704   2.889   4.483   4.685
 4715SOL    HW114705   2.887   4.501   4.779
 4715SOL    HW214706   2.863   4.392   4.677
 4716SOL     OW14707   3.716   5.214   5.310
 4716SOL    HW114708   3.713   5.288   5.249
 4716SOL    HW214709   3.785   5.237   5.372
 4717SOL     OW14710   2.215   4.640   5.532
 4717SOL    HW114711   2.297   4.659   5.578
 4717SOL    HW214712   2.239   4.578   5.464
 4718SOL     OW14713   3.392   3.996   3.852
 4718SOL    HW114714   3.326   3.933   3.880
 4718SOL    HW214715   3.426   4.034   3.933
 4719SOL     OW14716   3.155   4.550   3.755
 4719SOL    HW114717   3.197   4.465   3.759
 4719SOL    HW214718   3.185   4.590   3.674
 4720SOL     OW14719   2.920   5.078   4.551
 4720SOL    HW114720   2.925   4.993   4.508
 4720SOL    HW214721   3.006   5.117   4.538
 4721SOL     OW14722   2.171   4.533   4.672
 4721SOL    HW114723   2.264   4.554   4.665
 4721SOL    HW214724   2.169   4.444   4.705
 4722SOL     OW14725   2.194   4.249   4.736
 4722SOL    HW114726   2.159   4.161   4.721
 4722SOL    HW214727   2.270   4.255   4.679
 4723SOL     OW14728   2.996   4.100   5.406
 4723SOL    HW114729   2.949   4.155   5.468
 4723SOL    HW214730   3.084   4.138   5.402
 4724SOL     OW14731   3.023   3.927   5.194
 4724SOL    HW114732   3.012   3.990   5.266
 4724SOL    HW214733   3.062   3.978   5.123
 4725SOL     OW14734   1.868   5.042   3.915
 4725SOL    HW114735   1.778   5.058   3.887
 4725SOL    HW214736   1.866   4.953   3.952
 4726SOL     OW14737   2.846   4.516   4.951
 4726SOL    HW114738   2.902   4.493   5.025
 4726SOL    HW214739   2.760   4.480   4.973
 4727SOL     OW14740   1.898   4.268   4.841
 4727SOL    HW114741   1.979   4.254   4.791
 4727SOL    HW214742   1.926   4.272   4.932
 4728SOL     OW14743   2.053   4.243   5.451
 4728SOL    HW114744   2.110   4.205   5.384
 4728SOL    HW214745   2.009   4.316   5.407
 4729SOL     OW14746   3.238   4.663   5.382
 4729SOL    HW114747   3.259   4.757   5.381
 4729SOL    HW214748   3.235   4.638   5.290
 4730SOL     OW14749   2.678   4.293   4.083
 4730SOL    HW114750   2.681   4.219   4.023
 4730SOL    HW214751   2.604   4.346   4.052
 4731SOL     OW14752   3.504   4.325   4.911
 4731SOL    HW114753   3.494   4.266   4.986
 4731SOL    HW214754   3.591   4.305   4.876
 4732SOL     OW14755   2.068   5.277   5.469
 4732SOL    HW114756   2.056   0.030   5.547
 4732SOL    HW214757   2.080   5.188   5.501
 4733SOL     OW14758   2.562   4.175   4.984
 4733SOL    HW114759   2.509   4.101   4.953
 4733SOL    HW214760   2.559   4.238   4.912
 4734SOL     OW14761   2.327   4.216   3.913
 4734SOL    HW114762   2.385   4.290   3.933
 4734SOL    HW214763   2.241   4.256   3.899
 4735SOL     OW14764   2.008   4.863   5.195
 4735SOL    HW114765   2.010   4.811   5.275
 4735SOL    HW214766   2.025   4.800   5.125
 4736SOL     OW14767   3.190   4.770   4.947
 4736SOL    HW114768   3.213   4.708   4.878
 4736SOL    HW214769   3.118   4.821   4.910
 4737SOL     OW14770   3.172   4.581   4.030
 4737SOL    HW114771   3.096   4.550   4.080
 4737SOL    HW214772   3.148   4.567   3.939
 4738SOL     OW14773   1.955   4.986   4.745
 4738SOL    HW114774   1.933   5.003   4.837
 4738SOL    HW214775   1.875   4.948   4.709
 4739SOL     OW14776   2.613   0.039   5.433
 4739SOL    HW114777   2.521   0.062   5.444
 4739SOL    HW214778   2.632   0.063   5.342
 4740SOL     OW14779   3.581   3.869   4.234
 4740SOL    HW114780   3.654   3.856   4.174
 4740SOL    HW214781   3.566   3.784   4.274
 4741SOL     OW14782   3.139   4.649   4.395
 4741SOL    HW114783   3.213   4.588   4.402
 4741SOL    HW214784   3.173   4.721   4.343
 4742SOL     OW14785   2.682   4.993   5.147
 4742SOL    HW114786   2.653   5.029   5.231
 4742SOL    HW214787   2.606   5.005   5.089
 4743SOL     OW14788   3.702   3.897   4.691
 4743SOL    HW114789   3.731   3.811   4.664
 4743SOL    HW214790   3.616   3.907   4.651
 4744SOL     OW14791   2.124   4.041   4.442
 4744SOL    HW114792   2.039   4.077   4.417
 4744SOL    HW214793   2.120   4.033   4.537
 4745SOL     OW14794   2.687   4.728   5.094
 4745SOL    HW114795   2.732   4.723   5.010
 4745SOL    HW214796   2.690   4.821   5.118
 4746SOL     OW14797   2.778   4.635   4.015
 4746SOL    HW114798   2.839   4.668   3.948
 4746SOL    HW214799   2.826   4.565   4.058
 4747SOL     OW14800   2.228   5.025   5.220
 4747SOL    HW114801   2.216   5.100   5.161
 4747SOL    HW214802   2.152   4.969   5.203
 4748SOL     OW14803   3.474   5.004   5.006
 4748SOL    HW114804   3.532   4.999   5.083
 4748SOL    HW214805   3.412   5.074   5.028
 4749SOL     OW14806   2.915   4.833   4.435
 4749SOL    HW114807   2.843   4.781   4.471
 4749SOL    HW214808   2.976   4.767   4.400
 4750SOL     OW14809   2.882   3.965   4.691
 4750SOL    HW114810   2.877   3.918   4.608
 4750SOL    HW214811   2.878   3.897   4.758
 4751SOL     OW14812   3.583   4.116   5.104
 4751SOL    HW114813   3.655   4.179   5.103
 4751SOL    HW214814   3.613   4.045   5.048
 4752SOL     OW14815   2.120   5.053   4.006
 4752SOL    HW114816   2.028   5.055   3.979
 4752SOL    HW214817   2.121   5.096   4.092
 4753SOL     OW14818   1.974   4.745   5.442
 4753SOL    HW114819   1.898   4.722   5.496
 4753SOL    HW214820   2.049   4.708   5.490
 4754SOL     OW14821   2.536   3.921   5.223
 4754SOL    HW114822   2.620   3.901   5.182
 4754SOL    HW214823   2.558   3.951   5.311
 4755SOL     OW14824   1.939   4.059   3.760
 4755SOL    HW114825   1.852   4.039   3.725
 4755SOL    HW214826   1.969   4.134   3.708
 4756SOL     OW14827   3.292   4.582   5.124
 4756SOL    HW114828   3.244   4.642   5.069
 4756SOL    HW214829   3.382   4.585   5.091
 4757SOL     OW14830   1.930   3.882   4.035
 4757SOL    HW114831   1.916   3.962   3.984
 4757SOL    HW214832   2.015   3.849   4.004
 4758SOL     OW14833   3.044   5.064   3.844
 4758SOL    HW114834   2.953   5.036   3.844
 4758SOL    HW214835   3.072   5.056   3.935
 4759SOL     OW14836   2.481   4.555   5.157
 4759SOL    HW114837   2.537   4.631   5.142
 4759SOL    HW214838   2.542   4.481   5.166
 4760SOL     OW14839   2.580   4.288   5.428
 4760SOL    HW114840   2.618   4.352   5.489
 4760SOL    HW214841   2.610   4.203   5.461
 4761SOL     OW14842   3.335   4.924   5.355
 4761SOL    HW114843   3.321   4.936   5.449
 4761SOL    HW214844   3.429   4.937   5.343
 4762SOL     OW14845   3.532   4.606   4.979
 4762SOL    HW114846   3.525   4.520   4.936
 4762SOL    HW214847   3.522   4.669   4.908
 4763SOL     OW14848   3.079   4.042   4.182
 4763SOL    HW114849   3.144   3.972   4.173
 4763SOL    HW214850   3.107   4.092   4.259
 4764SOL     OW14851   2.452   4.462   4.393
 4764SOL    HW114852   2.491   4.548   4.378
 4764SOL    HW214853   2.384   4.455   4.327
 4765SOL     OW14854   3.626   4.084   5.374
 4765SOL    HW114855   3.608   4.100   5.281
 4765SOL    HW214856   3.554   4.029   5.403
 4766SOL     OW14857   3.606   4.657   5.236
 4766SOL    HW114858   3.604   4.752   5.250
 4766SOL    HW214859   3.591   4.646   5.142
 4767SOL     OW14860   2.712   5.095   3.743
 4767SOL    HW114861   2.692   5.096   3.837
 4767SOL    HW214862   2.729   5.186   3.721
 4768SOL     OW14863   2.729   4.691   4.580
 4768SOL    HW114864   2.779   4.620   4.620
 4768SOL    HW214865   2.695   4.741   4.654
 4769SOL     OW14866   2.942   4.713   3.814
 4769SOL    HW114867   2.919   4.763   3.735
 4769SOL    HW214868   3.017   4.659   3.787
 4770SOL     OW14869   2.085   5.025   5.577
 4770SOL    HW114870   2.017   4.963   5.552
 4770SOL    HW214871   2.074   5.036   5.671
 4771SOL     OW14872   1.947   4.956   4.394
 4771SOL    HW114873   1.946   4.903   4.473
 4771SOL    HW214874   2.011   4.913   4.337
 4772SOL     OW14875   2.532   5.108   5.332
 4772SOL    HW114876   2.457   5.073   5.380
 4772SOL    HW214877   2.562   5.181   5.386
 4773SOL     OW14878   3.673   3.908   4.962
 4773SOL    HW114879   3.687   3.814   4.976
 4773SOL    HW214880   3.683   3.920   4.867
 4774SOL     OW14881   2.292   4.158   4.250
 4774SOL    HW114882   2.321   4.087   4.192
 4774SOL    HW214883   2.244   4.114   4.320
 4775SOL     OW14884   3.569   5.223   4.843
 4775SOL    HW114885   3.495   5.207   4.784
 4775SOL    HW214886   3.576   5.143   4.896
 4776SOL     OW14887   2.191   4.279   5.015
 4776SOL    HW114888   2.246   4.223   5.070
 4776SOL    HW214889   2.211   4.251   4.926
 4777SOL     OW14890   3.293   3.948   4.842
 4777SOL    HW114891   3.323   3.871   4.891
 4777SOL    HW214892   3.241   3.998   4.905
 4778SOL     OW14893   2.871   3.743   4.866
 4778SOL    HW114894   2.817   3.670   4.836
 4778SOL    HW214895   2.960   3.708   4.870
 4779SOL     OW14896   2.664   5.048   4.008
 4779SOL    HW114897   2.602   4.977   4.026
 4779SOL    HW214898   2.719   5.052   4.087
 4780SOL     OW14899   2.484   5.299   5.014
 4780SOL    HW114900   2.491   0.054   5.092
 4780SOL    HW214901   2.574   5.279   4.989
 4781SOL     OW14902   3.213   3.780   3.892
 4781SOL    HW114903   3.242   3.729   3.816
 4781SOL    HW214904   3.131   3.740   3.919
 4782SOL     OW14905   3.158   4.184   4.405
 4782SOL    HW114906   3.105   4.264   4.413
 4782SOL    HW214907   3.155   4.145   4.492
 4783SOL     OW14908   3.448   3.927   4.601
 4783SOL    HW114909   3.386   3.947   4.672
 4783SOL    HW214910   3.448   4.005   4.546
 4784SOL     OW14911   1.904   4.795   4.031
 4784SOL    HW114912   1.998   4.788   4.014
 4784SOL    HW214913   1.877   4.706   4.053
 4785SOL     OW14914   2.092   4.347   5.709
 4785SOL    HW114915   2.002   4.347   5.743
 4785SOL    HW214916   2.083   4.321   5.617
 4786SOL     OW14917   2.086   4.005   6.577
 4786SOL    HW114918   2.115   3.971   6.662
 4786SOL    HW214919   1.997   3.972   6.568
 4787SOL     OW14920   1.867   4.107   6.224
 4787SOL    HW114921   1.784   4.131   6.265
 4787SOL    HW214922   1.846   4.027   6.175
 4788SOL     OW14923   2.428   5.004   6.764
 4788SOL    HW114924   2.343   5.002   6.720
 4788SOL    HW214925   2.439   5.096   6.791
 4789SOL     OW14926   3.417   5.232   6.275
 4789SOL    HW114927   3.395   5.229   6.368
 4789SOL    HW214928   3.338   5.267   6.233
 4790SOL     OW14929   2.992   4.422   6.288
 4790SOL    HW114930   3.041   4.503   6.274
 4790SOL    HW214931   2.945   4.437   6.370
 4791SOL     OW14932   3.628   4.330   5.815
 4791SOL    HW114933   3.608   4.322   5.722
 4791SOL    HW214934   3.593   4.250   5.855
 4792SOL     OW14935   2.619   4.869   6.624
 4792SOL    HW114936   2.551   4.900   6.683
 4792SOL    HW214937   2.649   4.948   6.578
 4793SOL     OW14938   2.727   4.502   7.406
 4793SOL    HW114939   2.711   4.577   7.464
 4793SOL    HW214940   2.752   4.541   7.323
 4794SOL     OW14941   2.548   4.728   6.234
 4794SOL    HW114942   2.613   4.716   6.304
 4794SOL    HW214943   2.479   4.780   6.274
 4795SOL     OW14944   2.570   4.873   7.396
 4795SOL    HW114945   2.618   4.953   7.420
 4795SOL    HW214946   2.487   4.905   7.362
 4796SOL     OW14947   2.199   5.153   6.647
 4796SOL    HW114948   2.122   5.108   6.610
 4796SOL    HW214949   2.240   5.196   6.571
 4797SOL     OW14950   3.317   5.220   6.933
 4797SOL    HW114951   3.371   5.293   6.965
 4797SOL    HW214952   3.251   5.208   7.000
 4798SOL     OW14953   2.310   4.123   7.075
 4798SOL    HW114954   2.386   4.064   7.080
 4798SOL    HW214955   2.234   4.066   7.087
 4799SOL     OW14956   3.474   4.172   6.326
 4799SOL    HW114957   3.399   4.196   6.272
 4799SOL    HW214958   3.491   4.250   6.379
 4800SOL     OW14959   2.995   5.071   7.285
 4800SOL    HW114960   3.028   5.071   7.375
 4800SOL    HW214961   2.941   4.992   7.278
 4801SOL     OW14962   2.072   5.155   6.106
 4801SOL    HW114963   2.097   5.238   6.147
 4801SOL    HW214964   2.020   5.110   6.173
 4802SOL     OW14965   2.119   4.811   6.478
 4802SOL    HW114966   2.117   4.724   6.517
 4802SOL    HW214967   2.061   4.864   6.533
 4803SOL     OW14968   2.448   4.705   5.719
 4803SOL    HW114969   2.494   4.754   5.651
 4803SOL    HW214970   2.488   4.735   5.801
 4804SOL     OW14971   3.458   3.847   7.054
 4804SOL    HW114972   3.462   3.927   7.003
 4804SOL    HW214973   3.444   3.876   7.144
 4805SOL     OW14974   1.977   4.376   6.145
 4805SOL    HW114975   1.948   4.287   6.166
 4805SOL    HW214976   1.968   4.424   6.228
 4806SOL     OW14977   1.848   0.014   5.685
 4806SOL    HW114978   1.865   5.225   5.715
 4806SOL    HW214979   1.871   0.069   5.760
 4807SOL     OW14980   3.551   4.642   6.225
 4807SOL    HW114981   3.635   4.601   6.206
 4807SOL    HW214982   3.530   4.693   6.147
 4808SOL     OW14983   3.507   4.831   6.016
 4808SOL    HW114984   3.592   4.837   5.972
 4808SOL    HW214985   3.513   4.892   6.089
 4809SOL     OW14986   1.985   4.466   7.172
 4809SOL    HW114987   2.077   4.490   7.181
 4809SOL    HW214988   1.937   4.548   7.180
 4810SOL     OW14989   2.484   5.097   6.322
 4810SOL    HW114990   2.429   5.018   6.321
 4810SOL    HW214991   2.464   5.140   6.239
 4811SOL     OW14992   3.151   4.955   7.012
 4811SOL    HW114993   3.186   4.889   6.951
 4811SOL    HW214994   3.210   4.952   7.087
 4812SOL     OW14995   2.675   3.723   6.091
 4812SOL    HW114996   2.716   3.808   6.075
 4812SOL    HW214997   2.582   3.743   6.103
 4813SOL     OW14998   2.053   4.691   6.855
 4813SOL    HW114999   2.137   4.648   6.841
 4813SOL    HW215000   1.989   4.635   6.810
 4814SOL     OW15001   3.393   4.718   5.783
 4814SOL    HW115002   3.323   4.660   5.814
 4814SOL    HW215003   3.434   4.752   5.862
 4815SOL     OW15004   2.194   3.973   7.397
 4815SOL    HW115005   2.239   4.056   7.411
 4815SOL    HW215006   2.105   3.989   7.428
 4816SOL     OW15007   3.338   5.146   6.548
 4816SOL    HW115008   3.265   5.159   6.609
 4816SOL    HW215009   3.325   5.058   6.514
 4817SOL     OW15010   2.458   4.446   5.851
 4817SOL    HW115011   2.465   4.527   5.801
 4817SOL    HW215012   2.393   4.465   5.919
 4818SOL     OW15013   3.141   4.075   6.518
 4818SOL    HW115014   3.052   4.042   6.527
 4818SOL    HW215015   3.192   4.022   6.580
 4819SOL     OW15016   2.654   4.342   7.038
 4819SOL    HW115017   2.628   4.318   7.127
 4819SOL    HW215018   2.613   4.275   6.982
 4820SOL     OW15019   3.256   4.198   7.263
 4820SOL    HW115020   3.258   4.242   7.348
 4820SOL    HW215021   3.317   4.125   7.273
 4821SOL     OW15022   2.818   4.612   7.168
 4821SOL    HW115023   2.872   4.542   7.133
 4821SOL    HW215024   2.770   4.645   7.092
 4822SOL     OW15025   2.855   4.137   6.825
 4822SOL    HW115026   2.770   4.158   6.863
 4822SOL    HW215027   2.833   4.089   6.745
 4823SOL     OW15028   2.913   4.422   6.012
 4823SOL    HW115029   2.928   4.416   6.106
 4823SOL    HW215030   2.830   4.376   5.998
 4824SOL     OW15031   1.950   4.545   6.362
 4824SOL    HW115032   2.031   4.537   6.412
 4824SOL    HW215033   1.907   4.622   6.397
 4825SOL     OW15034   2.753   4.072   5.780
 4825SOL    HW115035   2.794   4.134   5.720
 4825SOL    HW215036   2.771   3.986   5.742
 4826SOL     OW15037   3.572   4.300   7.415
 4826SOL    HW115038   3.534   4.374   7.368
 4826SOL    HW215039   3.598   4.239   7.346
 4827SOL     OW15040   3.238   4.864   6.126
 4827SOL    HW115041   3.320   4.850   6.077
 4827SOL    HW215042   3.188   4.925   6.072
 4828SOL     OW15043   2.412   3.907   6.478
 4828SOL    HW115044   2.414   3.935   6.570
 4828SOL    HW215045   2.413   3.989   6.429
 4829SOL     OW15046   2.884   5.171   6.055
 4829SOL    HW115047   2.806   5.225   6.049
 4829SOL    HW215048   2.898   5.161   6.150
 4830SOL     OW15049   3.662   4.781   6.452
 4830SOL    HW115050   3.604   4.765   6.377
 4830SOL    HW215051   3.602   4.788   6.527
 4831SOL     OW15052   3.112   5.239   7.109
 4831SOL    HW115053   3.075   5.173   7.168
 4831SOL    HW215054   3.041   5.259   7.048
 4832SOL     OW15055   2.183   4.680   5.836
 4832SOL    HW115056   2.265   4.699   5.790
 4832SOL    HW215057   2.152   4.598   5.796
 4833SOL     OW15058   3.339   4.465   6.314
 4833SOL    HW115059   3.330   4.421   6.398
 4833SOL    HW215060   3.417   4.520   6.323
 4834SOL     OW15061   2.326   4.987   7.327
 4834SOL    HW115062   2.298   4.990   7.235
 4834SOL    HW215063   2.243   4.986   7.376
 4835SOL     OW15064   2.937   0.182   5.794
 4835SOL    HW115065   2.937   0.106   5.852
 4835SOL    HW215066   2.967   0.148   5.709
 4836SOL     OW15067   2.063   4.006   7.087
 4836SOL    HW115068   1.980   4.054   7.081
 4836SOL    HW215069   2.045   3.936   7.150
 4837SOL     OW15070   3.485   5.099   5.692
 4837SOL    HW115071   3.480   5.178   5.638
 4837SOL    HW215072   3.416   5.042   5.658
 4838SOL     OW15073   3.263   3.832   6.018
 4838SOL    HW115074   3.253   3.807   5.926
 4838SOL    HW215075   3.358   3.839   6.031
 4839SOL     OW15076   2.254   4.419   6.063
 4839SOL    HW115077   2.275   4.327   6.074
 4839SOL    HW215078   2.160   4.424   6.080
 4840SOL     OW15079   3.398   3.949   7.312
 4840SOL    HW115080   3.407   3.970   7.404
 4840SOL    HW215081   3.329   3.882   7.309
 4841SOL     OW15082   2.495   3.847   5.692
 4841SOL    HW115083   2.566   3.784   5.704
 4841SOL    HW215084   2.447   3.815   5.615
 4842SOL     OW15085   2.628   4.000   7.339
 4842SOL    HW115086   2.704   3.942   7.342
 4842SOL    HW215087   2.584   3.986   7.423
 4843SOL     OW15088   3.203   4.313   7.018
 4843SOL    HW115089   3.234   4.281   7.103
 4843SOL    HW215090   3.239   4.401   7.010
 4844SOL     OW15091   2.674   5.121   6.520
 4844SOL    HW115092   2.754   5.106   6.471
 4844SOL    HW215093   2.605   5.126   6.454
 4845SOL     OW15094   2.790   4.233   6.489
 4845SOL    HW115095   2.766   4.225   6.397
 4845SOL    HW215096   2.821   4.146   6.514
 4846SOL     OW15097   2.410   3.787   6.089
 4846SOL    HW115098   2.330   3.788   6.141
 4846SOL    HW215099   2.404   3.866   6.035
 4847SOL     OW15100   3.289   4.923   5.625
 4847SOL    HW115101   3.320   4.848   5.675
 4847SOL    HW215102   3.202   4.941   5.659
 4848SOL     OW15103   2.154   3.771   5.770
 4848SOL    HW115104   2.213   3.836   5.732
 4848SOL    HW215105   2.212   3.708   5.812
 4849SOL     OW15106   2.800   3.970   6.047
 4849SOL    HW115107   2.772   4.012   5.966
 4849SOL    HW215108   2.894   3.983   6.051
 4850SOL     OW15109   2.942   4.404   7.046
 4850SOL    HW115110   2.873   4.338   7.051
 4850SOL    HW215111   3.023   4.354   7.039
 4851SOL     OW15112   3.126   5.267   6.365
 4851SOL    HW115113   3.086   0.049   6.336
 4851SOL    HW215114   3.170   5.290   6.447
 4852SOL     OW15115   2.327   4.872   6.318
 4852SOL    HW115116   2.258   4.852   6.381
 4852SOL    HW215117   2.288   4.853   6.233
 4853SOL     OW15118   2.886   4.267   5.608
 4853SOL    HW115119   2.843   4.350   5.588
 4853SOL    HW215120   2.951   4.288   5.674
 4854SOL     OW15121   1.940   4.279   6.978
 4854SOL    HW115122   2.032   4.277   6.951
 4854SOL    HW215123   1.936   4.349   7.043
 4855SOL     OW15124   2.422   3.951   6.751
 4855SOL    HW115125   2.463   3.873   6.789
 4855SOL    HW215126   2.331   3.947   6.781
 4856SOL     OW15127   2.730   4.183   6.226
 4856SOL    HW115128   2.684   4.238   6.162
 4856SOL    HW215129   2.751   4.102   6.178
 4857SOL     OW15130   2.878   3.777   6.337
 4857SOL    HW115131   2.819   3.770   6.263
 4857SOL    HW215132   2.856   3.702   6.393
 4858SOL     OW15133   3.299   4.890   6.445
 4858SOL    HW115134   3.233   4.820   6.441
 4858SOL    HW215135   3.324   4.903   6.354
 4859SOL     OW15136   3.329   4.328   6.564
 4859SOL    HW115137   3.279   4.247   6.568
 4859SOL    HW215138   3.389   4.323   6.638
 4860SOL     OW15139   3.708   4.540   5.968
 4860SOL    HW115140   3.764   4.489   6.026
 4860SOL    HW215141   3.679   4.478   5.901
 4861SOL     OW15142   2.344   5.145   5.741
 4861SOL    HW115143   2.281   5.094   5.792
 4861SOL    HW215144   2.342   5.106   5.654
 4862SOL     OW15145   3.531   4.987   6.233
 4862SOL    HW115146   3.625   4.994   6.250
 4862SOL    HW215147   3.497   5.075   6.250
 4863SOL     OW15148   3.256   4.296   5.657
 4863SOL    HW115149   3.195   4.276   5.729
 4863SOL    HW215150   3.341   4.264   5.688
 4864SOL     OW15151   2.387   3.987   5.905
 4864SOL    HW115152   2.431   3.939   5.835
 4864SOL    HW215153   2.366   4.072   5.867
 4865SOL     OW15154   3.613   4.959   7.162
 4865SOL    HW115155   3.700   4.918   7.161
 4865SOL    HW215156   3.631   5.052   7.177
 4866SOL     OW15157   2.927   5.074   6.917
 4866SOL    HW115158   2.849   5.049   6.966
 4866SOL    HW215159   2.999   5.035   6.965
 4867SOL     OW15160   2.987   4.925   6.694
 4867SOL    HW115161   2.937   4.966   6.764
 4867SOL    HW215162   2.943   4.952   6.613
 4868SOL     OW15163   3.491   4.823   6.663
 4868SOL    HW115164   3.487   4.884   6.736
 4868SOL    HW215165   3.413   4.841   6.612
 4869SOL     OW15166   2.780   3.822   6.983
 4869SOL    HW115167   2.803   3.803   6.892
 4869SOL    HW215168   2.859   3.861   7.020
 4870SOL     OW15169   2.846   4.838   7.312
 4870SOL    HW115170   2.754   4.854   7.329
 4870SOL    HW215171   2.847   4.762   7.254
 4871SOL     OW15172   2.566   4.782   5.958
 4871SOL    HW115173   2.555   4.767   6.052
 4871SOL    HW215174   2.644   4.731   5.935
 4872SOL     OW15175   2.280   4.538   6.837
 4872SOL    HW115176   2.349   4.548   6.903
 4872SOL    HW215177   2.245   4.450   6.851
 4873SOL     OW15178   3.128   4.102   6.860
 4873SOL    HW115179   3.160   4.179   6.906
 4873SOL    HW215180   3.038   4.124   6.837
 4874SOL     OW15181   2.211   4.832   6.076
 4874SOL    HW115182   2.214   4.905   6.014
 4874SOL    HW215183   2.210   4.753   6.020
 4875SOL     OW15184   2.415   4.261   6.446
 4875SOL    HW115185   2.431   4.319   6.372
 4875SOL    HW215186   2.480   4.288   6.512
 4876SOL     OW15187   3.121   5.076   5.972
 4876SOL    HW115188   3.177   5.144   6.009
 4876SOL    HW215189   3.033   5.099   6.001
 4877SOL     OW15190   3.131   5.181   6.728
 4877SOL    HW115191   3.190   5.195   6.802
 4877SOL    HW215192   3.086   5.098   6.747
 4878SOL     OW15193   3.444   4.347   6.064
 4878SOL    HW115194   3.398   4.402   6.128
 4878SOL    HW215195   3.490   4.410   6.008
 4879SOL     OW15196   2.210   5.236   6.901
 4879SOL    HW115197   2.199   5.201   6.813
 4879SOL    HW215198   2.303   5.257   6.907
 4880SOL     OW15199   2.276   4.469   7.188
 4880SOL    HW115200   2.337   4.513   7.130
 4880SOL    HW215201   2.315   4.383   7.203
 4881SOL     OW15202   3.462   4.502   7.268
 4881SOL    HW115203   3.376   4.543   7.260
 4881SOL    HW215204   3.515   4.544   7.199
 4882SOL     OW15205   2.858   3.846   7.341
 4882SOL    HW115206   2.914   3.918   7.311
 4882SOL    HW215207   2.906   3.767   7.316
 4883SOL     OW15208   2.360   3.765   7.333
 4883SOL    HW115209   2.318   3.711   7.267
 4883SOL    HW215210   2.301   3.839   7.345
 4884SOL     OW15211   2.445   4.596   6.617
 4884SOL    HW115212   2.475   4.687   6.615
 4884SOL    HW215213   2.389   4.591   6.694
 4885SOL     OW15214   3.220   4.582   6.616
 4885SOL    HW115215   3.138   4.573   6.569
 4885SOL    HW215216   3.260   4.495   6.612
 4886SOL     OW15217   3.067   4.252   5.853
 4886SOL    HW115218   3.075   4.174   5.908
 4886SOL    HW215219   3.025   4.317   5.910
 4887SOL     OW15220   2.161   3.923   6.832
 4887SOL    HW115221   2.124   3.955   6.914
 4887SOL    HW215222   2.142   3.829   6.833
 4888SOL     OW15223   1.913   5.046   6.870
 4888SOL    HW115224   1.939   4.982   6.937
 4888SOL    HW215225   1.949   5.129   6.901
 4889SOL     OW15226   2.586   4.355   6.644
 4889SOL    HW115227   2.661   4.338   6.586
 4889SOL    HW215228   2.559   4.444   6.623
 4890SOL     OW15229   3.597   4.684   7.437
 4890SOL    HW115230   3.549   4.623   7.380
 4890SOL    HW215231   3.539   4.697   7.512
 4891SOL     OW15232   2.164   3.789   6.209
 4891SOL    HW115233   2.146   3.880   6.233
 4891SOL    HW215234   2.172   3.743   6.293
 4892SOL     OW15235   3.477   4.097   5.954
 4892SOL    HW115236   3.505   4.034   6.020
 4892SOL    HW215237   3.455   4.176   6.004
 4893SOL     OW15238   2.889   4.483   6.547
 4893SOL    HW115239   2.887   4.501   6.641
 4893SOL    HW215240   2.863   4.392   6.539
 4894SOL     OW15241   3.716   5.214   7.171
 4894SOL    HW115242   3.712   5.288   7.110
 4894SOL    HW215243   3.786   5.236   7.232
 4895SOL     OW15244   2.216   4.639   7.395
 4895SOL    HW115245   2.298   4.658   7.439
 4895SOL    HW215246   2.239   4.577   7.326
 4896SOL     OW15247   3.392   3.997   5.713
 4896SOL    HW115248   3.327   3.932   5.740
 4896SOL    HW215249   3.425   4.033   5.795
 4897SOL     OW15250   3.155   4.550   5.617
 4897SOL    HW115251   3.197   4.465   5.621
 4897SOL    HW215252   3.186   4.590   5.536
 4898SOL     OW15253   2.920   5.078   6.413
 4898SOL    HW115254   2.925   4.993   6.369
 4898SOL    HW215255   3.006   5.117   6.400
 4899SOL     OW15256   2.171   4.533   6.534
 4899SOL    HW115257   2.264   4.554   6.527
 4899SOL    HW215258   2.169   4.443   6.567
 4900SOL     OW15259   2.194   4.249   6.598
 4900SOL    HW115260   2.158   4.162   6.583
 4900SOL    HW215261   2.270   4.255   6.541
 4901SOL     OW15262   2.997   4.101   7.266
 4901SOL    HW115263   2.949   4.155   7.329
 4901SOL    HW215264   3.084   4.139   7.262
 4902SOL     OW15265   3.023   3.927   7.055
 4902SOL    HW115266   3.012   3.990   7.127
 4902SOL    HW215267   3.062   3.979   6.984
 4903SOL     OW15268   1.868   5.041   5.777
 4903SOL    HW115269   1.778   5.058   5.749
 4903SOL    HW215270   1.866   4.953   5.814
 4904SOL     OW15271   2.846   4.517   6.813
 4904SOL    HW115272   2.902   4.493   6.887
 4904SOL    HW215273   2.761   4.479   6.834
 4905SOL     OW15274   1.898   4.269   6.702
 4905SOL    HW115275   1.978   4.253   6.653
 4905SOL    HW215276   1.926   4.272   6.794
 4906SOL     OW15277   2.054   4.243   7.313
 4906SOL    HW115278   2.109   4.204   7.245
 4906SOL    HW215279   2.010   4.315   7.269
 4907SOL     OW15280   3.238   4.664   7.245
 4907SOL    HW115281   3.259   4.757   7.243
 4907SOL    HW215282   3.235   4.638   7.153
 4908SOL     OW15283   2.678   4.293   5.945
 4908SOL    HW115284   2.681   4.218   5.885
 4908SOL    HW215285   2.604   4.345   5.914
 4909SOL     OW15286   3.504   4.325   6.773
 4909SOL    HW115287   3.494   4.266   6.847
 4909SOL    HW215288   3.591   4.305   6.738
 4910SOL     OW15289   2.069   5.276   7.329
 4910SOL    HW115290   2.043   0.027   7.405
 4910SOL    HW215291   2.082   5.187   7.363
 4911SOL     OW15292   2.561   4.175   6.847
 4911SOL    HW115293   2.509   4.101   6.816
 4911SOL    HW215294   2.558   4.238   6.774
 4912SOL     OW15295   2.327   4.217   5.773
 4912SOL    HW115296   2.385   4.290   5.795
 4912SOL    HW215297   2.241   4.257   5.761
 4913SOL     OW15298   2.008   4.863   7.057
 4913SOL    HW115299   2.010   4.811   7.137
 4913SOL    HW215300   2.025   4.800   6.987
 4914SOL     OW15301   3.190   4.770   6.809
 4914SOL    HW115302   3.213   4.708   6.740
 4914SOL    HW215303   3.118   4.821   6.772
 4915SOL     OW15304   3.172   4.581   5.892
 4915SOL    HW115305   3.096   4.550   5.942
 4915SOL    HW215306   3.148   4.567   5.801
 4916SOL     OW15307   1.955   4.986   6.607
 4916SOL    HW115308   1.933   5.003   6.699
 4916SOL    HW215309   1.875   4.947   6.571
 4917SOL     OW15310   2.613   0.038   7.296
 4917SOL    HW115311   2.521   0.061   7.307
 4917SOL    HW215312   2.634   0.063   7.206
 4918SOL     OW15313   3.580   3.869   6.096
 4918SOL    HW115314   3.654   3.855   6.036
 4918SOL    HW215315   3.565   3.784   6.136
 4919SOL     OW15316   3.139   4.649   6.257
 4919SOL    HW115317   3.212   4.588   6.264
 4919SOL    HW215318   3.173   4.721   6.205
 4920SOL     OW15319   2.682   4.994   7.009
 4920SOL    HW115320   2.653   5.030   7.093
 4920SOL    HW215321   2.606   5.004   6.951
 4921SOL     OW15322   3.702   3.897   6.553
 4921SOL    HW115323   3.731   3.810   6.525
 4921SOL    HW215324   3.616   3.907   6.513
 4922SOL     OW15325   2.125   4.040   6.303
 4922SOL    HW115326   2.039   4.076   6.279
 4922SOL    HW215327   2.121   4.032   6.399
 4923SOL     OW15328   2.686   4.728   6.957
 4923SOL    HW115329   2.733   4.722   6.873
 4923SOL    HW215330   2.690   4.821   6.979
 4924SOL     OW15331   2.778   4.635   5.876
 4924SOL    HW115332   2.839   4.667   5.810
 4924SOL    HW215333   2.826   4.565   5.921
 4925SOL     OW15334   2.227   5.026   7.083
 4925SOL    HW115335   2.217   5.100   7.023
 4925SOL    HW215336   2.152   4.969   7.065
 4926SOL     OW15337   3.474   5.004   6.868
 4926SOL    HW115338   3.531   4.998   6.945
 4926SOL    HW215339   3.412   5.074   6.890
 4927SOL     OW15340   2.915   4.833   6.296
 4927SOL    HW115341   2.843   4.781   6.333
 4927SOL    HW215342   2.976   4.767   6.263
 4928SOL     OW15343   2.883   3.964   6.552
 4928SOL    HW115344   2.878   3.916   6.469
 4928SOL    HW215345   2.878   3.896   6.619
 4929SOL     OW15346   3.583   4.116   6.967
 4929SOL    HW115347   3.655   4.179   6.965
 4929SOL    HW215348   3.613   4.045   6.911
 4930SOL     OW15349   2.120   5.054   5.868
 4930SOL    HW115350   2.028   5.055   5.841
 4930SOL    HW215351   2.121   5.096   5.954
 4931SOL     OW15352   1.975   4.745   7.305
 4931SOL    HW115353   1.898   4.722   7.357
 4931SOL    HW215354   2.049   4.708   7.352
 4932SOL     OW15355   2.535   3.921   7.085
 4932SOL    HW115356   2.619   3.901   7.044
 4932SOL    HW215357   2.559   3.950   7.173
 4933SOL     OW15358   1.940   4.058   5.621
 4933SOL    HW115359   1.853   4.038   5.588
 4933SOL    HW215360   1.969   4.133   5.569
 4934SOL     OW15361   3.293   4.582   6.987
 4934SOL    HW115362   3.244   4.643   6.931
 4934SOL    HW215363   3.382   4.585   6.953
 4935SOL     OW15364   1.931   3.881   5.897
 4935SOL    HW115365   1.917   3.961   5.846
 4935SOL    HW215366   2.016   3.848   5.867
 4936SOL     OW15367   3.044   5.064   5.706
 4936SOL    HW115368   2.953   5.036   5.707
 4936SOL    HW215369   3.072   5.057   5.797
 4937SOL     OW15370   2.481   4.555   7.019
 4937SOL    HW115371   2.537   4.631   7.003
 4937SOL    HW215372   2.541   4.481   7.028
 4938SOL     OW15373   2.580   4.288   7.291
 4938SOL    HW115374   2.619   4.350   7.352
 4938SOL    HW215375   2.609   4.202   7.322
 4939SOL     OW15376   3.334   4.924   7.218
 4939SOL    HW115377   3.321   4.936   7.312
 4939SOL    HW215378   3.428   4.937   7.205
 4940SOL     OW15379   3.532   4.606   6.841
 4940SOL    HW115380   3.525   4.520   6.799
 4940SOL    HW215381   3.522   4.669   6.770
 4941SOL     OW15382   3.079   4.043   6.044
 4941SOL    HW115383   3.143   3.972   6.035
 4941SOL    HW215384   3.108   4.092   6.121
 4942SOL     OW15385   2.452   4.462   6.255
 4942SOL    HW115386   2.491   4.549   6.240
 4942SOL    HW215387   2.384   4.455   6.188
 4943SOL     OW15388   3.625   4.085   7.237
 4943SOL    HW115389   3.608   4.100   7.144
 4943SOL    HW215390   3.553   4.028   7.265
 4944SOL     OW15391   3.607   4.657   7.098
 4944SOL    HW115392   3.603   4.752   7.112
 4944SOL    HW215393   3.591   4.646   7.004
 4945SOL     OW15394   2.712   5.095   5.605
 4945SOL    HW115395   2.692   5.096   5.699
 4945SOL    HW215396   2.729   5.186   5.583
 4946SOL     OW15397   2.729   4.691   6.442
 4946SOL    HW115398   2.779   4.619   6.482
 4946SOL    HW215399   2.695   4.741   6.516
 4947SOL     OW15400   2.942   4.713   5.675
 4947SOL    HW115401   2.919   4.763   5.597
 4947SOL    HW215402   3.017   4.659   5.649
 4948SOL     OW15403   2.084   5.024   7.442
 4948SOL    HW115404   2.018   4.962   7.412
 4948SOL    HW215405   2.065   5.038   7.535
 4949SOL     OW15406   1.947   4.956   6.256
 4949SOL    HW115407   1.946   4.903   6.335
 4949SOL    HW215408   2.011   4.913   6.199
 4950SOL     OW15409   2.531   5.108   7.194
 4950SOL    HW115410   2.456   5.074   7.243
 4950SOL    HW215411   2.562   5.181   7.247
 4951SOL     OW15412   3.675   3.909   6.824
 4951SOL    HW115413   3.685   3.815   6.839
 4951SOL    HW215414   3.684   3.919   6.729
 4952SOL     OW15415   2.291   4.158   6.111
 4952SOL    HW115416   2.321   4.087   6.054
 4952SOL    HW215417   2.244   4.114   6.182
 4953SOL     OW15418   3.569   5.223   6.705
 4953SOL    HW115419   3.495   5.207   6.646
 4953SOL    HW215420   3.576   5.144   6.758
 4954SOL     OW15421   2.191   4.278   6.877
 4954SOL    HW115422   2.247   4.223   6.933
 4954SOL    HW215423   2.211   4.250   6.788
 4955SOL     OW15424   3.294   3.949   6.704
 4955SOL    HW115425   3.320   3.869   6.751
 4955SOL    HW215426   3.242   3.998   6.767
 4956SOL     OW15427   2.871   3.743   6.729
 4956SOL    HW115428   2.816   3.675   6.692
 4956SOL    HW215429   2.959   3.705   6.731
 4957SOL     OW15430   2.664   5.047   5.870
 4957SOL    HW115431   2.602   4.977   5.888
 4957SOL    HW215432   2.719   5.052   5.949
 4958SOL     OW15433   2.484   5.299   6.876
 4958SOL    HW115434   2.491   0.054   6.954
 4958SOL    HW215435   2.574   5.279   6.851
 4959SOL     OW15436   3.214   3.778   5.751
 4959SOL    HW115437   3.241   3.716   5.683
 4959SOL    HW215438   3.127   3.748   5.778
 4960SOL     OW15439   3.158   4.184   6.267
 4960SOL    HW115440   3.105   4.263   6.275
 4960SOL    HW215441   3.155   4.145   6.354
 4961SOL     OW15442   3.449   3.927   6.464
 4961SOL    HW115443   3.387   3.947   6.534
 4961SOL    HW215444   3.448   4.005   6.409
 4962SOL     OW15445   1.904   4.795   5.893
 4962SOL    HW115446   1.998   4.788   5.876
 4962SOL    HW215447   1.877   4.706   5.915
 4963SOL     OW15448   2.091   4.344   7.571
 4963SOL    HW115449   2.000   4.350   7.601
 4963SOL    HW215450   2.084   4.320   7.479
 4964SOL     OW15451   3.629   4.323   7.680
 4964SOL    HW115452   3.609   4.318   7.586
 4964SOL    HW215453   3.587   4.245   7.717
 4965SOL     OW15454   2.139   0.126   7.957
 4965SOL    HW115455   2.114   0.212   7.992
 4965SOL    HW215456   2.145   0.140   7.862
 4966SOL     OW15457   2.080   5.156   7.989
 4966SOL    HW115458   2.091   5.251   7.997
 4966SOL    HW215459   2.022   5.133   8.062
 4967SOL     OW15460   2.448   4.705   7.579
 4967SOL    HW115461   2.493   4.755   7.511
 4967SOL    HW215462   2.487   4.735   7.661
 4968SOL     OW15463   1.860   0.010   7.539
 4968SOL    HW115464   1.865   5.222   7.574
 4968SOL    HW215465   1.861   0.067   7.616
 4969SOL     OW15466   3.545   4.593   8.035
 4969SOL    HW115467   3.626   4.603   0.005
 4969SOL    HW215468   3.533   4.676   7.990
 4970SOL     OW15469   3.517   4.825   7.876
 4970SOL    HW115470   3.605   4.845   7.843
 4970SOL    HW215471   3.498   4.895   7.938
 4971SOL     OW15472   2.664   3.718   7.940
 4971SOL    HW115473   2.712   3.799   7.923
 4971SOL    HW215474   2.573   3.746   7.948
 4972SOL     OW15475   3.394   4.720   7.647
 4972SOL    HW115476   3.328   4.659   7.680
 4972SOL    HW215477   3.437   4.754   7.726
 4973SOL     OW15478   2.453   4.448   7.708
 4973SOL    HW115479   2.458   4.530   7.658
 4973SOL    HW215480   2.393   4.468   7.780
 4974SOL     OW15481   1.924   4.586   0.091
 4974SOL    HW115482   1.989   4.522   0.121
 4974SOL    HW215483   1.916   4.648   0.163
 4975SOL     OW15484   2.743   4.070   7.637
 4975SOL    HW115485   2.788   4.130   7.579
 4975SOL    HW215486   2.775   3.983   7.613
 4976SOL     OW15487   2.185   4.679   7.697
 4976SOL    HW115488   2.266   4.697   7.648
 4976SOL    HW215489   2.150   4.600   7.656
 4977SOL     OW15490   2.953   0.190   7.648
 4977SOL    HW115491   2.924   0.126   7.712
 4977SOL    HW215492   2.956   0.142   7.565
 4978SOL     OW15493   3.489   5.099   7.549
 4978SOL    HW115494   3.472   5.181   7.503
 4978SOL    HW215495   3.419   5.040   7.521
 4979SOL     OW15496   3.277   3.855   7.864
 4979SOL    HW115497   3.264   3.820   7.775
 4979SOL    HW215498   3.372   3.852   7.877
 4980SOL     OW15499   2.252   4.422   7.918
 4980SOL    HW115500   2.259   4.327   7.926
 4980SOL    HW215501   2.161   4.441   7.939
 4981SOL     OW15502   2.490   3.845   7.559
 4981SOL    HW115503   2.566   3.787   7.569
 4981SOL    HW215504   2.446   3.814   7.480
 4982SOL     OW15505   2.394   3.797   7.959
 4982SOL    HW115506   2.309   3.800   8.002
 4982SOL    HW215507   2.393   3.868   7.895
 4983SOL     OW15508   3.290   4.924   7.488
 4983SOL    HW115509   3.320   4.849   7.539
 4983SOL    HW215510   3.202   4.943   7.521
 4984SOL     OW15511   2.155   3.773   7.632
 4984SOL    HW115512   2.214   3.834   7.588
 4984SOL    HW215513   2.212   3.708   7.671
 4985SOL     OW15514   2.806   3.950   7.911
 4985SOL    HW115515   2.762   4.015   7.855
 4985SOL    HW215516   2.897   3.980   7.914
 4986SOL     OW15517   2.304   4.875   0.099
 4986SOL    HW115518   2.227   4.907   0.147
 4986SOL    HW215519   2.272   4.860   0.011
 4987SOL     OW15520   2.888   4.267   7.466
 4987SOL    HW115521   2.843   4.350   7.449
 4987SOL    HW215522   2.948   4.287   7.538
 4988SOL     OW15523   3.731   4.541   7.802
 4988SOL    HW115524   3.733   4.510   7.892
 4988SOL    HW215525   3.691   4.470   7.752
 4989SOL     OW15526   2.337   5.149   7.602
 4989SOL    HW115527   2.278   5.097   7.657
 4989SOL    HW215528   2.340   5.103   7.519
 4990SOL     OW15529   3.256   4.296   7.519
 4990SOL    HW115530   3.195   4.276   7.591
 4990SOL    HW215531   3.340   4.262   7.549
 4991SOL     OW15532   2.388   3.990   7.771
 4991SOL    HW115533   2.431   3.939   7.702
 4991SOL    HW215534   2.366   4.073   7.729
 4992SOL     OW15535   2.569   4.782   7.813
 4992SOL    HW115536   2.548   4.770   7.905
 4992SOL    HW215537   2.650   4.732   7.800
 4993SOL     OW15538   2.228   4.824   7.928
 4993SOL    HW115539   2.207   4.904   7.879
 4993SOL    HW215540   2.215   4.753   7.865
 4994SOL     OW15541   3.087   5.114   7.831
 4994SOL    HW115542   3.172   5.125   7.873
 4994SOL    HW215543   3.037   5.060   7.892
 4995SOL     OW15544   3.449   4.353   7.921
 4995SOL    HW115545   3.434   4.412   7.995
 4995SOL    HW215546   3.490   4.408   7.854
 4996SOL     OW15547   3.066   4.251   7.716
 4996SOL    HW115548   3.069   4.167   7.763
 4996SOL    HW215549   3.039   4.314   7.782
 4997SOL     OW15550   3.480   4.102   7.815
 4997SOL    HW115551   3.501   4.035   7.880
 4997SOL    HW215552   3.455   4.179   7.867
 4998SOL     OW15553   3.392   3.999   7.575
 4998SOL    HW115554   3.327   3.933   7.601
 4998SOL    HW215555   3.424   4.034   7.658
 4999SOL     OW15556   3.157   4.552   7.482
 4999SOL    HW115557   3.198   4.465   7.483
 4999SOL    HW215558   3.187   4.591   7.399
 5000SOL     OW15559   1.870   5.045   7.640
 5000SOL    HW115560   1.780   5.058   7.610
 5000SOL    HW215561   1.871   4.956   7.675
 5001SOL     OW15562   2.699   4.321   7.763
 5001SOL    HW115563   2.691   4.230   7.734
 5001SOL    HW215564   2.610   4.355   7.762
 5002SOL     OW15565   2.324   4.217   7.642
 5002SOL    HW115566   2.383   4.291   7.656
 5002SOL    HW215567   2.239   4.257   7.624
 5003SOL     OW15568   3.171   4.577   7.755
 5003SOL    HW115569   3.084   4.576   7.794
 5003SOL    HW215570   3.156   4.566   7.661
 5004SOL     OW15571   3.574   3.869   7.948
 5004SOL    HW115572   3.651   3.861   7.893
 5004SOL    HW215573   3.575   3.792   8.004
 5005SOL     OW15574   2.791   4.635   7.758
 5005SOL    HW115575   2.843   4.660   7.681
 5005SOL    HW215576   2.785   4.540   7.752
 5006SOL     OW15577   2.120   5.060   7.744
 5006SOL    HW115578   2.028   5.062   7.716
 5006SOL    HW215579   2.119   5.098   7.831
 5007SOL     OW15580   1.939   4.059   7.484
 5007SOL    HW115581   1.853   4.038   7.448
 5007SOL    HW215582   1.969   4.134   7.433
 5008SOL     OW15583   1.933   3.882   7.759
 5008SOL    HW115584   1.916   3.958   7.703
 5008SOL    HW215585   2.015   3.846   7.727
 5009SOL     OW15586   3.044   5.059   7.564
 5009SOL    HW115587   2.951   5.034   7.562
 5009SOL    HW215588   3.063   5.073   7.656
 5010SOL     OW15589   3.077   4.042   7.903
 5010SOL    HW115590   3.150   3.981   7.892
 5010SOL    HW215591   3.098   4.090   7.984
 5011SOL     OW15592   2.485   4.458   8.058
 5011SOL    HW115593   2.492   4.542   0.023
 5011SOL    HW215594   2.399   4.460   8.017
 5012SOL     OW15595   2.713   5.094   7.466
 5012SOL    HW115596   2.694   5.094   7.559
 5012SOL    HW215597   2.728   5.186   7.444
 5013SOL     OW15598   2.937   4.704   7.538
 5013SOL    HW115599   2.916   4.760   7.463
 5013SOL    HW215600   3.014   4.655   7.511
 5014SOL     OW15601   2.250   4.150   7.981
 5014SOL    HW115602   2.300   4.099   7.918
 5014SOL    HW215603   2.298   4.142   8.063
 5015SOL     OW15604   2.666   5.047   7.730
 5015SOL    HW115605   2.608   4.974   7.748
 5015SOL    HW215606   2.689   5.081   7.816
 5016SOL     OW15607   3.214   3.777   7.610
 5016SOL    HW115608   3.242   3.711   7.545
 5016SOL    HW215609   3.128   3.746   7.638
 5017SOL     OW15610   1.911   4.802   7.751
 5017SOL    HW115611   2.006   4.793   7.738
 5017SOL    HW215612   1.881   4.712   7.766
 5018SOL     OW15613   3.943   0.624   0.120
 5018SOL    HW115614   3.864   0.591   0.161
 5018SOL    HW215615   3.967   0.557   0.056
 5019SOL     OW15616   3.942   0.284   0.993
 5019SOL    HW115617   3.972   0.249   1.077
 5019SOL    HW215618   3.857   0.243   0.978
 5020SOL     OW15619   3.728   0.386   0.638
 5020SOL    HW115620   3.644   0.407   0.678
 5020SOL    HW215621   3.711   0.307   0.586
 5021SOL     OW15622   4.291   1.286   1.174
 5021SOL    HW115623   4.203   1.289   1.136
 5021SOL    HW215624   4.306   1.375   1.207
 5022SOL     OW15625   5.283   1.545   0.707
 5022SOL    HW115626   5.246   1.493   0.779
 5022SOL    HW215627   5.223   1.529   0.633
 5023SOL     OW15628   4.858   0.699   0.702
 5023SOL    HW115629   4.908   0.781   0.691
 5023SOL    HW215630   4.809   0.712   0.783
 5024SOL     OW15631   4.480   1.143   1.040
 5024SOL    HW115632   4.411   1.177   1.096
 5024SOL    HW215633   4.515   1.220   0.995
 5025SOL     OW15634   4.591   0.778   1.823
 5025SOL    HW115635   4.574   0.850   1.883
 5025SOL    HW215636   4.613   0.821   1.740
 5026SOL     OW15637   4.409   1.003   0.650
 5026SOL    HW115638   4.474   0.991   0.719
 5026SOL    HW215639   4.340   1.055   0.691
 5027SOL     OW15640   4.434   1.151   1.812
 5027SOL    HW115641   4.481   1.230   1.838
 5027SOL    HW215642   4.351   1.184   1.777
 5028SOL     OW15643   4.054   1.427   1.068
 5028SOL    HW115644   3.982   1.389   1.017
 5028SOL    HW215645   4.105   1.477   1.004
 5029SOL     OW15646   5.160   1.481   1.350
 5029SOL    HW115647   5.204   1.563   1.376
 5029SOL    HW215648   5.108   1.456   1.426
 5030SOL     OW15649   4.168   0.399   1.488
 5030SOL    HW115650   4.243   0.340   1.485
 5030SOL    HW215651   4.093   0.341   1.502
 5031SOL     OW15652   3.944   1.714   0.472
 5031SOL    HW115653   3.966   1.790   0.526
 5031SOL    HW215654   4.018   1.705   0.412
 5032SOL     OW15655   4.860   1.339   1.694
 5032SOL    HW115656   4.898   1.336   1.781
 5032SOL    HW215657   4.806   1.260   1.687
 5033SOL     OW15658   3.951   1.441   0.530
 5033SOL    HW115659   3.937   1.535   0.535
 5033SOL    HW215660   3.892   1.404   0.596
 5034SOL     OW15661   3.980   1.090   0.891
 5034SOL    HW115662   3.977   1.004   0.932
 5034SOL    HW215663   3.922   1.144   0.944
 5035SOL     OW15664   4.334   1.792   1.427
 5035SOL    HW115665   4.253   1.774   1.475
 5035SOL    HW215666   4.359   1.881   1.454
 5036SOL     OW15667   4.354   0.961   0.132
 5036SOL    HW115668   4.303   1.038   0.107
 5036SOL    HW215669   4.404   0.990   0.209
 5037SOL     OW15670   5.250   0.145   1.480
 5037SOL    HW115671   5.298   0.225   1.459
 5037SOL    HW215672   5.277   0.124   1.570
 5038SOL     OW15673   3.838   0.651   0.561
 5038SOL    HW115674   3.810   0.562   0.582
 5038SOL    HW215675   3.831   0.699   0.644
 5039SOL     OW15676   3.752   1.596   0.111
 5039SOL    HW115677   3.739   1.508   0.145
 5039SOL    HW215678   3.736   1.653   0.187
 5040SOL     OW15679   0.114   0.946   0.593
 5040SOL    HW115680   0.201   0.906   0.594
 5040SOL    HW215681   0.120   1.015   0.526
 5041SOL     OW15682   3.846   0.743   1.585
 5041SOL    HW115683   3.938   0.768   1.595
 5041SOL    HW215684   3.798   0.826   1.593
 5042SOL     OW15685   4.337   1.385   0.735
 5042SOL    HW115686   4.291   1.302   0.744
 5042SOL    HW215687   4.321   1.411   0.644
 5043SOL     OW15688   5.008   1.237   1.425
 5043SOL    HW115689   5.041   1.170   1.365
 5043SOL    HW215690   5.063   1.228   1.503
 5044SOL     OW15691   4.534   0.025   0.526
 5044SOL    HW115692   4.564   0.112   0.498
 5044SOL    HW215693   4.439   0.029   0.521
 5045SOL     OW15694   3.915   0.967   1.270
 5045SOL    HW115695   3.999   0.925   1.255
 5045SOL    HW215696   3.851   0.911   1.225
 5046SOL     OW15697   4.897   1.807   1.623
 5046SOL    HW115698   4.919   1.865   1.550
 5046SOL    HW215699   4.918   1.719   1.591
 5047SOL     OW15700   4.049   0.265   1.809
 5047SOL    HW115701   4.102   0.340   1.836
 5047SOL    HW215702   3.963   0.281   1.849
 5048SOL     OW15703   5.169   1.434   0.937
 5048SOL    HW115704   5.106   1.440   1.009
 5048SOL    HW215705   5.163   1.343   0.908
 5049SOL     OW15706   4.321   0.715   0.282
 5049SOL    HW115707   4.339   0.793   0.228
 5049SOL    HW215708   4.256   0.745   0.345
 5050SOL     OW15709   4.997   0.329   0.920
 5050SOL    HW115710   4.907   0.304   0.943
 5050SOL    HW215711   5.050   0.301   0.995
 5051SOL     OW15712   4.518   0.618   1.451
 5051SOL    HW115713   4.490   0.596   1.540
 5051SOL    HW215714   4.475   0.552   1.396
 5052SOL     OW15715   5.117   0.486   1.679
 5052SOL    HW115716   5.118   0.521   1.768
 5052SOL    HW215717   5.182   0.416   1.680
 5053SOL     OW15718   4.680   0.888   1.582
 5053SOL    HW115719   4.732   0.816   1.547
 5053SOL    HW215720   4.631   0.922   1.506
 5054SOL     OW15721   4.718   0.422   1.232
 5054SOL    HW115722   4.634   0.437   1.275
 5054SOL    HW215723   4.697   0.366   1.157
 5055SOL     OW15724   4.776   0.698   0.427
 5055SOL    HW115725   4.791   0.691   0.521
 5055SOL    HW215726   4.693   0.652   0.412
 5056SOL     OW15727   3.813   0.821   0.776
 5056SOL    HW115728   3.894   0.814   0.827
 5056SOL    HW215729   3.770   0.899   0.811
 5057SOL     OW15730   3.851   1.845   1.577
 5057SOL    HW115731   3.851   1.825   1.671
 5057SOL    HW215732   3.759   1.841   1.551
 5058SOL     OW15733   4.605   0.359   0.200
 5058SOL    HW115734   4.653   0.401   0.128
 5058SOL    HW215735   4.589   0.270   0.169
 5059SOL     OW15736   5.094   1.147   0.548
 5059SOL    HW115737   5.177   1.140   0.501
 5059SOL    HW215738   5.041   1.206   0.495
 5060SOL     OW15739   4.249   0.201   0.883
 5060SOL    HW115740   4.273   0.216   0.975
 5060SOL    HW215741   4.273   0.283   0.839
 5061SOL     OW15742   4.731   1.445   0.474
 5061SOL    HW115743   4.691   1.516   0.424
 5061SOL    HW215744   4.713   1.467   0.565
 5062SOL     OW15745   4.079   1.808   0.861
 5062SOL    HW115746   4.122   1.723   0.869
 5062SOL    HW215747   4.147   1.872   0.879
 5063SOL     OW15748   4.940   1.543   1.520
 5063SOL    HW115749   4.928   1.469   1.579
 5063SOL    HW215750   4.886   1.522   1.444
 5064SOL     OW15751   4.051   0.942   0.254
 5064SOL    HW115752   4.122   0.983   0.203
 5064SOL    HW215753   4.048   0.852   0.223
 5065SOL     OW15754   4.189   1.264   1.738
 5065SOL    HW115755   4.162   1.269   1.646
 5065SOL    HW215756   4.107   1.262   1.787
 5066SOL     OW15757   4.826   1.774   0.225
 5066SOL    HW115758   4.771   1.734   0.293
 5066SOL    HW215759   4.841   1.704   0.162
 5067SOL     OW15760   3.921   0.278   1.502
 5067SOL    HW115761   3.842   0.332   1.497
 5067SOL    HW215762   3.913   0.230   1.584
 5068SOL     OW15763   4.189   1.738   0.323
 5068SOL    HW115764   4.230   1.797   0.386
 5068SOL    HW215765   4.260   1.712   0.264
 5069SOL     OW15766   5.102   0.113   0.443
 5069SOL    HW115767   5.092   0.073   0.356
 5069SOL    HW215768   5.196   0.129   0.451
 5070SOL     OW15769   3.978   1.792   1.232
 5070SOL    HW115770   4.031   1.727   1.279
 5070SOL    HW215771   3.970   1.756   1.144
 5071SOL     OW15772   4.662   1.698   0.900
 5071SOL    HW115773   4.742   1.648   0.917
 5071SOL    HW215774   4.617   1.649   0.830
 5072SOL     OW15775   4.110   0.698   0.477
 5072SOL    HW115776   4.135   0.606   0.487
 5072SOL    HW215777   4.017   0.700   0.500
 5073SOL     OW15778   4.348   0.137   0.123
 5073SOL    HW115779   4.438   0.108   0.134
 5073SOL    HW215780   4.320   0.098   0.040
 5074SOL     OW15781   4.509   0.312   1.767
 5074SOL    HW115782   4.571   0.238   1.767
 5074SOL    HW215783   4.458   0.300   1.847
 5075SOL     OW15784   4.600   1.521   1.194
 5075SOL    HW115785   4.585   1.486   1.106
 5075SOL    HW215786   4.670   1.467   1.230
 5076SOL     OW15787   5.060   0.591   1.431
 5076SOL    HW115788   5.091   0.560   1.516
 5076SOL    HW215789   5.099   0.678   1.422
 5077SOL     OW15790   4.538   1.396   0.938
 5077SOL    HW115791   4.622   1.385   0.895
 5077SOL    HW215792   4.474   1.396   0.867
 5078SOL     OW15793   4.651   0.510   0.902
 5078SOL    HW115794   4.628   0.500   0.810
 5078SOL    HW215795   4.682   0.424   0.929
 5079SOL     OW15796   4.266   0.062   0.512
 5079SOL    HW115797   4.179   0.060   0.552
 5079SOL    HW215798   4.260   0.131   0.446
 5080SOL     OW15799   5.140   1.172   0.042
 5080SOL    HW115800   5.142   1.102   0.107
 5080SOL    HW215801   5.056   1.215   0.055
 5081SOL     OW15802   4.024   0.068   0.204
 5081SOL    HW115803   4.080   0.137   0.171
 5081SOL    HW215804   4.077   5.289   0.198
 5082SOL     OW15805   4.667   0.255   0.453
 5082SOL    HW115806   4.639   0.302   0.375
 5082SOL    HW215807   4.759   0.279   0.464
 5083SOL     OW15808   4.802   0.680   1.461
 5083SOL    HW115809   4.733   0.615   1.463
 5083SOL    HW215810   4.883   0.630   1.450
 5084SOL     OW15811   4.941   1.572   0.796
 5084SOL    HW115812   4.964   1.637   0.730
 5084SOL    HW215813   5.021   1.559   0.846
 5085SOL     OW15814   4.191   1.150   0.735
 5085SOL    HW115815   4.122   1.130   0.798
 5085SOL    HW215816   4.151   1.133   0.649
 5086SOL     OW15817   4.993   1.794   0.604
 5086SOL    HW115818   5.038   1.858   0.547
 5086SOL    HW215819   4.928   1.846   0.651
 5087SOL     OW15820   4.765   0.534   0.022
 5087SOL    HW115821   4.709   0.610   0.003
 5087SOL    HW215822   4.814   0.560   0.100
 5088SOL     OW15823   3.802   0.554   1.393
 5088SOL    HW115824   3.894   0.553   1.365
 5088SOL    HW215825   3.797   0.624   1.457
 5089SOL     OW15826   4.280   0.238   1.158
 5089SOL    HW115827   4.312   0.152   1.186
 5089SOL    HW215828   4.188   0.239   1.184
 5090SOL     OW15829   4.593   0.461   0.639
 5090SOL    HW115830   4.548   0.514   0.573
 5090SOL    HW215831   4.612   0.379   0.594
 5091SOL     OW15832   4.696   0.064   0.763
 5091SOL    HW115833   4.634   0.053   0.691
 5091SOL    HW215834   4.716   5.274   0.792
 5092SOL     OW15835   5.158   1.175   0.850
 5092SOL    HW115836   5.102   1.099   0.863
 5092SOL    HW215837   5.167   1.182   0.755
 5093SOL     OW15838   4.207   1.439   0.172
 5093SOL    HW115839   4.135   1.396   0.219
 5093SOL    HW215840   4.212   1.392   0.089
 5094SOL     OW15841   5.123   0.574   0.083
 5094SOL    HW115842   5.049   0.557   0.142
 5094SOL    HW215843   5.200   0.545   0.131
 5095SOL     OW15844   4.247   0.268   0.329
 5095SOL    HW115845   4.287   0.212   0.262
 5095SOL    HW215846   4.232   0.351   0.284
 5096SOL     OW15847   4.781   1.354   1.334
 5096SOL    HW115848   4.706   1.323   1.385
 5096SOL    HW215849   4.857   1.311   1.374
 5097SOL     OW15850   0.006   1.604   1.617
 5097SOL    HW115851   0.040   1.610   1.528
 5097SOL    HW215852   0.083   1.584   1.671
 5098SOL     OW15853   4.852   1.203   1.107
 5098SOL    HW115854   4.791   1.239   1.171
 5098SOL    HW215855   4.818   1.232   1.022
 5099SOL     OW15856   4.625   0.104   1.389
 5099SOL    HW115857   4.658   0.070   1.305
 5099SOL    HW215858   4.701   0.147   1.428
 5100SOL     OW15859   4.708   1.113   1.725
 5100SOL    HW115860   4.616   1.130   1.744
 5100SOL    HW215861   4.707   1.036   1.667
 5101SOL     OW15862   4.438   1.063   0.380
 5101SOL    HW115863   4.420   1.045   0.472
 5101SOL    HW215864   4.515   1.010   0.360
 5102SOL     OW15865   4.142   0.815   1.251
 5102SOL    HW115866   4.211   0.824   1.317
 5102SOL    HW215867   4.107   0.727   1.265
 5103SOL     OW15868   4.992   0.380   1.270
 5103SOL    HW115869   5.025   0.458   1.314
 5103SOL    HW215870   4.901   0.401   1.247
 5104SOL     OW15871   3.794   1.573   1.352
 5104SOL    HW115872   3.764   1.646   1.298
 5104SOL    HW215873   3.889   1.577   1.347
 5105SOL     OW15874   4.070   1.109   0.492
 5105SOL    HW115875   4.077   1.182   0.430
 5105SOL    HW215876   4.078   1.031   0.437
 5106SOL     OW15877   4.278   0.538   0.861
 5106SOL    HW115878   4.294   0.596   0.786
 5106SOL    HW215879   4.343   0.564   0.926
 5107SOL     OW15880   4.971   1.347   0.392
 5107SOL    HW115881   5.027   1.419   0.420
 5107SOL    HW215882   4.884   1.369   0.424
 5108SOL     OW15883   4.993   1.456   1.139
 5108SOL    HW115884   5.048   1.458   1.217
 5108SOL    HW215885   4.940   1.377   1.150
 5109SOL     OW15886   4.071   1.526   1.316
 5109SOL    HW115887   4.058   1.484   1.231
 5109SOL    HW215888   4.166   1.539   1.323
 5110SOL     OW15889   4.138   0.745   1.602
 5110SOL    HW115890   4.199   0.790   1.544
 5110SOL    HW215891   4.179   0.660   1.619
 5111SOL     OW15892   4.753   0.116   1.759
 5111SOL    HW115893   4.794   0.197   1.730
 5111SOL    HW215894   4.791   0.048   1.703
 5112SOL     OW15895   4.204   0.057   1.738
 5112SOL    HW115896   4.147   5.293   1.696
 5112SOL    HW215897   4.146   0.130   1.760
 5113SOL     OW15898   4.307   0.873   1.031
 5113SOL    HW115899   4.338   0.963   1.030
 5113SOL    HW215900   4.250   0.867   1.108
 5114SOL     OW15901   5.085   0.857   1.039
 5114SOL    HW115902   5.010   0.842   0.982
 5114SOL    HW215903   5.137   0.777   1.032
 5115SOL     OW15904   4.930   0.531   0.268
 5115SOL    HW115905   4.933   0.448   0.316
 5115SOL    HW215906   4.885   0.591   0.328
 5116SOL     OW15907   4.021   0.204   1.247
 5116SOL    HW115908   3.982   0.243   1.325
 5116SOL    HW215909   4.020   0.110   1.264
 5117SOL     OW15910   3.770   1.311   1.276
 5117SOL    HW115911   3.803   1.256   1.348
 5117SOL    HW215912   3.777   1.400   1.309
 5118SOL     OW15913   4.450   0.632   1.060
 5118SOL    HW115914   4.523   0.614   1.001
 5118SOL    HW215915   4.422   0.721   1.036
 5119SOL     OW15916   4.024   0.072   0.649
 5119SOL    HW115917   4.009   0.166   0.658
 5119SOL    HW215918   4.067   0.046   0.731
 5120SOL     OW15919   0.037   0.407   0.362
 5120SOL    HW115920   0.062   0.345   0.430
 5120SOL    HW215921   0.002   0.482   0.408
 5121SOL     OW15922   4.751   0.759   0.961
 5121SOL    HW115923   4.750   0.777   1.055
 5121SOL    HW215924   4.724   0.667   0.953
 5122SOL     OW15925   4.698   1.562   1.713
 5122SOL    HW115926   4.687   1.609   1.631
 5122SOL    HW215927   4.746   1.483   1.689
 5123SOL     OW15928   4.077   0.916   1.808
 5123SOL    HW115929   4.160   0.935   1.854
 5123SOL    HW215930   4.101   0.853   1.740
 5124SOL     OW15931   5.030   0.831   0.029
 5124SOL    HW115932   5.059   0.741   0.043
 5124SOL    HW215933   5.058   0.851   8.019
 5125SOL     OW15934   4.789   1.334   0.855
 5125SOL    HW115935   4.792   1.262   0.792
 5125SOL    HW215936   4.847   1.400   0.819
 5126SOL     OW15937   4.033   0.809   0.947
 5126SOL    HW115938   4.126   0.831   0.941
 5126SOL    HW215939   4.031   0.719   0.980
 5127SOL     OW15940   4.056   0.525   1.012
 5127SOL    HW115941   4.020   0.438   0.996
 5127SOL    HW215942   4.133   0.530   0.955
 5128SOL     OW15943   4.862   0.377   1.690
 5128SOL    HW115944   4.812   0.432   1.750
 5128SOL    HW215945   4.946   0.422   1.681
 5129SOL     OW15946   4.848   0.233   1.459
 5129SOL    HW115947   4.860   0.283   1.540
 5129SOL    HW215948   4.912   0.270   1.398
 5130SOL     OW15949   3.735   1.324   0.190
 5130SOL    HW115950   3.648   1.338   0.153
 5130SOL    HW215951   3.733   1.234   0.222
 5131SOL     OW15952   3.814   1.788   0.937
 5131SOL    HW115953   3.784   1.708   0.894
 5131SOL    HW215954   3.904   1.800   0.906
 5132SOL     OW15955   4.221   1.573   0.905
 5132SOL    HW115956   4.290   1.636   0.930
 5132SOL    HW215957   4.265   1.510   0.850
 5133SOL     OW15958   4.708   0.794   1.228
 5133SOL    HW115959   4.763   0.769   1.302
 5133SOL    HW215960   4.623   0.754   1.246
 5134SOL     OW15961   3.760   0.544   1.117
 5134SOL    HW115962   3.840   0.528   1.067
 5134SOL    HW215963   3.789   0.548   1.208
 5135SOL     OW15964   3.911   0.521   1.726
 5135SOL    HW115965   3.974   0.486   1.663
 5135SOL    HW215966   3.870   0.595   1.681
 5136SOL     OW15967   5.112   0.939   1.666
 5136SOL    HW115968   5.120   1.033   1.654
 5136SOL    HW215969   5.114   0.903   1.577
 5137SOL     OW15970   4.542   0.571   0.364
 5137SOL    HW115971   4.548   0.498   0.302
 5137SOL    HW215972   4.465   0.620   0.336
 5138SOL     OW15973   3.968   1.552   1.728
 5138SOL    HW115974   3.945   1.615   1.796
 5138SOL    HW215975   3.969   1.468   1.774
 5139SOL     OW15976   4.420   0.453   1.262
 5139SOL    HW115977   4.371   0.379   1.228
 5139SOL    HW215978   4.421   0.516   1.190
 5140SOL     OW15979   4.646   1.680   1.468
 5140SOL    HW115980   4.624   1.648   1.381
 5140SOL    HW215981   4.647   1.775   1.459
 5141SOL     OW15982   4.192   0.492   0.177
 5141SOL    HW115983   4.259   0.558   0.197
 5141SOL    HW215984   4.109   0.537   0.192
 5142SOL     OW15985   3.871   1.140   1.472
 5142SOL    HW115986   3.873   1.088   1.552
 5142SOL    HW215987   3.888   1.077   1.402
 5143SOL     OW15988   5.054   1.050   1.225
 5143SOL    HW115989   5.076   0.985   1.158
 5143SOL    HW215990   4.982   1.100   1.187
 5144SOL     OW15991   5.024   0.868   0.319
 5144SOL    HW115992   4.946   0.825   0.353
 5144SOL    HW215993   5.022   0.850   0.225
 5145SOL     OW15994   4.960   1.731   1.122
 5145SOL    HW115995   5.046   1.751   1.084
 5145SOL    HW215996   4.960   1.636   1.132
 5146SOL     OW15997   3.807   1.267   1.012
 5146SOL    HW115998   3.794   1.279   1.106
 5146SOL    HW215999   3.734   1.212   0.984
 5147SOL     OW16000   4.401   1.664   1.727
 5147SOL    HW116001   4.350   1.745   1.722
 5147SOL    HW216002   4.469   1.675   1.661
 5148SOL     OW16003   4.615   0.085   0.141
 5148SOL    HW116004   4.661   0.076   0.058
 5148SOL    HW216005   4.632   0.003   0.188
 5149SOL     OW16006   5.108   1.570   0.478
 5149SOL    HW116007   5.162   1.612   0.411
 5149SOL    HW216008   5.060   1.642   0.519
 5150SOL     OW16009   3.859   1.797   1.843
 5150SOL    HW116010   3.809   1.732   1.892
 5150SOL    HW216011   3.908   1.845   1.911
 5151SOL     OW16012   5.016   0.920   0.673
 5151SOL    HW116013   5.092   0.864   0.658
 5151SOL    HW216014   5.034   1.000   0.624
 5152SOL     OW16015   4.539   1.273   1.431
 5152SOL    HW116016   4.511   1.312   1.514
 5152SOL    HW216017   4.470   1.295   1.369
 5153SOL     OW16018   4.400   1.620   0.156
 5153SOL    HW116019   4.407   1.626   0.061
 5153SOL    HW216020   4.340   1.548   0.172
 5154SOL     OW16021   3.987   0.329   0.720
 5154SOL    HW116022   3.899   0.360   0.698
 5154SOL    HW216023   3.984   0.317   0.815
 5155SOL     OW16024   4.860   1.580   0.045
 5155SOL    HW116025   4.901   1.494   0.061
 5155SOL    HW216026   4.897   1.609   8.042
 5156SOL     OW16027   4.548   1.006   1.373
 5156SOL    HW116028   4.592   1.001   1.288
 5156SOL    HW216029   4.548   1.099   1.394
 5157SOL     OW16030   4.643   0.914   0.299
 5157SOL    HW116031   4.696   0.938   0.223
 5157SOL    HW216032   4.689   0.841   0.339
 5158SOL     OW16033   4.093   1.302   1.492
 5158SOL    HW116034   4.080   1.379   1.437
 5158SOL    HW216035   4.016   1.248   1.475
 5159SOL     OW16036   4.775   1.107   0.707
 5159SOL    HW116037   4.704   1.056   0.747
 5159SOL    HW216038   4.832   1.041   0.667
 5160SOL     OW16039   4.738   0.242   0.971
 5160SOL    HW116040   4.720   0.197   0.888
 5160SOL    HW216041   4.733   0.174   1.037
 5161SOL     OW16042   4.326   1.487   0.480
 5161SOL    HW116043   4.369   1.437   0.411
 5161SOL    HW216044   4.258   1.537   0.435
 5162SOL     OW16045   3.990   1.321   0.293
 5162SOL    HW116046   3.904   1.332   0.253
 5162SOL    HW216047   3.984   1.366   0.377
 5163SOL     OW16048   3.836   1.021   1.719
 5163SOL    HW116049   3.760   0.998   1.772
 5163SOL    HW216050   3.911   0.984   1.766
 5164SOL     OW16051   4.396   0.211   1.489
 5164SOL    HW116052   4.479   0.191   1.445
 5164SOL    HW216053   4.421   0.259   1.567
 5165SOL     OW16054   3.793   0.361   0.034
 5165SOL    HW116055   3.720   0.300   0.022
 5165SOL    HW216056   3.807   0.398   8.027
 5166SOL     OW16057   5.163   0.860   1.404
 5166SOL    HW116058   5.110   0.915   1.347
 5166SOL    HW216059   5.252   0.869   1.369
 5167SOL     OW16060   3.792   0.165   0.314
 5167SOL    HW116061   3.799   0.252   0.275
 5167SOL    HW216062   3.877   0.125   0.296
 5168SOL     OW16063   4.914   1.315   0.120
 5168SOL    HW116064   4.819   1.314   0.115
 5168SOL    HW216065   4.933   1.322   0.214
 5169SOL     OW16066   4.343   0.831   1.433
 5169SOL    HW116067   4.399   0.907   1.418
 5169SOL    HW216068   4.404   0.758   1.441
 5170SOL     OW16069   4.440   0.571   1.703
 5170SOL    HW116070   4.479   0.633   1.764
 5170SOL    HW216071   4.471   0.485   1.733
 5171SOL     OW16072   5.182   1.205   1.632
 5171SOL    HW116073   5.173   1.217   1.727
 5171SOL    HW216074   5.276   1.211   1.616
 5172SOL     OW16075   4.104   1.739   1.564
 5172SOL    HW116076   4.019   1.780   1.551
 5172SOL    HW216077   4.085   1.656   1.606
 5173SOL     OW16078   4.937   0.332   0.472
 5173SOL    HW116079   4.991   0.254   0.457
 5173SOL    HW216080   4.975   0.373   0.550
 5174SOL     OW16081   4.313   0.738   0.669
 5174SOL    HW116082   4.353   0.824   0.653
 5174SOL    HW216083   4.244   0.732   0.603
 5175SOL     OW16084   4.618   1.370   0.032
 5175SOL    HW116085   4.554   1.365   0.102
 5175SOL    HW216086   4.615   1.461   0.003
 5176SOL     OW16087   4.383   1.792   0.945
 5176SOL    HW116088   4.364   1.883   0.922
 5176SOL    HW216089   4.479   1.786   0.939
 5177SOL     OW16090   4.591   0.966   0.856
 5177SOL    HW116091   4.641   0.895   0.895
 5177SOL    HW216092   4.557   1.016   0.930
 5178SOL     OW16093   4.801   0.975   0.086
 5178SOL    HW116094   4.790   1.038   0.015
 5178SOL    HW216095   4.883   0.930   0.066
 5179SOL     OW16096   3.948   1.304   1.856
 5179SOL    HW116097   3.881   1.242   1.827
 5179SOL    HW216098   3.931   1.316   1.949
 5180SOL     OW16099   3.808   1.233   0.664
 5180SOL    HW116100   3.811   1.184   0.746
 5180SOL    HW216101   3.880   1.197   0.612
 5181SOL     OW16102   4.405   1.401   1.628
 5181SOL    HW116103   4.324   1.359   1.658
 5181SOL    HW216104   4.400   1.490   1.663
 5182SOL     OW16105   4.150   0.438   0.522
 5182SOL    HW116106   4.186   0.365   0.471
 5182SOL    HW216107   4.107   0.395   0.597
 5183SOL     OW16108   0.095   1.522   1.100
 5183SOL    HW116109   0.028   1.496   1.036
 5183SOL    HW216110   0.106   1.446   1.156
 5184SOL     OW16111   4.052   0.555   1.290
 5184SOL    HW116112   4.108   0.501   1.345
 5184SOL    HW216113   4.073   0.528   1.201
 5185SOL     OW16114   4.551   1.578   0.678
 5185SOL    HW116115   4.541   1.629   0.597
 5185SOL    HW216116   4.473   1.521   0.681
 5186SOL     OW16117   5.151   0.216   1.120
 5186SOL    HW116118   5.159   0.133   1.167
 5186SOL    HW216119   5.105   0.274   1.181
 5187SOL     OW16120   4.725   0.021   1.141
 5187SOL    HW116121   4.674   5.252   1.098
 5187SOL    HW216122   4.812   5.284   1.152
 5188SOL     OW16123   4.493   1.328   0.308
 5188SOL    HW116124   4.462   1.238   0.322
 5188SOL    HW216125   4.576   1.331   0.356
 5189SOL     OW16126   4.344   1.557   1.285
 5189SOL    HW116127   4.346   1.639   1.334
 5189SOL    HW216128   4.431   1.549   1.247
 5190SOL     OW16129   5.074   5.295   0.202
 5190SOL    HW116130   5.138   0.010   0.132
 5190SOL    HW216131   5.001   0.053   0.181
 5191SOL     OW16132   5.033   0.465   0.691
 5191SOL    HW116133   4.974   0.540   0.693
 5191SOL    HW216134   5.019   0.420   0.775
 5192SOL     OW16135   5.296   0.214   0.881
 5192SOL    HW116136   5.236   0.217   0.956
 5192SOL    HW216137   5.278   0.296   0.834
 5193SOL     OW16138   3.767   1.068   0.303
 5193SOL    HW116139   3.862   1.066   0.306
 5193SOL    HW216140   3.740   0.985   0.344
 5194SOL     OW16141   4.604   1.651   0.350
 5194SOL    HW116142   4.537   1.635   0.283
 5194SOL    HW216143   4.572   1.728   0.397
 5195SOL     OW16144   3.953   0.626   1.984
 5195SOL    HW116145   3.864   0.622   2.019
 5195SOL    HW216146   3.944   0.598   1.893
 5196SOL     OW16147   3.943   0.283   2.854
 5196SOL    HW116148   3.972   0.249   2.939
 5196SOL    HW216149   3.857   0.243   2.840
 5197SOL     OW16150   3.728   0.385   2.500
 5197SOL    HW116151   3.644   0.406   2.540
 5197SOL    HW216152   3.711   0.308   2.447
 5198SOL     OW16153   4.291   1.286   3.036
 5198SOL    HW116154   4.203   1.289   2.998
 5198SOL    HW216155   4.306   1.375   3.069
 5199SOL     OW16156   5.284   1.535   2.568
 5199SOL    HW116157   5.245   1.492   2.643
 5199SOL    HW216158   5.219   1.526   2.498
 5200SOL     OW16159   4.859   0.699   2.563
 5200SOL    HW116160   4.908   0.780   2.553
 5200SOL    HW216161   4.809   0.711   2.644
 5201SOL     OW16162   4.481   1.143   2.902
 5201SOL    HW116163   4.411   1.177   2.958
 5201SOL    HW216164   4.515   1.220   2.857
 5202SOL     OW16165   4.591   0.778   3.685
 5202SOL    HW116166   4.573   0.850   3.745
 5202SOL    HW216167   4.613   0.821   3.602
 5203SOL     OW16168   4.411   1.004   2.509
 5203SOL    HW116169   4.475   0.991   2.579
 5203SOL    HW216170   4.340   1.055   2.550
 5204SOL     OW16171   4.434   1.151   3.674
 5204SOL    HW116172   4.481   1.230   3.700
 5204SOL    HW216173   4.351   1.184   3.638
 5205SOL     OW16174   4.055   1.426   2.930
 5205SOL    HW116175   3.982   1.389   2.880
 5205SOL    HW216176   4.105   1.477   2.866
 5206SOL     OW16177   5.160   1.481   3.212
 5206SOL    HW116178   5.204   1.563   3.237
 5206SOL    HW216179   5.108   1.457   3.288
 5207SOL     OW16180   4.168   0.399   3.350
 5207SOL    HW116181   4.243   0.340   3.347
 5207SOL    HW216182   4.093   0.341   3.364
 5208SOL     OW16183   3.943   1.714   2.335
 5208SOL    HW116184   3.965   1.790   2.388
 5208SOL    HW216185   4.016   1.706   2.273
 5209SOL     OW16186   4.860   1.339   3.555
 5209SOL    HW116187   4.898   1.336   3.643
 5209SOL    HW216188   4.806   1.260   3.549
 5210SOL     OW16189   3.954   1.441   2.397
 5210SOL    HW116190   3.937   1.535   2.401
 5210SOL    HW216191   3.893   1.402   2.460
 5211SOL     OW16192   3.981   1.090   2.753
 5211SOL    HW116193   3.977   1.004   2.794
 5211SOL    HW216194   3.922   1.144   2.806
 5212SOL     OW16195   4.335   1.792   3.290
 5212SOL    HW116196   4.253   1.774   3.337
 5212SOL    HW216197   4.359   1.881   3.316
 5213SOL     OW16198   4.311   0.981   1.995
 5213SOL    HW116199   4.355   1.031   1.927
 5213SOL    HW216200   4.350   1.011   2.077
 5214SOL     OW16201   5.251   0.144   3.341
 5214SOL    HW116202   5.297   0.225   3.320
 5214SOL    HW216203   5.277   0.125   3.432
 5215SOL     OW16204   3.838   0.653   2.421
 5215SOL    HW116205   3.811   0.564   2.442
 5215SOL    HW216206   3.831   0.701   2.504
 5216SOL     OW16207   3.755   1.596   1.986
 5216SOL    HW116208   3.738   1.504   2.006
 5216SOL    HW216209   3.731   1.642   2.066
 5217SOL     OW16210   0.112   0.940   2.438
 5217SOL    HW116211   0.199   0.904   2.455
 5217SOL    HW216212   0.129   1.024   2.395
 5218SOL     OW16213   3.846   0.743   3.447
 5218SOL    HW116214   3.938   0.768   3.457
 5218SOL    HW216215   3.798   0.826   3.455
 5219SOL     OW16216   4.337   1.385   2.597
 5219SOL    HW116217   4.291   1.301   2.607
 5219SOL    HW216218   4.321   1.411   2.507
 5220SOL     OW16219   5.008   1.237   3.287
 5220SOL    HW116220   5.041   1.170   3.227
 5220SOL    HW216221   5.063   1.228   3.365
 5221SOL     OW16222   4.534   0.025   2.389
 5221SOL    HW116223   4.563   0.113   2.364
 5221SOL    HW216224   4.438   0.028   2.383
 5222SOL     OW16225   3.915   0.967   3.132
 5222SOL    HW116226   3.999   0.925   3.117
 5222SOL    HW216227   3.851   0.912   3.087
 5223SOL     OW16228   4.898   1.807   3.485
 5223SOL    HW116229   4.919   1.865   3.412
 5223SOL    HW216230   4.918   1.719   3.453
 5224SOL     OW16231   4.049   0.265   3.672
 5224SOL    HW116232   4.102   0.340   3.698
 5224SOL    HW216233   3.963   0.281   3.711
 5225SOL     OW16234   5.169   1.434   2.800
 5225SOL    HW116235   5.107   1.441   2.872
 5225SOL    HW216236   5.163   1.343   2.771
 5226SOL     OW16237   4.319   0.722   2.128
 5226SOL    HW116238   4.324   0.803   2.077
 5226SOL    HW216239   4.253   0.740   2.195
 5227SOL     OW16240   4.997   0.329   2.780
 5227SOL    HW116241   4.908   0.305   2.804
 5227SOL    HW216242   5.050   0.302   2.855
 5228SOL     OW16243   4.518   0.618   3.313
 5228SOL    HW116244   4.490   0.596   3.402
 5228SOL    HW216245   4.475   0.552   3.258
 5229SOL     OW16246   5.117   0.486   3.541
 5229SOL    HW116247   5.117   0.521   3.630
 5229SOL    HW216248   5.183   0.416   3.542
 5230SOL     OW16249   4.680   0.888   3.444
 5230SOL    HW116250   4.732   0.816   3.409
 5230SOL    HW216251   4.632   0.922   3.368
 5231SOL     OW16252   4.718   0.422   3.094
 5231SOL    HW116253   4.634   0.437   3.137
 5231SOL    HW216254   4.696   0.367   3.019
 5232SOL     OW16255   4.774   0.697   2.288
 5232SOL    HW116256   4.789   0.691   2.382
 5232SOL    HW216257   4.692   0.652   2.273
 5233SOL     OW16258   3.812   0.821   2.638
 5233SOL    HW116259   3.894   0.813   2.689
 5233SOL    HW216260   3.769   0.899   2.673
 5234SOL     OW16261   3.851   1.845   3.439
 5234SOL    HW116262   3.851   1.825   3.533
 5234SOL    HW216263   3.759   1.842   3.414
 5235SOL     OW16264   4.596   0.361   2.052
 5235SOL    HW116265   4.636   0.418   1.985
 5235SOL    HW216266   4.647   0.280   2.047
 5236SOL     OW16267   5.092   1.146   2.409
 5236SOL    HW116268   5.179   1.145   2.369
 5236SOL    HW216269   5.041   1.206   2.354
 5237SOL     OW16270   4.251   0.201   2.745
 5237SOL    HW116271   4.273   0.216   2.837
 5237SOL    HW216272   4.273   0.284   2.701
 5238SOL     OW16273   4.731   1.444   2.335
 5238SOL    HW116274   4.692   1.516   2.285
 5238SOL    HW216275   4.714   1.466   2.426
 5239SOL     OW16276   4.078   1.808   2.723
 5239SOL    HW116277   4.122   1.723   2.731
 5239SOL    HW216278   4.147   1.872   2.741
 5240SOL     OW16279   4.940   1.543   3.382
 5240SOL    HW116280   4.928   1.469   3.441
 5240SOL    HW216281   4.885   1.523   3.306
 5241SOL     OW16282   4.044   0.957   2.112
 5241SOL    HW116283   4.126   0.976   2.066
 5241SOL    HW216284   4.013   0.875   2.073
 5242SOL     OW16285   4.189   1.264   3.600
 5242SOL    HW116286   4.162   1.269   3.508
 5242SOL    HW216287   4.107   1.262   3.649
 5243SOL     OW16288   4.833   1.775   2.098
 5243SOL    HW116289   4.761   1.730   2.143
 5243SOL    HW216290   4.858   1.716   2.027
 5244SOL     OW16291   3.921   0.278   3.364
 5244SOL    HW116292   3.842   0.332   3.359
 5244SOL    HW216293   3.912   0.230   3.446
 5245SOL     OW16294   4.190   1.737   2.183
 5245SOL    HW116295   4.232   1.795   2.247
 5245SOL    HW216296   4.262   1.707   2.127
 5246SOL     OW16297   5.100   0.099   2.283
 5246SOL    HW116298   5.085   0.082   2.190
 5246SOL    HW216299   5.193   0.119   2.289
 5247SOL     OW16300   3.979   1.792   3.094
 5247SOL    HW116301   4.031   1.726   3.141
 5247SOL    HW216302   3.969   1.756   3.006
 5248SOL     OW16303   4.662   1.698   2.762
 5248SOL    HW116304   4.741   1.647   2.779
 5248SOL    HW216305   4.617   1.649   2.692
 5249SOL     OW16306   4.116   0.696   2.339
 5249SOL    HW116307   4.138   0.603   2.349
 5249SOL    HW216308   4.022   0.701   2.356
 5250SOL     OW16309   4.346   0.133   1.970
 5250SOL    HW116310   4.419   0.074   1.988
 5250SOL    HW216311   4.298   0.090   1.899
 5251SOL     OW16312   4.509   0.312   3.629
 5251SOL    HW116313   4.570   0.238   3.629
 5251SOL    HW216314   4.458   0.301   3.709
 5252SOL     OW16315   4.600   1.521   3.055
 5252SOL    HW116316   4.585   1.486   2.968
 5252SOL    HW216317   4.670   1.467   3.092
 5253SOL     OW16318   5.060   0.591   3.293
 5253SOL    HW116319   5.091   0.560   3.378
 5253SOL    HW216320   5.099   0.678   3.284
 5254SOL     OW16321   4.538   1.396   2.800
 5254SOL    HW116322   4.622   1.385   2.756
 5254SOL    HW216323   4.474   1.396   2.730
 5255SOL     OW16324   4.651   0.511   2.765
 5255SOL    HW116325   4.628   0.501   2.673
 5255SOL    HW216326   4.682   0.424   2.791
 5256SOL     OW16327   4.266   0.063   2.371
 5256SOL    HW116328   4.180   0.062   2.413
 5256SOL    HW216329   4.260   0.133   2.306
 5257SOL     OW16330   5.137   1.180   1.905
 5257SOL    HW116331   5.148   1.103   1.961
 5257SOL    HW216332   5.050   1.212   1.926
 5258SOL     OW16333   4.026   0.061   2.052
 5258SOL    HW116334   4.085   0.130   2.021
 5258SOL    HW216335   4.082   5.285   2.065
 5259SOL     OW16336   4.661   0.260   2.325
 5259SOL    HW116337   4.632   0.295   2.241
 5259SOL    HW216338   4.756   0.274   2.326
 5260SOL     OW16339   4.802   0.680   3.323
 5260SOL    HW116340   4.732   0.615   3.325
 5260SOL    HW216341   4.882   0.629   3.312
 5261SOL     OW16342   4.941   1.571   2.656
 5261SOL    HW116343   4.964   1.637   2.591
 5261SOL    HW216344   5.020   1.561   2.708
 5262SOL     OW16345   4.192   1.149   2.596
 5262SOL    HW116346   4.123   1.130   2.659
 5262SOL    HW216347   4.153   1.132   2.511
 5263SOL     OW16348   4.996   1.794   2.467
 5263SOL    HW116349   5.038   1.855   2.406
 5263SOL    HW216350   4.930   1.846   2.512
 5264SOL     OW16351   4.754   0.551   1.881
 5264SOL    HW116352   4.706   0.632   1.863
 5264SOL    HW216353   4.807   0.571   1.957
 5265SOL     OW16354   3.802   0.553   3.255
 5265SOL    HW116355   3.894   0.553   3.227
 5265SOL    HW216356   3.797   0.624   3.319
 5266SOL     OW16357   4.280   0.238   3.020
 5266SOL    HW116358   4.312   0.152   3.048
 5266SOL    HW216359   4.188   0.239   3.046
 5267SOL     OW16360   4.593   0.464   2.502
 5267SOL    HW116361   4.544   0.516   2.439
 5267SOL    HW216362   4.613   0.382   2.456
 5268SOL     OW16363   4.699   0.063   2.624
 5268SOL    HW116364   4.635   0.054   2.554
 5268SOL    HW216365   4.714   5.273   2.655
 5269SOL     OW16366   5.158   1.175   2.713
 5269SOL    HW116367   5.101   1.099   2.726
 5269SOL    HW216368   5.169   1.181   2.618
 5270SOL     OW16369   4.215   1.417   2.020
 5270SOL    HW116370   4.140   1.388   2.072
 5270SOL    HW216371   4.199   1.381   1.933
 5271SOL     OW16372   5.127   0.560   1.942
 5271SOL    HW116373   5.052   0.552   2.001
 5271SOL    HW216374   5.202   0.531   1.995
 5272SOL     OW16375   4.248   0.265   2.184
 5272SOL    HW116376   4.291   0.215   2.115
 5272SOL    HW216377   4.228   0.349   2.144
 5273SOL     OW16378   4.781   1.354   3.195
 5273SOL    HW116379   4.706   1.323   3.246
 5273SOL    HW216380   4.857   1.311   3.236
 5274SOL     OW16381   0.006   1.604   3.479
 5274SOL    HW116382   0.040   1.610   3.390
 5274SOL    HW216383   0.083   1.584   3.533
 5275SOL     OW16384   4.852   1.202   2.969
 5275SOL    HW116385   4.791   1.238   3.033
 5275SOL    HW216386   4.818   1.232   2.884
 5276SOL     OW16387   4.625   0.104   3.251
 5276SOL    HW116388   4.658   0.070   3.167
 5276SOL    HW216389   4.701   0.147   3.290
 5277SOL     OW16390   4.708   1.113   3.587
 5277SOL    HW116391   4.616   1.130   3.606
 5277SOL    HW216392   4.706   1.036   3.529
 5278SOL     OW16393   4.432   1.061   2.233
 5278SOL    HW116394   4.418   1.045   2.327
 5278SOL    HW216395   4.508   1.008   2.211
 5279SOL     OW16396   4.142   0.815   3.113
 5279SOL    HW116397   4.211   0.824   3.179
 5279SOL    HW216398   4.107   0.727   3.127
 5280SOL     OW16399   4.992   0.380   3.131
 5280SOL    HW116400   5.025   0.458   3.176
 5280SOL    HW216401   4.901   0.401   3.109
 5281SOL     OW16402   3.794   1.573   3.214
 5281SOL    HW116403   3.763   1.646   3.161
 5281SOL    HW216404   3.889   1.578   3.209
 5282SOL     OW16405   4.075   1.108   2.353
 5282SOL    HW116406   4.079   1.182   2.292
 5282SOL    HW216407   4.072   1.030   2.297
 5283SOL     OW16408   4.278   0.538   2.723
 5283SOL    HW116409   4.294   0.596   2.648
 5283SOL    HW216410   4.343   0.565   2.788
 5284SOL     OW16411   4.972   1.349   2.250
 5284SOL    HW116412   5.026   1.421   2.280
 5284SOL    HW216413   4.884   1.368   2.283
 5285SOL     OW16414   4.993   1.456   3.001
 5285SOL    HW116415   5.048   1.458   3.079
 5285SOL    HW216416   4.939   1.377   3.012
 5286SOL     OW16417   4.071   1.526   3.178
 5286SOL    HW116418   4.058   1.484   3.093
 5286SOL    HW216419   4.166   1.539   3.185
 5287SOL     OW16420   4.138   0.745   3.464
 5287SOL    HW116421   4.199   0.790   3.406
 5287SOL    HW216422   4.179   0.660   3.481
 5288SOL     OW16423   4.753   0.116   3.621
 5288SOL    HW116424   4.793   0.197   3.592
 5288SOL    HW216425   4.791   0.048   3.566
 5289SOL     OW16426   4.204   0.057   3.600
 5289SOL    HW116427   4.146   5.293   3.558
 5289SOL    HW216428   4.146   0.130   3.622
 5290SOL     OW16429   4.308   0.872   2.893
 5290SOL    HW116430   4.337   0.964   2.892
 5290SOL    HW216431   4.250   0.867   2.970
 5291SOL     OW16432   5.086   0.858   2.899
 5291SOL    HW116433   5.008   0.841   2.845
 5291SOL    HW216434   5.136   0.776   2.895
 5292SOL     OW16435   4.930   0.531   2.129
 5292SOL    HW116436   4.934   0.451   2.180
 5292SOL    HW216437   4.886   0.594   2.186
 5293SOL     OW16438   4.021   0.204   3.109
 5293SOL    HW116439   3.982   0.243   3.187
 5293SOL    HW216440   4.019   0.110   3.126
 5294SOL     OW16441   3.770   1.311   3.139
 5294SOL    HW116442   3.803   1.257   3.210
 5294SOL    HW216443   3.777   1.400   3.171
 5295SOL     OW16444   4.450   0.632   2.922
 5295SOL    HW116445   4.523   0.614   2.863
 5295SOL    HW216446   4.421   0.720   2.899
 5296SOL     OW16447   4.025   0.073   2.511
 5296SOL    HW116448   4.010   0.167   2.520
 5296SOL    HW216449   4.066   0.047   2.594
 5297SOL     OW16450   0.028   0.406   2.227
 5297SOL    HW116451   0.060   0.344   2.293
 5297SOL    HW216452   0.004   0.484   2.277
 5298SOL     OW16453   4.751   0.759   2.823
 5298SOL    HW116454   4.750   0.777   2.917
 5298SOL    HW216455   4.725   0.667   2.815
 5299SOL     OW16456   4.698   1.562   3.575
 5299SOL    HW116457   4.687   1.609   3.493
 5299SOL    HW216458   4.746   1.483   3.551
 5300SOL     OW16459   4.077   0.916   3.671
 5300SOL    HW116460   4.160   0.935   3.716
 5300SOL    HW216461   4.101   0.853   3.602
 5301SOL     OW16462   5.028   0.830   1.899
 5301SOL    HW116463   5.063   0.741   1.899
 5301SOL    HW216464   5.054   0.865   1.814
 5302SOL     OW16465   4.789   1.334   2.717
 5302SOL    HW116466   4.793   1.262   2.654
 5302SOL    HW216467   4.847   1.401   2.681
 5303SOL     OW16468   4.033   0.809   2.810
 5303SOL    HW116469   4.126   0.831   2.803
 5303SOL    HW216470   4.032   0.719   2.842
 5304SOL     OW16471   4.057   0.525   2.874
 5304SOL    HW116472   4.020   0.438   2.858
 5304SOL    HW216473   4.133   0.530   2.817
 5305SOL     OW16474   4.861   0.377   3.551
 5305SOL    HW116475   4.812   0.432   3.612
 5305SOL    HW216476   4.946   0.422   3.543
 5306SOL     OW16477   4.848   0.233   3.321
 5306SOL    HW116478   4.860   0.283   3.401
 5306SOL    HW216479   4.912   0.270   3.260
 5307SOL     OW16480   3.729   1.322   2.057
 5307SOL    HW116481   3.642   1.336   2.019
 5307SOL    HW216482   3.726   1.232   2.090
 5308SOL     OW16483   3.814   1.788   2.800
 5308SOL    HW116484   3.784   1.708   2.756
 5308SOL    HW216485   3.904   1.800   2.768
 5309SOL     OW16486   4.221   1.573   2.768
 5309SOL    HW116487   4.290   1.636   2.792
 5309SOL    HW216488   4.265   1.510   2.712
 5310SOL     OW16489   4.708   0.794   3.090
 5310SOL    HW116490   4.763   0.769   3.164
 5310SOL    HW216491   4.623   0.755   3.108
 5311SOL     OW16492   3.759   0.543   2.979
 5311SOL    HW116493   3.839   0.529   2.928
 5311SOL    HW216494   3.789   0.548   3.070
 5312SOL     OW16495   3.911   0.521   3.588
 5312SOL    HW116496   3.974   0.486   3.525
 5312SOL    HW216497   3.870   0.595   3.543
 5313SOL     OW16498   5.112   0.939   3.528
 5313SOL    HW116499   5.120   1.033   3.517
 5313SOL    HW216500   5.114   0.903   3.439
 5314SOL     OW16501   4.539   0.573   2.221
 5314SOL    HW116502   4.541   0.497   2.163
 5314SOL    HW216503   4.464   0.624   2.191
 5315SOL     OW16504   3.969   1.552   3.590
 5315SOL    HW116505   3.945   1.616   3.657
 5315SOL    HW216506   3.969   1.468   3.637
 5316SOL     OW16507   4.420   0.453   3.124
 5316SOL    HW116508   4.371   0.378   3.090
 5316SOL    HW216509   4.421   0.516   3.052
 5317SOL     OW16510   4.646   1.680   3.330
 5317SOL    HW116511   4.624   1.648   3.243
 5317SOL    HW216512   4.647   1.775   3.321
 5318SOL     OW16513   4.188   0.493   2.046
 5318SOL    HW116514   4.247   0.565   2.069
 5318SOL    HW216515   4.102   0.535   2.037
 5319SOL     OW16516   3.871   1.140   3.334
 5319SOL    HW116517   3.873   1.088   3.414
 5319SOL    HW216518   3.888   1.077   3.264
 5320SOL     OW16519   5.054   1.050   3.087
 5320SOL    HW116520   5.076   0.985   3.019
 5320SOL    HW216521   4.982   1.100   3.049
 5321SOL     OW16522   5.035   0.858   2.178
 5321SOL    HW116523   4.952   0.827   2.216
 5321SOL    HW216524   5.022   0.851   2.084
 5322SOL     OW16525   4.960   1.731   2.984
 5322SOL    HW116526   5.046   1.751   2.946
 5322SOL    HW216527   4.960   1.636   2.994
 5323SOL     OW16528   3.808   1.267   2.874
 5323SOL    HW116529   3.794   1.279   2.968
 5323SOL    HW216530   3.734   1.212   2.846
 5324SOL     OW16531   4.401   1.664   3.589
 5324SOL    HW116532   4.349   1.745   3.584
 5324SOL    HW216533   4.469   1.675   3.522
 5325SOL     OW16534   5.111   1.570   2.342
 5325SOL    HW116535   5.180   1.610   2.290
 5325SOL    HW216536   5.062   1.644   2.377
 5326SOL     OW16537   3.860   1.796   3.705
 5326SOL    HW116538   3.809   1.731   3.753
 5326SOL    HW216539   3.908   1.845   3.773
 5327SOL     OW16540   5.016   0.919   2.535
 5327SOL    HW116541   5.093   0.864   2.521
 5327SOL    HW216542   5.034   1.000   2.486
 5328SOL     OW16543   4.539   1.273   3.293
 5328SOL    HW116544   4.511   1.312   3.375
 5328SOL    HW216545   4.470   1.295   3.231
 5329SOL     OW16546   4.395   1.619   2.017
 5329SOL    HW116547   4.406   1.631   1.923
 5329SOL    HW216548   4.341   1.541   2.026
 5330SOL     OW16549   3.987   0.329   2.581
 5330SOL    HW116550   3.899   0.360   2.559
 5330SOL    HW216551   3.984   0.317   2.676
 5331SOL     OW16552   4.909   1.609   1.903
 5331SOL    HW116553   4.920   1.515   1.914
 5331SOL    HW216554   4.855   1.618   1.825
 5332SOL     OW16555   4.548   1.006   3.235
 5332SOL    HW116556   4.591   1.001   3.149
 5332SOL    HW216557   4.548   1.099   3.256
 5333SOL     OW16558   4.640   0.912   2.152
 5333SOL    HW116559   4.702   0.943   2.086
 5333SOL    HW216560   4.686   0.840   2.196
 5334SOL     OW16561   4.093   1.302   3.354
 5334SOL    HW116562   4.080   1.380   3.299
 5334SOL    HW216563   4.016   1.248   3.337
 5335SOL     OW16564   4.775   1.106   2.568
 5335SOL    HW116565   4.704   1.057   2.609
 5335SOL    HW216566   4.832   1.040   2.530
 5336SOL     OW16567   4.739   0.242   2.832
 5336SOL    HW116568   4.720   0.197   2.750
 5336SOL    HW216569   4.733   0.174   2.899
 5337SOL     OW16570   4.326   1.488   2.344
 5337SOL    HW116571   4.370   1.438   2.275
 5337SOL    HW216572   4.258   1.537   2.298
 5338SOL     OW16573   3.983   1.346   2.150
 5338SOL    HW116574   3.890   1.343   2.127
 5338SOL    HW216575   3.985   1.382   2.238
 5339SOL     OW16576   3.836   1.021   3.581
 5339SOL    HW116577   3.760   0.998   3.634
 5339SOL    HW216578   3.911   0.984   3.629
 5340SOL     OW16579   4.396   0.211   3.351
 5340SOL    HW116580   4.479   0.191   3.307
 5340SOL    HW216581   4.421   0.259   3.429
 5341SOL     OW16582   3.801   0.340   1.903
 5341SOL    HW116583   3.718   0.306   1.870
 5341SOL    HW216584   3.822   0.413   1.845
 5342SOL     OW16585   5.163   0.860   3.265
 5342SOL    HW116586   5.110   0.915   3.209
 5342SOL    HW216587   5.252   0.870   3.232
 5343SOL     OW16588   3.796   0.167   2.178
 5343SOL    HW116589   3.796   0.250   2.130
 5343SOL    HW216590   3.881   0.127   2.158
 5344SOL     OW16591   4.907   1.330   1.976
 5344SOL    HW116592   4.813   1.312   1.977
 5344SOL    HW216593   4.931   1.337   2.069
 5345SOL     OW16594   4.343   0.831   3.295
 5345SOL    HW116595   4.398   0.907   3.280
 5345SOL    HW216596   4.404   0.758   3.303
 5346SOL     OW16597   4.440   0.571   3.565
 5346SOL    HW116598   4.479   0.633   3.626
 5346SOL    HW216599   4.471   0.485   3.595
 5347SOL     OW16600   5.182   1.204   3.494
 5347SOL    HW116601   5.173   1.217   3.589
 5347SOL    HW216602   5.276   1.212   3.478
 5348SOL     OW16603   4.104   1.739   3.426
 5348SOL    HW116604   4.019   1.780   3.413
 5348SOL    HW216605   4.084   1.656   3.468
 5349SOL     OW16606   4.942   0.323   2.323
 5349SOL    HW116607   4.998   0.246   2.316
 5349SOL    HW216608   4.973   0.368   2.402
 5350SOL     OW16609   4.315   0.739   2.531
 5350SOL    HW116610   4.353   0.825   2.514
 5350SOL    HW216611   4.246   0.730   2.465
 5351SOL     OW16612   4.590   1.367   1.896
 5351SOL    HW116613   4.549   1.396   1.977
 5351SOL    HW216614   4.607   1.447   1.846
 5352SOL     OW16615   4.384   1.792   2.807
 5352SOL    HW116616   4.364   1.883   2.784
 5352SOL    HW216617   4.479   1.786   2.800
 5353SOL     OW16618   4.592   0.967   2.718
 5353SOL    HW116619   4.641   0.895   2.757
 5353SOL    HW216620   4.557   1.016   2.792
 5354SOL     OW16621   4.807   0.988   1.952
 5354SOL    HW116622   4.782   1.037   1.874
 5354SOL    HW216623   4.881   0.934   1.924
 5355SOL     OW16624   3.949   1.304   3.718
 5355SOL    HW116625   3.881   1.243   3.688
 5355SOL    HW216626   3.931   1.316   3.811
 5356SOL     OW16627   3.808   1.234   2.527
 5356SOL    HW116628   3.812   1.185   2.609
 5356SOL    HW216629   3.876   1.195   2.472
 5357SOL     OW16630   4.405   1.401   3.490
 5357SOL    HW116631   4.324   1.359   3.520
 5357SOL    HW216632   4.400   1.490   3.525
 5358SOL     OW16633   4.154   0.435   2.386
 5358SOL    HW116634   4.185   0.363   2.332
 5358SOL    HW216635   4.108   0.393   2.458
 5359SOL     OW16636   0.096   1.521   2.961
 5359SOL    HW116637   0.028   1.496   2.899
 5359SOL    HW216638   0.105   1.445   3.019
 5360SOL     OW16639   4.052   0.555   3.152
 5360SOL    HW116640   4.108   0.500   3.207
 5360SOL    HW216641   4.073   0.528   3.063
 5361SOL     OW16642   4.551   1.577   2.540
 5361SOL    HW116643   4.541   1.629   2.460
 5361SOL    HW216644   4.473   1.521   2.542
 5362SOL     OW16645   5.151   0.216   2.982
 5362SOL    HW116646   5.160   0.134   3.029
 5362SOL    HW216647   5.105   0.274   3.043
 5363SOL     OW16648   4.725   0.021   3.003
 5363SOL    HW116649   4.674   5.251   2.961
 5363SOL    HW216650   4.812   5.284   3.014
 5364SOL     OW16651   4.494   1.332   2.176
 5364SOL    HW116652   4.463   1.242   2.182
 5364SOL    HW216653   4.577   1.332   2.224
 5365SOL     OW16654   4.344   1.557   3.147
 5365SOL    HW116655   4.346   1.639   3.196
 5365SOL    HW216656   4.431   1.549   3.109
 5366SOL     OW16657   5.035   0.035   2.023
 5366SOL    HW116658   5.117   0.028   1.972
 5366SOL    HW216659   4.984   5.259   1.997
 5367SOL     OW16660   5.029   0.461   2.548
 5367SOL    HW116661   4.972   0.538   2.552
 5367SOL    HW216662   5.017   0.418   2.633
 5368SOL     OW16663   5.296   0.214   2.744
 5368SOL    HW116664   5.236   0.216   2.819
 5368SOL    HW216665   5.279   0.296   2.697
 5369SOL     OW16666   3.768   1.072   2.168
 5369SOL    HW116667   3.861   1.063   2.150
 5369SOL    HW216668   3.739   0.983   2.190
 5370SOL     OW16669   4.604   1.649   2.208
 5370SOL    HW116670   4.533   1.634   2.145
 5370SOL    HW216671   4.576   1.727   2.257
 5371SOL     OW16672   3.953   0.625   3.846
 5371SOL    HW116673   3.864   0.622   3.881
 5371SOL    HW216674   3.944   0.598   3.755
 5372SOL     OW16675   3.943   0.283   4.716
 5372SOL    HW116676   3.972   0.249   4.801
 5372SOL    HW216677   3.857   0.243   4.702
 5373SOL     OW16678   3.728   0.385   4.362
 5373SOL    HW116679   3.644   0.406   4.402
 5373SOL    HW216680   3.711   0.308   4.309
 5374SOL     OW16681   4.291   1.286   4.898
 5374SOL    HW116682   4.203   1.289   4.860
 5374SOL    HW216683   4.306   1.375   4.931
 5375SOL     OW16684   5.284   1.535   4.430
 5375SOL    HW116685   5.245   1.492   4.505
 5375SOL    HW216686   5.219   1.526   4.360
 5376SOL     OW16687   4.859   0.699   4.425
 5376SOL    HW116688   4.908   0.780   4.415
 5376SOL    HW216689   4.809   0.711   4.506
 5377SOL     OW16690   4.481   1.143   4.764
 5377SOL    HW116691   4.411   1.177   4.820
 5377SOL    HW216692   4.515   1.220   4.719
 5378SOL     OW16693   4.591   0.778   5.547
 5378SOL    HW116694   4.573   0.850   5.607
 5378SOL    HW216695   4.613   0.821   5.464
 5379SOL     OW16696   4.411   1.004   4.371
 5379SOL    HW116697   4.475   0.991   4.441
 5379SOL    HW216698   4.341   1.055   4.412
 5380SOL     OW16699   4.434   1.151   5.536
 5380SOL    HW116700   4.481   1.230   5.562
 5380SOL    HW216701   4.351   1.184   5.500
 5381SOL     OW16702   4.054   1.427   4.792
 5381SOL    HW116703   3.982   1.389   4.741
 5381SOL    HW216704   4.105   1.477   4.728
 5382SOL     OW16705   5.160   1.481   5.074
 5382SOL    HW116706   5.204   1.563   5.099
 5382SOL    HW216707   5.108   1.457   5.150
 5383SOL     OW16708   4.168   0.399   5.212
 5383SOL    HW116709   4.243   0.340   5.209
 5383SOL    HW216710   4.093   0.341   5.226
 5384SOL     OW16711   3.943   1.714   4.197
 5384SOL    HW116712   3.966   1.790   4.250
 5384SOL    HW216713   4.015   1.706   4.134
 5385SOL     OW16714   4.860   1.339   5.417
 5385SOL    HW116715   4.898   1.336   5.505
 5385SOL    HW216716   4.806   1.260   5.411
 5386SOL     OW16717   3.954   1.441   4.259
 5386SOL    HW116718   3.937   1.535   4.263
 5386SOL    HW216719   3.893   1.403   4.322
 5387SOL     OW16720   3.981   1.090   4.615
 5387SOL    HW116721   3.977   1.004   4.656
 5387SOL    HW216722   3.922   1.144   4.668
 5388SOL     OW16723   4.335   1.792   5.152
 5388SOL    HW116724   4.253   1.774   5.199
 5388SOL    HW216725   4.359   1.881   5.178
 5389SOL     OW16726   4.311   0.981   3.857
 5389SOL    HW116727   4.355   1.031   3.789
 5389SOL    HW216728   4.351   1.011   3.939
 5390SOL     OW16729   5.251   0.144   5.203
 5390SOL    HW116730   5.297   0.225   5.182
 5390SOL    HW216731   5.277   0.125   5.294
 5391SOL     OW16732   3.838   0.653   4.283
 5391SOL    HW116733   3.811   0.564   4.304
 5391SOL    HW216734   3.831   0.701   4.366
 5392SOL     OW16735   3.756   1.595   3.848
 5392SOL    HW116736   3.737   1.504   3.868
 5392SOL    HW216737   3.731   1.642   3.928
 5393SOL     OW16738   0.112   0.940   4.300
 5393SOL    HW116739   0.200   0.905   4.317
 5393SOL    HW216740   0.129   1.024   4.257
 5394SOL     OW16741   3.846   0.743   5.309
 5394SOL    HW116742   3.938   0.768   5.319
 5394SOL    HW216743   3.798   0.826   5.317
 5395SOL     OW16744   4.337   1.385   4.459
 5395SOL    HW116745   4.291   1.301   4.468
 5395SOL    HW216746   4.321   1.411   4.369
 5396SOL     OW16747   5.008   1.237   5.149
 5396SOL    HW116748   5.041   1.170   5.089
 5396SOL    HW216749   5.063   1.228   5.227
 5397SOL     OW16750   4.534   0.025   4.251
 5397SOL    HW116751   4.563   0.113   4.226
 5397SOL    HW216752   4.438   0.028   4.245
 5398SOL     OW16753   3.915   0.967   4.994
 5398SOL    HW116754   3.999   0.925   4.979
 5398SOL    HW216755   3.851   0.912   4.949
 5399SOL     OW16756   4.898   1.807   5.347
 5399SOL    HW116757   4.919   1.865   5.274
 5399SOL    HW216758   4.918   1.719   5.315
 5400SOL     OW16759   4.049   0.265   5.533
 5400SOL    HW116760   4.102   0.340   5.560
 5400SOL    HW216761   3.963   0.281   5.573
 5401SOL     OW16762   5.169   1.434   4.662
 5401SOL    HW116763   5.107   1.441   4.734
 5401SOL    HW216764   5.163   1.343   4.633
 5402SOL     OW16765   4.319   0.722   3.990
 5402SOL    HW116766   4.324   0.803   3.939
 5402SOL    HW216767   4.253   0.740   4.057
 5403SOL     OW16768   4.997   0.329   4.642
 5403SOL    HW116769   4.908   0.305   4.666
 5403SOL    HW216770   5.050   0.302   4.717
 5404SOL     OW16771   4.518   0.618   5.175
 5404SOL    HW116772   4.490   0.596   5.264
 5404SOL    HW216773   4.475   0.552   5.120
 5405SOL     OW16774   5.117   0.486   5.403
 5405SOL    HW116775   5.117   0.521   5.492
 5405SOL    HW216776   5.183   0.416   5.405
 5406SOL     OW16777   4.680   0.888   5.306
 5406SOL    HW116778   4.732   0.816   5.271
 5406SOL    HW216779   4.632   0.922   5.230
 5407SOL     OW16780   4.718   0.421   4.956
 5407SOL    HW116781   4.634   0.437   4.999
 5407SOL    HW216782   4.696   0.367   4.881
 5408SOL     OW16783   4.775   0.697   4.150
 5408SOL    HW116784   4.789   0.691   4.244
 5408SOL    HW216785   4.692   0.652   4.135
 5409SOL     OW16786   3.812   0.820   4.501
 5409SOL    HW116787   3.894   0.813   4.551
 5409SOL    HW216788   3.769   0.899   4.535
 5410SOL     OW16789   3.851   1.846   5.301
 5410SOL    HW116790   3.851   1.825   5.395
 5410SOL    HW216791   3.760   1.839   5.275
 5411SOL     OW16792   4.596   0.361   3.914
 5411SOL    HW116793   4.636   0.418   3.848
 5411SOL    HW216794   4.647   0.280   3.909
 5412SOL     OW16795   5.092   1.146   4.271
 5412SOL    HW116796   5.179   1.145   4.231
 5412SOL    HW216797   5.041   1.206   4.216
 5413SOL     OW16798   4.251   0.201   4.607
 5413SOL    HW116799   4.273   0.216   4.699
 5413SOL    HW216800   4.273   0.284   4.563
 5414SOL     OW16801   4.731   1.444   4.197
 5414SOL    HW116802   4.692   1.516   4.147
 5414SOL    HW216803   4.714   1.466   4.288
 5415SOL     OW16804   4.078   1.808   4.585
 5415SOL    HW116805   4.122   1.724   4.593
 5415SOL    HW216806   4.147   1.873   4.603
 5416SOL     OW16807   4.940   1.543   5.244
 5416SOL    HW116808   4.928   1.469   5.303
 5416SOL    HW216809   4.885   1.523   5.168
 5417SOL     OW16810   4.045   0.957   3.974
 5417SOL    HW116811   4.126   0.976   3.928
 5417SOL    HW216812   4.013   0.875   3.935
 5418SOL     OW16813   4.189   1.264   5.462
 5418SOL    HW116814   4.162   1.269   5.370
 5418SOL    HW216815   4.107   1.262   5.511
 5419SOL     OW16816   4.833   1.775   3.960
 5419SOL    HW116817   4.761   1.730   4.005
 5419SOL    HW216818   4.858   1.716   3.889
 5420SOL     OW16819   3.921   0.278   5.226
 5420SOL    HW116820   3.842   0.332   5.221
 5420SOL    HW216821   3.912   0.230   5.308
 5421SOL     OW16822   4.190   1.737   4.045
 5421SOL    HW116823   4.232   1.795   4.109
 5421SOL    HW216824   4.262   1.707   3.989
 5422SOL     OW16825   5.100   0.099   4.145
 5422SOL    HW116826   5.085   0.082   4.052
 5422SOL    HW216827   5.193   0.119   4.151
 5423SOL     OW16828   3.978   1.791   4.956
 5423SOL    HW116829   4.031   1.726   5.002
 5423SOL    HW216830   3.969   1.757   4.868
 5424SOL     OW16831   4.662   1.698   4.624
 5424SOL    HW116832   4.741   1.647   4.641
 5424SOL    HW216833   4.617   1.649   4.554
 5425SOL     OW16834   4.116   0.696   4.201
 5425SOL    HW116835   4.138   0.603   4.211
 5425SOL    HW216836   4.022   0.701   4.218
 5426SOL     OW16837   4.346   0.133   3.832
 5426SOL    HW116838   4.419   0.074   3.850
 5426SOL    HW216839   4.298   0.090   3.761
 5427SOL     OW16840   4.509   0.312   5.491
 5427SOL    HW116841   4.570   0.238   5.491
 5427SOL    HW216842   4.458   0.301   5.571
 5428SOL     OW16843   4.600   1.521   4.918
 5428SOL    HW116844   4.585   1.486   4.830
 5428SOL    HW216845   4.670   1.467   4.954
 5429SOL     OW16846   5.060   0.591   5.155
 5429SOL    HW116847   5.091   0.560   5.240
 5429SOL    HW216848   5.099   0.678   5.146
 5430SOL     OW16849   4.538   1.396   4.662
 5430SOL    HW116850   4.622   1.385   4.618
 5430SOL    HW216851   4.474   1.396   4.591
 5431SOL     OW16852   4.651   0.511   4.627
 5431SOL    HW116853   4.628   0.501   4.535
 5431SOL    HW216854   4.682   0.424   4.653
 5432SOL     OW16855   4.266   0.063   4.233
 5432SOL    HW116856   4.180   0.062   4.275
 5432SOL    HW216857   4.260   0.133   4.168
 5433SOL     OW16858   5.137   1.180   3.767
 5433SOL    HW116859   5.148   1.103   3.823
 5433SOL    HW216860   5.049   1.212   3.788
 5434SOL     OW16861   4.026   0.061   3.914
 5434SOL    HW116862   4.084   0.130   3.883
 5434SOL    HW216863   4.082   5.285   3.927
 5435SOL     OW16864   4.661   0.260   4.187
 5435SOL    HW116865   4.632   0.295   4.103
 5435SOL    HW216866   4.756   0.274   4.187
 5436SOL     OW16867   4.802   0.680   5.185
 5436SOL    HW116868   4.732   0.615   5.187
 5436SOL    HW216869   4.882   0.629   5.174
 5437SOL     OW16870   4.941   1.571   4.518
 5437SOL    HW116871   4.964   1.637   4.453
 5437SOL    HW216872   5.020   1.561   4.570
 5438SOL     OW16873   4.192   1.149   4.458
 5438SOL    HW116874   4.123   1.130   4.521
 5438SOL    HW216875   4.153   1.132   4.373
 5439SOL     OW16876   4.996   1.794   4.329
 5439SOL    HW116877   5.038   1.855   4.268
 5439SOL    HW216878   4.930   1.846   4.374
 5440SOL     OW16879   4.754   0.551   3.742
 5440SOL    HW116880   4.706   0.632   3.725
 5440SOL    HW216881   4.807   0.571   3.819
 5441SOL     OW16882   3.802   0.553   5.117
 5441SOL    HW116883   3.894   0.553   5.089
 5441SOL    HW216884   3.797   0.624   5.181
 5442SOL     OW16885   4.280   0.238   4.882
 5442SOL    HW116886   4.312   0.152   4.910
 5442SOL    HW216887   4.188   0.239   4.908
 5443SOL     OW16888   4.593   0.464   4.364
 5443SOL    HW116889   4.544   0.516   4.301
 5443SOL    HW216890   4.613   0.382   4.318
 5444SOL     OW16891   4.699   0.063   4.486
 5444SOL    HW116892   4.635   0.054   4.416
 5444SOL    HW216893   4.714   5.273   4.517
 5445SOL     OW16894   5.158   1.175   4.575
 5445SOL    HW116895   5.101   1.100   4.588
 5445SOL    HW216896   5.169   1.181   4.480
 5446SOL     OW16897   4.215   1.417   3.882
 5446SOL    HW116898   4.140   1.388   3.934
 5446SOL    HW216899   4.198   1.381   3.794
 5447SOL     OW16900   5.127   0.560   3.804
 5447SOL    HW116901   5.052   0.552   3.863
 5447SOL    HW216902   5.202   0.532   3.858
 5448SOL     OW16903   4.248   0.265   4.046
 5448SOL    HW116904   4.291   0.215   3.977
 5448SOL    HW216905   4.228   0.349   4.006
 5449SOL     OW16906   4.781   1.354   5.057
 5449SOL    HW116907   4.706   1.323   5.108
 5449SOL    HW216908   4.857   1.311   5.098
 5450SOL     OW16909   0.006   1.604   5.341
 5450SOL    HW116910   0.040   1.610   5.252
 5450SOL    HW216911   0.083   1.584   5.395
 5451SOL     OW16912   4.852   1.202   4.831
 5451SOL    HW116913   4.791   1.238   4.895
 5451SOL    HW216914   4.818   1.232   4.746
 5452SOL     OW16915   4.625   0.104   5.113
 5452SOL    HW116916   4.658   0.070   5.029
 5452SOL    HW216917   4.701   0.147   5.152
 5453SOL     OW16918   4.708   1.113   5.449
 5453SOL    HW116919   4.616   1.130   5.468
 5453SOL    HW216920   4.706   1.036   5.391
 5454SOL     OW16921   4.432   1.061   4.095
 5454SOL    HW116922   4.418   1.045   4.189
 5454SOL    HW216923   4.508   1.008   4.073
 5455SOL     OW16924   4.142   0.815   4.975
 5455SOL    HW116925   4.211   0.824   5.041
 5455SOL    HW216926   4.107   0.727   4.989
 5456SOL     OW16927   4.992   0.380   4.993
 5456SOL    HW116928   5.025   0.458   5.038
 5456SOL    HW216929   4.901   0.401   4.971
 5457SOL     OW16930   3.794   1.573   5.076
 5457SOL    HW116931   3.763   1.646   5.021
 5457SOL    HW216932   3.889   1.577   5.071
 5458SOL     OW16933   4.075   1.108   4.215
 5458SOL    HW116934   4.079   1.182   4.154
 5458SOL    HW216935   4.072   1.031   4.159
 5459SOL     OW16936   4.278   0.538   4.585
 5459SOL    HW116937   4.294   0.596   4.510
 5459SOL    HW216938   4.343   0.565   4.650
 5460SOL     OW16939   4.972   1.349   4.112
 5460SOL    HW116940   5.026   1.421   4.142
 5460SOL    HW216941   4.884   1.369   4.145
 5461SOL     OW16942   4.993   1.456   4.863
 5461SOL    HW116943   5.048   1.458   4.941
 5461SOL    HW216944   4.939   1.377   4.874
 5462SOL     OW16945   4.071   1.526   5.040
 5462SOL    HW116946   4.058   1.484   4.955
 5462SOL    HW216947   4.166   1.539   5.047
 5463SOL     OW16948   4.138   0.745   5.326
 5463SOL    HW116949   4.199   0.790   5.268
 5463SOL    HW216950   4.179   0.660   5.343
 5464SOL     OW16951   4.753   0.116   5.483
 5464SOL    HW116952   4.793   0.197   5.454
 5464SOL    HW216953   4.791   0.048   5.428
 5465SOL     OW16954   4.204   0.057   5.462
 5465SOL    HW116955   4.146   5.293   5.420
 5465SOL    HW216956   4.146   0.130   5.484
 5466SOL     OW16957   4.308   0.872   4.755
 5466SOL    HW116958   4.337   0.964   4.753
 5466SOL    HW216959   4.250   0.867   4.832
 5467SOL     OW16960   5.086   0.858   4.762
 5467SOL    HW116961   5.008   0.841   4.707
 5467SOL    HW216962   5.136   0.776   4.757
 5468SOL     OW16963   4.930   0.531   3.991
 5468SOL    HW116964   4.934   0.451   4.042
 5468SOL    HW216965   4.886   0.594   4.048
 5469SOL     OW16966   4.021   0.204   4.971
 5469SOL    HW116967   3.982   0.243   5.049
 5469SOL    HW216968   4.019   0.110   4.988
 5470SOL     OW16969   3.770   1.311   5.001
 5470SOL    HW116970   3.803   1.257   5.072
 5470SOL    HW216971   3.777   1.400   5.033
 5471SOL     OW16972   4.450   0.632   4.784
 5471SOL    HW116973   4.523   0.614   4.725
 5471SOL    HW216974   4.421   0.720   4.761
 5472SOL     OW16975   4.025   0.073   4.373
 5472SOL    HW116976   4.010   0.167   4.382
 5472SOL    HW216977   4.066   0.047   4.456
 5473SOL     OW16978   0.028   0.406   4.089
 5473SOL    HW116979   0.060   0.344   4.155
 5473SOL    HW216980   0.004   0.484   4.139
 5474SOL     OW16981   4.751   0.759   4.685
 5474SOL    HW116982   4.750   0.777   4.779
 5474SOL    HW216983   4.725   0.667   4.677
 5475SOL     OW16984   4.698   1.562   5.437
 5475SOL    HW116985   4.687   1.609   5.355
 5475SOL    HW216986   4.746   1.483   5.413
 5476SOL     OW16987   4.077   0.916   5.532
 5476SOL    HW116988   4.160   0.934   5.578
 5476SOL    HW216989   4.101   0.853   5.464
 5477SOL     OW16990   5.028   0.830   3.761
 5477SOL    HW116991   5.063   0.741   3.761
 5477SOL    HW216992   5.054   0.865   3.676
 5478SOL     OW16993   4.789   1.334   4.579
 5478SOL    HW116994   4.793   1.262   4.516
 5478SOL    HW216995   4.847   1.401   4.543
 5479SOL     OW16996   4.033   0.809   4.672
 5479SOL    HW116997   4.126   0.831   4.665
 5479SOL    HW216998   4.032   0.719   4.704
 5480SOL     OW16999   4.057   0.525   4.736
 5480SOL    HW117000   4.020   0.438   4.720
 5480SOL    HW217001   4.133   0.530   4.679
 5481SOL     OW17002   4.861   0.377   5.413
 5481SOL    HW117003   4.812   0.432   5.474
 5481SOL    HW217004   4.946   0.422   5.405
 5482SOL     OW17005   4.848   0.233   5.183
 5482SOL    HW117006   4.860   0.283   5.263
 5482SOL    HW217007   4.912   0.270   5.122
 5483SOL     OW17008   3.729   1.321   3.919
 5483SOL    HW117009   3.642   1.335   3.881
 5483SOL    HW217010   3.727   1.232   3.952
 5484SOL     OW17011   3.814   1.788   4.662
 5484SOL    HW117012   3.784   1.709   4.618
 5484SOL    HW217013   3.904   1.800   4.631
 5485SOL     OW17014   4.221   1.573   4.630
 5485SOL    HW117015   4.290   1.636   4.654
 5485SOL    HW217016   4.265   1.510   4.574
 5486SOL     OW17017   4.708   0.794   4.952
 5486SOL    HW117018   4.763   0.769   5.026
 5486SOL    HW217019   4.623   0.755   4.970
 5487SOL     OW17020   3.759   0.543   4.841
 5487SOL    HW117021   3.839   0.529   4.790
 5487SOL    HW217022   3.789   0.548   4.932
 5488SOL     OW17023   3.911   0.521   5.450
 5488SOL    HW117024   3.974   0.486   5.387
 5488SOL    HW217025   3.870   0.595   5.405
 5489SOL     OW17026   5.112   0.939   5.390
 5489SOL    HW117027   5.120   1.033   5.379
 5489SOL    HW217028   5.114   0.903   5.301
 5490SOL     OW17029   4.539   0.573   4.083
 5490SOL    HW117030   4.541   0.497   4.025
 5490SOL    HW217031   4.464   0.624   4.053
 5491SOL     OW17032   3.968   1.552   5.452
 5491SOL    HW117033   3.945   1.615   5.520
 5491SOL    HW217034   3.969   1.468   5.498
 5492SOL     OW17035   4.420   0.453   4.986
 5492SOL    HW117036   4.371   0.378   4.951
 5492SOL    HW217037   4.421   0.516   4.914
 5493SOL     OW17038   4.646   1.680   5.192
 5493SOL    HW117039   4.624   1.648   5.105
 5493SOL    HW217040   4.647   1.775   5.183
 5494SOL     OW17041   4.188   0.493   3.908
 5494SOL    HW117042   4.247   0.565   3.931
 5494SOL    HW217043   4.102   0.535   3.899
 5495SOL     OW17044   3.871   1.140   5.196
 5495SOL    HW117045   3.873   1.088   5.276
 5495SOL    HW217046   3.888   1.077   5.126
 5496SOL     OW17047   5.054   1.050   4.949
 5496SOL    HW117048   5.076   0.985   4.881
 5496SOL    HW217049   4.982   1.100   4.911
 5497SOL     OW17050   5.035   0.858   4.040
 5497SOL    HW117051   4.952   0.827   4.078
 5497SOL    HW217052   5.022   0.851   3.946
 5498SOL     OW17053   4.960   1.731   4.846
 5498SOL    HW117054   5.046   1.751   4.808
 5498SOL    HW217055   4.960   1.636   4.856
 5499SOL     OW17056   3.807   1.267   4.736
 5499SOL    HW117057   3.793   1.279   4.830
 5499SOL    HW217058   3.734   1.212   4.708
 5500SOL     OW17059   4.401   1.664   5.451
 5500SOL    HW117060   4.350   1.745   5.446
 5500SOL    HW217061   4.469   1.675   5.384
 5501SOL     OW17062   5.111   1.570   4.204
 5501SOL    HW117063   5.180   1.610   4.151
 5501SOL    HW217064   5.062   1.644   4.239
 5502SOL     OW17065   3.859   1.798   5.567
 5502SOL    HW117066   3.809   1.732   5.616
 5502SOL    HW217067   3.908   1.845   5.635
 5503SOL     OW17068   5.016   0.919   4.397
 5503SOL    HW117069   5.093   0.864   4.383
 5503SOL    HW217070   5.034   1.000   4.348
 5504SOL     OW17071   4.539   1.273   5.155
 5504SOL    HW117072   4.511   1.312   5.237
 5504SOL    HW217073   4.470   1.295   5.093
 5505SOL     OW17074   4.395   1.619   3.879
 5505SOL    HW117075   4.406   1.631   3.785
 5505SOL    HW217076   4.341   1.541   3.888
 5506SOL     OW17077   3.987   0.329   4.443
 5506SOL    HW117078   3.899   0.360   4.421
 5506SOL    HW217079   3.984   0.317   4.538
 5507SOL     OW17080   4.909   1.609   3.765
 5507SOL    HW117081   4.920   1.515   3.776
 5507SOL    HW217082   4.855   1.618   3.687
 5508SOL     OW17083   4.548   1.006   5.097
 5508SOL    HW117084   4.591   1.001   5.011
 5508SOL    HW217085   4.548   1.099   5.118
 5509SOL     OW17086   4.641   0.912   4.014
 5509SOL    HW117087   4.702   0.943   3.948
 5509SOL    HW217088   4.686   0.840   4.058
 5510SOL     OW17089   4.093   1.302   5.216
 5510SOL    HW117090   4.080   1.379   5.161
 5510SOL    HW217091   4.016   1.248   5.199
 5511SOL     OW17092   4.775   1.106   4.431
 5511SOL    HW117093   4.704   1.057   4.471
 5511SOL    HW217094   4.832   1.040   4.392
 5512SOL     OW17095   4.739   0.242   4.694
 5512SOL    HW117096   4.720   0.197   4.612
 5512SOL    HW217097   4.733   0.174   4.761
 5513SOL     OW17098   4.326   1.489   4.206
 5513SOL    HW117099   4.370   1.438   4.137
 5513SOL    HW217100   4.258   1.537   4.161
 5514SOL     OW17101   3.983   1.345   4.012
 5514SOL    HW117102   3.890   1.343   3.989
 5514SOL    HW217103   3.985   1.382   4.101
 5515SOL     OW17104   3.836   1.021   5.443
 5515SOL    HW117105   3.760   0.998   5.496
 5515SOL    HW217106   3.911   0.984   5.491
 5516SOL     OW17107   4.396   0.211   5.213
 5516SOL    HW117108   4.479   0.191   5.169
 5516SOL    HW217109   4.421   0.259   5.291
 5517SOL     OW17110   3.801   0.340   3.765
 5517SOL    HW117111   3.717   0.307   3.732
 5517SOL    HW217112   3.822   0.413   3.707
 5518SOL     OW17113   5.163   0.860   5.127
 5518SOL    HW117114   5.110   0.915   5.071
 5518SOL    HW217115   5.252   0.870   5.094
 5519SOL     OW17116   3.796   0.167   4.040
 5519SOL    HW117117   3.796   0.250   3.992
 5519SOL    HW217118   3.881   0.127   4.020
 5520SOL     OW17119   4.907   1.330   3.838
 5520SOL    HW117120   4.813   1.312   3.839
 5520SOL    HW217121   4.931   1.337   3.931
 5521SOL     OW17122   4.343   0.831   5.157
 5521SOL    HW117123   4.398   0.907   5.142
 5521SOL    HW217124   4.404   0.758   5.165
 5522SOL     OW17125   4.440   0.571   5.427
 5522SOL    HW117126   4.479   0.633   5.488
 5522SOL    HW217127   4.471   0.485   5.457
 5523SOL     OW17128   5.182   1.204   5.356
 5523SOL    HW117129   5.173   1.217   5.451
 5523SOL    HW217130   5.276   1.212   5.340
 5524SOL     OW17131   4.104   1.739   5.288
 5524SOL    HW117132   4.019   1.780   5.275
 5524SOL    HW217133   4.084   1.656   5.330
 5525SOL     OW17134   4.942   0.323   4.185
 5525SOL    HW117135   4.998   0.246   4.178
 5525SOL    HW217136   4.973   0.368   4.264
 5526SOL     OW17137   4.315   0.739   4.393
 5526SOL    HW117138   4.353   0.825   4.376
 5526SOL    HW217139   4.246   0.730   4.327
 5527SOL     OW17140   4.591   1.367   3.758
 5527SOL    HW117141   4.549   1.396   3.839
 5527SOL    HW217142   4.607   1.447   3.708
 5528SOL     OW17143   4.384   1.792   4.669
 5528SOL    HW117144   4.364   1.883   4.646
 5528SOL    HW217145   4.479   1.786   4.662
 5529SOL     OW17146   4.592   0.967   4.580
 5529SOL    HW117147   4.641   0.895   4.619
 5529SOL    HW217148   4.557   1.016   4.654
 5530SOL     OW17149   4.807   0.988   3.814
 5530SOL    HW117150   4.781   1.037   3.736
 5530SOL    HW217151   4.881   0.934   3.786
 5531SOL     OW17152   3.948   1.304   5.580
 5531SOL    HW117153   3.881   1.242   5.551
 5531SOL    HW217154   3.931   1.316   5.673
 5532SOL     OW17155   3.807   1.234   4.389
 5532SOL    HW117156   3.812   1.185   4.470
 5532SOL    HW217157   3.876   1.196   4.334
 5533SOL     OW17158   4.405   1.401   5.352
 5533SOL    HW117159   4.324   1.359   5.382
 5533SOL    HW217160   4.400   1.490   5.387
 5534SOL     OW17161   4.154   0.435   4.248
 5534SOL    HW117162   4.185   0.363   4.194
 5534SOL    HW217163   4.108   0.393   4.320
 5535SOL     OW17164   0.096   1.521   4.823
 5535SOL    HW117165   0.028   1.496   4.761
 5535SOL    HW217166   0.105   1.445   4.881
 5536SOL     OW17167   4.052   0.555   5.014
 5536SOL    HW117168   4.108   0.500   5.069
 5536SOL    HW217169   4.073   0.528   4.925
 5537SOL     OW17170   4.551   1.577   4.402
 5537SOL    HW117171   4.541   1.629   4.322
 5537SOL    HW217172   4.473   1.521   4.404
 5538SOL     OW17173   5.151   0.216   4.844
 5538SOL    HW117174   5.160   0.134   4.891
 5538SOL    HW217175   5.105   0.274   4.905
 5539SOL     OW17176   4.725   0.021   4.865
 5539SOL    HW117177   4.674   5.251   4.823
 5539SOL    HW217178   4.812   5.284   4.876
 5540SOL     OW17179   4.494   1.332   4.038
 5540SOL    HW117180   4.463   1.242   4.044
 5540SOL    HW217181   4.577   1.332   4.086
 5541SOL     OW17182   4.344   1.557   5.009
 5541SOL    HW117183   4.346   1.639   5.058
 5541SOL    HW217184   4.431   1.549   4.971
 5542SOL     OW17185   5.035   0.036   3.885
 5542SOL    HW117186   5.117   0.028   3.835
 5542SOL    HW217187   4.984   5.259   3.859
 5543SOL     OW17188   5.029   0.461   4.410
 5543SOL    HW117189   4.972   0.538   4.414
 5543SOL    HW217190   5.017   0.418   4.495
 5544SOL     OW17191   5.296   0.214   4.606
 5544SOL    HW117192   5.236   0.216   4.681
 5544SOL    HW217193   5.279   0.296   4.559
 5545SOL     OW17194   3.767   1.072   4.030
 5545SOL    HW117195   3.861   1.063   4.012
 5545SOL    HW217196   3.739   0.983   4.053
 5546SOL     OW17197   4.604   1.649   4.070
 5546SOL    HW117198   4.534   1.634   4.007
 5546SOL    HW217199   4.576   1.727   4.119
 5547SOL     OW17200   3.953   0.625   5.708
 5547SOL    HW117201   3.864   0.622   5.743
 5547SOL    HW217202   3.944   0.598   5.617
 5548SOL     OW17203   3.943   0.283   6.578
 5548SOL    HW117204   3.972   0.249   6.663
 5548SOL    HW217205   3.857   0.243   6.564
 5549SOL     OW17206   3.728   0.385   6.224
 5549SOL    HW117207   3.644   0.406   6.264
 5549SOL    HW217208   3.711   0.308   6.171
 5550SOL     OW17209   4.291   1.286   6.760
 5550SOL    HW117210   4.203   1.289   6.722
 5550SOL    HW217211   4.306   1.374   6.794
 5551SOL     OW17212   5.284   1.535   6.292
 5551SOL    HW117213   5.245   1.492   6.367
 5551SOL    HW217214   5.219   1.526   6.222
 5552SOL     OW17215   4.859   0.699   6.287
 5552SOL    HW117216   4.908   0.780   6.277
 5552SOL    HW217217   4.809   0.711   6.368
 5553SOL     OW17218   4.481   1.143   6.626
 5553SOL    HW117219   4.411   1.177   6.682
 5553SOL    HW217220   4.515   1.220   6.581
 5554SOL     OW17221   4.590   0.780   7.408
 5554SOL    HW117222   4.569   0.855   7.463
 5554SOL    HW217223   4.614   0.818   7.324
 5555SOL     OW17224   4.411   1.004   6.233
 5555SOL    HW117225   4.475   0.991   6.303
 5555SOL    HW217226   4.341   1.055   6.274
 5556SOL     OW17227   4.434   1.152   7.397
 5556SOL    HW117228   4.481   1.230   7.424
 5556SOL    HW217229   4.351   1.184   7.362
 5557SOL     OW17230   4.055   1.426   6.654
 5557SOL    HW117231   3.982   1.389   6.603
 5557SOL    HW217232   4.105   1.477   6.590
 5558SOL     OW17233   5.161   1.481   6.936
 5558SOL    HW117234   5.204   1.563   6.962
 5558SOL    HW217235   5.107   1.457   7.012
 5559SOL     OW17236   4.168   0.399   7.075
 5559SOL    HW117237   4.243   0.340   7.072
 5559SOL    HW217238   4.093   0.341   7.088
 5560SOL     OW17239   3.943   1.714   6.059
 5560SOL    HW117240   3.965   1.790   6.112
 5560SOL    HW217241   4.016   1.706   5.997
 5561SOL     OW17242   4.860   1.339   7.278
 5561SOL    HW117243   4.898   1.337   7.365
 5561SOL    HW217244   4.807   1.259   7.273
 5562SOL     OW17245   3.954   1.441   6.121
 5562SOL    HW117246   3.937   1.535   6.125
 5562SOL    HW217247   3.893   1.402   6.184
 5563SOL     OW17248   3.981   1.090   6.477
 5563SOL    HW117249   3.977   1.004   6.518
 5563SOL    HW217250   3.922   1.144   6.530
 5564SOL     OW17251   4.334   1.792   7.013
 5564SOL    HW117252   4.254   1.774   7.061
 5564SOL    HW217253   4.359   1.881   7.040
 5565SOL     OW17254   4.311   0.981   5.719
 5565SOL    HW117255   4.355   1.031   5.651
 5565SOL    HW217256   4.351   1.011   5.801
 5566SOL     OW17257   5.251   0.144   7.065
 5566SOL    HW117258   5.296   0.226   7.043
 5566SOL    HW217259   5.276   0.126   7.155
 5567SOL     OW17260   3.838   0.653   6.145
 5567SOL    HW117261   3.811   0.564   6.166
 5567SOL    HW217262   3.831   0.701   6.228
 5568SOL     OW17263   3.755   1.596   5.710
 5568SOL    HW117264   3.738   1.504   5.730
 5568SOL    HW217265   3.731   1.642   5.790
 5569SOL     OW17266   0.112   0.940   6.162
 5569SOL    HW117267   0.200   0.905   6.179
 5569SOL    HW217268   0.129   1.024   6.119
 5570SOL     OW17269   3.846   0.743   7.171
 5570SOL    HW117270   3.938   0.768   7.181
 5570SOL    HW217271   3.798   0.825   7.180
 5571SOL     OW17272   4.337   1.385   6.321
 5571SOL    HW117273   4.291   1.301   6.331
 5571SOL    HW217274   4.321   1.411   6.231
 5572SOL     OW17275   5.008   1.237   7.010
 5572SOL    HW117276   5.041   1.170   6.951
 5572SOL    HW217277   5.062   1.229   7.089
 5573SOL     OW17278   4.534   0.025   6.113
 5573SOL    HW117279   4.563   0.113   6.088
 5573SOL    HW217280   4.438   0.028   6.107
 5574SOL     OW17281   3.915   0.967   6.856
 5574SOL    HW117282   3.999   0.924   6.841
 5574SOL    HW217283   3.851   0.912   6.811
 5575SOL     OW17284   4.898   1.808   7.208
 5575SOL    HW117285   4.919   1.865   7.135
 5575SOL    HW217286   4.919   1.720   7.177
 5576SOL     OW17287   4.048   0.262   7.400
 5576SOL    HW117288   4.101   0.339   7.421
 5576SOL    HW217289   3.962   0.282   7.436
 5577SOL     OW17290   5.169   1.434   6.524
 5577SOL    HW117291   5.107   1.441   6.596
 5577SOL    HW217292   5.163   1.343   6.495
 5578SOL     OW17293   4.319   0.722   5.852
 5578SOL    HW117294   4.324   0.803   5.801
 5578SOL    HW217295   4.253   0.740   5.919
 5579SOL     OW17296   4.997   0.329   6.504
 5579SOL    HW117297   4.908   0.305   6.528
 5579SOL    HW217298   5.050   0.302   6.579
 5580SOL     OW17299   4.518   0.618   7.037
 5580SOL    HW117300   4.490   0.596   7.126
 5580SOL    HW217301   4.475   0.552   6.982
 5581SOL     OW17302   5.117   0.486   7.265
 5581SOL    HW117303   5.117   0.522   7.354
 5581SOL    HW217304   5.182   0.415   7.268
 5582SOL     OW17305   4.680   0.888   7.168
 5582SOL    HW117306   4.732   0.816   7.132
 5582SOL    HW217307   4.632   0.922   7.092
 5583SOL     OW17308   4.718   0.421   6.818
 5583SOL    HW117309   4.634   0.437   6.862
 5583SOL    HW217310   4.696   0.367   6.743
 5584SOL     OW17311   4.775   0.697   6.012
 5584SOL    HW117312   4.789   0.691   6.106
 5584SOL    HW217313   4.692   0.652   5.997
 5585SOL     OW17314   3.812   0.820   6.363
 5585SOL    HW117315   3.894   0.814   6.413
 5585SOL    HW217316   3.769   0.899   6.397
 5586SOL     OW17317   3.851   1.845   7.164
 5586SOL    HW117318   3.850   1.825   7.257
 5586SOL    HW217319   3.759   1.840   7.137
 5587SOL     OW17320   4.596   0.361   5.776
 5587SOL    HW117321   4.636   0.418   5.710
 5587SOL    HW217322   4.647   0.280   5.771
 5588SOL     OW17323   5.092   1.146   6.133
 5588SOL    HW117324   5.179   1.146   6.093
 5588SOL    HW217325   5.041   1.206   6.078
 5589SOL     OW17326   4.251   0.201   6.469
 5589SOL    HW117327   4.274   0.216   6.561
 5589SOL    HW217328   4.273   0.284   6.425
 5590SOL     OW17329   4.731   1.444   6.059
 5590SOL    HW117330   4.692   1.516   6.009
 5590SOL    HW217331   4.714   1.466   6.150
 5591SOL     OW17332   4.078   1.808   6.447
 5591SOL    HW117333   4.122   1.723   6.455
 5591SOL    HW217334   4.147   1.872   6.465
 5592SOL     OW17335   4.941   1.543   7.105
 5592SOL    HW117336   4.928   1.470   7.165
 5592SOL    HW217337   4.884   1.523   7.030
 5593SOL     OW17338   4.045   0.957   5.836
 5593SOL    HW117339   4.126   0.976   5.790
 5593SOL    HW217340   4.013   0.875   5.797
 5594SOL     OW17341   4.189   1.263   7.323
 5594SOL    HW117342   4.162   1.268   7.232
 5594SOL    HW217343   4.107   1.262   7.373
 5595SOL     OW17344   4.833   1.775   5.822
 5595SOL    HW117345   4.761   1.730   5.867
 5595SOL    HW217346   4.858   1.716   5.751
 5596SOL     OW17347   3.921   0.278   7.088
 5596SOL    HW117348   3.842   0.332   7.082
 5596SOL    HW217349   3.911   0.229   7.169
 5597SOL     OW17350   4.190   1.737   5.907
 5597SOL    HW117351   4.232   1.795   5.971
 5597SOL    HW217352   4.262   1.707   5.851
 5598SOL     OW17353   5.100   0.099   6.007
 5598SOL    HW117354   5.085   0.082   5.914
 5598SOL    HW217355   5.193   0.119   6.013
 5599SOL     OW17356   3.979   1.792   6.818
 5599SOL    HW117357   4.031   1.727   6.865
 5599SOL    HW217358   3.970   1.756   6.730
 5600SOL     OW17359   4.662   1.698   6.485
 5600SOL    HW117360   4.741   1.647   6.503
 5600SOL    HW217361   4.617   1.649   6.416
 5601SOL     OW17362   4.116   0.696   6.063
 5601SOL    HW117363   4.138   0.603   6.073
 5601SOL    HW217364   4.022   0.701   6.080
 5602SOL     OW17365   4.346   0.133   5.694
 5602SOL    HW117366   4.419   0.074   5.712
 5602SOL    HW217367   4.298   0.090   5.623
 5603SOL     OW17368   4.508   0.311   7.350
 5603SOL    HW117369   4.572   0.240   7.351
 5603SOL    HW217370   4.463   0.305   7.434
 5604SOL     OW17371   4.600   1.521   6.779
 5604SOL    HW117372   4.585   1.486   6.692
 5604SOL    HW217373   4.670   1.467   6.816
 5605SOL     OW17374   5.061   0.591   7.017
 5605SOL    HW117375   5.091   0.561   7.102
 5605SOL    HW217376   5.099   0.679   7.008
 5606SOL     OW17377   4.538   1.396   6.524
 5606SOL    HW117378   4.622   1.385   6.480
 5606SOL    HW217379   4.474   1.396   6.454
 5607SOL     OW17380   4.651   0.511   6.489
 5607SOL    HW117381   4.628   0.501   6.397
 5607SOL    HW217382   4.682   0.424   6.515
 5608SOL     OW17383   4.266   0.063   6.095
 5608SOL    HW117384   4.180   0.062   6.138
 5608SOL    HW217385   4.260   0.133   6.030
 5609SOL     OW17386   5.137   1.180   5.629
 5609SOL    HW117387   5.148   1.103   5.685
 5609SOL    HW217388   5.050   1.212   5.650
 5610SOL     OW17389   4.025   0.061   5.776
 5610SOL    HW117390   4.085   0.130   5.745
 5610SOL    HW217391   4.082   5.285   5.789
 5611SOL     OW17392   4.661   0.260   6.049
 5611SOL    HW117393   4.632   0.295   5.965
 5611SOL    HW217394   4.756   0.274   6.049
 5612SOL     OW17395   4.802   0.680   7.047
 5612SOL    HW117396   4.732   0.615   7.049
 5612SOL    HW217397   4.882   0.629   7.036
 5613SOL     OW17398   4.941   1.571   6.380
 5613SOL    HW117399   4.964   1.637   6.315
 5613SOL    HW217400   5.020   1.561   6.432
 5614SOL     OW17401   4.192   1.149   6.320
 5614SOL    HW117402   4.123   1.130   6.383
 5614SOL    HW217403   4.153   1.132   6.235
 5615SOL     OW17404   4.996   1.794   6.191
 5615SOL    HW117405   5.038   1.855   6.130
 5615SOL    HW217406   4.930   1.846   6.236
 5616SOL     OW17407   4.754   0.551   5.604
 5616SOL    HW117408   4.706   0.632   5.587
 5616SOL    HW217409   4.807   0.571   5.681
 5617SOL     OW17410   3.802   0.553   6.979
 5617SOL    HW117411   3.894   0.553   6.951
 5617SOL    HW217412   3.797   0.624   7.043
 5618SOL     OW17413   4.280   0.237   6.744
 5618SOL    HW117414   4.312   0.152   6.772
 5618SOL    HW217415   4.188   0.239   6.770
 5619SOL     OW17416   4.593   0.464   6.226
 5619SOL    HW117417   4.544   0.516   6.163
 5619SOL    HW217418   4.613   0.382   6.180
 5620SOL     OW17419   4.699   0.063   6.348
 5620SOL    HW117420   4.635   0.054   6.278
 5620SOL    HW217421   4.714   5.273   6.379
 5621SOL     OW17422   5.158   1.175   6.437
 5621SOL    HW117423   5.101   1.100   6.450
 5621SOL    HW217424   5.169   1.181   6.342
 5622SOL     OW17425   4.215   1.417   5.744
 5622SOL    HW117426   4.140   1.388   5.796
 5622SOL    HW217427   4.199   1.381   5.657
 5623SOL     OW17428   5.127   0.560   5.666
 5623SOL    HW117429   5.052   0.552   5.725
 5623SOL    HW217430   5.202   0.532   5.720
 5624SOL     OW17431   4.248   0.265   5.908
 5624SOL    HW117432   4.291   0.215   5.839
 5624SOL    HW217433   4.228   0.349   5.868
 5625SOL     OW17434   4.781   1.353   6.919
 5625SOL    HW117435   4.706   1.323   6.970
 5625SOL    HW217436   4.857   1.311   6.960
 5626SOL     OW17437   0.006   1.604   7.203
 5626SOL    HW117438   0.040   1.610   7.114
 5626SOL    HW217439   0.084   1.585   7.256
 5627SOL     OW17440   4.852   1.202   6.693
 5627SOL    HW117441   4.791   1.238   6.757
 5627SOL    HW217442   4.818   1.232   6.608
 5628SOL     OW17443   4.625   0.104   6.974
 5628SOL    HW117444   4.658   0.070   6.891
 5628SOL    HW217445   4.701   0.147   7.014
 5629SOL     OW17446   4.709   1.112   7.313
 5629SOL    HW117447   4.617   1.131   7.330
 5629SOL    HW217448   4.707   1.036   7.255
 5630SOL     OW17449   4.432   1.061   5.957
 5630SOL    HW117450   4.418   1.045   6.051
 5630SOL    HW217451   4.508   1.008   5.935
 5631SOL     OW17452   4.142   0.815   6.837
 5631SOL    HW117453   4.211   0.824   6.903
 5631SOL    HW217454   4.107   0.727   6.851
 5632SOL     OW17455   4.992   0.380   6.856
 5632SOL    HW117456   5.025   0.458   6.900
 5632SOL    HW217457   4.901   0.401   6.833
 5633SOL     OW17458   3.794   1.573   6.938
 5633SOL    HW117459   3.763   1.646   6.884
 5633SOL    HW217460   3.889   1.577   6.933
 5634SOL     OW17461   4.075   1.108   6.077
 5634SOL    HW117462   4.079   1.182   6.016
 5634SOL    HW217463   4.072   1.030   6.021
 5635SOL     OW17464   4.278   0.538   6.447
 5635SOL    HW117465   4.294   0.596   6.372
 5635SOL    HW217466   4.343   0.565   6.512
 5636SOL     OW17467   4.972   1.349   5.974
 5636SOL    HW117468   5.026   1.421   6.004
 5636SOL    HW217469   4.884   1.368   6.007
 5637SOL     OW17470   4.993   1.456   6.725
 5637SOL    HW117471   5.048   1.458   6.804
 5637SOL    HW217472   4.939   1.378   6.736
 5638SOL     OW17473   4.071   1.526   6.902
 5638SOL    HW117474   4.058   1.484   6.817
 5638SOL    HW217475   4.166   1.539   6.909
 5639SOL     OW17476   4.138   0.745   7.188
 5639SOL    HW117477   4.199   0.790   7.130
 5639SOL    HW217478   4.179   0.660   7.204
 5640SOL     OW17479   4.750   0.115   7.342
 5640SOL    HW117480   4.794   0.196   7.317
 5640SOL    HW217481   4.792   0.048   7.288
 5641SOL     OW17482   4.204   0.057   7.323
 5641SOL    HW117483   4.146   5.292   7.282
 5641SOL    HW217484   4.146   0.129   7.347
 5642SOL     OW17485   4.308   0.872   6.617
 5642SOL    HW117486   4.337   0.964   6.615
 5642SOL    HW217487   4.250   0.867   6.694
 5643SOL     OW17488   5.086   0.858   6.623
 5643SOL    HW117489   5.008   0.841   6.569
 5643SOL    HW217490   5.136   0.776   6.619
 5644SOL     OW17491   4.930   0.531   5.853
 5644SOL    HW117492   4.934   0.451   5.904
 5644SOL    HW217493   4.886   0.594   5.910
 5645SOL     OW17494   4.021   0.204   6.833
 5645SOL    HW117495   3.982   0.243   6.911
 5645SOL    HW217496   4.019   0.110   6.849
 5646SOL     OW17497   3.770   1.311   6.862
 5646SOL    HW117498   3.803   1.257   6.934
 5646SOL    HW217499   3.777   1.400   6.895
 5647SOL     OW17500   4.450   0.632   6.646
 5647SOL    HW117501   4.523   0.615   6.587
 5647SOL    HW217502   4.421   0.720   6.623
 5648SOL     OW17503   4.025   0.073   6.235
 5648SOL    HW117504   4.010   0.167   6.244
 5648SOL    HW217505   4.066   0.047   6.318
 5649SOL     OW17506   0.028   0.406   5.951
 5649SOL    HW117507   0.060   0.344   6.017
 5649SOL    HW217508   0.004   0.484   6.001
 5650SOL     OW17509   4.752   0.759   6.547
 5650SOL    HW117510   4.750   0.777   6.641
 5650SOL    HW217511   4.725   0.667   6.539
 5651SOL     OW17512   4.699   1.562   7.299
 5651SOL    HW117513   4.688   1.609   7.217
 5651SOL    HW217514   4.747   1.482   7.275
 5652SOL     OW17515   4.077   0.914   7.396
 5652SOL    HW117516   4.161   0.935   7.439
 5652SOL    HW217517   4.101   0.853   7.326
 5653SOL     OW17518   5.028   0.830   5.623
 5653SOL    HW117519   5.063   0.741   5.623
 5653SOL    HW217520   5.054   0.865   5.538
 5654SOL     OW17521   4.789   1.334   6.441
 5654SOL    HW117522   4.793   1.262   6.378
 5654SOL    HW217523   4.848   1.401   6.405
 5655SOL     OW17524   4.033   0.809   6.534
 5655SOL    HW117525   4.126   0.831   6.527
 5655SOL    HW217526   4.032   0.719   6.566
 5656SOL     OW17527   4.057   0.525   6.598
 5656SOL    HW117528   4.020   0.438   6.582
 5656SOL    HW217529   4.133   0.530   6.541
 5657SOL     OW17530   4.862   0.377   7.274
 5657SOL    HW117531   4.812   0.431   7.335
 5657SOL    HW217532   4.946   0.422   7.265
 5658SOL     OW17533   4.849   0.232   7.044
 5658SOL    HW117534   4.859   0.282   7.125
 5658SOL    HW217535   4.912   0.270   6.984
 5659SOL     OW17536   3.729   1.322   5.781
 5659SOL    HW117537   3.642   1.336   5.743
 5659SOL    HW217538   3.726   1.232   5.814
 5660SOL     OW17539   3.814   1.788   6.523
 5660SOL    HW117540   3.784   1.708   6.480
 5660SOL    HW217541   3.904   1.800   6.492
 5661SOL     OW17542   4.221   1.573   6.492
 5661SOL    HW117543   4.290   1.636   6.516
 5661SOL    HW217544   4.265   1.509   6.436
 5662SOL     OW17545   4.708   0.794   6.813
 5662SOL    HW117546   4.763   0.769   6.888
 5662SOL    HW217547   4.623   0.755   6.832
 5663SOL     OW17548   3.759   0.543   6.703
 5663SOL    HW117549   3.839   0.529   6.652
 5663SOL    HW217550   3.789   0.548   6.794
 5664SOL     OW17551   3.912   0.520   7.312
 5664SOL    HW117552   3.974   0.486   7.248
 5664SOL    HW217553   3.870   0.594   7.268
 5665SOL     OW17554   5.110   0.938   7.253
 5665SOL    HW117555   5.119   1.033   7.242
 5665SOL    HW217556   5.113   0.903   7.163
 5666SOL     OW17557   4.539   0.573   5.945
 5666SOL    HW117558   4.541   0.497   5.887
 5666SOL    HW217559   4.464   0.624   5.915
 5667SOL     OW17560   3.968   1.552   7.314
 5667SOL    HW117561   3.945   1.616   7.382
 5667SOL    HW217562   3.969   1.468   7.361
 5668SOL     OW17563   4.420   0.453   6.848
 5668SOL    HW117564   4.371   0.379   6.813
 5668SOL    HW217565   4.421   0.516   6.776
 5669SOL     OW17566   4.647   1.680   7.054
 5669SOL    HW117567   4.624   1.648   6.966
 5669SOL    HW217568   4.648   1.775   7.046
 5670SOL     OW17569   4.188   0.493   5.770
 5670SOL    HW117570   4.247   0.565   5.793
 5670SOL    HW217571   4.102   0.535   5.761
 5671SOL     OW17572   3.871   1.140   7.058
 5671SOL    HW117573   3.873   1.088   7.138
 5671SOL    HW217574   3.887   1.077   6.988
 5672SOL     OW17575   5.054   1.050   6.811
 5672SOL    HW117576   5.076   0.985   6.743
 5672SOL    HW217577   4.982   1.100   6.774
 5673SOL     OW17578   5.035   0.858   5.902
 5673SOL    HW117579   4.952   0.827   5.940
 5673SOL    HW217580   5.022   0.851   5.808
 5674SOL     OW17581   4.960   1.731   6.707
 5674SOL    HW117582   5.046   1.751   6.670
 5674SOL    HW217583   4.960   1.636   6.718
 5675SOL     OW17584   3.808   1.267   6.598
 5675SOL    HW117585   3.794   1.279   6.692
 5675SOL    HW217586   3.734   1.212   6.570
 5676SOL     OW17587   4.400   1.663   7.312
 5676SOL    HW117588   4.350   1.745   7.309
 5676SOL    HW217589   4.469   1.675   7.246
 5677SOL     OW17590   5.111   1.570   6.066
 5677SOL    HW117591   5.180   1.610   6.013
 5677SOL    HW217592   5.062   1.644   6.101
 5678SOL     OW17593   3.859   1.796   7.430
 5678SOL    HW117594   3.809   1.732   7.479
 5678SOL    HW217595   3.908   1.845   7.497
 5679SOL     OW17596   5.016   0.919   6.259
 5679SOL    HW117597   5.093   0.865   6.245
 5679SOL    HW217598   5.034   1.000   6.210
 5680SOL     OW17599   4.539   1.273   7.017
 5680SOL    HW117600   4.511   1.312   7.099
 5680SOL    HW217601   4.470   1.295   6.955
 5681SOL     OW17602   4.395   1.619   5.741
 5681SOL    HW117603   4.406   1.631   5.647
 5681SOL    HW217604   4.341   1.541   5.750
 5682SOL     OW17605   3.987   0.329   6.305
 5682SOL    HW117606   3.899   0.360   6.283
 5682SOL    HW217607   3.984   0.317   6.400
 5683SOL     OW17608   4.909   1.609   5.627
 5683SOL    HW117609   4.920   1.515   5.638
 5683SOL    HW217610   4.855   1.618   5.549
 5684SOL     OW17611   4.548   1.006   6.959
 5684SOL    HW117612   4.591   1.002   6.873
 5684SOL    HW217613   4.548   1.099   6.980
 5685SOL     OW17614   4.640   0.911   5.876
 5685SOL    HW117615   4.702   0.943   5.810
 5685SOL    HW217616   4.686   0.840   5.920
 5686SOL     OW17617   4.093   1.302   7.078
 5686SOL    HW117618   4.080   1.380   7.023
 5686SOL    HW217619   4.016   1.248   7.061
 5687SOL     OW17620   4.775   1.106   6.292
 5687SOL    HW117621   4.704   1.057   6.333
 5687SOL    HW217622   4.832   1.040   6.254
 5688SOL     OW17623   4.739   0.242   6.556
 5688SOL    HW117624   4.720   0.197   6.474
 5688SOL    HW217625   4.733   0.174   6.623
 5689SOL     OW17626   4.326   1.488   6.068
 5689SOL    HW117627   4.370   1.438   5.999
 5689SOL    HW217628   4.258   1.537   6.022
 5690SOL     OW17629   3.983   1.346   5.874
 5690SOL    HW117630   3.890   1.343   5.851
 5690SOL    HW217631   3.985   1.382   5.962
 5691SOL     OW17632   3.837   1.020   7.305
 5691SOL    HW117633   3.760   0.998   7.358
 5691SOL    HW217634   3.910   0.983   7.353
 5692SOL     OW17635   4.396   0.212   7.075
 5692SOL    HW117636   4.479   0.191   7.032
 5692SOL    HW217637   4.421   0.259   7.155
 5693SOL     OW17638   3.801   0.340   5.627
 5693SOL    HW117639   3.718   0.307   5.594
 5693SOL    HW217640   3.822   0.413   5.569
 5694SOL     OW17641   5.163   0.859   6.989
 5694SOL    HW117642   5.110   0.915   6.933
 5694SOL    HW217643   5.252   0.871   6.957
 5695SOL     OW17644   3.796   0.167   5.902
 5695SOL    HW117645   3.796   0.250   5.854
 5695SOL    HW217646   3.881   0.127   5.882
 5696SOL     OW17647   4.907   1.330   5.700
 5696SOL    HW117648   4.813   1.312   5.701
 5696SOL    HW217649   4.931   1.337   5.793
 5697SOL     OW17650   4.343   0.831   7.019
 5697SOL    HW117651   4.398   0.907   7.004
 5697SOL    HW217652   4.404   0.758   7.027
 5698SOL     OW17653   4.439   0.571   7.289
 5698SOL    HW117654   4.479   0.633   7.351
 5698SOL    HW217655   4.470   0.485   7.318
 5699SOL     OW17656   5.182   1.204   7.217
 5699SOL    HW117657   5.172   1.216   7.312
 5699SOL    HW217658   5.276   1.212   7.202
 5700SOL     OW17659   4.104   1.740   7.150
 5700SOL    HW117660   4.018   1.780   7.137
 5700SOL    HW217661   4.085   1.656   7.192
 5701SOL     OW17662   4.942   0.323   6.047
 5701SOL    HW117663   4.998   0.246   6.040
 5701SOL    HW217664   4.973   0.368   6.126
 5702SOL     OW17665   4.315   0.739   6.255
 5702SOL    HW117666   4.353   0.825   6.239
 5702SOL    HW217667   4.246   0.730   6.189
 5703SOL     OW17668   4.591   1.367   5.620
 5703SOL    HW117669   4.549   1.396   5.701
 5703SOL    HW217670   4.607   1.447   5.570
 5704SOL     OW17671   4.384   1.792   6.531
 5704SOL    HW117672   4.364   1.883   6.508
 5704SOL    HW217673   4.479   1.786   6.525
 5705SOL     OW17674   4.592   0.967   6.442
 5705SOL    HW117675   4.641   0.895   6.481
 5705SOL    HW217676   4.557   1.016   6.516
 5706SOL     OW17677   4.807   0.988   5.676
 5706SOL    HW117678   4.782   1.037   5.598
 5706SOL    HW217679   4.881   0.934   5.648
 5707SOL     OW17680   3.949   1.304   7.443
 5707SOL    HW117681   3.881   1.243   7.413
 5707SOL    HW217682   3.930   1.317   7.535
 5708SOL     OW17683   3.808   1.234   6.251
 5708SOL    HW117684   3.812   1.185   6.333
 5708SOL    HW217685   3.876   1.195   6.196
 5709SOL     OW17686   4.404   1.401   7.213
 5709SOL    HW117687   4.324   1.359   7.244
 5709SOL    HW217688   4.401   1.490   7.249
 5710SOL     OW17689   4.154   0.435   6.110
 5710SOL    HW117690   4.185   0.363   6.056
 5710SOL    HW217691   4.108   0.393   6.182
 5711SOL     OW17692   0.096   1.521   6.685
 5711SOL    HW117693   0.028   1.496   6.623
 5711SOL    HW217694   0.105   1.445   6.743
 5712SOL     OW17695   4.052   0.555   6.876
 5712SOL    HW117696   4.109   0.500   6.931
 5712SOL    HW217697   4.073   0.528   6.787
 5713SOL     OW17698   4.551   1.577   6.264
 5713SOL    HW117699   4.541   1.629   6.184
 5713SOL    HW217700   4.473   1.521   6.266
 5714SOL     OW17701   5.151   0.216   6.706
 5714SOL    HW117702   5.160   0.134   6.753
 5714SOL    HW217703   5.105   0.274   6.767
 5715SOL     OW17704   4.725   0.021   6.726
 5715SOL    HW117705   4.674   5.251   6.685
 5715SOL    HW217706   4.812   5.284   6.738
 5716SOL     OW17707   4.494   1.332   5.900
 5716SOL    HW117708   4.463   1.242   5.906
 5716SOL    HW217709   4.577   1.332   5.948
 5717SOL     OW17710   4.344   1.557   6.871
 5717SOL    HW117711   4.346   1.639   6.920
 5717SOL    HW217712   4.431   1.549   6.833
 5718SOL     OW17713   5.035   0.036   5.747
 5718SOL    HW117714   5.117   0.028   5.697
 5718SOL    HW217715   4.984   5.259   5.721
 5719SOL     OW17716   5.029   0.461   6.272
 5719SOL    HW117717   4.972   0.538   6.276
 5719SOL    HW217718   5.017   0.418   6.357
 5720SOL     OW17719   5.296   0.214   6.468
 5720SOL    HW117720   5.236   0.216   6.543
 5720SOL    HW217721   5.279   0.296   6.421
 5721SOL     OW17722   3.768   1.072   5.892
 5721SOL    HW117723   3.861   1.063   5.874
 5721SOL    HW217724   3.739   0.983   5.914
 5722SOL     OW17725   4.604   1.649   5.932
 5722SOL    HW117726   4.533   1.634   5.869
 5722SOL    HW217727   4.576   1.726   5.981
 5723SOL     OW17728   3.952   0.620   7.571
 5723SOL    HW117729   3.862   0.628   7.603
 5723SOL    HW217730   3.943   0.597   7.479
 5724SOL     OW17731   3.945   1.718   7.919
 5724SOL    HW117732   3.974   1.761   7.999
 5724SOL    HW217733   4.022   1.715   7.863
 5725SOL     OW17734   3.942   1.438   7.990
 5725SOL    HW117735   3.927   1.532   7.991
 5725SOL    HW217736   3.882   1.404   8.057
 5726SOL     OW17737   4.312   0.981   7.579
 5726SOL    HW117738   4.355   1.033   7.510
 5726SOL    HW217739   4.350   1.013   7.660
 5727SOL     OW17740   3.754   1.599   7.577
 5727SOL    HW117741   3.738   1.506   7.592
 5727SOL    HW217742   3.726   1.642   7.659
 5728SOL     OW17743   0.118   0.924   8.015
 5728SOL    HW117744   0.211   0.916   8.037
 5728SOL    HW217745   0.106   1.018   7.998
 5729SOL     OW17746   4.534   5.291   7.946
 5729SOL    HW117747   4.575   0.075   7.931
 5729SOL    HW217748   4.440   0.008   7.942
 5730SOL     OW17749   4.315   0.725   7.709
 5730SOL    HW117750   4.318   0.807   7.659
 5730SOL    HW217751   4.254   0.744   7.780
 5731SOL     OW17752   3.786   0.863   0.091
 5731SOL    HW117753   3.850   0.798   0.120
 5731SOL    HW217754   3.778   0.923   0.165
 5732SOL     OW17755   4.588   0.356   7.634
 5732SOL    HW117756   4.631   0.416   7.574
 5732SOL    HW217757   4.646   0.280   7.637
 5733SOL     OW17758   4.047   0.956   7.697
 5733SOL    HW117759   4.127   0.974   7.647
 5733SOL    HW217760   4.011   0.877   7.657
 5734SOL     OW17761   4.837   1.776   7.684
 5734SOL    HW117762   4.764   1.733   7.727
 5734SOL    HW217763   4.861   1.717   7.613
 5735SOL     OW17764   4.191   1.738   7.769
 5735SOL    HW117765   4.239   1.791   7.833
 5735SOL    HW217766   4.259   1.703   7.711
 5736SOL     OW17767   5.115   0.113   7.873
 5736SOL    HW117768   5.087   0.090   7.784
 5736SOL    HW217769   5.210   0.100   7.872
 5737SOL     OW17770   4.114   0.696   7.918
 5737SOL    HW117771   4.122   0.601   7.926
 5737SOL    HW217772   4.024   0.715   7.942
 5738SOL     OW17773   4.341   0.131   7.560
 5738SOL    HW117774   4.421   0.080   7.574
 5738SOL    HW217775   4.297   0.088   7.487
 5739SOL     OW17776   4.270   0.064   7.952
 5739SOL    HW117777   4.178   0.048   7.974
 5739SOL    HW217778   4.268   0.136   7.890
 5740SOL     OW17779   5.137   1.178   7.488
 5740SOL    HW117780   5.155   1.109   7.552
 5740SOL    HW217781   5.051   1.211   7.511
 5741SOL     OW17782   4.029   0.071   7.658
 5741SOL    HW117783   4.081   0.128   7.601
 5741SOL    HW217784   4.077   5.289   7.661
 5742SOL     OW17785   4.673   0.230   7.911
 5742SOL    HW117786   4.620   0.293   7.863
 5742SOL    HW217787   4.759   0.272   7.918
 5743SOL     OW17788   4.166   1.150   0.100
 5743SOL    HW117789   4.090   1.184   0.147
 5743SOL    HW217790   4.134   1.136   0.010
 5744SOL     OW17791   5.007   1.805   8.013
 5744SOL    HW117792   5.046   1.871   7.956
 5744SOL    HW217793   4.938   1.851   8.059
 5745SOL     OW17794   4.757   0.553   7.463
 5745SOL    HW117795   4.706   0.633   7.448
 5745SOL    HW217796   4.804   0.569   7.545
 5746SOL     OW17797   4.213   1.415   7.606
 5746SOL    HW117798   4.139   1.386   7.659
 5746SOL    HW217799   4.195   1.380   7.518
 5747SOL     OW17800   5.127   0.560   7.529
 5747SOL    HW117801   5.051   0.552   7.587
 5747SOL    HW217802   5.199   0.524   7.579
 5748SOL     OW17803   4.249   0.271   7.773
 5748SOL    HW117804   4.289   0.217   7.705
 5748SOL    HW217805   4.229   0.353   7.730
 5749SOL     OW17806   4.436   1.062   7.811
 5749SOL    HW117807   4.410   1.049   7.903
 5749SOL    HW217808   4.515   1.009   7.801
 5750SOL     OW17809   4.090   1.101   7.928
 5750SOL    HW117810   4.071   1.180   7.878
 5750SOL    HW217811   4.076   1.029   7.866
 5751SOL     OW17812   4.959   1.357   7.819
 5751SOL    HW117813   5.017   1.428   7.849
 5751SOL    HW217814   4.902   1.340   7.894
 5752SOL     OW17815   0.026   0.639   7.936
 5752SOL    HW117816   5.276   0.681   8.006
 5752SOL    HW217817   0.048   0.710   7.876
 5753SOL     OW17818   4.929   0.530   7.715
 5753SOL    HW117819   4.932   0.444   7.758
 5753SOL    HW217820   4.896   0.589   7.783
 5754SOL     OW17821   0.031   0.404   7.804
 5754SOL    HW117822   0.031   0.338   7.873
 5754SOL    HW217823   0.021   0.487   7.851
 5755SOL     OW17824   5.034   0.832   7.490
 5755SOL    HW117825   5.063   0.741   7.486
 5755SOL    HW217826   5.056   0.868   7.404
 5756SOL     OW17827   3.730   1.324   7.640
 5756SOL    HW117828   3.642   1.337   7.603
 5756SOL    HW217829   3.729   1.235   7.674
 5757SOL     OW17830   4.561   0.600   7.763
 5757SOL    HW117831   4.551   0.509   7.735
 5757SOL    HW217832   4.472   0.635   7.764
 5758SOL     OW17833   4.186   0.495   7.638
 5758SOL    HW117834   4.245   0.568   7.655
 5758SOL    HW217835   4.101   0.536   7.622
 5759SOL     OW17836   5.033   0.846   7.772
 5759SOL    HW117837   4.940   0.857   7.792
 5759SOL    HW217838   5.038   0.846   7.677
 5760SOL     OW17839   5.102   1.573   7.907
 5760SOL    HW117840   5.197   1.586   7.902
 5760SOL    HW217841   5.069   1.654   7.947
 5761SOL     OW17842   4.390   1.620   7.604
 5761SOL    HW117843   4.403   1.630   7.509
 5761SOL    HW217844   4.339   1.539   7.612
 5762SOL     OW17845   4.912   1.611   7.486
 5762SOL    HW117846   4.920   1.517   7.501
 5762SOL    HW217847   4.853   1.618   7.411
 5763SOL     OW17848   4.655   0.910   7.758
 5763SOL    HW117849   4.705   0.934   7.680
 5763SOL    HW217850   4.644   0.815   7.751
 5764SOL     OW17851   4.328   1.506   7.936
 5764SOL    HW117852   4.372   1.445   7.878
 5764SOL    HW217853   4.256   1.542   7.884
 5765SOL     OW17854   3.982   1.347   7.740
 5765SOL    HW117855   3.889   1.345   7.715
 5765SOL    HW217856   3.982   1.383   7.829
 5766SOL     OW17857   3.799   0.339   7.490
 5766SOL    HW117858   3.716   0.308   7.453
 5766SOL    HW217859   3.823   0.414   7.435
 5767SOL     OW17860   3.788   0.182   7.746
 5767SOL    HW117861   3.785   0.258   7.688
 5767SOL    HW217862   3.868   0.135   7.722
 5768SOL     OW17863   4.906   1.329   7.556
 5768SOL    HW117864   4.811   1.315   7.556
 5768SOL    HW217865   4.928   1.342   7.648
 5769SOL     OW17866   5.265   1.743   0.321
 5769SOL    HW117867   5.269   1.829   0.280
 5769SOL    HW217868   0.037   1.744   0.385
 5770SOL     OW17869   4.945   0.325   7.909
 5770SOL    HW117870   5.007   0.252   7.906
 5770SOL    HW217871   4.956   0.363   7.996
 5771SOL     OW17872   4.349   0.736   8.055
 5771SOL    HW117873   4.354   0.818   0.024
 5771SOL    HW217874   4.261   0.735   8.018
 5772SOL     OW17875   4.591   1.366   7.482
 5772SOL    HW117876   4.551   1.394   7.564
 5772SOL    HW217877   4.606   1.448   7.434
 5773SOL     OW17878   4.802   0.979   7.539
 5773SOL    HW117879   4.778   1.033   7.464
 5773SOL    HW217880   4.880   0.932   7.511
 5774SOL     OW17881   4.113   0.421   7.983
 5774SOL    HW117882   4.165   0.369   7.922
 5774SOL    HW217883   4.161   0.416   8.066
 5775SOL     OW17884   4.490   1.334   7.757
 5775SOL    HW117885   4.459   1.244   7.761
 5775SOL    HW217886   4.568   1.335   7.813
 5776SOL     OW17887   5.037   0.040   7.613
 5776SOL    HW117888   5.115   0.029   7.558
 5776SOL    HW217889   4.986   5.260   7.597
 5777SOL     OW17890   3.775   1.079   7.750
 5777SOL    HW117891   3.869   1.068   7.736
 5777SOL    HW217892   3.742   0.990   7.766
 5778SOL     OW17893   4.613   1.647   7.783
 5778SOL    HW117894   4.537   1.626   7.729
 5778SOL    HW217895   4.582   1.711   7.846
 5779SOL     OW17896   3.946   2.485   0.122
 5779SOL    HW117897   3.864   2.452   0.160
 5779SOL    HW217898   3.966   2.425   0.051
 5780SOL     OW17899   3.949   2.142   0.991
 5780SOL    HW117900   3.977   2.109   1.076
 5780SOL    HW217901   3.859   2.110   0.982
 5781SOL     OW17902   3.729   2.245   0.638
 5781SOL    HW117903   3.646   2.270   0.679
 5781SOL    HW217904   3.708   2.165   0.590
 5782SOL     OW17905   4.291   3.148   1.174
 5782SOL    HW117906   4.203   3.152   1.136
 5782SOL    HW217907   4.306   3.236   1.208
 5783SOL     OW17908   5.283   3.407   0.707
 5783SOL    HW117909   5.246   3.355   0.778
 5783SOL    HW217910   5.223   3.391   0.633
 5784SOL     OW17911   4.858   2.561   0.701
 5784SOL    HW117912   4.908   2.642   0.690
 5784SOL    HW217913   4.810   2.574   0.783
 5785SOL     OW17914   4.480   3.005   1.040
 5785SOL    HW117915   4.411   3.039   1.096
 5785SOL    HW217916   4.515   3.082   0.995
 5786SOL     OW17917   4.591   2.638   1.822
 5786SOL    HW117918   4.575   2.710   1.883
 5786SOL    HW217919   4.613   2.681   1.740
 5787SOL     OW17920   4.409   2.864   0.650
 5787SOL    HW117921   4.474   2.853   0.719
 5787SOL    HW217922   4.340   2.917   0.691
 5788SOL     OW17923   4.434   3.013   1.812
 5788SOL    HW117924   4.481   3.092   1.838
 5788SOL    HW217925   4.351   3.046   1.776
 5789SOL     OW17926   4.055   3.288   1.068
 5789SOL    HW117927   3.982   3.252   1.017
 5789SOL    HW217928   4.105   3.339   1.004
 5790SOL     OW17929   5.160   3.344   1.350
 5790SOL    HW117930   5.204   3.425   1.376
 5790SOL    HW217931   5.109   3.319   1.427
 5791SOL     OW17932   4.172   2.260   1.488
 5791SOL    HW117933   4.247   2.201   1.493
 5791SOL    HW217934   4.096   2.204   1.501
 5792SOL     OW17935   3.944   3.576   0.472
 5792SOL    HW117936   3.966   3.652   0.526
 5792SOL    HW217937   4.018   3.568   0.412
 5793SOL     OW17938   4.860   3.201   1.694
 5793SOL    HW117939   4.899   3.198   1.781
 5793SOL    HW217940   4.807   3.122   1.688
 5794SOL     OW17941   3.950   3.302   0.530
 5794SOL    HW117942   3.937   3.397   0.535
 5794SOL    HW217943   3.891   3.267   0.597
 5795SOL     OW17944   3.979   2.952   0.890
 5795SOL    HW117945   3.977   2.866   0.932
 5795SOL    HW217946   3.922   3.006   0.944
 5796SOL     OW17947   4.334   3.654   1.427
 5796SOL    HW117948   4.253   3.636   1.475
 5796SOL    HW217949   4.359   3.743   1.454
 5797SOL     OW17950   4.355   2.823   0.132
 5797SOL    HW117951   4.303   2.899   0.107
 5797SOL    HW217952   4.404   2.852   0.209
 5798SOL     OW17953   3.838   2.512   0.562
 5798SOL    HW117954   3.809   2.424   0.583
 5798SOL    HW217955   3.830   2.560   0.644
 5799SOL     OW17956   3.752   3.458   0.111
 5799SOL    HW117957   3.739   3.370   0.146
 5799SOL    HW217958   3.736   3.516   0.186
 5800SOL     OW17959   0.114   2.807   0.593
 5800SOL    HW117960   0.203   2.771   0.593
 5800SOL    HW217961   0.116   2.874   0.524
 5801SOL     OW17962   3.847   2.604   1.586
 5801SOL    HW117963   3.939   2.629   1.595
 5801SOL    HW217964   3.799   2.687   1.594
 5802SOL     OW17965   4.337   3.247   0.735
 5802SOL    HW117966   4.291   3.164   0.744
 5802SOL    HW217967   4.321   3.273   0.644
 5803SOL     OW17968   5.008   3.099   1.425
 5803SOL    HW117969   5.041   3.032   1.365
 5803SOL    HW217970   5.063   3.091   1.503
 5804SOL     OW17971   4.539   1.864   0.510
 5804SOL    HW117972   4.578   1.948   0.489
 5804SOL    HW217973   4.445   1.882   0.519
 5805SOL     OW17974   3.915   2.829   1.270
 5805SOL    HW117975   3.999   2.787   1.255
 5805SOL    HW217976   3.851   2.773   1.226
 5806SOL     OW17977   4.897   3.669   1.623
 5806SOL    HW117978   4.919   3.727   1.550
 5806SOL    HW217979   4.918   3.581   1.590
 5807SOL     OW17980   4.056   2.112   1.810
 5807SOL    HW117981   4.101   2.195   1.826
 5807SOL    HW217982   3.967   2.127   1.842
 5808SOL     OW17983   5.169   3.296   0.937
 5808SOL    HW117984   5.106   3.302   1.009
 5808SOL    HW217985   5.163   3.205   0.908
 5809SOL     OW17986   4.322   2.577   0.282
 5809SOL    HW117987   4.340   2.653   0.227
 5809SOL    HW217988   4.257   2.608   0.345
 5810SOL     OW17989   4.996   2.198   0.920
 5810SOL    HW117990   4.908   2.168   0.941
 5810SOL    HW217991   5.051   2.164   0.990
 5811SOL     OW17992   4.515   2.480   1.451
 5811SOL    HW117993   4.489   2.456   1.540
 5811SOL    HW217994   4.475   2.413   1.396
 5812SOL     OW17995   5.115   2.341   1.680
 5812SOL    HW117996   5.116   2.380   1.768
 5812SOL    HW217997   5.190   2.282   1.679
 5813SOL     OW17998   4.679   2.750   1.582
 5813SOL    HW117999   4.732   2.678   1.547
 5813SOL    HW218000   4.631   2.784   1.506
 5814SOL     OW18001   4.715   2.275   1.239
 5814SOL    HW118002   4.630   2.297   1.276
 5814SOL    HW218003   4.695   2.228   1.158
 5815SOL     OW18004   4.776   2.559   0.426
 5815SOL    HW118005   4.791   2.555   0.520
 5815SOL    HW218006   4.693   2.514   0.412
 5816SOL     OW18007   3.813   2.683   0.776
 5816SOL    HW118008   3.894   2.676   0.826
 5816SOL    HW218009   3.770   2.761   0.811
 5817SOL     OW18010   3.851   3.706   1.577
 5817SOL    HW118011   3.851   3.686   1.671
 5817SOL    HW218012   3.759   3.704   1.552
 5818SOL     OW18013   4.608   2.219   0.200
 5818SOL    HW118014   4.653   2.267   0.130
 5818SOL    HW218015   4.609   2.128   0.171
 5819SOL     OW18016   5.094   3.008   0.548
 5819SOL    HW118017   5.177   3.001   0.501
 5819SOL    HW218018   5.041   3.068   0.494
 5820SOL     OW18019   4.273   2.044   0.893
 5820SOL    HW118020   4.276   2.072   0.984
 5820SOL    HW218021   4.276   2.126   0.843
 5821SOL     OW18022   4.730   3.307   0.474
 5821SOL    HW118023   4.690   3.378   0.424
 5821SOL    HW218024   4.713   3.329   0.565
 5822SOL     OW18025   4.078   3.670   0.861
 5822SOL    HW118026   4.122   3.586   0.869
 5822SOL    HW218027   4.147   3.735   0.879
 5823SOL     OW18028   4.940   3.406   1.520
 5823SOL    HW118029   4.927   3.331   1.579
 5823SOL    HW218030   4.886   3.385   1.443
 5824SOL     OW18031   4.051   2.803   0.254
 5824SOL    HW118032   4.120   2.846   0.203
 5824SOL    HW218033   4.051   2.713   0.222
 5825SOL     OW18034   4.189   3.126   1.738
 5825SOL    HW118035   4.162   3.131   1.646
 5825SOL    HW218036   4.107   3.125   1.787
 5826SOL     OW18037   4.826   3.636   0.225
 5826SOL    HW118038   4.771   3.596   0.293
 5826SOL    HW218039   4.841   3.566   0.162
 5827SOL     OW18040   3.924   2.144   1.500
 5827SOL    HW118041   3.842   2.193   1.496
 5827SOL    HW218042   3.908   2.076   1.566
 5828SOL     OW18043   4.189   3.600   0.323
 5828SOL    HW118044   4.230   3.659   0.386
 5828SOL    HW218045   4.260   3.574   0.264
 5829SOL     OW18046   5.118   1.987   0.438
 5829SOL    HW118047   5.101   1.968   0.345
 5829SOL    HW218048   5.213   1.994   0.444
 5830SOL     OW18049   3.978   3.653   1.232
 5830SOL    HW118050   4.031   3.589   1.279
 5830SOL    HW218051   3.970   3.618   1.144
 5831SOL     OW18052   4.662   3.560   0.900
 5831SOL    HW118053   4.742   3.510   0.917
 5831SOL    HW218054   4.617   3.511   0.831
 5832SOL     OW18055   4.110   2.559   0.477
 5832SOL    HW118056   4.135   2.468   0.487
 5832SOL    HW218057   4.017   2.561   0.500
 5833SOL     OW18058   4.353   1.974   0.135
 5833SOL    HW118059   4.448   1.961   0.141
 5833SOL    HW218060   4.333   1.953   0.043
 5834SOL     OW18061   4.490   2.140   1.754
 5834SOL    HW118062   4.566   2.081   1.756
 5834SOL    HW218063   4.441   2.119   1.833
 5835SOL     OW18064   4.599   3.383   1.194
 5835SOL    HW118065   4.585   3.348   1.106
 5835SOL    HW218066   4.670   3.329   1.230
 5836SOL     OW18067   5.058   2.453   1.432
 5836SOL    HW118068   5.091   2.421   1.516
 5836SOL    HW218069   5.100   2.538   1.421
 5837SOL     OW18070   4.538   3.257   0.938
 5837SOL    HW118071   4.622   3.247   0.895
 5837SOL    HW218072   4.474   3.258   0.867
 5838SOL     OW18073   4.651   2.371   0.903
 5838SOL    HW118074   4.628   2.362   0.810
 5838SOL    HW218075   4.683   2.284   0.928
 5839SOL     OW18076   4.273   1.925   0.506
 5839SOL    HW118077   4.192   1.925   0.557
 5839SOL    HW218078   4.267   2.003   0.451
 5840SOL     OW18079   5.141   3.035   0.042
 5840SOL    HW118080   5.143   2.963   0.106
 5840SOL    HW218081   5.056   3.077   0.056
 5841SOL     OW18082   4.034   1.916   0.168
 5841SOL    HW118083   4.098   1.985   0.183
 5841SOL    HW218084   4.071   1.839   0.211
 5842SOL     OW18085   4.661   2.108   0.460
 5842SOL    HW118086   4.633   2.149   0.378
 5842SOL    HW218087   4.756   2.124   0.464
 5843SOL     OW18088   4.801   2.543   1.461
 5843SOL    HW118089   4.733   2.475   1.463
 5843SOL    HW218090   4.883   2.494   1.451
 5844SOL     OW18091   4.941   3.434   0.796
 5844SOL    HW118092   4.964   3.499   0.729
 5844SOL    HW218093   5.021   3.421   0.846
 5845SOL     OW18094   4.191   3.011   0.734
 5845SOL    HW118095   4.122   2.992   0.798
 5845SOL    HW218096   4.151   2.995   0.649
 5846SOL     OW18097   4.993   3.656   0.604
 5846SOL    HW118098   5.038   3.719   0.547
 5846SOL    HW218099   4.928   3.708   0.652
 5847SOL     OW18100   4.759   2.394   0.028
 5847SOL    HW118101   4.711   2.473   0.002
 5847SOL    HW218102   4.818   2.423   0.097
 5848SOL     OW18103   3.802   2.417   1.392
 5848SOL    HW118104   3.894   2.415   1.365
 5848SOL    HW218105   3.798   2.487   1.457
 5849SOL     OW18106   4.284   2.089   1.165
 5849SOL    HW118107   4.325   2.012   1.204
 5849SOL    HW218108   4.193   2.086   1.195
 5850SOL     OW18109   4.592   2.321   0.639
 5850SOL    HW118110   4.549   2.376   0.574
 5850SOL    HW218111   4.613   2.240   0.591
 5851SOL     OW18112   4.739   1.914   0.752
 5851SOL    HW118113   4.680   1.907   0.677
 5851SOL    HW218114   4.717   1.839   0.806
 5852SOL     OW18115   5.158   3.038   0.850
 5852SOL    HW118116   5.102   2.961   0.863
 5852SOL    HW218117   5.168   3.044   0.755
 5853SOL     OW18118   4.207   3.300   0.172
 5853SOL    HW118119   4.135   3.258   0.219
 5853SOL    HW218120   4.211   3.255   0.088
 5854SOL     OW18121   5.125   2.446   0.077
 5854SOL    HW118122   5.066   2.421   0.148
 5854SOL    HW218123   5.194   2.380   0.078
 5855SOL     OW18124   4.242   2.125   0.324
 5855SOL    HW118125   4.291   2.073   0.261
 5855SOL    HW218126   4.230   2.210   0.281
 5856SOL     OW18127   4.781   3.215   1.333
 5856SOL    HW118128   4.706   3.185   1.384
 5856SOL    HW218129   4.857   3.173   1.374
 5857SOL     OW18130   0.006   3.466   1.617
 5857SOL    HW118131   0.040   3.472   1.528
 5857SOL    HW218132   0.083   3.446   1.671
 5858SOL     OW18133   4.851   3.064   1.107
 5858SOL    HW118134   4.791   3.101   1.171
 5858SOL    HW218135   4.818   3.094   1.022
 5859SOL     OW18136   4.642   1.960   1.397
 5859SOL    HW118137   4.664   1.942   1.306
 5859SOL    HW218138   4.721   1.999   1.434
 5860SOL     OW18139   4.708   2.975   1.725
 5860SOL    HW118140   4.616   2.992   1.744
 5860SOL    HW218141   4.707   2.898   1.667
 5861SOL     OW18142   4.437   2.924   0.380
 5861SOL    HW118143   4.420   2.907   0.472
 5861SOL    HW218144   4.515   2.872   0.360
 5862SOL     OW18145   4.142   2.676   1.251
 5862SOL    HW118146   4.211   2.686   1.317
 5862SOL    HW218147   4.107   2.588   1.266
 5863SOL     OW18148   4.989   2.238   1.276
 5863SOL    HW118149   5.024   2.317   1.317
 5863SOL    HW218150   4.900   2.261   1.250
 5864SOL     OW18151   3.794   3.435   1.351
 5864SOL    HW118152   3.764   3.509   1.299
 5864SOL    HW218153   3.889   3.439   1.347
 5865SOL     OW18154   4.069   2.971   0.492
 5865SOL    HW118155   4.077   3.044   0.430
 5865SOL    HW218156   4.078   2.893   0.437
 5866SOL     OW18157   4.277   2.399   0.860
 5866SOL    HW118158   4.293   2.457   0.786
 5866SOL    HW218159   4.342   2.426   0.926
 5867SOL     OW18160   4.971   3.209   0.392
 5867SOL    HW118161   5.027   3.281   0.420
 5867SOL    HW218162   4.884   3.231   0.424
 5868SOL     OW18163   4.993   3.318   1.139
 5868SOL    HW118164   5.048   3.321   1.217
 5868SOL    HW218165   4.940   3.239   1.150
 5869SOL     OW18166   4.071   3.388   1.316
 5869SOL    HW118167   4.059   3.346   1.231
 5869SOL    HW218168   4.166   3.401   1.323
 5870SOL     OW18169   4.138   2.607   1.602
 5870SOL    HW118170   4.199   2.652   1.544
 5870SOL    HW218171   4.178   2.521   1.617
 5871SOL     OW18172   4.718   1.985   1.756
 5871SOL    HW118173   4.774   2.057   1.727
 5871SOL    HW218174   4.766   1.906   1.730
 5872SOL     OW18175   4.222   1.904   1.747
 5872SOL    HW118176   4.179   1.849   1.681
 5872SOL    HW218177   4.162   1.978   1.759
 5873SOL     OW18178   4.306   2.735   1.031
 5873SOL    HW118179   4.338   2.825   1.030
 5873SOL    HW218180   4.250   2.730   1.108
 5874SOL     OW18181   5.085   2.719   1.039
 5874SOL    HW118182   5.010   2.703   0.982
 5874SOL    HW218183   5.137   2.639   1.032
 5875SOL     OW18184   4.933   2.393   0.270
 5875SOL    HW118185   4.935   2.313   0.321
 5875SOL    HW218186   4.886   2.456   0.325
 5876SOL     OW18187   4.023   2.061   1.246
 5876SOL    HW118188   3.986   2.094   1.328
 5876SOL    HW218189   4.004   1.967   1.247
 5877SOL     OW18190   3.770   3.173   1.276
 5877SOL    HW118191   3.803   3.119   1.348
 5877SOL    HW218192   3.777   3.262   1.309
 5878SOL     OW18193   4.448   2.493   1.058
 5878SOL    HW118194   4.523   2.476   1.001
 5878SOL    HW218195   4.421   2.582   1.037
 5879SOL     OW18196   4.026   1.927   0.623
 5879SOL    HW118197   4.008   2.018   0.647
 5879SOL    HW218198   4.033   1.881   0.707
 5880SOL     OW18199   0.046   2.240   0.358
 5880SOL    HW118200   0.062   2.182   0.432
 5880SOL    HW218201   0.015   2.321   0.397
 5881SOL     OW18202   4.750   2.621   0.960
 5881SOL    HW118203   4.750   2.639   1.054
 5881SOL    HW218204   4.725   2.529   0.953
 5882SOL     OW18205   4.698   3.423   1.713
 5882SOL    HW118206   4.687   3.471   1.631
 5882SOL    HW218207   4.747   3.345   1.689
 5883SOL     OW18208   4.077   2.777   1.809
 5883SOL    HW118209   4.160   2.797   1.853
 5883SOL    HW218210   4.101   2.715   1.740
 5884SOL     OW18211   5.029   2.696   0.028
 5884SOL    HW118212   5.061   2.607   0.045
 5884SOL    HW218213   5.059   2.715   8.019
 5885SOL     OW18214   4.789   3.196   0.855
 5885SOL    HW118215   4.793   3.124   0.792
 5885SOL    HW218216   4.848   3.263   0.819
 5886SOL     OW18217   4.033   2.671   0.947
 5886SOL    HW118218   4.126   2.693   0.942
 5886SOL    HW218219   4.031   2.582   0.981
 5887SOL     OW18220   4.056   2.387   1.012
 5887SOL    HW118221   4.021   2.299   0.997
 5887SOL    HW218222   4.132   2.393   0.955
 5888SOL     OW18223   4.856   2.239   1.680
 5888SOL    HW118224   4.809   2.294   1.743
 5888SOL    HW218225   4.944   2.278   1.675
 5889SOL     OW18226   4.885   2.065   1.469
 5889SOL    HW118227   4.874   2.127   1.541
 5889SOL    HW218228   4.924   2.117   1.398
 5890SOL     OW18229   3.735   3.186   0.190
 5890SOL    HW118230   3.648   3.200   0.153
 5890SOL    HW218231   3.733   3.096   0.222
 5891SOL     OW18232   3.814   3.650   0.937
 5891SOL    HW118233   3.784   3.570   0.894
 5891SOL    HW218234   3.904   3.662   0.907
 5892SOL     OW18235   4.221   3.435   0.906
 5892SOL    HW118236   4.290   3.498   0.930
 5892SOL    HW218237   4.266   3.372   0.850
 5893SOL     OW18238   4.708   2.655   1.227
 5893SOL    HW118239   4.763   2.631   1.302
 5893SOL    HW218240   4.622   2.618   1.248
 5894SOL     OW18241   3.760   2.406   1.116
 5894SOL    HW118242   3.841   2.392   1.068
 5894SOL    HW218243   3.787   2.410   1.208
 5895SOL     OW18244   3.915   2.381   1.727
 5895SOL    HW118245   3.972   2.343   1.660
 5895SOL    HW218246   3.872   2.454   1.683
 5896SOL     OW18247   5.111   2.801   1.666
 5896SOL    HW118248   5.120   2.896   1.654
 5896SOL    HW218249   5.114   2.765   1.577
 5897SOL     OW18250   4.542   2.431   0.365
 5897SOL    HW118251   4.550   2.360   0.302
 5897SOL    HW218252   4.466   2.481   0.335
 5898SOL     OW18253   3.968   3.414   1.728
 5898SOL    HW118254   3.945   3.478   1.795
 5898SOL    HW218255   3.969   3.330   1.774
 5899SOL     OW18256   4.423   2.313   1.260
 5899SOL    HW118257   4.371   2.239   1.229
 5899SOL    HW218258   4.420   2.376   1.188
 5900SOL     OW18259   4.645   3.542   1.468
 5900SOL    HW118260   4.624   3.510   1.381
 5900SOL    HW218261   4.648   3.637   1.460
 5901SOL     OW18262   4.193   2.352   0.180
 5901SOL    HW118263   4.259   2.419   0.199
 5901SOL    HW218264   4.109   2.398   0.189
 5902SOL     OW18265   3.870   3.002   1.472
 5902SOL    HW118266   3.873   2.950   1.552
 5902SOL    HW218267   3.888   2.939   1.402
 5903SOL     OW18268   5.054   2.912   1.225
 5903SOL    HW118269   5.076   2.847   1.158
 5903SOL    HW218270   4.982   2.962   1.187
 5904SOL     OW18271   5.023   2.731   0.319
 5904SOL    HW118272   4.945   2.687   0.352
 5904SOL    HW218273   5.024   2.711   0.225
 5905SOL     OW18274   4.960   3.593   1.122
 5905SOL    HW118275   5.046   3.613   1.084
 5905SOL    HW218276   4.960   3.498   1.132
 5906SOL     OW18277   3.808   3.129   1.012
 5906SOL    HW118278   3.794   3.141   1.106
 5906SOL    HW218279   3.734   3.074   0.985
 5907SOL     OW18280   4.401   3.526   1.727
 5907SOL    HW118281   4.350   3.607   1.722
 5907SOL    HW218282   4.469   3.537   1.661
 5908SOL     OW18283   4.629   1.953   0.134
 5908SOL    HW118284   4.649   1.937   0.042
 5908SOL    HW218285   4.692   1.899   0.182
 5909SOL     OW18286   0.083   2.012   0.522
 5909SOL    HW118287   0.174   2.006   0.493
 5909SOL    HW218288   0.074   1.941   0.586
 5910SOL     OW18289   5.108   3.432   0.478
 5910SOL    HW118290   5.162   3.474   0.411
 5910SOL    HW218291   5.060   3.504   0.519
 5911SOL     OW18292   3.859   3.659   1.843
 5911SOL    HW118293   3.809   3.594   1.892
 5911SOL    HW218294   3.908   3.707   1.911
 5912SOL     OW18295   5.016   2.781   0.673
 5912SOL    HW118296   5.093   2.727   0.658
 5912SOL    HW218297   5.034   2.862   0.624
 5913SOL     OW18298   4.539   3.135   1.431
 5913SOL    HW118299   4.512   3.174   1.514
 5913SOL    HW218300   4.470   3.158   1.369
 5914SOL     OW18301   4.400   3.482   0.156
 5914SOL    HW118302   4.407   3.488   0.061
 5914SOL    HW218303   4.340   3.409   0.172
 5915SOL     OW18304   3.987   2.178   0.718
 5915SOL    HW118305   3.901   2.214   0.694
 5915SOL    HW218306   3.983   2.170   0.813
 5916SOL     OW18307   4.860   3.441   0.045
 5916SOL    HW118308   4.902   3.357   0.061
 5916SOL    HW218309   4.897   3.472   8.043
 5917SOL     OW18310   4.548   2.868   1.372
 5917SOL    HW118311   4.592   2.864   1.287
 5917SOL    HW218312   4.548   2.961   1.395
 5918SOL     OW18313   4.643   2.776   0.299
 5918SOL    HW118314   4.696   2.800   0.223
 5918SOL    HW218315   4.690   2.703   0.339
 5919SOL     OW18316   4.093   3.164   1.492
 5919SOL    HW118317   4.080   3.241   1.437
 5919SOL    HW218318   4.016   3.110   1.475
 5920SOL     OW18319   4.775   2.969   0.707
 5920SOL    HW118320   4.704   2.917   0.747
 5920SOL    HW218321   4.832   2.903   0.667
 5921SOL     OW18322   4.740   2.101   0.968
 5921SOL    HW118323   4.737   2.053   0.885
 5921SOL    HW218324   4.736   2.032   1.035
 5922SOL     OW18325   4.326   3.349   0.481
 5922SOL    HW118326   4.369   3.299   0.411
 5922SOL    HW218327   4.259   3.400   0.435
 5923SOL     OW18328   3.990   3.182   0.293
 5923SOL    HW118329   3.904   3.195   0.253
 5923SOL    HW218330   3.984   3.228   0.377
 5924SOL     OW18331   3.837   2.883   1.719
 5924SOL    HW118332   3.760   2.860   1.772
 5924SOL    HW218333   3.911   2.846   1.767
 5925SOL     OW18334   4.398   2.058   1.499
 5925SOL    HW118335   4.482   2.039   1.458
 5925SOL    HW218336   4.421   2.089   1.587
 5926SOL     OW18337   3.781   2.225   0.039
 5926SOL    HW118338   3.707   2.169   0.014
 5926SOL    HW218339   3.828   2.240   8.037
 5927SOL     OW18340   5.162   2.722   1.404
 5927SOL    HW118341   5.110   2.778   1.347
 5927SOL    HW218342   5.252   2.729   1.370
 5928SOL     OW18343   3.795   2.017   0.307
 5928SOL    HW118344   3.780   2.101   0.263
 5928SOL    HW218345   3.879   1.987   0.273
 5929SOL     OW18346   4.914   3.177   0.120
 5929SOL    HW118347   4.819   3.176   0.115
 5929SOL    HW218348   4.933   3.183   0.214
 5930SOL     OW18349   4.343   2.693   1.433
 5930SOL    HW118350   4.399   2.769   1.418
 5930SOL    HW218351   4.403   2.620   1.441
 5931SOL     OW18352   4.441   2.426   1.704
 5931SOL    HW118353   4.481   2.488   1.766
 5931SOL    HW218354   4.470   2.340   1.736
 5932SOL     OW18355   5.182   3.067   1.632
 5932SOL    HW118356   5.173   3.079   1.727
 5932SOL    HW218357   5.276   3.073   1.616
 5933SOL     OW18358   4.104   3.601   1.564
 5933SOL    HW118359   4.019   3.642   1.551
 5933SOL    HW218360   4.085   3.518   1.606
 5934SOL     OW18361   4.935   2.187   0.460
 5934SOL    HW118362   4.997   2.115   0.449
 5934SOL    HW218363   4.964   2.232   0.539
 5935SOL     OW18364   4.313   2.600   0.668
 5935SOL    HW118365   4.353   2.685   0.654
 5935SOL    HW218366   4.244   2.594   0.602
 5936SOL     OW18367   4.618   3.232   0.031
 5936SOL    HW118368   4.554   3.227   0.102
 5936SOL    HW218369   4.615   3.323   0.003
 5937SOL     OW18370   4.383   3.654   0.945
 5937SOL    HW118371   4.364   3.745   0.922
 5937SOL    HW218372   4.479   3.648   0.939
 5938SOL     OW18373   4.591   2.828   0.856
 5938SOL    HW118374   4.642   2.757   0.895
 5938SOL    HW218375   4.557   2.878   0.930
 5939SOL     OW18376   4.799   2.836   0.085
 5939SOL    HW118377   4.790   2.901   0.015
 5939SOL    HW218378   4.882   2.792   0.067
 5940SOL     OW18379   3.949   3.166   1.856
 5940SOL    HW118380   3.881   3.104   1.827
 5940SOL    HW218381   3.931   3.178   1.949
 5941SOL     OW18382   3.807   3.094   0.664
 5941SOL    HW118383   3.812   3.046   0.747
 5941SOL    HW218384   3.880   3.060   0.612
 5942SOL     OW18385   4.404   3.263   1.628
 5942SOL    HW118386   4.324   3.221   1.659
 5942SOL    HW218387   4.401   3.352   1.663
 5943SOL     OW18388   4.149   2.298   0.523
 5943SOL    HW118389   4.182   2.226   0.469
 5943SOL    HW218390   4.105   2.254   0.596
 5944SOL     OW18391   0.095   3.384   1.099
 5944SOL    HW118392   0.028   3.358   1.036
 5944SOL    HW218393   0.106   3.308   1.156
 5945SOL     OW18394   4.053   2.416   1.291
 5945SOL    HW118395   4.109   2.361   1.347
 5945SOL    HW218396   4.073   2.388   1.202
 5946SOL     OW18397   4.551   3.440   0.678
 5946SOL    HW118398   4.541   3.491   0.598
 5946SOL    HW218399   4.473   3.384   0.680
 5947SOL     OW18400   5.149   2.081   1.115
 5947SOL    HW118401   5.193   2.015   1.169
 5947SOL    HW218402   5.102   2.136   1.178
 5948SOL     OW18403   4.730   1.881   1.143
 5948SOL    HW118404   4.677   1.812   1.103
 5948SOL    HW218405   4.818   1.844   1.148
 5949SOL     OW18406   4.493   3.190   0.308
 5949SOL    HW118407   4.462   3.100   0.322
 5949SOL    HW218408   4.576   3.194   0.356
 5950SOL     OW18409   4.344   3.419   1.285
 5950SOL    HW118410   4.346   3.501   1.334
 5950SOL    HW218411   4.431   3.411   1.247
 5951SOL     OW18412   5.052   1.923   0.185
 5951SOL    HW118413   5.094   1.874   0.115
 5951SOL    HW218414   4.974   1.872   0.207
 5952SOL     OW18415   5.029   2.322   0.684
 5952SOL    HW118416   4.973   2.400   0.688
 5952SOL    HW218417   5.017   2.280   0.769
 5953SOL     OW18418   0.000   2.086   0.876
 5953SOL    HW118419   5.237   2.073   0.947
 5953SOL    HW218420   5.277   2.171   0.838
 5954SOL     OW18421   3.766   2.929   0.302
 5954SOL    HW118422   3.862   2.929   0.306
 5954SOL    HW218423   3.741   2.847   0.344
 5955SOL     OW18424   4.604   3.513   0.350
 5955SOL    HW118425   4.537   3.497   0.283
 5955SOL    HW218426   4.573   3.590   0.397
 5956SOL     OW18427   3.954   2.485   1.985
 5956SOL    HW118428   3.864   2.484   2.019
 5956SOL    HW218429   3.945   2.460   1.893
 5957SOL     OW18430   3.949   2.142   2.853
 5957SOL    HW118431   3.977   2.109   2.938
 5957SOL    HW218432   3.859   2.111   2.844
 5958SOL     OW18433   3.729   2.245   2.500
 5958SOL    HW118434   3.646   2.270   2.541
 5958SOL    HW218435   3.708   2.165   2.451
 5959SOL     OW18436   4.291   3.148   3.036
 5959SOL    HW118437   4.203   3.151   2.998
 5959SOL    HW218438   4.306   3.237   3.069
 5960SOL     OW18439   5.284   3.397   2.568
 5960SOL    HW118440   5.245   3.354   2.643
 5960SOL    HW218441   5.219   3.388   2.498
 5961SOL     OW18442   4.857   2.561   2.563
 5961SOL    HW118443   4.908   2.642   2.552
 5961SOL    HW218444   4.809   2.573   2.644
 5962SOL     OW18445   4.480   3.005   2.902
 5962SOL    HW118446   4.411   3.039   2.958
 5962SOL    HW218447   4.515   3.082   2.857
 5963SOL     OW18448   4.591   2.638   3.684
 5963SOL    HW118449   4.575   2.710   3.745
 5963SOL    HW218450   4.613   2.681   3.602
 5964SOL     OW18451   4.410   2.866   2.510
 5964SOL    HW118452   4.475   2.853   2.579
 5964SOL    HW218453   4.340   2.917   2.550
 5965SOL     OW18454   4.434   3.013   3.674
 5965SOL    HW118455   4.481   3.092   3.700
 5965SOL    HW218456   4.351   3.046   3.638
 5966SOL     OW18457   4.054   3.289   2.930
 5966SOL    HW118458   3.982   3.251   2.879
 5966SOL    HW218459   4.105   3.339   2.866
 5967SOL     OW18460   5.160   3.344   3.212
 5967SOL    HW118461   5.204   3.425   3.237
 5967SOL    HW218462   5.109   3.319   3.289
 5968SOL     OW18463   4.172   2.260   3.351
 5968SOL    HW118464   4.247   2.201   3.355
 5968SOL    HW218465   4.096   2.204   3.363
 5969SOL     OW18466   3.943   3.576   2.335
 5969SOL    HW118467   3.965   3.652   2.388
 5969SOL    HW218468   4.016   3.568   2.272
 5970SOL     OW18469   4.860   3.201   3.556
 5970SOL    HW118470   4.899   3.197   3.643
 5970SOL    HW218471   4.806   3.122   3.550
 5971SOL     OW18472   3.954   3.303   2.397
 5971SOL    HW118473   3.937   3.397   2.401
 5971SOL    HW218474   3.893   3.265   2.460
 5972SOL     OW18475   3.981   2.952   2.753
 5972SOL    HW118476   3.977   2.866   2.794
 5972SOL    HW218477   3.922   3.006   2.807
 5973SOL     OW18478   4.334   3.654   3.289
 5973SOL    HW118479   4.253   3.637   3.337
 5973SOL    HW218480   4.359   3.743   3.316
 5974SOL     OW18481   4.311   2.843   1.995
 5974SOL    HW118482   4.355   2.893   1.927
 5974SOL    HW218483   4.351   2.873   2.077
 5975SOL     OW18484   3.839   2.514   2.421
 5975SOL    HW118485   3.810   2.425   2.442
 5975SOL    HW218486   3.831   2.562   2.504
 5976SOL     OW18487   3.755   3.458   1.986
 5976SOL    HW118488   3.738   3.366   2.006
 5976SOL    HW218489   3.731   3.504   2.066
 5977SOL     OW18490   0.112   2.803   2.438
 5977SOL    HW118491   0.198   2.765   2.455
 5977SOL    HW218492   0.130   2.886   2.393
 5978SOL     OW18493   3.843   2.603   3.451
 5978SOL    HW118494   3.934   2.632   3.457
 5978SOL    HW218495   3.792   2.683   3.440
 5979SOL     OW18496   4.337   3.247   2.597
 5979SOL    HW118497   4.291   3.163   2.606
 5979SOL    HW218498   4.321   3.273   2.507
 5980SOL     OW18499   5.008   3.099   3.287
 5980SOL    HW118500   5.041   3.032   3.227
 5980SOL    HW218501   5.063   3.091   3.365
 5981SOL     OW18502   4.538   1.862   2.370
 5981SOL    HW118503   4.578   1.946   2.351
 5981SOL    HW218504   4.444   1.881   2.380
 5982SOL     OW18505   3.914   2.830   3.133
 5982SOL    HW118506   3.997   2.785   3.116
 5982SOL    HW218507   3.848   2.776   3.090
 5983SOL     OW18508   4.897   3.669   3.485
 5983SOL    HW118509   4.919   3.727   3.412
 5983SOL    HW218510   4.918   3.581   3.453
 5984SOL     OW18511   4.056   2.112   3.673
 5984SOL    HW118512   4.101   2.195   3.687
 5984SOL    HW218513   3.967   2.127   3.704
 5985SOL     OW18514   5.169   3.296   2.799
 5985SOL    HW118515   5.106   3.303   2.871
 5985SOL    HW218516   5.163   3.205   2.771
 5986SOL     OW18517   4.320   2.584   2.127
 5986SOL    HW118518   4.326   2.665   2.077
 5986SOL    HW218519   4.255   2.602   2.195
 5987SOL     OW18520   4.996   2.199   2.782
 5987SOL    HW118521   4.908   2.169   2.803
 5987SOL    HW218522   5.051   2.164   2.853
 5988SOL     OW18523   4.515   2.480   3.313
 5988SOL    HW118524   4.489   2.456   3.402
 5988SOL    HW218525   4.475   2.413   3.258
 5989SOL     OW18526   5.115   2.341   3.542
 5989SOL    HW118527   5.116   2.380   3.630
 5989SOL    HW218528   5.190   2.282   3.541
 5990SOL     OW18529   4.679   2.750   3.444
 5990SOL    HW118530   4.732   2.678   3.409
 5990SOL    HW218531   4.631   2.784   3.368
 5991SOL     OW18532   4.715   2.275   3.101
 5991SOL    HW118533   4.629   2.296   3.138
 5991SOL    HW218534   4.695   2.228   3.020
 5992SOL     OW18535   4.774   2.560   2.288
 5992SOL    HW118536   4.789   2.554   2.382
 5992SOL    HW218537   4.692   2.513   2.274
 5993SOL     OW18538   3.813   2.683   2.638
 5993SOL    HW118539   3.894   2.675   2.688
 5993SOL    HW218540   3.769   2.760   2.673
 5994SOL     OW18541   3.851   3.706   3.439
 5994SOL    HW118542   3.851   3.686   3.533
 5994SOL    HW218543   3.759   3.704   3.413
 5995SOL     OW18544   4.616   2.209   2.056
 5995SOL    HW118545   4.656   2.270   1.994
 5995SOL    HW218546   4.631   2.122   2.019
 5996SOL     OW18547   5.092   3.008   2.409
 5996SOL    HW118548   5.179   3.007   2.369
 5996SOL    HW218549   5.041   3.068   2.354
 5997SOL     OW18550   4.274   2.044   2.755
 5997SOL    HW118551   4.276   2.073   2.846
 5997SOL    HW218552   4.275   2.126   2.704
 5998SOL     OW18553   4.731   3.306   2.335
 5998SOL    HW118554   4.692   3.377   2.285
 5998SOL    HW218555   4.715   3.328   2.426
 5999SOL     OW18556   4.078   3.670   2.723
 5999SOL    HW118557   4.122   3.586   2.731
 5999SOL    HW218558   4.147   3.735   2.741
 6000SOL     OW18559   4.939   3.406   3.382
 6000SOL    HW118560   4.927   3.331   3.441
 6000SOL    HW218561   4.886   3.385   3.305
 6001SOL     OW18562   4.045   2.819   2.112
 6001SOL    HW118563   4.127   2.838   2.066
 6001SOL    HW218564   4.014   2.737   2.072
 6002SOL     OW18565   4.189   3.126   3.600
 6002SOL    HW118566   4.162   3.131   3.508
 6002SOL    HW218567   4.107   3.125   3.649
 6003SOL     OW18568   4.833   3.637   2.098
 6003SOL    HW118569   4.761   3.592   2.143
 6003SOL    HW218570   4.858   3.578   2.027
 6004SOL     OW18571   3.924   2.144   3.363
 6004SOL    HW118572   3.842   2.192   3.356
 6004SOL    HW218573   3.907   2.076   3.428
 6005SOL     OW18574   4.190   3.599   2.183
 6005SOL    HW118575   4.232   3.657   2.247
 6005SOL    HW218576   4.262   3.570   2.127
 6006SOL     OW18577   5.121   1.970   2.286
 6006SOL    HW118578   5.101   1.951   2.194
 6006SOL    HW218579   5.216   1.984   2.288
 6007SOL     OW18580   3.978   3.653   3.094
 6007SOL    HW118581   4.031   3.589   3.141
 6007SOL    HW218582   3.970   3.619   3.005
 6008SOL     OW18583   4.662   3.560   2.762
 6008SOL    HW118584   4.741   3.509   2.779
 6008SOL    HW218585   4.617   3.511   2.693
 6009SOL     OW18586   4.116   2.557   2.339
 6009SOL    HW118587   4.137   2.465   2.350
 6009SOL    HW218588   4.022   2.563   2.356
 6010SOL     OW18589   4.358   1.985   1.968
 6010SOL    HW118590   4.429   1.922   1.979
 6010SOL    HW218591   4.309   1.953   1.891
 6011SOL     OW18592   4.491   2.140   3.616
 6011SOL    HW118593   4.566   2.081   3.618
 6011SOL    HW218594   4.441   2.119   3.695
 6012SOL     OW18595   4.599   3.383   3.056
 6012SOL    HW118596   4.585   3.348   2.968
 6012SOL    HW218597   4.670   3.329   3.092
 6013SOL     OW18598   5.058   2.453   3.294
 6013SOL    HW118599   5.091   2.420   3.378
 6013SOL    HW218600   5.100   2.538   3.284
 6014SOL     OW18601   4.538   3.257   2.800
 6014SOL    HW118602   4.622   3.247   2.756
 6014SOL    HW218603   4.474   3.258   2.729
 6015SOL     OW18604   4.651   2.371   2.765
 6015SOL    HW118605   4.628   2.362   2.673
 6015SOL    HW218606   4.683   2.285   2.790
 6016SOL     OW18607   4.272   1.925   2.365
 6016SOL    HW118608   4.192   1.926   2.417
 6016SOL    HW218609   4.267   2.003   2.310
 6017SOL     OW18610   5.137   3.042   1.905
 6017SOL    HW118611   5.148   2.965   1.961
 6017SOL    HW218612   5.050   3.074   1.926
 6018SOL     OW18613   4.016   1.909   2.046
 6018SOL    HW118614   4.075   1.974   2.007
 6018SOL    HW218615   4.074   1.846   2.088
 6019SOL     OW18616   4.661   2.108   2.323
 6019SOL    HW118617   4.633   2.149   2.241
 6019SOL    HW218618   4.756   2.120   2.325
 6020SOL     OW18619   4.801   2.543   3.323
 6020SOL    HW118620   4.733   2.475   3.325
 6020SOL    HW218621   4.883   2.494   3.313
 6021SOL     OW18622   4.941   3.433   2.656
 6021SOL    HW118623   4.964   3.499   2.591
 6021SOL    HW218624   5.020   3.422   2.708
 6022SOL     OW18625   4.192   3.011   2.596
 6022SOL    HW118626   4.123   2.992   2.659
 6022SOL    HW218627   4.153   2.994   2.511
 6023SOL     OW18628   4.996   3.656   2.467
 6023SOL    HW118629   5.038   3.717   2.406
 6023SOL    HW218630   4.930   3.709   2.512
 6024SOL     OW18631   4.749   2.407   1.883
 6024SOL    HW118632   4.705   2.489   1.863
 6024SOL    HW218633   4.810   2.428   1.953
 6025SOL     OW18634   3.802   2.416   3.253
 6025SOL    HW118635   3.894   2.415   3.227
 6025SOL    HW218636   3.797   2.485   3.320
 6026SOL     OW18637   4.284   2.089   3.027
 6026SOL    HW118638   4.325   2.012   3.066
 6026SOL    HW218639   4.193   2.086   3.057
 6027SOL     OW18640   4.593   2.321   2.501
 6027SOL    HW118641   4.546   2.375   2.438
 6027SOL    HW218642   4.613   2.241   2.454
 6028SOL     OW18643   4.739   1.915   2.614
 6028SOL    HW118644   4.681   1.907   2.539
 6028SOL    HW218645   4.717   1.839   2.669
 6029SOL     OW18646   5.158   3.037   2.713
 6029SOL    HW118647   5.101   2.961   2.726
 6029SOL    HW218648   5.169   3.043   2.619
 6030SOL     OW18649   4.215   3.279   2.020
 6030SOL    HW118650   4.140   3.250   2.072
 6030SOL    HW218651   4.199   3.243   1.932
 6031SOL     OW18652   5.127   2.425   1.941
 6031SOL    HW118653   5.055   2.415   2.004
 6031SOL    HW218654   5.202   2.386   1.985
 6032SOL     OW18655   4.250   2.125   2.181
 6032SOL    HW118656   4.293   2.077   2.111
 6032SOL    HW218657   4.228   2.210   2.142
 6033SOL     OW18658   4.782   3.215   3.195
 6033SOL    HW118659   4.706   3.185   3.246
 6033SOL    HW218660   4.857   3.173   3.236
 6034SOL     OW18661   0.006   3.466   3.479
 6034SOL    HW118662   0.040   3.472   3.390
 6034SOL    HW218663   0.083   3.446   3.533
 6035SOL     OW18664   4.852   3.064   2.969
 6035SOL    HW118665   4.791   3.101   3.033
 6035SOL    HW218666   4.818   3.094   2.884
 6036SOL     OW18667   4.642   1.960   3.259
 6036SOL    HW118668   4.664   1.942   3.168
 6036SOL    HW218669   4.721   1.999   3.296
 6037SOL     OW18670   4.708   2.975   3.587
 6037SOL    HW118671   4.616   2.992   3.606
 6037SOL    HW218672   4.707   2.898   3.529
 6038SOL     OW18673   4.432   2.923   2.233
 6038SOL    HW118674   4.418   2.907   2.327
 6038SOL    HW218675   4.508   2.869   2.211
 6039SOL     OW18676   4.142   2.676   3.113
 6039SOL    HW118677   4.210   2.686   3.179
 6039SOL    HW218678   4.107   2.588   3.127
 6040SOL     OW18679   4.989   2.238   3.138
 6040SOL    HW118680   5.024   2.317   3.179
 6040SOL    HW218681   4.900   2.261   3.112
 6041SOL     OW18682   3.794   3.435   3.213
 6041SOL    HW118683   3.764   3.508   3.159
 6041SOL    HW218684   3.890   3.440   3.209
 6042SOL     OW18685   4.074   2.970   2.353
 6042SOL    HW118686   4.079   3.044   2.292
 6042SOL    HW218687   4.072   2.893   2.297
 6043SOL     OW18688   4.277   2.399   2.722
 6043SOL    HW118689   4.293   2.457   2.648
 6043SOL    HW218690   4.342   2.426   2.788
 6044SOL     OW18691   4.972   3.211   2.250
 6044SOL    HW118692   5.026   3.283   2.280
 6044SOL    HW218693   4.884   3.231   2.283
 6045SOL     OW18694   4.993   3.318   3.001
 6045SOL    HW118695   5.048   3.321   3.079
 6045SOL    HW218696   4.940   3.239   3.012
 6046SOL     OW18697   4.071   3.388   3.178
 6046SOL    HW118698   4.059   3.346   3.093
 6046SOL    HW218699   4.166   3.400   3.185
 6047SOL     OW18700   4.137   2.607   3.463
 6047SOL    HW118701   4.200   2.651   3.405
 6047SOL    HW218702   4.175   2.521   3.478
 6048SOL     OW18703   4.718   1.985   3.618
 6048SOL    HW118704   4.774   2.057   3.589
 6048SOL    HW218705   4.766   1.906   3.592
 6049SOL     OW18706   4.222   1.904   3.609
 6049SOL    HW118707   4.179   1.849   3.543
 6049SOL    HW218708   4.162   1.977   3.621
 6050SOL     OW18709   4.307   2.734   2.893
 6050SOL    HW118710   4.337   2.825   2.892
 6050SOL    HW218711   4.250   2.729   2.970
 6051SOL     OW18712   5.086   2.719   2.900
 6051SOL    HW118713   5.009   2.703   2.845
 6051SOL    HW218714   5.136   2.638   2.895
 6052SOL     OW18715   4.929   2.393   2.128
 6052SOL    HW118716   4.936   2.313   2.180
 6052SOL    HW218717   4.886   2.456   2.185
 6053SOL     OW18718   4.023   2.061   3.109
 6053SOL    HW118719   3.986   2.094   3.190
 6053SOL    HW218720   4.004   1.967   3.109
 6054SOL     OW18721   3.764   3.173   3.140
 6054SOL    HW118722   3.802   3.119   3.209
 6054SOL    HW218723   3.776   3.263   3.171
 6055SOL     OW18724   4.448   2.493   2.920
 6055SOL    HW118725   4.523   2.477   2.863
 6055SOL    HW218726   4.420   2.582   2.899
 6056SOL     OW18727   4.026   1.927   2.485
 6056SOL    HW118728   4.008   2.018   2.509
 6056SOL    HW218729   4.033   1.881   2.569
 6057SOL     OW18730   0.035   2.254   2.222
 6057SOL    HW118731   0.056   2.180   2.279
 6057SOL    HW218732   0.015   2.326   2.282
 6058SOL     OW18733   4.751   2.621   2.823
 6058SOL    HW118734   4.750   2.639   2.917
 6058SOL    HW218735   4.725   2.529   2.815
 6059SOL     OW18736   4.698   3.423   3.575
 6059SOL    HW118737   4.687   3.471   3.493
 6059SOL    HW218738   4.747   3.345   3.551
 6060SOL     OW18739   4.078   2.779   3.668
 6060SOL    HW118740   4.159   2.797   3.715
 6060SOL    HW218741   4.102   2.715   3.601
 6061SOL     OW18742   5.027   2.691   1.899
 6061SOL    HW118743   5.064   2.603   1.901
 6061SOL    HW218744   5.054   2.727   1.814
 6062SOL     OW18745   4.789   3.196   2.717
 6062SOL    HW118746   4.793   3.124   2.654
 6062SOL    HW218747   4.848   3.263   2.681
 6063SOL     OW18748   4.033   2.671   2.809
 6063SOL    HW118749   4.126   2.693   2.803
 6063SOL    HW218750   4.031   2.582   2.843
 6064SOL     OW18751   4.056   2.387   2.874
 6064SOL    HW118752   4.021   2.299   2.859
 6064SOL    HW218753   4.132   2.393   2.817
 6065SOL     OW18754   4.856   2.239   3.542
 6065SOL    HW118755   4.809   2.294   3.605
 6065SOL    HW218756   4.944   2.278   3.537
 6066SOL     OW18757   4.885   2.065   3.331
 6066SOL    HW118758   4.874   2.127   3.403
 6066SOL    HW218759   4.923   2.117   3.260
 6067SOL     OW18760   3.729   3.184   2.057
 6067SOL    HW118761   3.642   3.198   2.019
 6067SOL    HW218762   3.726   3.094   2.090
 6068SOL     OW18763   3.814   3.650   2.800
 6068SOL    HW118764   3.784   3.570   2.756
 6068SOL    HW218765   3.904   3.662   2.769
 6069SOL     OW18766   4.221   3.435   2.768
 6069SOL    HW118767   4.290   3.498   2.792
 6069SOL    HW218768   4.265   3.372   2.712
 6070SOL     OW18769   4.708   2.655   3.089
 6070SOL    HW118770   4.763   2.631   3.164
 6070SOL    HW218771   4.622   2.618   3.109
 6071SOL     OW18772   3.761   2.405   2.978
 6071SOL    HW118773   3.842   2.392   2.930
 6071SOL    HW218774   3.788   2.410   3.070
 6072SOL     OW18775   3.917   2.380   3.589
 6072SOL    HW118776   3.972   2.341   3.521
 6072SOL    HW218777   3.873   2.453   3.546
 6073SOL     OW18778   5.111   2.801   3.528
 6073SOL    HW118779   5.120   2.896   3.516
 6073SOL    HW218780   5.114   2.765   3.439
 6074SOL     OW18781   4.540   2.431   2.220
 6074SOL    HW118782   4.543   2.356   2.161
 6074SOL    HW218783   4.466   2.483   2.189
 6075SOL     OW18784   3.967   3.414   3.590
 6075SOL    HW118785   3.945   3.478   3.657
 6075SOL    HW218786   3.969   3.330   3.636
 6076SOL     OW18787   4.423   2.313   3.122
 6076SOL    HW118788   4.371   2.239   3.092
 6076SOL    HW218789   4.420   2.376   3.050
 6077SOL     OW18790   4.645   3.542   3.330
 6077SOL    HW118791   4.624   3.510   3.243
 6077SOL    HW218792   4.648   3.637   3.321
 6078SOL     OW18793   4.189   2.355   2.050
 6078SOL    HW118794   4.247   2.428   2.071
 6078SOL    HW218795   4.103   2.395   2.037
 6079SOL     OW18796   3.870   3.004   3.333
 6079SOL    HW118797   3.874   2.952   3.414
 6079SOL    HW218798   3.886   2.941   3.263
 6080SOL     OW18799   5.054   2.912   3.087
 6080SOL    HW118800   5.076   2.847   3.019
 6080SOL    HW218801   4.982   2.962   3.049
 6081SOL     OW18802   5.034   2.721   2.178
 6081SOL    HW118803   4.951   2.688   2.215
 6081SOL    HW218804   5.023   2.712   2.084
 6082SOL     OW18805   4.960   3.593   2.983
 6082SOL    HW118806   5.046   3.613   2.946
 6082SOL    HW218807   4.960   3.498   2.994
 6083SOL     OW18808   3.807   3.129   2.875
 6083SOL    HW118809   3.791   3.140   2.969
 6083SOL    HW218810   3.735   3.073   2.845
 6084SOL     OW18811   4.401   3.526   3.589
 6084SOL    HW118812   4.350   3.607   3.584
 6084SOL    HW218813   4.469   3.536   3.523
 6085SOL     OW18814   0.083   2.021   2.391
 6085SOL    HW118815   0.168   2.009   2.349
 6085SOL    HW218816   0.069   1.940   2.441
 6086SOL     OW18817   5.111   3.432   2.341
 6086SOL    HW118818   5.180   3.471   2.290
 6086SOL    HW218819   5.062   3.506   2.377
 6087SOL     OW18820   3.859   3.659   3.706
 6087SOL    HW118821   3.808   3.594   3.754
 6087SOL    HW218822   3.908   3.706   3.773
 6088SOL     OW18823   5.016   2.781   2.535
 6088SOL    HW118824   5.093   2.727   2.521
 6088SOL    HW218825   5.034   2.861   2.485
 6089SOL     OW18826   4.539   3.135   3.293
 6089SOL    HW118827   4.512   3.174   3.375
 6089SOL    HW218828   4.470   3.157   3.231
 6090SOL     OW18829   4.395   3.481   2.018
 6090SOL    HW118830   4.406   3.493   1.923
 6090SOL    HW218831   4.341   3.403   2.026
 6091SOL     OW18832   3.987   2.178   2.579
 6091SOL    HW118833   3.901   2.214   2.555
 6091SOL    HW218834   3.983   2.170   2.674
 6092SOL     OW18835   4.909   3.471   1.903
 6092SOL    HW118836   4.920   3.377   1.914
 6092SOL    HW218837   4.855   3.480   1.825
 6093SOL     OW18838   4.548   2.868   3.234
 6093SOL    HW118839   4.591   2.864   3.149
 6093SOL    HW218840   4.548   2.961   3.256
 6094SOL     OW18841   4.640   2.773   2.152
 6094SOL    HW118842   4.702   2.805   2.086
 6094SOL    HW218843   4.687   2.702   2.196
 6095SOL     OW18844   4.093   3.165   3.354
 6095SOL    HW118845   4.081   3.242   3.299
 6095SOL    HW218846   4.016   3.110   3.337
 6096SOL     OW18847   4.775   2.968   2.568
 6096SOL    HW118848   4.704   2.918   2.609
 6096SOL    HW218849   4.833   2.902   2.531
 6097SOL     OW18850   4.740   2.101   2.830
 6097SOL    HW118851   4.737   2.054   2.747
 6097SOL    HW218852   4.736   2.033   2.897
 6098SOL     OW18853   4.326   3.350   2.344
 6098SOL    HW118854   4.370   3.300   2.275
 6098SOL    HW218855   4.258   3.400   2.298
 6099SOL     OW18856   3.983   3.207   2.150
 6099SOL    HW118857   3.890   3.206   2.127
 6099SOL    HW218858   3.986   3.244   2.238
 6100SOL     OW18859   3.844   2.893   3.590
 6100SOL    HW118860   3.773   2.845   3.632
 6100SOL    HW218861   3.924   2.854   3.625
 6101SOL     OW18862   4.398   2.058   3.361
 6101SOL    HW118863   4.482   2.039   3.320
 6101SOL    HW218864   4.421   2.089   3.449
 6102SOL     OW18865   3.802   2.197   1.897
 6102SOL    HW118866   3.715   2.177   1.863
 6102SOL    HW218867   3.831   2.271   1.845
 6103SOL     OW18868   5.162   2.722   3.266
 6103SOL    HW118869   5.111   2.779   3.209
 6103SOL    HW218870   5.251   2.729   3.232
 6104SOL     OW18871   3.793   2.019   2.173
 6104SOL    HW118872   3.779   2.099   2.122
 6104SOL    HW218873   3.878   1.986   2.143
 6105SOL     OW18874   4.907   3.192   1.976
 6105SOL    HW118875   4.813   3.174   1.977
 6105SOL    HW218876   4.931   3.199   2.069
 6106SOL     OW18877   4.342   2.693   3.295
 6106SOL    HW118878   4.399   2.769   3.280
 6106SOL    HW218879   4.403   2.619   3.303
 6107SOL     OW18880   4.442   2.426   3.566
 6107SOL    HW118881   4.481   2.488   3.628
 6107SOL    HW218882   4.470   2.340   3.598
 6108SOL     OW18883   5.182   3.067   3.494
 6108SOL    HW118884   5.174   3.079   3.589
 6108SOL    HW218885   5.277   3.072   3.478
 6109SOL     OW18886   4.104   3.601   3.426
 6109SOL    HW118887   4.019   3.642   3.413
 6109SOL    HW218888   4.085   3.517   3.468
 6110SOL     OW18889   4.941   2.182   2.318
 6110SOL    HW118890   5.003   2.110   2.305
 6110SOL    HW218891   4.971   2.226   2.398
 6111SOL     OW18892   4.315   2.600   2.530
 6111SOL    HW118893   4.353   2.686   2.515
 6111SOL    HW218894   4.246   2.593   2.464
 6112SOL     OW18895   4.590   3.229   1.896
 6112SOL    HW118896   4.549   3.259   1.977
 6112SOL    HW218897   4.607   3.309   1.846
 6113SOL     OW18898   4.383   3.654   2.807
 6113SOL    HW118899   4.364   3.745   2.784
 6113SOL    HW218900   4.479   3.648   2.801
 6114SOL     OW18901   4.591   2.828   2.718
 6114SOL    HW118902   4.641   2.757   2.757
 6114SOL    HW218903   4.557   2.878   2.792
 6115SOL     OW18904   4.806   2.849   1.952
 6115SOL    HW118905   4.782   2.899   1.874
 6115SOL    HW218906   4.881   2.796   1.925
 6116SOL     OW18907   3.949   3.167   3.718
 6116SOL    HW118908   3.884   3.102   3.688
 6116SOL    HW218909   3.932   3.177   3.811
 6117SOL     OW18910   3.807   3.096   2.527
 6117SOL    HW118911   3.811   3.047   2.608
 6117SOL    HW218912   3.876   3.058   2.472
 6118SOL     OW18913   4.405   3.263   3.490
 6118SOL    HW118914   4.324   3.221   3.521
 6118SOL    HW218915   4.401   3.352   3.525
 6119SOL     OW18916   4.154   2.296   2.387
 6119SOL    HW118917   4.183   2.225   2.330
 6119SOL    HW218918   4.106   2.252   2.458
 6120SOL     OW18919   0.096   3.383   2.961
 6120SOL    HW118920   0.028   3.358   2.899
 6120SOL    HW218921   0.105   3.307   3.019
 6121SOL     OW18922   4.054   2.417   3.154
 6121SOL    HW118923   4.109   2.361   3.209
 6121SOL    HW218924   4.073   2.388   3.064
 6122SOL     OW18925   4.551   3.440   2.540
 6122SOL    HW118926   4.541   3.491   2.460
 6122SOL    HW218927   4.473   3.384   2.542
 6123SOL     OW18928   5.148   2.081   2.977
 6123SOL    HW118929   5.193   2.015   3.030
 6123SOL    HW218930   5.102   2.136   3.040
 6124SOL     OW18931   4.730   1.881   3.005
 6124SOL    HW118932   4.677   1.813   2.965
 6124SOL    HW218933   4.818   1.844   3.009
 6125SOL     OW18934   4.494   3.194   2.176
 6125SOL    HW118935   4.463   3.104   2.182
 6125SOL    HW218936   4.577   3.195   2.224
 6126SOL     OW18937   4.344   3.419   3.147
 6126SOL    HW118938   4.346   3.501   3.196
 6126SOL    HW218939   4.431   3.411   3.109
 6127SOL     OW18940   5.059   1.908   2.030
 6127SOL    HW118941   5.084   1.867   1.947
 6127SOL    HW218942   4.974   1.869   2.051
 6128SOL     OW18943   5.028   2.320   2.545
 6128SOL    HW118944   4.973   2.398   2.549
 6128SOL    HW218945   5.017   2.279   2.631
 6129SOL     OW18946   0.002   2.086   2.741
 6129SOL    HW118947   5.236   2.076   2.809
 6129SOL    HW218948   5.278   2.167   2.696
 6130SOL     OW18949   3.767   2.933   2.168
 6130SOL    HW118950   3.861   2.925   2.151
 6130SOL    HW218951   3.739   2.845   2.190
 6131SOL     OW18952   4.604   3.511   2.208
 6131SOL    HW118953   4.533   3.496   2.145
 6131SOL    HW218954   4.576   3.589   2.257
 6132SOL     OW18955   3.953   2.487   3.846
 6132SOL    HW118956   3.865   2.482   3.882
 6132SOL    HW218957   3.944   2.459   3.755
 6133SOL     OW18958   3.947   2.143   4.715
 6133SOL    HW118959   3.976   2.109   4.800
 6133SOL    HW218960   3.858   2.111   4.706
 6134SOL     OW18961   3.737   2.243   4.359
 6134SOL    HW118962   3.657   2.271   4.405
 6134SOL    HW218963   3.711   2.165   4.311
 6135SOL     OW18964   4.291   3.148   4.898
 6135SOL    HW118965   4.204   3.151   4.859
 6135SOL    HW218966   4.306   3.237   4.931
 6136SOL     OW18967   5.284   3.398   4.430
 6136SOL    HW118968   5.245   3.354   4.505
 6136SOL    HW218969   5.219   3.388   4.360
 6137SOL     OW18970   4.858   2.561   4.425
 6137SOL    HW118971   4.908   2.642   4.414
 6137SOL    HW218972   4.809   2.573   4.506
 6138SOL     OW18973   4.481   3.005   4.764
 6138SOL    HW118974   4.411   3.039   4.820
 6138SOL    HW218975   4.515   3.082   4.719
 6139SOL     OW18976   4.591   2.638   5.546
 6139SOL    HW118977   4.575   2.710   5.607
 6139SOL    HW218978   4.613   2.681   5.464
 6140SOL     OW18979   4.411   2.866   4.371
 6140SOL    HW118980   4.475   2.853   4.441
 6140SOL    HW218981   4.341   2.917   4.412
 6141SOL     OW18982   4.434   3.013   5.536
 6141SOL    HW118983   4.481   3.092   5.562
 6141SOL    HW218984   4.351   3.046   5.500
 6142SOL     OW18985   4.054   3.289   4.792
 6142SOL    HW118986   3.983   3.251   4.741
 6142SOL    HW218987   4.105   3.339   4.728
 6143SOL     OW18988   5.160   3.344   5.074
 6143SOL    HW118989   5.204   3.425   5.099
 6143SOL    HW218990   5.109   3.319   5.151
 6144SOL     OW18991   4.173   2.261   5.214
 6144SOL    HW118992   4.248   2.201   5.217
 6144SOL    HW218993   4.096   2.204   5.225
 6145SOL     OW18994   3.943   3.576   4.197
 6145SOL    HW118995   3.966   3.653   4.250
 6145SOL    HW218996   4.016   3.568   4.135
 6146SOL     OW18997   4.860   3.201   5.418
 6146SOL    HW118998   4.899   3.198   5.505
 6146SOL    HW218999   4.807   3.122   5.412
 6147SOL     OW19000   3.955   3.303   4.258
 6147SOL    HW119001   3.937   3.397   4.264
 6147SOL    HW219002   3.895   3.263   4.321
 6148SOL     OW19003   3.984   2.953   4.618
 6148SOL    HW119004   3.978   2.866   4.657
 6148SOL    HW219005   3.923   3.006   4.669
 6149SOL     OW19006   4.334   3.654   5.151
 6149SOL    HW119007   4.253   3.637   5.199
 6149SOL    HW219008   4.359   3.743   5.178
 6150SOL     OW19009   4.310   2.843   3.858
 6150SOL    HW119010   4.355   2.893   3.789
 6150SOL    HW219011   4.350   2.873   3.939
 6151SOL     OW19012   3.840   2.512   4.283
 6151SOL    HW119013   3.812   2.424   4.305
 6151SOL    HW219014   3.832   2.561   4.365
 6152SOL     OW19015   3.751   3.457   3.847
 6152SOL    HW119016   3.740   3.365   3.870
 6152SOL    HW219017   3.732   3.504   3.928
 6153SOL     OW19018   0.112   2.803   4.301
 6153SOL    HW119019   0.198   2.765   4.317
 6153SOL    HW219020   0.130   2.885   4.255
 6154SOL     OW19021   3.848   2.605   5.310
 6154SOL    HW119022   3.941   2.625   5.318
 6154SOL    HW219023   3.805   2.690   5.323
 6155SOL     OW19024   4.337   3.247   4.459
 6155SOL    HW119025   4.291   3.163   4.468
 6155SOL    HW219026   4.321   3.273   4.369
 6156SOL     OW19027   5.008   3.099   5.149
 6156SOL    HW119028   5.041   3.032   5.089
 6156SOL    HW219029   5.063   3.091   5.227
 6157SOL     OW19030   4.538   1.862   4.232
 6157SOL    HW119031   4.578   1.946   4.213
 6157SOL    HW219032   4.444   1.881   4.242
 6158SOL     OW19033   3.913   2.831   4.994
 6158SOL    HW119034   3.995   2.784   4.976
 6158SOL    HW219035   3.846   2.775   4.955
 6159SOL     OW19036   4.897   3.669   5.347
 6159SOL    HW119037   4.919   3.727   5.274
 6159SOL    HW219038   4.918   3.581   5.314
 6160SOL     OW19039   4.056   2.112   5.534
 6160SOL    HW119040   4.102   2.195   5.550
 6160SOL    HW219041   3.967   2.127   5.567
 6161SOL     OW19042   5.169   3.296   4.661
 6161SOL    HW119043   5.106   3.303   4.734
 6161SOL    HW219044   5.163   3.205   4.633
 6162SOL     OW19045   4.320   2.584   3.989
 6162SOL    HW119046   4.326   2.665   3.939
 6162SOL    HW219047   4.255   2.602   4.057
 6163SOL     OW19048   4.996   2.199   4.644
 6163SOL    HW119049   4.908   2.169   4.665
 6163SOL    HW219050   5.051   2.164   4.715
 6164SOL     OW19051   4.515   2.480   5.176
 6164SOL    HW119052   4.489   2.456   5.265
 6164SOL    HW219053   4.475   2.413   5.120
 6165SOL     OW19054   5.115   2.341   5.404
 6165SOL    HW119055   5.116   2.380   5.492
 6165SOL    HW219056   5.190   2.281   5.403
 6166SOL     OW19057   4.679   2.750   5.306
 6166SOL    HW119058   4.732   2.678   5.271
 6166SOL    HW219059   4.631   2.784   5.230
 6167SOL     OW19060   4.715   2.275   4.963
 6167SOL    HW119061   4.629   2.296   5.000
 6167SOL    HW219062   4.695   2.228   4.882
 6168SOL     OW19063   4.774   2.560   4.150
 6168SOL    HW119064   4.789   2.554   4.244
 6168SOL    HW219065   4.692   2.513   4.135
 6169SOL     OW19066   3.819   2.676   4.500
 6169SOL    HW119067   3.898   2.675   4.555
 6169SOL    HW219068   3.771   2.753   4.529
 6170SOL     OW19069   3.851   3.704   5.301
 6170SOL    HW119070   3.851   3.685   5.394
 6170SOL    HW219071   3.758   3.706   5.276
 6171SOL     OW19072   4.616   2.209   3.919
 6171SOL    HW119073   4.656   2.270   3.857
 6171SOL    HW219074   4.630   2.122   3.881
 6172SOL     OW19075   5.092   3.008   4.271
 6172SOL    HW119076   5.179   3.007   4.231
 6172SOL    HW219077   5.041   3.068   4.216
 6173SOL     OW19078   4.274   2.044   4.617
 6173SOL    HW119079   4.276   2.073   4.708
 6173SOL    HW219080   4.274   2.125   4.566
 6174SOL     OW19081   4.731   3.306   4.197
 6174SOL    HW119082   4.692   3.377   4.147
 6174SOL    HW219083   4.714   3.328   4.288
 6175SOL     OW19084   4.079   3.670   4.585
 6175SOL    HW119085   4.123   3.586   4.593
 6175SOL    HW219086   4.147   3.735   4.603
 6176SOL     OW19087   4.939   3.406   5.244
 6176SOL    HW119088   4.927   3.331   5.303
 6176SOL    HW219089   4.886   3.384   5.167
 6177SOL     OW19090   4.044   2.819   3.973
 6177SOL    HW119091   4.127   2.837   3.928
 6177SOL    HW219092   4.015   2.735   3.938
 6178SOL     OW19093   4.189   3.126   5.462
 6178SOL    HW119094   4.162   3.131   5.370
 6178SOL    HW219095   4.107   3.125   5.511
 6179SOL     OW19096   4.833   3.637   3.960
 6179SOL    HW119097   4.761   3.592   4.005
 6179SOL    HW219098   4.858   3.578   3.889
 6180SOL     OW19099   3.925   2.144   5.224
 6180SOL    HW119100   3.843   2.193   5.218
 6180SOL    HW219101   3.907   2.075   5.289
 6181SOL     OW19102   4.190   3.599   4.045
 6181SOL    HW119103   4.232   3.657   4.109
 6181SOL    HW219104   4.262   3.570   3.989
 6182SOL     OW19105   5.121   1.969   4.148
 6182SOL    HW119106   5.101   1.951   4.056
 6182SOL    HW219107   5.216   1.984   4.149
 6183SOL     OW19108   3.977   3.653   4.956
 6183SOL    HW119109   4.031   3.589   5.003
 6183SOL    HW219110   3.970   3.619   4.867
 6184SOL     OW19111   4.662   3.560   4.624
 6184SOL    HW119112   4.741   3.509   4.641
 6184SOL    HW219113   4.617   3.511   4.554
 6185SOL     OW19114   4.116   2.557   4.200
 6185SOL    HW119115   4.137   2.465   4.211
 6185SOL    HW219116   4.022   2.563   4.219
 6186SOL     OW19117   4.358   1.985   3.829
 6186SOL    HW119118   4.429   1.922   3.841
 6186SOL    HW219119   4.309   1.953   3.754
 6187SOL     OW19120   4.491   2.140   5.478
 6187SOL    HW119121   4.566   2.081   5.480
 6187SOL    HW219122   4.441   2.119   5.557
 6188SOL     OW19123   4.599   3.383   4.918
 6188SOL    HW119124   4.585   3.348   4.830
 6188SOL    HW219125   4.670   3.329   4.954
 6189SOL     OW19126   5.058   2.453   5.156
 6189SOL    HW119127   5.091   2.420   5.240
 6189SOL    HW219128   5.100   2.538   5.146
 6190SOL     OW19129   4.538   3.257   4.662
 6190SOL    HW119130   4.622   3.247   4.618
 6190SOL    HW219131   4.474   3.258   4.591
 6191SOL     OW19132   4.651   2.371   4.627
 6191SOL    HW119133   4.628   2.362   4.535
 6191SOL    HW219134   4.683   2.285   4.652
 6192SOL     OW19135   4.272   1.925   4.227
 6192SOL    HW119136   4.192   1.926   4.278
 6192SOL    HW219137   4.267   2.004   4.172
 6193SOL     OW19138   5.137   3.042   3.767
 6193SOL    HW119139   5.148   2.965   3.823
 6193SOL    HW219140   5.050   3.074   3.788
 6194SOL     OW19141   4.016   1.910   3.909
 6194SOL    HW119142   4.074   1.974   3.869
 6194SOL    HW219143   4.074   1.846   3.950
 6195SOL     OW19144   4.661   2.108   4.185
 6195SOL    HW119145   4.633   2.149   4.103
 6195SOL    HW219146   4.756   2.120   4.187
 6196SOL     OW19147   4.801   2.543   5.185
 6196SOL    HW119148   4.733   2.475   5.187
 6196SOL    HW219149   4.883   2.494   5.175
 6197SOL     OW19150   4.941   3.433   4.518
 6197SOL    HW119151   4.964   3.499   4.453
 6197SOL    HW219152   5.020   3.422   4.570
 6198SOL     OW19153   4.193   3.011   4.458
 6198SOL    HW119154   4.124   2.992   4.522
 6198SOL    HW219155   4.153   2.994   4.373
 6199SOL     OW19156   4.996   3.656   4.329
 6199SOL    HW119157   5.038   3.717   4.268
 6199SOL    HW219158   4.930   3.709   4.374
 6200SOL     OW19159   4.749   2.407   3.745
 6200SOL    HW119160   4.705   2.489   3.725
 6200SOL    HW219161   4.810   2.429   3.815
 6201SOL     OW19162   3.803   2.415   5.118
 6201SOL    HW119163   3.894   2.414   5.089
 6201SOL    HW219164   3.798   2.487   5.181
 6202SOL     OW19165   4.284   2.089   4.889
 6202SOL    HW119166   4.324   2.011   4.928
 6202SOL    HW219167   4.193   2.086   4.919
 6203SOL     OW19168   4.593   2.322   4.363
 6203SOL    HW119169   4.546   2.375   4.300
 6203SOL    HW219170   4.613   2.241   4.316
 6204SOL     OW19171   4.739   1.915   4.476
 6204SOL    HW119172   4.681   1.907   4.401
 6204SOL    HW219173   4.717   1.839   4.531
 6205SOL     OW19174   5.158   3.037   4.575
 6205SOL    HW119175   5.101   2.961   4.588
 6205SOL    HW219176   5.169   3.043   4.480
 6206SOL     OW19177   4.215   3.279   3.882
 6206SOL    HW119178   4.140   3.250   3.934
 6206SOL    HW219179   4.199   3.243   3.794
 6207SOL     OW19180   5.127   2.425   3.803
 6207SOL    HW119181   5.055   2.415   3.866
 6207SOL    HW219182   5.202   2.386   3.847
 6208SOL     OW19183   4.250   2.125   4.043
 6208SOL    HW119184   4.293   2.077   3.972
 6208SOL    HW219185   4.228   2.210   4.004
 6209SOL     OW19186   4.782   3.215   5.057
 6209SOL    HW119187   4.706   3.185   5.108
 6209SOL    HW219188   4.857   3.173   5.098
 6210SOL     OW19189   0.006   3.466   5.341
 6210SOL    HW119190   0.040   3.472   5.252
 6210SOL    HW219191   0.083   3.446   5.395
 6211SOL     OW19192   4.852   3.064   4.831
 6211SOL    HW119193   4.791   3.101   4.895
 6211SOL    HW219194   4.818   3.094   4.746
 6212SOL     OW19195   4.642   1.960   5.121
 6212SOL    HW119196   4.664   1.942   5.030
 6212SOL    HW219197   4.721   1.999   5.158
 6213SOL     OW19198   4.708   2.975   5.449
 6213SOL    HW119199   4.616   2.992   5.468
 6213SOL    HW219200   4.707   2.898   5.391
 6214SOL     OW19201   4.432   2.923   4.095
 6214SOL    HW119202   4.418   2.907   4.189
 6214SOL    HW219203   4.508   2.869   4.073
 6215SOL     OW19204   4.141   2.676   4.976
 6215SOL    HW119205   4.210   2.686   5.041
 6215SOL    HW219206   4.107   2.588   4.989
 6216SOL     OW19207   4.989   2.238   5.000
 6216SOL    HW119208   5.024   2.317   5.041
 6216SOL    HW219209   4.900   2.261   4.974
 6217SOL     OW19210   3.794   3.434   5.074
 6217SOL    HW119211   3.765   3.509   5.022
 6217SOL    HW219212   3.890   3.439   5.071
 6218SOL     OW19213   4.075   2.970   4.215
 6218SOL    HW119214   4.079   3.044   4.154
 6218SOL    HW219215   4.072   2.892   4.159
 6219SOL     OW19216   4.278   2.399   4.584
 6219SOL    HW119217   4.293   2.457   4.510
 6219SOL    HW219218   4.342   2.426   4.650
 6220SOL     OW19219   4.972   3.211   4.112
 6220SOL    HW119220   5.026   3.283   4.142
 6220SOL    HW219221   4.884   3.231   4.145
 6221SOL     OW19222   4.993   3.318   4.863
 6221SOL    HW119223   5.048   3.321   4.941
 6221SOL    HW219224   4.940   3.239   4.874
 6222SOL     OW19225   4.071   3.387   5.040
 6222SOL    HW119226   4.059   3.346   4.955
 6222SOL    HW219227   4.166   3.400   5.047
 6223SOL     OW19228   4.137   2.606   5.326
 6223SOL    HW119229   4.198   2.651   5.268
 6223SOL    HW219230   4.177   2.521   5.341
 6224SOL     OW19231   4.718   1.985   5.480
 6224SOL    HW119232   4.774   2.057   5.451
 6224SOL    HW219233   4.766   1.906   5.454
 6225SOL     OW19234   4.222   1.904   5.471
 6225SOL    HW119235   4.180   1.849   5.405
 6225SOL    HW219236   4.162   1.977   5.483
 6226SOL     OW19237   4.308   2.734   4.756
 6226SOL    HW119238   4.337   2.825   4.753
 6226SOL    HW219239   4.250   2.730   4.832
 6227SOL     OW19240   5.086   2.719   4.762
 6227SOL    HW119241   5.009   2.703   4.707
 6227SOL    HW219242   5.136   2.638   4.757
 6228SOL     OW19243   4.929   2.393   3.990
 6228SOL    HW119244   4.936   2.313   4.042
 6228SOL    HW219245   4.886   2.456   4.047
 6229SOL     OW19246   4.023   2.061   4.970
 6229SOL    HW119247   3.986   2.094   5.052
 6229SOL    HW219248   4.004   1.967   4.971
 6230SOL     OW19249   3.755   3.172   5.004
 6230SOL    HW119250   3.797   3.117   5.070
 6230SOL    HW219251   3.773   3.262   5.031
 6231SOL     OW19252   4.449   2.493   4.783
 6231SOL    HW119253   4.523   2.477   4.724
 6231SOL    HW219254   4.420   2.582   4.761
 6232SOL     OW19255   4.026   1.927   4.347
 6232SOL    HW119256   4.008   2.018   4.371
 6232SOL    HW219257   4.033   1.881   4.431
 6233SOL     OW19258   0.035   2.255   4.084
 6233SOL    HW119259   0.056   2.181   4.141
 6233SOL    HW219260   0.015   2.326   4.144
 6234SOL     OW19261   4.751   2.621   4.684
 6234SOL    HW119262   4.750   2.639   4.778
 6234SOL    HW219263   4.725   2.529   4.677
 6235SOL     OW19264   4.698   3.423   5.437
 6235SOL    HW119265   4.687   3.471   5.355
 6235SOL    HW219266   4.747   3.345   5.413
 6236SOL     OW19267   4.077   2.778   5.532
 6236SOL    HW119268   4.159   2.797   5.577
 6236SOL    HW219269   4.101   2.716   5.464
 6237SOL     OW19270   5.027   2.691   3.761
 6237SOL    HW119271   5.064   2.603   3.763
 6237SOL    HW219272   5.054   2.727   3.676
 6238SOL     OW19273   4.789   3.196   4.579
 6238SOL    HW119274   4.793   3.124   4.516
 6238SOL    HW219275   4.847   3.263   4.543
 6239SOL     OW19276   4.034   2.672   4.673
 6239SOL    HW119277   4.127   2.693   4.666
 6239SOL    HW219278   4.032   2.582   4.705
 6240SOL     OW19279   4.057   2.387   4.737
 6240SOL    HW119280   4.020   2.300   4.721
 6240SOL    HW219281   4.132   2.392   4.679
 6241SOL     OW19282   4.856   2.239   5.404
 6241SOL    HW119283   4.809   2.294   5.467
 6241SOL    HW219284   4.944   2.278   5.399
 6242SOL     OW19285   4.885   2.065   5.193
 6242SOL    HW119286   4.874   2.127   5.265
 6242SOL    HW219287   4.923   2.117   5.122
 6243SOL     OW19288   3.728   3.185   3.920
 6243SOL    HW119289   3.641   3.195   3.881
 6243SOL    HW219290   3.728   3.095   3.954
 6244SOL     OW19291   3.814   3.651   4.662
 6244SOL    HW119292   3.783   3.571   4.619
 6244SOL    HW219293   3.904   3.662   4.631
 6245SOL     OW19294   4.221   3.435   4.630
 6245SOL    HW119295   4.290   3.498   4.654
 6245SOL    HW219296   4.265   3.372   4.574
 6246SOL     OW19297   4.708   2.655   4.951
 6246SOL    HW119298   4.763   2.631   5.026
 6246SOL    HW219299   4.622   2.618   4.971
 6247SOL     OW19300   3.757   2.406   4.842
 6247SOL    HW119301   3.836   2.392   4.790
 6247SOL    HW219302   3.789   2.410   4.933
 6248SOL     OW19303   3.915   2.381   5.451
 6248SOL    HW119304   3.972   2.342   5.384
 6248SOL    HW219305   3.872   2.454   5.407
 6249SOL     OW19306   5.111   2.801   5.390
 6249SOL    HW119307   5.120   2.896   5.378
 6249SOL    HW219308   5.114   2.765   5.301
 6250SOL     OW19309   4.540   2.431   4.082
 6250SOL    HW119310   4.543   2.356   4.023
 6250SOL    HW219311   4.466   2.483   4.051
 6251SOL     OW19312   3.967   3.413   5.452
 6251SOL    HW119313   3.945   3.478   5.519
 6251SOL    HW219314   3.969   3.330   5.499
 6252SOL     OW19315   4.423   2.313   4.984
 6252SOL    HW119316   4.371   2.239   4.953
 6252SOL    HW219317   4.420   2.376   4.912
 6253SOL     OW19318   4.645   3.542   5.192
 6253SOL    HW119319   4.624   3.510   5.105
 6253SOL    HW219320   4.648   3.637   5.183
 6254SOL     OW19321   4.189   2.355   3.912
 6254SOL    HW119322   4.247   2.428   3.933
 6254SOL    HW219323   4.103   2.395   3.899
 6255SOL     OW19324   3.868   3.002   5.195
 6255SOL    HW119325   3.874   2.951   5.275
 6255SOL    HW219326   3.887   2.940   5.125
 6256SOL     OW19327   5.054   2.912   4.949
 6256SOL    HW119328   5.076   2.847   4.881
 6256SOL    HW219329   4.982   2.962   4.911
 6257SOL     OW19330   5.034   2.721   4.040
 6257SOL    HW119331   4.952   2.688   4.077
 6257SOL    HW219332   5.023   2.712   3.946
 6258SOL     OW19333   4.960   3.593   4.845
 6258SOL    HW119334   5.046   3.613   4.808
 6258SOL    HW219335   4.960   3.498   4.856
 6259SOL     OW19336   3.807   3.132   4.737
 6259SOL    HW119337   3.788   3.138   4.831
 6259SOL    HW219338   3.740   3.072   4.704
 6260SOL     OW19339   4.401   3.526   5.451
 6260SOL    HW119340   4.350   3.607   5.446
 6260SOL    HW219341   4.469   3.536   5.385
 6261SOL     OW19342   0.083   2.021   4.253
 6261SOL    HW119343   0.167   2.009   4.210
 6261SOL    HW219344   0.070   1.940   4.303
 6262SOL     OW19345   5.111   3.432   4.203
 6262SOL    HW119346   5.180   3.471   4.151
 6262SOL    HW219347   5.062   3.506   4.239
 6263SOL     OW19348   3.859   3.659   5.567
 6263SOL    HW119349   3.809   3.594   5.616
 6263SOL    HW219350   3.908   3.707   5.634
 6264SOL     OW19351   5.016   2.781   4.397
 6264SOL    HW119352   5.093   2.727   4.383
 6264SOL    HW219353   5.034   2.861   4.348
 6265SOL     OW19354   4.539   3.135   5.155
 6265SOL    HW119355   4.511   3.174   5.237
 6265SOL    HW219356   4.470   3.157   5.093
 6266SOL     OW19357   4.395   3.481   3.880
 6266SOL    HW119358   4.406   3.493   3.785
 6266SOL    HW219359   4.341   3.403   3.888
 6267SOL     OW19360   3.989   2.178   4.442
 6267SOL    HW119361   3.904   2.213   4.416
 6267SOL    HW219362   3.984   2.170   4.537
 6268SOL     OW19363   4.909   3.471   3.765
 6268SOL    HW119364   4.920   3.377   3.776
 6268SOL    HW219365   4.855   3.480   3.686
 6269SOL     OW19366   4.548   2.868   5.096
 6269SOL    HW119367   4.591   2.863   5.011
 6269SOL    HW219368   4.548   2.961   5.118
 6270SOL     OW19369   4.640   2.773   4.014
 6270SOL    HW119370   4.702   2.805   3.948
 6270SOL    HW219371   4.687   2.702   4.058
 6271SOL     OW19372   4.092   3.164   5.217
 6271SOL    HW119373   4.081   3.241   5.161
 6271SOL    HW219374   4.015   3.110   5.198
 6272SOL     OW19375   4.775   2.968   4.430
 6272SOL    HW119376   4.704   2.918   4.471
 6272SOL    HW219377   4.833   2.902   4.392
 6273SOL     OW19378   4.740   2.101   4.692
 6273SOL    HW119379   4.737   2.054   4.609
 6273SOL    HW219380   4.736   2.033   4.759
 6274SOL     OW19381   4.326   3.350   4.206
 6274SOL    HW119382   4.370   3.300   4.137
 6274SOL    HW219383   4.258   3.400   4.160
 6275SOL     OW19384   3.983   3.208   4.011
 6275SOL    HW119385   3.890   3.205   3.990
 6275SOL    HW219386   3.986   3.244   4.100
 6276SOL     OW19387   3.836   2.879   5.441
 6276SOL    HW119388   3.760   2.859   5.496
 6276SOL    HW219389   3.911   2.845   5.489
 6277SOL     OW19390   4.398   2.058   5.223
 6277SOL    HW119391   4.482   2.039   5.182
 6277SOL    HW219392   4.421   2.089   5.311
 6278SOL     OW19393   3.802   2.195   3.759
 6278SOL    HW119394   3.714   2.175   3.729
 6278SOL    HW219395   3.829   2.270   3.706
 6279SOL     OW19396   5.162   2.722   5.128
 6279SOL    HW119397   5.110   2.779   5.071
 6279SOL    HW219398   5.251   2.729   5.094
 6280SOL     OW19399   3.793   2.020   4.036
 6280SOL    HW119400   3.778   2.099   3.984
 6280SOL    HW219401   3.878   1.987   4.006
 6281SOL     OW19402   4.907   3.192   3.838
 6281SOL    HW119403   4.813   3.174   3.839
 6281SOL    HW219404   4.931   3.199   3.931
 6282SOL     OW19405   4.342   2.693   5.157
 6282SOL    HW119406   4.398   2.769   5.142
 6282SOL    HW219407   4.403   2.619   5.165
 6283SOL     OW19408   4.441   2.426   5.429
 6283SOL    HW119409   4.481   2.488   5.490
 6283SOL    HW219410   4.470   2.340   5.460
 6284SOL     OW19411   5.182   3.067   5.356
 6284SOL    HW119412   5.173   3.079   5.451
 6284SOL    HW219413   5.277   3.072   5.340
 6285SOL     OW19414   4.104   3.601   5.288
 6285SOL    HW119415   4.019   3.642   5.275
 6285SOL    HW219416   4.085   3.517   5.330
 6286SOL     OW19417   4.941   2.182   4.180
 6286SOL    HW119418   5.003   2.110   4.167
 6286SOL    HW219419   4.971   2.226   4.260
 6287SOL     OW19420   4.315   2.600   4.392
 6287SOL    HW119421   4.353   2.687   4.377
 6287SOL    HW219422   4.246   2.593   4.327
 6288SOL     OW19423   4.590   3.229   3.758
 6288SOL    HW119424   4.549   3.259   3.839
 6288SOL    HW219425   4.607   3.309   3.708
 6289SOL     OW19426   4.383   3.654   4.669
 6289SOL    HW119427   4.364   3.745   4.646
 6289SOL    HW219428   4.479   3.648   4.663
 6290SOL     OW19429   4.591   2.829   4.580
 6290SOL    HW119430   4.641   2.757   4.619
 6290SOL    HW219431   4.557   2.878   4.654
 6291SOL     OW19432   4.806   2.849   3.814
 6291SOL    HW119433   4.782   2.899   3.736
 6291SOL    HW219434   4.881   2.796   3.787
 6292SOL     OW19435   3.949   3.166   5.580
 6292SOL    HW119436   3.880   3.105   5.552
 6292SOL    HW219437   3.933   3.178   5.674
 6293SOL     OW19438   3.808   3.100   4.389
 6293SOL    HW119439   3.802   3.046   4.468
 6293SOL    HW219440   3.875   3.057   4.336
 6294SOL     OW19441   4.404   3.263   5.351
 6294SOL    HW119442   4.324   3.221   5.383
 6294SOL    HW219443   4.401   3.352   5.387
 6295SOL     OW19444   4.154   2.296   4.249
 6295SOL    HW119445   4.183   2.225   4.192
 6295SOL    HW219446   4.106   2.252   4.320
 6296SOL     OW19447   0.096   3.383   4.823
 6296SOL    HW119448   0.028   3.358   4.761
 6296SOL    HW219449   0.105   3.307   4.881
 6297SOL     OW19450   4.053   2.416   5.015
 6297SOL    HW119451   4.109   2.361   5.070
 6297SOL    HW219452   4.072   2.389   4.926
 6298SOL     OW19453   4.551   3.440   4.402
 6298SOL    HW119454   4.541   3.491   4.322
 6298SOL    HW219455   4.473   3.384   4.404
 6299SOL     OW19456   5.148   2.081   4.839
 6299SOL    HW119457   5.193   2.015   4.892
 6299SOL    HW219458   5.102   2.136   4.902
 6300SOL     OW19459   4.730   1.881   4.867
 6300SOL    HW119460   4.677   1.813   4.827
 6300SOL    HW219461   4.818   1.844   4.871
 6301SOL     OW19462   4.494   3.194   4.038
 6301SOL    HW119463   4.463   3.104   4.044
 6301SOL    HW219464   4.577   3.194   4.086
 6302SOL     OW19465   4.343   3.419   5.009
 6302SOL    HW119466   4.346   3.501   5.058
 6302SOL    HW219467   4.431   3.411   4.971
 6303SOL     OW19468   5.059   1.908   3.892
 6303SOL    HW119469   5.084   1.867   3.809
 6303SOL    HW219470   4.974   1.869   3.913
 6304SOL     OW19471   5.028   2.320   4.407
 6304SOL    HW119472   4.973   2.398   4.411
 6304SOL    HW219473   5.017   2.279   4.493
 6305SOL     OW19474   0.002   2.086   4.603
 6305SOL    HW119475   5.236   2.076   4.671
 6305SOL    HW219476   5.277   2.167   4.558
 6306SOL     OW19477   3.772   2.934   4.023
 6306SOL    HW119478   3.866   2.920   4.011
 6306SOL    HW219479   3.739   2.848   4.051
 6307SOL     OW19480   4.604   3.511   4.070
 6307SOL    HW119481   4.533   3.496   4.007
 6307SOL    HW219482   4.576   3.589   4.119
 6308SOL     OW19483   3.954   2.486   5.708
 6308SOL    HW119484   3.865   2.484   5.742
 6308SOL    HW219485   3.945   2.460   5.617
 6309SOL     OW19486   3.949   2.142   6.577
 6309SOL    HW119487   3.977   2.109   6.662
 6309SOL    HW219488   3.859   2.110   6.568
 6310SOL     OW19489   3.729   2.245   6.224
 6310SOL    HW119490   3.646   2.269   6.265
 6310SOL    HW219491   3.708   2.165   6.175
 6311SOL     OW19492   4.291   3.148   6.760
 6311SOL    HW119493   4.203   3.151   6.722
 6311SOL    HW219494   4.306   3.236   6.794
 6312SOL     OW19495   5.284   3.397   6.292
 6312SOL    HW119496   5.245   3.354   6.367
 6312SOL    HW219497   5.219   3.388   6.222
 6313SOL     OW19498   4.857   2.561   6.287
 6313SOL    HW119499   4.908   2.642   6.276
 6313SOL    HW219500   4.809   2.573   6.368
 6314SOL     OW19501   4.480   3.005   6.626
 6314SOL    HW119502   4.411   3.039   6.682
 6314SOL    HW219503   4.515   3.082   6.581
 6315SOL     OW19504   4.591   2.640   7.407
 6315SOL    HW119505   4.570   2.714   7.463
 6315SOL    HW219506   4.614   2.679   7.323
 6316SOL     OW19507   4.410   2.866   6.234
 6316SOL    HW119508   4.475   2.853   6.303
 6316SOL    HW219509   4.340   2.917   6.274
 6317SOL     OW19510   4.434   3.014   7.397
 6317SOL    HW119511   4.481   3.092   7.424
 6317SOL    HW219512   4.351   3.046   7.362
 6318SOL     OW19513   4.055   3.288   6.654
 6318SOL    HW119514   3.982   3.251   6.603
 6318SOL    HW219515   4.105   3.339   6.590
 6319SOL     OW19516   5.161   3.343   6.936
 6319SOL    HW119517   5.204   3.425   6.962
 6319SOL    HW219518   5.108   3.319   7.012
 6320SOL     OW19519   4.172   2.260   7.075
 6320SOL    HW119520   4.247   2.201   7.080
 6320SOL    HW219521   4.096   2.204   7.087
 6321SOL     OW19522   3.944   3.576   6.059
 6321SOL    HW119523   3.965   3.652   6.112
 6321SOL    HW219524   4.016   3.568   5.997
 6322SOL     OW19525   4.860   3.201   7.278
 6322SOL    HW119526   4.899   3.199   7.365
 6322SOL    HW219527   4.807   3.121   7.273
 6323SOL     OW19528   3.953   3.303   6.120
 6323SOL    HW119529   3.937   3.397   6.125
 6323SOL    HW219530   3.893   3.265   6.184
 6324SOL     OW19531   3.980   2.952   6.476
 6324SOL    HW119532   3.977   2.866   6.518
 6324SOL    HW219533   3.923   3.006   6.530
 6325SOL     OW19534   4.334   3.654   7.013
 6325SOL    HW119535   4.254   3.636   7.061
 6325SOL    HW219536   4.359   3.743   7.040
 6326SOL     OW19537   4.311   2.843   5.720
 6326SOL    HW119538   4.355   2.893   5.651
 6326SOL    HW219539   4.351   2.873   5.801
 6327SOL     OW19540   3.838   2.514   6.145
 6327SOL    HW119541   3.810   2.425   6.166
 6327SOL    HW219542   3.831   2.562   6.228
 6328SOL     OW19543   3.754   3.458   5.710
 6328SOL    HW119544   3.738   3.366   5.731
 6328SOL    HW219545   3.731   3.505   5.790
 6329SOL     OW19546   0.112   2.803   6.162
 6329SOL    HW119547   0.198   2.765   6.179
 6329SOL    HW219548   0.130   2.886   6.117
 6330SOL     OW19549   3.846   2.604   7.172
 6330SOL    HW119550   3.938   2.629   7.181
 6330SOL    HW219551   3.798   2.686   7.180
 6331SOL     OW19552   4.337   3.246   6.321
 6331SOL    HW119553   4.291   3.163   6.331
 6331SOL    HW219554   4.321   3.273   6.231
 6332SOL     OW19555   5.008   3.099   7.010
 6332SOL    HW119556   5.041   3.032   6.951
 6332SOL    HW219557   5.062   3.091   7.089
 6333SOL     OW19558   4.538   1.862   6.094
 6333SOL    HW119559   4.578   1.946   6.075
 6333SOL    HW219560   4.444   1.881   6.104
 6334SOL     OW19561   3.915   2.829   6.856
 6334SOL    HW119562   3.999   2.786   6.841
 6334SOL    HW219563   3.851   2.773   6.812
 6335SOL     OW19564   4.898   3.670   7.208
 6335SOL    HW119565   4.920   3.727   7.135
 6335SOL    HW219566   4.919   3.582   7.177
 6336SOL     OW19567   4.056   2.111   7.397
 6336SOL    HW119568   4.101   2.194   7.410
 6336SOL    HW219569   3.967   2.127   7.428
 6337SOL     OW19570   5.169   3.296   6.523
 6337SOL    HW119571   5.107   3.303   6.596
 6337SOL    HW219572   5.163   3.205   6.495
 6338SOL     OW19573   4.320   2.584   5.851
 6338SOL    HW119574   4.326   2.665   5.801
 6338SOL    HW219575   4.255   2.603   5.919
 6339SOL     OW19576   4.996   2.199   6.506
 6339SOL    HW119577   4.908   2.169   6.527
 6339SOL    HW219578   5.051   2.164   6.577
 6340SOL     OW19579   4.515   2.480   7.038
 6340SOL    HW119580   4.489   2.456   7.127
 6340SOL    HW219581   4.475   2.413   6.982
 6341SOL     OW19582   5.115   2.342   7.266
 6341SOL    HW119583   5.116   2.380   7.354
 6341SOL    HW219584   5.190   2.283   7.265
 6342SOL     OW19585   4.679   2.750   7.168
 6342SOL    HW119586   4.732   2.679   7.132
 6342SOL    HW219587   4.631   2.784   7.092
 6343SOL     OW19588   4.715   2.276   6.825
 6343SOL    HW119589   4.630   2.296   6.862
 6343SOL    HW219590   4.695   2.228   6.744
 6344SOL     OW19591   4.774   2.560   6.012
 6344SOL    HW119592   4.790   2.554   6.106
 6344SOL    HW219593   4.692   2.513   5.998
 6345SOL     OW19594   3.812   2.683   6.362
 6345SOL    HW119595   3.893   2.676   6.412
 6345SOL    HW219596   3.770   2.761   6.397
 6346SOL     OW19597   3.851   3.708   7.164
 6346SOL    HW119598   3.851   3.687   7.257
 6346SOL    HW219599   3.759   3.701   7.137
 6347SOL     OW19600   4.616   2.209   5.780
 6347SOL    HW119601   4.656   2.270   5.718
 6347SOL    HW219602   4.631   2.122   5.743
 6348SOL     OW19603   5.092   3.008   6.133
 6348SOL    HW119604   5.179   3.007   6.094
 6348SOL    HW219605   5.041   3.068   6.078
 6349SOL     OW19606   4.274   2.044   6.479
 6349SOL    HW119607   4.276   2.072   6.570
 6349SOL    HW219608   4.275   2.126   6.429
 6350SOL     OW19609   4.731   3.305   6.059
 6350SOL    HW119610   4.692   3.378   6.009
 6350SOL    HW219611   4.715   3.328   6.150
 6351SOL     OW19612   4.078   3.670   6.447
 6351SOL    HW119613   4.122   3.586   6.455
 6351SOL    HW219614   4.147   3.735   6.465
 6352SOL     OW19615   4.940   3.405   7.105
 6352SOL    HW119616   4.928   3.332   7.165
 6352SOL    HW219617   4.885   3.384   7.030
 6353SOL     OW19618   4.045   2.819   5.835
 6353SOL    HW119619   4.127   2.838   5.790
 6353SOL    HW219620   4.014   2.737   5.796
 6354SOL     OW19621   4.189   3.125   7.323
 6354SOL    HW119622   4.162   3.130   7.232
 6354SOL    HW219623   4.107   3.124   7.373
 6355SOL     OW19624   4.833   3.637   5.822
 6355SOL    HW119625   4.761   3.592   5.867
 6355SOL    HW219626   4.857   3.578   5.751
 6356SOL     OW19627   3.924   2.144   7.087
 6356SOL    HW119628   3.842   2.193   7.081
 6356SOL    HW219629   3.907   2.075   7.151
 6357SOL     OW19630   4.190   3.599   5.907
 6357SOL    HW119631   4.232   3.657   5.971
 6357SOL    HW219632   4.262   3.570   5.851
 6358SOL     OW19633   5.121   1.969   6.010
 6358SOL    HW119634   5.101   1.951   5.918
 6358SOL    HW219635   5.216   1.984   6.012
 6359SOL     OW19636   3.978   3.654   6.818
 6359SOL    HW119637   4.031   3.589   6.865
 6359SOL    HW219638   3.970   3.618   6.730
 6360SOL     OW19639   4.662   3.560   6.486
 6360SOL    HW119640   4.741   3.509   6.503
 6360SOL    HW219641   4.617   3.511   6.416
 6361SOL     OW19642   4.116   2.557   6.063
 6361SOL    HW119643   4.137   2.465   6.073
 6361SOL    HW219644   4.022   2.563   6.080
 6362SOL     OW19645   4.358   1.985   5.692
 6362SOL    HW119646   4.429   1.922   5.703
 6362SOL    HW219647   4.309   1.953   5.616
 6363SOL     OW19648   4.489   2.139   7.339
 6363SOL    HW119649   4.565   2.081   7.342
 6363SOL    HW219650   4.445   2.124   7.423
 6364SOL     OW19651   4.600   3.383   6.779
 6364SOL    HW119652   4.585   3.348   6.692
 6364SOL    HW219653   4.670   3.329   6.816
 6365SOL     OW19654   5.058   2.453   7.018
 6365SOL    HW119655   5.091   2.421   7.102
 6365SOL    HW219656   5.100   2.539   7.007
 6366SOL     OW19657   4.538   3.257   6.524
 6366SOL    HW119658   4.622   3.247   6.480
 6366SOL    HW219659   4.474   3.258   6.453
 6367SOL     OW19660   4.651   2.371   6.489
 6367SOL    HW119661   4.628   2.362   6.397
 6367SOL    HW219662   4.683   2.285   6.514
 6368SOL     OW19663   4.272   1.925   6.089
 6368SOL    HW119664   4.192   1.926   6.141
 6368SOL    HW219665   4.267   2.003   6.034
 6369SOL     OW19666   5.137   3.042   5.629
 6369SOL    HW119667   5.149   2.965   5.685
 6369SOL    HW219668   5.050   3.074   5.650
 6370SOL     OW19669   4.016   1.909   5.770
 6370SOL    HW119670   4.075   1.974   5.731
 6370SOL    HW219671   4.074   1.846   5.812
 6371SOL     OW19672   4.661   2.108   6.047
 6371SOL    HW119673   4.633   2.149   5.965
 6371SOL    HW219674   4.756   2.120   6.049
 6372SOL     OW19675   4.801   2.543   7.047
 6372SOL    HW119676   4.733   2.475   7.049
 6372SOL    HW219677   4.883   2.494   7.037
 6373SOL     OW19678   4.941   3.433   6.380
 6373SOL    HW119679   4.964   3.499   6.315
 6373SOL    HW219680   5.020   3.422   6.432
 6374SOL     OW19681   4.192   3.011   6.320
 6374SOL    HW119682   4.123   2.992   6.383
 6374SOL    HW219683   4.152   2.994   6.235
 6375SOL     OW19684   4.996   3.656   6.191
 6375SOL    HW119685   5.038   3.717   6.130
 6375SOL    HW219686   4.930   3.709   6.236
 6376SOL     OW19687   4.749   2.406   5.607
 6376SOL    HW119688   4.705   2.489   5.587
 6376SOL    HW219689   4.810   2.428   5.677
 6377SOL     OW19690   3.802   2.417   6.977
 6377SOL    HW119691   3.894   2.415   6.951
 6377SOL    HW219692   3.798   2.487   7.043
 6378SOL     OW19693   4.284   2.089   6.751
 6378SOL    HW119694   4.325   2.012   6.791
 6378SOL    HW219695   4.193   2.086   6.781
 6379SOL     OW19696   4.593   2.321   6.225
 6379SOL    HW119697   4.546   2.375   6.162
 6379SOL    HW219698   4.613   2.241   6.178
 6380SOL     OW19699   4.739   1.915   6.338
 6380SOL    HW119700   4.681   1.907   6.263
 6380SOL    HW219701   4.717   1.839   6.393
 6381SOL     OW19702   5.158   3.037   6.437
 6381SOL    HW119703   5.101   2.961   6.450
 6381SOL    HW219704   5.169   3.043   6.342
 6382SOL     OW19705   4.215   3.279   5.744
 6382SOL    HW119706   4.140   3.250   5.796
 6382SOL    HW219707   4.199   3.243   5.657
 6383SOL     OW19708   5.127   2.425   5.665
 6383SOL    HW119709   5.055   2.415   5.728
 6383SOL    HW219710   5.202   2.386   5.709
 6384SOL     OW19711   4.250   2.125   5.905
 6384SOL    HW119712   4.293   2.077   5.835
 6384SOL    HW219713   4.228   2.210   5.866
 6385SOL     OW19714   4.781   3.215   6.919
 6385SOL    HW119715   4.706   3.185   6.970
 6385SOL    HW219716   4.857   3.173   6.960
 6386SOL     OW19717   0.006   3.467   7.203
 6386SOL    HW119718   0.040   3.473   7.114
 6386SOL    HW219719   0.083   3.447   7.256
 6387SOL     OW19720   4.851   3.064   6.693
 6387SOL    HW119721   4.791   3.101   6.757
 6387SOL    HW219722   4.818   3.094   6.609
 6388SOL     OW19723   4.642   1.960   6.983
 6388SOL    HW119724   4.664   1.942   6.892
 6388SOL    HW219725   4.721   1.999   7.020
 6389SOL     OW19726   4.709   2.974   7.313
 6389SOL    HW119727   4.616   2.993   7.330
 6389SOL    HW219728   4.707   2.898   7.255
 6390SOL     OW19729   4.432   2.923   5.957
 6390SOL    HW119730   4.419   2.907   6.051
 6390SOL    HW219731   4.508   2.869   5.935
 6391SOL     OW19732   4.142   2.676   6.837
 6391SOL    HW119733   4.211   2.686   6.903
 6391SOL    HW219734   4.107   2.588   6.852
 6392SOL     OW19735   4.989   2.238   6.862
 6392SOL    HW119736   5.024   2.317   6.903
 6392SOL    HW219737   4.900   2.261   6.836
 6393SOL     OW19738   3.794   3.435   6.938
 6393SOL    HW119739   3.763   3.508   6.885
 6393SOL    HW219740   3.889   3.439   6.933
 6394SOL     OW19741   4.074   2.970   6.077
 6394SOL    HW119742   4.080   3.044   6.016
 6394SOL    HW219743   4.072   2.893   6.021
 6395SOL     OW19744   4.277   2.399   6.446
 6395SOL    HW119745   4.293   2.457   6.372
 6395SOL    HW219746   4.342   2.426   6.512
 6396SOL     OW19747   4.972   3.211   5.974
 6396SOL    HW119748   5.026   3.283   6.004
 6396SOL    HW219749   4.884   3.231   6.007
 6397SOL     OW19750   4.993   3.318   6.725
 6397SOL    HW119751   5.048   3.321   6.803
 6397SOL    HW219752   4.939   3.239   6.737
 6398SOL     OW19753   4.071   3.388   6.902
 6398SOL    HW119754   4.058   3.346   6.817
 6398SOL    HW219755   4.166   3.401   6.909
 6399SOL     OW19756   4.138   2.607   7.188
 6399SOL    HW119757   4.199   2.652   7.130
 6399SOL    HW219758   4.177   2.521   7.203
 6400SOL     OW19759   4.718   1.985   7.341
 6400SOL    HW119760   4.775   2.057   7.312
 6400SOL    HW219761   4.766   1.906   7.317
 6401SOL     OW19762   4.223   1.903   7.333
 6401SOL    HW119763   4.180   1.849   7.267
 6401SOL    HW219764   4.163   1.977   7.345
 6402SOL     OW19765   4.307   2.735   6.617
 6402SOL    HW119766   4.337   2.826   6.616
 6402SOL    HW219767   4.250   2.729   6.694
 6403SOL     OW19768   5.086   2.719   6.623
 6403SOL    HW119769   5.009   2.703   6.569
 6403SOL    HW219770   5.136   2.638   6.619
 6404SOL     OW19771   4.929   2.393   5.852
 6404SOL    HW119772   4.936   2.313   5.904
 6404SOL    HW219773   4.886   2.456   5.909
 6405SOL     OW19774   4.023   2.061   6.832
 6405SOL    HW119775   3.986   2.094   6.914
 6405SOL    HW219776   4.004   1.967   6.833
 6406SOL     OW19777   3.771   3.173   6.862
 6406SOL    HW119778   3.803   3.119   6.934
 6406SOL    HW219779   3.777   3.262   6.895
 6407SOL     OW19780   4.448   2.493   6.644
 6407SOL    HW119781   4.523   2.477   6.587
 6407SOL    HW219782   4.420   2.582   6.623
 6408SOL     OW19783   4.026   1.927   6.209
 6408SOL    HW119784   4.008   2.018   6.233
 6408SOL    HW219785   4.033   1.881   6.293
 6409SOL     OW19786   0.035   2.254   5.946
 6409SOL    HW119787   0.056   2.180   6.003
 6409SOL    HW219788   0.015   2.326   6.006
 6410SOL     OW19789   4.751   2.621   6.546
 6410SOL    HW119790   4.750   2.639   6.640
 6410SOL    HW219791   4.725   2.529   6.539
 6411SOL     OW19792   4.699   3.424   7.299
 6411SOL    HW119793   4.688   3.471   7.217
 6411SOL    HW219794   4.747   3.344   7.275
 6412SOL     OW19795   4.077   2.776   7.397
 6412SOL    HW119796   4.161   2.797   7.438
 6412SOL    HW219797   4.100   2.715   7.327
 6413SOL     OW19798   5.027   2.691   5.623
 6413SOL    HW119799   5.064   2.603   5.625
 6413SOL    HW219800   5.054   2.727   5.538
 6414SOL     OW19801   4.789   3.196   6.441
 6414SOL    HW119802   4.793   3.124   6.378
 6414SOL    HW219803   4.848   3.263   6.405
 6415SOL     OW19804   4.033   2.671   6.533
 6415SOL    HW119805   4.126   2.693   6.527
 6415SOL    HW219806   4.031   2.582   6.567
 6416SOL     OW19807   4.056   2.387   6.598
 6416SOL    HW119808   4.021   2.299   6.583
 6416SOL    HW219809   4.132   2.393   6.541
 6417SOL     OW19810   4.857   2.239   7.265
 6417SOL    HW119811   4.810   2.294   7.328
 6417SOL    HW219812   4.944   2.278   7.260
 6418SOL     OW19813   4.885   2.065   7.054
 6418SOL    HW119814   4.874   2.126   7.126
 6418SOL    HW219815   4.923   2.117   6.984
 6419SOL     OW19816   3.728   3.184   5.781
 6419SOL    HW119817   3.641   3.197   5.743
 6419SOL    HW219818   3.726   3.094   5.815
 6420SOL     OW19819   3.814   3.650   6.523
 6420SOL    HW119820   3.784   3.570   6.480
 6420SOL    HW219821   3.904   3.662   6.492
 6421SOL     OW19822   4.221   3.435   6.492
 6421SOL    HW119823   4.290   3.498   6.516
 6421SOL    HW219824   4.266   3.371   6.436
 6422SOL     OW19825   4.708   2.655   6.813
 6422SOL    HW119826   4.763   2.631   6.888
 6422SOL    HW219827   4.622   2.618   6.833
 6423SOL     OW19828   3.760   2.406   6.703
 6423SOL    HW119829   3.840   2.391   6.654
 6423SOL    HW219830   3.787   2.410   6.794
 6424SOL     OW19831   3.916   2.381   7.313
 6424SOL    HW119832   3.972   2.342   7.245
 6424SOL    HW219833   3.872   2.454   7.270
 6425SOL     OW19834   5.110   2.801   7.253
 6425SOL    HW119835   5.119   2.895   7.242
 6425SOL    HW219836   5.113   2.765   7.164
 6426SOL     OW19837   4.540   2.431   5.944
 6426SOL    HW119838   4.543   2.356   5.885
 6426SOL    HW219839   4.466   2.483   5.913
 6427SOL     OW19840   3.968   3.414   7.314
 6427SOL    HW119841   3.945   3.478   7.382
 6427SOL    HW219842   3.969   3.330   7.361
 6428SOL     OW19843   4.423   2.313   6.846
 6428SOL    HW119844   4.371   2.239   6.816
 6428SOL    HW219845   4.420   2.376   6.774
 6429SOL     OW19846   4.646   3.542   7.054
 6429SOL    HW119847   4.624   3.511   6.966
 6429SOL    HW219848   4.648   3.637   7.046
 6430SOL     OW19849   4.189   2.355   5.774
 6430SOL    HW119850   4.247   2.428   5.795
 6430SOL    HW219851   4.103   2.395   5.761
 6431SOL     OW19852   3.871   3.002   7.058
 6431SOL    HW119853   3.873   2.950   7.138
 6431SOL    HW219854   3.888   2.939   6.988
 6432SOL     OW19855   5.054   2.912   6.811
 6432SOL    HW119856   5.076   2.847   6.743
 6432SOL    HW219857   4.982   2.962   6.773
 6433SOL     OW19858   5.034   2.721   5.902
 6433SOL    HW119859   4.952   2.688   5.939
 6433SOL    HW219860   5.023   2.712   5.808
 6434SOL     OW19861   4.960   3.593   6.707
 6434SOL    HW119862   5.046   3.613   6.670
 6434SOL    HW219863   4.960   3.498   6.718
 6435SOL     OW19864   3.808   3.129   6.598
 6435SOL    HW119865   3.795   3.141   6.692
 6435SOL    HW219866   3.734   3.074   6.571
 6436SOL     OW19867   4.400   3.525   7.312
 6436SOL    HW119868   4.351   3.607   7.309
 6436SOL    HW219869   4.469   3.537   7.246
 6437SOL     OW19870   0.083   2.021   6.115
 6437SOL    HW119871   0.168   2.009   6.073
 6437SOL    HW219872   0.069   1.940   6.165
 6438SOL     OW19873   5.110   3.432   6.065
 6438SOL    HW119874   5.181   3.472   6.014
 6438SOL    HW219875   5.062   3.506   6.101
 6439SOL     OW19876   3.859   3.658   7.430
 6439SOL    HW119877   3.809   3.594   7.479
 6439SOL    HW219878   3.908   3.707   7.497
 6440SOL     OW19879   5.015   2.781   6.258
 6440SOL    HW119880   5.093   2.727   6.245
 6440SOL    HW219881   5.034   2.861   6.209
 6441SOL     OW19882   4.539   3.135   7.017
 6441SOL    HW119883   4.511   3.174   7.100
 6441SOL    HW219884   4.470   3.157   6.955
 6442SOL     OW19885   4.395   3.481   5.742
 6442SOL    HW119886   4.406   3.493   5.647
 6442SOL    HW219887   4.341   3.403   5.750
 6443SOL     OW19888   3.987   2.178   6.303
 6443SOL    HW119889   3.901   2.214   6.279
 6443SOL    HW219890   3.983   2.170   6.398
 6444SOL     OW19891   4.909   3.471   5.627
 6444SOL    HW119892   4.920   3.377   5.638
 6444SOL    HW219893   4.855   3.480   5.548
 6445SOL     OW19894   4.548   2.868   6.958
 6445SOL    HW119895   4.591   2.864   6.873
 6445SOL    HW219896   4.548   2.961   6.981
 6446SOL     OW19897   4.640   2.773   5.876
 6446SOL    HW119898   4.702   2.805   5.810
 6446SOL    HW219899   4.687   2.702   5.920
 6447SOL     OW19900   4.093   3.164   7.078
 6447SOL    HW119901   4.080   3.242   7.023
 6447SOL    HW219902   4.016   3.110   7.061
 6448SOL     OW19903   4.775   2.968   6.292
 6448SOL    HW119904   4.704   2.918   6.333
 6448SOL    HW219905   4.833   2.902   6.255
 6449SOL     OW19906   4.740   2.101   6.554
 6449SOL    HW119907   4.737   2.054   6.471
 6449SOL    HW219908   4.736   2.033   6.621
 6450SOL     OW19909   4.326   3.350   6.068
 6450SOL    HW119910   4.370   3.300   5.999
 6450SOL    HW219911   4.259   3.400   6.022
 6451SOL     OW19912   3.983   3.207   5.873
 6451SOL    HW119913   3.889   3.206   5.851
 6451SOL    HW219914   3.986   3.244   5.962
 6452SOL     OW19915   3.837   2.882   7.305
 6452SOL    HW119916   3.760   2.860   7.358
 6452SOL    HW219917   3.911   2.845   7.354
 6453SOL     OW19918   4.398   2.058   7.085
 6453SOL    HW119919   4.482   2.039   7.044
 6453SOL    HW219920   4.420   2.088   7.173
 6454SOL     OW19921   3.802   2.197   5.622
 6454SOL    HW119922   3.715   2.176   5.587
 6454SOL    HW219923   3.832   2.271   5.569
 6455SOL     OW19924   5.162   2.722   6.990
 6455SOL    HW119925   5.110   2.779   6.933
 6455SOL    HW219926   5.252   2.729   6.956
 6456SOL     OW19927   3.793   2.019   5.897
 6456SOL    HW119928   3.779   2.099   5.846
 6456SOL    HW219929   3.878   1.986   5.867
 6457SOL     OW19930   4.907   3.192   5.700
 6457SOL    HW119931   4.813   3.174   5.702
 6457SOL    HW219932   4.931   3.199   5.793
 6458SOL     OW19933   4.343   2.693   7.019
 6458SOL    HW119934   4.399   2.769   7.004
 6458SOL    HW219935   4.403   2.620   7.027
 6459SOL     OW19936   4.442   2.425   7.291
 6459SOL    HW119937   4.480   2.487   7.353
 6459SOL    HW219938   4.470   2.339   7.322
 6460SOL     OW19939   5.182   3.066   7.217
 6460SOL    HW119940   5.172   3.078   7.312
 6460SOL    HW219941   5.277   3.073   7.202
 6461SOL     OW19942   4.104   3.602   7.150
 6461SOL    HW119943   4.018   3.642   7.137
 6461SOL    HW219944   4.085   3.518   7.192
 6462SOL     OW19945   4.941   2.182   6.042
 6462SOL    HW119946   5.003   2.110   6.029
 6462SOL    HW219947   4.971   2.226   6.122
 6463SOL     OW19948   4.315   2.600   6.254
 6463SOL    HW119949   4.353   2.686   6.239
 6463SOL    HW219950   4.246   2.593   6.188
 6464SOL     OW19951   4.589   3.229   5.619
 6464SOL    HW119952   4.549   3.259   5.701
 6464SOL    HW219953   4.607   3.309   5.570
 6465SOL     OW19954   4.383   3.654   6.531
 6465SOL    HW119955   4.364   3.745   6.508
 6465SOL    HW219956   4.479   3.648   6.525
 6466SOL     OW19957   4.591   2.828   6.441
 6466SOL    HW119958   4.641   2.757   6.481
 6466SOL    HW219959   4.557   2.878   6.516
 6467SOL     OW19960   4.806   2.849   5.676
 6467SOL    HW119961   4.782   2.899   5.598
 6467SOL    HW219962   4.881   2.796   5.649
 6468SOL     OW19963   3.949   3.165   7.443
 6468SOL    HW119964   3.881   3.105   7.412
 6468SOL    HW219965   3.929   3.179   7.535
 6469SOL     OW19966   3.807   3.095   6.250
 6469SOL    HW119967   3.812   3.047   6.333
 6469SOL    HW219968   3.877   3.058   6.196
 6470SOL     OW19969   4.404   3.263   7.213
 6470SOL    HW119970   4.324   3.221   7.244
 6470SOL    HW219971   4.401   3.352   7.249
 6471SOL     OW19972   4.153   2.296   6.111
 6471SOL    HW119973   4.183   2.225   6.054
 6471SOL    HW219974   4.106   2.252   6.182
 6472SOL     OW19975   0.096   3.383   6.686
 6472SOL    HW119976   0.028   3.358   6.623
 6472SOL    HW219977   0.105   3.307   6.743
 6473SOL     OW19978   4.053   2.416   6.877
 6473SOL    HW119979   4.109   2.361   6.933
 6473SOL    HW219980   4.073   2.388   6.788
 6474SOL     OW19981   4.551   3.439   6.264
 6474SOL    HW119982   4.541   3.491   6.184
 6474SOL    HW219983   4.473   3.384   6.266
 6475SOL     OW19984   5.148   2.081   6.701
 6475SOL    HW119985   5.193   2.015   6.754
 6475SOL    HW219986   5.102   2.136   6.764
 6476SOL     OW19987   4.730   1.881   6.729
 6476SOL    HW119988   4.677   1.813   6.689
 6476SOL    HW219989   4.818   1.844   6.733
 6477SOL     OW19990   4.494   3.194   5.900
 6477SOL    HW119991   4.463   3.104   5.906
 6477SOL    HW219992   4.577   3.195   5.948
 6478SOL     OW19993   4.344   3.419   6.871
 6478SOL    HW119994   4.346   3.501   6.920
 6478SOL    HW219995   4.431   3.411   6.833
 6479SOL     OW19996   5.059   1.908   5.754
 6479SOL    HW119997   5.084   1.867   5.671
 6479SOL    HW219998   4.974   1.869   5.775
 6480SOL     OW19999   5.028   2.320   6.269
 6480SOL    HW120000   4.973   2.398   6.273
 6480SOL    HW220001   5.017   2.279   6.355
 6481SOL     OW20002   0.002   2.086   6.465
 6481SOL    HW120003   5.236   2.076   6.533
 6481SOL    HW220004   5.278   2.167   6.420
 6482SOL     OW20005   3.767   2.933   5.891
 6482SOL    HW120006   3.861   2.926   5.875
 6482SOL    HW220007   3.739   2.845   5.914
 6483SOL     OW20008   4.604   3.511   5.932
 6483SOL    HW120009   4.533   3.496   5.869
 6483SOL    HW220010   4.576   3.589   5.981
 6484SOL     OW20011   3.953   2.481   7.572
 6484SOL    HW120012   3.862   2.489   7.602
 6484SOL    HW220013   3.946   2.458   7.479
 6485SOL     OW20014   3.945   3.580   7.919
 6485SOL    HW120015   3.974   3.623   7.999
 6485SOL    HW220016   4.022   3.577   7.863
 6486SOL     OW20017   3.942   3.300   7.990
 6486SOL    HW120018   3.928   3.394   7.990
 6486SOL    HW220019   3.881   3.266   8.057
 6487SOL     OW20020   4.312   2.843   7.578
 6487SOL    HW120021   4.355   2.895   7.510
 6487SOL    HW220022   4.350   2.875   7.660
 6488SOL     OW20023   3.754   3.461   7.577
 6488SOL    HW120024   3.738   3.368   7.592
 6488SOL    HW220025   3.726   3.504   7.659
 6489SOL     OW20026   0.118   2.788   8.016
 6489SOL    HW120027   0.211   2.778   8.037
 6489SOL    HW220028   0.107   2.881   7.998
 6490SOL     OW20029   4.525   1.856   7.938
 6490SOL    HW120030   4.574   1.936   7.923
 6490SOL    HW220031   4.434   1.885   7.948
 6491SOL     OW20032   4.315   2.587   7.709
 6491SOL    HW120033   4.319   2.668   7.658
 6491SOL    HW220034   4.254   2.606   7.780
 6492SOL     OW20035   3.786   2.723   0.092
 6492SOL    HW120036   3.852   2.661   0.122
 6492SOL    HW220037   3.778   2.787   0.163
 6493SOL     OW20038   4.605   2.207   7.638
 6493SOL    HW120039   4.650   2.266   7.578
 6493SOL    HW220040   4.637   2.119   7.614
 6494SOL     OW20041   4.048   2.817   7.697
 6494SOL    HW120042   4.127   2.836   7.648
 6494SOL    HW220043   4.011   2.739   7.656
 6495SOL     OW20044   4.837   3.638   7.684
 6495SOL    HW120045   4.764   3.595   7.728
 6495SOL    HW220046   4.861   3.579   7.613
 6496SOL     OW20047   4.191   3.600   7.769
 6496SOL    HW120048   4.239   3.653   7.833
 6496SOL    HW220049   4.259   3.565   7.711
 6497SOL     OW20050   5.133   1.987   7.858
 6497SOL    HW120051   5.096   1.963   7.773
 6497SOL    HW220052   5.227   1.987   7.845
 6498SOL     OW20053   4.115   2.560   7.918
 6498SOL    HW120054   4.121   2.465   7.926
 6498SOL    HW220055   4.023   2.580   7.936
 6499SOL     OW20056   4.352   1.983   7.559
 6499SOL    HW120057   4.428   1.925   7.569
 6499SOL    HW220058   4.309   1.951   7.480
 6500SOL     OW20059   4.256   1.935   7.959
 6500SOL    HW120060   4.170   1.939   8.002
 6500SOL    HW220061   4.254   2.006   7.895
 6501SOL     OW20062   5.137   3.040   7.488
 6501SOL    HW120063   5.155   2.971   7.552
 6501SOL    HW220064   5.051   3.073   7.512
 6502SOL     OW20065   4.017   1.911   7.633
 6502SOL    HW120066   4.075   1.972   7.588
 6502SOL    HW220067   4.075   1.846   7.671
 6503SOL     OW20068   4.666   2.089   7.911
 6503SOL    HW120069   4.623   2.152   7.854
 6503SOL    HW220070   4.758   2.116   7.913
 6504SOL     OW20071   4.165   3.010   0.100
 6504SOL    HW120072   4.090   3.048   0.146
 6504SOL    HW220073   4.134   2.998   0.011
 6505SOL     OW20074   5.007   3.666   8.012
 6505SOL    HW120075   5.046   3.733   7.956
 6505SOL    HW220076   4.938   3.713   8.060
 6506SOL     OW20077   4.752   2.408   7.464
 6506SOL    HW120078   4.704   2.489   7.448
 6506SOL    HW220079   4.806   2.427   7.542
 6507SOL     OW20080   4.213   3.277   7.606
 6507SOL    HW120081   4.139   3.248   7.659
 6507SOL    HW220082   4.195   3.242   7.518
 6508SOL     OW20083   5.127   2.424   7.529
 6508SOL    HW120084   5.053   2.414   7.589
 6508SOL    HW220085   5.201   2.384   7.575
 6509SOL     OW20086   4.250   2.128   7.771
 6509SOL    HW120087   4.293   2.077   7.702
 6509SOL    HW220088   4.228   2.211   7.729
 6510SOL     OW20089   4.436   2.924   7.811
 6510SOL    HW120090   4.411   2.912   7.903
 6510SOL    HW220091   4.515   2.871   7.801
 6511SOL     OW20092   4.090   2.963   7.928
 6511SOL    HW120093   4.071   3.042   7.878
 6511SOL    HW220094   4.076   2.892   7.865
 6512SOL     OW20095   4.959   3.219   7.820
 6512SOL    HW120096   5.017   3.290   7.849
 6512SOL    HW220097   4.902   3.202   7.895
 6513SOL     OW20098   0.035   2.509   7.925
 6513SOL    HW120099   5.279   2.533   7.998
 6513SOL    HW220100   0.040   2.588   7.871
 6514SOL     OW20101   4.928   2.391   7.714
 6514SOL    HW120102   4.932   2.308   7.759
 6514SOL    HW220103   4.898   2.453   7.780
 6515SOL     OW20104   0.026   2.262   7.808
 6515SOL    HW120105   0.040   2.193   7.873
 6515SOL    HW220106   0.022   2.343   7.859
 6516SOL     OW20107   5.033   2.694   7.490
 6516SOL    HW120108   5.065   2.603   7.487
 6516SOL    HW220109   5.056   2.730   7.404
 6517SOL     OW20110   3.730   3.186   7.640
 6517SOL    HW120111   3.642   3.199   7.603
 6517SOL    HW220112   3.729   3.097   7.674
 6518SOL     OW20113   4.562   2.460   7.761
 6518SOL    HW120114   4.553   2.368   7.734
 6518SOL    HW220115   4.473   2.494   7.761
 6519SOL     OW20116   4.187   2.355   7.642
 6519SOL    HW120117   4.245   2.430   7.657
 6519SOL    HW220118   4.102   2.395   7.624
 6520SOL     OW20119   5.032   2.709   7.772
 6520SOL    HW120120   4.939   2.722   7.791
 6520SOL    HW220121   5.037   2.708   7.676
 6521SOL     OW20122   0.179   2.004   7.990
 6521SOL    HW120123   0.160   1.985   7.898
 6521SOL    HW220124   0.137   1.933   8.038
 6522SOL     OW20125   5.102   3.435   7.907
 6522SOL    HW120126   5.197   3.448   7.902
 6522SOL    HW220127   5.069   3.516   7.946
 6523SOL     OW20128   4.390   3.482   7.604
 6523SOL    HW120129   4.403   3.492   7.509
 6523SOL    HW220130   4.339   3.401   7.612
 6524SOL     OW20131   4.912   3.473   7.486
 6524SOL    HW120132   4.921   3.379   7.501
 6524SOL    HW220133   4.853   3.480   7.411
 6525SOL     OW20134   4.654   2.772   7.758
 6525SOL    HW120135   4.705   2.797   7.680
 6525SOL    HW220136   4.645   2.677   7.751
 6526SOL     OW20137   4.327   3.367   7.936
 6526SOL    HW120138   4.372   3.307   7.878
 6526SOL    HW220139   4.256   3.404   7.883
 6527SOL     OW20140   3.982   3.208   7.740
 6527SOL    HW120141   3.890   3.207   7.715
 6527SOL    HW220142   3.982   3.244   7.829
 6528SOL     OW20143   3.801   2.196   7.484
 6528SOL    HW120144   3.715   2.176   7.448
 6528SOL    HW220145   3.831   2.271   7.433
 6529SOL     OW20146   3.795   2.020   7.759
 6529SOL    HW120147   3.778   2.096   7.704
 6529SOL    HW220148   3.877   1.984   7.727
 6530SOL     OW20149   4.906   3.191   7.556
 6530SOL    HW120150   4.811   3.178   7.556
 6530SOL    HW220151   4.928   3.204   7.648
 6531SOL     OW20152   5.265   3.605   0.321
 6531SOL    HW120153   5.269   3.692   0.280
 6531SOL    HW220154   0.037   3.606   0.385
 6532SOL     OW20155   4.939   2.182   7.900
 6532SOL    HW120156   5.010   2.119   7.890
 6532SOL    HW220157   4.957   2.225   7.984
 6533SOL     OW20158   4.348   2.595   8.058
 6533SOL    HW120159   4.355   2.679   0.024
 6533SOL    HW220160   4.261   2.597   8.018
 6534SOL     OW20161   4.590   3.228   7.482
 6534SOL    HW120162   4.550   3.257   7.564
 6534SOL    HW220163   4.607   3.310   7.434
 6535SOL     OW20164   4.802   2.841   7.539
 6535SOL    HW120165   4.779   2.895   7.464
 6535SOL    HW220166   4.880   2.793   7.511
 6536SOL     OW20167   4.112   2.288   7.981
 6536SOL    HW120168   4.162   2.237   7.918
 6536SOL    HW220169   4.160   2.279   8.063
 6537SOL     OW20170   4.490   3.196   7.758
 6537SOL    HW120171   4.459   3.106   7.762
 6537SOL    HW220172   4.568   3.198   7.813
 6538SOL     OW20173   5.062   1.907   7.611
 6538SOL    HW120174   5.083   1.863   7.529
 6538SOL    HW220175   4.978   1.870   7.638
 6539SOL     OW20176   3.774   2.941   7.750
 6539SOL    HW120177   3.868   2.930   7.736
 6539SOL    HW220178   3.742   2.852   7.766
 6540SOL     OW20179   4.613   3.509   7.783
 6540SOL    HW120180   4.537   3.489   7.729
 6540SOL    HW220181   4.582   3.573   7.846
 6541SOL     OW20182   3.945   4.347   0.121
 6541SOL    HW120183   3.864   4.314   0.160
 6541SOL    HW220184   3.965   4.285   0.051
 6542SOL     OW20185   3.949   4.004   0.991
 6542SOL    HW120186   3.977   3.971   1.076
 6542SOL    HW220187   3.859   3.972   0.982
 6543SOL     OW20188   3.728   4.107   0.638
 6543SOL    HW120189   3.646   4.132   0.679
 6543SOL    HW220190   3.708   4.027   0.590
 6544SOL     OW20191   4.290   5.004   1.178
 6544SOL    HW120192   4.204   5.004   1.134
 6544SOL    HW220193   4.302   5.095   1.205
 6545SOL     OW20194   5.276   5.233   0.693
 6545SOL    HW120195   5.262   5.215   0.786
 6545SOL    HW220196   5.189   5.231   0.654
 6546SOL     OW20197   4.858   4.423   0.701
 6546SOL    HW120198   4.908   4.504   0.690
 6546SOL    HW220199   4.809   4.436   0.783
 6547SOL     OW20200   4.480   4.868   1.037
 6547SOL    HW120201   4.412   4.900   1.097
 6547SOL    HW220202   4.511   4.946   0.992
 6548SOL     OW20203   4.591   4.500   1.822
 6548SOL    HW120204   4.574   4.572   1.883
 6548SOL    HW220205   4.613   4.543   1.740
 6549SOL     OW20206   4.408   4.726   0.651
 6549SOL    HW120207   4.474   4.715   0.720
 6549SOL    HW220208   4.340   4.780   0.691
 6550SOL     OW20209   4.433   4.874   1.811
 6550SOL    HW120210   4.481   4.953   1.835
 6550SOL    HW220211   4.349   4.906   1.777
 6551SOL     OW20212   4.061   5.153   1.060
 6551SOL    HW120213   3.984   5.109   1.023
 6551SOL    HW220214   4.102   5.197   0.986
 6552SOL     OW20215   5.131   5.237   1.341
 6552SOL    HW120216   5.152   0.008   1.403
 6552SOL    HW220217   5.111   5.162   1.397
 6553SOL     OW20218   4.172   4.122   1.489
 6553SOL    HW120219   4.247   4.063   1.493
 6553SOL    HW220220   4.096   4.065   1.501
 6554SOL     OW20221   4.864   5.052   1.699
 6554SOL    HW120222   4.887   5.065   1.791
 6554SOL    HW220223   4.803   4.978   1.700
 6555SOL     OW20224   3.932   5.155   0.516
 6555SOL    HW120225   3.959   5.238   0.555
 6555SOL    HW220226   3.879   5.112   0.584
 6556SOL     OW20227   3.980   4.811   0.891
 6556SOL    HW120228   3.978   4.725   0.931
 6556SOL    HW220229   3.923   4.865   0.946
 6557SOL     OW20230   4.354   4.685   0.131
 6557SOL    HW120231   4.303   4.762   0.106
 6557SOL    HW220232   4.403   4.713   0.209
 6558SOL     OW20233   3.839   4.374   0.562
 6558SOL    HW120234   3.808   4.286   0.583
 6558SOL    HW220235   3.830   4.423   0.644
 6559SOL     OW20236   3.702   0.019   0.096
 6559SOL    HW120237   3.719   5.229   0.124
 6559SOL    HW220238   3.731   0.072   0.170
 6560SOL     OW20239   0.114   4.656   0.581
 6560SOL    HW120240   0.206   4.633   0.592
 6560SOL    HW220241   0.116   4.744   0.542
 6561SOL     OW20242   3.847   4.466   1.586
 6561SOL    HW120243   3.939   4.491   1.595
 6561SOL    HW220244   3.799   4.549   1.594
 6562SOL     OW20245   4.345   5.098   0.736
 6562SOL    HW120246   4.291   5.019   0.734
 6562SOL    HW220247   4.327   5.141   0.653
 6563SOL     OW20248   5.019   4.970   1.421
 6563SOL    HW120249   5.048   4.898   1.364
 6563SOL    HW220250   5.067   4.955   1.503
 6564SOL     OW20251   4.539   3.726   0.510
 6564SOL    HW120252   4.578   3.810   0.489
 6564SOL    HW220253   4.445   3.744   0.518
 6565SOL     OW20254   3.915   4.691   1.269
 6565SOL    HW120255   3.999   4.648   1.255
 6565SOL    HW220256   3.851   4.635   1.224
 6566SOL     OW20257   4.056   3.974   1.810
 6566SOL    HW120258   4.101   4.057   1.826
 6566SOL    HW220259   3.967   3.989   1.842
 6567SOL     OW20260   5.178   5.153   0.952
 6567SOL    HW120261   5.110   5.162   1.018
 6567SOL    HW220262   5.164   5.065   0.914
 6568SOL     OW20263   0.051   0.162   0.564
 6568SOL    HW120264   0.090   0.121   0.487
 6568SOL    HW220265   0.039   0.091   0.627
 6569SOL     OW20266   4.321   4.439   0.281
 6569SOL    HW120267   4.341   4.516   0.228
 6569SOL    HW220268   4.257   4.469   0.345
 6570SOL     OW20269   4.996   4.060   0.920
 6570SOL    HW120270   4.908   4.031   0.941
 6570SOL    HW220271   5.051   4.026   0.990
 6571SOL     OW20272   4.515   4.341   1.451
 6571SOL    HW120273   4.489   4.318   1.540
 6571SOL    HW220274   4.474   4.275   1.396
 6572SOL     OW20275   5.115   4.203   1.680
 6572SOL    HW120276   5.116   4.241   1.768
 6572SOL    HW220277   5.191   4.144   1.679
 6573SOL     OW20278   4.679   4.612   1.581
 6573SOL    HW120279   4.732   4.541   1.547
 6573SOL    HW220280   4.631   4.646   1.505
 6574SOL     OW20281   4.715   4.137   1.239
 6574SOL    HW120282   4.630   4.159   1.276
 6574SOL    HW220283   4.695   4.090   1.158
 6575SOL     OW20284   4.776   4.421   0.426
 6575SOL    HW120285   4.791   4.417   0.520
 6575SOL    HW220286   4.693   4.376   0.413
 6576SOL     OW20287   3.813   4.545   0.775
 6576SOL    HW120288   3.894   4.538   0.826
 6576SOL    HW220289   3.769   4.622   0.811
 6577SOL     OW20290   4.608   4.081   0.200
 6577SOL    HW120291   4.653   4.129   0.131
 6577SOL    HW220292   4.609   3.990   0.171
 6578SOL     OW20293   5.091   4.868   0.547
 6578SOL    HW120294   5.179   4.863   0.509
 6578SOL    HW220295   5.043   4.928   0.489
 6579SOL     OW20296   4.273   3.906   0.893
 6579SOL    HW120297   4.276   3.934   0.984
 6579SOL    HW220298   4.276   3.988   0.843
 6580SOL     OW20299   4.742   5.167   0.468
 6580SOL    HW120300   4.666   5.224   0.466
 6580SOL    HW220301   4.765   5.160   0.560
 6581SOL     OW20302   4.939   5.261   1.553
 6581SOL    HW120303   4.915   5.178   1.596
 6581SOL    HW220304   4.903   5.253   1.465
 6582SOL     OW20305   4.052   4.665   0.253
 6582SOL    HW120306   4.122   4.706   0.203
 6582SOL    HW220307   4.051   4.574   0.222
 6583SOL     OW20308   4.188   4.987   1.740
 6583SOL    HW120309   4.161   4.990   1.649
 6583SOL    HW220310   4.106   4.986   1.789
 6584SOL     OW20311   4.873   0.190   0.220
 6584SOL    HW120312   4.797   0.179   0.277
 6584SOL    HW220313   4.846   0.151   0.136
 6585SOL     OW20314   3.924   4.006   1.500
 6585SOL    HW120315   3.843   4.055   1.496
 6585SOL    HW220316   3.908   3.939   1.567
 6586SOL     OW20317   5.118   3.848   0.438
 6586SOL    HW120318   5.101   3.831   0.345
 6586SOL    HW220319   5.213   3.856   0.444
 6587SOL     OW20320   4.110   4.421   0.477
 6587SOL    HW120321   4.135   4.330   0.487
 6587SOL    HW220322   4.017   4.423   0.500
 6588SOL     OW20323   4.353   3.835   0.135
 6588SOL    HW120324   4.448   3.823   0.142
 6588SOL    HW220325   4.333   3.815   0.043
 6589SOL     OW20326   4.490   4.002   1.754
 6589SOL    HW120327   4.566   3.943   1.756
 6589SOL    HW220328   4.442   3.982   1.834
 6590SOL     OW20329   5.058   4.315   1.432
 6590SOL    HW120330   5.091   4.283   1.516
 6590SOL    HW220331   5.100   4.400   1.421
 6591SOL     OW20332   4.535   5.120   0.935
 6591SOL    HW120333   4.616   5.107   0.887
 6591SOL    HW220334   4.467   5.126   0.868
 6592SOL     OW20335   4.651   4.233   0.903
 6592SOL    HW120336   4.627   4.224   0.811
 6592SOL    HW220337   4.683   4.146   0.928
 6593SOL     OW20338   4.273   3.787   0.506
 6593SOL    HW120339   4.192   3.787   0.557
 6593SOL    HW220340   4.267   3.865   0.451
 6594SOL     OW20341   5.130   4.895   0.031
 6594SOL    HW120342   5.151   4.833   0.100
 6594SOL    HW220343   5.048   4.936   0.060
 6595SOL     OW20344   4.034   3.778   0.168
 6595SOL    HW120345   4.098   3.847   0.183
 6595SOL    HW220346   4.071   3.701   0.211
 6596SOL     OW20347   4.661   3.970   0.459
 6596SOL    HW120348   4.633   4.011   0.378
 6596SOL    HW220349   4.756   3.986   0.464
 6597SOL     OW20350   4.801   4.405   1.461
 6597SOL    HW120351   4.734   4.337   1.463
 6597SOL    HW220352   4.883   4.357   1.451
 6598SOL     OW20353   4.981   5.266   0.775
 6598SOL    HW120354   4.955   0.053   0.745
 6598SOL    HW220355   5.037   5.282   0.851
 6599SOL     OW20356   4.188   4.872   0.732
 6599SOL    HW120357   4.120   4.852   0.796
 6599SOL    HW220358   4.148   4.854   0.647
 6600SOL     OW20359   4.759   4.256   0.028
 6600SOL    HW120360   4.711   4.335   0.002
 6600SOL    HW220361   4.818   4.285   0.097
 6601SOL     OW20362   3.802   4.279   1.392
 6601SOL    HW120363   3.894   4.277   1.365
 6601SOL    HW220364   3.798   4.349   1.457
 6602SOL     OW20365   4.284   3.951   1.165
 6602SOL    HW120366   4.325   3.874   1.205
 6602SOL    HW220367   4.193   3.947   1.195
 6603SOL     OW20368   4.591   4.182   0.639
 6603SOL    HW120369   4.549   4.238   0.574
 6603SOL    HW220370   4.613   4.102   0.591
 6604SOL     OW20371   4.739   3.776   0.752
 6604SOL    HW120372   4.680   3.770   0.677
 6604SOL    HW220373   4.717   3.701   0.806
 6605SOL     OW20374   5.152   4.902   0.850
 6605SOL    HW120375   5.100   4.822   0.859
 6605SOL    HW220376   5.172   4.907   0.756
 6606SOL     OW20377   4.191   5.161   0.157
 6606SOL    HW120378   4.143   5.104   0.217
 6606SOL    HW220379   4.227   5.101   0.090
 6607SOL     OW20380   5.124   4.308   0.076
 6607SOL    HW120381   5.066   4.283   0.148
 6607SOL    HW220382   5.195   4.243   0.079
 6608SOL     OW20383   4.242   3.987   0.324
 6608SOL    HW120384   4.291   3.935   0.261
 6608SOL    HW220385   4.230   4.072   0.281
 6609SOL     OW20386   4.787   5.074   1.330
 6609SOL    HW120387   4.709   5.049   1.381
 6609SOL    HW220388   4.860   5.035   1.379
 6610SOL     OW20389   4.847   4.922   1.109
 6610SOL    HW120390   4.796   4.966   1.177
 6610SOL    HW220391   4.806   4.951   1.027
 6611SOL     OW20392   4.642   3.822   1.397
 6611SOL    HW120393   4.664   3.804   1.306
 6611SOL    HW220394   4.721   3.861   1.434
 6612SOL     OW20395   4.706   4.833   1.729
 6612SOL    HW120396   4.613   4.852   1.745
 6612SOL    HW220397   4.705   4.759   1.669
 6613SOL     OW20398   4.433   4.782   0.381
 6613SOL    HW120399   4.418   4.767   0.474
 6613SOL    HW220400   4.512   4.733   0.360
 6614SOL     OW20401   4.142   4.538   1.251
 6614SOL    HW120402   4.211   4.548   1.317
 6614SOL    HW220403   4.107   4.450   1.266
 6615SOL     OW20404   4.989   4.099   1.276
 6615SOL    HW120405   5.024   4.179   1.317
 6615SOL    HW220406   4.900   4.123   1.250
 6616SOL     OW20407   4.068   4.831   0.491
 6616SOL    HW120408   4.072   4.904   0.429
 6616SOL    HW220409   4.078   4.753   0.437
 6617SOL     OW20410   4.277   4.261   0.860
 6617SOL    HW120411   4.293   4.319   0.786
 6617SOL    HW220412   4.342   4.288   0.925
 6618SOL     OW20413   4.981   5.069   0.386
 6618SOL    HW120414   5.033   5.149   0.392
 6618SOL    HW220415   4.893   5.095   0.413
 6619SOL     OW20416   4.979   5.181   1.133
 6619SOL    HW120417   5.034   5.203   1.207
 6619SOL    HW220418   4.940   5.096   1.155
 6620SOL     OW20419   4.072   5.236   1.315
 6620SOL    HW120420   4.061   5.201   1.227
 6620SOL    HW220421   4.165   5.257   1.321
 6621SOL     OW20422   4.138   4.469   1.602
 6621SOL    HW120423   4.199   4.514   1.544
 6621SOL    HW220424   4.178   4.383   1.618
 6622SOL     OW20425   4.718   3.847   1.756
 6622SOL    HW120426   4.774   3.919   1.728
 6622SOL    HW220427   4.766   3.768   1.730
 6623SOL     OW20428   4.222   3.766   1.747
 6623SOL    HW120429   4.180   3.711   1.681
 6623SOL    HW220430   4.162   3.839   1.759
 6624SOL     OW20431   4.306   4.597   1.031
 6624SOL    HW120432   4.338   4.687   1.029
 6624SOL    HW220433   4.251   4.592   1.109
 6625SOL     OW20434   5.085   4.580   1.038
 6625SOL    HW120435   5.010   4.565   0.981
 6625SOL    HW220436   5.137   4.500   1.031
 6626SOL     OW20437   4.932   4.255   0.270
 6626SOL    HW120438   4.935   4.175   0.322
 6626SOL    HW220439   4.886   4.318   0.325
 6627SOL     OW20440   4.023   3.923   1.246
 6627SOL    HW120441   3.986   3.956   1.328
 6627SOL    HW220442   4.004   3.829   1.247
 6628SOL     OW20443   3.776   5.046   1.284
 6628SOL    HW120444   3.801   4.982   1.351
 6628SOL    HW220445   3.811   5.129   1.315
 6629SOL     OW20446   4.448   4.355   1.058
 6629SOL    HW120447   4.523   4.338   1.001
 6629SOL    HW220448   4.421   4.444   1.037
 6630SOL     OW20449   4.026   3.789   0.623
 6630SOL    HW120450   4.008   3.880   0.647
 6630SOL    HW220451   4.033   3.743   0.707
 6631SOL     OW20452   0.045   4.101   0.358
 6631SOL    HW120453   0.062   4.044   0.433
 6631SOL    HW220454   0.016   4.184   0.397
 6632SOL     OW20455   4.750   4.483   0.960
 6632SOL    HW120456   4.750   4.501   1.054
 6632SOL    HW220457   4.725   4.391   0.954
 6633SOL     OW20458   4.077   4.640   1.809
 6633SOL    HW120459   4.159   4.659   1.854
 6633SOL    HW220460   4.101   4.577   1.740
 6634SOL     OW20461   5.027   4.556   0.027
 6634SOL    HW120462   5.060   4.468   0.045
 6634SOL    HW220463   5.060   4.577   8.020
 6635SOL     OW20464   4.781   5.077   0.830
 6635SOL    HW120465   4.788   4.993   0.784
 6635SOL    HW220466   4.866   5.119   0.814
 6636SOL     OW20467   4.033   4.533   0.947
 6636SOL    HW120468   4.126   4.555   0.942
 6636SOL    HW220469   4.031   4.443   0.981
 6637SOL     OW20470   4.056   4.249   1.012
 6637SOL    HW120471   4.021   4.161   0.997
 6637SOL    HW220472   4.132   4.255   0.955
 6638SOL     OW20473   4.856   4.101   1.680
 6638SOL    HW120474   4.809   4.156   1.743
 6638SOL    HW220475   4.944   4.139   1.675
 6639SOL     OW20476   4.885   3.927   1.469
 6639SOL    HW120477   4.874   3.989   1.541
 6639SOL    HW220478   4.923   3.979   1.398
 6640SOL     OW20479   3.734   5.045   0.180
 6640SOL    HW120480   3.646   5.058   0.146
 6640SOL    HW220481   3.733   4.958   0.219
 6641SOL     OW20482   4.708   4.516   1.227
 6641SOL    HW120483   4.763   4.494   1.301
 6641SOL    HW220484   4.622   4.479   1.249
 6642SOL     OW20485   3.760   4.268   1.116
 6642SOL    HW120486   3.841   4.254   1.067
 6642SOL    HW220487   3.788   4.273   1.208
 6643SOL     OW20488   3.915   4.243   1.727
 6643SOL    HW120489   3.973   4.206   1.660
 6643SOL    HW220490   3.872   4.316   1.683
 6644SOL     OW20491   5.111   4.663   1.666
 6644SOL    HW120492   5.119   4.758   1.654
 6644SOL    HW220493   5.114   4.627   1.577
 6645SOL     OW20494   4.542   4.293   0.365
 6645SOL    HW120495   4.550   4.222   0.302
 6645SOL    HW220496   4.466   4.343   0.335
 6646SOL     OW20497   3.929   5.277   1.745
 6646SOL    HW120498   3.918   0.030   1.824
 6646SOL    HW220499   3.942   5.188   1.777
 6647SOL     OW20500   4.422   4.175   1.260
 6647SOL    HW120501   4.371   4.101   1.229
 6647SOL    HW220502   4.420   4.238   1.188
 6648SOL     OW20503   4.192   4.215   0.179
 6648SOL    HW120504   4.258   4.281   0.199
 6648SOL    HW220505   4.109   4.260   0.190
 6649SOL     OW20506   3.869   4.863   1.470
 6649SOL    HW120507   3.872   4.811   1.551
 6649SOL    HW220508   3.887   4.800   1.401
 6650SOL     OW20509   5.051   4.771   1.227
 6650SOL    HW120510   5.076   4.709   1.158
 6650SOL    HW220511   4.980   4.822   1.189
 6651SOL     OW20512   5.022   4.594   0.319
 6651SOL    HW120513   4.945   4.548   0.352
 6651SOL    HW220514   5.024   4.573   0.225
 6652SOL     OW20515   3.817   4.986   1.021
 6652SOL    HW120516   3.796   5.003   1.113
 6652SOL    HW220517   3.737   4.948   0.985
 6653SOL     OW20518   4.469   0.035   1.712
 6653SOL    HW120519   4.377   0.061   1.716
 6653SOL    HW220520   4.499   0.065   1.626
 6654SOL     OW20521   4.629   3.815   0.134
 6654SOL    HW120522   4.650   3.799   0.042
 6654SOL    HW220523   4.692   3.761   0.182
 6655SOL     OW20524   0.083   3.873   0.522
 6655SOL    HW120525   0.174   3.868   0.493
 6655SOL    HW220526   0.074   3.803   0.586
 6656SOL     OW20527   5.016   4.642   0.673
 6656SOL    HW120528   5.094   4.588   0.658
 6656SOL    HW220529   5.033   4.722   0.623
 6657SOL     OW20530   4.544   4.993   1.424
 6657SOL    HW120531   4.515   5.029   1.507
 6657SOL    HW220532   4.469   5.005   1.365
 6658SOL     OW20533   3.987   4.040   0.718
 6658SOL    HW120534   3.901   4.076   0.694
 6658SOL    HW220535   3.984   4.032   0.813
 6659SOL     OW20536   4.858   0.020   0.007
 6659SOL    HW120537   4.883   5.232   0.035
 6659SOL    HW220538   4.866   0.018   7.992
 6660SOL     OW20539   4.549   4.728   1.370
 6660SOL    HW120540   4.595   4.722   1.287
 6660SOL    HW220541   4.552   4.821   1.393
 6661SOL     OW20542   4.642   4.638   0.299
 6661SOL    HW120543   4.697   4.665   0.225
 6661SOL    HW220544   4.690   4.566   0.339
 6662SOL     OW20545   4.089   5.025   1.496
 6662SOL    HW120546   4.079   5.100   1.437
 6662SOL    HW220547   4.014   4.970   1.479
 6663SOL     OW20548   4.776   4.833   0.711
 6663SOL    HW120549   4.705   4.781   0.749
 6663SOL    HW220550   4.833   4.769   0.670
 6664SOL     OW20551   4.739   3.963   0.968
 6664SOL    HW120552   4.738   3.916   0.885
 6664SOL    HW220553   4.736   3.895   1.035
 6665SOL     OW20554   3.988   5.029   0.288
 6665SOL    HW120555   3.906   5.046   0.241
 6665SOL    HW220556   3.980   5.080   0.369
 6666SOL     OW20557   3.836   4.744   1.718
 6666SOL    HW120558   3.760   4.722   1.772
 6666SOL    HW220559   3.911   4.708   1.766
 6667SOL     OW20560   4.398   3.920   1.499
 6667SOL    HW120561   4.482   3.901   1.458
 6667SOL    HW220562   4.421   3.951   1.587
 6668SOL     OW20563   3.782   4.086   0.039
 6668SOL    HW120564   3.707   4.031   0.015
 6668SOL    HW220565   3.828   4.101   8.037
 6669SOL     OW20566   5.163   4.584   1.404
 6669SOL    HW120567   5.110   4.640   1.347
 6669SOL    HW220568   5.252   4.592   1.369
 6670SOL     OW20569   3.795   3.878   0.307
 6670SOL    HW120570   3.779   3.963   0.264
 6670SOL    HW220571   3.879   3.849   0.272
 6671SOL     OW20572   4.907   5.053   0.109
 6671SOL    HW120573   4.811   5.046   0.108
 6671SOL    HW220574   4.929   5.062   0.201
 6672SOL     OW20575   4.343   4.555   1.433
 6672SOL    HW120576   4.399   4.631   1.417
 6672SOL    HW220577   4.403   4.482   1.441
 6673SOL     OW20578   4.441   4.288   1.705
 6673SOL    HW120579   4.481   4.351   1.765
 6673SOL    HW220580   4.471   4.202   1.736
 6674SOL     OW20581   5.184   4.928   1.633
 6674SOL    HW120582   5.174   4.940   1.727
 6674SOL    HW220583   5.279   4.932   1.618
 6675SOL     OW20584   4.934   4.048   0.460
 6675SOL    HW120585   4.997   3.977   0.449
 6675SOL    HW220586   4.964   4.095   0.539
 6676SOL     OW20587   4.313   4.461   0.668
 6676SOL    HW120588   4.353   4.547   0.655
 6676SOL    HW220589   4.244   4.457   0.602
 6677SOL     OW20590   4.633   5.097   0.037
 6677SOL    HW120591   4.572   5.079   0.109
 6677SOL    HW220592   4.587   5.160   8.062
 6678SOL     OW20593   4.591   4.690   0.856
 6678SOL    HW120594   4.642   4.620   0.896
 6678SOL    HW220595   4.558   4.741   0.930
 6679SOL     OW20596   4.801   4.701   0.087
 6679SOL    HW120597   4.787   4.758   0.011
 6679SOL    HW220598   4.883   4.655   0.068
 6680SOL     OW20599   3.947   5.025   1.853
 6680SOL    HW120600   3.878   4.963   1.828
 6680SOL    HW220601   3.936   5.036   1.947
 6681SOL     OW20602   3.810   4.955   0.669
 6681SOL    HW120603   3.808   4.902   0.749
 6681SOL    HW220604   3.879   4.915   0.616
 6682SOL     OW20605   4.393   5.106   1.609
 6682SOL    HW120606   4.318   5.073   1.657
 6682SOL    HW220607   4.424   5.181   1.660
 6683SOL     OW20608   4.149   4.160   0.523
 6683SOL    HW120609   4.182   4.088   0.469
 6683SOL    HW220610   4.105   4.116   0.596
 6684SOL     OW20611   0.123   5.228   1.051
 6684SOL    HW120612   0.038   5.204   1.013
 6684SOL    HW220613   0.106   5.231   1.145
 6685SOL     OW20614   4.053   4.278   1.291
 6685SOL    HW120615   4.109   4.223   1.347
 6685SOL    HW220616   4.073   4.250   1.202
 6686SOL     OW20617   5.148   3.942   1.115
 6686SOL    HW120618   5.193   3.877   1.169
 6686SOL    HW220619   5.102   3.998   1.178
 6687SOL     OW20620   4.730   3.743   1.143
 6687SOL    HW120621   4.677   3.674   1.103
 6687SOL    HW220622   4.818   3.706   1.148
 6688SOL     OW20623   4.518   5.040   0.283
 6688SOL    HW120624   4.463   4.966   0.308
 6688SOL    HW220625   4.577   5.053   0.357
 6689SOL     OW20626   4.346   5.299   1.290
 6689SOL    HW120627   4.353   0.054   1.368
 6689SOL    HW220628   4.436   5.280   1.265
 6690SOL     OW20629   5.052   3.785   0.185
 6690SOL    HW120630   5.095   3.736   0.115
 6690SOL    HW220631   4.974   3.734   0.207
 6691SOL     OW20632   5.028   4.184   0.684
 6691SOL    HW120633   4.974   4.262   0.688
 6691SOL    HW220634   5.017   4.142   0.769
 6692SOL     OW20635   0.000   3.948   0.877
 6692SOL    HW120636   5.236   3.936   0.947
 6692SOL    HW220637   5.277   4.032   0.838
 6693SOL     OW20638   3.765   4.792   0.303
 6693SOL    HW120639   3.860   4.794   0.306
 6693SOL    HW220640   3.741   4.708   0.343
 6694SOL     OW20641   3.954   4.347   1.985
 6694SOL    HW120642   3.864   4.347   2.018
 6694SOL    HW220643   3.945   4.321   1.893
 6695SOL     OW20644   3.949   4.005   2.853
 6695SOL    HW120645   3.977   3.971   2.938
 6695SOL    HW220646   3.859   3.973   2.844
 6696SOL     OW20647   3.729   4.106   2.500
 6696SOL    HW120648   3.646   4.131   2.541
 6696SOL    HW220649   3.708   4.027   2.451
 6697SOL     OW20650   4.290   5.004   3.040
 6697SOL    HW120651   4.205   5.003   2.996
 6697SOL    HW220652   4.302   5.095   3.067
 6698SOL     OW20653   5.276   5.232   2.556
 6698SOL    HW120654   5.264   5.216   2.649
 6698SOL    HW220655   5.187   5.232   2.520
 6699SOL     OW20656   4.857   4.423   2.563
 6699SOL    HW120657   4.908   4.504   2.552
 6699SOL    HW220658   4.809   4.435   2.644
 6700SOL     OW20659   4.481   4.868   2.899
 6700SOL    HW120660   4.413   4.900   2.959
 6700SOL    HW220661   4.510   4.947   2.854
 6701SOL     OW20662   4.591   4.500   3.684
 6701SOL    HW120663   4.574   4.572   3.745
 6701SOL    HW220664   4.613   4.543   3.602
 6702SOL     OW20665   4.410   4.727   2.511
 6702SOL    HW120666   4.475   4.716   2.580
 6702SOL    HW220667   4.341   4.780   2.550
 6703SOL     OW20668   4.433   4.874   3.673
 6703SOL    HW120669   4.481   4.953   3.697
 6703SOL    HW220670   4.349   4.906   3.639
 6704SOL     OW20671   4.061   5.153   2.922
 6704SOL    HW120672   3.984   5.108   2.886
 6704SOL    HW220673   4.102   5.196   2.848
 6705SOL     OW20674   5.132   5.236   3.203
 6705SOL    HW120675   5.152   0.007   3.264
 6705SOL    HW220676   5.110   5.162   3.260
 6706SOL     OW20677   4.172   4.123   3.351
 6706SOL    HW120678   4.247   4.064   3.355
 6706SOL    HW220679   4.096   4.065   3.362
 6707SOL     OW20680   4.864   5.053   3.561
 6707SOL    HW120681   4.887   5.066   3.653
 6707SOL    HW220682   4.803   4.979   3.562
 6708SOL     OW20683   3.934   5.155   2.382
 6708SOL    HW120684   3.959   5.238   2.422
 6708SOL    HW220685   3.882   5.111   2.449
 6709SOL     OW20686   3.981   4.811   2.753
 6709SOL    HW120687   3.978   4.724   2.793
 6709SOL    HW220688   3.923   4.865   2.808
 6710SOL     OW20689   4.311   4.705   1.995
 6710SOL    HW120690   4.356   4.755   1.927
 6710SOL    HW220691   4.350   4.735   2.077
 6711SOL     OW20692   3.839   4.376   2.421
 6711SOL    HW120693   3.810   4.287   2.442
 6711SOL    HW220694   3.831   4.424   2.504
 6712SOL     OW20695   3.710   0.014   1.961
 6712SOL    HW120696   3.727   5.225   1.991
 6712SOL    HW220697   3.733   0.069   2.036
 6713SOL     OW20698   0.112   4.659   2.430
 6713SOL    HW120699   0.199   4.627   2.454
 6713SOL    HW220700   0.127   4.748   2.398
 6714SOL     OW20701   3.847   4.466   3.449
 6714SOL    HW120702   3.939   4.491   3.457
 6714SOL    HW220703   3.799   4.549   3.456
 6715SOL     OW20704   4.345   5.097   2.598
 6715SOL    HW120705   4.291   5.018   2.597
 6715SOL    HW220706   4.326   5.140   2.514
 6716SOL     OW20707   5.020   4.970   3.283
 6716SOL    HW120708   5.048   4.898   3.226
 6716SOL    HW220709   5.067   4.955   3.365
 6717SOL     OW20710   4.538   3.724   2.370
 6717SOL    HW120711   4.578   3.808   2.351
 6717SOL    HW220712   4.444   3.744   2.380
 6718SOL     OW20713   3.915   4.691   3.132
 6718SOL    HW120714   3.999   4.648   3.117
 6718SOL    HW220715   3.851   4.636   3.086
 6719SOL     OW20716   4.056   3.974   3.672
 6719SOL    HW120717   4.102   4.057   3.687
 6719SOL    HW220718   3.967   3.990   3.704
 6720SOL     OW20719   5.178   5.152   2.814
 6720SOL    HW120720   5.110   5.162   2.880
 6720SOL    HW220721   5.164   5.065   2.777
 6721SOL     OW20722   0.046   0.163   2.427
 6721SOL    HW120723   0.087   0.123   2.351
 6721SOL    HW220724   0.036   0.090   2.489
 6722SOL     OW20725   4.320   4.446   2.127
 6722SOL    HW120726   4.327   4.527   2.077
 6722SOL    HW220727   4.255   4.465   2.195
 6723SOL     OW20728   4.996   4.061   2.782
 6723SOL    HW120729   4.908   4.031   2.803
 6723SOL    HW220730   5.051   4.026   2.853
 6724SOL     OW20731   4.515   4.341   3.314
 6724SOL    HW120732   4.489   4.318   3.402
 6724SOL    HW220733   4.474   4.275   3.258
 6725SOL     OW20734   5.115   4.203   3.542
 6725SOL    HW120735   5.116   4.241   3.630
 6725SOL    HW220736   5.191   4.144   3.541
 6726SOL     OW20737   4.679   4.612   3.443
 6726SOL    HW120738   4.732   4.541   3.409
 6726SOL    HW220739   4.631   4.646   3.368
 6727SOL     OW20740   4.715   4.137   3.101
 6727SOL    HW120741   4.629   4.159   3.138
 6727SOL    HW220742   4.695   4.090   3.020
 6728SOL     OW20743   4.774   4.422   2.287
 6728SOL    HW120744   4.790   4.416   2.382
 6728SOL    HW220745   4.692   4.375   2.274
 6729SOL     OW20746   3.812   4.544   2.638
 6729SOL    HW120747   3.893   4.538   2.688
 6729SOL    HW220748   3.769   4.622   2.673
 6730SOL     OW20749   4.615   4.071   2.056
 6730SOL    HW120750   4.656   4.132   1.995
 6730SOL    HW220751   4.632   3.984   2.018
 6731SOL     OW20752   5.091   4.867   2.407
 6731SOL    HW120753   5.181   4.866   2.373
 6731SOL    HW220754   5.045   4.928   2.350
 6732SOL     OW20755   4.273   3.906   2.755
 6732SOL    HW120756   4.276   3.935   2.846
 6732SOL    HW220757   4.275   3.987   2.704
 6733SOL     OW20758   4.746   5.169   2.331
 6733SOL    HW120759   4.668   5.224   2.322
 6733SOL    HW220760   4.760   5.162   2.426
 6734SOL     OW20761   4.940   5.260   3.414
 6734SOL    HW120762   4.916   5.178   3.458
 6734SOL    HW220763   4.902   5.253   3.327
 6735SOL     OW20764   4.045   4.680   2.112
 6735SOL    HW120765   4.127   4.700   2.066
 6735SOL    HW220766   4.014   4.599   2.071
 6736SOL     OW20767   4.188   4.987   3.602
 6736SOL    HW120768   4.161   4.989   3.510
 6736SOL    HW220769   4.106   4.986   3.651
 6737SOL     OW20770   4.791   0.174   2.073
 6737SOL    HW120771   4.803   0.118   2.149
 6737SOL    HW220772   4.868   0.158   2.018
 6738SOL     OW20773   3.924   4.006   3.362
 6738SOL    HW120774   3.843   4.056   3.357
 6738SOL    HW220775   3.908   3.939   3.429
 6739SOL     OW20776   5.122   3.831   2.286
 6739SOL    HW120777   5.101   3.813   2.195
 6739SOL    HW220778   5.216   3.846   2.288
 6740SOL     OW20779   4.116   4.419   2.339
 6740SOL    HW120780   4.137   4.327   2.350
 6740SOL    HW220781   4.022   4.424   2.356
 6741SOL     OW20782   4.357   3.847   1.968
 6741SOL    HW120783   4.429   3.785   1.979
 6741SOL    HW220784   4.309   3.815   1.892
 6742SOL     OW20785   4.490   4.002   3.616
 6742SOL    HW120786   4.566   3.943   3.618
 6742SOL    HW220787   4.442   3.982   3.696
 6743SOL     OW20788   5.058   4.315   3.294
 6743SOL    HW120789   5.091   4.283   3.378
 6743SOL    HW220790   5.100   4.400   3.283
 6744SOL     OW20791   4.535   5.120   2.797
 6744SOL    HW120792   4.616   5.107   2.748
 6744SOL    HW220793   4.467   5.126   2.730
 6745SOL     OW20794   4.651   4.233   2.765
 6745SOL    HW120795   4.628   4.224   2.673
 6745SOL    HW220796   4.683   4.146   2.790
 6746SOL     OW20797   4.272   3.787   2.365
 6746SOL    HW120798   4.192   3.788   2.416
 6746SOL    HW220799   4.267   3.865   2.310
 6747SOL     OW20800   5.137   4.904   1.905
 6747SOL    HW120801   5.147   4.826   1.960
 6747SOL    HW220802   5.048   4.935   1.922
 6748SOL     OW20803   4.016   3.771   2.046
 6748SOL    HW120804   4.075   3.836   2.007
 6748SOL    HW220805   4.075   3.708   2.088
 6749SOL     OW20806   4.661   3.970   2.323
 6749SOL    HW120807   4.633   4.011   2.241
 6749SOL    HW220808   4.756   3.982   2.325
 6750SOL     OW20809   4.801   4.405   3.323
 6750SOL    HW120810   4.734   4.337   3.325
 6750SOL    HW220811   4.883   4.357   3.313
 6751SOL     OW20812   4.984   5.266   2.634
 6751SOL    HW120813   4.950   0.053   2.612
 6751SOL    HW220814   5.037   5.281   2.713
 6752SOL     OW20815   4.189   4.871   2.594
 6752SOL    HW120816   4.120   4.852   2.657
 6752SOL    HW220817   4.150   4.853   2.509
 6753SOL     OW20818   4.748   4.268   1.883
 6753SOL    HW120819   4.705   4.351   1.863
 6753SOL    HW220820   4.810   4.291   1.953
 6754SOL     OW20821   3.802   4.279   3.254
 6754SOL    HW120822   3.894   4.277   3.227
 6754SOL    HW220823   3.798   4.349   3.319
 6755SOL     OW20824   4.284   3.951   3.027
 6755SOL    HW120825   4.325   3.874   3.066
 6755SOL    HW220826   4.193   3.948   3.057
 6756SOL     OW20827   4.593   4.183   2.501
 6756SOL    HW120828   4.546   4.238   2.438
 6756SOL    HW220829   4.613   4.103   2.454
 6757SOL     OW20830   4.739   3.777   2.615
 6757SOL    HW120831   4.681   3.769   2.539
 6757SOL    HW220832   4.717   3.701   2.669
 6758SOL     OW20833   5.152   4.901   2.712
 6758SOL    HW120834   5.100   4.821   2.722
 6758SOL    HW220835   5.170   4.906   2.618
 6759SOL     OW20836   4.206   5.145   2.018
 6759SOL    HW120837   4.142   5.093   2.068
 6759SOL    HW220838   4.205   5.106   1.930
 6760SOL     OW20839   5.127   4.287   1.941
 6760SOL    HW120840   5.055   4.277   2.003
 6760SOL    HW220841   5.202   4.249   1.986
 6761SOL     OW20842   4.250   3.987   2.181
 6761SOL    HW120843   4.293   3.939   2.111
 6761SOL    HW220844   4.228   4.072   2.142
 6762SOL     OW20845   4.787   5.074   3.192
 6762SOL    HW120846   4.709   5.049   3.243
 6762SOL    HW220847   4.860   5.036   3.241
 6763SOL     OW20848   4.847   4.922   2.971
 6763SOL    HW120849   4.797   4.965   3.040
 6763SOL    HW220850   4.805   4.951   2.889
 6764SOL     OW20851   4.642   3.822   3.259
 6764SOL    HW120852   4.664   3.804   3.168
 6764SOL    HW220853   4.721   3.861   3.296
 6765SOL     OW20854   4.706   4.834   3.591
 6765SOL    HW120855   4.613   4.852   3.607
 6765SOL    HW220856   4.705   4.759   3.531
 6766SOL     OW20857   4.428   4.781   2.234
 6766SOL    HW120858   4.417   4.767   2.328
 6766SOL    HW220859   4.506   4.731   2.211
 6767SOL     OW20860   4.142   4.538   3.113
 6767SOL    HW120861   4.211   4.548   3.179
 6767SOL    HW220862   4.107   4.450   3.128
 6768SOL     OW20863   4.989   4.100   3.138
 6768SOL    HW120864   5.024   4.179   3.179
 6768SOL    HW220865   4.900   4.123   3.112
 6769SOL     OW20866   4.072   4.832   2.352
 6769SOL    HW120867   4.076   4.905   2.290
 6769SOL    HW220868   4.072   4.754   2.296
 6770SOL     OW20869   4.277   4.261   2.722
 6770SOL    HW120870   4.293   4.319   2.648
 6770SOL    HW220871   4.342   4.288   2.788
 6771SOL     OW20872   4.985   5.076   2.250
 6771SOL    HW120873   5.037   5.152   2.277
 6771SOL    HW220874   4.895   5.098   2.277
 6772SOL     OW20875   4.979   5.181   2.995
 6772SOL    HW120876   5.034   5.202   3.069
 6772SOL    HW220877   4.940   5.096   3.017
 6773SOL     OW20878   4.072   5.236   3.177
 6773SOL    HW120879   4.061   5.201   3.089
 6773SOL    HW220880   4.165   5.257   3.183
 6774SOL     OW20881   4.138   4.468   3.464
 6774SOL    HW120882   4.199   4.514   3.406
 6774SOL    HW220883   4.178   4.383   3.480
 6775SOL     OW20884   4.718   3.847   3.618
 6775SOL    HW120885   4.774   3.919   3.590
 6775SOL    HW220886   4.766   3.768   3.592
 6776SOL     OW20887   4.222   3.765   3.609
 6776SOL    HW120888   4.180   3.711   3.543
 6776SOL    HW220889   4.162   3.839   3.621
 6777SOL     OW20890   4.307   4.596   2.893
 6777SOL    HW120891   4.337   4.687   2.891
 6777SOL    HW220892   4.251   4.592   2.970
 6778SOL     OW20893   5.086   4.581   2.898
 6778SOL    HW120894   5.009   4.564   2.844
 6778SOL    HW220895   5.136   4.500   2.895
 6779SOL     OW20896   4.929   4.255   2.128
 6779SOL    HW120897   4.936   4.175   2.180
 6779SOL    HW220898   4.886   4.318   2.185
 6780SOL     OW20899   4.023   3.923   3.108
 6780SOL    HW120900   3.986   3.956   3.190
 6780SOL    HW220901   4.004   3.829   3.109
 6781SOL     OW20902   3.775   5.046   3.146
 6781SOL    HW120903   3.801   4.982   3.213
 6781SOL    HW220904   3.811   5.129   3.177
 6782SOL     OW20905   4.448   4.355   2.920
 6782SOL    HW120906   4.523   4.338   2.863
 6782SOL    HW220907   4.421   4.444   2.899
 6783SOL     OW20908   4.026   3.789   2.485
 6783SOL    HW120909   4.008   3.880   2.508
 6783SOL    HW220910   4.033   3.743   2.569
 6784SOL     OW20911   0.035   4.116   2.222
 6784SOL    HW120912   0.056   4.043   2.279
 6784SOL    HW220913   0.016   4.189   2.282
 6785SOL     OW20914   4.751   4.483   2.822
 6785SOL    HW120915   4.750   4.501   2.916
 6785SOL    HW220916   4.725   4.391   2.815
 6786SOL     OW20917   4.077   4.639   3.671
 6786SOL    HW120918   4.159   4.659   3.716
 6786SOL    HW220919   4.101   4.577   3.602
 6787SOL     OW20920   5.027   4.553   1.899
 6787SOL    HW120921   5.065   4.465   1.900
 6787SOL    HW220922   5.054   4.589   1.814
 6788SOL     OW20923   4.781   5.078   2.690
 6788SOL    HW120924   4.788   4.993   2.646
 6788SOL    HW220925   4.866   5.119   2.675
 6789SOL     OW20926   4.033   4.533   2.810
 6789SOL    HW120927   4.126   4.554   2.803
 6789SOL    HW220928   4.031   4.443   2.843
 6790SOL     OW20929   4.056   4.249   2.874
 6790SOL    HW120930   4.021   4.162   2.859
 6790SOL    HW220931   4.132   4.255   2.817
 6791SOL     OW20932   4.856   4.101   3.542
 6791SOL    HW120933   4.809   4.156   3.605
 6791SOL    HW220934   4.944   4.139   3.537
 6792SOL     OW20935   4.885   3.927   3.331
 6792SOL    HW120936   4.874   3.989   3.403
 6792SOL    HW220937   4.923   3.979   3.260
 6793SOL     OW20938   3.730   5.042   2.053
 6793SOL    HW120939   3.640   5.058   2.025
 6793SOL    HW220940   3.728   4.953   2.090
 6794SOL     OW20941   4.708   4.517   3.089
 6794SOL    HW120942   4.763   4.494   3.163
 6794SOL    HW220943   4.622   4.479   3.110
 6795SOL     OW20944   3.760   4.268   2.979
 6795SOL    HW120945   3.840   4.254   2.929
 6795SOL    HW220946   3.788   4.272   3.070
 6796SOL     OW20947   3.915   4.243   3.589
 6796SOL    HW120948   3.973   4.206   3.522
 6796SOL    HW220949   3.872   4.316   3.545
 6797SOL     OW20950   5.111   4.663   3.528
 6797SOL    HW120951   5.119   4.758   3.516
 6797SOL    HW220952   5.114   4.627   3.439
 6798SOL     OW20953   4.540   4.293   2.220
 6798SOL    HW120954   4.543   4.218   2.161
 6798SOL    HW220955   4.466   4.345   2.189
 6799SOL     OW20956   3.929   5.277   3.607
 6799SOL    HW120957   3.918   0.030   3.685
 6799SOL    HW220958   3.942   5.188   3.639
 6800SOL     OW20959   4.422   4.175   3.122
 6800SOL    HW120960   4.371   4.101   3.091
 6800SOL    HW220961   4.420   4.238   3.050
 6801SOL     OW20962   4.189   4.217   2.050
 6801SOL    HW120963   4.247   4.290   2.071
 6801SOL    HW220964   4.103   4.257   2.037
 6802SOL     OW20965   3.869   4.863   3.333
 6802SOL    HW120966   3.872   4.811   3.413
 6802SOL    HW220967   3.887   4.800   3.263
 6803SOL     OW20968   5.051   4.771   3.089
 6803SOL    HW120969   5.076   4.709   3.020
 6803SOL    HW220970   4.980   4.822   3.051
 6804SOL     OW20971   5.033   4.584   2.178
 6804SOL    HW120972   4.951   4.550   2.215
 6804SOL    HW220973   5.023   4.575   2.084
 6805SOL     OW20974   3.817   4.986   2.883
 6805SOL    HW120975   3.795   5.003   2.975
 6805SOL    HW220976   3.737   4.947   2.847
 6806SOL     OW20977   4.469   0.035   3.574
 6806SOL    HW120978   4.377   0.061   3.578
 6806SOL    HW220979   4.499   0.065   3.488
 6807SOL     OW20980   0.083   3.883   2.391
 6807SOL    HW120981   0.168   3.871   2.348
 6807SOL    HW220982   0.070   3.802   2.441
 6808SOL     OW20983   5.016   4.643   2.535
 6808SOL    HW120984   5.093   4.588   2.522
 6808SOL    HW220985   5.034   4.722   2.485
 6809SOL     OW20986   4.544   4.993   3.285
 6809SOL    HW120987   4.515   5.029   3.369
 6809SOL    HW220988   4.469   5.005   3.227
 6810SOL     OW20989   3.987   4.040   2.579
 6810SOL    HW120990   3.901   4.076   2.555
 6810SOL    HW220991   3.983   4.032   2.674
 6811SOL     OW20992   4.549   4.728   3.232
 6811SOL    HW120993   4.595   4.722   3.149
 6811SOL    HW220994   4.552   4.821   3.255
 6812SOL     OW20995   4.640   4.635   2.153
 6812SOL    HW120996   4.702   4.668   2.087
 6812SOL    HW220997   4.687   4.564   2.196
 6813SOL     OW20998   4.089   5.025   3.358
 6813SOL    HW120999   4.079   5.100   3.299
 6813SOL    HW221000   4.014   4.969   3.341
 6814SOL     OW21001   4.776   4.833   2.573
 6814SOL    HW121002   4.705   4.782   2.611
 6814SOL    HW221003   4.834   4.767   2.533
 6815SOL     OW21004   4.739   3.963   2.830
 6815SOL    HW121005   4.737   3.916   2.747
 6815SOL    HW221006   4.736   3.895   2.897
 6816SOL     OW21007   3.981   5.053   2.144
 6816SOL    HW121008   3.890   5.055   2.117
 6816SOL    HW221009   3.983   5.095   2.230
 6817SOL     OW21010   3.836   4.744   3.580
 6817SOL    HW121011   3.760   4.721   3.634
 6817SOL    HW221012   3.911   4.708   3.628
 6818SOL     OW21013   4.398   3.920   3.361
 6818SOL    HW121014   4.482   3.901   3.319
 6818SOL    HW221015   4.421   3.951   3.449
 6819SOL     OW21016   3.802   4.058   1.897
 6819SOL    HW121017   3.715   4.039   1.863
 6819SOL    HW221018   3.832   4.133   1.845
 6820SOL     OW21019   5.163   4.584   3.266
 6820SOL    HW121020   5.111   4.640   3.209
 6820SOL    HW221021   5.252   4.591   3.231
 6821SOL     OW21022   3.793   3.881   2.173
 6821SOL    HW121023   3.778   3.961   2.122
 6821SOL    HW221024   3.878   3.848   2.143
 6822SOL     OW21025   4.909   5.059   1.983
 6822SOL    HW121026   4.815   5.041   1.981
 6822SOL    HW221027   4.933   5.055   2.075
 6823SOL     OW21028   4.343   4.555   3.295
 6823SOL    HW121029   4.399   4.631   3.279
 6823SOL    HW221030   4.403   4.481   3.303
 6824SOL     OW21031   4.441   4.288   3.567
 6824SOL    HW121032   4.481   4.351   3.627
 6824SOL    HW221033   4.471   4.202   3.598
 6825SOL     OW21034   5.184   4.928   3.495
 6825SOL    HW121035   5.174   4.940   3.589
 6825SOL    HW221036   5.279   4.932   3.480
 6826SOL     OW21037   4.940   4.044   2.318
 6826SOL    HW121038   5.003   3.972   2.305
 6826SOL    HW221039   4.970   4.088   2.398
 6827SOL     OW21040   4.315   4.462   2.531
 6827SOL    HW121041   4.353   4.548   2.516
 6827SOL    HW221042   4.246   4.455   2.464
 6828SOL     OW21043   4.580   5.095   1.881
 6828SOL    HW121044   4.556   5.098   1.974
 6828SOL    HW221045   4.591   5.187   1.856
 6829SOL     OW21046   4.592   4.691   2.718
 6829SOL    HW121047   4.641   4.620   2.758
 6829SOL    HW221048   4.557   4.741   2.792
 6830SOL     OW21049   4.808   4.712   1.954
 6830SOL    HW121050   4.781   4.760   1.875
 6830SOL    HW221051   4.882   4.658   1.925
 6831SOL     OW21052   3.947   5.025   3.715
 6831SOL    HW121053   3.878   4.963   3.690
 6831SOL    HW221054   3.936   5.036   3.809
 6832SOL     OW21055   3.809   4.956   2.532
 6832SOL    HW121056   3.809   4.903   2.611
 6832SOL    HW221057   3.873   4.914   2.475
 6833SOL     OW21058   4.393   5.106   3.471
 6833SOL    HW121059   4.318   5.073   3.519
 6833SOL    HW221060   4.424   5.181   3.522
 6834SOL     OW21061   4.154   4.158   2.387
 6834SOL    HW121062   4.183   4.087   2.330
 6834SOL    HW221063   4.106   4.114   2.458
 6835SOL     OW21064   0.123   5.228   2.912
 6835SOL    HW121065   0.038   5.204   2.875
 6835SOL    HW221066   0.107   5.234   3.006
 6836SOL     OW21067   4.053   4.278   3.153
 6836SOL    HW121068   4.109   4.223   3.208
 6836SOL    HW221069   4.073   4.251   3.064
 6837SOL     OW21070   5.147   3.942   2.977
 6837SOL    HW121071   5.194   3.878   3.030
 6837SOL    HW221072   5.102   3.998   3.040
 6838SOL     OW21073   4.730   3.743   3.005
 6838SOL    HW121074   4.677   3.674   2.965
 6838SOL    HW221075   4.818   3.706   3.009
 6839SOL     OW21076   4.526   5.047   2.146
 6839SOL    HW121077   4.464   4.976   2.165
 6839SOL    HW221078   4.580   5.052   2.224
 6840SOL     OW21079   4.346   5.299   3.152
 6840SOL    HW121080   4.353   0.054   3.230
 6840SOL    HW221081   4.436   5.280   3.128
 6841SOL     OW21082   5.059   3.770   2.030
 6841SOL    HW121083   5.084   3.730   1.947
 6841SOL    HW221084   4.974   3.731   2.051
 6842SOL     OW21085   5.028   4.182   2.545
 6842SOL    HW121086   4.973   4.260   2.549
 6842SOL    HW221087   5.017   4.141   2.631
 6843SOL     OW21088   0.002   3.948   2.741
 6843SOL    HW121089   5.236   3.938   2.809
 6843SOL    HW221090   5.278   4.029   2.696
 6844SOL     OW21091   3.766   4.795   2.169
 6844SOL    HW121092   3.860   4.789   2.152
 6844SOL    HW221093   3.739   4.706   2.191
 6845SOL     OW21094   3.954   4.347   3.847
 6845SOL    HW121095   3.864   4.347   3.880
 6845SOL    HW221096   3.945   4.322   3.755
 6846SOL     OW21097   3.949   4.005   4.715
 6846SOL    HW121098   3.977   3.971   4.800
 6846SOL    HW221099   3.859   3.973   4.706
 6847SOL     OW21100   3.729   4.106   4.362
 6847SOL    HW121101   3.646   4.131   4.403
 6847SOL    HW221102   3.708   4.027   4.313
 6848SOL     OW21103   4.290   5.004   4.902
 6848SOL    HW121104   4.204   5.003   4.858
 6848SOL    HW221105   4.302   5.095   4.929
 6849SOL     OW21106   5.276   5.232   4.418
 6849SOL    HW121107   5.264   5.216   4.511
 6849SOL    HW221108   5.187   5.232   4.382
 6850SOL     OW21109   4.857   4.423   4.425
 6850SOL    HW121110   4.908   4.504   4.414
 6850SOL    HW221111   4.809   4.435   4.506
 6851SOL     OW21112   4.481   4.868   4.761
 6851SOL    HW121113   4.413   4.900   4.821
 6851SOL    HW221114   4.510   4.947   4.716
 6852SOL     OW21115   4.591   4.500   5.546
 6852SOL    HW121116   4.574   4.572   5.607
 6852SOL    HW221117   4.613   4.543   5.464
 6853SOL     OW21118   4.410   4.727   4.373
 6853SOL    HW121119   4.475   4.716   4.442
 6853SOL    HW221120   4.341   4.780   4.412
 6854SOL     OW21121   4.433   4.874   5.535
 6854SOL    HW121122   4.481   4.953   5.559
 6854SOL    HW221123   4.349   4.906   5.501
 6855SOL     OW21124   4.061   5.153   4.784
 6855SOL    HW121125   3.984   5.108   4.747
 6855SOL    HW221126   4.102   5.196   4.710
 6856SOL     OW21127   5.132   5.236   5.065
 6856SOL    HW121128   5.152   0.007   5.126
 6856SOL    HW221129   5.110   5.162   5.122
 6857SOL     OW21130   4.172   4.122   5.213
 6857SOL    HW121131   4.247   4.064   5.217
 6857SOL    HW221132   4.096   4.065   5.224
 6858SOL     OW21133   4.864   5.053   5.423
 6858SOL    HW121134   4.887   5.066   5.515
 6858SOL    HW221135   4.803   4.979   5.424
 6859SOL     OW21136   3.934   5.155   4.244
 6859SOL    HW121137   3.959   5.238   4.284
 6859SOL    HW221138   3.881   5.111   4.311
 6860SOL     OW21139   3.980   4.811   4.615
 6860SOL    HW121140   3.978   4.724   4.655
 6860SOL    HW221141   3.923   4.865   4.670
 6861SOL     OW21142   4.311   4.705   3.857
 6861SOL    HW121143   4.356   4.755   3.789
 6861SOL    HW221144   4.350   4.735   3.939
 6862SOL     OW21145   3.839   4.376   4.283
 6862SOL    HW121146   3.810   4.287   4.305
 6862SOL    HW221147   3.831   4.424   4.366
 6863SOL     OW21148   3.710   0.014   3.823
 6863SOL    HW121149   3.727   5.225   3.853
 6863SOL    HW221150   3.732   0.069   3.898
 6864SOL     OW21151   0.112   4.659   4.292
 6864SOL    HW121152   0.199   4.627   4.316
 6864SOL    HW221153   0.127   4.748   4.261
 6865SOL     OW21154   3.847   4.466   5.310
 6865SOL    HW121155   3.939   4.491   5.319
 6865SOL    HW221156   3.799   4.549   5.318
 6866SOL     OW21157   4.345   5.097   4.460
 6866SOL    HW121158   4.291   5.018   4.459
 6866SOL    HW221159   4.326   5.140   4.376
 6867SOL     OW21160   5.020   4.970   5.145
 6867SOL    HW121161   5.048   4.898   5.088
 6867SOL    HW221162   5.067   4.955   5.227
 6868SOL     OW21163   4.538   3.724   4.232
 6868SOL    HW121164   4.578   3.808   4.213
 6868SOL    HW221165   4.444   3.744   4.242
 6869SOL     OW21166   3.915   4.691   4.993
 6869SOL    HW121167   3.999   4.648   4.979
 6869SOL    HW221168   3.851   4.635   4.948
 6870SOL     OW21169   4.056   3.974   5.533
 6870SOL    HW121170   4.102   4.057   5.550
 6870SOL    HW221171   3.967   3.989   5.566
 6871SOL     OW21172   5.178   5.152   4.676
 6871SOL    HW121173   5.110   5.162   4.742
 6871SOL    HW221174   5.164   5.065   4.639
 6872SOL     OW21175   0.046   0.163   4.289
 6872SOL    HW121176   0.087   0.123   4.213
 6872SOL    HW221177   0.036   0.090   4.351
 6873SOL     OW21178   4.320   4.446   3.989
 6873SOL    HW121179   4.327   4.527   3.939
 6873SOL    HW221180   4.255   4.465   4.057
 6874SOL     OW21181   4.996   4.061   4.644
 6874SOL    HW121182   4.908   4.031   4.665
 6874SOL    HW221183   5.051   4.026   4.714
 6875SOL     OW21184   4.515   4.341   5.175
 6875SOL    HW121185   4.489   4.318   5.265
 6875SOL    HW221186   4.474   4.275   5.120
 6876SOL     OW21187   5.115   4.203   5.404
 6876SOL    HW121188   5.116   4.241   5.492
 6876SOL    HW221189   5.191   4.144   5.403
 6877SOL     OW21190   4.679   4.612   5.305
 6877SOL    HW121191   4.732   4.541   5.271
 6877SOL    HW221192   4.631   4.646   5.230
 6878SOL     OW21193   4.715   4.137   4.963
 6878SOL    HW121194   4.629   4.159   5.000
 6878SOL    HW221195   4.695   4.090   4.882
 6879SOL     OW21196   4.774   4.422   4.149
 6879SOL    HW121197   4.790   4.416   4.244
 6879SOL    HW221198   4.692   4.375   4.136
 6880SOL     OW21199   3.812   4.544   4.500
 6880SOL    HW121200   3.893   4.538   4.550
 6880SOL    HW221201   3.769   4.622   4.535
 6881SOL     OW21202   4.615   4.071   3.918
 6881SOL    HW121203   4.656   4.132   3.857
 6881SOL    HW221204   4.632   3.984   3.881
 6882SOL     OW21205   5.091   4.867   4.269
 6882SOL    HW121206   5.181   4.866   4.236
 6882SOL    HW221207   5.045   4.928   4.212
 6883SOL     OW21208   4.273   3.906   4.617
 6883SOL    HW121209   4.276   3.935   4.708
 6883SOL    HW221210   4.275   3.988   4.566
 6884SOL     OW21211   4.746   5.169   4.193
 6884SOL    HW121212   4.668   5.224   4.184
 6884SOL    HW221213   4.760   5.163   4.288
 6885SOL     OW21214   4.940   5.260   5.276
 6885SOL    HW121215   4.916   5.178   5.320
 6885SOL    HW221216   4.901   5.253   5.189
 6886SOL     OW21217   4.045   4.680   3.974
 6886SOL    HW121218   4.127   4.700   3.928
 6886SOL    HW221219   4.014   4.599   3.933
 6887SOL     OW21220   4.188   4.987   5.464
 6887SOL    HW121221   4.161   4.989   5.372
 6887SOL    HW221222   4.106   4.986   5.513
 6888SOL     OW21223   4.791   0.174   3.935
 6888SOL    HW121224   4.803   0.118   4.011
 6888SOL    HW221225   4.868   0.158   3.880
 6889SOL     OW21226   3.924   4.005   5.224
 6889SOL    HW121227   3.843   4.056   5.220
 6889SOL    HW221228   3.908   3.940   5.292
 6890SOL     OW21229   5.121   3.831   4.148
 6890SOL    HW121230   5.101   3.813   4.056
 6890SOL    HW221231   5.216   3.846   4.150
 6891SOL     OW21232   4.116   4.419   4.201
 6891SOL    HW121233   4.137   4.327   4.212
 6891SOL    HW221234   4.022   4.425   4.218
 6892SOL     OW21235   4.357   3.847   3.830
 6892SOL    HW121236   4.429   3.785   3.841
 6892SOL    HW221237   4.309   3.815   3.754
 6893SOL     OW21238   4.490   4.002   5.478
 6893SOL    HW121239   4.566   3.943   5.480
 6893SOL    HW221240   4.442   3.982   5.558
 6894SOL     OW21241   5.058   4.315   5.156
 6894SOL    HW121242   5.091   4.283   5.240
 6894SOL    HW221243   5.100   4.400   5.145
 6895SOL     OW21244   4.535   5.120   4.659
 6895SOL    HW121245   4.616   5.107   4.610
 6895SOL    HW221246   4.467   5.126   4.592
 6896SOL     OW21247   4.651   4.233   4.627
 6896SOL    HW121248   4.628   4.224   4.535
 6896SOL    HW221249   4.683   4.146   4.652
 6897SOL     OW21250   4.272   3.787   4.227
 6897SOL    HW121251   4.192   3.788   4.279
 6897SOL    HW221252   4.267   3.865   4.172
 6898SOL     OW21253   5.137   4.904   3.767
 6898SOL    HW121254   5.147   4.826   3.822
 6898SOL    HW221255   5.048   4.935   3.784
 6899SOL     OW21256   4.016   3.771   3.908
 6899SOL    HW121257   4.075   3.836   3.869
 6899SOL    HW221258   4.074   3.708   3.950
 6900SOL     OW21259   4.661   3.970   4.185
 6900SOL    HW121260   4.633   4.011   4.103
 6900SOL    HW221261   4.756   3.982   4.187
 6901SOL     OW21262   4.801   4.405   5.185
 6901SOL    HW121263   4.734   4.337   5.187
 6901SOL    HW221264   4.883   4.357   5.175
 6902SOL     OW21265   4.984   5.266   4.496
 6902SOL    HW121266   4.950   0.053   4.474
 6902SOL    HW221267   5.037   5.281   4.575
 6903SOL     OW21268   4.189   4.871   4.456
 6903SOL    HW121269   4.120   4.852   4.519
 6903SOL    HW221270   4.149   4.853   4.370
 6904SOL     OW21271   4.748   4.268   3.745
 6904SOL    HW121272   4.705   4.351   3.725
 6904SOL    HW221273   4.810   4.291   3.815
 6905SOL     OW21274   3.802   4.279   5.116
 6905SOL    HW121275   3.894   4.277   5.089
 6905SOL    HW221276   3.798   4.349   5.181
 6906SOL     OW21277   4.284   3.951   4.889
 6906SOL    HW121278   4.325   3.874   4.928
 6906SOL    HW221279   4.193   3.947   4.919
 6907SOL     OW21280   4.592   4.183   4.363
 6907SOL    HW121281   4.546   4.238   4.300
 6907SOL    HW221282   4.613   4.103   4.316
 6908SOL     OW21283   4.738   3.777   4.477
 6908SOL    HW121284   4.681   3.769   4.401
 6908SOL    HW221285   4.717   3.701   4.531
 6909SOL     OW21286   5.152   4.901   4.574
 6909SOL    HW121287   5.100   4.821   4.584
 6909SOL    HW221288   5.170   4.906   4.480
 6910SOL     OW21289   4.206   5.145   3.880
 6910SOL    HW121290   4.142   5.093   3.930
 6910SOL    HW221291   4.204   5.106   3.792
 6911SOL     OW21292   5.127   4.287   3.803
 6911SOL    HW121293   5.055   4.277   3.866
 6911SOL    HW221294   5.203   4.249   3.848
 6912SOL     OW21295   4.249   3.987   4.043
 6912SOL    HW121296   4.293   3.938   3.973
 6912SOL    HW221297   4.228   4.072   4.004
 6913SOL     OW21298   4.787   5.074   5.054
 6913SOL    HW121299   4.709   5.049   5.105
 6913SOL    HW221300   4.860   5.036   5.103
 6914SOL     OW21301   4.847   4.922   4.833
 6914SOL    HW121302   4.797   4.965   4.902
 6914SOL    HW221303   4.805   4.951   4.751
 6915SOL     OW21304   4.642   3.822   5.121
 6915SOL    HW121305   4.664   3.804   5.030
 6915SOL    HW221306   4.721   3.861   5.158
 6916SOL     OW21307   4.706   4.834   5.453
 6916SOL    HW121308   4.613   4.852   5.469
 6916SOL    HW221309   4.705   4.759   5.393
 6917SOL     OW21310   4.428   4.781   4.096
 6917SOL    HW121311   4.417   4.767   4.190
 6917SOL    HW221312   4.506   4.731   4.073
 6918SOL     OW21313   4.142   4.538   4.975
 6918SOL    HW121314   4.211   4.548   5.041
 6918SOL    HW221315   4.107   4.450   4.990
 6919SOL     OW21316   4.989   4.100   5.000
 6919SOL    HW121317   5.024   4.179   5.041
 6919SOL    HW221318   4.900   4.123   4.974
 6920SOL     OW21319   4.072   4.832   4.214
 6920SOL    HW121320   4.076   4.905   4.152
 6920SOL    HW221321   4.072   4.754   4.158
 6921SOL     OW21322   4.277   4.261   4.584
 6921SOL    HW121323   4.293   4.319   4.510
 6921SOL    HW221324   4.342   4.288   4.649
 6922SOL     OW21325   4.985   5.076   4.111
 6922SOL    HW121326   5.037   5.152   4.139
 6922SOL    HW221327   4.895   5.098   4.139
 6923SOL     OW21328   4.979   5.181   4.857
 6923SOL    HW121329   5.034   5.202   4.931
 6923SOL    HW221330   4.940   5.096   4.879
 6924SOL     OW21331   4.072   5.236   5.039
 6924SOL    HW121332   4.061   5.201   4.951
 6924SOL    HW221333   4.165   5.257   5.045
 6925SOL     OW21334   4.138   4.468   5.326
 6925SOL    HW121335   4.199   4.514   5.268
 6925SOL    HW221336   4.178   4.383   5.342
 6926SOL     OW21337   4.718   3.847   5.480
 6926SOL    HW121338   4.774   3.919   5.452
 6926SOL    HW221339   4.766   3.768   5.454
 6927SOL     OW21340   4.222   3.766   5.471
 6927SOL    HW121341   4.180   3.711   5.405
 6927SOL    HW221342   4.162   3.839   5.483
 6928SOL     OW21343   4.307   4.596   4.755
 6928SOL    HW121344   4.337   4.687   4.753
 6928SOL    HW221345   4.251   4.592   4.832
 6929SOL     OW21346   5.086   4.581   4.760
 6929SOL    HW121347   5.009   4.564   4.706
 6929SOL    HW221348   5.136   4.500   4.757
 6930SOL     OW21349   4.929   4.255   3.990
 6930SOL    HW121350   4.936   4.175   4.042
 6930SOL    HW221351   4.886   4.318   4.047
 6931SOL     OW21352   4.023   3.923   4.970
 6931SOL    HW121353   3.986   3.956   5.052
 6931SOL    HW221354   4.003   3.829   4.971
 6932SOL     OW21355   3.775   5.046   5.008
 6932SOL    HW121356   3.801   4.982   5.075
 6932SOL    HW221357   3.811   5.129   5.039
 6933SOL     OW21358   4.448   4.355   4.782
 6933SOL    HW121359   4.523   4.338   4.725
 6933SOL    HW221360   4.421   4.444   4.761
 6934SOL     OW21361   4.026   3.789   4.347
 6934SOL    HW121362   4.008   3.880   4.371
 6934SOL    HW221363   4.034   3.743   4.431
 6935SOL     OW21364   0.035   4.116   4.084
 6935SOL    HW121365   0.056   4.043   4.141
 6935SOL    HW221366   0.016   4.189   4.144
 6936SOL     OW21367   4.751   4.483   4.684
 6936SOL    HW121368   4.750   4.501   4.778
 6936SOL    HW221369   4.725   4.391   4.677
 6937SOL     OW21370   4.077   4.640   5.533
 6937SOL    HW121371   4.159   4.659   5.578
 6937SOL    HW221372   4.101   4.577   5.464
 6938SOL     OW21373   5.027   4.553   3.761
 6938SOL    HW121374   5.065   4.465   3.762
 6938SOL    HW221375   5.054   4.589   3.676
 6939SOL     OW21376   4.781   5.078   4.552
 6939SOL    HW121377   4.788   4.993   4.508
 6939SOL    HW221378   4.866   5.119   4.537
 6940SOL     OW21379   4.033   4.533   4.672
 6940SOL    HW121380   4.126   4.555   4.665
 6940SOL    HW221381   4.031   4.443   4.705
 6941SOL     OW21382   4.056   4.249   4.736
 6941SOL    HW121383   4.021   4.162   4.721
 6941SOL    HW221384   4.132   4.255   4.679
 6942SOL     OW21385   4.856   4.101   5.404
 6942SOL    HW121386   4.809   4.156   5.467
 6942SOL    HW221387   4.944   4.139   5.399
 6943SOL     OW21388   4.885   3.927   5.193
 6943SOL    HW121389   4.874   3.989   5.265
 6943SOL    HW221390   4.923   3.979   5.122
 6944SOL     OW21391   3.730   5.042   3.915
 6944SOL    HW121392   3.640   5.058   3.887
 6944SOL    HW221393   3.728   4.953   3.952
 6945SOL     OW21394   4.708   4.517   4.951
 6945SOL    HW121395   4.763   4.494   5.025
 6945SOL    HW221396   4.622   4.479   4.972
 6946SOL     OW21397   3.760   4.267   4.841
 6946SOL    HW121398   3.840   4.254   4.791
 6946SOL    HW221399   3.788   4.272   4.932
 6947SOL     OW21400   3.915   4.243   5.450
 6947SOL    HW121401   3.973   4.207   5.384
 6947SOL    HW221402   3.872   4.316   5.407
 6948SOL     OW21403   5.111   4.663   5.390
 6948SOL    HW121404   5.119   4.758   5.378
 6948SOL    HW221405   5.114   4.627   5.301
 6949SOL     OW21406   4.540   4.293   4.082
 6949SOL    HW121407   4.543   4.218   4.023
 6949SOL    HW221408   4.466   4.345   4.051
 6950SOL     OW21409   3.929   5.277   5.469
 6950SOL    HW121410   3.918   0.030   5.547
 6950SOL    HW221411   3.942   5.188   5.501
 6951SOL     OW21412   4.422   4.175   4.984
 6951SOL    HW121413   4.371   4.101   4.953
 6951SOL    HW221414   4.420   4.238   4.912
 6952SOL     OW21415   4.189   4.217   3.912
 6952SOL    HW121416   4.247   4.290   3.933
 6952SOL    HW221417   4.103   4.257   3.899
 6953SOL     OW21418   3.869   4.863   5.195
 6953SOL    HW121419   3.872   4.811   5.275
 6953SOL    HW221420   3.887   4.800   5.125
 6954SOL     OW21421   5.051   4.771   4.951
 6954SOL    HW121422   5.076   4.709   4.882
 6954SOL    HW221423   4.980   4.822   4.913
 6955SOL     OW21424   5.033   4.584   4.040
 6955SOL    HW121425   4.951   4.550   4.077
 6955SOL    HW221426   5.023   4.575   3.945
 6956SOL     OW21427   3.817   4.986   4.745
 6956SOL    HW121428   3.795   5.003   4.837
 6956SOL    HW221429   3.737   4.948   4.709
 6957SOL     OW21430   4.469   0.035   5.436
 6957SOL    HW121431   4.377   0.061   5.440
 6957SOL    HW221432   4.499   0.065   5.350
 6958SOL     OW21433   0.083   3.883   4.253
 6958SOL    HW121434   0.167   3.871   4.210
 6958SOL    HW221435   0.070   3.802   4.303
 6959SOL     OW21436   5.016   4.643   4.397
 6959SOL    HW121437   5.093   4.588   4.384
 6959SOL    HW221438   5.034   4.722   4.347
 6960SOL     OW21439   4.544   4.993   5.147
 6960SOL    HW121440   4.515   5.029   5.231
 6960SOL    HW221441   4.469   5.005   5.089
 6961SOL     OW21442   3.987   4.040   4.441
 6961SOL    HW121443   3.901   4.076   4.417
 6961SOL    HW221444   3.983   4.032   4.537
 6962SOL     OW21445   4.549   4.728   5.094
 6962SOL    HW121446   4.595   4.722   5.011
 6962SOL    HW221447   4.552   4.821   5.117
 6963SOL     OW21448   4.640   4.635   4.014
 6963SOL    HW121449   4.702   4.668   3.949
 6963SOL    HW221450   4.687   4.564   4.058
 6964SOL     OW21451   4.089   5.025   5.220
 6964SOL    HW121452   4.079   5.100   5.161
 6964SOL    HW221453   4.014   4.970   5.203
 6965SOL     OW21454   4.776   4.833   4.435
 6965SOL    HW121455   4.705   4.782   4.473
 6965SOL    HW221456   4.834   4.767   4.395
 6966SOL     OW21457   4.739   3.963   4.692
 6966SOL    HW121458   4.737   3.916   4.609
 6966SOL    HW221459   4.736   3.895   4.759
 6967SOL     OW21460   3.982   5.053   4.006
 6967SOL    HW121461   3.890   5.055   3.979
 6967SOL    HW221462   3.983   5.095   4.092
 6968SOL     OW21463   3.836   4.744   5.442
 6968SOL    HW121464   3.760   4.721   5.496
 6968SOL    HW221465   3.911   4.708   5.490
 6969SOL     OW21466   4.398   3.920   5.223
 6969SOL    HW121467   4.482   3.901   5.181
 6969SOL    HW221468   4.421   3.951   5.311
 6970SOL     OW21469   3.802   4.059   3.759
 6970SOL    HW121470   3.715   4.039   3.724
 6970SOL    HW221471   3.832   4.133   3.708
 6971SOL     OW21472   5.163   4.584   5.128
 6971SOL    HW121473   5.111   4.641   5.071
 6971SOL    HW221474   5.252   4.592   5.093
 6972SOL     OW21475   3.793   3.881   4.035
 6972SOL    HW121476   3.779   3.961   3.984
 6972SOL    HW221477   3.878   3.848   4.006
 6973SOL     OW21478   4.909   5.059   3.845
 6973SOL    HW121479   4.815   5.041   3.843
 6973SOL    HW221480   4.933   5.055   3.937
 6974SOL     OW21481   4.343   4.555   5.157
 6974SOL    HW121482   4.399   4.631   5.141
 6974SOL    HW221483   4.403   4.482   5.165
 6975SOL     OW21484   4.441   4.288   5.429
 6975SOL    HW121485   4.481   4.351   5.489
 6975SOL    HW221486   4.471   4.202   5.460
 6976SOL     OW21487   5.184   4.928   5.357
 6976SOL    HW121488   5.174   4.940   5.451
 6976SOL    HW221489   5.279   4.932   5.342
 6977SOL     OW21490   4.940   4.044   4.180
 6977SOL    HW121491   5.003   3.972   4.167
 6977SOL    HW221492   4.970   4.088   4.260
 6978SOL     OW21493   4.315   4.462   4.393
 6978SOL    HW121494   4.353   4.548   4.378
 6978SOL    HW221495   4.246   4.455   4.326
 6979SOL     OW21496   4.580   5.095   3.743
 6979SOL    HW121497   4.556   5.098   3.836
 6979SOL    HW221498   4.591   5.187   3.718
 6980SOL     OW21499   4.592   4.691   4.580
 6980SOL    HW121500   4.641   4.620   4.620
 6980SOL    HW221501   4.557   4.741   4.654
 6981SOL     OW21502   4.808   4.712   3.816
 6981SOL    HW121503   4.781   4.760   3.737
 6981SOL    HW221504   4.882   4.658   3.787
 6982SOL     OW21505   3.947   5.025   5.577
 6982SOL    HW121506   3.878   4.963   5.552
 6982SOL    HW221507   3.936   5.037   5.671
 6983SOL     OW21508   3.809   4.956   4.394
 6983SOL    HW121509   3.809   4.903   4.473
 6983SOL    HW221510   3.873   4.914   4.337
 6984SOL     OW21511   4.393   5.106   5.333
 6984SOL    HW121512   4.318   5.073   5.381
 6984SOL    HW221513   4.424   5.181   5.384
 6985SOL     OW21514   4.153   4.158   4.249
 6985SOL    HW121515   4.183   4.087   4.192
 6985SOL    HW221516   4.106   4.114   4.320
 6986SOL     OW21517   0.123   5.228   4.774
 6986SOL    HW121518   0.038   5.204   4.737
 6986SOL    HW221519   0.107   5.234   4.868
 6987SOL     OW21520   4.053   4.278   5.015
 6987SOL    HW121521   4.109   4.223   5.070
 6987SOL    HW221522   4.073   4.251   4.926
 6988SOL     OW21523   5.147   3.942   4.839
 6988SOL    HW121524   5.194   3.878   4.892
 6988SOL    HW221525   5.102   3.998   4.902
 6989SOL     OW21526   4.730   3.743   4.867
 6989SOL    HW121527   4.677   3.674   4.827
 6989SOL    HW221528   4.818   3.706   4.871
 6990SOL     OW21529   4.526   5.047   4.008
 6990SOL    HW121530   4.464   4.976   4.027
 6990SOL    HW221531   4.580   5.052   4.086
 6991SOL     OW21532   4.346   5.299   5.014
 6991SOL    HW121533   4.353   0.054   5.092
 6991SOL    HW221534   4.436   5.280   4.990
 6992SOL     OW21535   5.059   3.770   3.892
 6992SOL    HW121536   5.084   3.730   3.809
 6992SOL    HW221537   4.974   3.731   3.913
 6993SOL     OW21538   5.028   4.182   4.407
 6993SOL    HW121539   4.973   4.260   4.411
 6993SOL    HW221540   5.017   4.141   4.493
 6994SOL     OW21541   0.002   3.948   4.603
 6994SOL    HW121542   5.236   3.938   4.671
 6994SOL    HW221543   5.278   4.029   4.558
 6995SOL     OW21544   3.766   4.795   4.031
 6995SOL    HW121545   3.860   4.789   4.014
 6995SOL    HW221546   3.739   4.706   4.053
 6996SOL     OW21547   3.954   4.347   5.709
 6996SOL    HW121548   3.864   4.347   5.742
 6996SOL    HW221549   3.945   4.322   5.617
 6997SOL     OW21550   3.949   4.005   6.577
 6997SOL    HW121551   3.977   3.971   6.662
 6997SOL    HW221552   3.859   3.973   6.568
 6998SOL     OW21553   3.729   4.106   6.224
 6998SOL    HW121554   3.646   4.131   6.265
 6998SOL    HW221555   3.708   4.027   6.175
 6999SOL     OW21556   4.290   5.004   6.764
 6999SOL    HW121557   4.205   5.003   6.720
 6999SOL    HW221558   4.302   5.095   6.791
 7000SOL     OW21559   5.276   5.232   6.280
 7000SOL    HW121560   5.264   5.216   6.373
 7000SOL    HW221561   5.187   5.232   6.244
 7001SOL     OW21562   4.857   4.423   6.287
 7001SOL    HW121563   4.908   4.504   6.276
 7001SOL    HW221564   4.809   4.435   6.368
 7002SOL     OW21565   4.481   4.869   6.623
 7002SOL    HW121566   4.413   4.900   6.683
 7002SOL    HW221567   4.510   4.947   6.578
 7003SOL     OW21568   4.591   4.502   7.407
 7003SOL    HW121569   4.569   4.577   7.463
 7003SOL    HW221570   4.615   4.541   7.323
 7004SOL     OW21571   4.410   4.727   6.235
 7004SOL    HW121572   4.475   4.716   6.304
 7004SOL    HW221573   4.341   4.780   6.274
 7005SOL     OW21574   4.433   4.874   7.397
 7005SOL    HW121575   4.481   4.954   7.420
 7005SOL    HW221576   4.350   4.906   7.362
 7006SOL     OW21577   4.061   5.153   6.647
 7006SOL    HW121578   3.984   5.108   6.610
 7006SOL    HW221579   4.102   5.196   6.572
 7007SOL     OW21580   5.133   5.236   6.927
 7007SOL    HW121581   5.152   0.007   6.988
 7007SOL    HW221582   5.109   5.162   6.983
 7008SOL     OW21583   4.172   4.123   7.075
 7008SOL    HW121584   4.248   4.063   7.080
 7008SOL    HW221585   4.096   4.066   7.087
 7009SOL     OW21586   4.863   5.052   7.284
 7009SOL    HW121587   4.889   5.064   7.375
 7009SOL    HW221588   4.803   4.978   7.285
 7010SOL     OW21589   3.934   5.155   6.106
 7010SOL    HW121590   3.959   5.238   6.146
 7010SOL    HW221591   3.882   5.111   6.173
 7011SOL     OW21592   3.981   4.811   6.477
 7011SOL    HW121593   3.978   4.724   6.517
 7011SOL    HW221594   3.923   4.865   6.532
 7012SOL     OW21595   4.311   4.705   5.719
 7012SOL    HW121596   4.356   4.755   5.651
 7012SOL    HW221597   4.350   4.735   5.801
 7013SOL     OW21598   3.839   4.376   6.145
 7013SOL    HW121599   3.810   4.287   6.166
 7013SOL    HW221600   3.831   4.424   6.228
 7014SOL     OW21601   3.710   0.014   5.685
 7014SOL    HW121602   3.727   5.225   5.715
 7014SOL    HW221603   3.733   0.069   5.760
 7015SOL     OW21604   0.112   4.659   6.154
 7015SOL    HW121605   0.199   4.627   6.178
 7015SOL    HW221606   0.128   4.748   6.122
 7016SOL     OW21607   3.847   4.466   7.172
 7016SOL    HW121608   3.939   4.491   7.181
 7016SOL    HW221609   3.799   4.548   7.180
 7017SOL     OW21610   4.345   5.097   6.322
 7017SOL    HW121611   4.291   5.018   6.321
 7017SOL    HW221612   4.326   5.140   6.238
 7018SOL     OW21613   5.019   4.970   7.007
 7018SOL    HW121614   5.048   4.898   6.950
 7018SOL    HW221615   5.067   4.955   7.089
 7019SOL     OW21616   4.537   3.724   6.093
 7019SOL    HW121617   4.578   3.808   6.075
 7019SOL    HW221618   4.444   3.743   6.103
 7020SOL     OW21619   3.915   4.691   6.855
 7020SOL    HW121620   3.999   4.648   6.841
 7020SOL    HW221621   3.851   4.635   6.810
 7021SOL     OW21622   4.056   3.973   7.397
 7021SOL    HW121623   4.101   4.056   7.410
 7021SOL    HW221624   3.967   3.989   7.428
 7022SOL     OW21625   5.178   5.152   6.538
 7022SOL    HW121626   5.110   5.162   6.604
 7022SOL    HW221627   5.164   5.065   6.501
 7023SOL     OW21628   0.046   0.163   6.151
 7023SOL    HW121629   0.087   0.123   6.075
 7023SOL    HW221630   0.036   0.090   6.213
 7024SOL     OW21631   4.320   4.446   5.851
 7024SOL    HW121632   4.326   4.527   5.801
 7024SOL    HW221633   4.255   4.465   5.919
 7025SOL     OW21634   4.996   4.061   6.506
 7025SOL    HW121635   4.908   4.031   6.527
 7025SOL    HW221636   5.051   4.026   6.577
 7026SOL     OW21637   4.515   4.342   7.038
 7026SOL    HW121638   4.489   4.318   7.127
 7026SOL    HW221639   4.474   4.275   6.982
 7027SOL     OW21640   5.115   4.204   7.266
 7027SOL    HW121641   5.116   4.242   7.354
 7027SOL    HW221642   5.190   4.145   7.265
 7028SOL     OW21643   4.679   4.612   7.167
 7028SOL    HW121644   4.732   4.541   7.132
 7028SOL    HW221645   4.631   4.646   7.092
 7029SOL     OW21646   4.715   4.138   6.825
 7029SOL    HW121647   4.630   4.158   6.862
 7029SOL    HW221648   4.695   4.090   6.744
 7030SOL     OW21649   4.774   4.422   6.011
 7030SOL    HW121650   4.790   4.416   6.106
 7030SOL    HW221651   4.692   4.375   5.998
 7031SOL     OW21652   3.812   4.545   6.362
 7031SOL    HW121653   3.893   4.537   6.412
 7031SOL    HW221654   3.769   4.622   6.397
 7032SOL     OW21655   4.615   4.071   5.780
 7032SOL    HW121656   4.656   4.132   5.719
 7032SOL    HW221657   4.632   3.984   5.743
 7033SOL     OW21658   5.091   4.867   6.131
 7033SOL    HW121659   5.181   4.866   6.097
 7033SOL    HW221660   5.045   4.928   6.074
 7034SOL     OW21661   4.274   3.906   6.479
 7034SOL    HW121662   4.276   3.934   6.570
 7034SOL    HW221663   4.275   3.988   6.428
 7035SOL     OW21664   4.746   5.169   6.055
 7035SOL    HW121665   4.668   5.224   6.046
 7035SOL    HW221666   4.760   5.162   6.150
 7036SOL     OW21667   4.941   5.259   7.138
 7036SOL    HW121668   4.916   5.178   7.181
 7036SOL    HW221669   4.901   5.254   7.051
 7037SOL     OW21670   4.045   4.680   5.836
 7037SOL    HW121671   4.127   4.700   5.790
 7037SOL    HW221672   4.014   4.599   5.795
 7038SOL     OW21673   4.187   4.986   7.327
 7038SOL    HW121674   4.160   4.989   7.236
 7038SOL    HW221675   4.105   4.986   7.376
 7039SOL     OW21676   4.791   0.174   5.797
 7039SOL    HW121677   4.803   0.118   5.873
 7039SOL    HW221678   4.868   0.158   5.742
 7040SOL     OW21679   3.924   4.006   7.087
 7040SOL    HW121680   3.842   4.054   7.081
 7040SOL    HW221681   3.907   3.937   7.151
 7041SOL     OW21682   5.121   3.831   6.010
 7041SOL    HW121683   5.101   3.813   5.918
 7041SOL    HW221684   5.216   3.846   6.012
 7042SOL     OW21685   4.116   4.419   6.063
 7042SOL    HW121686   4.137   4.327   6.074
 7042SOL    HW221687   4.022   4.424   6.080
 7043SOL     OW21688   4.357   3.847   5.692
 7043SOL    HW121689   4.429   3.785   5.703
 7043SOL    HW221690   4.309   3.815   5.616
 7044SOL     OW21691   4.489   4.001   7.339
 7044SOL    HW121692   4.565   3.943   7.342
 7044SOL    HW221693   4.445   3.986   7.423
 7045SOL     OW21694   5.058   4.316   7.018
 7045SOL    HW121695   5.091   4.283   7.102
 7045SOL    HW221696   5.100   4.401   7.007
 7046SOL     OW21697   4.535   5.120   6.521
 7046SOL    HW121698   4.616   5.107   6.472
 7046SOL    HW221699   4.467   5.126   6.454
 7047SOL     OW21700   4.651   4.233   6.489
 7047SOL    HW121701   4.628   4.224   6.397
 7047SOL    HW221702   4.683   4.147   6.514
 7048SOL     OW21703   4.272   3.787   6.089
 7048SOL    HW121704   4.192   3.788   6.141
 7048SOL    HW221705   4.267   3.865   6.034
 7049SOL     OW21706   5.137   4.904   5.629
 7049SOL    HW121707   5.147   4.826   5.684
 7049SOL    HW221708   5.048   4.935   5.646
 7050SOL     OW21709   4.016   3.771   5.770
 7050SOL    HW121710   4.075   3.836   5.731
 7050SOL    HW221711   4.075   3.708   5.812
 7051SOL     OW21712   4.661   3.970   6.047
 7051SOL    HW121713   4.633   4.011   5.965
 7051SOL    HW221714   4.756   3.982   6.049
 7052SOL     OW21715   4.801   4.405   7.047
 7052SOL    HW121716   4.734   4.337   7.049
 7052SOL    HW221717   4.883   4.356   7.037
 7053SOL     OW21718   4.984   5.266   6.358
 7053SOL    HW121719   4.950   0.053   6.336
 7053SOL    HW221720   5.037   5.281   6.437
 7054SOL     OW21721   4.189   4.871   6.318
 7054SOL    HW121722   4.120   4.852   6.381
 7054SOL    HW221723   4.149   4.853   6.233
 7055SOL     OW21724   4.749   4.268   5.607
 7055SOL    HW121725   4.705   4.351   5.587
 7055SOL    HW221726   4.810   4.290   5.677
 7056SOL     OW21727   3.802   4.279   6.978
 7056SOL    HW121728   3.894   4.277   6.951
 7056SOL    HW221729   3.798   4.349   7.043
 7057SOL     OW21730   4.284   3.951   6.751
 7057SOL    HW121731   4.325   3.874   6.791
 7057SOL    HW221732   4.193   3.948   6.781
 7058SOL     OW21733   4.593   4.183   6.225
 7058SOL    HW121734   4.546   4.238   6.162
 7058SOL    HW221735   4.613   4.103   6.178
 7059SOL     OW21736   4.739   3.777   6.338
 7059SOL    HW121737   4.681   3.769   6.263
 7059SOL    HW221738   4.717   3.701   6.393
 7060SOL     OW21739   5.152   4.901   6.436
 7060SOL    HW121740   5.100   4.821   6.446
 7060SOL    HW221741   5.170   4.906   6.342
 7061SOL     OW21742   4.206   5.145   5.742
 7061SOL    HW121743   4.142   5.093   5.792
 7061SOL    HW221744   4.204   5.106   5.654
 7062SOL     OW21745   5.127   4.287   5.665
 7062SOL    HW121746   5.055   4.277   5.728
 7062SOL    HW221747   5.202   4.249   5.710
 7063SOL     OW21748   4.249   3.987   5.905
 7063SOL    HW121749   4.293   3.939   5.835
 7063SOL    HW221750   4.228   4.072   5.866
 7064SOL     OW21751   4.787   5.074   6.916
 7064SOL    HW121752   4.709   5.049   6.967
 7064SOL    HW221753   4.860   5.036   6.965
 7065SOL     OW21754   4.847   4.923   6.695
 7065SOL    HW121755   4.797   4.965   6.764
 7065SOL    HW221756   4.805   4.950   6.613
 7066SOL     OW21757   4.641   3.822   6.983
 7066SOL    HW121758   4.664   3.804   6.892
 7066SOL    HW221759   4.721   3.861   7.020
 7067SOL     OW21760   4.706   4.832   7.317
 7067SOL    HW121761   4.614   4.853   7.331
 7067SOL    HW221762   4.706   4.759   7.256
 7068SOL     OW21763   4.428   4.781   5.958
 7068SOL    HW121764   4.416   4.767   6.052
 7068SOL    HW221765   4.506   4.731   5.935
 7069SOL     OW21766   4.142   4.538   6.837
 7069SOL    HW121767   4.211   4.548   6.903
 7069SOL    HW221768   4.107   4.450   6.852
 7070SOL     OW21769   4.989   4.100   6.862
 7070SOL    HW121770   5.024   4.179   6.903
 7070SOL    HW221771   4.900   4.123   6.836
 7071SOL     OW21772   4.072   4.832   6.076
 7071SOL    HW121773   4.076   4.905   6.014
 7071SOL    HW221774   4.072   4.754   6.020
 7072SOL     OW21775   4.277   4.261   6.446
 7072SOL    HW121776   4.293   4.319   6.372
 7072SOL    HW221777   4.342   4.288   6.512
 7073SOL     OW21778   4.985   5.076   5.973
 7073SOL    HW121779   5.037   5.152   6.001
 7073SOL    HW221780   4.896   5.098   6.001
 7074SOL     OW21781   4.979   5.181   6.719
 7074SOL    HW121782   5.034   5.202   6.793
 7074SOL    HW221783   4.940   5.096   6.741
 7075SOL     OW21784   4.072   5.236   6.901
 7075SOL    HW121785   4.061   5.201   6.813
 7075SOL    HW221786   4.165   5.257   6.907
 7076SOL     OW21787   4.138   4.469   7.188
 7076SOL    HW121788   4.199   4.514   7.130
 7076SOL    HW221789   4.177   4.383   7.203
 7077SOL     OW21790   4.718   3.847   7.341
 7077SOL    HW121791   4.775   3.919   7.312
 7077SOL    HW221792   4.766   3.768   7.317
 7078SOL     OW21793   4.223   3.765   7.333
 7078SOL    HW121794   4.180   3.711   7.267
 7078SOL    HW221795   4.163   3.839   7.345
 7079SOL     OW21796   4.307   4.596   6.617
 7079SOL    HW121797   4.337   4.687   6.615
 7079SOL    HW221798   4.251   4.591   6.694
 7080SOL     OW21799   5.086   4.581   6.622
 7080SOL    HW121800   5.009   4.564   6.568
 7080SOL    HW221801   5.136   4.500   6.619
 7081SOL     OW21802   4.929   4.255   5.852
 7081SOL    HW121803   4.936   4.175   5.904
 7081SOL    HW221804   4.886   4.318   5.909
 7082SOL     OW21805   4.023   3.923   6.832
 7082SOL    HW121806   3.986   3.956   6.914
 7082SOL    HW221807   4.004   3.829   6.833
 7083SOL     OW21808   3.776   5.046   6.870
 7083SOL    HW121809   3.801   4.982   6.937
 7083SOL    HW221810   3.811   5.129   6.901
 7084SOL     OW21811   4.448   4.355   6.644
 7084SOL    HW121812   4.523   4.338   6.587
 7084SOL    HW221813   4.421   4.444   6.623
 7085SOL     OW21814   4.026   3.789   6.209
 7085SOL    HW121815   4.008   3.880   6.233
 7085SOL    HW221816   4.033   3.743   6.293
 7086SOL     OW21817   0.035   4.116   5.946
 7086SOL    HW121818   0.056   4.043   6.003
 7086SOL    HW221819   0.016   4.189   6.006
 7087SOL     OW21820   4.751   4.483   6.547
 7087SOL    HW121821   4.750   4.501   6.640
 7087SOL    HW221822   4.725   4.391   6.539
 7088SOL     OW21823   4.077   4.639   7.395
 7088SOL    HW121824   4.160   4.659   7.439
 7088SOL    HW221825   4.101   4.577   7.326
 7089SOL     OW21826   5.027   4.553   5.623
 7089SOL    HW121827   5.065   4.465   5.624
 7089SOL    HW221828   5.054   4.589   5.538
 7090SOL     OW21829   4.781   5.078   6.414
 7090SOL    HW121830   4.788   4.993   6.370
 7090SOL    HW221831   4.866   5.119   6.399
 7091SOL     OW21832   4.033   4.533   6.534
 7091SOL    HW121833   4.126   4.554   6.527
 7091SOL    HW221834   4.031   4.443   6.567
 7092SOL     OW21835   4.056   4.249   6.598
 7092SOL    HW121836   4.021   4.162   6.583
 7092SOL    HW221837   4.132   4.255   6.541
 7093SOL     OW21838   4.857   4.101   7.265
 7093SOL    HW121839   4.810   4.156   7.328
 7093SOL    HW221840   4.944   4.140   7.260
 7094SOL     OW21841   4.885   3.927   7.054
 7094SOL    HW121842   4.874   3.989   7.126
 7094SOL    HW221843   4.923   3.979   6.984
 7095SOL     OW21844   3.730   5.042   5.777
 7095SOL    HW121845   3.640   5.058   5.749
 7095SOL    HW221846   3.728   4.953   5.814
 7096SOL     OW21847   4.708   4.517   6.813
 7096SOL    HW121848   4.763   4.493   6.887
 7096SOL    HW221849   4.622   4.479   6.834
 7097SOL     OW21850   3.760   4.268   6.702
 7097SOL    HW121851   3.840   4.254   6.653
 7097SOL    HW221852   3.788   4.272   6.794
 7098SOL     OW21853   3.916   4.243   7.313
 7098SOL    HW121854   3.972   4.204   7.245
 7098SOL    HW221855   3.872   4.316   7.269
 7099SOL     OW21856   5.110   4.663   7.253
 7099SOL    HW121857   5.118   4.758   7.241
 7099SOL    HW221858   5.113   4.627   7.164
 7100SOL     OW21859   4.540   4.293   5.944
 7100SOL    HW121860   4.543   4.218   5.885
 7100SOL    HW221861   4.466   4.345   5.913
 7101SOL     OW21862   3.930   5.276   7.329
 7101SOL    HW121863   3.904   0.027   7.405
 7101SOL    HW221864   3.943   5.187   7.363
 7102SOL     OW21865   4.422   4.175   6.846
 7102SOL    HW121866   4.371   4.101   6.815
 7102SOL    HW221867   4.420   4.238   6.774
 7103SOL     OW21868   4.189   4.217   5.774
 7103SOL    HW121869   4.247   4.290   5.795
 7103SOL    HW221870   4.103   4.257   5.761
 7104SOL     OW21871   3.870   4.863   7.057
 7104SOL    HW121872   3.872   4.811   7.137
 7104SOL    HW221873   3.887   4.800   6.987
 7105SOL     OW21874   5.051   4.770   6.813
 7105SOL    HW121875   5.076   4.709   6.744
 7105SOL    HW221876   4.980   4.822   6.775
 7106SOL     OW21877   5.033   4.584   5.902
 7106SOL    HW121878   4.951   4.550   5.939
 7106SOL    HW221879   5.022   4.575   5.807
 7107SOL     OW21880   3.817   4.986   6.607
 7107SOL    HW121881   3.795   5.003   6.699
 7107SOL    HW221882   3.737   4.947   6.571
 7108SOL     OW21883   4.469   0.033   7.299
 7108SOL    HW121884   4.377   0.061   7.303
 7108SOL    HW221885   4.501   0.066   7.215
 7109SOL     OW21886   0.083   3.883   6.115
 7109SOL    HW121887   0.168   3.871   6.073
 7109SOL    HW221888   0.070   3.802   6.165
 7110SOL     OW21889   5.016   4.643   6.259
 7110SOL    HW121890   5.093   4.588   6.246
 7110SOL    HW221891   5.034   4.722   6.209
 7111SOL     OW21892   4.544   4.993   7.009
 7111SOL    HW121893   4.515   5.029   7.093
 7111SOL    HW221894   4.469   5.005   6.951
 7112SOL     OW21895   3.987   4.040   6.303
 7112SOL    HW121896   3.901   4.076   6.279
 7112SOL    HW221897   3.983   4.032   6.398
 7113SOL     OW21898   4.549   4.728   6.956
 7113SOL    HW121899   4.594   4.722   6.873
 7113SOL    HW221900   4.552   4.821   6.979
 7114SOL     OW21901   4.640   4.635   5.876
 7114SOL    HW121902   4.702   4.668   5.811
 7114SOL    HW221903   4.687   4.564   5.920
 7115SOL     OW21904   4.089   5.026   7.083
 7115SOL    HW121905   4.079   5.100   7.023
 7115SOL    HW221906   4.014   4.969   7.065
 7116SOL     OW21907   4.776   4.833   6.297
 7116SOL    HW121908   4.705   4.782   6.335
 7116SOL    HW221909   4.834   4.767   6.257
 7117SOL     OW21910   4.739   3.963   6.554
 7117SOL    HW121911   4.737   3.916   6.471
 7117SOL    HW221912   4.736   3.895   6.621
 7118SOL     OW21913   3.982   5.053   5.868
 7118SOL    HW121914   3.890   5.055   5.841
 7118SOL    HW221915   3.983   5.095   5.954
 7119SOL     OW21916   3.837   4.745   7.305
 7119SOL    HW121917   3.760   4.722   7.357
 7119SOL    HW221918   3.911   4.707   7.352
 7120SOL     OW21919   4.398   3.920   7.085
 7120SOL    HW121920   4.482   3.901   7.044
 7120SOL    HW221921   4.420   3.950   7.173
 7121SOL     OW21922   3.802   4.058   5.621
 7121SOL    HW121923   3.714   4.039   5.587
 7121SOL    HW221924   3.832   4.133   5.569
 7122SOL     OW21925   5.163   4.584   6.990
 7122SOL    HW121926   5.110   4.640   6.934
 7122SOL    HW221927   5.252   4.592   6.955
 7123SOL     OW21928   3.793   3.880   5.897
 7123SOL    HW121929   3.779   3.961   5.847
 7123SOL    HW221930   3.878   3.848   5.867
 7124SOL     OW21931   4.909   5.059   5.707
 7124SOL    HW121932   4.815   5.041   5.705
 7124SOL    HW221933   4.933   5.055   5.799
 7125SOL     OW21934   4.343   4.555   7.019
 7125SOL    HW121935   4.399   4.631   7.003
 7125SOL    HW221936   4.403   4.481   7.027
 7126SOL     OW21937   4.442   4.287   7.291
 7126SOL    HW121938   4.480   4.349   7.353
 7126SOL    HW221939   4.470   4.201   7.322
 7127SOL     OW21940   5.184   4.928   7.218
 7127SOL    HW121941   5.174   4.939   7.313
 7127SOL    HW221942   5.279   4.932   7.204
 7128SOL     OW21943   4.940   4.044   6.042
 7128SOL    HW121944   5.003   3.972   6.029
 7128SOL    HW221945   4.970   4.088   6.122
 7129SOL     OW21946   4.315   4.462   6.255
 7129SOL    HW121947   4.353   4.549   6.240
 7129SOL    HW221948   4.246   4.455   6.188
 7130SOL     OW21949   4.580   5.095   5.605
 7130SOL    HW121950   4.556   5.098   5.698
 7130SOL    HW221951   4.591   5.187   5.580
 7131SOL     OW21952   4.592   4.691   6.442
 7131SOL    HW121953   4.641   4.620   6.482
 7131SOL    HW221954   4.557   4.741   6.516
 7132SOL     OW21955   4.808   4.712   5.678
 7132SOL    HW121956   4.781   4.760   5.599
 7132SOL    HW221957   4.882   4.658   5.649
 7133SOL     OW21958   3.946   5.024   7.442
 7133SOL    HW121959   3.880   4.962   7.412
 7133SOL    HW221960   3.927   5.038   7.535
 7134SOL     OW21961   3.809   4.956   6.256
 7134SOL    HW121962   3.809   4.903   6.335
 7134SOL    HW221963   3.873   4.914   6.199
 7135SOL     OW21964   4.393   5.105   7.195
 7135SOL    HW121965   4.317   5.074   7.243
 7135SOL    HW221966   4.424   5.181   7.245
 7136SOL     OW21967   4.154   4.158   6.111
 7136SOL    HW121968   4.183   4.087   6.054
 7136SOL    HW221969   4.106   4.114   6.182
 7137SOL     OW21970   0.123   5.228   6.636
 7137SOL    HW121971   0.038   5.204   6.599
 7137SOL    HW221972   0.107   5.234   6.730
 7138SOL     OW21973   4.053   4.278   6.877
 7138SOL    HW121974   4.109   4.223   6.932
 7138SOL    HW221975   4.073   4.250   6.788
 7139SOL     OW21976   5.148   3.943   6.701
 7139SOL    HW121977   5.193   3.877   6.754
 7139SOL    HW221978   5.102   3.998   6.764
 7140SOL     OW21979   4.730   3.743   6.729
 7140SOL    HW121980   4.677   3.675   6.689
 7140SOL    HW221981   4.818   3.706   6.733
 7141SOL     OW21982   4.526   5.047   5.870
 7141SOL    HW121983   4.464   4.976   5.889
 7141SOL    HW221984   4.580   5.052   5.948
 7142SOL     OW21985   4.346   5.299   6.876
 7142SOL    HW121986   4.353   0.054   6.954
 7142SOL    HW221987   4.436   5.280   6.852
 7143SOL     OW21988   5.059   3.770   5.754
 7143SOL    HW121989   5.084   3.729   5.671
 7143SOL    HW221990   4.974   3.731   5.775
 7144SOL     OW21991   5.028   4.182   6.269
 7144SOL    HW121992   4.973   4.260   6.273
 7144SOL    HW221993   5.017   4.141   6.355
 7145SOL     OW21994   0.002   3.948   6.465
 7145SOL    HW121995   5.236   3.938   6.533
 7145SOL    HW221996   5.278   4.029   6.420
 7146SOL     OW21997   3.766   4.795   5.893
 7146SOL    HW121998   3.860   4.789   5.876
 7146SOL    HW221999   3.739   4.706   5.915
 7147SOL     OW22000   3.953   4.343   7.571
 7147SOL    HW122001   3.862   4.350   7.602
 7147SOL    HW222002   3.946   4.320   7.479
 7148SOL     OW22003   4.001   0.126   7.957
 7148SOL    HW122004   3.974   0.211   7.992
 7148SOL    HW222005   4.006   0.140   7.863
 7149SOL     OW22006   3.942   5.156   7.989
 7149SOL    HW122007   3.953   5.251   7.997
 7149SOL    HW222008   3.883   5.133   8.062
 7150SOL     OW22009   4.311   4.704   7.578
 7150SOL    HW122010   4.355   4.756   7.511
 7150SOL    HW222011   4.349   4.735   7.661
 7151SOL     OW22012   3.722   0.011   7.539
 7151SOL    HW122013   3.727   5.222   7.574
 7151SOL    HW222014   3.723   0.067   7.617
 7152SOL     OW22015   0.119   4.649   8.014
 7152SOL    HW122016   0.210   4.638   8.041
 7152SOL    HW222017   0.110   4.743   7.997
 7153SOL     OW22018   4.525   3.718   7.938
 7153SOL    HW122019   4.574   3.798   7.923
 7153SOL    HW222020   4.434   3.747   7.948
 7154SOL     OW22021   4.315   4.449   7.708
 7154SOL    HW122022   4.320   4.530   7.659
 7154SOL    HW222023   4.255   4.468   7.780
 7155SOL     OW22024   3.785   4.586   0.091
 7155SOL    HW122025   3.851   4.523   0.121
 7155SOL    HW222026   3.778   4.649   0.163
 7156SOL     OW22027   4.605   4.068   7.638
 7156SOL    HW122028   4.650   4.128   7.578
 7156SOL    HW222029   4.637   3.981   7.615
 7157SOL     OW22030   4.047   4.679   7.697
 7157SOL    HW122031   4.128   4.697   7.648
 7157SOL    HW222032   4.011   4.600   7.656
 7158SOL     OW22033   4.795   0.184   7.648
 7158SOL    HW122034   4.791   0.138   7.732
 7158SOL    HW222035   4.877   0.154   7.608
 7159SOL     OW22036   5.133   3.849   7.858
 7159SOL    HW122037   5.096   3.825   7.773
 7159SOL    HW222038   5.227   3.849   7.845
 7160SOL     OW22039   4.114   4.422   7.918
 7160SOL    HW122040   4.121   4.327   7.926
 7160SOL    HW222041   4.023   4.442   7.939
 7161SOL     OW22042   4.352   3.845   7.559
 7161SOL    HW122043   4.428   3.788   7.569
 7161SOL    HW222044   4.309   3.813   7.480
 7162SOL     OW22045   4.256   3.797   7.959
 7162SOL    HW122046   4.171   3.801   8.002
 7162SOL    HW222047   4.254   3.868   7.895
 7163SOL     OW22048   5.139   4.905   7.490
 7163SOL    HW122049   5.152   4.830   7.548
 7163SOL    HW222050   5.050   4.935   7.508
 7164SOL     OW22051   4.017   3.773   7.632
 7164SOL    HW122052   4.076   3.834   7.588
 7164SOL    HW222053   4.075   3.708   7.671
 7165SOL     OW22054   4.666   3.950   7.911
 7165SOL    HW122055   4.623   4.014   7.854
 7165SOL    HW222056   4.758   3.978   7.913
 7166SOL     OW22057   4.166   4.875   0.100
 7166SOL    HW122058   4.089   4.907   0.147
 7166SOL    HW222059   4.134   4.860   0.011
 7167SOL     OW22060   4.752   4.270   7.464
 7167SOL    HW122061   4.704   4.351   7.448
 7167SOL    HW222062   4.805   4.289   7.542
 7168SOL     OW22063   4.199   5.148   7.603
 7168SOL    HW122064   4.139   5.096   7.657
 7168SOL    HW222065   4.202   5.103   7.519
 7169SOL     OW22066   5.127   4.286   7.529
 7169SOL    HW122067   5.053   4.276   7.589
 7169SOL    HW222068   5.201   4.246   7.575
 7170SOL     OW22069   4.250   3.990   7.771
 7170SOL    HW122070   4.293   3.939   7.702
 7170SOL    HW222071   4.228   4.073   7.729
 7171SOL     OW22072   4.431   4.780   7.813
 7171SOL    HW122073   4.410   4.770   7.906
 7171SOL    HW222074   4.513   4.732   7.801
 7172SOL     OW22075   4.090   4.824   7.928
 7172SOL    HW122076   4.069   4.904   7.879
 7172SOL    HW222077   4.077   4.753   7.865
 7173SOL     OW22078   4.955   5.104   7.831
 7173SOL    HW122079   5.034   5.129   7.878
 7173SOL    HW222080   4.901   5.059   7.896
 7174SOL     OW22081   0.034   4.371   7.924
 7174SOL    HW122082   5.279   4.395   7.999
 7174SOL    HW222083   0.041   4.452   7.873
 7175SOL     OW22084   4.927   4.254   7.714
 7175SOL    HW122085   4.933   4.170   7.759
 7175SOL    HW222086   4.896   4.315   7.781
 7176SOL     OW22087   0.027   4.124   7.808
 7176SOL    HW122088   0.039   4.055   7.874
 7176SOL    HW222089   0.021   4.205   7.859
 7177SOL     OW22090   5.033   4.556   7.489
 7177SOL    HW122091   5.065   4.465   7.487
 7177SOL    HW222092   5.056   4.591   7.403
 7178SOL     OW22093   3.732   5.045   7.640
 7178SOL    HW122094   3.642   5.058   7.610
 7178SOL    HW222095   3.733   4.956   7.675
 7179SOL     OW22096   4.562   4.322   7.760
 7179SOL    HW122097   4.553   4.230   7.734
 7179SOL    HW222098   4.473   4.356   7.762
 7180SOL     OW22099   4.187   4.217   7.642
 7180SOL    HW122100   4.245   4.292   7.657
 7180SOL    HW222101   4.101   4.257   7.624
 7181SOL     OW22102   5.033   4.574   7.771
 7181SOL    HW122103   4.939   4.581   7.791
 7181SOL    HW222104   5.036   4.571   7.675
 7182SOL     OW22105   0.179   3.866   7.990
 7182SOL    HW122106   0.160   3.847   7.898
 7182SOL    HW222107   0.137   3.795   8.039
 7183SOL     OW22108   4.655   4.634   7.759
 7183SOL    HW122109   4.706   4.660   7.682
 7183SOL    HW222110   4.645   4.540   7.751
 7184SOL     OW22111   3.981   5.059   7.744
 7184SOL    HW122112   3.890   5.062   7.716
 7184SOL    HW222113   3.981   5.098   7.831
 7185SOL     OW22114   3.801   4.058   7.484
 7185SOL    HW122115   3.715   4.038   7.448
 7185SOL    HW222116   3.831   4.133   7.433
 7186SOL     OW22117   3.795   3.881   7.759
 7186SOL    HW122118   3.778   3.958   7.704
 7186SOL    HW222119   3.878   3.846   7.727
 7187SOL     OW22120   4.908   5.055   7.566
 7187SOL    HW122121   4.814   5.040   7.560
 7187SOL    HW222122   4.924   5.067   7.660
 7188SOL     OW22123   4.939   4.044   7.901
 7188SOL    HW122124   5.010   3.981   7.891
 7188SOL    HW222125   4.957   4.087   7.984
 7189SOL     OW22126   4.348   4.458   8.057
 7189SOL    HW122127   4.355   4.541   0.023
 7189SOL    HW222128   4.261   4.460   8.017
 7190SOL     OW22129   4.582   5.095   7.466
 7190SOL    HW122130   4.559   5.097   7.558
 7190SOL    HW222131   4.590   5.187   7.441
 7191SOL     OW22132   4.803   4.704   7.541
 7191SOL    HW122133   4.778   4.756   7.465
 7191SOL    HW222134   4.880   4.655   7.511
 7192SOL     OW22135   4.112   4.150   7.981
 7192SOL    HW122136   4.163   4.099   7.918
 7192SOL    HW222137   4.160   4.142   8.063
 7193SOL     OW22138   4.528   5.046   7.730
 7193SOL    HW122139   4.468   4.974   7.749
 7193SOL    HW222140   4.550   5.082   7.815
 7194SOL     OW22141   5.062   3.769   7.611
 7194SOL    HW122142   5.084   3.724   7.529
 7194SOL    HW222143   4.978   3.732   7.638
 7195SOL     OW22144   3.773   4.802   7.751
 7195SOL    HW122145   3.868   4.793   7.738
 7195SOL    HW222146   3.743   4.712   7.766
   5.30000   5.30000   8.08000
