Built with Packmol
22173
    1LIG      O    1   2.142   2.135   0.014
    1LIG      C    2   2.207   2.185   0.145
    1LIG     C1    3   2.136   2.132   0.285
    1LIG     O1    4   2.200   2.182   0.418
    1LIG     C2    5   2.135   2.133   0.550
    1LIG     C3    6   2.206   2.188   0.688
    1LIG     O2    7   2.142   2.140   0.820
    1LIG     C4    8   2.205   2.190   0.952
    1LIG     C5    9   2.133   2.135   1.090
    1LIG     O3   10   2.196   2.185   1.223
    1LIG     C6   11   2.131   2.136   1.354
    1LIG     C7   12   2.203   2.192   1.492
    1LIG     O4   13   2.139   2.144   1.625
    1LIG     C8   14   2.203   2.194   1.757
    1LIG     C9   15   2.130   2.138   1.894
    1LIG     O5   16   2.194   2.188   2.026
    1LIG    C10   17   2.130   2.139   2.159
    1LIG    C11   18   2.202   2.195   2.295
    1LIG     O6   19   2.138   2.146   2.427
    1LIG    C12   20   2.201   2.195   2.560
    1LIG    C13   21   2.128   2.140   2.697
    1LIG     O7   22   2.192   2.189   2.829
    1LIG    C14   23   2.128   2.140   2.962
    1LIG    C15   24   2.200   2.195   3.100
    1LIG     O8   25   2.136   2.146   3.233
    1LIG    C16   26   2.200   2.196   3.365
    1LIG    C17   27   2.129   2.141   3.502
    1LIG     O9   28   2.192   2.190   3.636
    1LIG    C18   29   2.127   2.141   3.767
    1LIG    C19   30   2.199   2.196   3.904
    1LIG    O10   31   2.136   2.147   4.037
    1LIG    C20   32   2.200   2.197   4.168
    1LIG    C21   33   2.127   2.141   4.305
    1LIG    O11   34   2.191   2.190   4.438
    1LIG    C22   35   2.127   2.141   4.570
    1LIG    C23   36   2.199   2.197   4.707
    1LIG    O12   37   2.135   2.148   4.839
    1LIG    C24   38   2.199   2.197   4.972
    1LIG    C25   39   2.127   2.142   5.110
    1LIG    O13   40   2.190   2.191   5.243
    1LIG    C26   41   2.126   2.142   5.375
    1LIG    C27   42   2.198   2.197   5.511
    1LIG    O14   43   2.134   2.148   5.644
    1LIG    C28   44   2.199   2.197   5.777
    1LIG    C29   45   2.127   2.141   5.914
    1LIG    O15   46   2.191   2.190   6.047
    1LIG    C30   47   2.127   2.141   6.179
    1LIG    C31   48   2.199   2.196   6.315
    1LIG    O16   49   2.135   2.147   6.447
    1LIG    C32   50   2.199   2.196   6.580
    1LIG    C33   51   2.127   2.141   6.717
    1LIG    O17   52   2.191   2.190   6.850
    1LIG    C34   53   2.127   2.140   6.982
    1LIG    C35   54   2.199   2.195   7.119
    1LIG    O18   55   2.135   2.146   7.252
    1LIG    C36   56   2.199   2.195   7.384
    1LIG    C37   57   2.128   2.140   7.522
    1LIG    O19   58   2.192   2.189   7.655
    1LIG    C38   59   2.128   2.139   7.786
    1LIG    C39   60   2.199   2.194   7.924
    1LIG    O20   61   2.136   2.145   8.057
    1LIG    C40   62   2.200   2.194   8.189
    1LIG    C41   63   2.129   2.139   8.327
    1LIG    O21   64   2.192   2.188   8.459
    1LIG    C42   65   2.128   2.138   8.591
    1LIG    C43   66   2.200   2.193   8.728
    1LIG    O22   67   2.137   2.144   8.861
    1LIG    C44   68   2.201   2.193   8.993
    1LIG    C45   69   2.129   2.137   9.130
    1LIG    O23   70   2.193   2.186   9.262
    1LIG    C46   71   2.129   2.137   9.395
    1LIG    C47   72   2.202   2.193   9.532
    1LIG    O24   73   2.138   2.143   9.663
    1LIG    C48   74   2.201   2.192   9.796
    1LIG    C49   75   2.129   2.136   9.933
    1LIG    O25   76   2.193   2.185  10.065
    1LIG    C50   77   2.130   2.136  10.198
    1LIG    C51   78   2.202   2.192  10.335
    1LIG    O26   79   2.139   2.142  10.467
    1LIG    C52   80   2.202   2.191  10.600
    1LIG    C53   81   2.130   2.134  10.737
    1LIG    O27   82   2.194   2.184  10.868
    1LIG    C54   83   2.131   2.134  11.001
    1LIG    C55   84   2.203   2.190  11.140
    1LIG    O28   85   2.139   2.140  11.272
    1LIG    C56   86   2.203   2.189  11.405
    1LIG    C57   87   2.132   2.133  11.543
    1LIG    O29   88   2.196   2.182  11.676
    1LIG    C58   89   2.132   2.132  11.808
    1LIG    C59   90   2.203   2.187  11.946
    1LIG      H   91   2.204   2.295   0.143
    1LIG     H1   92   2.312   2.154   0.144
    1LIG     H2   93   2.139   2.023   0.285
    1LIG     H3   94   2.031   2.163   0.284
    1LIG     H4   95   2.138   2.023   0.552
    1LIG     H5   96   2.030   2.164   0.551
    1LIG     H6   97   2.204   2.298   0.685
    1LIG     H7   98   2.312   2.157   0.687
    1LIG     H8   99   2.203   2.299   0.953
    1LIG     H9  100   2.310   2.159   0.955
    1LIG    H10  101   2.136   2.026   1.089
    1LIG    H11  102   2.028   2.166   1.088
    1LIG    H12  103   2.134   2.027   1.357
    1LIG    H13  104   2.026   2.167   1.356
    1LIG    H14  105   2.200   2.302   1.489
    1LIG    H15  106   2.308   2.161   1.491
    1LIG    H16  107   2.200   2.303   1.758
    1LIG    H17  108   2.308   2.163   1.759
    1LIG    H18  109   2.133   2.029   1.892
    1LIG    H19  110   2.025   2.169   1.891
    1LIG    H20  111   2.132   2.029   2.160
    1LIG    H21  112   2.024   2.170   2.160
    1LIG    H22  113   2.199   2.304   2.293
    1LIG    H23  114   2.307   2.164   2.294
    1LIG    H24  115   2.198   2.304   2.562
    1LIG    H25  116   2.306   2.164   2.562
    1LIG    H26  117   2.131   2.030   2.695
    1LIG    H27  118   2.023   2.171   2.695
    1LIG    H28  119   2.131   2.030   2.964
    1LIG    H29  120   2.023   2.171   2.963
    1LIG    H30  121   2.197   2.305   3.098
    1LIG    H31  122   2.305   2.164   3.099
    1LIG    H32  123   2.197   2.306   3.366
    1LIG    H33  124   2.305   2.165   3.366
    1LIG    H34  125   2.131   2.032   3.501
    1LIG    H35  126   2.023   2.172   3.500
    1LIG    H36  127   2.130   2.031   3.768
    1LIG    H37  128   2.022   2.172   3.768
    1LIG    H38  129   2.196   2.306   3.902
    1LIG    H39  130   2.304   2.165   3.902
    1LIG    H40  131   2.197   2.306   4.170
    1LIG    H41  132   2.305   2.166   4.170
    1LIG    H42  133   2.130   2.032   4.304
    1LIG    H43  134   2.022   2.172   4.303
    1LIG    H44  135   2.130   2.032   4.572
    1LIG    H45  136   2.022   2.172   4.572
    1LIG    H46  137   2.196   2.307   4.705
    1LIG    H47  138   2.305   2.166   4.706
    1LIG    H48  139   2.196   2.306   4.974
    1LIG    H49  140   2.304   2.166   4.974
    1LIG    H50  141   2.130   2.032   5.109
    1LIG    H51  142   2.022   2.173   5.108
    1LIG    H52  143   2.129   2.032   5.376
    1LIG    H53  144   2.021   2.173   5.376
    1LIG    H54  145   2.195   2.307   5.510
    1LIG    H55  146   2.303   2.166   5.510
    1LIG    H56  147   2.196   2.306   5.778
    1LIG    H57  148   2.304   2.166   5.778
    1LIG    H58  149   2.130   2.032   5.912
    1LIG    H59  150   2.022   2.172   5.913
    1LIG    H60  151   2.130   2.031   6.180
    1LIG    H61  152   2.022   2.172   6.180
    1LIG    H62  153   2.196   2.306   6.314
    1LIG    H63  154   2.304   2.165   6.314
    1LIG    H64  155   2.196   2.305   6.582
    1LIG    H65  156   2.304   2.165   6.581
    1LIG    H66  157   2.130   2.031   6.716
    1LIG    H67  158   2.022   2.172   6.716
    1LIG    H68  159   2.130   2.031   6.983
    1LIG    H69  160   2.022   2.171   6.983
    1LIG    H70  161   2.196   2.305   7.118
    1LIG    H71  162   2.304   2.165   7.118
    1LIG    H72  163   2.196   2.305   7.386
    1LIG    H73  164   2.305   2.165   7.385
    1LIG    H74  165   2.131   2.031   7.520
    1LIG    H75  166   2.023   2.171   7.521
    1LIG    H76  167   2.131   2.030   7.787
    1LIG    H77  168   2.023   2.170   7.788
    1LIG    H78  169   2.196   2.303   7.923
    1LIG    H79  170   2.305   2.163   7.922
    1LIG    H80  171   2.197   2.304   8.190
    1LIG    H81  172   2.305   2.164   8.190
    1LIG    H82  173   2.132   2.029   8.325
    1LIG    H83  174   2.023   2.169   8.325
    1LIG    H84  175   2.132   2.028   8.592
    1LIG    H85  176   2.023   2.168   8.592
    1LIG    H86  177   2.197   2.303   8.726
    1LIG    H87  178   2.306   2.163   8.726
    1LIG    H88  179   2.198   2.303   8.995
    1LIG    H89  180   2.306   2.163   8.994
    1LIG    H90  181   2.132   2.028   9.128
    1LIG    H91  182   2.024   2.168   9.128
    1LIG    H92  183   2.133   2.027   9.396
    1LIG    H93  184   2.024   2.167   9.397
    1LIG    H94  185   2.198   2.302   9.530
    1LIG    H95  186   2.307   2.162   9.530
    1LIG    H96  187   2.198   2.301   9.798
    1LIG    H97  188   2.306   2.161   9.798
    1LIG    H98  189   2.133   2.026   9.931
    1LIG    H99  190   2.024   2.166   9.932
    1LIG   H100  191   2.133   2.026  10.200
    1LIG   H101  192   2.025   2.166  10.200
    1LIG   H102  193   2.199   2.301  10.334
    1LIG   H103  194   2.307   2.161  10.333
    1LIG   H104  195   2.199   2.300  10.602
    1LIG   H105  196   2.307   2.160  10.602
    1LIG   H106  197   2.134   2.025  10.735
    1LIG   H107  198   2.025   2.165  10.735
    1LIG   H108  199   2.135   2.025  11.003
    1LIG   H109  200   2.026   2.165  11.004
    1LIG   H110  201   2.199   2.299  11.138
    1LIG   H111  202   2.308   2.159  11.138
    1LIG   H112  203   2.200   2.299  11.406
    1LIG   H113  204   2.309   2.159  11.406
    1LIG   H114  205   2.136   2.024  11.541
    1LIG   H115  206   2.027   2.164  11.542
    1LIG   H116  207   2.136   2.022  11.808
    1LIG   H117  208   2.027   2.164  11.809
    1LIG   H118  209   2.308   2.157  11.946
    1LIG   H119  210   2.156   2.150  12.049
    1MOL     C1  211   2.718   2.162   6.006
    1MOL     H1  212   2.807   2.222   6.026
    1MOL     O1  213   2.692   2.089   6.124
    1MOL     C2  214   2.571   2.010   6.118
    1MOL     H2  215   2.486   2.074   6.093
    1MOL     C3  216   2.547   1.954   6.259
    1MOL     H3  217   2.643   1.951   6.311
    1MOL     H4  218   2.507   1.852   6.253
    1MOL     O2  219   2.458   2.036   6.334
    1MOL     H5  220   2.371   1.992   6.332
    1MOL     C4  221   2.740   2.066   5.888
    1MOL     H6  222   2.829   2.006   5.909
    1MOL     O3  223   2.765   2.134   5.766
    1MOL     H7  224   2.711   2.216   5.765
    1MOL     C5  225   2.619   1.974   5.874
    1MOL     H8  226   2.532   2.035   5.846
    1MOL     O4  227   2.641   1.873   5.776
    1MOL     H9  228   2.676   1.919   5.698
    1MOL     C6  229   2.585   1.905   6.006
    1MOL    H10  230   2.662   1.831   6.031
    1MOL     O5  231   2.459   1.840   5.984
    1MOL     C7  232   2.439   1.706   6.024
    1MOL    H11  233   2.534   1.658   6.048
    1MOL     O6  234   2.360   1.698   6.140
    1MOL     C8  235   2.231   1.762   6.129
    1MOL    H12  236   2.245   1.868   6.101
    1MOL     C9  237   2.168   1.758   6.267
    1MOL    H13  238   2.184   1.659   6.311
    1MOL    H14  239   2.060   1.776   6.258
    1MOL     O7  240   2.230   1.859   6.347
    1MOL    H15  241   2.207   1.844   6.440
    1MOL    C10  242   2.369   1.636   5.907
    1MOL    H16  243   2.358   1.530   5.933
    1MOL     O8  244   2.442   1.641   5.786
    1MOL    H17  245   2.488   1.728   5.781
    1MOL    C11  246   2.229   1.696   5.889
    1MOL    H18  247   2.240   1.800   5.858
    1MOL     O9  248   2.156   1.623   5.790
    1MOL    H19  249   2.217   1.613   5.714
    1MOL    C12  250   2.148   1.694   6.019
    1MOL    H20  251   2.125   1.591   6.047
    1MOL    O10  252   2.029   1.768   5.995
    1MOL    C13  253   1.901   1.708   6.014
    1MOL    H21  254   1.913   1.601   6.034
    1MOL    O11  255   1.835   1.762   6.126
    1MOL    C14  256   1.809   1.903   6.120
    1MOL    H22  257   1.905   1.957   6.121
    1MOL    C15  258   1.732   1.940   6.246
    1MOL    H23  259   1.728   2.050   6.253
    1MOL    H24  260   1.788   1.902   6.334
    1MOL    O12  261   1.602   1.884   6.240
    1MOL    H25  262   1.548   1.926   6.308
    1MOL    C16  263   1.819   1.732   5.887
    1MOL    H26  264   1.721   1.685   5.902
    1MOL    O13  265   1.874   1.674   5.770
    1MOL    H27  266   1.972   1.677   5.775
    1MOL    C17  267   1.799   1.882   5.869
    1MOL    H28  268   1.897   1.929   5.855
    1MOL    O14  269   1.716   1.909   5.756
    1MOL    H29  270   1.749   1.852   5.684
    1MOL    C18  271   1.733   1.943   5.992
    1MOL    H30  272   1.629   1.909   5.999
    1MOL    O15  273   1.739   2.085   5.976
    1MOL    C19  274   1.623   2.164   5.992
    1MOL    H31  275   1.534   2.101   6.005
    1MOL    O16  276   1.631   2.245   6.108
    1MOL    C20  277   1.746   2.332   6.112
    1MOL    H32  278   1.837   2.271   6.114
    1MOL    C21  279   1.739   2.411   6.242
    1MOL    H33  280   1.836   2.460   6.257
    1MOL    H34  281   1.722   2.340   6.324
    1MOL    O17  282   1.633   2.506   6.233
    1MOL    H35  283   1.641   2.565   6.310
    1MOL    C22  284   1.611   2.252   5.867
    1MOL    H36  285   1.522   2.314   5.877
    1MOL    O18  286   1.596   2.178   5.747
    1MOL    H37  287   1.653   2.099   5.750
    1MOL    C23  288   1.734   2.343   5.859
    1MOL    H38  289   1.823   2.280   5.845
    1MOL    O19  290   1.723   2.435   5.751
    1MOL    H39  291   1.694   2.383   5.674
    1MOL    C24  292   1.753   2.423   5.987
    1MOL    H40  293   1.676   2.500   5.994
    1MOL    O20  294   1.883   2.482   5.978
    1MOL    C25  295   1.905   2.615   6.018
    1MOL    H41  296   1.810   2.663   6.046
    1MOL    O21  297   1.986   2.621   6.133
    1MOL    C26  298   2.115   2.556   6.118
    1MOL    H42  299   2.097   2.452   6.090
    1MOL    C27  300   2.186   2.558   6.255
    1MOL    H43  301   2.243   2.466   6.267
    1MOL    H44  302   2.108   2.559   6.332
    1MOL    O22  303   2.269   2.671   6.276
    1MOL    H45  304   2.360   2.641   6.258
    1MOL    C28  305   1.972   2.687   5.900
    1MOL    H46  306   1.984   2.793   5.926
    1MOL    O23  307   1.895   2.683   5.781
    1MOL    H47  308   1.857   2.593   5.771
    1MOL    C29  309   2.111   2.626   5.877
    1MOL    H48  310   2.099   2.522   5.845
    1MOL    O24  311   2.183   2.700   5.778
    1MOL    H49  312   2.120   2.713   5.705
    1MOL    C30  313   2.192   2.627   6.006
    1MOL    H50  314   2.214   2.730   6.037
    1MOL    O25  315   2.314   2.558   5.977
    1MOL    C31  316   2.437   2.617   6.011
    1MOL    H51  317   2.424   2.723   6.036
    1MOL    O26  318   2.494   2.557   6.127
    1MOL    C32  319   2.515   2.414   6.116
    1MOL    H52  320   2.419   2.365   6.095
    1MOL    C33  321   2.565   2.366   6.253
    1MOL    H53  322   2.620   2.449   6.300
    1MOL    H54  323   2.635   2.283   6.240
    1MOL    O27  324   2.458   2.329   6.339
    1MOL    H55  325   2.453   2.231   6.338
    1MOL    C34  326   2.531   2.599   5.891
    1MOL    H56  327   2.626   2.650   5.914
    1MOL    O28  328   2.481   2.658   5.772
    1MOL    H57  329   2.383   2.650   5.772
    1MOL    C35  330   2.559   2.450   5.871
    1MOL    H58  331   2.464   2.402   5.844
    1MOL    O29  332   2.655   2.429   5.768
    1MOL    H59  333   2.627   2.485   5.694
    1MOL    C36  334   2.609   2.384   5.998
    1MOL    H60  335   2.712   2.418   6.020
    1MOL    O30  336   2.610   2.244   5.970
    2SOL     OW  337   0.230   0.628   0.113
    2SOL    HW1  338   0.137   0.626   0.150
    2SOL    HW2  339   0.231   0.589   0.021
    3SOL     OW  340   0.225   0.275   0.996
    3SOL    HW1  341   0.260   0.258   1.088
    3SOL    HW2  342   0.137   0.230   0.984
    4SOL     OW  343   0.019   0.368   0.647
    4SOL    HW1  344  -0.063   0.411   0.686
    4SOL    HW2  345  -0.009   0.295   0.584
    5SOL     OW  346   0.569   1.275   1.165
    5SOL    HW1  347   0.476   1.268   1.128
    5SOL    HW2  348   0.580   1.364   1.209
    6SOL     OW  349   1.555   1.511   0.703
    6SOL    HW1  350   1.498   1.495   0.784
    6SOL    HW2  351   1.496   1.521   0.623
    7SOL     OW  352   1.135   0.703   0.717
    7SOL    HW1  353   1.192   0.781   0.692
    7SOL    HW2  354   1.075   0.729   0.793
    8SOL     OW  355   1.755   0.607   0.231
    8SOL    HW1  356   1.743   0.594   0.132
    8SOL    HW2  357   1.725   0.526   0.280
    9SOL     OW  358   0.768   1.144   1.023
    9SOL    HW1  359   0.690   1.161   1.083
    9SOL    HW2  360   0.802   1.231   0.987
   10SOL     OW  361   0.850   0.798   1.823
   10SOL    HW1  362   0.846   0.874   1.888
   10SOL    HW2  363   0.872   0.834   1.732
   11SOL     OW  364   0.685   1.012   0.665
   11SOL    HW1  365   0.754   0.996   0.735
   11SOL    HW2  366   0.612   1.069   0.703
   12SOL     OW  367   0.686   1.161   1.803
   12SOL    HW1  368   0.746   1.240   1.817
   12SOL    HW2  369   0.600   1.192   1.762
   13SOL     OW  370   0.335   1.435   1.061
   13SOL    HW1  371   0.257   1.404   1.008
   13SOL    HW2  372   0.393   1.493   1.004
   14SOL     OW  373   1.460   1.505   1.339
   14SOL    HW1  374   1.484   1.599   1.365
   14SOL    HW2  375   1.444   1.451   1.421
   15SOL     OW  376   0.438   0.392   1.499
   15SOL    HW1  377   0.520   0.336   1.508
   15SOL    HW2  378   0.357   0.334   1.503
   16SOL     OW  379   1.603   0.447   0.737
   16SOL    HW1  380   1.529   0.493   0.687
   16SOL    HW2  381   1.654   0.515   0.790
   17SOL     OW  382   0.231   1.713   0.483
   17SOL    HW1  383   0.265   1.790   0.537
   17SOL    HW2  384   0.275   1.713   0.393
   18SOL     OW  385   1.127   1.341   1.690
   18SOL    HW1  386   1.174   1.341   1.778
   18SOL    HW2  387   1.079   1.254   1.679
   19SOL     OW  388   0.230   1.434   0.538
   19SOL    HW1  389   0.204   1.530   0.538
   19SOL    HW2  390   0.159   1.380   0.583
   20SOL     OW  391   0.240   1.091   0.886
   20SOL    HW1  392   0.254   1.007   0.938
   20SOL    HW2  393   0.185   1.155   0.941
   21SOL     OW  394   0.620   1.786   1.439
   21SOL    HW1  395   0.528   1.769   1.474
   21SOL    HW2  396   0.648   1.878   1.465
   22SOL     OW  397   0.606   0.964   0.123
   22SOL    HW1  398   0.613   1.048   0.069
   22SOL    HW2  399   0.652   0.977   0.211
   23SOL     OW  400   1.594   0.114   1.480
   23SOL    HW1  401   1.576   0.181   1.408
   23SOL    HW2  402   1.591   0.160   1.569
   24SOL     OW  403   0.122   0.643   0.563
   24SOL    HW1  404   0.077   0.555   0.580
   24SOL    HW2  405   0.121   0.697   0.647
   25SOL     OW  406   1.842   1.767   0.359
   25SOL    HW1  407   1.896   1.738   0.439
   25SOL    HW2  408   1.872   1.857   0.330
   26SOL     OW  409   0.027   1.596   0.117
   26SOL    HW1  410   0.008   1.500   0.138
   26SOL    HW2  411  -0.006   1.654   0.192
   27SOL     OW  412   1.689   0.922   0.612
   27SOL    HW1  413   1.784   0.893   0.620
   27SOL    HW2  414   1.681   0.987   0.537
   28SOL     OW  415   1.641   1.108   0.432
   28SOL    HW1  416   1.727   1.110   0.380
   28SOL    HW2  417   1.655   1.155   0.520
   29SOL     OW  418   0.113   0.737   1.597
   29SOL    HW1  419   0.201   0.724   1.642
   29SOL    HW2  420   0.100   0.834   1.575
   30SOL     OW  421   0.613   1.365   0.726
   30SOL    HW1  422   0.564   1.278   0.735
   30SOL    HW2  423   0.590   1.408   0.639
   31SOL     OW  424   1.293   1.228   1.423
   31SOL    HW1  425   1.330   1.155   1.365
   31SOL    HW2  426   1.345   1.233   1.508
   32SOL     OW  427   0.809   0.004   0.502
   32SOL    HW1  428   0.849   0.095   0.493
   32SOL    HW2  429   0.709   0.012   0.508
   33SOL     OW  430   0.197   0.976   1.264
   33SOL    HW1  431   0.286   0.931   1.250
   33SOL    HW2  432   0.124   0.911   1.245
   34SOL     OW  433   1.525   0.999   0.190
   34SOL    HW1  434   1.462   0.923   0.203
   34SOL    HW2  435   1.573   1.017   0.276
   35SOL     OW  436   1.187   1.792   1.616
   35SOL    HW1  437   1.211   1.852   1.540
   35SOL    HW2  438   1.194   1.697   1.586
   36SOL     OW  439   0.317   0.251   1.801
   36SOL    HW1  440   0.388   0.322   1.807
   36SOL    HW2  441   0.229   0.290   1.829
   37SOL     OW  442   1.466   1.417   0.953
   37SOL    HW1  443   1.407   1.423   1.033
   37SOL    HW2  444   1.451   1.329   0.907
   38SOL     OW  445   1.667   1.714   0.572
   38SOL    HW1  446   1.626   1.691   0.484
   38SOL    HW2  447   1.649   1.640   0.637
   39SOL     OW  448   0.598   0.729   0.270
   39SOL    HW1  449   0.622   0.798   0.202
   39SOL    HW2  450   0.520   0.762   0.324
   40SOL     OW  451   1.281   0.345   0.944
   40SOL    HW1  452   1.195   0.295   0.931
   40SOL    HW2  453   1.343   0.291   1.000
   41SOL     OW  454   1.576   1.662   0.307
   41SOL    HW1  455   1.665   1.708   0.310
   41SOL    HW2  456   1.555   1.638   0.212
   42SOL     OW  457   0.807   0.605   1.465
   42SOL    HW1  458   0.760   0.602   1.554
   42SOL    HW2  459   0.756   0.550   1.399
   43SOL     OW  460   1.394   0.469   1.674
   43SOL    HW1  461   1.374   0.512   1.762
   43SOL    HW2  462   1.472   0.407   1.683
   44SOL     OW  463   0.973   0.890   1.572
   44SOL    HW1  464   1.019   0.806   1.543
   44SOL    HW2  465   0.917   0.924   1.497
   45SOL     OW  466   0.991   0.410   1.242
   45SOL    HW1  467   0.914   0.444   1.296
   45SOL    HW2  468   0.957   0.359   1.163
   46SOL     OW  469   1.041   0.701   0.429
   46SOL    HW1  470   1.067   0.697   0.525
   46SOL    HW2  471   0.956   0.650   0.415
   47SOL     OW  472   0.076   0.811   0.789
   47SOL    HW1  473   0.175   0.799   0.798
   47SOL    HW2  474   0.052   0.906   0.810
   48SOL     OW  475   0.130   1.821   1.571
   48SOL    HW1  476   0.120   1.806   1.670
   48SOL    HW2  477   0.044   1.857   1.535
   49SOL     OW  478   0.865   0.348   0.195
   49SOL    HW1  479   0.924   0.411   0.146
   49SOL    HW2  480   0.884   0.254   0.166
   50SOL     OW  481   1.719   0.585   1.831
   50SOL    HW1  482   1.693   0.674   1.795
   50SOL    HW2  483   1.717   0.517   1.758
   51SOL     OW  484   1.362   1.144   0.545
   51SOL    HW1  485   1.445   1.115   0.497
   51SOL    HW2  486   1.313   1.211   0.489
   52SOL     OW  487   0.550   0.196   0.885
   52SOL    HW1  488   0.545   0.191   0.985
   52SOL    HW2  489   0.552   0.292   0.856
   53SOL     OW  490   1.008   1.456   0.477
   53SOL    HW1  491   0.962   1.528   0.425
   53SOL    HW2  492   1.004   1.476   0.575
   54SOL     OW  493   0.351   1.801   0.853
   54SOL    HW1  494   0.401   1.715   0.859
   54SOL    HW2  495   0.416   1.878   0.850
   55SOL     OW  496   1.795   1.066   0.873
   55SOL    HW1  497   1.733   1.051   0.797
   55SOL    HW2  498   1.743   1.077   0.958
   56SOL     OW  499   1.227   1.550   1.506
   56SOL    HW1  500   1.233   1.473   1.570
   56SOL    HW2  501   1.175   1.524   1.426
   57SOL     OW  502   0.321   0.943   0.242
   57SOL    HW1  503   0.403   0.982   0.200
   57SOL    HW2  504   0.294   0.861   0.193
   58SOL     OW  505   1.458   0.735   0.728
   58SOL    HW1  506   1.453   0.670   0.803
   58SOL    HW2  507   1.538   0.794   0.741
   59SOL     OW  508   0.461   1.266   1.727
   59SOL    HW1  509   0.411   1.267   1.641
   59SOL    HW2  510   0.398   1.248   1.803
   60SOL     OW  511   1.111   1.776   0.237
   60SOL    HW1  512   1.051   1.714   0.287
   60SOL    HW2  513   1.142   1.732   0.152
   61SOL     OW  514   0.202   0.285   1.498
   61SOL    HW1  515   0.122   0.345   1.485
   61SOL    HW2  516   0.192   0.236   1.584
   62SOL     OW  517   1.632   1.377   0.081
   62SOL    HW1  518   1.600   1.471   0.071
   62SOL    HW2  519   1.556   1.314   0.069
   63SOL     OW  520   0.464   1.743   0.323
   63SOL    HW1  521   0.497   1.782   0.409
   63SOL    HW2  522   0.540   1.736   0.258
   64SOL     OW  523   1.400   0.107   0.426
   64SOL    HW1  524   1.376   0.070   0.336
   64SOL    HW2  525   1.499   0.123   0.430
   65SOL     OW  526   0.249   1.785   1.241
   65SOL    HW1  527   0.306   1.720   1.291
   65SOL    HW2  528   0.233   1.752   1.148
   66SOL     OW  529   0.940   1.698   0.904
   66SOL    HW1  530   1.020   1.641   0.925
   66SOL    HW2  531   0.891   1.658   0.827
   67SOL     OW  532   0.382   0.700   0.480
   67SOL    HW1  533   0.427   0.610   0.477
   67SOL    HW2  534   0.288   0.689   0.513
   68SOL     OW  535   1.547   0.222   1.729
   68SOL    HW1  536   1.542   0.259   1.821
   68SOL    HW2  537   1.475   0.153   1.717
   69SOL     OW  538   0.614   0.122   0.117
   69SOL    HW1  539   0.712   0.100   0.124
   69SOL    HW2  540   0.583   0.105   0.024
   70SOL     OW  541   0.781   0.264   1.749
   70SOL    HW1  542   0.848   0.203   1.792
   70SOL    HW2  543   0.708   0.283   1.814
   71SOL     OW  544   0.888   1.514   1.195
   71SOL    HW1  545   0.865   1.489   1.101
   71SOL    HW2  546   0.949   1.445   1.234
   72SOL     OW  547   1.351   0.590   1.433
   72SOL    HW1  548   1.379   0.547   1.518
   72SOL    HW2  549   1.376   0.686   1.434
   73SOL     OW  550   0.803   1.402   0.924
   73SOL    HW1  551   0.893   1.416   0.882
   73SOL    HW2  552   0.732   1.404   0.853
   74SOL     OW  553   0.922   0.503   0.899
   74SOL    HW1  554   0.897   0.494   0.803
   74SOL    HW2  555   0.970   0.421   0.930
   75SOL     OW  556   0.539   0.064   0.512
   75SOL    HW1  557   0.458   0.065   0.570
   75SOL    HW2  558   0.542   0.147   0.457
   76SOL     OW  559   1.434   1.188   0.041
   76SOL    HW1  560   1.466   1.112   0.098
   76SOL    HW2  561   1.342   1.215   0.071
   77SOL     OW  562   0.297   0.035   0.171
   77SOL    HW1  563   0.346   0.119   0.150
   77SOL    HW2  564   0.359  -0.030   0.216
   78SOL     OW  565   0.935   0.236   0.480
   78SOL    HW1  566   0.887   0.277   0.402
   78SOL    HW2  567   1.034   0.234   0.461
   79SOL     OW  568   1.076   0.683   1.464
   79SOL    HW1  569   0.996   0.622   1.467
   79SOL    HW2  570   1.157   0.630   1.440
   80SOL     OW  571   1.227   1.570   0.793
   80SOL    HW1  572   1.248   1.644   0.728
   80SOL    HW2  573   1.295   1.570   0.866
   81SOL     OW  574   0.459   1.152   0.741
   81SOL    HW1  575   0.388   1.125   0.806
   81SOL    HW2  576   0.433   1.124   0.648
   82SOL     OW  577   1.271   1.797   0.591
   82SOL    HW1  578   1.315   1.861   0.527
   82SOL    HW2  579   1.221   1.849   0.661
   83SOL     OW  580   1.032   0.549   0.016
   83SOL    HW1  581   0.991   0.631  -0.023
   83SOL    HW2  582   1.096   0.575   0.089
   84SOL     OW  583   0.078   0.556   1.386
   84SOL    HW1  584   0.170   0.555   1.345
   84SOL    HW2  585   0.072   0.630   1.453
   85SOL     OW  586   0.561   0.222   1.147
   85SOL    HW1  587   0.599   0.138   1.184
   85SOL    HW2  588   0.473   0.241   1.191
   86SOL     OW  589   0.866   0.454   0.642
   86SOL    HW1  590   0.834   0.526   0.580
   86SOL    HW2  591   0.890   0.373   0.589
   87SOL     OW  592   1.017   0.039   0.753
   87SOL    HW1  593   0.945   0.044   0.684
   87SOL    HW2  594   0.993  -0.030   0.822
   88SOL     OW  595   1.429   1.173   0.867
   88SOL    HW1  596   1.374   1.089   0.860
   88SOL    HW2  597   1.455   1.202   0.775
   89SOL     OW  598   1.466   0.590   0.992
   89SOL    HW1  599   1.436   0.495   0.999
   89SOL    HW2  600   1.539   0.606   1.058
   90SOL     OW  601   1.857   0.833   0.377
   90SOL    HW1  602   1.899   0.769   0.441
   90SOL    HW2  603   1.819   0.782   0.299
   91SOL     OW  604   0.488   1.385   0.174
   91SOL    HW1  605   0.401   1.370   0.221
   91SOL    HW2  606   0.471   1.411   0.079
   92SOL     OW  607   1.664   1.280   0.657
   92SOL    HW1  608   1.763   1.288   0.671
   92SOL    HW2  609   1.619   1.364   0.688
   93SOL     OW  610   1.390   0.575   0.078
   93SOL    HW1  611   1.336   0.554   0.159
   93SOL    HW2  612   1.481   0.534   0.087
   94SOL     OW  613   0.527   0.256   0.328
   94SOL    HW1  614   0.554   0.197   0.253
   94SOL    HW2  615   0.527   0.351   0.297
   95SOL     OW  616   1.754   1.223   1.588
   95SOL    HW1  617   1.845   1.184   1.575
   95SOL    HW2  618   1.762   1.319   1.612
   96SOL     OW  619   1.064   1.347   1.340
   96SOL    HW1  620   0.984   1.324   1.395
   96SOL    HW2  621   1.147   1.321   1.389
   97SOL     OW  622   1.592   1.629   1.625
   97SOL    HW1  623   1.619   1.663   1.535
   97SOL    HW2  624   1.671   1.591   1.671
   98SOL     OW  625   1.111   1.195   1.100
   98SOL    HW1  626   1.071   1.239   1.181
   98SOL    HW2  627   1.070   1.232   1.017
   99SOL     OW  628   1.638   1.099   1.079
   99SOL    HW1  629   1.643   1.180   1.138
   99SOL    HW2  630   1.552   1.101   1.028
  100SOL     OW  631   0.915   0.089   1.402
  100SOL    HW1  632   0.940   0.069   1.307
  100SOL    HW2  633   0.987   0.145   1.444
  101SOL     OW  634   0.980   1.116   1.719
  101SOL    HW1  635   0.881   1.122   1.729
  101SOL    HW2  636   1.003   1.036   1.663
  102SOL     OW  637   0.705   1.050   0.368
  102SOL    HW1  638   0.691   1.057   0.467
  102SOL    HW2  639   0.789   0.999   0.350
  103SOL     OW  640   0.410   0.813   1.251
  103SOL    HW1  641   0.496   0.825   1.301
  103SOL    HW2  642   0.368   0.726   1.278
  104SOL     OW  643   1.274   0.386   1.262
  104SOL    HW1  644   1.295   0.460   1.326
  104SOL    HW2  645   1.185   0.403   1.219
  105SOL     OW  646   0.064   1.564   1.331
  105SOL    HW1  647   0.018   1.646   1.297
  105SOL    HW2  648   0.162   1.583   1.340
  106SOL     OW  649   0.367   1.100   0.501
  106SOL    HW1  650   0.360   1.183   0.445
  106SOL    HW2  651   0.371   1.020   0.441
  107SOL     OW  652   0.566   0.537   0.865
  107SOL    HW1  653   0.578   0.603   0.791
  107SOL    HW2  654   0.612   0.571   0.948
  108SOL     OW  655   1.252   1.348   0.388
  108SOL    HW1  656   1.302   1.425   0.428
  108SOL    HW2  657   1.157   1.350   0.420
  109SOL     OW  658   1.272   1.445   1.142
  109SOL    HW1  659   1.319   1.458   1.229
  109SOL    HW2  660   1.206   1.371   1.151
  110SOL     OW  661   1.582   0.639   0.472
  110SOL    HW1  662   1.551   0.700   0.545
  110SOL    HW2  663   1.632   0.691   0.403
  111SOL     OW  664   0.354   1.510   1.329
  111SOL    HW1  665   0.333   1.466   1.242
  111SOL    HW2  666   0.451   1.536   1.332
  112SOL     OW  667   0.402   0.751   1.598
  112SOL    HW1  668   0.470   0.806   1.551
  112SOL    HW2  669   0.442   0.663   1.625
  113SOL     OW  670   1.587   0.779   1.670
  113SOL    HW1  671   1.495   0.817   1.665
  113SOL    HW2  672   1.647   0.826   1.605
  114SOL     OW  673   1.013   0.105   1.770
  114SOL    HW1  674   1.019   0.190   1.718
  114SOL    HW2  675   1.045   0.029   1.713
  115SOL     OW  676   0.504   0.050   1.740
  115SOL    HW1  677   0.462  -0.007   1.670
  115SOL    HW2  678   0.438   0.119   1.772
  116SOL     OW  679   0.573   0.870   1.029
  116SOL    HW1  680   0.617   0.959   1.020
  116SOL    HW2  681   0.510   0.870   1.106
  117SOL     OW  682   1.360   0.862   1.045
  117SOL    HW1  683   1.285   0.862   0.979
  117SOL    HW2  684   1.397   0.770   1.054
  118SOL     OW  685   1.209   0.525   0.275
  118SOL    HW1  686   1.222   0.441   0.329
  118SOL    HW2  687   1.180   0.599   0.335
  119SOL     OW  688   0.307   0.213   1.231
  119SOL    HW1  689   0.284   0.250   1.321
  119SOL    HW2  690   0.277   0.118   1.225
  120SOL     OW  691   0.037   1.310   1.282
  120SOL    HW1  692   0.090   1.261   1.350
  120SOL    HW2  693   0.059   1.408   1.287
  121SOL     OW  694   0.732   0.634   1.064
  121SOL    HW1  695   0.791   0.608   0.988
  121SOL    HW2  696   0.704   0.730   1.053
  122SOL     OW  697   1.728   0.935   1.854
  122SOL    HW1  698   1.682   0.928   1.765
  122SOL    HW2  699   1.666   0.979   1.920
  123SOL     OW  700   0.307   0.063   0.618
  123SOL    HW1  701   0.296   0.157   0.651
  123SOL    HW2  702   0.302   0.000   0.695
  124SOL     OW  703   1.622   0.367   0.374
  124SOL    HW1  704   1.624   0.291   0.438
  124SOL    HW2  705   1.574   0.444   0.414
  125SOL     OW  706   1.023   0.766   0.966
  125SOL    HW1  707   1.038   0.787   1.062
  125SOL    HW2  708   0.993   0.671   0.957
  126SOL     OW  709   0.980   1.573   1.700
  126SOL    HW1  710   0.960   1.617   1.612
  126SOL    HW2  711   1.019   1.482   1.684
  127SOL     OW  712   1.859   1.518   1.605
  127SOL    HW1  713   1.873   1.545   1.510
  127SOL    HW2  714   1.942   1.540   1.658
  128SOL     OW  715   0.350   0.898   1.804
  128SOL    HW1  716   0.426   0.942   1.852
  128SOL    HW2  717   0.385   0.851   1.722
  129SOL     OW  718   1.540   0.274   0.125
  129SOL    HW1  719   1.479   0.199   0.148
  129SOL    HW2  720   1.562   0.326   0.208
  130SOL     OW  721   1.303   0.838   0.042
  130SOL    HW1  722   1.337   0.745   0.057
  130SOL    HW2  723   1.321   0.865  -0.053
  131SOL     OW  724   1.068   1.333   0.849
  131SOL    HW1  725   1.075   1.249   0.794
  131SOL    HW2  726   1.130   1.402   0.813
  132SOL     OW  727   0.319   0.810   0.949
  132SOL    HW1  728   0.412   0.846   0.954
  132SOL    HW2  729   0.313   0.725   1.001
  133SOL     OW  730   0.339   0.509   1.006
  133SOL    HW1  731   0.287   0.426   0.989
  133SOL    HW2  732   0.416   0.514   0.942
  134SOL     OW  733   1.138   0.380   1.678
  134SOL    HW1  734   1.093   0.443   1.742
  134SOL    HW2  735   1.231   0.411   1.661
  135SOL     OW  736   1.160   0.207   1.477
  135SOL    HW1  737   1.160   0.271   1.554
  135SOL    HW2  738   1.188   0.255   1.394
  136SOL     OW  739   0.008   1.326   0.200
  136SOL    HW1  740  -0.085   1.347   0.169
  136SOL    HW2  741   0.018   1.227   0.213
  137SOL     OW  742   0.088   1.801   0.927
  137SOL    HW1  743   0.046   1.715   0.900
  137SOL    HW2  744   0.182   1.804   0.893
  138SOL     OW  745   0.504   1.568   0.910
  138SOL    HW1  746   0.570   1.642   0.919
  138SOL    HW2  747   0.548   1.489   0.868
  139SOL     OW  748   1.002   0.796   1.238
  139SOL    HW1  749   1.043   0.764   1.324
  139SOL    HW2  750   0.906   0.769   1.235
  140SOL     OW  751   0.040   0.544   1.114
  140SOL    HW1  752   0.125   0.511   1.073
  140SOL    HW2  753   0.053   0.559   1.212
  141SOL     OW  754   0.189   0.520   1.722
  141SOL    HW1  755   0.248   0.480   1.652
  141SOL    HW2  756   0.131   0.591   1.681
  142SOL     OW  757   1.369   0.950   1.660
  142SOL    HW1  758   1.408   1.039   1.680
  142SOL    HW2  759   1.379   0.930   1.563
  143SOL     OW  760   0.815   0.572   0.325
  143SOL    HW1  761   0.822   0.483   0.279
  143SOL    HW2  762   0.721   0.606   0.317
  144SOL     OW  763   1.657   0.604   1.206
  144SOL    HW1  764   1.619   0.535   1.268
  144SOL    HW2  765   1.739   0.568   1.162
  145SOL     OW  766   0.252   1.564   1.744
  145SOL    HW1  767   0.222   1.621   1.820
  145SOL    HW2  768   0.245   1.467   1.770
  146SOL     OW  769   0.671   0.464   1.269
  146SOL    HW1  770   0.637   0.375   1.239
  146SOL    HW2  771   0.697   0.518   1.189
  147SOL     OW  772   0.930   1.678   1.465
  147SOL    HW1  773   0.906   1.660   1.370
  147SOL    HW2  774   0.960   1.772   1.475
  148SOL     OW  775   0.473   0.500   0.191
  148SOL    HW1  776   0.534   0.580   0.195
  148SOL    HW2  777   0.378   0.531   0.198
  149SOL     OW  778   0.159   1.137   1.466
  149SOL    HW1  779   0.181   1.076   1.542
  149SOL    HW2  780   0.169   1.088   1.380
  150SOL     OW  781   1.347   1.059   1.234
  150SOL    HW1  782   1.371   0.996   1.160
  150SOL    HW2  783   1.257   1.099   1.216
  151SOL     OW  784   1.302   0.855   0.309
  151SOL    HW1  785   1.216   0.824   0.351
  151SOL    HW2  786   1.298   0.841   0.210
  152SOL     OW  787   1.759   1.747   1.154
  152SOL    HW1  788   1.820   1.777   1.081
  152SOL    HW2  789   1.721   1.658   1.132
  153SOL     OW  790   1.252   1.731   1.128
  153SOL    HW1  791   1.336   1.736   1.074
  153SOL    HW2  792   1.229   1.635   1.146
  154SOL     OW  793   0.083   1.258   1.022
  154SOL    HW1  794   0.078   1.257   1.122
  154SOL    HW2  795   0.000   1.217   0.984
  155SOL     OW  796   0.688   1.662   1.716
  155SOL    HW1  797   0.632   1.743   1.725
  155SOL    HW2  798   0.740   1.666   1.630
  156SOL     OW  799   0.903   0.086   0.133
  156SOL    HW1  800   0.954   0.087   0.047
  156SOL    HW2  801   0.959   0.044   0.204
  157SOL     OW  802   1.726   0.135   0.523
  157SOL    HW1  803   1.799   0.118   0.456
  157SOL    HW2  804   1.695   0.048   0.561
  158SOL     OW  805   1.388   1.573   0.477
  158SOL    HW1  806   1.455   1.585   0.403
  158SOL    HW2  807   1.348   1.662   0.500
  159SOL     OW  808   0.130   1.794   1.851
  159SOL    HW1  809   0.089   1.720   1.904
  159SOL    HW2  810   0.194   1.845   1.909
  160SOL     OW  811   1.280   0.927   0.672
  160SOL    HW1  812   1.340   0.846   0.674
  160SOL    HW2  813   1.320   0.996   0.612
  161SOL     OW  814   0.830   1.273   1.422
  161SOL    HW1  815   0.825   1.306   1.517
  161SOL    HW2  816   0.744   1.292   1.376
  162SOL     OW  817   0.672   1.616   0.154
  162SOL    HW1  818   0.681   1.626   0.055
  162SOL    HW2  819   0.632   1.527   0.175
  163SOL     OW  820   1.650   1.720   1.394
  163SOL    HW1  821   1.703   1.730   1.310
  163SOL    HW2  822   1.623   1.810   1.428
  164SOL     OW  823   1.841   0.175   0.963
  164SOL    HW1  824   1.880   0.090   0.927
  164SOL    HW2  825   1.743   0.177   0.944
  165SOL     OW  826   0.263   0.326   0.720
  165SOL    HW1  827   0.184   0.377   0.686
  165SOL    HW2  828   0.254   0.311   0.818
  166SOL     OW  829   1.194   1.612   0.031
  166SOL    HW1  830   1.200   1.519   0.068
  166SOL    HW2  831   1.135   1.612  -0.049
  167SOL     OW  832   0.822   1.002   1.372
  167SOL    HW1  833   0.862   1.001   1.280
  167SOL    HW2  834   0.832   1.094   1.412
  168SOL     OW  835   0.916   0.910   0.291
  168SOL    HW1  836   0.979   0.948   0.223
  168SOL    HW2  837   0.956   0.827   0.330
  169SOL     OW  838   1.504   1.607   0.044
  169SOL    HW1  839   1.412   1.644   0.051
  169SOL    HW2  840   1.542   1.627  -0.046
  170SOL     OW  841   0.372   1.288   1.490
  170SOL    HW1  842   0.359   1.381   1.456
  170SOL    HW2  843   0.288   1.236   1.477
  171SOL     OW  844   1.614   1.292   1.289
  171SOL    HW1  845   1.674   1.295   1.369
  171SOL    HW2  846   1.539   1.356   1.302
  172SOL     OW  847   1.039   1.098   0.696
  172SOL    HW1  848   0.969   1.051   0.750
  172SOL    HW2  849   1.098   1.030   0.653
  173SOL     OW  850   1.014   0.236   0.971
  173SOL    HW1  851   1.006   0.200   0.878
  173SOL    HW2  852   1.012   0.160   1.036
  174SOL     OW  853   0.590   1.487   0.491
  174SOL    HW1  854   0.632   1.429   0.421
  174SOL    HW2  855   0.546   1.566   0.447
  175SOL     OW  856   1.709   0.385   1.381
  175SOL    HW1  857   1.782   0.454   1.385
  175SOL    HW2  858   1.737   0.310   1.322
  176SOL     OW  859   0.255   1.348   0.290
  176SOL    HW1  860   0.159   1.349   0.263
  176SOL    HW2  861   0.267   1.401   0.374
  177SOL     OW  862   0.105   1.013   1.726
  177SOL    HW1  863   0.028   0.980   1.780
  177SOL    HW2  864   0.190   0.983   1.768
  178SOL     OW  865   0.672   0.203   1.489
  178SOL    HW1  866   0.762   0.187   1.449
  178SOL    HW2  867   0.680   0.208   1.588
  179SOL     OW  868   0.075   0.345   0.033
  179SOL    HW1  869  -0.017   0.317   0.004
  179SOL    HW2  870   0.106   0.422  -0.023
  180SOL     OW  871   1.440   0.856   1.398
  180SOL    HW1  872   1.383   0.908   1.335
  180SOL    HW2  873   1.536   0.868   1.374
  181SOL     OW  874   0.072   0.166   0.318
  181SOL    HW1  875   0.055   0.249   0.264
  181SOL    HW2  876   0.162   0.129   0.296
  182SOL     OW  877   1.183   1.335   0.119
  182SOL    HW1  878   1.084   1.324   0.121
  182SOL    HW2  879   1.217   1.350   0.212
  183SOL     OW  880   0.613   0.842   1.431
  183SOL    HW1  881   0.669   0.923   1.414
  183SOL    HW2  882   0.672   0.762   1.434
  184SOL     OW  883   1.493   1.767   0.959
  184SOL    HW1  884   1.526   1.831   0.890
  184SOL    HW2  885   1.559   1.761   1.034
  185SOL     OW  886   0.716   0.565   1.708
  185SOL    HW1  887   0.735   0.630   1.782
  185SOL    HW2  888   0.776   0.485   1.717
  186SOL     OW  889   1.450   1.220   1.633
  186SOL    HW1  890   1.441   1.210   1.732
  186SOL    HW2  891   1.546   1.213   1.607
  187SOL     OW  892   0.390   1.741   1.560
  187SOL    HW1  893   0.299   1.782   1.558
  187SOL    HW2  894   0.383   1.647   1.592
  188SOL     OW  895   1.674   0.883   1.254
  188SOL    HW1  896   1.647   0.794   1.217
  188SOL    HW2  897   1.675   0.951   1.181
  189SOL     OW  898   1.225   0.325   0.449
  189SOL    HW1  899   1.290   0.251   0.438
  189SOL    HW2  900   1.245   0.375   0.533
  190SOL     OW  901   0.594   0.745   0.652
  190SOL    HW1  902   0.644   0.830   0.633
  190SOL    HW2  903   0.506   0.747   0.604
  191SOL     OW  904   1.777   0.342   1.642
  191SOL    HW1  905   1.760   0.373   1.548
  191SOL    HW2  906   1.693   0.305   1.680
  192SOL     OW  907   1.730   0.934   1.517
  192SOL    HW1  908   1.768   1.025   1.532
  192SOL    HW2  909   1.722   0.917   1.418
  193SOL     OW  910   0.859   1.374   0.016
  193SOL    HW1  911   0.813   1.389   0.104
  193SOL    HW2  912   0.903   1.459  -0.014
  194SOL     OW  913   0.661   1.790   0.953
  194SOL    HW1  914   0.615   1.878   0.940
  194SOL    HW2  915   0.760   1.802   0.946
  195SOL     OW  916   0.859   0.956   0.861
  195SOL    HW1  917   0.913   0.887   0.909
  195SOL    HW2  918   0.827   1.025   0.927
  196SOL     OW  919   1.083   0.984   0.087
  196SOL    HW1  920   1.060   1.037   0.005
  196SOL    HW2  921   1.164   0.928   0.068
  197SOL     OW  922   1.861   1.569   0.851
  197SOL    HW1  923   1.790   1.557   0.781
  197SOL    HW2  924   1.862   1.490   0.911
  198SOL     OW  925   0.221   1.314   1.844
  198SOL    HW1  926   0.156   1.241   1.823
  198SOL    HW2  927   0.225   1.328   1.942
  199SOL     OW  928   0.079   1.240   0.653
  199SOL    HW1  929   0.078   1.193   0.741
  199SOL    HW2  930   0.161   1.212   0.602
  200SOL     OW  931   0.672   1.391   1.624
  200SOL    HW1  932   0.594   1.341   1.662
  200SOL    HW2  933   0.669   1.486   1.655
  201SOL     OW  934   1.824   0.192   1.227
  201SOL    HW1  935   1.820   0.102   1.271
  201SOL    HW2  936   1.827   0.181   1.128
  202SOL     OW  937   0.428   0.424   0.520
  202SOL    HW1  938   0.458   0.352   0.458
  202SOL    HW2  939   0.389   0.384   0.603
  203SOL     OW  940   1.705   1.487   1.104
  203SOL    HW1  941   1.612   1.462   1.077
  203SOL    HW2  942   1.731   1.437   1.186
  204SOL     OW  943   0.317   0.547   1.280
  204SOL    HW1  944   0.355   0.488   1.352
  204SOL    HW2  945   0.357   0.521   1.192
  205SOL     OW  946   0.812   1.586   0.687
  205SOL    HW1  947   0.844   1.596   0.593
  205SOL    HW2  948   0.733   1.524   0.689
  206SOL     OW  949   1.424   0.214   1.112
  206SOL    HW1  950   1.476   0.149   1.167
  206SOL    HW2  951   1.375   0.277   1.173
  207SOL     OW  952   1.001   0.034   1.154
  207SOL    HW1  953   0.938  -0.038   1.123
  207SOL    HW2  954   1.094  -0.002   1.154
  208SOL     OW  955   0.770   1.330   0.301
  208SOL    HW1  956   0.724   1.243   0.318
  208SOL    HW2  957   0.861   1.327   0.342
  209SOL     OW  958   0.618   1.567   1.284
  209SOL    HW1  959   0.613   1.649   1.341
  209SOL    HW2  960   0.707   1.564   1.239
  210SOL     OW  961   1.352   0.052   0.168
  210SOL    HW1  962   1.387   0.011   0.084
  210SOL    HW2  963   1.262   0.014   0.188
  211SOL     OW  964   1.300   0.453   0.691
  211SOL    HW1  965   1.241   0.533   0.695
  211SOL    HW2  966   1.315   0.418   0.784
  212SOL     OW  967   1.593   0.221   0.882
  212SOL    HW1  968   1.509   0.220   0.936
  212SOL    HW2  969   1.595   0.304   0.826
  213SOL     OW  970   0.039   1.077   0.300
  213SOL    HW1  971   0.138   1.066   0.291
  213SOL    HW2  972  -0.001   0.991   0.332
  214SOL     OW  973   0.875   1.646   0.337
  214SOL    HW1  974   0.798   1.611   0.283
  214SOL    HW2  975   0.843   1.717   0.399
  215SOL     OW  976   0.230   0.628   1.975
  215SOL    HW1  977   0.137   0.626   2.012
  215SOL    HW2  978   0.231   0.589   1.883
  216SOL     OW  979   0.225   0.275   2.858
  216SOL    HW1  980   0.260   0.258   2.950
  216SOL    HW2  981   0.137   0.230   2.846
  217SOL     OW  982   0.019   0.368   2.509
  217SOL    HW1  983  -0.063   0.411   2.548
  217SOL    HW2  984  -0.009   0.295   2.446
  218SOL     OW  985   0.569   1.275   3.027
  218SOL    HW1  986   0.476   1.268   2.990
  218SOL    HW2  987   0.580   1.364   3.071
  219SOL     OW  988   1.555   1.511   2.565
  219SOL    HW1  989   1.498   1.495   2.646
  219SOL    HW2  990   1.496   1.521   2.485
  220SOL     OW  991   1.135   0.703   2.579
  220SOL    HW1  992   1.192   0.781   2.554
  220SOL    HW2  993   1.075   0.729   2.655
  221SOL     OW  994   1.755   0.607   2.093
  221SOL    HW1  995   1.743   0.594   1.994
  221SOL    HW2  996   1.725   0.526   2.142
  222SOL     OW  997   0.768   1.144   2.885
  222SOL    HW1  998   0.690   1.161   2.945
  222SOL    HW2  999   0.802   1.231   2.849
  223SOL     OW 1000   0.850   0.798   3.685
  223SOL    HW1 1001   0.846   0.874   3.750
  223SOL    HW2 1002   0.872   0.834   3.594
  224SOL     OW 1003   0.685   1.012   2.527
  224SOL    HW1 1004   0.754   0.996   2.597
  224SOL    HW2 1005   0.612   1.069   2.565
  225SOL     OW 1006   0.686   1.161   3.665
  225SOL    HW1 1007   0.746   1.240   3.679
  225SOL    HW2 1008   0.600   1.192   3.624
  226SOL     OW 1009   0.335   1.435   2.923
  226SOL    HW1 1010   0.257   1.404   2.870
  226SOL    HW2 1011   0.393   1.493   2.866
  227SOL     OW 1012   1.460   1.505   3.201
  227SOL    HW1 1013   1.484   1.599   3.227
  227SOL    HW2 1014   1.444   1.451   3.283
  228SOL     OW 1015   0.438   0.392   3.361
  228SOL    HW1 1016   0.520   0.336   3.370
  228SOL    HW2 1017   0.357   0.334   3.365
  229SOL     OW 1018   1.603   0.447   2.599
  229SOL    HW1 1019   1.529   0.493   2.549
  229SOL    HW2 1020   1.654   0.515   2.652
  230SOL     OW 1021   0.231   1.713   2.345
  230SOL    HW1 1022   0.265   1.790   2.399
  230SOL    HW2 1023   0.275   1.713   2.255
  231SOL     OW 1024   1.127   1.341   3.552
  231SOL    HW1 1025   1.174   1.341   3.640
  231SOL    HW2 1026   1.079   1.254   3.541
  232SOL     OW 1027   0.230   1.434   2.400
  232SOL    HW1 1028   0.204   1.530   2.400
  232SOL    HW2 1029   0.159   1.380   2.445
  233SOL     OW 1030   0.240   1.091   2.748
  233SOL    HW1 1031   0.254   1.007   2.800
  233SOL    HW2 1032   0.185   1.155   2.803
  234SOL     OW 1033   0.620   1.786   3.301
  234SOL    HW1 1034   0.528   1.769   3.336
  234SOL    HW2 1035   0.648   1.878   3.327
  235SOL     OW 1036   0.606   0.964   1.985
  235SOL    HW1 1037   0.613   1.048   1.931
  235SOL    HW2 1038   0.652   0.977   2.073
  236SOL     OW 1039   1.594   0.114   3.342
  236SOL    HW1 1040   1.576   0.181   3.270
  236SOL    HW2 1041   1.591   0.160   3.431
  237SOL     OW 1042   0.122   0.643   2.425
  237SOL    HW1 1043   0.077   0.555   2.442
  237SOL    HW2 1044   0.121   0.697   2.509
  238SOL     OW 1045   1.842   1.767   2.221
  238SOL    HW1 1046   1.896   1.738   2.301
  238SOL    HW2 1047   1.872   1.857   2.192
  239SOL     OW 1048   0.027   1.596   1.979
  239SOL    HW1 1049   0.008   1.500   2.000
  239SOL    HW2 1050  -0.006   1.654   2.054
  240SOL     OW 1051   1.689   0.922   2.474
  240SOL    HW1 1052   1.784   0.893   2.482
  240SOL    HW2 1053   1.681   0.987   2.399
  241SOL     OW 1054   1.641   1.108   2.294
  241SOL    HW1 1055   1.727   1.110   2.242
  241SOL    HW2 1056   1.655   1.155   2.382
  242SOL     OW 1057   0.113   0.737   3.459
  242SOL    HW1 1058   0.201   0.724   3.504
  242SOL    HW2 1059   0.100   0.834   3.437
  243SOL     OW 1060   0.613   1.365   2.588
  243SOL    HW1 1061   0.564   1.278   2.597
  243SOL    HW2 1062   0.590   1.408   2.501
  244SOL     OW 1063   1.293   1.228   3.285
  244SOL    HW1 1064   1.330   1.155   3.227
  244SOL    HW2 1065   1.345   1.233   3.370
  245SOL     OW 1066   0.809   0.004   2.364
  245SOL    HW1 1067   0.849   0.095   2.355
  245SOL    HW2 1068   0.709   0.012   2.370
  246SOL     OW 1069   0.197   0.976   3.126
  246SOL    HW1 1070   0.286   0.931   3.112
  246SOL    HW2 1071   0.124   0.911   3.107
  247SOL     OW 1072   1.525   0.999   2.052
  247SOL    HW1 1073   1.462   0.923   2.065
  247SOL    HW2 1074   1.573   1.017   2.138
  248SOL     OW 1075   1.187   1.792   3.478
  248SOL    HW1 1076   1.211   1.852   3.402
  248SOL    HW2 1077   1.194   1.697   3.448
  249SOL     OW 1078   0.317   0.251   3.663
  249SOL    HW1 1079   0.388   0.322   3.669
  249SOL    HW2 1080   0.229   0.290   3.691
  250SOL     OW 1081   1.466   1.417   2.815
  250SOL    HW1 1082   1.407   1.423   2.895
  250SOL    HW2 1083   1.451   1.329   2.769
  251SOL     OW 1084   1.667   1.714   2.434
  251SOL    HW1 1085   1.626   1.691   2.346
  251SOL    HW2 1086   1.649   1.640   2.499
  252SOL     OW 1087   0.598   0.729   2.132
  252SOL    HW1 1088   0.622   0.798   2.064
  252SOL    HW2 1089   0.520   0.762   2.186
  253SOL     OW 1090   1.281   0.345   2.806
  253SOL    HW1 1091   1.195   0.295   2.793
  253SOL    HW2 1092   1.343   0.291   2.862
  254SOL     OW 1093   1.576   1.662   2.169
  254SOL    HW1 1094   1.665   1.708   2.172
  254SOL    HW2 1095   1.555   1.638   2.074
  255SOL     OW 1096   0.807   0.605   3.327
  255SOL    HW1 1097   0.760   0.602   3.416
  255SOL    HW2 1098   0.756   0.550   3.261
  256SOL     OW 1099   1.394   0.469   3.536
  256SOL    HW1 1100   1.374   0.512   3.624
  256SOL    HW2 1101   1.472   0.407   3.545
  257SOL     OW 1102   0.973   0.890   3.434
  257SOL    HW1 1103   1.019   0.806   3.405
  257SOL    HW2 1104   0.917   0.924   3.359
  258SOL     OW 1105   0.991   0.410   3.104
  258SOL    HW1 1106   0.914   0.444   3.158
  258SOL    HW2 1107   0.957   0.359   3.025
  259SOL     OW 1108   1.041   0.701   2.291
  259SOL    HW1 1109   1.067   0.697   2.387
  259SOL    HW2 1110   0.956   0.650   2.277
  260SOL     OW 1111   0.076   0.811   2.651
  260SOL    HW1 1112   0.175   0.799   2.660
  260SOL    HW2 1113   0.052   0.906   2.672
  261SOL     OW 1114   0.130   1.821   3.433
  261SOL    HW1 1115   0.120   1.806   3.532
  261SOL    HW2 1116   0.044   1.857   3.397
  262SOL     OW 1117   0.865   0.348   2.057
  262SOL    HW1 1118   0.924   0.411   2.008
  262SOL    HW2 1119   0.884   0.254   2.028
  263SOL     OW 1120   1.719   0.585   3.693
  263SOL    HW1 1121   1.693   0.674   3.657
  263SOL    HW2 1122   1.717   0.517   3.620
  264SOL     OW 1123   1.362   1.144   2.407
  264SOL    HW1 1124   1.445   1.115   2.359
  264SOL    HW2 1125   1.313   1.211   2.351
  265SOL     OW 1126   0.550   0.196   2.747
  265SOL    HW1 1127   0.545   0.191   2.847
  265SOL    HW2 1128   0.552   0.292   2.718
  266SOL     OW 1129   1.008   1.456   2.339
  266SOL    HW1 1130   0.962   1.528   2.287
  266SOL    HW2 1131   1.004   1.476   2.437
  267SOL     OW 1132   0.351   1.801   2.715
  267SOL    HW1 1133   0.401   1.715   2.721
  267SOL    HW2 1134   0.416   1.878   2.712
  268SOL     OW 1135   1.795   1.066   2.735
  268SOL    HW1 1136   1.733   1.051   2.659
  268SOL    HW2 1137   1.743   1.077   2.820
  269SOL     OW 1138   1.227   1.550   3.368
  269SOL    HW1 1139   1.233   1.473   3.432
  269SOL    HW2 1140   1.175   1.524   3.288
  270SOL     OW 1141   0.321   0.943   2.104
  270SOL    HW1 1142   0.403   0.982   2.062
  270SOL    HW2 1143   0.294   0.861   2.055
  271SOL     OW 1144   1.458   0.735   2.590
  271SOL    HW1 1145   1.453   0.670   2.665
  271SOL    HW2 1146   1.538   0.794   2.603
  272SOL     OW 1147   0.461   1.266   3.589
  272SOL    HW1 1148   0.411   1.267   3.503
  272SOL    HW2 1149   0.398   1.248   3.665
  273SOL     OW 1150   1.111   1.776   2.099
  273SOL    HW1 1151   1.051   1.714   2.149
  273SOL    HW2 1152   1.142   1.732   2.014
  274SOL     OW 1153   0.202   0.285   3.360
  274SOL    HW1 1154   0.122   0.345   3.347
  274SOL    HW2 1155   0.192   0.236   3.446
  275SOL     OW 1156   1.632   1.377   1.943
  275SOL    HW1 1157   1.600   1.471   1.933
  275SOL    HW2 1158   1.556   1.314   1.931
  276SOL     OW 1159   0.464   1.743   2.185
  276SOL    HW1 1160   0.497   1.782   2.271
  276SOL    HW2 1161   0.540   1.736   2.120
  277SOL     OW 1162   1.400   0.107   2.288
  277SOL    HW1 1163   1.376   0.070   2.198
  277SOL    HW2 1164   1.499   0.123   2.292
  278SOL     OW 1165   0.249   1.785   3.103
  278SOL    HW1 1166   0.306   1.720   3.153
  278SOL    HW2 1167   0.233   1.752   3.010
  279SOL     OW 1168   0.940   1.698   2.766
  279SOL    HW1 1169   1.020   1.641   2.787
  279SOL    HW2 1170   0.891   1.658   2.689
  280SOL     OW 1171   0.382   0.700   2.342
  280SOL    HW1 1172   0.427   0.610   2.339
  280SOL    HW2 1173   0.288   0.689   2.375
  281SOL     OW 1174   1.547   0.222   3.591
  281SOL    HW1 1175   1.542   0.259   3.683
  281SOL    HW2 1176   1.475   0.153   3.579
  282SOL     OW 1177   0.614   0.122   1.979
  282SOL    HW1 1178   0.712   0.100   1.986
  282SOL    HW2 1179   0.583   0.105   1.886
  283SOL     OW 1180   0.781   0.264   3.611
  283SOL    HW1 1181   0.848   0.203   3.654
  283SOL    HW2 1182   0.708   0.283   3.676
  284SOL     OW 1183   0.888   1.514   3.057
  284SOL    HW1 1184   0.865   1.489   2.963
  284SOL    HW2 1185   0.949   1.445   3.096
  285SOL     OW 1186   1.351   0.590   3.295
  285SOL    HW1 1187   1.379   0.547   3.380
  285SOL    HW2 1188   1.376   0.686   3.296
  286SOL     OW 1189   0.803   1.402   2.786
  286SOL    HW1 1190   0.893   1.416   2.744
  286SOL    HW2 1191   0.732   1.404   2.715
  287SOL     OW 1192   0.922   0.503   2.761
  287SOL    HW1 1193   0.897   0.494   2.665
  287SOL    HW2 1194   0.970   0.421   2.792
  288SOL     OW 1195   0.539   0.064   2.374
  288SOL    HW1 1196   0.458   0.065   2.432
  288SOL    HW2 1197   0.542   0.147   2.319
  289SOL     OW 1198   1.434   1.188   1.903
  289SOL    HW1 1199   1.466   1.112   1.960
  289SOL    HW2 1200   1.342   1.215   1.933
  290SOL     OW 1201   0.297   0.035   2.033
  290SOL    HW1 1202   0.346   0.119   2.012
  290SOL    HW2 1203   0.359  -0.030   2.078
  291SOL     OW 1204   0.935   0.236   2.342
  291SOL    HW1 1205   0.887   0.277   2.264
  291SOL    HW2 1206   1.034   0.234   2.323
  292SOL     OW 1207   1.076   0.683   3.326
  292SOL    HW1 1208   0.996   0.622   3.329
  292SOL    HW2 1209   1.157   0.630   3.302
  293SOL     OW 1210   1.227   1.570   2.655
  293SOL    HW1 1211   1.248   1.644   2.590
  293SOL    HW2 1212   1.295   1.570   2.728
  294SOL     OW 1213   0.459   1.152   2.603
  294SOL    HW1 1214   0.388   1.125   2.668
  294SOL    HW2 1215   0.433   1.124   2.510
  295SOL     OW 1216   1.271   1.797   2.453
  295SOL    HW1 1217   1.315   1.861   2.389
  295SOL    HW2 1218   1.221   1.849   2.523
  296SOL     OW 1219   1.032   0.549   1.878
  296SOL    HW1 1220   0.991   0.631   1.839
  296SOL    HW2 1221   1.096   0.575   1.951
  297SOL     OW 1222   0.078   0.556   3.248
  297SOL    HW1 1223   0.170   0.555   3.207
  297SOL    HW2 1224   0.072   0.630   3.315
  298SOL     OW 1225   0.561   0.222   3.009
  298SOL    HW1 1226   0.599   0.138   3.046
  298SOL    HW2 1227   0.473   0.241   3.053
  299SOL     OW 1228   0.866   0.454   2.504
  299SOL    HW1 1229   0.834   0.526   2.442
  299SOL    HW2 1230   0.890   0.373   2.451
  300SOL     OW 1231   1.017   0.039   2.615
  300SOL    HW1 1232   0.945   0.044   2.546
  300SOL    HW2 1233   0.993  -0.030   2.684
  301SOL     OW 1234   1.429   1.173   2.729
  301SOL    HW1 1235   1.374   1.089   2.722
  301SOL    HW2 1236   1.455   1.202   2.637
  302SOL     OW 1237   1.466   0.590   2.854
  302SOL    HW1 1238   1.436   0.495   2.861
  302SOL    HW2 1239   1.539   0.606   2.920
  303SOL     OW 1240   1.857   0.833   2.239
  303SOL    HW1 1241   1.899   0.769   2.303
  303SOL    HW2 1242   1.819   0.782   2.161
  304SOL     OW 1243   0.488   1.385   2.036
  304SOL    HW1 1244   0.401   1.370   2.083
  304SOL    HW2 1245   0.471   1.411   1.941
  305SOL     OW 1246   1.664   1.280   2.519
  305SOL    HW1 1247   1.763   1.288   2.533
  305SOL    HW2 1248   1.619   1.364   2.550
  306SOL     OW 1249   1.390   0.575   1.940
  306SOL    HW1 1250   1.336   0.554   2.021
  306SOL    HW2 1251   1.481   0.534   1.949
  307SOL     OW 1252   0.527   0.256   2.190
  307SOL    HW1 1253   0.554   0.197   2.115
  307SOL    HW2 1254   0.527   0.351   2.159
  308SOL     OW 1255   1.754   1.223   3.450
  308SOL    HW1 1256   1.845   1.184   3.437
  308SOL    HW2 1257   1.762   1.319   3.474
  309SOL     OW 1258   1.064   1.347   3.202
  309SOL    HW1 1259   0.984   1.324   3.257
  309SOL    HW2 1260   1.147   1.321   3.251
  310SOL     OW 1261   1.592   1.629   3.487
  310SOL    HW1 1262   1.619   1.663   3.397
  310SOL    HW2 1263   1.671   1.591   3.533
  311SOL     OW 1264   1.111   1.195   2.962
  311SOL    HW1 1265   1.071   1.239   3.043
  311SOL    HW2 1266   1.070   1.232   2.879
  312SOL     OW 1267   1.638   1.099   2.941
  312SOL    HW1 1268   1.643   1.180   3.000
  312SOL    HW2 1269   1.552   1.101   2.890
  313SOL     OW 1270   0.915   0.089   3.264
  313SOL    HW1 1271   0.940   0.069   3.169
  313SOL    HW2 1272   0.987   0.145   3.306
  314SOL     OW 1273   0.980   1.116   3.581
  314SOL    HW1 1274   0.881   1.122   3.591
  314SOL    HW2 1275   1.003   1.036   3.525
  315SOL     OW 1276   0.705   1.050   2.230
  315SOL    HW1 1277   0.691   1.057   2.329
  315SOL    HW2 1278   0.789   0.999   2.212
  316SOL     OW 1279   0.410   0.813   3.113
  316SOL    HW1 1280   0.496   0.825   3.163
  316SOL    HW2 1281   0.368   0.726   3.140
  317SOL     OW 1282   1.274   0.386   3.124
  317SOL    HW1 1283   1.295   0.460   3.188
  317SOL    HW2 1284   1.185   0.403   3.081
  318SOL     OW 1285   0.064   1.564   3.193
  318SOL    HW1 1286   0.018   1.646   3.159
  318SOL    HW2 1287   0.162   1.583   3.202
  319SOL     OW 1288   0.367   1.100   2.363
  319SOL    HW1 1289   0.360   1.183   2.307
  319SOL    HW2 1290   0.371   1.020   2.303
  320SOL     OW 1291   0.566   0.537   2.727
  320SOL    HW1 1292   0.578   0.603   2.653
  320SOL    HW2 1293   0.612   0.571   2.810
  321SOL     OW 1294   1.252   1.348   2.250
  321SOL    HW1 1295   1.302   1.425   2.290
  321SOL    HW2 1296   1.157   1.350   2.282
  322SOL     OW 1297   1.272   1.445   3.004
  322SOL    HW1 1298   1.319   1.458   3.091
  322SOL    HW2 1299   1.206   1.371   3.013
  323SOL     OW 1300   1.582   0.639   2.334
  323SOL    HW1 1301   1.551   0.700   2.407
  323SOL    HW2 1302   1.632   0.691   2.265
  324SOL     OW 1303   0.354   1.510   3.191
  324SOL    HW1 1304   0.333   1.466   3.104
  324SOL    HW2 1305   0.451   1.536   3.194
  325SOL     OW 1306   0.402   0.751   3.460
  325SOL    HW1 1307   0.470   0.806   3.413
  325SOL    HW2 1308   0.442   0.663   3.487
  326SOL     OW 1309   1.587   0.779   3.532
  326SOL    HW1 1310   1.495   0.817   3.527
  326SOL    HW2 1311   1.647   0.826   3.467
  327SOL     OW 1312   1.013   0.105   3.632
  327SOL    HW1 1313   1.019   0.190   3.580
  327SOL    HW2 1314   1.045   0.029   3.575
  328SOL     OW 1315   0.504   0.050   3.602
  328SOL    HW1 1316   0.462  -0.007   3.532
  328SOL    HW2 1317   0.438   0.119   3.634
  329SOL     OW 1318   0.573   0.870   2.891
  329SOL    HW1 1319   0.617   0.959   2.882
  329SOL    HW2 1320   0.510   0.870   2.968
  330SOL     OW 1321   1.360   0.862   2.907
  330SOL    HW1 1322   1.285   0.862   2.841
  330SOL    HW2 1323   1.397   0.770   2.916
  331SOL     OW 1324   1.209   0.525   2.137
  331SOL    HW1 1325   1.222   0.441   2.191
  331SOL    HW2 1326   1.180   0.599   2.197
  332SOL     OW 1327   0.307   0.213   3.093
  332SOL    HW1 1328   0.284   0.250   3.183
  332SOL    HW2 1329   0.277   0.118   3.087
  333SOL     OW 1330   0.037   1.310   3.144
  333SOL    HW1 1331   0.090   1.261   3.212
  333SOL    HW2 1332   0.059   1.408   3.149
  334SOL     OW 1333   0.732   0.634   2.926
  334SOL    HW1 1334   0.791   0.608   2.850
  334SOL    HW2 1335   0.704   0.730   2.915
  335SOL     OW 1336   1.728   0.935   3.716
  335SOL    HW1 1337   1.682   0.928   3.627
  335SOL    HW2 1338   1.666   0.979   3.782
  336SOL     OW 1339   0.307   0.063   2.480
  336SOL    HW1 1340   0.296   0.157   2.513
  336SOL    HW2 1341   0.302   0.000   2.557
  337SOL     OW 1342   1.622   0.367   2.236
  337SOL    HW1 1343   1.624   0.291   2.300
  337SOL    HW2 1344   1.574   0.444   2.276
  338SOL     OW 1345   1.023   0.766   2.828
  338SOL    HW1 1346   1.038   0.787   2.924
  338SOL    HW2 1347   0.993   0.671   2.819
  339SOL     OW 1348   0.980   1.573   3.562
  339SOL    HW1 1349   0.960   1.617   3.474
  339SOL    HW2 1350   1.019   1.482   3.546
  340SOL     OW 1351   1.859   1.518   3.467
  340SOL    HW1 1352   1.873   1.545   3.372
  340SOL    HW2 1353   1.942   1.540   3.520
  341SOL     OW 1354   0.350   0.898   3.666
  341SOL    HW1 1355   0.426   0.942   3.714
  341SOL    HW2 1356   0.385   0.851   3.584
  342SOL     OW 1357   1.540   0.274   1.987
  342SOL    HW1 1358   1.479   0.199   2.010
  342SOL    HW2 1359   1.562   0.326   2.070
  343SOL     OW 1360   1.303   0.838   1.904
  343SOL    HW1 1361   1.337   0.745   1.919
  343SOL    HW2 1362   1.321   0.865   1.809
  344SOL     OW 1363   1.068   1.333   2.711
  344SOL    HW1 1364   1.075   1.249   2.656
  344SOL    HW2 1365   1.130   1.402   2.675
  345SOL     OW 1366   0.319   0.810   2.811
  345SOL    HW1 1367   0.412   0.846   2.816
  345SOL    HW2 1368   0.313   0.725   2.863
  346SOL     OW 1369   0.339   0.509   2.868
  346SOL    HW1 1370   0.287   0.426   2.851
  346SOL    HW2 1371   0.416   0.514   2.804
  347SOL     OW 1372   1.138   0.380   3.540
  347SOL    HW1 1373   1.093   0.443   3.604
  347SOL    HW2 1374   1.231   0.411   3.523
  348SOL     OW 1375   1.160   0.207   3.339
  348SOL    HW1 1376   1.160   0.271   3.416
  348SOL    HW2 1377   1.188   0.255   3.256
  349SOL     OW 1378   0.008   1.326   2.062
  349SOL    HW1 1379  -0.085   1.347   2.031
  349SOL    HW2 1380   0.018   1.227   2.075
  350SOL     OW 1381   0.088   1.801   2.789
  350SOL    HW1 1382   0.046   1.715   2.762
  350SOL    HW2 1383   0.182   1.804   2.755
  351SOL     OW 1384   0.504   1.568   2.772
  351SOL    HW1 1385   0.570   1.642   2.781
  351SOL    HW2 1386   0.548   1.489   2.730
  352SOL     OW 1387   1.002   0.796   3.100
  352SOL    HW1 1388   1.043   0.764   3.186
  352SOL    HW2 1389   0.906   0.769   3.097
  353SOL     OW 1390   0.040   0.544   2.976
  353SOL    HW1 1391   0.125   0.511   2.935
  353SOL    HW2 1392   0.053   0.559   3.074
  354SOL     OW 1393   0.189   0.520   3.584
  354SOL    HW1 1394   0.248   0.480   3.514
  354SOL    HW2 1395   0.131   0.591   3.543
  355SOL     OW 1396   1.369   0.950   3.522
  355SOL    HW1 1397   1.408   1.039   3.542
  355SOL    HW2 1398   1.379   0.930   3.425
  356SOL     OW 1399   0.815   0.572   2.187
  356SOL    HW1 1400   0.822   0.483   2.141
  356SOL    HW2 1401   0.721   0.606   2.179
  357SOL     OW 1402   1.657   0.604   3.068
  357SOL    HW1 1403   1.619   0.535   3.130
  357SOL    HW2 1404   1.739   0.568   3.024
  358SOL     OW 1405   0.252   1.564   3.606
  358SOL    HW1 1406   0.222   1.621   3.682
  358SOL    HW2 1407   0.245   1.467   3.632
  359SOL     OW 1408   0.671   0.464   3.131
  359SOL    HW1 1409   0.637   0.375   3.101
  359SOL    HW2 1410   0.697   0.518   3.051
  360SOL     OW 1411   0.930   1.678   3.327
  360SOL    HW1 1412   0.906   1.660   3.232
  360SOL    HW2 1413   0.960   1.772   3.337
  361SOL     OW 1414   0.473   0.500   2.053
  361SOL    HW1 1415   0.534   0.580   2.057
  361SOL    HW2 1416   0.378   0.531   2.060
  362SOL     OW 1417   0.159   1.137   3.328
  362SOL    HW1 1418   0.181   1.076   3.404
  362SOL    HW2 1419   0.169   1.088   3.242
  363SOL     OW 1420   1.347   1.059   3.096
  363SOL    HW1 1421   1.371   0.996   3.022
  363SOL    HW2 1422   1.257   1.099   3.078
  364SOL     OW 1423   1.302   0.855   2.171
  364SOL    HW1 1424   1.216   0.824   2.213
  364SOL    HW2 1425   1.298   0.841   2.072
  365SOL     OW 1426   1.759   1.747   3.016
  365SOL    HW1 1427   1.820   1.777   2.943
  365SOL    HW2 1428   1.721   1.658   2.994
  366SOL     OW 1429   1.252   1.731   2.990
  366SOL    HW1 1430   1.336   1.736   2.936
  366SOL    HW2 1431   1.229   1.635   3.008
  367SOL     OW 1432   0.083   1.258   2.884
  367SOL    HW1 1433   0.078   1.257   2.984
  367SOL    HW2 1434   0.000   1.217   2.846
  368SOL     OW 1435   0.688   1.662   3.578
  368SOL    HW1 1436   0.632   1.743   3.587
  368SOL    HW2 1437   0.740   1.666   3.492
  369SOL     OW 1438   1.726   0.135   2.385
  369SOL    HW1 1439   1.799   0.118   2.318
  369SOL    HW2 1440   1.695   0.048   2.423
  370SOL     OW 1441   1.388   1.573   2.339
  370SOL    HW1 1442   1.455   1.585   2.265
  370SOL    HW2 1443   1.348   1.662   2.362
  371SOL     OW 1444   0.130   1.794   3.713
  371SOL    HW1 1445   0.089   1.720   3.766
  371SOL    HW2 1446   0.194   1.845   3.771
  372SOL     OW 1447   1.280   0.927   2.534
  372SOL    HW1 1448   1.340   0.846   2.536
  372SOL    HW2 1449   1.320   0.996   2.474
  373SOL     OW 1450   0.830   1.273   3.284
  373SOL    HW1 1451   0.825   1.306   3.379
  373SOL    HW2 1452   0.744   1.292   3.238
  374SOL     OW 1453   0.672   1.616   2.016
  374SOL    HW1 1454   0.681   1.626   1.917
  374SOL    HW2 1455   0.632   1.527   2.037
  375SOL     OW 1456   1.650   1.720   3.256
  375SOL    HW1 1457   1.703   1.730   3.172
  375SOL    HW2 1458   1.623   1.810   3.290
  376SOL     OW 1459   1.841   0.175   2.825
  376SOL    HW1 1460   1.880   0.090   2.789
  376SOL    HW2 1461   1.743   0.177   2.806
  377SOL     OW 1462   0.263   0.326   2.582
  377SOL    HW1 1463   0.184   0.377   2.548
  377SOL    HW2 1464   0.254   0.311   2.680
  378SOL     OW 1465   1.194   1.612   1.893
  378SOL    HW1 1466   1.200   1.519   1.930
  378SOL    HW2 1467   1.135   1.612   1.813
  379SOL     OW 1468   0.822   1.002   3.234
  379SOL    HW1 1469   0.862   1.001   3.142
  379SOL    HW2 1470   0.832   1.094   3.274
  380SOL     OW 1471   0.916   0.910   2.153
  380SOL    HW1 1472   0.979   0.948   2.085
  380SOL    HW2 1473   0.956   0.827   2.192
  381SOL     OW 1474   1.504   1.607   1.906
  381SOL    HW1 1475   1.412   1.644   1.913
  381SOL    HW2 1476   1.542   1.627   1.816
  382SOL     OW 1477   0.372   1.288   3.352
  382SOL    HW1 1478   0.359   1.381   3.318
  382SOL    HW2 1479   0.288   1.236   3.339
  383SOL     OW 1480   1.614   1.292   3.151
  383SOL    HW1 1481   1.674   1.295   3.231
  383SOL    HW2 1482   1.539   1.356   3.164
  384SOL     OW 1483   1.039   1.098   2.558
  384SOL    HW1 1484   0.969   1.051   2.612
  384SOL    HW2 1485   1.098   1.030   2.515
  385SOL     OW 1486   1.014   0.236   2.833
  385SOL    HW1 1487   1.006   0.200   2.740
  385SOL    HW2 1488   1.012   0.160   2.898
  386SOL     OW 1489   0.590   1.487   2.353
  386SOL    HW1 1490   0.632   1.429   2.283
  386SOL    HW2 1491   0.546   1.566   2.309
  387SOL     OW 1492   1.709   0.385   3.243
  387SOL    HW1 1493   1.782   0.454   3.247
  387SOL    HW2 1494   1.737   0.310   3.184
  388SOL     OW 1495   0.255   1.348   2.152
  388SOL    HW1 1496   0.159   1.349   2.125
  388SOL    HW2 1497   0.267   1.401   2.236
  389SOL     OW 1498   0.105   1.013   3.588
  389SOL    HW1 1499   0.028   0.980   3.642
  389SOL    HW2 1500   0.190   0.983   3.630
  390SOL     OW 1501   0.672   0.203   3.351
  390SOL    HW1 1502   0.762   0.187   3.311
  390SOL    HW2 1503   0.680   0.208   3.450
  391SOL     OW 1504   0.075   0.345   1.895
  391SOL    HW1 1505  -0.017   0.317   1.866
  391SOL    HW2 1506   0.106   0.422   1.839
  392SOL     OW 1507   1.440   0.856   3.260
  392SOL    HW1 1508   1.383   0.908   3.197
  392SOL    HW2 1509   1.536   0.868   3.236
  393SOL     OW 1510   0.072   0.166   2.180
  393SOL    HW1 1511   0.055   0.249   2.126
  393SOL    HW2 1512   0.162   0.129   2.158
  394SOL     OW 1513   1.183   1.335   1.981
  394SOL    HW1 1514   1.084   1.324   1.983
  394SOL    HW2 1515   1.217   1.350   2.074
  395SOL     OW 1516   0.613   0.842   3.293
  395SOL    HW1 1517   0.669   0.923   3.276
  395SOL    HW2 1518   0.672   0.762   3.296
  396SOL     OW 1519   1.493   1.767   2.821
  396SOL    HW1 1520   1.526   1.831   2.752
  396SOL    HW2 1521   1.559   1.761   2.896
  397SOL     OW 1522   0.716   0.565   3.570
  397SOL    HW1 1523   0.735   0.630   3.644
  397SOL    HW2 1524   0.776   0.485   3.579
  398SOL     OW 1525   1.450   1.220   3.495
  398SOL    HW1 1526   1.441   1.210   3.594
  398SOL    HW2 1527   1.546   1.213   3.469
  399SOL     OW 1528   0.390   1.741   3.422
  399SOL    HW1 1529   0.299   1.782   3.420
  399SOL    HW2 1530   0.383   1.647   3.454
  400SOL     OW 1531   1.674   0.883   3.116
  400SOL    HW1 1532   1.647   0.794   3.079
  400SOL    HW2 1533   1.675   0.951   3.043
  401SOL     OW 1534   1.225   0.325   2.311
  401SOL    HW1 1535   1.290   0.251   2.300
  401SOL    HW2 1536   1.245   0.375   2.395
  402SOL     OW 1537   0.594   0.745   2.514
  402SOL    HW1 1538   0.644   0.830   2.495
  402SOL    HW2 1539   0.506   0.747   2.466
  403SOL     OW 1540   1.777   0.342   3.504
  403SOL    HW1 1541   1.760   0.373   3.410
  403SOL    HW2 1542   1.693   0.305   3.542
  404SOL     OW 1543   1.730   0.934   3.379
  404SOL    HW1 1544   1.768   1.025   3.394
  404SOL    HW2 1545   1.722   0.917   3.280
  405SOL     OW 1546   0.859   1.374   1.878
  405SOL    HW1 1547   0.813   1.389   1.966
  405SOL    HW2 1548   0.903   1.459   1.848
  406SOL     OW 1549   0.661   1.790   2.815
  406SOL    HW1 1550   0.615   1.878   2.802
  406SOL    HW2 1551   0.760   1.802   2.808
  407SOL     OW 1552   0.859   0.956   2.723
  407SOL    HW1 1553   0.913   0.887   2.771
  407SOL    HW2 1554   0.827   1.025   2.789
  408SOL     OW 1555   1.083   0.984   1.949
  408SOL    HW1 1556   1.060   1.037   1.867
  408SOL    HW2 1557   1.164   0.928   1.930
  409SOL     OW 1558   1.861   1.569   2.713
  409SOL    HW1 1559   1.790   1.557   2.643
  409SOL    HW2 1560   1.862   1.490   2.773
  410SOL     OW 1561   0.221   1.314   3.706
  410SOL    HW1 1562   0.156   1.241   3.685
  410SOL    HW2 1563   0.225   1.328   3.804
  411SOL     OW 1564   0.079   1.240   2.515
  411SOL    HW1 1565   0.078   1.193   2.603
  411SOL    HW2 1566   0.161   1.212   2.464
  412SOL     OW 1567   0.672   1.391   3.486
  412SOL    HW1 1568   0.594   1.341   3.524
  412SOL    HW2 1569   0.669   1.486   3.517
  413SOL     OW 1570   1.824   0.192   3.089
  413SOL    HW1 1571   1.820   0.102   3.133
  413SOL    HW2 1572   1.827   0.181   2.990
  414SOL     OW 1573   0.428   0.424   2.382
  414SOL    HW1 1574   0.458   0.352   2.320
  414SOL    HW2 1575   0.389   0.384   2.465
  415SOL     OW 1576   1.705   1.487   2.966
  415SOL    HW1 1577   1.612   1.462   2.939
  415SOL    HW2 1578   1.731   1.437   3.048
  416SOL     OW 1579   0.317   0.547   3.142
  416SOL    HW1 1580   0.355   0.488   3.214
  416SOL    HW2 1581   0.357   0.521   3.054
  417SOL     OW 1582   0.812   1.586   2.549
  417SOL    HW1 1583   0.844   1.596   2.455
  417SOL    HW2 1584   0.733   1.524   2.551
  418SOL     OW 1585   1.424   0.214   2.974
  418SOL    HW1 1586   1.476   0.149   3.029
  418SOL    HW2 1587   1.375   0.277   3.035
  419SOL     OW 1588   1.001   0.034   3.016
  419SOL    HW1 1589   0.938  -0.038   2.985
  419SOL    HW2 1590   1.094  -0.002   3.016
  420SOL     OW 1591   0.770   1.330   2.163
  420SOL    HW1 1592   0.724   1.243   2.180
  420SOL    HW2 1593   0.861   1.327   2.204
  421SOL     OW 1594   0.618   1.567   3.146
  421SOL    HW1 1595   0.613   1.649   3.203
  421SOL    HW2 1596   0.707   1.564   3.101
  422SOL     OW 1597   1.352   0.052   2.030
  422SOL    HW1 1598   1.387   0.011   1.946
  422SOL    HW2 1599   1.262   0.014   2.050
  423SOL     OW 1600   1.300   0.453   2.553
  423SOL    HW1 1601   1.241   0.533   2.557
  423SOL    HW2 1602   1.315   0.418   2.646
  424SOL     OW 1603   1.593   0.221   2.744
  424SOL    HW1 1604   1.509   0.220   2.798
  424SOL    HW2 1605   1.595   0.304   2.688
  425SOL     OW 1606   0.039   1.077   2.162
  425SOL    HW1 1607   0.138   1.066   2.153
  425SOL    HW2 1608  -0.001   0.991   2.194
  426SOL     OW 1609   0.875   1.646   2.199
  426SOL    HW1 1610   0.798   1.611   2.145
  426SOL    HW2 1611   0.843   1.717   2.261
  427SOL     OW 1612   0.230   0.628   3.837
  427SOL    HW1 1613   0.137   0.626   3.874
  427SOL    HW2 1614   0.231   0.589   3.745
  428SOL     OW 1615   0.225   0.275   4.720
  428SOL    HW1 1616   0.260   0.258   4.812
  428SOL    HW2 1617   0.137   0.230   4.708
  429SOL     OW 1618   0.019   0.368   4.371
  429SOL    HW1 1619  -0.063   0.411   4.410
  429SOL    HW2 1620  -0.009   0.295   4.308
  430SOL     OW 1621   0.569   1.275   4.889
  430SOL    HW1 1622   0.476   1.268   4.852
  430SOL    HW2 1623   0.580   1.364   4.933
  431SOL     OW 1624   1.555   1.511   4.427
  431SOL    HW1 1625   1.498   1.495   4.508
  431SOL    HW2 1626   1.496   1.521   4.347
  432SOL     OW 1627   1.135   0.703   4.441
  432SOL    HW1 1628   1.192   0.781   4.416
  432SOL    HW2 1629   1.075   0.729   4.517
  433SOL     OW 1630   1.755   0.607   3.955
  433SOL    HW1 1631   1.743   0.594   3.856
  433SOL    HW2 1632   1.725   0.526   4.004
  434SOL     OW 1633   0.768   1.144   4.747
  434SOL    HW1 1634   0.690   1.161   4.807
  434SOL    HW2 1635   0.802   1.231   4.711
  435SOL     OW 1636   0.850   0.798   5.547
  435SOL    HW1 1637   0.846   0.874   5.612
  435SOL    HW2 1638   0.872   0.834   5.456
  436SOL     OW 1639   0.685   1.012   4.389
  436SOL    HW1 1640   0.754   0.996   4.459
  436SOL    HW2 1641   0.612   1.069   4.427
  437SOL     OW 1642   0.686   1.161   5.527
  437SOL    HW1 1643   0.746   1.240   5.541
  437SOL    HW2 1644   0.600   1.192   5.486
  438SOL     OW 1645   0.335   1.435   4.785
  438SOL    HW1 1646   0.257   1.404   4.732
  438SOL    HW2 1647   0.393   1.493   4.728
  439SOL     OW 1648   1.460   1.505   5.063
  439SOL    HW1 1649   1.484   1.599   5.089
  439SOL    HW2 1650   1.444   1.451   5.145
  440SOL     OW 1651   0.438   0.392   5.223
  440SOL    HW1 1652   0.520   0.336   5.232
  440SOL    HW2 1653   0.357   0.334   5.227
  441SOL     OW 1654   1.603   0.447   4.461
  441SOL    HW1 1655   1.529   0.493   4.411
  441SOL    HW2 1656   1.654   0.515   4.514
  442SOL     OW 1657   0.231   1.713   4.207
  442SOL    HW1 1658   0.265   1.790   4.261
  442SOL    HW2 1659   0.275   1.713   4.117
  443SOL     OW 1660   1.127   1.341   5.414
  443SOL    HW1 1661   1.174   1.341   5.502
  443SOL    HW2 1662   1.079   1.254   5.403
  444SOL     OW 1663   0.230   1.434   4.262
  444SOL    HW1 1664   0.204   1.530   4.262
  444SOL    HW2 1665   0.159   1.380   4.307
  445SOL     OW 1666   0.240   1.091   4.610
  445SOL    HW1 1667   0.254   1.007   4.662
  445SOL    HW2 1668   0.185   1.155   4.665
  446SOL     OW 1669   0.620   1.786   5.163
  446SOL    HW1 1670   0.528   1.769   5.198
  446SOL    HW2 1671   0.648   1.878   5.189
  447SOL     OW 1672   0.606   0.964   3.847
  447SOL    HW1 1673   0.613   1.048   3.793
  447SOL    HW2 1674   0.652   0.977   3.935
  448SOL     OW 1675   1.594   0.114   5.204
  448SOL    HW1 1676   1.576   0.181   5.132
  448SOL    HW2 1677   1.591   0.160   5.293
  449SOL     OW 1678   0.122   0.643   4.287
  449SOL    HW1 1679   0.077   0.555   4.304
  449SOL    HW2 1680   0.121   0.697   4.371
  450SOL     OW 1681   1.842   1.767   4.083
  450SOL    HW1 1682   1.896   1.738   4.163
  450SOL    HW2 1683   1.872   1.857   4.054
  451SOL     OW 1684   0.027   1.596   3.841
  451SOL    HW1 1685   0.008   1.500   3.862
  451SOL    HW2 1686  -0.006   1.654   3.916
  452SOL     OW 1687   1.689   0.922   4.336
  452SOL    HW1 1688   1.784   0.893   4.344
  452SOL    HW2 1689   1.681   0.987   4.261
  453SOL     OW 1690   1.641   1.108   4.156
  453SOL    HW1 1691   1.727   1.110   4.104
  453SOL    HW2 1692   1.655   1.155   4.244
  454SOL     OW 1693   0.113   0.737   5.321
  454SOL    HW1 1694   0.201   0.724   5.366
  454SOL    HW2 1695   0.100   0.834   5.299
  455SOL     OW 1696   0.613   1.365   4.450
  455SOL    HW1 1697   0.564   1.278   4.459
  455SOL    HW2 1698   0.590   1.408   4.363
  456SOL     OW 1699   1.293   1.228   5.147
  456SOL    HW1 1700   1.330   1.155   5.089
  456SOL    HW2 1701   1.345   1.233   5.232
  457SOL     OW 1702   0.809   0.004   4.226
  457SOL    HW1 1703   0.849   0.095   4.217
  457SOL    HW2 1704   0.709   0.012   4.232
  458SOL     OW 1705   0.197   0.976   4.988
  458SOL    HW1 1706   0.286   0.931   4.974
  458SOL    HW2 1707   0.124   0.911   4.969
  459SOL     OW 1708   1.525   0.999   3.914
  459SOL    HW1 1709   1.462   0.923   3.927
  459SOL    HW2 1710   1.573   1.017   4.000
  460SOL     OW 1711   1.187   1.792   5.340
  460SOL    HW1 1712   1.211   1.852   5.264
  460SOL    HW2 1713   1.194   1.697   5.310
  461SOL     OW 1714   0.317   0.251   5.525
  461SOL    HW1 1715   0.388   0.322   5.531
  461SOL    HW2 1716   0.229   0.290   5.553
  462SOL     OW 1717   1.466   1.417   4.677
  462SOL    HW1 1718   1.407   1.423   4.757
  462SOL    HW2 1719   1.451   1.329   4.631
  463SOL     OW 1720   1.667   1.714   4.296
  463SOL    HW1 1721   1.626   1.691   4.208
  463SOL    HW2 1722   1.649   1.640   4.361
  464SOL     OW 1723   0.598   0.729   3.994
  464SOL    HW1 1724   0.622   0.798   3.926
  464SOL    HW2 1725   0.520   0.762   4.048
  465SOL     OW 1726   1.281   0.345   4.668
  465SOL    HW1 1727   1.195   0.295   4.655
  465SOL    HW2 1728   1.343   0.291   4.724
  466SOL     OW 1729   1.576   1.662   4.031
  466SOL    HW1 1730   1.665   1.708   4.034
  466SOL    HW2 1731   1.555   1.638   3.936
  467SOL     OW 1732   0.807   0.605   5.189
  467SOL    HW1 1733   0.760   0.602   5.278
  467SOL    HW2 1734   0.756   0.550   5.123
  468SOL     OW 1735   1.394   0.469   5.398
  468SOL    HW1 1736   1.374   0.512   5.486
  468SOL    HW2 1737   1.472   0.407   5.407
  469SOL     OW 1738   0.973   0.890   5.296
  469SOL    HW1 1739   1.019   0.806   5.267
  469SOL    HW2 1740   0.917   0.924   5.221
  470SOL     OW 1741   0.991   0.410   4.966
  470SOL    HW1 1742   0.914   0.444   5.020
  470SOL    HW2 1743   0.957   0.359   4.887
  471SOL     OW 1744   1.041   0.701   4.153
  471SOL    HW1 1745   1.067   0.697   4.249
  471SOL    HW2 1746   0.956   0.650   4.139
  472SOL     OW 1747   0.076   0.811   4.513
  472SOL    HW1 1748   0.175   0.799   4.522
  472SOL    HW2 1749   0.052   0.906   4.534
  473SOL     OW 1750   0.130   1.821   5.295
  473SOL    HW1 1751   0.120   1.806   5.394
  473SOL    HW2 1752   0.044   1.857   5.259
  474SOL     OW 1753   0.865   0.348   3.919
  474SOL    HW1 1754   0.924   0.411   3.870
  474SOL    HW2 1755   0.884   0.254   3.890
  475SOL     OW 1756   1.719   0.585   5.555
  475SOL    HW1 1757   1.693   0.674   5.519
  475SOL    HW2 1758   1.717   0.517   5.482
  476SOL     OW 1759   1.362   1.144   4.269
  476SOL    HW1 1760   1.445   1.115   4.221
  476SOL    HW2 1761   1.313   1.211   4.213
  477SOL     OW 1762   0.550   0.196   4.609
  477SOL    HW1 1763   0.545   0.191   4.709
  477SOL    HW2 1764   0.552   0.292   4.580
  478SOL     OW 1765   1.008   1.456   4.201
  478SOL    HW1 1766   0.962   1.528   4.149
  478SOL    HW2 1767   1.004   1.476   4.299
  479SOL     OW 1768   0.351   1.801   4.577
  479SOL    HW1 1769   0.401   1.715   4.583
  479SOL    HW2 1770   0.416   1.878   4.574
  480SOL     OW 1771   1.795   1.066   4.597
  480SOL    HW1 1772   1.733   1.051   4.521
  480SOL    HW2 1773   1.743   1.077   4.682
  481SOL     OW 1774   1.227   1.550   5.230
  481SOL    HW1 1775   1.233   1.473   5.294
  481SOL    HW2 1776   1.175   1.524   5.150
  482SOL     OW 1777   0.321   0.943   3.966
  482SOL    HW1 1778   0.403   0.982   3.924
  482SOL    HW2 1779   0.294   0.861   3.917
  483SOL     OW 1780   1.458   0.735   4.452
  483SOL    HW1 1781   1.453   0.670   4.527
  483SOL    HW2 1782   1.538   0.794   4.465
  484SOL     OW 1783   0.461   1.266   5.451
  484SOL    HW1 1784   0.411   1.267   5.365
  484SOL    HW2 1785   0.398   1.248   5.527
  485SOL     OW 1786   1.111   1.776   3.961
  485SOL    HW1 1787   1.051   1.714   4.011
  485SOL    HW2 1788   1.142   1.732   3.876
  486SOL     OW 1789   0.202   0.285   5.222
  486SOL    HW1 1790   0.122   0.345   5.209
  486SOL    HW2 1791   0.192   0.236   5.308
  487SOL     OW 1792   1.632   1.377   3.805
  487SOL    HW1 1793   1.600   1.471   3.795
  487SOL    HW2 1794   1.556   1.314   3.793
  488SOL     OW 1795   0.464   1.743   4.047
  488SOL    HW1 1796   0.497   1.782   4.133
  488SOL    HW2 1797   0.540   1.736   3.982
  489SOL     OW 1798   1.400   0.107   4.150
  489SOL    HW1 1799   1.376   0.070   4.060
  489SOL    HW2 1800   1.499   0.123   4.154
  490SOL     OW 1801   0.249   1.785   4.965
  490SOL    HW1 1802   0.306   1.720   5.015
  490SOL    HW2 1803   0.233   1.752   4.872
  491SOL     OW 1804   0.940   1.698   4.628
  491SOL    HW1 1805   1.020   1.641   4.649
  491SOL    HW2 1806   0.891   1.658   4.551
  492SOL     OW 1807   0.382   0.700   4.204
  492SOL    HW1 1808   0.427   0.610   4.201
  492SOL    HW2 1809   0.288   0.689   4.237
  493SOL     OW 1810   1.547   0.222   5.453
  493SOL    HW1 1811   1.542   0.259   5.545
  493SOL    HW2 1812   1.475   0.153   5.441
  494SOL     OW 1813   0.614   0.122   3.841
  494SOL    HW1 1814   0.712   0.100   3.848
  494SOL    HW2 1815   0.583   0.105   3.748
  495SOL     OW 1816   0.781   0.264   5.473
  495SOL    HW1 1817   0.848   0.203   5.516
  495SOL    HW2 1818   0.708   0.283   5.538
  496SOL     OW 1819   0.888   1.514   4.919
  496SOL    HW1 1820   0.865   1.489   4.825
  496SOL    HW2 1821   0.949   1.445   4.958
  497SOL     OW 1822   1.351   0.590   5.157
  497SOL    HW1 1823   1.379   0.547   5.242
  497SOL    HW2 1824   1.376   0.686   5.158
  498SOL     OW 1825   0.803   1.402   4.648
  498SOL    HW1 1826   0.893   1.416   4.606
  498SOL    HW2 1827   0.732   1.404   4.577
  499SOL     OW 1828   0.922   0.503   4.623
  499SOL    HW1 1829   0.897   0.494   4.527
  499SOL    HW2 1830   0.970   0.421   4.654
  500SOL     OW 1831   0.539   0.064   4.236
  500SOL    HW1 1832   0.458   0.065   4.294
  500SOL    HW2 1833   0.542   0.147   4.181
  501SOL     OW 1834   1.434   1.188   3.765
  501SOL    HW1 1835   1.466   1.112   3.822
  501SOL    HW2 1836   1.342   1.215   3.795
  502SOL     OW 1837   0.297   0.035   3.895
  502SOL    HW1 1838   0.346   0.119   3.874
  502SOL    HW2 1839   0.359  -0.030   3.940
  503SOL     OW 1840   0.935   0.236   4.204
  503SOL    HW1 1841   0.887   0.277   4.126
  503SOL    HW2 1842   1.034   0.234   4.185
  504SOL     OW 1843   1.076   0.683   5.188
  504SOL    HW1 1844   0.996   0.622   5.191
  504SOL    HW2 1845   1.157   0.630   5.164
  505SOL     OW 1846   1.227   1.570   4.517
  505SOL    HW1 1847   1.248   1.644   4.452
  505SOL    HW2 1848   1.295   1.570   4.590
  506SOL     OW 1849   0.459   1.152   4.465
  506SOL    HW1 1850   0.388   1.125   4.530
  506SOL    HW2 1851   0.433   1.124   4.372
  507SOL     OW 1852   1.271   1.797   4.315
  507SOL    HW1 1853   1.315   1.861   4.251
  507SOL    HW2 1854   1.221   1.849   4.385
  508SOL     OW 1855   1.032   0.549   3.740
  508SOL    HW1 1856   0.991   0.631   3.701
  508SOL    HW2 1857   1.096   0.575   3.813
  509SOL     OW 1858   0.078   0.556   5.110
  509SOL    HW1 1859   0.170   0.555   5.069
  509SOL    HW2 1860   0.072   0.630   5.177
  510SOL     OW 1861   0.561   0.222   4.871
  510SOL    HW1 1862   0.599   0.138   4.908
  510SOL    HW2 1863   0.473   0.241   4.915
  511SOL     OW 1864   0.866   0.454   4.366
  511SOL    HW1 1865   0.834   0.526   4.304
  511SOL    HW2 1866   0.890   0.373   4.313
  512SOL     OW 1867   1.017   0.039   4.477
  512SOL    HW1 1868   0.945   0.044   4.408
  512SOL    HW2 1869   0.993  -0.030   4.546
  513SOL     OW 1870   1.429   1.173   4.591
  513SOL    HW1 1871   1.374   1.089   4.584
  513SOL    HW2 1872   1.455   1.202   4.499
  514SOL     OW 1873   1.466   0.590   4.716
  514SOL    HW1 1874   1.436   0.495   4.723
  514SOL    HW2 1875   1.539   0.606   4.782
  515SOL     OW 1876   1.857   0.833   4.101
  515SOL    HW1 1877   1.899   0.769   4.165
  515SOL    HW2 1878   1.819   0.782   4.023
  516SOL     OW 1879   0.488   1.385   3.898
  516SOL    HW1 1880   0.401   1.370   3.945
  516SOL    HW2 1881   0.471   1.411   3.803
  517SOL     OW 1882   1.664   1.280   4.381
  517SOL    HW1 1883   1.763   1.288   4.395
  517SOL    HW2 1884   1.619   1.364   4.412
  518SOL     OW 1885   1.390   0.575   3.802
  518SOL    HW1 1886   1.336   0.554   3.883
  518SOL    HW2 1887   1.481   0.534   3.811
  519SOL     OW 1888   0.527   0.256   4.052
  519SOL    HW1 1889   0.554   0.197   3.977
  519SOL    HW2 1890   0.527   0.351   4.021
  520SOL     OW 1891   1.754   1.223   5.312
  520SOL    HW1 1892   1.845   1.184   5.299
  520SOL    HW2 1893   1.762   1.319   5.336
  521SOL     OW 1894   1.064   1.347   5.064
  521SOL    HW1 1895   0.984   1.324   5.119
  521SOL    HW2 1896   1.147   1.321   5.113
  522SOL     OW 1897   1.592   1.629   5.349
  522SOL    HW1 1898   1.619   1.663   5.259
  522SOL    HW2 1899   1.671   1.591   5.395
  523SOL     OW 1900   1.111   1.195   4.824
  523SOL    HW1 1901   1.071   1.239   4.905
  523SOL    HW2 1902   1.070   1.232   4.741
  524SOL     OW 1903   1.638   1.099   4.803
  524SOL    HW1 1904   1.643   1.180   4.862
  524SOL    HW2 1905   1.552   1.101   4.752
  525SOL     OW 1906   0.915   0.089   5.126
  525SOL    HW1 1907   0.940   0.069   5.031
  525SOL    HW2 1908   0.987   0.145   5.168
  526SOL     OW 1909   0.980   1.116   5.443
  526SOL    HW1 1910   0.881   1.122   5.453
  526SOL    HW2 1911   1.003   1.036   5.387
  527SOL     OW 1912   0.705   1.050   4.092
  527SOL    HW1 1913   0.691   1.057   4.191
  527SOL    HW2 1914   0.789   0.999   4.074
  528SOL     OW 1915   0.410   0.813   4.975
  528SOL    HW1 1916   0.496   0.825   5.025
  528SOL    HW2 1917   0.368   0.726   5.002
  529SOL     OW 1918   1.274   0.386   4.986
  529SOL    HW1 1919   1.295   0.460   5.050
  529SOL    HW2 1920   1.185   0.403   4.943
  530SOL     OW 1921   0.064   1.564   5.055
  530SOL    HW1 1922   0.018   1.646   5.021
  530SOL    HW2 1923   0.162   1.583   5.064
  531SOL     OW 1924   0.367   1.100   4.225
  531SOL    HW1 1925   0.360   1.183   4.169
  531SOL    HW2 1926   0.371   1.020   4.165
  532SOL     OW 1927   0.566   0.537   4.589
  532SOL    HW1 1928   0.578   0.603   4.515
  532SOL    HW2 1929   0.612   0.571   4.672
  533SOL     OW 1930   1.252   1.348   4.112
  533SOL    HW1 1931   1.302   1.425   4.152
  533SOL    HW2 1932   1.157   1.350   4.144
  534SOL     OW 1933   1.272   1.445   4.866
  534SOL    HW1 1934   1.319   1.458   4.953
  534SOL    HW2 1935   1.206   1.371   4.875
  535SOL     OW 1936   1.582   0.639   4.196
  535SOL    HW1 1937   1.551   0.700   4.269
  535SOL    HW2 1938   1.632   0.691   4.127
  536SOL     OW 1939   0.354   1.510   5.053
  536SOL    HW1 1940   0.333   1.466   4.966
  536SOL    HW2 1941   0.451   1.536   5.056
  537SOL     OW 1942   0.402   0.751   5.322
  537SOL    HW1 1943   0.470   0.806   5.275
  537SOL    HW2 1944   0.442   0.663   5.349
  538SOL     OW 1945   1.587   0.779   5.394
  538SOL    HW1 1946   1.495   0.817   5.389
  538SOL    HW2 1947   1.647   0.826   5.329
  539SOL     OW 1948   1.013   0.105   5.494
  539SOL    HW1 1949   1.019   0.190   5.442
  539SOL    HW2 1950   1.045   0.029   5.437
  540SOL     OW 1951   0.504   0.050   5.464
  540SOL    HW1 1952   0.462  -0.007   5.394
  540SOL    HW2 1953   0.438   0.119   5.496
  541SOL     OW 1954   0.573   0.870   4.753
  541SOL    HW1 1955   0.617   0.959   4.744
  541SOL    HW2 1956   0.510   0.870   4.830
  542SOL     OW 1957   1.360   0.862   4.769
  542SOL    HW1 1958   1.285   0.862   4.703
  542SOL    HW2 1959   1.397   0.770   4.778
  543SOL     OW 1960   1.209   0.525   3.999
  543SOL    HW1 1961   1.222   0.441   4.053
  543SOL    HW2 1962   1.180   0.599   4.059
  544SOL     OW 1963   0.307   0.213   4.955
  544SOL    HW1 1964   0.284   0.250   5.045
  544SOL    HW2 1965   0.277   0.118   4.949
  545SOL     OW 1966   0.037   1.310   5.006
  545SOL    HW1 1967   0.090   1.261   5.074
  545SOL    HW2 1968   0.059   1.408   5.011
  546SOL     OW 1969   0.732   0.634   4.788
  546SOL    HW1 1970   0.791   0.608   4.712
  546SOL    HW2 1971   0.704   0.730   4.777
  547SOL     OW 1972   1.728   0.935   5.578
  547SOL    HW1 1973   1.682   0.928   5.489
  547SOL    HW2 1974   1.666   0.979   5.644
  548SOL     OW 1975   0.307   0.063   4.342
  548SOL    HW1 1976   0.296   0.157   4.375
  548SOL    HW2 1977   0.302   0.000   4.419
  549SOL     OW 1978   1.622   0.367   4.098
  549SOL    HW1 1979   1.624   0.291   4.162
  549SOL    HW2 1980   1.574   0.444   4.138
  550SOL     OW 1981   1.023   0.766   4.690
  550SOL    HW1 1982   1.038   0.787   4.786
  550SOL    HW2 1983   0.993   0.671   4.681
  551SOL     OW 1984   0.980   1.573   5.424
  551SOL    HW1 1985   0.960   1.617   5.336
  551SOL    HW2 1986   1.019   1.482   5.408
  552SOL     OW 1987   1.859   1.518   5.329
  552SOL    HW1 1988   1.873   1.545   5.234
  552SOL    HW2 1989   1.942   1.540   5.382
  553SOL     OW 1990   0.350   0.898   5.528
  553SOL    HW1 1991   0.426   0.942   5.576
  553SOL    HW2 1992   0.385   0.851   5.446
  554SOL     OW 1993   1.540   0.274   3.849
  554SOL    HW1 1994   1.479   0.199   3.872
  554SOL    HW2 1995   1.562   0.326   3.932
  555SOL     OW 1996   1.303   0.838   3.766
  555SOL    HW1 1997   1.337   0.745   3.781
  555SOL    HW2 1998   1.321   0.865   3.671
  556SOL     OW 1999   1.068   1.333   4.573
  556SOL    HW1 2000   1.075   1.249   4.518
  556SOL    HW2 2001   1.130   1.402   4.537
  557SOL     OW 2002   0.319   0.810   4.673
  557SOL    HW1 2003   0.412   0.846   4.678
  557SOL    HW2 2004   0.313   0.725   4.725
  558SOL     OW 2005   0.339   0.509   4.730
  558SOL    HW1 2006   0.287   0.426   4.713
  558SOL    HW2 2007   0.416   0.514   4.666
  559SOL     OW 2008   1.138   0.380   5.402
  559SOL    HW1 2009   1.093   0.443   5.466
  559SOL    HW2 2010   1.231   0.411   5.385
  560SOL     OW 2011   1.160   0.207   5.201
  560SOL    HW1 2012   1.160   0.271   5.278
  560SOL    HW2 2013   1.188   0.255   5.118
  561SOL     OW 2014   0.008   1.326   3.924
  561SOL    HW1 2015  -0.085   1.347   3.893
  561SOL    HW2 2016   0.018   1.227   3.937
  562SOL     OW 2017   0.088   1.801   4.651
  562SOL    HW1 2018   0.046   1.715   4.624
  562SOL    HW2 2019   0.182   1.804   4.617
  563SOL     OW 2020   0.504   1.568   4.634
  563SOL    HW1 2021   0.570   1.642   4.643
  563SOL    HW2 2022   0.548   1.489   4.592
  564SOL     OW 2023   1.002   0.796   4.962
  564SOL    HW1 2024   1.043   0.764   5.048
  564SOL    HW2 2025   0.906   0.769   4.959
  565SOL     OW 2026   0.040   0.544   4.838
  565SOL    HW1 2027   0.125   0.511   4.797
  565SOL    HW2 2028   0.053   0.559   4.936
  566SOL     OW 2029   0.189   0.520   5.446
  566SOL    HW1 2030   0.248   0.480   5.376
  566SOL    HW2 2031   0.131   0.591   5.405
  567SOL     OW 2032   1.369   0.950   5.384
  567SOL    HW1 2033   1.408   1.039   5.404
  567SOL    HW2 2034   1.379   0.930   5.287
  568SOL     OW 2035   0.815   0.572   4.049
  568SOL    HW1 2036   0.822   0.483   4.003
  568SOL    HW2 2037   0.721   0.606   4.041
  569SOL     OW 2038   1.657   0.604   4.930
  569SOL    HW1 2039   1.619   0.535   4.992
  569SOL    HW2 2040   1.739   0.568   4.886
  570SOL     OW 2041   0.252   1.564   5.468
  570SOL    HW1 2042   0.222   1.621   5.544
  570SOL    HW2 2043   0.245   1.467   5.494
  571SOL     OW 2044   0.671   0.464   4.993
  571SOL    HW1 2045   0.637   0.375   4.963
  571SOL    HW2 2046   0.697   0.518   4.913
  572SOL     OW 2047   0.930   1.678   5.189
  572SOL    HW1 2048   0.906   1.660   5.094
  572SOL    HW2 2049   0.960   1.772   5.199
  573SOL     OW 2050   0.473   0.500   3.915
  573SOL    HW1 2051   0.534   0.580   3.919
  573SOL    HW2 2052   0.378   0.531   3.922
  574SOL     OW 2053   0.159   1.137   5.190
  574SOL    HW1 2054   0.181   1.076   5.266
  574SOL    HW2 2055   0.169   1.088   5.104
  575SOL     OW 2056   1.347   1.059   4.958
  575SOL    HW1 2057   1.371   0.996   4.884
  575SOL    HW2 2058   1.257   1.099   4.940
  576SOL     OW 2059   1.302   0.855   4.033
  576SOL    HW1 2060   1.216   0.824   4.075
  576SOL    HW2 2061   1.298   0.841   3.934
  577SOL     OW 2062   1.759   1.747   4.878
  577SOL    HW1 2063   1.820   1.777   4.805
  577SOL    HW2 2064   1.721   1.658   4.856
  578SOL     OW 2065   1.252   1.731   4.852
  578SOL    HW1 2066   1.336   1.736   4.798
  578SOL    HW2 2067   1.229   1.635   4.870
  579SOL     OW 2068   0.083   1.258   4.746
  579SOL    HW1 2069   0.078   1.257   4.846
  579SOL    HW2 2070   0.000   1.217   4.708
  580SOL     OW 2071   0.688   1.662   5.440
  580SOL    HW1 2072   0.632   1.743   5.449
  580SOL    HW2 2073   0.740   1.666   5.354
  581SOL     OW 2074   1.726   0.135   4.247
  581SOL    HW1 2075   1.799   0.118   4.180
  581SOL    HW2 2076   1.695   0.048   4.285
  582SOL     OW 2077   1.388   1.573   4.201
  582SOL    HW1 2078   1.455   1.585   4.127
  582SOL    HW2 2079   1.348   1.662   4.224
  583SOL     OW 2080   0.130   1.794   5.575
  583SOL    HW1 2081   0.089   1.720   5.628
  583SOL    HW2 2082   0.194   1.845   5.633
  584SOL     OW 2083   1.280   0.927   4.396
  584SOL    HW1 2084   1.340   0.846   4.398
  584SOL    HW2 2085   1.320   0.996   4.336
  585SOL     OW 2086   0.830   1.273   5.146
  585SOL    HW1 2087   0.825   1.306   5.241
  585SOL    HW2 2088   0.744   1.292   5.100
  586SOL     OW 2089   0.672   1.616   3.878
  586SOL    HW1 2090   0.681   1.626   3.779
  586SOL    HW2 2091   0.632   1.527   3.899
  587SOL     OW 2092   1.650   1.720   5.118
  587SOL    HW1 2093   1.703   1.730   5.034
  587SOL    HW2 2094   1.623   1.810   5.152
  588SOL     OW 2095   1.841   0.175   4.687
  588SOL    HW1 2096   1.880   0.090   4.651
  588SOL    HW2 2097   1.743   0.177   4.668
  589SOL     OW 2098   0.263   0.326   4.444
  589SOL    HW1 2099   0.184   0.377   4.410
  589SOL    HW2 2100   0.254   0.311   4.542
  590SOL     OW 2101   1.194   1.612   3.755
  590SOL    HW1 2102   1.200   1.519   3.792
  590SOL    HW2 2103   1.135   1.612   3.675
  591SOL     OW 2104   0.822   1.002   5.096
  591SOL    HW1 2105   0.862   1.001   5.004
  591SOL    HW2 2106   0.832   1.094   5.136
  592SOL     OW 2107   0.916   0.910   4.015
  592SOL    HW1 2108   0.979   0.948   3.947
  592SOL    HW2 2109   0.956   0.827   4.054
  593SOL     OW 2110   1.504   1.607   3.768
  593SOL    HW1 2111   1.412   1.644   3.775
  593SOL    HW2 2112   1.542   1.627   3.678
  594SOL     OW 2113   0.372   1.288   5.214
  594SOL    HW1 2114   0.359   1.381   5.180
  594SOL    HW2 2115   0.288   1.236   5.201
  595SOL     OW 2116   1.614   1.292   5.013
  595SOL    HW1 2117   1.674   1.295   5.093
  595SOL    HW2 2118   1.539   1.356   5.026
  596SOL     OW 2119   1.039   1.098   4.420
  596SOL    HW1 2120   0.969   1.051   4.474
  596SOL    HW2 2121   1.098   1.030   4.377
  597SOL     OW 2122   1.014   0.236   4.695
  597SOL    HW1 2123   1.006   0.200   4.602
  597SOL    HW2 2124   1.012   0.160   4.760
  598SOL     OW 2125   0.590   1.487   4.215
  598SOL    HW1 2126   0.632   1.429   4.145
  598SOL    HW2 2127   0.546   1.566   4.171
  599SOL     OW 2128   1.709   0.385   5.105
  599SOL    HW1 2129   1.782   0.454   5.109
  599SOL    HW2 2130   1.737   0.310   5.046
  600SOL     OW 2131   0.255   1.348   4.014
  600SOL    HW1 2132   0.159   1.349   3.987
  600SOL    HW2 2133   0.267   1.401   4.098
  601SOL     OW 2134   0.105   1.013   5.450
  601SOL    HW1 2135   0.028   0.980   5.504
  601SOL    HW2 2136   0.190   0.983   5.492
  602SOL     OW 2137   0.672   0.203   5.213
  602SOL    HW1 2138   0.762   0.187   5.173
  602SOL    HW2 2139   0.680   0.208   5.312
  603SOL     OW 2140   0.075   0.345   3.757
  603SOL    HW1 2141  -0.017   0.317   3.728
  603SOL    HW2 2142   0.106   0.422   3.701
  604SOL     OW 2143   1.440   0.856   5.122
  604SOL    HW1 2144   1.383   0.908   5.059
  604SOL    HW2 2145   1.536   0.868   5.098
  605SOL     OW 2146   0.072   0.166   4.042
  605SOL    HW1 2147   0.055   0.249   3.988
  605SOL    HW2 2148   0.162   0.129   4.020
  606SOL     OW 2149   1.183   1.335   3.843
  606SOL    HW1 2150   1.084   1.324   3.845
  606SOL    HW2 2151   1.217   1.350   3.936
  607SOL     OW 2152   0.613   0.842   5.155
  607SOL    HW1 2153   0.669   0.923   5.138
  607SOL    HW2 2154   0.672   0.762   5.158
  608SOL     OW 2155   1.493   1.767   4.683
  608SOL    HW1 2156   1.526   1.831   4.614
  608SOL    HW2 2157   1.559   1.761   4.758
  609SOL     OW 2158   0.716   0.565   5.432
  609SOL    HW1 2159   0.735   0.630   5.506
  609SOL    HW2 2160   0.776   0.485   5.441
  610SOL     OW 2161   1.450   1.220   5.357
  610SOL    HW1 2162   1.441   1.210   5.456
  610SOL    HW2 2163   1.546   1.213   5.331
  611SOL     OW 2164   0.390   1.741   5.284
  611SOL    HW1 2165   0.299   1.782   5.282
  611SOL    HW2 2166   0.383   1.647   5.316
  612SOL     OW 2167   1.674   0.883   4.978
  612SOL    HW1 2168   1.647   0.794   4.941
  612SOL    HW2 2169   1.675   0.951   4.905
  613SOL     OW 2170   1.225   0.325   4.173
  613SOL    HW1 2171   1.290   0.251   4.162
  613SOL    HW2 2172   1.245   0.375   4.257
  614SOL     OW 2173   0.594   0.745   4.376
  614SOL    HW1 2174   0.644   0.830   4.357
  614SOL    HW2 2175   0.506   0.747   4.328
  615SOL     OW 2176   1.777   0.342   5.366
  615SOL    HW1 2177   1.760   0.373   5.272
  615SOL    HW2 2178   1.693   0.305   5.404
  616SOL     OW 2179   1.730   0.934   5.241
  616SOL    HW1 2180   1.768   1.025   5.256
  616SOL    HW2 2181   1.722   0.917   5.142
  617SOL     OW 2182   0.859   1.374   3.740
  617SOL    HW1 2183   0.813   1.389   3.828
  617SOL    HW2 2184   0.903   1.459   3.710
  618SOL     OW 2185   0.661   1.790   4.677
  618SOL    HW1 2186   0.615   1.878   4.664
  618SOL    HW2 2187   0.760   1.802   4.670
  619SOL     OW 2188   0.859   0.956   4.585
  619SOL    HW1 2189   0.913   0.887   4.633
  619SOL    HW2 2190   0.827   1.025   4.651
  620SOL     OW 2191   1.083   0.984   3.811
  620SOL    HW1 2192   1.060   1.037   3.729
  620SOL    HW2 2193   1.164   0.928   3.792
  621SOL     OW 2194   1.861   1.569   4.575
  621SOL    HW1 2195   1.790   1.557   4.505
  621SOL    HW2 2196   1.862   1.490   4.635
  622SOL     OW 2197   0.221   1.314   5.568
  622SOL    HW1 2198   0.156   1.241   5.547
  622SOL    HW2 2199   0.225   1.328   5.666
  623SOL     OW 2200   0.079   1.240   4.377
  623SOL    HW1 2201   0.078   1.193   4.465
  623SOL    HW2 2202   0.161   1.212   4.326
  624SOL     OW 2203   0.672   1.391   5.348
  624SOL    HW1 2204   0.594   1.341   5.386
  624SOL    HW2 2205   0.669   1.486   5.379
  625SOL     OW 2206   1.824   0.192   4.951
  625SOL    HW1 2207   1.820   0.102   4.995
  625SOL    HW2 2208   1.827   0.181   4.852
  626SOL     OW 2209   0.428   0.424   4.244
  626SOL    HW1 2210   0.458   0.352   4.182
  626SOL    HW2 2211   0.389   0.384   4.327
  627SOL     OW 2212   1.705   1.487   4.828
  627SOL    HW1 2213   1.612   1.462   4.801
  627SOL    HW2 2214   1.731   1.437   4.910
  628SOL     OW 2215   0.317   0.547   5.004
  628SOL    HW1 2216   0.355   0.488   5.076
  628SOL    HW2 2217   0.357   0.521   4.916
  629SOL     OW 2218   0.812   1.586   4.411
  629SOL    HW1 2219   0.844   1.596   4.317
  629SOL    HW2 2220   0.733   1.524   4.413
  630SOL     OW 2221   1.424   0.214   4.836
  630SOL    HW1 2222   1.476   0.149   4.891
  630SOL    HW2 2223   1.375   0.277   4.897
  631SOL     OW 2224   1.001   0.034   4.878
  631SOL    HW1 2225   0.938  -0.038   4.847
  631SOL    HW2 2226   1.094  -0.002   4.878
  632SOL     OW 2227   0.770   1.330   4.025
  632SOL    HW1 2228   0.724   1.243   4.042
  632SOL    HW2 2229   0.861   1.327   4.066
  633SOL     OW 2230   0.618   1.567   5.008
  633SOL    HW1 2231   0.613   1.649   5.065
  633SOL    HW2 2232   0.707   1.564   4.963
  634SOL     OW 2233   1.352   0.052   3.892
  634SOL    HW1 2234   1.387   0.011   3.808
  634SOL    HW2 2235   1.262   0.014   3.912
  635SOL     OW 2236   1.300   0.453   4.415
  635SOL    HW1 2237   1.241   0.533   4.419
  635SOL    HW2 2238   1.315   0.418   4.508
  636SOL     OW 2239   1.593   0.221   4.606
  636SOL    HW1 2240   1.509   0.220   4.660
  636SOL    HW2 2241   1.595   0.304   4.550
  637SOL     OW 2242   0.039   1.077   4.024
  637SOL    HW1 2243   0.138   1.066   4.015
  637SOL    HW2 2244  -0.001   0.991   4.056
  638SOL     OW 2245   0.875   1.646   4.061
  638SOL    HW1 2246   0.798   1.611   4.007
  638SOL    HW2 2247   0.843   1.717   4.123
  639SOL     OW 2248   0.230   0.628   5.699
  639SOL    HW1 2249   0.137   0.626   5.736
  639SOL    HW2 2250   0.231   0.589   5.607
  640SOL     OW 2251   0.225   0.275   6.582
  640SOL    HW1 2252   0.260   0.258   6.674
  640SOL    HW2 2253   0.137   0.230   6.570
  641SOL     OW 2254   0.019   0.368   6.233
  641SOL    HW1 2255  -0.063   0.411   6.272
  641SOL    HW2 2256  -0.009   0.295   6.170
  642SOL     OW 2257   0.569   1.275   6.751
  642SOL    HW1 2258   0.476   1.268   6.714
  642SOL    HW2 2259   0.580   1.364   6.795
  643SOL     OW 2260   1.555   1.511   6.289
  643SOL    HW1 2261   1.498   1.495   6.370
  643SOL    HW2 2262   1.496   1.521   6.209
  644SOL     OW 2263   1.135   0.703   6.303
  644SOL    HW1 2264   1.192   0.781   6.278
  644SOL    HW2 2265   1.075   0.729   6.379
  645SOL     OW 2266   1.755   0.607   5.817
  645SOL    HW1 2267   1.743   0.594   5.718
  645SOL    HW2 2268   1.725   0.526   5.866
  646SOL     OW 2269   0.768   1.144   6.609
  646SOL    HW1 2270   0.690   1.161   6.669
  646SOL    HW2 2271   0.802   1.231   6.573
  647SOL     OW 2272   0.850   0.798   7.409
  647SOL    HW1 2273   0.846   0.874   7.474
  647SOL    HW2 2274   0.872   0.834   7.318
  648SOL     OW 2275   0.685   1.012   6.251
  648SOL    HW1 2276   0.754   0.996   6.321
  648SOL    HW2 2277   0.612   1.069   6.289
  649SOL     OW 2278   0.686   1.161   7.389
  649SOL    HW1 2279   0.746   1.240   7.403
  649SOL    HW2 2280   0.600   1.192   7.348
  650SOL     OW 2281   0.335   1.435   6.647
  650SOL    HW1 2282   0.257   1.404   6.594
  650SOL    HW2 2283   0.393   1.493   6.590
  651SOL     OW 2284   1.460   1.505   6.925
  651SOL    HW1 2285   1.484   1.599   6.951
  651SOL    HW2 2286   1.444   1.451   7.007
  652SOL     OW 2287   0.438   0.392   7.085
  652SOL    HW1 2288   0.520   0.336   7.094
  652SOL    HW2 2289   0.357   0.334   7.089
  653SOL     OW 2290   1.603   0.447   6.323
  653SOL    HW1 2291   1.529   0.493   6.273
  653SOL    HW2 2292   1.654   0.515   6.376
  654SOL     OW 2293   0.231   1.713   6.069
  654SOL    HW1 2294   0.265   1.790   6.123
  654SOL    HW2 2295   0.275   1.713   5.979
  655SOL     OW 2296   1.127   1.341   7.276
  655SOL    HW1 2297   1.174   1.341   7.364
  655SOL    HW2 2298   1.079   1.254   7.265
  656SOL     OW 2299   0.230   1.434   6.124
  656SOL    HW1 2300   0.204   1.530   6.124
  656SOL    HW2 2301   0.159   1.380   6.169
  657SOL     OW 2302   0.240   1.091   6.472
  657SOL    HW1 2303   0.254   1.007   6.524
  657SOL    HW2 2304   0.185   1.155   6.527
  658SOL     OW 2305   0.620   1.786   7.025
  658SOL    HW1 2306   0.528   1.769   7.060
  658SOL    HW2 2307   0.648   1.878   7.051
  659SOL     OW 2308   0.606   0.964   5.709
  659SOL    HW1 2309   0.613   1.048   5.655
  659SOL    HW2 2310   0.652   0.977   5.797
  660SOL     OW 2311   1.594   0.114   7.066
  660SOL    HW1 2312   1.576   0.181   6.994
  660SOL    HW2 2313   1.591   0.160   7.155
  661SOL     OW 2314   0.122   0.643   6.149
  661SOL    HW1 2315   0.077   0.555   6.166
  661SOL    HW2 2316   0.121   0.697   6.233
  662SOL     OW 2317   0.027   1.596   5.703
  662SOL    HW1 2318   0.008   1.500   5.724
  662SOL    HW2 2319  -0.006   1.654   5.778
  663SOL     OW 2320   1.689   0.922   6.198
  663SOL    HW1 2321   1.784   0.893   6.206
  663SOL    HW2 2322   1.681   0.987   6.123
  664SOL     OW 2323   1.641   1.108   6.018
  664SOL    HW1 2324   1.727   1.110   5.966
  664SOL    HW2 2325   1.655   1.155   6.106
  665SOL     OW 2326   0.113   0.737   7.183
  665SOL    HW1 2327   0.201   0.724   7.228
  665SOL    HW2 2328   0.100   0.834   7.161
  666SOL     OW 2329   0.613   1.365   6.312
  666SOL    HW1 2330   0.564   1.278   6.321
  666SOL    HW2 2331   0.590   1.408   6.225
  667SOL     OW 2332   1.293   1.228   7.009
  667SOL    HW1 2333   1.330   1.155   6.951
  667SOL    HW2 2334   1.345   1.233   7.094
  668SOL     OW 2335   0.809   0.004   6.088
  668SOL    HW1 2336   0.849   0.095   6.079
  668SOL    HW2 2337   0.709   0.012   6.094
  669SOL     OW 2338   0.197   0.976   6.850
  669SOL    HW1 2339   0.286   0.931   6.836
  669SOL    HW2 2340   0.124   0.911   6.831
  670SOL     OW 2341   1.525   0.999   5.776
  670SOL    HW1 2342   1.462   0.923   5.789
  670SOL    HW2 2343   1.573   1.017   5.862
  671SOL     OW 2344   1.187   1.792   7.202
  671SOL    HW1 2345   1.211   1.852   7.126
  671SOL    HW2 2346   1.194   1.697   7.172
  672SOL     OW 2347   0.317   0.251   7.387
  672SOL    HW1 2348   0.388   0.322   7.393
  672SOL    HW2 2349   0.229   0.290   7.415
  673SOL     OW 2350   1.466   1.417   6.539
  673SOL    HW1 2351   1.407   1.423   6.619
  673SOL    HW2 2352   1.451   1.329   6.493
  674SOL     OW 2353   1.667   1.714   6.158
  674SOL    HW1 2354   1.626   1.691   6.070
  674SOL    HW2 2355   1.649   1.640   6.223
  675SOL     OW 2356   0.598   0.729   5.856
  675SOL    HW1 2357   0.622   0.798   5.788
  675SOL    HW2 2358   0.520   0.762   5.910
  676SOL     OW 2359   1.281   0.345   6.530
  676SOL    HW1 2360   1.195   0.295   6.517
  676SOL    HW2 2361   1.343   0.291   6.586
  677SOL     OW 2362   0.807   0.605   7.051
  677SOL    HW1 2363   0.760   0.602   7.140
  677SOL    HW2 2364   0.756   0.550   6.985
  678SOL     OW 2365   1.394   0.469   7.260
  678SOL    HW1 2366   1.374   0.512   7.348
  678SOL    HW2 2367   1.472   0.407   7.269
  679SOL     OW 2368   0.973   0.890   7.158
  679SOL    HW1 2369   1.019   0.806   7.129
  679SOL    HW2 2370   0.917   0.924   7.083
  680SOL     OW 2371   0.991   0.410   6.828
  680SOL    HW1 2372   0.914   0.444   6.882
  680SOL    HW2 2373   0.957   0.359   6.749
  681SOL     OW 2374   1.041   0.701   6.015
  681SOL    HW1 2375   1.067   0.697   6.111
  681SOL    HW2 2376   0.956   0.650   6.001
  682SOL     OW 2377   0.076   0.811   6.375
  682SOL    HW1 2378   0.175   0.799   6.384
  682SOL    HW2 2379   0.052   0.906   6.396
  683SOL     OW 2380   0.130   1.821   7.157
  683SOL    HW1 2381   0.120   1.806   7.256
  683SOL    HW2 2382   0.044   1.857   7.121
  684SOL     OW 2383   0.865   0.348   5.781
  684SOL    HW1 2384   0.924   0.411   5.732
  684SOL    HW2 2385   0.884   0.254   5.752
  685SOL     OW 2386   1.719   0.585   7.417
  685SOL    HW1 2387   1.693   0.674   7.381
  685SOL    HW2 2388   1.717   0.517   7.344
  686SOL     OW 2389   1.362   1.144   6.131
  686SOL    HW1 2390   1.445   1.115   6.083
  686SOL    HW2 2391   1.313   1.211   6.075
  687SOL     OW 2392   0.550   0.196   6.471
  687SOL    HW1 2393   0.545   0.191   6.571
  687SOL    HW2 2394   0.552   0.292   6.442
  688SOL     OW 2395   1.008   1.456   6.063
  688SOL    HW1 2396   0.962   1.528   6.011
  688SOL    HW2 2397   1.004   1.476   6.161
  689SOL     OW 2398   0.351   1.801   6.439
  689SOL    HW1 2399   0.401   1.715   6.445
  689SOL    HW2 2400   0.416   1.878   6.436
  690SOL     OW 2401   1.795   1.066   6.459
  690SOL    HW1 2402   1.733   1.051   6.383
  690SOL    HW2 2403   1.743   1.077   6.544
  691SOL     OW 2404   1.227   1.550   7.092
  691SOL    HW1 2405   1.233   1.473   7.156
  691SOL    HW2 2406   1.175   1.524   7.012
  692SOL     OW 2407   0.321   0.943   5.828
  692SOL    HW1 2408   0.403   0.982   5.786
  692SOL    HW2 2409   0.294   0.861   5.779
  693SOL     OW 2410   1.458   0.735   6.314
  693SOL    HW1 2411   1.453   0.670   6.389
  693SOL    HW2 2412   1.538   0.794   6.327
  694SOL     OW 2413   0.461   1.266   7.313
  694SOL    HW1 2414   0.411   1.267   7.227
  694SOL    HW2 2415   0.398   1.248   7.389
  695SOL     OW 2416   1.111   1.776   5.823
  695SOL    HW1 2417   1.051   1.714   5.873
  695SOL    HW2 2418   1.142   1.732   5.738
  696SOL     OW 2419   0.202   0.285   7.084
  696SOL    HW1 2420   0.122   0.345   7.071
  696SOL    HW2 2421   0.192   0.236   7.170
  697SOL     OW 2422   1.632   1.377   5.667
  697SOL    HW1 2423   1.600   1.471   5.657
  697SOL    HW2 2424   1.556   1.314   5.655
  698SOL     OW 2425   0.464   1.743   5.909
  698SOL    HW1 2426   0.497   1.782   5.995
  698SOL    HW2 2427   0.540   1.736   5.844
  699SOL     OW 2428   1.400   0.107   6.012
  699SOL    HW1 2429   1.376   0.070   5.922
  699SOL    HW2 2430   1.499   0.123   6.016
  700SOL     OW 2431   0.249   1.785   6.827
  700SOL    HW1 2432   0.306   1.720   6.877
  700SOL    HW2 2433   0.233   1.752   6.734
  701SOL     OW 2434   0.940   1.698   6.490
  701SOL    HW1 2435   1.020   1.641   6.511
  701SOL    HW2 2436   0.891   1.658   6.413
  702SOL     OW 2437   0.382   0.700   6.066
  702SOL    HW1 2438   0.427   0.610   6.063
  702SOL    HW2 2439   0.288   0.689   6.099
  703SOL     OW 2440   1.547   0.222   7.315
  703SOL    HW1 2441   1.542   0.259   7.407
  703SOL    HW2 2442   1.475   0.153   7.303
  704SOL     OW 2443   0.614   0.122   5.703
  704SOL    HW1 2444   0.712   0.100   5.710
  704SOL    HW2 2445   0.583   0.105   5.610
  705SOL     OW 2446   0.781   0.264   7.335
  705SOL    HW1 2447   0.848   0.203   7.378
  705SOL    HW2 2448   0.708   0.283   7.400
  706SOL     OW 2449   0.888   1.514   6.781
  706SOL    HW1 2450   0.865   1.489   6.687
  706SOL    HW2 2451   0.949   1.445   6.820
  707SOL     OW 2452   1.351   0.590   7.019
  707SOL    HW1 2453   1.379   0.547   7.104
  707SOL    HW2 2454   1.376   0.686   7.020
  708SOL     OW 2455   0.803   1.402   6.510
  708SOL    HW1 2456   0.893   1.416   6.468
  708SOL    HW2 2457   0.732   1.404   6.439
  709SOL     OW 2458   0.922   0.503   6.485
  709SOL    HW1 2459   0.897   0.494   6.389
  709SOL    HW2 2460   0.970   0.421   6.516
  710SOL     OW 2461   0.539   0.064   6.098
  710SOL    HW1 2462   0.458   0.065   6.156
  710SOL    HW2 2463   0.542   0.147   6.043
  711SOL     OW 2464   1.434   1.188   5.627
  711SOL    HW1 2465   1.466   1.112   5.684
  711SOL    HW2 2466   1.342   1.215   5.657
  712SOL     OW 2467   0.297   0.035   5.757
  712SOL    HW1 2468   0.346   0.119   5.736
  712SOL    HW2 2469   0.359  -0.030   5.802
  713SOL     OW 2470   0.935   0.236   6.066
  713SOL    HW1 2471   0.887   0.277   5.988
  713SOL    HW2 2472   1.034   0.234   6.047
  714SOL     OW 2473   1.076   0.683   7.050
  714SOL    HW1 2474   0.996   0.622   7.053
  714SOL    HW2 2475   1.157   0.630   7.026
  715SOL     OW 2476   1.227   1.570   6.379
  715SOL    HW1 2477   1.248   1.644   6.314
  715SOL    HW2 2478   1.295   1.570   6.452
  716SOL     OW 2479   0.459   1.152   6.327
  716SOL    HW1 2480   0.388   1.125   6.392
  716SOL    HW2 2481   0.433   1.124   6.234
  717SOL     OW 2482   1.271   1.797   6.177
  717SOL    HW1 2483   1.315   1.861   6.113
  717SOL    HW2 2484   1.221   1.849   6.247
  718SOL     OW 2485   1.032   0.549   5.602
  718SOL    HW1 2486   0.991   0.631   5.563
  718SOL    HW2 2487   1.096   0.575   5.675
  719SOL     OW 2488   0.078   0.556   6.972
  719SOL    HW1 2489   0.170   0.555   6.931
  719SOL    HW2 2490   0.072   0.630   7.039
  720SOL     OW 2491   0.561   0.222   6.733
  720SOL    HW1 2492   0.599   0.138   6.770
  720SOL    HW2 2493   0.473   0.241   6.777
  721SOL     OW 2494   0.866   0.454   6.228
  721SOL    HW1 2495   0.834   0.526   6.166
  721SOL    HW2 2496   0.890   0.373   6.175
  722SOL     OW 2497   1.017   0.039   6.339
  722SOL    HW1 2498   0.945   0.044   6.270
  722SOL    HW2 2499   0.993  -0.030   6.408
  723SOL     OW 2500   1.429   1.173   6.453
  723SOL    HW1 2501   1.374   1.089   6.446
  723SOL    HW2 2502   1.455   1.202   6.361
  724SOL     OW 2503   1.466   0.590   6.578
  724SOL    HW1 2504   1.436   0.495   6.585
  724SOL    HW2 2505   1.539   0.606   6.644
  725SOL     OW 2506   1.857   0.833   5.963
  725SOL    HW1 2507   1.899   0.769   6.027
  725SOL    HW2 2508   1.819   0.782   5.885
  726SOL     OW 2509   0.488   1.385   5.760
  726SOL    HW1 2510   0.401   1.370   5.807
  726SOL    HW2 2511   0.471   1.411   5.665
  727SOL     OW 2512   1.664   1.280   6.243
  727SOL    HW1 2513   1.763   1.288   6.257
  727SOL    HW2 2514   1.619   1.364   6.274
  728SOL     OW 2515   1.390   0.575   5.664
  728SOL    HW1 2516   1.336   0.554   5.745
  728SOL    HW2 2517   1.481   0.534   5.673
  729SOL     OW 2518   0.527   0.256   5.914
  729SOL    HW1 2519   0.554   0.197   5.839
  729SOL    HW2 2520   0.527   0.351   5.883
  730SOL     OW 2521   1.754   1.223   7.174
  730SOL    HW1 2522   1.845   1.184   7.161
  730SOL    HW2 2523   1.762   1.319   7.198
  731SOL     OW 2524   1.064   1.347   6.926
  731SOL    HW1 2525   0.984   1.324   6.981
  731SOL    HW2 2526   1.147   1.321   6.975
  732SOL     OW 2527   1.592   1.629   7.211
  732SOL    HW1 2528   1.619   1.663   7.121
  732SOL    HW2 2529   1.671   1.591   7.257
  733SOL     OW 2530   1.111   1.195   6.686
  733SOL    HW1 2531   1.071   1.239   6.767
  733SOL    HW2 2532   1.070   1.232   6.603
  734SOL     OW 2533   1.638   1.099   6.665
  734SOL    HW1 2534   1.643   1.180   6.724
  734SOL    HW2 2535   1.552   1.101   6.614
  735SOL     OW 2536   0.915   0.089   6.988
  735SOL    HW1 2537   0.940   0.069   6.893
  735SOL    HW2 2538   0.987   0.145   7.030
  736SOL     OW 2539   0.980   1.116   7.305
  736SOL    HW1 2540   0.881   1.122   7.315
  736SOL    HW2 2541   1.003   1.036   7.249
  737SOL     OW 2542   0.705   1.050   5.954
  737SOL    HW1 2543   0.691   1.057   6.053
  737SOL    HW2 2544   0.789   0.999   5.936
  738SOL     OW 2545   0.410   0.813   6.837
  738SOL    HW1 2546   0.496   0.825   6.887
  738SOL    HW2 2547   0.368   0.726   6.864
  739SOL     OW 2548   1.274   0.386   6.848
  739SOL    HW1 2549   1.295   0.460   6.912
  739SOL    HW2 2550   1.185   0.403   6.805
  740SOL     OW 2551   0.064   1.564   6.917
  740SOL    HW1 2552   0.018   1.646   6.883
  740SOL    HW2 2553   0.162   1.583   6.926
  741SOL     OW 2554   0.367   1.100   6.087
  741SOL    HW1 2555   0.360   1.183   6.031
  741SOL    HW2 2556   0.371   1.020   6.027
  742SOL     OW 2557   0.566   0.537   6.451
  742SOL    HW1 2558   0.578   0.603   6.377
  742SOL    HW2 2559   0.612   0.571   6.534
  743SOL     OW 2560   1.252   1.348   5.974
  743SOL    HW1 2561   1.302   1.425   6.014
  743SOL    HW2 2562   1.157   1.350   6.006
  744SOL     OW 2563   1.272   1.445   6.728
  744SOL    HW1 2564   1.319   1.458   6.815
  744SOL    HW2 2565   1.206   1.371   6.737
  745SOL     OW 2566   1.582   0.639   6.058
  745SOL    HW1 2567   1.551   0.700   6.131
  745SOL    HW2 2568   1.632   0.691   5.989
  746SOL     OW 2569   0.354   1.510   6.915
  746SOL    HW1 2570   0.333   1.466   6.828
  746SOL    HW2 2571   0.451   1.536   6.918
  747SOL     OW 2572   0.402   0.751   7.184
  747SOL    HW1 2573   0.470   0.806   7.137
  747SOL    HW2 2574   0.442   0.663   7.211
  748SOL     OW 2575   1.587   0.779   7.256
  748SOL    HW1 2576   1.495   0.817   7.251
  748SOL    HW2 2577   1.647   0.826   7.191
  749SOL     OW 2578   1.013   0.105   7.356
  749SOL    HW1 2579   1.019   0.190   7.304
  749SOL    HW2 2580   1.045   0.029   7.299
  750SOL     OW 2581   0.504   0.050   7.326
  750SOL    HW1 2582   0.462  -0.007   7.256
  750SOL    HW2 2583   0.438   0.119   7.358
  751SOL     OW 2584   0.573   0.870   6.615
  751SOL    HW1 2585   0.617   0.959   6.606
  751SOL    HW2 2586   0.510   0.870   6.692
  752SOL     OW 2587   1.360   0.862   6.631
  752SOL    HW1 2588   1.285   0.862   6.565
  752SOL    HW2 2589   1.397   0.770   6.640
  753SOL     OW 2590   1.209   0.525   5.861
  753SOL    HW1 2591   1.222   0.441   5.915
  753SOL    HW2 2592   1.180   0.599   5.921
  754SOL     OW 2593   0.307   0.213   6.817
  754SOL    HW1 2594   0.284   0.250   6.907
  754SOL    HW2 2595   0.277   0.118   6.811
  755SOL     OW 2596   0.037   1.310   6.868
  755SOL    HW1 2597   0.090   1.261   6.936
  755SOL    HW2 2598   0.059   1.408   6.873
  756SOL     OW 2599   0.732   0.634   6.650
  756SOL    HW1 2600   0.791   0.608   6.574
  756SOL    HW2 2601   0.704   0.730   6.639
  757SOL     OW 2602   1.728   0.935   7.440
  757SOL    HW1 2603   1.682   0.928   7.351
  757SOL    HW2 2604   1.666   0.979   7.506
  758SOL     OW 2605   0.307   0.063   6.204
  758SOL    HW1 2606   0.296   0.157   6.237
  758SOL    HW2 2607   0.302   0.000   6.281
  759SOL     OW 2608   1.622   0.367   5.960
  759SOL    HW1 2609   1.624   0.291   6.024
  759SOL    HW2 2610   1.574   0.444   6.000
  760SOL     OW 2611   1.023   0.766   6.552
  760SOL    HW1 2612   1.038   0.787   6.648
  760SOL    HW2 2613   0.993   0.671   6.543
  761SOL     OW 2614   0.980   1.573   7.286
  761SOL    HW1 2615   0.960   1.617   7.198
  761SOL    HW2 2616   1.019   1.482   7.270
  762SOL     OW 2617   1.859   1.518   7.191
  762SOL    HW1 2618   1.873   1.545   7.096
  762SOL    HW2 2619   1.942   1.540   7.244
  763SOL     OW 2620   0.350   0.898   7.390
  763SOL    HW1 2621   0.426   0.942   7.438
  763SOL    HW2 2622   0.385   0.851   7.308
  764SOL     OW 2623   1.540   0.274   5.711
  764SOL    HW1 2624   1.479   0.199   5.734
  764SOL    HW2 2625   1.562   0.326   5.794
  765SOL     OW 2626   1.303   0.838   5.628
  765SOL    HW1 2627   1.337   0.745   5.643
  765SOL    HW2 2628   1.321   0.865   5.533
  766SOL     OW 2629   1.068   1.333   6.435
  766SOL    HW1 2630   1.075   1.249   6.380
  766SOL    HW2 2631   1.130   1.402   6.399
  767SOL     OW 2632   0.319   0.810   6.535
  767SOL    HW1 2633   0.412   0.846   6.540
  767SOL    HW2 2634   0.313   0.725   6.587
  768SOL     OW 2635   0.339   0.509   6.592
  768SOL    HW1 2636   0.287   0.426   6.575
  768SOL    HW2 2637   0.416   0.514   6.528
  769SOL     OW 2638   1.138   0.380   7.264
  769SOL    HW1 2639   1.093   0.443   7.328
  769SOL    HW2 2640   1.231   0.411   7.247
  770SOL     OW 2641   1.160   0.207   7.063
  770SOL    HW1 2642   1.160   0.271   7.140
  770SOL    HW2 2643   1.188   0.255   6.980
  771SOL     OW 2644   0.008   1.326   5.786
  771SOL    HW1 2645  -0.085   1.347   5.755
  771SOL    HW2 2646   0.018   1.227   5.799
  772SOL     OW 2647   0.088   1.801   6.513
  772SOL    HW1 2648   0.046   1.715   6.486
  772SOL    HW2 2649   0.182   1.804   6.479
  773SOL     OW 2650   0.504   1.568   6.496
  773SOL    HW1 2651   0.570   1.642   6.505
  773SOL    HW2 2652   0.548   1.489   6.454
  774SOL     OW 2653   1.002   0.796   6.824
  774SOL    HW1 2654   1.043   0.764   6.910
  774SOL    HW2 2655   0.906   0.769   6.821
  775SOL     OW 2656   0.040   0.544   6.700
  775SOL    HW1 2657   0.125   0.511   6.659
  775SOL    HW2 2658   0.053   0.559   6.798
  776SOL     OW 2659   0.189   0.520   7.308
  776SOL    HW1 2660   0.248   0.480   7.238
  776SOL    HW2 2661   0.131   0.591   7.267
  777SOL     OW 2662   1.369   0.950   7.246
  777SOL    HW1 2663   1.408   1.039   7.266
  777SOL    HW2 2664   1.379   0.930   7.149
  778SOL     OW 2665   0.815   0.572   5.911
  778SOL    HW1 2666   0.822   0.483   5.865
  778SOL    HW2 2667   0.721   0.606   5.903
  779SOL     OW 2668   1.657   0.604   6.792
  779SOL    HW1 2669   1.619   0.535   6.854
  779SOL    HW2 2670   1.739   0.568   6.748
  780SOL     OW 2671   0.252   1.564   7.330
  780SOL    HW1 2672   0.222   1.621   7.406
  780SOL    HW2 2673   0.245   1.467   7.356
  781SOL     OW 2674   0.671   0.464   6.855
  781SOL    HW1 2675   0.637   0.375   6.825
  781SOL    HW2 2676   0.697   0.518   6.775
  782SOL     OW 2677   0.930   1.678   7.051
  782SOL    HW1 2678   0.906   1.660   6.956
  782SOL    HW2 2679   0.960   1.772   7.061
  783SOL     OW 2680   0.473   0.500   5.777
  783SOL    HW1 2681   0.534   0.580   5.781
  783SOL    HW2 2682   0.378   0.531   5.784
  784SOL     OW 2683   0.159   1.137   7.052
  784SOL    HW1 2684   0.181   1.076   7.128
  784SOL    HW2 2685   0.169   1.088   6.966
  785SOL     OW 2686   1.347   1.059   6.820
  785SOL    HW1 2687   1.371   0.996   6.746
  785SOL    HW2 2688   1.257   1.099   6.802
  786SOL     OW 2689   1.302   0.855   5.895
  786SOL    HW1 2690   1.216   0.824   5.937
  786SOL    HW2 2691   1.298   0.841   5.796
  787SOL     OW 2692   1.759   1.747   6.740
  787SOL    HW1 2693   1.820   1.777   6.667
  787SOL    HW2 2694   1.721   1.658   6.718
  788SOL     OW 2695   1.252   1.731   6.714
  788SOL    HW1 2696   1.336   1.736   6.660
  788SOL    HW2 2697   1.229   1.635   6.732
  789SOL     OW 2698   0.083   1.258   6.608
  789SOL    HW1 2699   0.078   1.257   6.708
  789SOL    HW2 2700   0.000   1.217   6.570
  790SOL     OW 2701   0.688   1.662   7.302
  790SOL    HW1 2702   0.632   1.743   7.311
  790SOL    HW2 2703   0.740   1.666   7.216
  791SOL     OW 2704   1.726   0.135   6.109
  791SOL    HW1 2705   1.799   0.118   6.042
  791SOL    HW2 2706   1.695   0.048   6.147
  792SOL     OW 2707   1.388   1.573   6.063
  792SOL    HW1 2708   1.455   1.585   5.989
  792SOL    HW2 2709   1.348   1.662   6.086
  793SOL     OW 2710   0.130   1.794   7.437
  793SOL    HW1 2711   0.089   1.720   7.490
  793SOL    HW2 2712   0.194   1.845   7.495
  794SOL     OW 2713   1.280   0.927   6.258
  794SOL    HW1 2714   1.340   0.846   6.260
  794SOL    HW2 2715   1.320   0.996   6.198
  795SOL     OW 2716   0.830   1.273   7.008
  795SOL    HW1 2717   0.825   1.306   7.103
  795SOL    HW2 2718   0.744   1.292   6.962
  796SOL     OW 2719   0.672   1.616   5.740
  796SOL    HW1 2720   0.681   1.626   5.641
  796SOL    HW2 2721   0.632   1.527   5.761
  797SOL     OW 2722   1.650   1.720   6.980
  797SOL    HW1 2723   1.703   1.730   6.896
  797SOL    HW2 2724   1.623   1.810   7.014
  798SOL     OW 2725   1.841   0.175   6.549
  798SOL    HW1 2726   1.880   0.090   6.513
  798SOL    HW2 2727   1.743   0.177   6.530
  799SOL     OW 2728   0.263   0.326   6.306
  799SOL    HW1 2729   0.184   0.377   6.272
  799SOL    HW2 2730   0.254   0.311   6.404
  800SOL     OW 2731   1.194   1.612   5.617
  800SOL    HW1 2732   1.200   1.519   5.654
  800SOL    HW2 2733   1.135   1.612   5.537
  801SOL     OW 2734   0.822   1.002   6.958
  801SOL    HW1 2735   0.862   1.001   6.866
  801SOL    HW2 2736   0.832   1.094   6.998
  802SOL     OW 2737   0.916   0.910   5.877
  802SOL    HW1 2738   0.979   0.948   5.809
  802SOL    HW2 2739   0.956   0.827   5.916
  803SOL     OW 2740   1.504   1.607   5.630
  803SOL    HW1 2741   1.412   1.644   5.637
  803SOL    HW2 2742   1.542   1.627   5.540
  804SOL     OW 2743   0.372   1.288   7.076
  804SOL    HW1 2744   0.359   1.381   7.042
  804SOL    HW2 2745   0.288   1.236   7.063
  805SOL     OW 2746   1.614   1.292   6.875
  805SOL    HW1 2747   1.674   1.295   6.955
  805SOL    HW2 2748   1.539   1.356   6.888
  806SOL     OW 2749   1.039   1.098   6.282
  806SOL    HW1 2750   0.969   1.051   6.336
  806SOL    HW2 2751   1.098   1.030   6.239
  807SOL     OW 2752   1.014   0.236   6.557
  807SOL    HW1 2753   1.006   0.200   6.464
  807SOL    HW2 2754   1.012   0.160   6.622
  808SOL     OW 2755   0.590   1.487   6.077
  808SOL    HW1 2756   0.632   1.429   6.007
  808SOL    HW2 2757   0.546   1.566   6.033
  809SOL     OW 2758   1.709   0.385   6.967
  809SOL    HW1 2759   1.782   0.454   6.971
  809SOL    HW2 2760   1.737   0.310   6.908
  810SOL     OW 2761   0.255   1.348   5.876
  810SOL    HW1 2762   0.159   1.349   5.849
  810SOL    HW2 2763   0.267   1.401   5.960
  811SOL     OW 2764   0.105   1.013   7.312
  811SOL    HW1 2765   0.028   0.980   7.366
  811SOL    HW2 2766   0.190   0.983   7.354
  812SOL     OW 2767   0.672   0.203   7.075
  812SOL    HW1 2768   0.762   0.187   7.035
  812SOL    HW2 2769   0.680   0.208   7.174
  813SOL     OW 2770   0.075   0.345   5.619
  813SOL    HW1 2771  -0.017   0.317   5.590
  813SOL    HW2 2772   0.106   0.422   5.563
  814SOL     OW 2773   1.440   0.856   6.984
  814SOL    HW1 2774   1.383   0.908   6.921
  814SOL    HW2 2775   1.536   0.868   6.960
  815SOL     OW 2776   0.072   0.166   5.904
  815SOL    HW1 2777   0.055   0.249   5.850
  815SOL    HW2 2778   0.162   0.129   5.882
  816SOL     OW 2779   1.183   1.335   5.705
  816SOL    HW1 2780   1.084   1.324   5.707
  816SOL    HW2 2781   1.217   1.350   5.798
  817SOL     OW 2782   0.613   0.842   7.017
  817SOL    HW1 2783   0.669   0.923   7.000
  817SOL    HW2 2784   0.672   0.762   7.020
  818SOL     OW 2785   1.493   1.767   6.545
  818SOL    HW1 2786   1.526   1.831   6.476
  818SOL    HW2 2787   1.559   1.761   6.620
  819SOL     OW 2788   0.716   0.565   7.294
  819SOL    HW1 2789   0.735   0.630   7.368
  819SOL    HW2 2790   0.776   0.485   7.303
  820SOL     OW 2791   1.450   1.220   7.219
  820SOL    HW1 2792   1.441   1.210   7.318
  820SOL    HW2 2793   1.546   1.213   7.193
  821SOL     OW 2794   0.390   1.741   7.146
  821SOL    HW1 2795   0.299   1.782   7.144
  821SOL    HW2 2796   0.383   1.647   7.178
  822SOL     OW 2797   1.674   0.883   6.840
  822SOL    HW1 2798   1.647   0.794   6.803
  822SOL    HW2 2799   1.675   0.951   6.767
  823SOL     OW 2800   1.225   0.325   6.035
  823SOL    HW1 2801   1.290   0.251   6.024
  823SOL    HW2 2802   1.245   0.375   6.119
  824SOL     OW 2803   0.594   0.745   6.238
  824SOL    HW1 2804   0.644   0.830   6.219
  824SOL    HW2 2805   0.506   0.747   6.190
  825SOL     OW 2806   1.777   0.342   7.228
  825SOL    HW1 2807   1.760   0.373   7.134
  825SOL    HW2 2808   1.693   0.305   7.266
  826SOL     OW 2809   1.730   0.934   7.103
  826SOL    HW1 2810   1.768   1.025   7.118
  826SOL    HW2 2811   1.722   0.917   7.004
  827SOL     OW 2812   0.859   1.374   5.602
  827SOL    HW1 2813   0.813   1.389   5.690
  827SOL    HW2 2814   0.903   1.459   5.572
  828SOL     OW 2815   0.661   1.790   6.539
  828SOL    HW1 2816   0.615   1.878   6.526
  828SOL    HW2 2817   0.760   1.802   6.532
  829SOL     OW 2818   0.859   0.956   6.447
  829SOL    HW1 2819   0.913   0.887   6.495
  829SOL    HW2 2820   0.827   1.025   6.513
  830SOL     OW 2821   1.083   0.984   5.673
  830SOL    HW1 2822   1.060   1.037   5.591
  830SOL    HW2 2823   1.164   0.928   5.654
  831SOL     OW 2824   1.861   1.569   6.437
  831SOL    HW1 2825   1.790   1.557   6.367
  831SOL    HW2 2826   1.862   1.490   6.497
  832SOL     OW 2827   0.221   1.314   7.430
  832SOL    HW1 2828   0.156   1.241   7.409
  832SOL    HW2 2829   0.225   1.328   7.528
  833SOL     OW 2830   0.079   1.240   6.239
  833SOL    HW1 2831   0.078   1.193   6.327
  833SOL    HW2 2832   0.161   1.212   6.188
  834SOL     OW 2833   0.672   1.391   7.210
  834SOL    HW1 2834   0.594   1.341   7.248
  834SOL    HW2 2835   0.669   1.486   7.241
  835SOL     OW 2836   1.824   0.192   6.813
  835SOL    HW1 2837   1.820   0.102   6.857
  835SOL    HW2 2838   1.827   0.181   6.714
  836SOL     OW 2839   0.428   0.424   6.106
  836SOL    HW1 2840   0.458   0.352   6.044
  836SOL    HW2 2841   0.389   0.384   6.189
  837SOL     OW 2842   1.705   1.487   6.690
  837SOL    HW1 2843   1.612   1.462   6.663
  837SOL    HW2 2844   1.731   1.437   6.772
  838SOL     OW 2845   0.317   0.547   6.866
  838SOL    HW1 2846   0.355   0.488   6.938
  838SOL    HW2 2847   0.357   0.521   6.778
  839SOL     OW 2848   0.812   1.586   6.273
  839SOL    HW1 2849   0.844   1.596   6.179
  839SOL    HW2 2850   0.733   1.524   6.275
  840SOL     OW 2851   1.424   0.214   6.698
  840SOL    HW1 2852   1.476   0.149   6.753
  840SOL    HW2 2853   1.375   0.277   6.759
  841SOL     OW 2854   1.001   0.034   6.740
  841SOL    HW1 2855   0.938  -0.038   6.709
  841SOL    HW2 2856   1.094  -0.002   6.740
  842SOL     OW 2857   0.770   1.330   5.887
  842SOL    HW1 2858   0.724   1.243   5.904
  842SOL    HW2 2859   0.861   1.327   5.928
  843SOL     OW 2860   0.618   1.567   6.870
  843SOL    HW1 2861   0.613   1.649   6.927
  843SOL    HW2 2862   0.707   1.564   6.825
  844SOL     OW 2863   1.352   0.052   5.754
  844SOL    HW1 2864   1.387   0.011   5.670
  844SOL    HW2 2865   1.262   0.014   5.774
  845SOL     OW 2866   1.300   0.453   6.277
  845SOL    HW1 2867   1.241   0.533   6.281
  845SOL    HW2 2868   1.315   0.418   6.370
  846SOL     OW 2869   1.593   0.221   6.468
  846SOL    HW1 2870   1.509   0.220   6.522
  846SOL    HW2 2871   1.595   0.304   6.412
  847SOL     OW 2872   0.039   1.077   5.886
  847SOL    HW1 2873   0.138   1.066   5.877
  847SOL    HW2 2874  -0.001   0.991   5.918
  848SOL     OW 2875   0.875   1.646   5.923
  848SOL    HW1 2876   0.798   1.611   5.869
  848SOL    HW2 2877   0.843   1.717   5.985
  849SOL     OW 2878   0.230   0.628   7.561
  849SOL    HW1 2879   0.137   0.626   7.598
  849SOL    HW2 2880   0.231   0.589   7.469
  850SOL     OW 2881   0.225   0.275   8.444
  850SOL    HW1 2882   0.260   0.258   8.536
  850SOL    HW2 2883   0.137   0.230   8.432
  851SOL     OW 2884   0.019   0.368   8.095
  851SOL    HW1 2885  -0.063   0.411   8.134
  851SOL    HW2 2886  -0.009   0.295   8.032
  852SOL     OW 2887   0.569   1.275   8.613
  852SOL    HW1 2888   0.476   1.268   8.576
  852SOL    HW2 2889   0.580   1.364   8.657
  853SOL     OW 2890   1.555   1.511   8.151
  853SOL    HW1 2891   1.498   1.495   8.232
  853SOL    HW2 2892   1.496   1.521   8.071
  854SOL     OW 2893   1.135   0.703   8.165
  854SOL    HW1 2894   1.192   0.781   8.140
  854SOL    HW2 2895   1.075   0.729   8.241
  855SOL     OW 2896   1.755   0.607   7.679
  855SOL    HW1 2897   1.743   0.594   7.580
  855SOL    HW2 2898   1.725   0.526   7.728
  856SOL     OW 2899   0.768   1.144   8.471
  856SOL    HW1 2900   0.690   1.161   8.531
  856SOL    HW2 2901   0.802   1.231   8.435
  857SOL     OW 2902   0.850   0.798   9.271
  857SOL    HW1 2903   0.846   0.874   9.336
  857SOL    HW2 2904   0.872   0.834   9.180
  858SOL     OW 2905   0.685   1.012   8.113
  858SOL    HW1 2906   0.754   0.996   8.183
  858SOL    HW2 2907   0.612   1.069   8.151
  859SOL     OW 2908   0.686   1.161   9.251
  859SOL    HW1 2909   0.746   1.240   9.265
  859SOL    HW2 2910   0.600   1.192   9.210
  860SOL     OW 2911   0.335   1.435   8.509
  860SOL    HW1 2912   0.257   1.404   8.456
  860SOL    HW2 2913   0.393   1.493   8.452
  861SOL     OW 2914   1.460   1.505   8.787
  861SOL    HW1 2915   1.484   1.599   8.813
  861SOL    HW2 2916   1.444   1.451   8.869
  862SOL     OW 2917   0.438   0.392   8.947
  862SOL    HW1 2918   0.520   0.336   8.956
  862SOL    HW2 2919   0.357   0.334   8.951
  863SOL     OW 2920   1.603   0.447   8.185
  863SOL    HW1 2921   1.529   0.493   8.135
  863SOL    HW2 2922   1.654   0.515   8.238
  864SOL     OW 2923   0.231   1.713   7.931
  864SOL    HW1 2924   0.265   1.790   7.985
  864SOL    HW2 2925   0.275   1.713   7.841
  865SOL     OW 2926   1.127   1.341   9.138
  865SOL    HW1 2927   1.174   1.341   9.226
  865SOL    HW2 2928   1.079   1.254   9.127
  866SOL     OW 2929   0.230   1.434   7.986
  866SOL    HW1 2930   0.204   1.530   7.986
  866SOL    HW2 2931   0.159   1.380   8.031
  867SOL     OW 2932   0.240   1.091   8.334
  867SOL    HW1 2933   0.254   1.007   8.386
  867SOL    HW2 2934   0.185   1.155   8.389
  868SOL     OW 2935   0.620   1.786   8.887
  868SOL    HW1 2936   0.528   1.769   8.922
  868SOL    HW2 2937   0.648   1.878   8.913
  869SOL     OW 2938   0.606   0.964   7.571
  869SOL    HW1 2939   0.613   1.048   7.517
  869SOL    HW2 2940   0.652   0.977   7.659
  870SOL     OW 2941   1.594   0.114   8.928
  870SOL    HW1 2942   1.576   0.181   8.856
  870SOL    HW2 2943   1.591   0.160   9.017
  871SOL     OW 2944   0.122   0.643   8.011
  871SOL    HW1 2945   0.077   0.555   8.028
  871SOL    HW2 2946   0.121   0.697   8.095
  872SOL     OW 2947   1.842   1.767   7.807
  872SOL    HW1 2948   1.896   1.738   7.887
  872SOL    HW2 2949   1.872   1.857   7.778
  873SOL     OW 2950   0.027   1.596   7.565
  873SOL    HW1 2951   0.008   1.500   7.586
  873SOL    HW2 2952  -0.006   1.654   7.640
  874SOL     OW 2953   1.689   0.922   8.060
  874SOL    HW1 2954   1.784   0.893   8.068
  874SOL    HW2 2955   1.681   0.987   7.985
  875SOL     OW 2956   1.641   1.108   7.880
  875SOL    HW1 2957   1.727   1.110   7.828
  875SOL    HW2 2958   1.655   1.155   7.968
  876SOL     OW 2959   0.113   0.737   9.045
  876SOL    HW1 2960   0.201   0.724   9.090
  876SOL    HW2 2961   0.100   0.834   9.023
  877SOL     OW 2962   0.613   1.365   8.174
  877SOL    HW1 2963   0.564   1.278   8.183
  877SOL    HW2 2964   0.590   1.408   8.087
  878SOL     OW 2965   1.293   1.228   8.871
  878SOL    HW1 2966   1.330   1.155   8.813
  878SOL    HW2 2967   1.345   1.233   8.956
  879SOL     OW 2968   0.809   0.004   7.950
  879SOL    HW1 2969   0.849   0.095   7.941
  879SOL    HW2 2970   0.709   0.012   7.956
  880SOL     OW 2971   0.197   0.976   8.712
  880SOL    HW1 2972   0.286   0.931   8.698
  880SOL    HW2 2973   0.124   0.911   8.693
  881SOL     OW 2974   1.525   0.999   7.638
  881SOL    HW1 2975   1.462   0.923   7.651
  881SOL    HW2 2976   1.573   1.017   7.724
  882SOL     OW 2977   1.187   1.792   9.064
  882SOL    HW1 2978   1.211   1.852   8.988
  882SOL    HW2 2979   1.194   1.697   9.034
  883SOL     OW 2980   0.317   0.251   9.249
  883SOL    HW1 2981   0.388   0.322   9.255
  883SOL    HW2 2982   0.229   0.290   9.277
  884SOL     OW 2983   1.466   1.417   8.401
  884SOL    HW1 2984   1.407   1.423   8.481
  884SOL    HW2 2985   1.451   1.329   8.355
  885SOL     OW 2986   1.667   1.714   8.020
  885SOL    HW1 2987   1.626   1.691   7.932
  885SOL    HW2 2988   1.649   1.640   8.085
  886SOL     OW 2989   0.598   0.729   7.718
  886SOL    HW1 2990   0.622   0.798   7.650
  886SOL    HW2 2991   0.520   0.762   7.772
  887SOL     OW 2992   1.281   0.345   8.392
  887SOL    HW1 2993   1.195   0.295   8.379
  887SOL    HW2 2994   1.343   0.291   8.448
  888SOL     OW 2995   1.576   1.662   7.755
  888SOL    HW1 2996   1.665   1.708   7.758
  888SOL    HW2 2997   1.555   1.638   7.660
  889SOL     OW 2998   0.807   0.605   8.913
  889SOL    HW1 2999   0.760   0.602   9.002
  889SOL    HW2 3000   0.756   0.550   8.847
  890SOL     OW 3001   1.394   0.469   9.122
  890SOL    HW1 3002   1.374   0.512   9.210
  890SOL    HW2 3003   1.472   0.407   9.131
  891SOL     OW 3004   0.973   0.890   9.020
  891SOL    HW1 3005   1.019   0.806   8.991
  891SOL    HW2 3006   0.917   0.924   8.945
  892SOL     OW 3007   0.991   0.410   8.690
  892SOL    HW1 3008   0.914   0.444   8.744
  892SOL    HW2 3009   0.957   0.359   8.611
  893SOL     OW 3010   1.041   0.701   7.877
  893SOL    HW1 3011   1.067   0.697   7.973
  893SOL    HW2 3012   0.956   0.650   7.863
  894SOL     OW 3013   0.076   0.811   8.237
  894SOL    HW1 3014   0.175   0.799   8.246
  894SOL    HW2 3015   0.052   0.906   8.258
  895SOL     OW 3016   0.130   1.821   9.019
  895SOL    HW1 3017   0.120   1.806   9.118
  895SOL    HW2 3018   0.044   1.857   8.983
  896SOL     OW 3019   0.865   0.348   7.643
  896SOL    HW1 3020   0.924   0.411   7.594
  896SOL    HW2 3021   0.884   0.254   7.614
  897SOL     OW 3022   1.719   0.585   9.279
  897SOL    HW1 3023   1.693   0.674   9.243
  897SOL    HW2 3024   1.717   0.517   9.206
  898SOL     OW 3025   1.362   1.144   7.993
  898SOL    HW1 3026   1.445   1.115   7.945
  898SOL    HW2 3027   1.313   1.211   7.937
  899SOL     OW 3028   0.550   0.196   8.333
  899SOL    HW1 3029   0.545   0.191   8.433
  899SOL    HW2 3030   0.552   0.292   8.304
  900SOL     OW 3031   1.008   1.456   7.925
  900SOL    HW1 3032   0.962   1.528   7.873
  900SOL    HW2 3033   1.004   1.476   8.023
  901SOL     OW 3034   0.351   1.801   8.301
  901SOL    HW1 3035   0.401   1.715   8.307
  901SOL    HW2 3036   0.416   1.878   8.298
  902SOL     OW 3037   1.795   1.066   8.321
  902SOL    HW1 3038   1.733   1.051   8.245
  902SOL    HW2 3039   1.743   1.077   8.406
  903SOL     OW 3040   1.227   1.550   8.954
  903SOL    HW1 3041   1.233   1.473   9.018
  903SOL    HW2 3042   1.175   1.524   8.874
  904SOL     OW 3043   0.321   0.943   7.690
  904SOL    HW1 3044   0.403   0.982   7.648
  904SOL    HW2 3045   0.294   0.861   7.641
  905SOL     OW 3046   1.458   0.735   8.176
  905SOL    HW1 3047   1.453   0.670   8.251
  905SOL    HW2 3048   1.538   0.794   8.189
  906SOL     OW 3049   0.461   1.266   9.175
  906SOL    HW1 3050   0.411   1.267   9.089
  906SOL    HW2 3051   0.398   1.248   9.251
  907SOL     OW 3052   1.111   1.776   7.685
  907SOL    HW1 3053   1.051   1.714   7.735
  907SOL    HW2 3054   1.142   1.732   7.600
  908SOL     OW 3055   0.202   0.285   8.946
  908SOL    HW1 3056   0.122   0.345   8.933
  908SOL    HW2 3057   0.192   0.236   9.032
  909SOL     OW 3058   1.632   1.377   7.529
  909SOL    HW1 3059   1.600   1.471   7.519
  909SOL    HW2 3060   1.556   1.314   7.517
  910SOL     OW 3061   0.464   1.743   7.771
  910SOL    HW1 3062   0.497   1.782   7.857
  910SOL    HW2 3063   0.540   1.736   7.706
  911SOL     OW 3064   1.400   0.107   7.874
  911SOL    HW1 3065   1.376   0.070   7.784
  911SOL    HW2 3066   1.499   0.123   7.878
  912SOL     OW 3067   0.249   1.785   8.689
  912SOL    HW1 3068   0.306   1.720   8.739
  912SOL    HW2 3069   0.233   1.752   8.596
  913SOL     OW 3070   0.940   1.698   8.352
  913SOL    HW1 3071   1.020   1.641   8.373
  913SOL    HW2 3072   0.891   1.658   8.275
  914SOL     OW 3073   0.382   0.700   7.928
  914SOL    HW1 3074   0.427   0.610   7.925
  914SOL    HW2 3075   0.288   0.689   7.961
  915SOL     OW 3076   1.547   0.222   9.177
  915SOL    HW1 3077   1.542   0.259   9.269
  915SOL    HW2 3078   1.475   0.153   9.165
  916SOL     OW 3079   0.614   0.122   7.565
  916SOL    HW1 3080   0.712   0.100   7.572
  916SOL    HW2 3081   0.583   0.105   7.472
  917SOL     OW 3082   0.781   0.264   9.197
  917SOL    HW1 3083   0.848   0.203   9.240
  917SOL    HW2 3084   0.708   0.283   9.262
  918SOL     OW 3085   0.888   1.514   8.643
  918SOL    HW1 3086   0.865   1.489   8.549
  918SOL    HW2 3087   0.949   1.445   8.682
  919SOL     OW 3088   1.351   0.590   8.881
  919SOL    HW1 3089   1.379   0.547   8.966
  919SOL    HW2 3090   1.376   0.686   8.882
  920SOL     OW 3091   0.803   1.402   8.372
  920SOL    HW1 3092   0.893   1.416   8.330
  920SOL    HW2 3093   0.732   1.404   8.301
  921SOL     OW 3094   0.922   0.503   8.347
  921SOL    HW1 3095   0.897   0.494   8.251
  921SOL    HW2 3096   0.970   0.421   8.378
  922SOL     OW 3097   0.539   0.064   7.960
  922SOL    HW1 3098   0.458   0.065   8.018
  922SOL    HW2 3099   0.542   0.147   7.905
  923SOL     OW 3100   1.434   1.188   7.489
  923SOL    HW1 3101   1.466   1.112   7.546
  923SOL    HW2 3102   1.342   1.215   7.519
  924SOL     OW 3103   0.297   0.035   7.619
  924SOL    HW1 3104   0.346   0.119   7.598
  924SOL    HW2 3105   0.359  -0.030   7.664
  925SOL     OW 3106   0.935   0.236   7.928
  925SOL    HW1 3107   0.887   0.277   7.850
  925SOL    HW2 3108   1.034   0.234   7.909
  926SOL     OW 3109   1.076   0.683   8.912
  926SOL    HW1 3110   0.996   0.622   8.915
  926SOL    HW2 3111   1.157   0.630   8.888
  927SOL     OW 3112   1.227   1.570   8.241
  927SOL    HW1 3113   1.248   1.644   8.176
  927SOL    HW2 3114   1.295   1.570   8.314
  928SOL     OW 3115   0.459   1.152   8.189
  928SOL    HW1 3116   0.388   1.125   8.254
  928SOL    HW2 3117   0.433   1.124   8.096
  929SOL     OW 3118   1.271   1.797   8.039
  929SOL    HW1 3119   1.315   1.861   7.975
  929SOL    HW2 3120   1.221   1.849   8.109
  930SOL     OW 3121   1.032   0.549   7.464
  930SOL    HW1 3122   0.991   0.631   7.425
  930SOL    HW2 3123   1.096   0.575   7.537
  931SOL     OW 3124   0.078   0.556   8.834
  931SOL    HW1 3125   0.170   0.555   8.793
  931SOL    HW2 3126   0.072   0.630   8.901
  932SOL     OW 3127   0.561   0.222   8.595
  932SOL    HW1 3128   0.599   0.138   8.632
  932SOL    HW2 3129   0.473   0.241   8.639
  933SOL     OW 3130   0.866   0.454   8.090
  933SOL    HW1 3131   0.834   0.526   8.028
  933SOL    HW2 3132   0.890   0.373   8.037
  934SOL     OW 3133   1.017   0.039   8.201
  934SOL    HW1 3134   0.945   0.044   8.132
  934SOL    HW2 3135   0.993  -0.030   8.270
  935SOL     OW 3136   1.429   1.173   8.315
  935SOL    HW1 3137   1.374   1.089   8.308
  935SOL    HW2 3138   1.455   1.202   8.223
  936SOL     OW 3139   1.466   0.590   8.440
  936SOL    HW1 3140   1.436   0.495   8.447
  936SOL    HW2 3141   1.539   0.606   8.506
  937SOL     OW 3142   1.857   0.833   7.825
  937SOL    HW1 3143   1.899   0.769   7.889
  937SOL    HW2 3144   1.819   0.782   7.747
  938SOL     OW 3145   0.488   1.385   7.622
  938SOL    HW1 3146   0.401   1.370   7.669
  938SOL    HW2 3147   0.471   1.411   7.527
  939SOL     OW 3148   1.664   1.280   8.105
  939SOL    HW1 3149   1.763   1.288   8.119
  939SOL    HW2 3150   1.619   1.364   8.136
  940SOL     OW 3151   1.390   0.575   7.526
  940SOL    HW1 3152   1.336   0.554   7.607
  940SOL    HW2 3153   1.481   0.534   7.535
  941SOL     OW 3154   0.527   0.256   7.776
  941SOL    HW1 3155   0.554   0.197   7.701
  941SOL    HW2 3156   0.527   0.351   7.745
  942SOL     OW 3157   1.754   1.223   9.036
  942SOL    HW1 3158   1.845   1.184   9.023
  942SOL    HW2 3159   1.762   1.319   9.060
  943SOL     OW 3160   1.064   1.347   8.788
  943SOL    HW1 3161   0.984   1.324   8.843
  943SOL    HW2 3162   1.147   1.321   8.837
  944SOL     OW 3163   1.592   1.629   9.073
  944SOL    HW1 3164   1.619   1.663   8.983
  944SOL    HW2 3165   1.671   1.591   9.119
  945SOL     OW 3166   1.111   1.195   8.548
  945SOL    HW1 3167   1.071   1.239   8.629
  945SOL    HW2 3168   1.070   1.232   8.465
  946SOL     OW 3169   1.638   1.099   8.527
  946SOL    HW1 3170   1.643   1.180   8.586
  946SOL    HW2 3171   1.552   1.101   8.476
  947SOL     OW 3172   0.915   0.089   8.850
  947SOL    HW1 3173   0.940   0.069   8.755
  947SOL    HW2 3174   0.987   0.145   8.892
  948SOL     OW 3175   0.980   1.116   9.167
  948SOL    HW1 3176   0.881   1.122   9.177
  948SOL    HW2 3177   1.003   1.036   9.111
  949SOL     OW 3178   0.705   1.050   7.816
  949SOL    HW1 3179   0.691   1.057   7.915
  949SOL    HW2 3180   0.789   0.999   7.798
  950SOL     OW 3181   0.410   0.813   8.699
  950SOL    HW1 3182   0.496   0.825   8.749
  950SOL    HW2 3183   0.368   0.726   8.726
  951SOL     OW 3184   1.274   0.386   8.710
  951SOL    HW1 3185   1.295   0.460   8.774
  951SOL    HW2 3186   1.185   0.403   8.667
  952SOL     OW 3187   0.064   1.564   8.779
  952SOL    HW1 3188   0.018   1.646   8.745
  952SOL    HW2 3189   0.162   1.583   8.788
  953SOL     OW 3190   0.367   1.100   7.949
  953SOL    HW1 3191   0.360   1.183   7.893
  953SOL    HW2 3192   0.371   1.020   7.889
  954SOL     OW 3193   0.566   0.537   8.313
  954SOL    HW1 3194   0.578   0.603   8.239
  954SOL    HW2 3195   0.612   0.571   8.396
  955SOL     OW 3196   1.252   1.348   7.836
  955SOL    HW1 3197   1.302   1.425   7.876
  955SOL    HW2 3198   1.157   1.350   7.868
  956SOL     OW 3199   1.272   1.445   8.590
  956SOL    HW1 3200   1.319   1.458   8.677
  956SOL    HW2 3201   1.206   1.371   8.599
  957SOL     OW 3202   1.582   0.639   7.920
  957SOL    HW1 3203   1.551   0.700   7.993
  957SOL    HW2 3204   1.632   0.691   7.851
  958SOL     OW 3205   0.354   1.510   8.777
  958SOL    HW1 3206   0.333   1.466   8.690
  958SOL    HW2 3207   0.451   1.536   8.780
  959SOL     OW 3208   0.402   0.751   9.046
  959SOL    HW1 3209   0.470   0.806   8.999
  959SOL    HW2 3210   0.442   0.663   9.073
  960SOL     OW 3211   1.587   0.779   9.118
  960SOL    HW1 3212   1.495   0.817   9.113
  960SOL    HW2 3213   1.647   0.826   9.053
  961SOL     OW 3214   1.013   0.105   9.218
  961SOL    HW1 3215   1.019   0.190   9.166
  961SOL    HW2 3216   1.045   0.029   9.161
  962SOL     OW 3217   0.504   0.050   9.188
  962SOL    HW1 3218   0.462  -0.007   9.118
  962SOL    HW2 3219   0.438   0.119   9.220
  963SOL     OW 3220   0.573   0.870   8.477
  963SOL    HW1 3221   0.617   0.959   8.468
  963SOL    HW2 3222   0.510   0.870   8.554
  964SOL     OW 3223   1.360   0.862   8.493
  964SOL    HW1 3224   1.285   0.862   8.427
  964SOL    HW2 3225   1.397   0.770   8.502
  965SOL     OW 3226   1.209   0.525   7.723
  965SOL    HW1 3227   1.222   0.441   7.777
  965SOL    HW2 3228   1.180   0.599   7.783
  966SOL     OW 3229   0.307   0.213   8.679
  966SOL    HW1 3230   0.284   0.250   8.769
  966SOL    HW2 3231   0.277   0.118   8.673
  967SOL     OW 3232   0.037   1.310   8.730
  967SOL    HW1 3233   0.090   1.261   8.798
  967SOL    HW2 3234   0.059   1.408   8.735
  968SOL     OW 3235   0.732   0.634   8.512
  968SOL    HW1 3236   0.791   0.608   8.436
  968SOL    HW2 3237   0.704   0.730   8.501
  969SOL     OW 3238   1.728   0.935   9.302
  969SOL    HW1 3239   1.682   0.928   9.213
  969SOL    HW2 3240   1.666   0.979   9.368
  970SOL     OW 3241   0.307   0.063   8.066
  970SOL    HW1 3242   0.296   0.157   8.099
  970SOL    HW2 3243   0.302   0.000   8.143
  971SOL     OW 3244   1.622   0.367   7.822
  971SOL    HW1 3245   1.624   0.291   7.886
  971SOL    HW2 3246   1.574   0.444   7.862
  972SOL     OW 3247   1.023   0.766   8.414
  972SOL    HW1 3248   1.038   0.787   8.510
  972SOL    HW2 3249   0.993   0.671   8.405
  973SOL     OW 3250   0.980   1.573   9.148
  973SOL    HW1 3251   0.960   1.617   9.060
  973SOL    HW2 3252   1.019   1.482   9.132
  974SOL     OW 3253   1.859   1.518   9.053
  974SOL    HW1 3254   1.873   1.545   8.958
  974SOL    HW2 3255   1.942   1.540   9.106
  975SOL     OW 3256   0.350   0.898   9.252
  975SOL    HW1 3257   0.426   0.942   9.300
  975SOL    HW2 3258   0.385   0.851   9.170
  976SOL     OW 3259   1.540   0.274   7.573
  976SOL    HW1 3260   1.479   0.199   7.596
  976SOL    HW2 3261   1.562   0.326   7.656
  977SOL     OW 3262   1.303   0.838   7.490
  977SOL    HW1 3263   1.337   0.745   7.505
  977SOL    HW2 3264   1.321   0.865   7.395
  978SOL     OW 3265   1.068   1.333   8.297
  978SOL    HW1 3266   1.075   1.249   8.242
  978SOL    HW2 3267   1.130   1.402   8.261
  979SOL     OW 3268   0.319   0.810   8.397
  979SOL    HW1 3269   0.412   0.846   8.402
  979SOL    HW2 3270   0.313   0.725   8.449
  980SOL     OW 3271   0.339   0.509   8.454
  980SOL    HW1 3272   0.287   0.426   8.437
  980SOL    HW2 3273   0.416   0.514   8.390
  981SOL     OW 3274   1.138   0.380   9.126
  981SOL    HW1 3275   1.093   0.443   9.190
  981SOL    HW2 3276   1.231   0.411   9.109
  982SOL     OW 3277   1.160   0.207   8.925
  982SOL    HW1 3278   1.160   0.271   9.002
  982SOL    HW2 3279   1.188   0.255   8.842
  983SOL     OW 3280   0.008   1.326   7.648
  983SOL    HW1 3281  -0.085   1.347   7.617
  983SOL    HW2 3282   0.018   1.227   7.661
  984SOL     OW 3283   0.088   1.801   8.375
  984SOL    HW1 3284   0.046   1.715   8.348
  984SOL    HW2 3285   0.182   1.804   8.341
  985SOL     OW 3286   0.504   1.568   8.358
  985SOL    HW1 3287   0.570   1.642   8.367
  985SOL    HW2 3288   0.548   1.489   8.316
  986SOL     OW 3289   1.002   0.796   8.686
  986SOL    HW1 3290   1.043   0.764   8.772
  986SOL    HW2 3291   0.906   0.769   8.683
  987SOL     OW 3292   0.040   0.544   8.562
  987SOL    HW1 3293   0.125   0.511   8.521
  987SOL    HW2 3294   0.053   0.559   8.660
  988SOL     OW 3295   0.189   0.520   9.170
  988SOL    HW1 3296   0.248   0.480   9.100
  988SOL    HW2 3297   0.131   0.591   9.129
  989SOL     OW 3298   1.369   0.950   9.108
  989SOL    HW1 3299   1.408   1.039   9.128
  989SOL    HW2 3300   1.379   0.930   9.011
  990SOL     OW 3301   0.815   0.572   7.773
  990SOL    HW1 3302   0.822   0.483   7.727
  990SOL    HW2 3303   0.721   0.606   7.765
  991SOL     OW 3304   1.657   0.604   8.654
  991SOL    HW1 3305   1.619   0.535   8.716
  991SOL    HW2 3306   1.739   0.568   8.610
  992SOL     OW 3307   0.252   1.564   9.192
  992SOL    HW1 3308   0.222   1.621   9.268
  992SOL    HW2 3309   0.245   1.467   9.218
  993SOL     OW 3310   0.671   0.464   8.717
  993SOL    HW1 3311   0.637   0.375   8.687
  993SOL    HW2 3312   0.697   0.518   8.637
  994SOL     OW 3313   0.930   1.678   8.913
  994SOL    HW1 3314   0.906   1.660   8.818
  994SOL    HW2 3315   0.960   1.772   8.923
  995SOL     OW 3316   0.473   0.500   7.639
  995SOL    HW1 3317   0.534   0.580   7.643
  995SOL    HW2 3318   0.378   0.531   7.646
  996SOL     OW 3319   0.159   1.137   8.914
  996SOL    HW1 3320   0.181   1.076   8.990
  996SOL    HW2 3321   0.169   1.088   8.828
  997SOL     OW 3322   1.347   1.059   8.682
  997SOL    HW1 3323   1.371   0.996   8.608
  997SOL    HW2 3324   1.257   1.099   8.664
  998SOL     OW 3325   1.302   0.855   7.757
  998SOL    HW1 3326   1.216   0.824   7.799
  998SOL    HW2 3327   1.298   0.841   7.658
  999SOL     OW 3328   1.759   1.747   8.602
  999SOL    HW1 3329   1.820   1.777   8.529
  999SOL    HW2 3330   1.721   1.658   8.580
 1000SOL     OW 3331   1.252   1.731   8.576
 1000SOL    HW1 3332   1.336   1.736   8.522
 1000SOL    HW2 3333   1.229   1.635   8.594
 1001SOL     OW 3334   0.083   1.258   8.470
 1001SOL    HW1 3335   0.078   1.257   8.570
 1001SOL    HW2 3336   0.000   1.217   8.432
 1002SOL     OW 3337   0.688   1.662   9.164
 1002SOL    HW1 3338   0.632   1.743   9.173
 1002SOL    HW2 3339   0.740   1.666   9.078
 1003SOL     OW 3340   1.726   0.135   7.971
 1003SOL    HW1 3341   1.799   0.118   7.904
 1003SOL    HW2 3342   1.695   0.048   8.009
 1004SOL     OW 3343   1.388   1.573   7.925
 1004SOL    HW1 3344   1.455   1.585   7.851
 1004SOL    HW2 3345   1.348   1.662   7.948
 1005SOL     OW 3346   0.130   1.794   9.299
 1005SOL    HW1 3347   0.089   1.720   9.352
 1005SOL    HW2 3348   0.194   1.845   9.357
 1006SOL     OW 3349   1.280   0.927   8.120
 1006SOL    HW1 3350   1.340   0.846   8.122
 1006SOL    HW2 3351   1.320   0.996   8.060
 1007SOL     OW 3352   0.830   1.273   8.870
 1007SOL    HW1 3353   0.825   1.306   8.965
 1007SOL    HW2 3354   0.744   1.292   8.824
 1008SOL     OW 3355   0.672   1.616   7.602
 1008SOL    HW1 3356   0.681   1.626   7.503
 1008SOL    HW2 3357   0.632   1.527   7.623
 1009SOL     OW 3358   1.650   1.720   8.842
 1009SOL    HW1 3359   1.703   1.730   8.758
 1009SOL    HW2 3360   1.623   1.810   8.876
 1010SOL     OW 3361   1.841   0.175   8.411
 1010SOL    HW1 3362   1.880   0.090   8.375
 1010SOL    HW2 3363   1.743   0.177   8.392
 1011SOL     OW 3364   0.263   0.326   8.168
 1011SOL    HW1 3365   0.184   0.377   8.134
 1011SOL    HW2 3366   0.254   0.311   8.266
 1012SOL     OW 3367   1.194   1.612   7.479
 1012SOL    HW1 3368   1.200   1.519   7.516
 1012SOL    HW2 3369   1.135   1.612   7.399
 1013SOL     OW 3370   0.822   1.002   8.820
 1013SOL    HW1 3371   0.862   1.001   8.728
 1013SOL    HW2 3372   0.832   1.094   8.860
 1014SOL     OW 3373   0.916   0.910   7.739
 1014SOL    HW1 3374   0.979   0.948   7.671
 1014SOL    HW2 3375   0.956   0.827   7.778
 1015SOL     OW 3376   1.504   1.607   7.492
 1015SOL    HW1 3377   1.412   1.644   7.499
 1015SOL    HW2 3378   1.542   1.627   7.402
 1016SOL     OW 3379   0.372   1.288   8.938
 1016SOL    HW1 3380   0.359   1.381   8.904
 1016SOL    HW2 3381   0.288   1.236   8.925
 1017SOL     OW 3382   1.614   1.292   8.737
 1017SOL    HW1 3383   1.674   1.295   8.817
 1017SOL    HW2 3384   1.539   1.356   8.750
 1018SOL     OW 3385   1.039   1.098   8.144
 1018SOL    HW1 3386   0.969   1.051   8.198
 1018SOL    HW2 3387   1.098   1.030   8.101
 1019SOL     OW 3388   1.014   0.236   8.419
 1019SOL    HW1 3389   1.006   0.200   8.326
 1019SOL    HW2 3390   1.012   0.160   8.484
 1020SOL     OW 3391   0.590   1.487   7.939
 1020SOL    HW1 3392   0.632   1.429   7.869
 1020SOL    HW2 3393   0.546   1.566   7.895
 1021SOL     OW 3394   1.709   0.385   8.829
 1021SOL    HW1 3395   1.782   0.454   8.833
 1021SOL    HW2 3396   1.737   0.310   8.770
 1022SOL     OW 3397   0.255   1.348   7.738
 1022SOL    HW1 3398   0.159   1.349   7.711
 1022SOL    HW2 3399   0.267   1.401   7.822
 1023SOL     OW 3400   0.105   1.013   9.174
 1023SOL    HW1 3401   0.028   0.980   9.228
 1023SOL    HW2 3402   0.190   0.983   9.216
 1024SOL     OW 3403   0.672   0.203   8.937
 1024SOL    HW1 3404   0.762   0.187   8.897
 1024SOL    HW2 3405   0.680   0.208   9.036
 1025SOL     OW 3406   0.075   0.345   7.481
 1025SOL    HW1 3407  -0.017   0.317   7.452
 1025SOL    HW2 3408   0.106   0.422   7.425
 1026SOL     OW 3409   1.440   0.856   8.846
 1026SOL    HW1 3410   1.383   0.908   8.783
 1026SOL    HW2 3411   1.536   0.868   8.822
 1027SOL     OW 3412   0.072   0.166   7.766
 1027SOL    HW1 3413   0.055   0.249   7.712
 1027SOL    HW2 3414   0.162   0.129   7.744
 1028SOL     OW 3415   1.183   1.335   7.567
 1028SOL    HW1 3416   1.084   1.324   7.569
 1028SOL    HW2 3417   1.217   1.350   7.660
 1029SOL     OW 3418   0.613   0.842   8.879
 1029SOL    HW1 3419   0.669   0.923   8.862
 1029SOL    HW2 3420   0.672   0.762   8.882
 1030SOL     OW 3421   1.493   1.767   8.407
 1030SOL    HW1 3422   1.526   1.831   8.338
 1030SOL    HW2 3423   1.559   1.761   8.482
 1031SOL     OW 3424   0.716   0.565   9.156
 1031SOL    HW1 3425   0.735   0.630   9.230
 1031SOL    HW2 3426   0.776   0.485   9.165
 1032SOL     OW 3427   1.450   1.220   9.081
 1032SOL    HW1 3428   1.441   1.210   9.180
 1032SOL    HW2 3429   1.546   1.213   9.055
 1033SOL     OW 3430   0.390   1.741   9.008
 1033SOL    HW1 3431   0.299   1.782   9.006
 1033SOL    HW2 3432   0.383   1.647   9.040
 1034SOL     OW 3433   1.674   0.883   8.702
 1034SOL    HW1 3434   1.647   0.794   8.665
 1034SOL    HW2 3435   1.675   0.951   8.629
 1035SOL     OW 3436   1.225   0.325   7.897
 1035SOL    HW1 3437   1.290   0.251   7.886
 1035SOL    HW2 3438   1.245   0.375   7.981
 1036SOL     OW 3439   0.594   0.745   8.100
 1036SOL    HW1 3440   0.644   0.830   8.081
 1036SOL    HW2 3441   0.506   0.747   8.052
 1037SOL     OW 3442   1.777   0.342   9.090
 1037SOL    HW1 3443   1.760   0.373   8.996
 1037SOL    HW2 3444   1.693   0.305   9.128
 1038SOL     OW 3445   1.730   0.934   8.965
 1038SOL    HW1 3446   1.768   1.025   8.980
 1038SOL    HW2 3447   1.722   0.917   8.866
 1039SOL     OW 3448   0.859   1.374   7.464
 1039SOL    HW1 3449   0.813   1.389   7.552
 1039SOL    HW2 3450   0.903   1.459   7.434
 1040SOL     OW 3451   0.661   1.790   8.401
 1040SOL    HW1 3452   0.615   1.878   8.388
 1040SOL    HW2 3453   0.760   1.802   8.394
 1041SOL     OW 3454   0.859   0.956   8.309
 1041SOL    HW1 3455   0.913   0.887   8.357
 1041SOL    HW2 3456   0.827   1.025   8.375
 1042SOL     OW 3457   1.083   0.984   7.535
 1042SOL    HW1 3458   1.060   1.037   7.453
 1042SOL    HW2 3459   1.164   0.928   7.516
 1043SOL     OW 3460   1.861   1.569   8.299
 1043SOL    HW1 3461   1.790   1.557   8.229
 1043SOL    HW2 3462   1.862   1.490   8.359
 1044SOL     OW 3463   0.221   1.314   9.292
 1044SOL    HW1 3464   0.156   1.241   9.271
 1044SOL    HW2 3465   0.225   1.328   9.390
 1045SOL     OW 3466   0.079   1.240   8.101
 1045SOL    HW1 3467   0.078   1.193   8.189
 1045SOL    HW2 3468   0.161   1.212   8.050
 1046SOL     OW 3469   0.672   1.391   9.072
 1046SOL    HW1 3470   0.594   1.341   9.110
 1046SOL    HW2 3471   0.669   1.486   9.103
 1047SOL     OW 3472   1.824   0.192   8.675
 1047SOL    HW1 3473   1.820   0.102   8.719
 1047SOL    HW2 3474   1.827   0.181   8.576
 1048SOL     OW 3475   0.428   0.424   7.968
 1048SOL    HW1 3476   0.458   0.352   7.906
 1048SOL    HW2 3477   0.389   0.384   8.051
 1049SOL     OW 3478   1.705   1.487   8.552
 1049SOL    HW1 3479   1.612   1.462   8.525
 1049SOL    HW2 3480   1.731   1.437   8.634
 1050SOL     OW 3481   0.317   0.547   8.728
 1050SOL    HW1 3482   0.355   0.488   8.800
 1050SOL    HW2 3483   0.357   0.521   8.640
 1051SOL     OW 3484   0.812   1.586   8.135
 1051SOL    HW1 3485   0.844   1.596   8.041
 1051SOL    HW2 3486   0.733   1.524   8.137
 1052SOL     OW 3487   1.424   0.214   8.560
 1052SOL    HW1 3488   1.476   0.149   8.615
 1052SOL    HW2 3489   1.375   0.277   8.621
 1053SOL     OW 3490   1.001   0.034   8.602
 1053SOL    HW1 3491   0.938  -0.038   8.571
 1053SOL    HW2 3492   1.094  -0.002   8.602
 1054SOL     OW 3493   0.770   1.330   7.749
 1054SOL    HW1 3494   0.724   1.243   7.766
 1054SOL    HW2 3495   0.861   1.327   7.790
 1055SOL     OW 3496   0.618   1.567   8.732
 1055SOL    HW1 3497   0.613   1.649   8.789
 1055SOL    HW2 3498   0.707   1.564   8.687
 1056SOL     OW 3499   1.352   0.052   7.616
 1056SOL    HW1 3500   1.387   0.011   7.532
 1056SOL    HW2 3501   1.262   0.014   7.636
 1057SOL     OW 3502   1.300   0.453   8.139
 1057SOL    HW1 3503   1.241   0.533   8.143
 1057SOL    HW2 3504   1.315   0.418   8.232
 1058SOL     OW 3505   1.593   0.221   8.330
 1058SOL    HW1 3506   1.509   0.220   8.384
 1058SOL    HW2 3507   1.595   0.304   8.274
 1059SOL     OW 3508   0.039   1.077   7.748
 1059SOL    HW1 3509   0.138   1.066   7.739
 1059SOL    HW2 3510  -0.001   0.991   7.780
 1060SOL     OW 3511   0.875   1.646   7.785
 1060SOL    HW1 3512   0.798   1.611   7.731
 1060SOL    HW2 3513   0.843   1.717   7.847
 1061SOL     OW 3514   0.230   0.628   9.423
 1061SOL    HW1 3515   0.137   0.626   9.460
 1061SOL    HW2 3516   0.231   0.589   9.331
 1062SOL     OW 3517   0.225   0.275  10.306
 1062SOL    HW1 3518   0.260   0.258  10.398
 1062SOL    HW2 3519   0.137   0.230  10.294
 1063SOL     OW 3520   0.019   0.368   9.957
 1063SOL    HW1 3521  -0.063   0.411   9.996
 1063SOL    HW2 3522  -0.009   0.295   9.894
 1064SOL     OW 3523   0.569   1.275  10.475
 1064SOL    HW1 3524   0.476   1.268  10.438
 1064SOL    HW2 3525   0.580   1.364  10.519
 1065SOL     OW 3526   1.555   1.511  10.013
 1065SOL    HW1 3527   1.498   1.495  10.094
 1065SOL    HW2 3528   1.496   1.521   9.933
 1066SOL     OW 3529   1.135   0.703  10.027
 1066SOL    HW1 3530   1.192   0.781  10.002
 1066SOL    HW2 3531   1.075   0.729  10.103
 1067SOL     OW 3532   1.755   0.607   9.541
 1067SOL    HW1 3533   1.743   0.594   9.442
 1067SOL    HW2 3534   1.725   0.526   9.590
 1068SOL     OW 3535   0.768   1.144  10.333
 1068SOL    HW1 3536   0.690   1.161  10.393
 1068SOL    HW2 3537   0.802   1.231  10.297
 1069SOL     OW 3538   0.850   0.798  11.133
 1069SOL    HW1 3539   0.846   0.874  11.198
 1069SOL    HW2 3540   0.872   0.834  11.042
 1070SOL     OW 3541   0.685   1.012   9.975
 1070SOL    HW1 3542   0.754   0.996  10.045
 1070SOL    HW2 3543   0.612   1.069  10.013
 1071SOL     OW 3544   0.686   1.161  11.113
 1071SOL    HW1 3545   0.746   1.240  11.127
 1071SOL    HW2 3546   0.600   1.192  11.072
 1072SOL     OW 3547   0.335   1.435  10.371
 1072SOL    HW1 3548   0.257   1.404  10.318
 1072SOL    HW2 3549   0.393   1.493  10.314
 1073SOL     OW 3550   1.460   1.505  10.649
 1073SOL    HW1 3551   1.484   1.599  10.675
 1073SOL    HW2 3552   1.444   1.451  10.731
 1074SOL     OW 3553   0.438   0.392  10.809
 1074SOL    HW1 3554   0.520   0.336  10.818
 1074SOL    HW2 3555   0.357   0.334  10.813
 1075SOL     OW 3556   1.603   0.447  10.047
 1075SOL    HW1 3557   1.529   0.493   9.997
 1075SOL    HW2 3558   1.654   0.515  10.100
 1076SOL     OW 3559   0.231   1.713   9.793
 1076SOL    HW1 3560   0.265   1.790   9.847
 1076SOL    HW2 3561   0.275   1.713   9.703
 1077SOL     OW 3562   1.127   1.341  11.000
 1077SOL    HW1 3563   1.174   1.341  11.088
 1077SOL    HW2 3564   1.079   1.254  10.989
 1078SOL     OW 3565   0.230   1.434   9.848
 1078SOL    HW1 3566   0.204   1.530   9.848
 1078SOL    HW2 3567   0.159   1.380   9.893
 1079SOL     OW 3568   0.240   1.091  10.196
 1079SOL    HW1 3569   0.254   1.007  10.248
 1079SOL    HW2 3570   0.185   1.155  10.251
 1080SOL     OW 3571   0.620   1.786  10.749
 1080SOL    HW1 3572   0.528   1.769  10.784
 1080SOL    HW2 3573   0.648   1.878  10.775
 1081SOL     OW 3574   0.606   0.964   9.433
 1081SOL    HW1 3575   0.613   1.048   9.379
 1081SOL    HW2 3576   0.652   0.977   9.521
 1082SOL     OW 3577   1.594   0.114  10.790
 1082SOL    HW1 3578   1.576   0.181  10.718
 1082SOL    HW2 3579   1.591   0.160  10.879
 1083SOL     OW 3580   0.122   0.643   9.873
 1083SOL    HW1 3581   0.077   0.555   9.890
 1083SOL    HW2 3582   0.121   0.697   9.957
 1084SOL     OW 3583   1.842   1.767   9.669
 1084SOL    HW1 3584   1.896   1.738   9.749
 1084SOL    HW2 3585   1.872   1.857   9.640
 1085SOL     OW 3586   0.027   1.596   9.427
 1085SOL    HW1 3587   0.008   1.500   9.448
 1085SOL    HW2 3588  -0.006   1.654   9.502
 1086SOL     OW 3589   1.689   0.922   9.922
 1086SOL    HW1 3590   1.784   0.893   9.930
 1086SOL    HW2 3591   1.681   0.987   9.847
 1087SOL     OW 3592   1.641   1.108   9.742
 1087SOL    HW1 3593   1.727   1.110   9.690
 1087SOL    HW2 3594   1.655   1.155   9.830
 1088SOL     OW 3595   0.113   0.737  10.907
 1088SOL    HW1 3596   0.201   0.724  10.952
 1088SOL    HW2 3597   0.100   0.834  10.885
 1089SOL     OW 3598   0.613   1.365  10.036
 1089SOL    HW1 3599   0.564   1.278  10.045
 1089SOL    HW2 3600   0.590   1.408   9.949
 1090SOL     OW 3601   1.293   1.228  10.733
 1090SOL    HW1 3602   1.330   1.155  10.675
 1090SOL    HW2 3603   1.345   1.233  10.818
 1091SOL     OW 3604   0.809   0.004   9.812
 1091SOL    HW1 3605   0.849   0.095   9.803
 1091SOL    HW2 3606   0.709   0.012   9.818
 1092SOL     OW 3607   0.197   0.976  10.574
 1092SOL    HW1 3608   0.286   0.931  10.560
 1092SOL    HW2 3609   0.124   0.911  10.555
 1093SOL     OW 3610   1.525   0.999   9.500
 1093SOL    HW1 3611   1.462   0.923   9.513
 1093SOL    HW2 3612   1.573   1.017   9.586
 1094SOL     OW 3613   1.187   1.792  10.926
 1094SOL    HW1 3614   1.211   1.852  10.850
 1094SOL    HW2 3615   1.194   1.697  10.896
 1095SOL     OW 3616   0.317   0.251  11.111
 1095SOL    HW1 3617   0.388   0.322  11.117
 1095SOL    HW2 3618   0.229   0.290  11.139
 1096SOL     OW 3619   1.466   1.417  10.263
 1096SOL    HW1 3620   1.407   1.423  10.343
 1096SOL    HW2 3621   1.451   1.329  10.217
 1097SOL     OW 3622   1.667   1.714   9.882
 1097SOL    HW1 3623   1.626   1.691   9.794
 1097SOL    HW2 3624   1.649   1.640   9.947
 1098SOL     OW 3625   0.598   0.729   9.580
 1098SOL    HW1 3626   0.622   0.798   9.512
 1098SOL    HW2 3627   0.520   0.762   9.634
 1099SOL     OW 3628   1.281   0.345  10.254
 1099SOL    HW1 3629   1.195   0.295  10.241
 1099SOL    HW2 3630   1.343   0.291  10.310
 1100SOL     OW 3631   1.576   1.662   9.617
 1100SOL    HW1 3632   1.665   1.708   9.620
 1100SOL    HW2 3633   1.555   1.638   9.522
 1101SOL     OW 3634   0.807   0.605  10.775
 1101SOL    HW1 3635   0.760   0.602  10.864
 1101SOL    HW2 3636   0.756   0.550  10.709
 1102SOL     OW 3637   1.394   0.469  10.984
 1102SOL    HW1 3638   1.374   0.512  11.072
 1102SOL    HW2 3639   1.472   0.407  10.993
 1103SOL     OW 3640   0.973   0.890  10.882
 1103SOL    HW1 3641   1.019   0.806  10.853
 1103SOL    HW2 3642   0.917   0.924  10.807
 1104SOL     OW 3643   0.991   0.410  10.552
 1104SOL    HW1 3644   0.914   0.444  10.606
 1104SOL    HW2 3645   0.957   0.359  10.473
 1105SOL     OW 3646   1.041   0.701   9.739
 1105SOL    HW1 3647   1.067   0.697   9.835
 1105SOL    HW2 3648   0.956   0.650   9.725
 1106SOL     OW 3649   0.076   0.811  10.099
 1106SOL    HW1 3650   0.175   0.799  10.108
 1106SOL    HW2 3651   0.052   0.906  10.120
 1107SOL     OW 3652   0.130   1.821  10.881
 1107SOL    HW1 3653   0.120   1.806  10.980
 1107SOL    HW2 3654   0.044   1.857  10.845
 1108SOL     OW 3655   0.865   0.348   9.505
 1108SOL    HW1 3656   0.924   0.411   9.456
 1108SOL    HW2 3657   0.884   0.254   9.476
 1109SOL     OW 3658   1.719   0.585  11.141
 1109SOL    HW1 3659   1.693   0.674  11.105
 1109SOL    HW2 3660   1.717   0.517  11.068
 1110SOL     OW 3661   1.362   1.144   9.855
 1110SOL    HW1 3662   1.445   1.115   9.807
 1110SOL    HW2 3663   1.313   1.211   9.799
 1111SOL     OW 3664   0.550   0.196  10.195
 1111SOL    HW1 3665   0.545   0.191  10.295
 1111SOL    HW2 3666   0.552   0.292  10.166
 1112SOL     OW 3667   1.008   1.456   9.787
 1112SOL    HW1 3668   0.962   1.528   9.735
 1112SOL    HW2 3669   1.004   1.476   9.885
 1113SOL     OW 3670   0.351   1.801  10.163
 1113SOL    HW1 3671   0.401   1.715  10.169
 1113SOL    HW2 3672   0.416   1.878  10.160
 1114SOL     OW 3673   1.795   1.066  10.183
 1114SOL    HW1 3674   1.733   1.051  10.107
 1114SOL    HW2 3675   1.743   1.077  10.268
 1115SOL     OW 3676   1.227   1.550  10.816
 1115SOL    HW1 3677   1.233   1.473  10.880
 1115SOL    HW2 3678   1.175   1.524  10.736
 1116SOL     OW 3679   0.321   0.943   9.552
 1116SOL    HW1 3680   0.403   0.982   9.510
 1116SOL    HW2 3681   0.294   0.861   9.503
 1117SOL     OW 3682   1.458   0.735  10.038
 1117SOL    HW1 3683   1.453   0.670  10.113
 1117SOL    HW2 3684   1.538   0.794  10.051
 1118SOL     OW 3685   0.461   1.266  11.037
 1118SOL    HW1 3686   0.411   1.267  10.951
 1118SOL    HW2 3687   0.398   1.248  11.113
 1119SOL     OW 3688   1.111   1.776   9.547
 1119SOL    HW1 3689   1.051   1.714   9.597
 1119SOL    HW2 3690   1.142   1.732   9.462
 1120SOL     OW 3691   0.202   0.285  10.808
 1120SOL    HW1 3692   0.122   0.345  10.795
 1120SOL    HW2 3693   0.192   0.236  10.894
 1121SOL     OW 3694   1.632   1.377   9.391
 1121SOL    HW1 3695   1.600   1.471   9.381
 1121SOL    HW2 3696   1.556   1.314   9.379
 1122SOL     OW 3697   0.464   1.743   9.633
 1122SOL    HW1 3698   0.497   1.782   9.719
 1122SOL    HW2 3699   0.540   1.736   9.568
 1123SOL     OW 3700   1.400   0.107   9.736
 1123SOL    HW1 3701   1.376   0.070   9.646
 1123SOL    HW2 3702   1.499   0.123   9.740
 1124SOL     OW 3703   0.249   1.785  10.551
 1124SOL    HW1 3704   0.306   1.720  10.601
 1124SOL    HW2 3705   0.233   1.752  10.458
 1125SOL     OW 3706   0.940   1.698  10.214
 1125SOL    HW1 3707   1.020   1.641  10.235
 1125SOL    HW2 3708   0.891   1.658  10.137
 1126SOL     OW 3709   0.382   0.700   9.790
 1126SOL    HW1 3710   0.427   0.610   9.787
 1126SOL    HW2 3711   0.288   0.689   9.823
 1127SOL     OW 3712   1.547   0.222  11.039
 1127SOL    HW1 3713   1.542   0.259  11.131
 1127SOL    HW2 3714   1.475   0.153  11.027
 1128SOL     OW 3715   0.614   0.122   9.427
 1128SOL    HW1 3716   0.712   0.100   9.434
 1128SOL    HW2 3717   0.583   0.105   9.334
 1129SOL     OW 3718   0.781   0.264  11.059
 1129SOL    HW1 3719   0.848   0.203  11.102
 1129SOL    HW2 3720   0.708   0.283  11.124
 1130SOL     OW 3721   0.888   1.514  10.505
 1130SOL    HW1 3722   0.865   1.489  10.411
 1130SOL    HW2 3723   0.949   1.445  10.544
 1131SOL     OW 3724   1.351   0.590  10.743
 1131SOL    HW1 3725   1.379   0.547  10.828
 1131SOL    HW2 3726   1.376   0.686  10.744
 1132SOL     OW 3727   0.803   1.402  10.234
 1132SOL    HW1 3728   0.893   1.416  10.192
 1132SOL    HW2 3729   0.732   1.404  10.163
 1133SOL     OW 3730   0.922   0.503  10.209
 1133SOL    HW1 3731   0.897   0.494  10.113
 1133SOL    HW2 3732   0.970   0.421  10.240
 1134SOL     OW 3733   0.539   0.064   9.822
 1134SOL    HW1 3734   0.458   0.065   9.880
 1134SOL    HW2 3735   0.542   0.147   9.767
 1135SOL     OW 3736   1.434   1.188   9.351
 1135SOL    HW1 3737   1.466   1.112   9.408
 1135SOL    HW2 3738   1.342   1.215   9.381
 1136SOL     OW 3739   0.297   0.035   9.481
 1136SOL    HW1 3740   0.346   0.119   9.460
 1136SOL    HW2 3741   0.359  -0.030   9.526
 1137SOL     OW 3742   0.935   0.236   9.790
 1137SOL    HW1 3743   0.887   0.277   9.712
 1137SOL    HW2 3744   1.034   0.234   9.771
 1138SOL     OW 3745   1.076   0.683  10.774
 1138SOL    HW1 3746   0.996   0.622  10.777
 1138SOL    HW2 3747   1.157   0.630  10.750
 1139SOL     OW 3748   1.227   1.570  10.103
 1139SOL    HW1 3749   1.248   1.644  10.038
 1139SOL    HW2 3750   1.295   1.570  10.176
 1140SOL     OW 3751   0.459   1.152  10.051
 1140SOL    HW1 3752   0.388   1.125  10.116
 1140SOL    HW2 3753   0.433   1.124   9.958
 1141SOL     OW 3754   1.271   1.797   9.901
 1141SOL    HW1 3755   1.315   1.861   9.837
 1141SOL    HW2 3756   1.221   1.849   9.971
 1142SOL     OW 3757   1.032   0.549   9.326
 1142SOL    HW1 3758   0.991   0.631   9.287
 1142SOL    HW2 3759   1.096   0.575   9.399
 1143SOL     OW 3760   0.078   0.556  10.696
 1143SOL    HW1 3761   0.170   0.555  10.655
 1143SOL    HW2 3762   0.072   0.630  10.763
 1144SOL     OW 3763   0.561   0.222  10.457
 1144SOL    HW1 3764   0.599   0.138  10.494
 1144SOL    HW2 3765   0.473   0.241  10.501
 1145SOL     OW 3766   0.866   0.454   9.952
 1145SOL    HW1 3767   0.834   0.526   9.890
 1145SOL    HW2 3768   0.890   0.373   9.899
 1146SOL     OW 3769   1.017   0.039  10.063
 1146SOL    HW1 3770   0.945   0.044   9.994
 1146SOL    HW2 3771   0.993  -0.030  10.132
 1147SOL     OW 3772   1.429   1.173  10.177
 1147SOL    HW1 3773   1.374   1.089  10.170
 1147SOL    HW2 3774   1.455   1.202  10.085
 1148SOL     OW 3775   1.466   0.590  10.302
 1148SOL    HW1 3776   1.436   0.495  10.309
 1148SOL    HW2 3777   1.539   0.606  10.368
 1149SOL     OW 3778   1.857   0.833   9.687
 1149SOL    HW1 3779   1.899   0.769   9.751
 1149SOL    HW2 3780   1.819   0.782   9.609
 1150SOL     OW 3781   0.488   1.385   9.484
 1150SOL    HW1 3782   0.401   1.370   9.531
 1150SOL    HW2 3783   0.471   1.411   9.389
 1151SOL     OW 3784   1.664   1.280   9.967
 1151SOL    HW1 3785   1.763   1.288   9.981
 1151SOL    HW2 3786   1.619   1.364   9.998
 1152SOL     OW 3787   1.390   0.575   9.388
 1152SOL    HW1 3788   1.336   0.554   9.469
 1152SOL    HW2 3789   1.481   0.534   9.397
 1153SOL     OW 3790   0.527   0.256   9.638
 1153SOL    HW1 3791   0.554   0.197   9.563
 1153SOL    HW2 3792   0.527   0.351   9.607
 1154SOL     OW 3793   1.754   1.223  10.898
 1154SOL    HW1 3794   1.845   1.184  10.885
 1154SOL    HW2 3795   1.762   1.319  10.922
 1155SOL     OW 3796   1.064   1.347  10.650
 1155SOL    HW1 3797   0.984   1.324  10.705
 1155SOL    HW2 3798   1.147   1.321  10.699
 1156SOL     OW 3799   1.592   1.629  10.935
 1156SOL    HW1 3800   1.619   1.663  10.845
 1156SOL    HW2 3801   1.671   1.591  10.981
 1157SOL     OW 3802   1.111   1.195  10.410
 1157SOL    HW1 3803   1.071   1.239  10.491
 1157SOL    HW2 3804   1.070   1.232  10.327
 1158SOL     OW 3805   1.638   1.099  10.389
 1158SOL    HW1 3806   1.643   1.180  10.448
 1158SOL    HW2 3807   1.552   1.101  10.338
 1159SOL     OW 3808   0.915   0.089  10.712
 1159SOL    HW1 3809   0.940   0.069  10.617
 1159SOL    HW2 3810   0.987   0.145  10.754
 1160SOL     OW 3811   0.980   1.116  11.029
 1160SOL    HW1 3812   0.881   1.122  11.039
 1160SOL    HW2 3813   1.003   1.036  10.973
 1161SOL     OW 3814   0.705   1.050   9.678
 1161SOL    HW1 3815   0.691   1.057   9.777
 1161SOL    HW2 3816   0.789   0.999   9.660
 1162SOL     OW 3817   0.410   0.813  10.561
 1162SOL    HW1 3818   0.496   0.825  10.611
 1162SOL    HW2 3819   0.368   0.726  10.588
 1163SOL     OW 3820   1.274   0.386  10.572
 1163SOL    HW1 3821   1.295   0.460  10.636
 1163SOL    HW2 3822   1.185   0.403  10.529
 1164SOL     OW 3823   0.064   1.564  10.641
 1164SOL    HW1 3824   0.018   1.646  10.607
 1164SOL    HW2 3825   0.162   1.583  10.650
 1165SOL     OW 3826   0.367   1.100   9.811
 1165SOL    HW1 3827   0.360   1.183   9.755
 1165SOL    HW2 3828   0.371   1.020   9.751
 1166SOL     OW 3829   0.566   0.537  10.175
 1166SOL    HW1 3830   0.578   0.603  10.101
 1166SOL    HW2 3831   0.612   0.571  10.258
 1167SOL     OW 3832   1.252   1.348   9.698
 1167SOL    HW1 3833   1.302   1.425   9.738
 1167SOL    HW2 3834   1.157   1.350   9.730
 1168SOL     OW 3835   1.272   1.445  10.452
 1168SOL    HW1 3836   1.319   1.458  10.539
 1168SOL    HW2 3837   1.206   1.371  10.461
 1169SOL     OW 3838   1.582   0.639   9.782
 1169SOL    HW1 3839   1.551   0.700   9.855
 1169SOL    HW2 3840   1.632   0.691   9.713
 1170SOL     OW 3841   0.354   1.510  10.639
 1170SOL    HW1 3842   0.333   1.466  10.552
 1170SOL    HW2 3843   0.451   1.536  10.642
 1171SOL     OW 3844   0.402   0.751  10.908
 1171SOL    HW1 3845   0.470   0.806  10.861
 1171SOL    HW2 3846   0.442   0.663  10.935
 1172SOL     OW 3847   1.587   0.779  10.980
 1172SOL    HW1 3848   1.495   0.817  10.975
 1172SOL    HW2 3849   1.647   0.826  10.915
 1173SOL     OW 3850   1.013   0.105  11.080
 1173SOL    HW1 3851   1.019   0.190  11.028
 1173SOL    HW2 3852   1.045   0.029  11.023
 1174SOL     OW 3853   0.504   0.050  11.050
 1174SOL    HW1 3854   0.462  -0.007  10.980
 1174SOL    HW2 3855   0.438   0.119  11.082
 1175SOL     OW 3856   0.573   0.870  10.339
 1175SOL    HW1 3857   0.617   0.959  10.330
 1175SOL    HW2 3858   0.510   0.870  10.416
 1176SOL     OW 3859   1.360   0.862  10.355
 1176SOL    HW1 3860   1.285   0.862  10.289
 1176SOL    HW2 3861   1.397   0.770  10.364
 1177SOL     OW 3862   1.209   0.525   9.585
 1177SOL    HW1 3863   1.222   0.441   9.639
 1177SOL    HW2 3864   1.180   0.599   9.645
 1178SOL     OW 3865   0.307   0.213  10.541
 1178SOL    HW1 3866   0.284   0.250  10.631
 1178SOL    HW2 3867   0.277   0.118  10.535
 1179SOL     OW 3868   0.037   1.310  10.592
 1179SOL    HW1 3869   0.090   1.261  10.660
 1179SOL    HW2 3870   0.059   1.408  10.597
 1180SOL     OW 3871   0.732   0.634  10.374
 1180SOL    HW1 3872   0.791   0.608  10.298
 1180SOL    HW2 3873   0.704   0.730  10.363
 1181SOL     OW 3874   1.728   0.935  11.164
 1181SOL    HW1 3875   1.682   0.928  11.075
 1181SOL    HW2 3876   1.666   0.979  11.230
 1182SOL     OW 3877   0.307   0.063   9.928
 1182SOL    HW1 3878   0.296   0.157   9.961
 1182SOL    HW2 3879   0.302   0.000  10.005
 1183SOL     OW 3880   1.622   0.367   9.684
 1183SOL    HW1 3881   1.624   0.291   9.748
 1183SOL    HW2 3882   1.574   0.444   9.724
 1184SOL     OW 3883   1.023   0.766  10.276
 1184SOL    HW1 3884   1.038   0.787  10.372
 1184SOL    HW2 3885   0.993   0.671  10.267
 1185SOL     OW 3886   0.980   1.573  11.010
 1185SOL    HW1 3887   0.960   1.617  10.922
 1185SOL    HW2 3888   1.019   1.482  10.994
 1186SOL     OW 3889   1.859   1.518  10.915
 1186SOL    HW1 3890   1.873   1.545  10.820
 1186SOL    HW2 3891   1.942   1.540  10.968
 1187SOL     OW 3892   0.350   0.898  11.114
 1187SOL    HW1 3893   0.426   0.942  11.162
 1187SOL    HW2 3894   0.385   0.851  11.032
 1188SOL     OW 3895   1.540   0.274   9.435
 1188SOL    HW1 3896   1.479   0.199   9.458
 1188SOL    HW2 3897   1.562   0.326   9.518
 1189SOL     OW 3898   1.303   0.838   9.352
 1189SOL    HW1 3899   1.337   0.745   9.367
 1189SOL    HW2 3900   1.321   0.865   9.257
 1190SOL     OW 3901   1.068   1.333  10.159
 1190SOL    HW1 3902   1.075   1.249  10.104
 1190SOL    HW2 3903   1.130   1.402  10.123
 1191SOL     OW 3904   0.319   0.810  10.259
 1191SOL    HW1 3905   0.412   0.846  10.264
 1191SOL    HW2 3906   0.313   0.725  10.311
 1192SOL     OW 3907   0.339   0.509  10.316
 1192SOL    HW1 3908   0.287   0.426  10.299
 1192SOL    HW2 3909   0.416   0.514  10.252
 1193SOL     OW 3910   1.138   0.380  10.988
 1193SOL    HW1 3911   1.093   0.443  11.052
 1193SOL    HW2 3912   1.231   0.411  10.971
 1194SOL     OW 3913   1.160   0.207  10.787
 1194SOL    HW1 3914   1.160   0.271  10.864
 1194SOL    HW2 3915   1.188   0.255  10.704
 1195SOL     OW 3916   0.008   1.326   9.510
 1195SOL    HW1 3917  -0.085   1.347   9.479
 1195SOL    HW2 3918   0.018   1.227   9.523
 1196SOL     OW 3919   0.088   1.801  10.237
 1196SOL    HW1 3920   0.046   1.715  10.210
 1196SOL    HW2 3921   0.182   1.804  10.203
 1197SOL     OW 3922   0.504   1.568  10.220
 1197SOL    HW1 3923   0.570   1.642  10.229
 1197SOL    HW2 3924   0.548   1.489  10.178
 1198SOL     OW 3925   1.002   0.796  10.548
 1198SOL    HW1 3926   1.043   0.764  10.634
 1198SOL    HW2 3927   0.906   0.769  10.545
 1199SOL     OW 3928   0.040   0.544  10.424
 1199SOL    HW1 3929   0.125   0.511  10.383
 1199SOL    HW2 3930   0.053   0.559  10.522
 1200SOL     OW 3931   0.189   0.520  11.032
 1200SOL    HW1 3932   0.248   0.480  10.962
 1200SOL    HW2 3933   0.131   0.591  10.991
 1201SOL     OW 3934   1.369   0.950  10.970
 1201SOL    HW1 3935   1.408   1.039  10.990
 1201SOL    HW2 3936   1.379   0.930  10.873
 1202SOL     OW 3937   0.815   0.572   9.635
 1202SOL    HW1 3938   0.822   0.483   9.589
 1202SOL    HW2 3939   0.721   0.606   9.627
 1203SOL     OW 3940   1.657   0.604  10.516
 1203SOL    HW1 3941   1.619   0.535  10.578
 1203SOL    HW2 3942   1.739   0.568  10.472
 1204SOL     OW 3943   0.252   1.564  11.054
 1204SOL    HW1 3944   0.222   1.621  11.130
 1204SOL    HW2 3945   0.245   1.467  11.080
 1205SOL     OW 3946   0.671   0.464  10.579
 1205SOL    HW1 3947   0.637   0.375  10.549
 1205SOL    HW2 3948   0.697   0.518  10.499
 1206SOL     OW 3949   0.930   1.678  10.775
 1206SOL    HW1 3950   0.906   1.660  10.680
 1206SOL    HW2 3951   0.960   1.772  10.785
 1207SOL     OW 3952   0.473   0.500   9.501
 1207SOL    HW1 3953   0.534   0.580   9.505
 1207SOL    HW2 3954   0.378   0.531   9.508
 1208SOL     OW 3955   0.159   1.137  10.776
 1208SOL    HW1 3956   0.181   1.076  10.852
 1208SOL    HW2 3957   0.169   1.088  10.690
 1209SOL     OW 3958   1.347   1.059  10.544
 1209SOL    HW1 3959   1.371   0.996  10.470
 1209SOL    HW2 3960   1.257   1.099  10.526
 1210SOL     OW 3961   1.302   0.855   9.619
 1210SOL    HW1 3962   1.216   0.824   9.661
 1210SOL    HW2 3963   1.298   0.841   9.520
 1211SOL     OW 3964   1.759   1.747  10.464
 1211SOL    HW1 3965   1.820   1.777  10.391
 1211SOL    HW2 3966   1.721   1.658  10.442
 1212SOL     OW 3967   1.252   1.731  10.438
 1212SOL    HW1 3968   1.336   1.736  10.384
 1212SOL    HW2 3969   1.229   1.635  10.456
 1213SOL     OW 3970   0.083   1.258  10.332
 1213SOL    HW1 3971   0.078   1.257  10.432
 1213SOL    HW2 3972   0.000   1.217  10.294
 1214SOL     OW 3973   0.688   1.662  11.026
 1214SOL    HW1 3974   0.632   1.743  11.035
 1214SOL    HW2 3975   0.740   1.666  10.940
 1215SOL     OW 3976   1.726   0.135   9.833
 1215SOL    HW1 3977   1.799   0.118   9.766
 1215SOL    HW2 3978   1.695   0.048   9.871
 1216SOL     OW 3979   1.388   1.573   9.787
 1216SOL    HW1 3980   1.455   1.585   9.713
 1216SOL    HW2 3981   1.348   1.662   9.810
 1217SOL     OW 3982   0.130   1.794  11.161
 1217SOL    HW1 3983   0.089   1.720  11.214
 1217SOL    HW2 3984   0.194   1.845  11.219
 1218SOL     OW 3985   1.280   0.927   9.982
 1218SOL    HW1 3986   1.340   0.846   9.984
 1218SOL    HW2 3987   1.320   0.996   9.922
 1219SOL     OW 3988   0.830   1.273  10.732
 1219SOL    HW1 3989   0.825   1.306  10.827
 1219SOL    HW2 3990   0.744   1.292  10.686
 1220SOL     OW 3991   0.672   1.616   9.464
 1220SOL    HW1 3992   0.681   1.626   9.365
 1220SOL    HW2 3993   0.632   1.527   9.485
 1221SOL     OW 3994   1.650   1.720  10.704
 1221SOL    HW1 3995   1.703   1.730  10.620
 1221SOL    HW2 3996   1.623   1.810  10.738
 1222SOL     OW 3997   1.841   0.175  10.273
 1222SOL    HW1 3998   1.880   0.090  10.237
 1222SOL    HW2 3999   1.743   0.177  10.254
 1223SOL     OW 4000   0.263   0.326  10.030
 1223SOL    HW1 4001   0.184   0.377   9.996
 1223SOL    HW2 4002   0.254   0.311  10.128
 1224SOL     OW 4003   1.194   1.612   9.341
 1224SOL    HW1 4004   1.200   1.519   9.378
 1224SOL    HW2 4005   1.135   1.612   9.261
 1225SOL     OW 4006   0.822   1.002  10.682
 1225SOL    HW1 4007   0.862   1.001  10.590
 1225SOL    HW2 4008   0.832   1.094  10.722
 1226SOL     OW 4009   0.916   0.910   9.601
 1226SOL    HW1 4010   0.979   0.948   9.533
 1226SOL    HW2 4011   0.956   0.827   9.640
 1227SOL     OW 4012   1.504   1.607   9.354
 1227SOL    HW1 4013   1.412   1.644   9.361
 1227SOL    HW2 4014   1.542   1.627   9.264
 1228SOL     OW 4015   0.372   1.288  10.800
 1228SOL    HW1 4016   0.359   1.381  10.766
 1228SOL    HW2 4017   0.288   1.236  10.787
 1229SOL     OW 4018   1.614   1.292  10.599
 1229SOL    HW1 4019   1.674   1.295  10.679
 1229SOL    HW2 4020   1.539   1.356  10.612
 1230SOL     OW 4021   1.039   1.098  10.006
 1230SOL    HW1 4022   0.969   1.051  10.060
 1230SOL    HW2 4023   1.098   1.030   9.963
 1231SOL     OW 4024   1.014   0.236  10.281
 1231SOL    HW1 4025   1.006   0.200  10.188
 1231SOL    HW2 4026   1.012   0.160  10.346
 1232SOL     OW 4027   0.590   1.487   9.801
 1232SOL    HW1 4028   0.632   1.429   9.731
 1232SOL    HW2 4029   0.546   1.566   9.757
 1233SOL     OW 4030   1.709   0.385  10.691
 1233SOL    HW1 4031   1.782   0.454  10.695
 1233SOL    HW2 4032   1.737   0.310  10.632
 1234SOL     OW 4033   0.255   1.348   9.600
 1234SOL    HW1 4034   0.159   1.349   9.573
 1234SOL    HW2 4035   0.267   1.401   9.684
 1235SOL     OW 4036   0.105   1.013  11.036
 1235SOL    HW1 4037   0.028   0.980  11.090
 1235SOL    HW2 4038   0.190   0.983  11.078
 1236SOL     OW 4039   0.672   0.203  10.799
 1236SOL    HW1 4040   0.762   0.187  10.759
 1236SOL    HW2 4041   0.680   0.208  10.898
 1237SOL     OW 4042   0.075   0.345   9.343
 1237SOL    HW1 4043  -0.017   0.317   9.314
 1237SOL    HW2 4044   0.106   0.422   9.287
 1238SOL     OW 4045   1.440   0.856  10.708
 1238SOL    HW1 4046   1.383   0.908  10.645
 1238SOL    HW2 4047   1.536   0.868  10.684
 1239SOL     OW 4048   0.072   0.166   9.628
 1239SOL    HW1 4049   0.055   0.249   9.574
 1239SOL    HW2 4050   0.162   0.129   9.606
 1240SOL     OW 4051   1.183   1.335   9.429
 1240SOL    HW1 4052   1.084   1.324   9.431
 1240SOL    HW2 4053   1.217   1.350   9.522
 1241SOL     OW 4054   0.613   0.842  10.741
 1241SOL    HW1 4055   0.669   0.923  10.724
 1241SOL    HW2 4056   0.672   0.762  10.744
 1242SOL     OW 4057   1.493   1.767  10.269
 1242SOL    HW1 4058   1.526   1.831  10.200
 1242SOL    HW2 4059   1.559   1.761  10.344
 1243SOL     OW 4060   0.716   0.565  11.018
 1243SOL    HW1 4061   0.735   0.630  11.092
 1243SOL    HW2 4062   0.776   0.485  11.027
 1244SOL     OW 4063   1.450   1.220  10.943
 1244SOL    HW1 4064   1.441   1.210  11.042
 1244SOL    HW2 4065   1.546   1.213  10.917
 1245SOL     OW 4066   0.390   1.741  10.870
 1245SOL    HW1 4067   0.299   1.782  10.868
 1245SOL    HW2 4068   0.383   1.647  10.902
 1246SOL     OW 4069   1.674   0.883  10.564
 1246SOL    HW1 4070   1.647   0.794  10.527
 1246SOL    HW2 4071   1.675   0.951  10.491
 1247SOL     OW 4072   1.225   0.325   9.759
 1247SOL    HW1 4073   1.290   0.251   9.748
 1247SOL    HW2 4074   1.245   0.375   9.843
 1248SOL     OW 4075   0.594   0.745   9.962
 1248SOL    HW1 4076   0.644   0.830   9.943
 1248SOL    HW2 4077   0.506   0.747   9.914
 1249SOL     OW 4078   1.777   0.342  10.952
 1249SOL    HW1 4079   1.760   0.373  10.858
 1249SOL    HW2 4080   1.693   0.305  10.990
 1250SOL     OW 4081   1.730   0.934  10.827
 1250SOL    HW1 4082   1.768   1.025  10.842
 1250SOL    HW2 4083   1.722   0.917  10.728
 1251SOL     OW 4084   0.859   1.374   9.326
 1251SOL    HW1 4085   0.813   1.389   9.414
 1251SOL    HW2 4086   0.903   1.459   9.296
 1252SOL     OW 4087   0.661   1.790  10.263
 1252SOL    HW1 4088   0.615   1.878  10.250
 1252SOL    HW2 4089   0.760   1.802  10.256
 1253SOL     OW 4090   0.859   0.956  10.171
 1253SOL    HW1 4091   0.913   0.887  10.219
 1253SOL    HW2 4092   0.827   1.025  10.237
 1254SOL     OW 4093   1.083   0.984   9.397
 1254SOL    HW1 4094   1.060   1.037   9.315
 1254SOL    HW2 4095   1.164   0.928   9.378
 1255SOL     OW 4096   1.861   1.569  10.161
 1255SOL    HW1 4097   1.790   1.557  10.091
 1255SOL    HW2 4098   1.862   1.490  10.221
 1256SOL     OW 4099   0.221   1.314  11.154
 1256SOL    HW1 4100   0.156   1.241  11.133
 1256SOL    HW2 4101   0.225   1.328  11.252
 1257SOL     OW 4102   0.079   1.240   9.963
 1257SOL    HW1 4103   0.078   1.193  10.051
 1257SOL    HW2 4104   0.161   1.212   9.912
 1258SOL     OW 4105   0.672   1.391  10.934
 1258SOL    HW1 4106   0.594   1.341  10.972
 1258SOL    HW2 4107   0.669   1.486  10.965
 1259SOL     OW 4108   1.824   0.192  10.537
 1259SOL    HW1 4109   1.820   0.102  10.581
 1259SOL    HW2 4110   1.827   0.181  10.438
 1260SOL     OW 4111   0.428   0.424   9.830
 1260SOL    HW1 4112   0.458   0.352   9.768
 1260SOL    HW2 4113   0.389   0.384   9.913
 1261SOL     OW 4114   1.705   1.487  10.414
 1261SOL    HW1 4115   1.612   1.462  10.387
 1261SOL    HW2 4116   1.731   1.437  10.496
 1262SOL     OW 4117   0.317   0.547  10.590
 1262SOL    HW1 4118   0.355   0.488  10.662
 1262SOL    HW2 4119   0.357   0.521  10.502
 1263SOL     OW 4120   0.812   1.586   9.997
 1263SOL    HW1 4121   0.844   1.596   9.903
 1263SOL    HW2 4122   0.733   1.524   9.999
 1264SOL     OW 4123   1.424   0.214  10.422
 1264SOL    HW1 4124   1.476   0.149  10.477
 1264SOL    HW2 4125   1.375   0.277  10.483
 1265SOL     OW 4126   1.001   0.034  10.464
 1265SOL    HW1 4127   0.938  -0.038  10.433
 1265SOL    HW2 4128   1.094  -0.002  10.464
 1266SOL     OW 4129   0.770   1.330   9.611
 1266SOL    HW1 4130   0.724   1.243   9.628
 1266SOL    HW2 4131   0.861   1.327   9.652
 1267SOL     OW 4132   0.618   1.567  10.594
 1267SOL    HW1 4133   0.613   1.649  10.651
 1267SOL    HW2 4134   0.707   1.564  10.549
 1268SOL     OW 4135   1.352   0.052   9.478
 1268SOL    HW1 4136   1.387   0.011   9.394
 1268SOL    HW2 4137   1.262   0.014   9.498
 1269SOL     OW 4138   1.300   0.453  10.001
 1269SOL    HW1 4139   1.241   0.533  10.005
 1269SOL    HW2 4140   1.315   0.418  10.094
 1270SOL     OW 4141   1.593   0.221  10.192
 1270SOL    HW1 4142   1.509   0.220  10.246
 1270SOL    HW2 4143   1.595   0.304  10.136
 1271SOL     OW 4144   0.039   1.077   9.610
 1271SOL    HW1 4145   0.138   1.066   9.601
 1271SOL    HW2 4146  -0.001   0.991   9.642
 1272SOL     OW 4147   0.875   1.646   9.647
 1272SOL    HW1 4148   0.798   1.611   9.593
 1272SOL    HW2 4149   0.843   1.717   9.709
 1273SOL     OW 4150   0.230   0.628  11.285
 1273SOL    HW1 4151   0.137   0.626  11.322
 1273SOL    HW2 4152   0.231   0.589  11.193
 1274SOL     OW 4153   0.225   0.275  12.168
 1274SOL    HW1 4154   0.260   0.258  12.260
 1274SOL    HW2 4155   0.137   0.230  12.156
 1275SOL     OW 4156   0.019   0.368  11.819
 1275SOL    HW1 4157  -0.063   0.411  11.858
 1275SOL    HW2 4158  -0.009   0.295  11.756
 1276SOL     OW 4159   1.555   1.511  11.875
 1276SOL    HW1 4160   1.498   1.495  11.956
 1276SOL    HW2 4161   1.496   1.521  11.795
 1277SOL     OW 4162   1.135   0.703  11.889
 1277SOL    HW1 4163   1.192   0.781  11.864
 1277SOL    HW2 4164   1.075   0.729  11.965
 1278SOL     OW 4165   1.755   0.607  11.403
 1278SOL    HW1 4166   1.743   0.594  11.304
 1278SOL    HW2 4167   1.725   0.526  11.452
 1279SOL     OW 4168   0.685   1.012  11.837
 1279SOL    HW1 4169   0.754   0.996  11.907
 1279SOL    HW2 4170   0.612   1.069  11.875
 1280SOL     OW 4171   1.603   0.447  11.909
 1280SOL    HW1 4172   1.529   0.493  11.859
 1280SOL    HW2 4173   1.654   0.515  11.962
 1281SOL     OW 4174   0.231   1.713  11.655
 1281SOL    HW1 4175   0.265   1.790  11.709
 1281SOL    HW2 4176   0.275   1.713  11.565
 1282SOL     OW 4177   0.230   1.434  11.710
 1282SOL    HW1 4178   0.204   1.530  11.710
 1282SOL    HW2 4179   0.159   1.380  11.755
 1283SOL     OW 4180   0.240   1.091  12.058
 1283SOL    HW1 4181   0.254   1.007  12.110
 1283SOL    HW2 4182   0.185   1.155  12.113
 1284SOL     OW 4183   0.606   0.964  11.295
 1284SOL    HW1 4184   0.613   1.048  11.241
 1284SOL    HW2 4185   0.652   0.977  11.383
 1285SOL     OW 4186   0.122   0.643  11.735
 1285SOL    HW1 4187   0.077   0.555  11.752
 1285SOL    HW2 4188   0.121   0.697  11.819
 1286SOL     OW 4189   1.842   1.767  11.531
 1286SOL    HW1 4190   1.896   1.738  11.611
 1286SOL    HW2 4191   1.872   1.857  11.502
 1287SOL     OW 4192   0.027   1.596  11.289
 1287SOL    HW1 4193   0.008   1.500  11.310
 1287SOL    HW2 4194  -0.006   1.654  11.364
 1288SOL     OW 4195   1.689   0.922  11.784
 1288SOL    HW1 4196   1.784   0.893  11.792
 1288SOL    HW2 4197   1.681   0.987  11.709
 1289SOL     OW 4198   1.641   1.108  11.604
 1289SOL    HW1 4199   1.727   1.110  11.552
 1289SOL    HW2 4200   1.655   1.155  11.692
 1290SOL     OW 4201   0.613   1.365  11.898
 1290SOL    HW1 4202   0.564   1.278  11.907
 1290SOL    HW2 4203   0.590   1.408  11.811
 1291SOL     OW 4204   0.809   0.004  11.674
 1291SOL    HW1 4205   0.849   0.095  11.665
 1291SOL    HW2 4206   0.709   0.012  11.680
 1292SOL     OW 4207   1.525   0.999  11.362
 1292SOL    HW1 4208   1.462   0.923  11.375
 1292SOL    HW2 4209   1.573   1.017  11.448
 1293SOL     OW 4210   1.667   1.714  11.744
 1293SOL    HW1 4211   1.626   1.691  11.656
 1293SOL    HW2 4212   1.649   1.640  11.809
 1294SOL     OW 4213   0.598   0.729  11.442
 1294SOL    HW1 4214   0.622   0.798  11.374
 1294SOL    HW2 4215   0.520   0.762  11.496
 1295SOL     OW 4216   1.281   0.345  12.116
 1295SOL    HW1 4217   1.195   0.295  12.103
 1295SOL    HW2 4218   1.343   0.291  12.172
 1296SOL     OW 4219   1.576   1.662  11.479
 1296SOL    HW1 4220   1.665   1.708  11.482
 1296SOL    HW2 4221   1.555   1.638  11.384
 1297SOL     OW 4222   1.041   0.701  11.601
 1297SOL    HW1 4223   1.067   0.697  11.697
 1297SOL    HW2 4224   0.956   0.650  11.587
 1298SOL     OW 4225   0.076   0.811  11.961
 1298SOL    HW1 4226   0.175   0.799  11.970
 1298SOL    HW2 4227   0.052   0.906  11.982
 1299SOL     OW 4228   0.865   0.348  11.367
 1299SOL    HW1 4229   0.924   0.411  11.318
 1299SOL    HW2 4230   0.884   0.254  11.338
 1300SOL     OW 4231   1.362   1.144  11.717
 1300SOL    HW1 4232   1.445   1.115  11.669
 1300SOL    HW2 4233   1.313   1.211  11.661
 1301SOL     OW 4234   1.008   1.456  11.649
 1301SOL    HW1 4235   0.962   1.528  11.597
 1301SOL    HW2 4236   1.004   1.476  11.747
 1302SOL     OW 4237   0.351   1.801  12.025
 1302SOL    HW1 4238   0.401   1.715  12.031
 1302SOL    HW2 4239   0.416   1.878  12.022
 1303SOL     OW 4240   1.795   1.066  12.045
 1303SOL    HW1 4241   1.733   1.051  11.969
 1303SOL    HW2 4242   1.743   1.077  12.130
 1304SOL     OW 4243   0.321   0.943  11.414
 1304SOL    HW1 4244   0.403   0.982  11.372
 1304SOL    HW2 4245   0.294   0.861  11.365
 1305SOL     OW 4246   1.458   0.735  11.900
 1305SOL    HW1 4247   1.453   0.670  11.975
 1305SOL    HW2 4248   1.538   0.794  11.913
 1306SOL     OW 4249   1.111   1.776  11.409
 1306SOL    HW1 4250   1.051   1.714  11.459
 1306SOL    HW2 4251   1.142   1.732  11.324
 1307SOL     OW 4252   1.632   1.377  11.253
 1307SOL    HW1 4253   1.600   1.471  11.243
 1307SOL    HW2 4254   1.556   1.314  11.241
 1308SOL     OW 4255   0.464   1.743  11.495
 1308SOL    HW1 4256   0.497   1.782  11.581
 1308SOL    HW2 4257   0.540   1.736  11.430
 1309SOL     OW 4258   1.400   0.107  11.598
 1309SOL    HW1 4259   1.376   0.070  11.508
 1309SOL    HW2 4260   1.499   0.123  11.602
 1310SOL     OW 4261   0.940   1.698  12.076
 1310SOL    HW1 4262   1.020   1.641  12.097
 1310SOL    HW2 4263   0.891   1.658  11.999
 1311SOL     OW 4264   0.382   0.700  11.652
 1311SOL    HW1 4265   0.427   0.610  11.649
 1311SOL    HW2 4266   0.288   0.689  11.685
 1312SOL     OW 4267   0.614   0.122  11.289
 1312SOL    HW1 4268   0.712   0.100  11.296
 1312SOL    HW2 4269   0.583   0.105  11.196
 1313SOL     OW 4270   0.539   0.064  11.684
 1313SOL    HW1 4271   0.458   0.065  11.742
 1313SOL    HW2 4272   0.542   0.147  11.629
 1314SOL     OW 4273   1.434   1.188  11.213
 1314SOL    HW1 4274   1.466   1.112  11.270
 1314SOL    HW2 4275   1.342   1.215  11.243
 1315SOL     OW 4276   0.297   0.035  11.343
 1315SOL    HW1 4277   0.346   0.119  11.322
 1315SOL    HW2 4278   0.359  -0.030  11.388
 1316SOL     OW 4279   0.935   0.236  11.652
 1316SOL    HW1 4280   0.887   0.277  11.574
 1316SOL    HW2 4281   1.034   0.234  11.633
 1317SOL     OW 4282   0.459   1.152  11.913
 1317SOL    HW1 4283   0.388   1.125  11.978
 1317SOL    HW2 4284   0.433   1.124  11.820
 1318SOL     OW 4285   1.271   1.797  11.763
 1318SOL    HW1 4286   1.315   1.861  11.699
 1318SOL    HW2 4287   1.221   1.849  11.833
 1319SOL     OW 4288   1.032   0.549  11.188
 1319SOL    HW1 4289   0.991   0.631  11.149
 1319SOL    HW2 4290   1.096   0.575  11.261
 1320SOL     OW 4291   0.866   0.454  11.814
 1320SOL    HW1 4292   0.834   0.526  11.752
 1320SOL    HW2 4293   0.890   0.373  11.761
 1321SOL     OW 4294   1.017   0.039  11.925
 1321SOL    HW1 4295   0.945   0.044  11.856
 1321SOL    HW2 4296   0.993  -0.030  11.994
 1322SOL     OW 4297   1.857   0.833  11.549
 1322SOL    HW1 4298   1.899   0.769  11.613
 1322SOL    HW2 4299   1.819   0.782  11.471
 1323SOL     OW 4300   0.488   1.385  11.346
 1323SOL    HW1 4301   0.401   1.370  11.393
 1323SOL    HW2 4302   0.471   1.411  11.251
 1324SOL     OW 4303   1.664   1.280  11.829
 1324SOL    HW1 4304   1.763   1.288  11.843
 1324SOL    HW2 4305   1.619   1.364  11.860
 1325SOL     OW 4306   1.390   0.575  11.250
 1325SOL    HW1 4307   1.336   0.554  11.331
 1325SOL    HW2 4308   1.481   0.534  11.259
 1326SOL     OW 4309   0.527   0.256  11.500
 1326SOL    HW1 4310   0.554   0.197  11.425
 1326SOL    HW2 4311   0.527   0.351  11.469
 1327SOL     OW 4312   0.705   1.050  11.540
 1327SOL    HW1 4313   0.691   1.057  11.639
 1327SOL    HW2 4314   0.789   0.999  11.522
 1328SOL     OW 4315   0.367   1.100  11.673
 1328SOL    HW1 4316   0.360   1.183  11.617
 1328SOL    HW2 4317   0.371   1.020  11.613
 1329SOL     OW 4318   1.252   1.348  11.560
 1329SOL    HW1 4319   1.302   1.425  11.600
 1329SOL    HW2 4320   1.157   1.350  11.592
 1330SOL     OW 4321   1.582   0.639  11.644
 1330SOL    HW1 4322   1.551   0.700  11.717
 1330SOL    HW2 4323   1.632   0.691  11.575
 1331SOL     OW 4324   1.209   0.525  11.447
 1331SOL    HW1 4325   1.222   0.441  11.501
 1331SOL    HW2 4326   1.180   0.599  11.507
 1332SOL     OW 4327   0.307   0.063  11.790
 1332SOL    HW1 4328   0.296   0.157  11.823
 1332SOL    HW2 4329   0.302   0.000  11.867
 1333SOL     OW 4330   1.622   0.367  11.546
 1333SOL    HW1 4331   1.624   0.291  11.610
 1333SOL    HW2 4332   1.574   0.444  11.586
 1334SOL     OW 4333   1.540   0.274  11.297
 1334SOL    HW1 4334   1.479   0.199  11.320
 1334SOL    HW2 4335   1.562   0.326  11.380
 1335SOL     OW 4336   1.303   0.838  11.214
 1335SOL    HW1 4337   1.337   0.745  11.229
 1335SOL    HW2 4338   1.321   0.865  11.119
 1336SOL     OW 4339   0.008   1.326  11.372
 1336SOL    HW1 4340  -0.085   1.347  11.341
 1336SOL    HW2 4341   0.018   1.227  11.385
 1337SOL     OW 4342   0.815   0.572  11.497
 1337SOL    HW1 4343   0.822   0.483  11.451
 1337SOL    HW2 4344   0.721   0.606  11.489
 1338SOL     OW 4345   0.473   0.500  11.363
 1338SOL    HW1 4346   0.534   0.580  11.367
 1338SOL    HW2 4347   0.378   0.531  11.370
 1339SOL     OW 4348   1.302   0.855  11.481
 1339SOL    HW1 4349   1.216   0.824  11.523
 1339SOL    HW2 4350   1.298   0.841  11.382
 1340SOL     OW 4351   1.726   0.135  11.695
 1340SOL    HW1 4352   1.799   0.118  11.628
 1340SOL    HW2 4353   1.695   0.048  11.733
 1341SOL     OW 4354   1.388   1.573  11.649
 1341SOL    HW1 4355   1.455   1.585  11.575
 1341SOL    HW2 4356   1.348   1.662  11.672
 1342SOL     OW 4357   1.280   0.927  11.844
 1342SOL    HW1 4358   1.340   0.846  11.846
 1342SOL    HW2 4359   1.320   0.996  11.784
 1343SOL     OW 4360   0.672   1.616  11.326
 1343SOL    HW1 4361   0.681   1.626  11.227
 1343SOL    HW2 4362   0.632   1.527  11.347
 1344SOL     OW 4363   1.841   0.175  12.135
 1344SOL    HW1 4364   1.880   0.090  12.099
 1344SOL    HW2 4365   1.743   0.177  12.116
 1345SOL     OW 4366   0.263   0.326  11.892
 1345SOL    HW1 4367   0.184   0.377  11.858
 1345SOL    HW2 4368   0.254   0.311  11.990
 1346SOL     OW 4369   1.194   1.612  11.203
 1346SOL    HW1 4370   1.200   1.519  11.240
 1346SOL    HW2 4371   1.135   1.612  11.123
 1347SOL     OW 4372   0.916   0.910  11.463
 1347SOL    HW1 4373   0.979   0.948  11.395
 1347SOL    HW2 4374   0.956   0.827  11.502
 1348SOL     OW 4375   1.504   1.607  11.216
 1348SOL    HW1 4376   1.412   1.644  11.223
 1348SOL    HW2 4377   1.542   1.627  11.126
 1349SOL     OW 4378   1.039   1.098  11.868
 1349SOL    HW1 4379   0.969   1.051  11.922
 1349SOL    HW2 4380   1.098   1.030  11.825
 1350SOL     OW 4381   0.590   1.487  11.663
 1350SOL    HW1 4382   0.632   1.429  11.593
 1350SOL    HW2 4383   0.546   1.566  11.619
 1351SOL     OW 4384   0.255   1.348  11.462
 1351SOL    HW1 4385   0.159   1.349  11.435
 1351SOL    HW2 4386   0.267   1.401  11.546
 1352SOL     OW 4387   0.075   0.345  11.205
 1352SOL    HW1 4388  -0.017   0.317  11.176
 1352SOL    HW2 4389   0.106   0.422  11.149
 1353SOL     OW 4390   0.072   0.166  11.490
 1353SOL    HW1 4391   0.055   0.249  11.436
 1353SOL    HW2 4392   0.162   0.129  11.468
 1354SOL     OW 4393   1.183   1.335  11.291
 1354SOL    HW1 4394   1.084   1.324  11.293
 1354SOL    HW2 4395   1.217   1.350  11.384
 1355SOL     OW 4396   1.225   0.325  11.621
 1355SOL    HW1 4397   1.290   0.251  11.610
 1355SOL    HW2 4398   1.245   0.375  11.705
 1356SOL     OW 4399   0.594   0.745  11.824
 1356SOL    HW1 4400   0.644   0.830  11.805
 1356SOL    HW2 4401   0.506   0.747  11.776
 1357SOL     OW 4402   0.859   1.374  11.188
 1357SOL    HW1 4403   0.813   1.389  11.276
 1357SOL    HW2 4404   0.903   1.459  11.158
 1358SOL     OW 4405   0.661   1.790  12.125
 1358SOL    HW1 4406   0.615   1.878  12.112
 1358SOL    HW2 4407   0.760   1.802  12.118
 1359SOL     OW 4408   0.859   0.956  12.033
 1359SOL    HW1 4409   0.913   0.887  12.081
 1359SOL    HW2 4410   0.827   1.025  12.099
 1360SOL     OW 4411   1.083   0.984  11.259
 1360SOL    HW1 4412   1.060   1.037  11.177
 1360SOL    HW2 4413   1.164   0.928  11.240
 1361SOL     OW 4414   0.079   1.240  11.825
 1361SOL    HW1 4415   0.078   1.193  11.913
 1361SOL    HW2 4416   0.161   1.212  11.774
 1362SOL     OW 4417   0.428   0.424  11.692
 1362SOL    HW1 4418   0.458   0.352  11.630
 1362SOL    HW2 4419   0.389   0.384  11.775
 1363SOL     OW 4420   1.705   1.487  12.276
 1363SOL    HW1 4421   1.612   1.462  12.249
 1363SOL    HW2 4422   1.731   1.437  12.358
 1364SOL     OW 4423   0.812   1.586  11.859
 1364SOL    HW1 4424   0.844   1.596  11.765
 1364SOL    HW2 4425   0.733   1.524  11.861
 1365SOL     OW 4426   0.770   1.330  11.473
 1365SOL    HW1 4427   0.724   1.243  11.490
 1365SOL    HW2 4428   0.861   1.327  11.514
 1366SOL     OW 4429   1.352   0.052  11.340
 1366SOL    HW1 4430   1.387   0.011  11.256
 1366SOL    HW2 4431   1.262   0.014  11.360
 1367SOL     OW 4432   1.300   0.453  11.863
 1367SOL    HW1 4433   1.241   0.533  11.867
 1367SOL    HW2 4434   1.315   0.418  11.956
 1368SOL     OW 4435   0.039   1.077  11.472
 1368SOL    HW1 4436   0.138   1.066  11.463
 1368SOL    HW2 4437  -0.001   0.991  11.504
 1369SOL     OW 4438   0.875   1.646  11.509
 1369SOL    HW1 4439   0.798   1.611  11.455
 1369SOL    HW2 4440   0.843   1.717  11.571
 1370SOL     OW 4441   0.230   2.490   0.113
 1370SOL    HW1 4442   0.137   2.488   0.150
 1370SOL    HW2 4443   0.231   2.451   0.021
 1371SOL     OW 4444   0.225   2.137   0.996
 1371SOL    HW1 4445   0.260   2.120   1.088
 1371SOL    HW2 4446   0.137   2.092   0.984
 1372SOL     OW 4447   0.019   2.230   0.647
 1372SOL    HW1 4448  -0.063   2.273   0.686
 1372SOL    HW2 4449  -0.009   2.157   0.584
 1373SOL     OW 4450   0.569   3.137   1.165
 1373SOL    HW1 4451   0.476   3.130   1.128
 1373SOL    HW2 4452   0.580   3.226   1.209
 1374SOL     OW 4453   1.555   3.373   0.703
 1374SOL    HW1 4454   1.498   3.357   0.784
 1374SOL    HW2 4455   1.496   3.383   0.623
 1375SOL     OW 4456   1.135   2.565   0.717
 1375SOL    HW1 4457   1.192   2.643   0.692
 1375SOL    HW2 4458   1.075   2.591   0.793
 1376SOL     OW 4459   1.755   2.469   0.231
 1376SOL    HW1 4460   1.743   2.456   0.132
 1376SOL    HW2 4461   1.725   2.388   0.280
 1377SOL     OW 4462   0.768   3.006   1.023
 1377SOL    HW1 4463   0.690   3.023   1.083
 1377SOL    HW2 4464   0.802   3.093   0.987
 1378SOL     OW 4465   0.850   2.660   1.823
 1378SOL    HW1 4466   0.846   2.736   1.888
 1378SOL    HW2 4467   0.872   2.696   1.732
 1379SOL     OW 4468   0.685   2.874   0.665
 1379SOL    HW1 4469   0.754   2.858   0.735
 1379SOL    HW2 4470   0.612   2.931   0.703
 1380SOL     OW 4471   0.686   3.023   1.803
 1380SOL    HW1 4472   0.746   3.102   1.817
 1380SOL    HW2 4473   0.600   3.054   1.762
 1381SOL     OW 4474   0.335   3.297   1.061
 1381SOL    HW1 4475   0.257   3.266   1.008
 1381SOL    HW2 4476   0.393   3.355   1.004
 1382SOL     OW 4477   1.460   3.367   1.339
 1382SOL    HW1 4478   1.484   3.461   1.365
 1382SOL    HW2 4479   1.444   3.313   1.421
 1383SOL     OW 4480   0.438   2.254   1.499
 1383SOL    HW1 4481   0.520   2.198   1.508
 1383SOL    HW2 4482   0.357   2.196   1.503
 1384SOL     OW 4483   1.603   2.309   0.737
 1384SOL    HW1 4484   1.529   2.355   0.687
 1384SOL    HW2 4485   1.654   2.377   0.790
 1385SOL     OW 4486   0.231   3.575   0.483
 1385SOL    HW1 4487   0.265   3.652   0.537
 1385SOL    HW2 4488   0.275   3.575   0.393
 1386SOL     OW 4489   1.127   3.203   1.690
 1386SOL    HW1 4490   1.174   3.203   1.778
 1386SOL    HW2 4491   1.079   3.116   1.679
 1387SOL     OW 4492   0.230   3.296   0.538
 1387SOL    HW1 4493   0.204   3.392   0.538
 1387SOL    HW2 4494   0.159   3.242   0.583
 1388SOL     OW 4495   0.240   2.953   0.886
 1388SOL    HW1 4496   0.254   2.869   0.938
 1388SOL    HW2 4497   0.185   3.017   0.941
 1389SOL     OW 4498   0.620   3.648   1.439
 1389SOL    HW1 4499   0.528   3.631   1.474
 1389SOL    HW2 4500   0.648   3.740   1.465
 1390SOL     OW 4501   0.606   2.826   0.123
 1390SOL    HW1 4502   0.613   2.910   0.069
 1390SOL    HW2 4503   0.652   2.839   0.211
 1391SOL     OW 4504   1.594   1.976   1.480
 1391SOL    HW1 4505   1.576   2.043   1.408
 1391SOL    HW2 4506   1.591   2.022   1.569
 1392SOL     OW 4507   0.122   2.505   0.563
 1392SOL    HW1 4508   0.077   2.417   0.580
 1392SOL    HW2 4509   0.121   2.559   0.647
 1393SOL     OW 4510   1.842   3.629   0.359
 1393SOL    HW1 4511   1.896   3.600   0.439
 1393SOL    HW2 4512   1.872   3.719   0.330
 1394SOL     OW 4513   0.027   3.458   0.117
 1394SOL    HW1 4514   0.008   3.362   0.138
 1394SOL    HW2 4515  -0.006   3.516   0.192
 1395SOL     OW 4516   1.689   2.784   0.612
 1395SOL    HW1 4517   1.784   2.755   0.620
 1395SOL    HW2 4518   1.681   2.849   0.537
 1396SOL     OW 4519   1.641   2.970   0.432
 1396SOL    HW1 4520   1.727   2.972   0.380
 1396SOL    HW2 4521   1.655   3.017   0.520
 1397SOL     OW 4522   0.113   2.599   1.597
 1397SOL    HW1 4523   0.201   2.586   1.642
 1397SOL    HW2 4524   0.100   2.696   1.575
 1398SOL     OW 4525   0.613   3.227   0.726
 1398SOL    HW1 4526   0.564   3.140   0.735
 1398SOL    HW2 4527   0.590   3.270   0.639
 1399SOL     OW 4528   1.293   3.090   1.423
 1399SOL    HW1 4529   1.330   3.017   1.365
 1399SOL    HW2 4530   1.345   3.095   1.508
 1400SOL     OW 4531   0.809   1.866   0.502
 1400SOL    HW1 4532   0.849   1.957   0.493
 1400SOL    HW2 4533   0.709   1.874   0.508
 1401SOL     OW 4534   0.197   2.838   1.264
 1401SOL    HW1 4535   0.286   2.793   1.250
 1401SOL    HW2 4536   0.124   2.773   1.245
 1402SOL     OW 4537   1.525   2.861   0.190
 1402SOL    HW1 4538   1.462   2.785   0.203
 1402SOL    HW2 4539   1.573   2.879   0.276
 1403SOL     OW 4540   1.187   3.654   1.616
 1403SOL    HW1 4541   1.211   3.714   1.540
 1403SOL    HW2 4542   1.194   3.559   1.586
 1404SOL     OW 4543   0.317   2.113   1.801
 1404SOL    HW1 4544   0.388   2.184   1.807
 1404SOL    HW2 4545   0.229   2.152   1.829
 1405SOL     OW 4546   1.466   3.279   0.953
 1405SOL    HW1 4547   1.407   3.285   1.033
 1405SOL    HW2 4548   1.451   3.191   0.907
 1406SOL     OW 4549   1.667   3.576   0.572
 1406SOL    HW1 4550   1.626   3.553   0.484
 1406SOL    HW2 4551   1.649   3.502   0.637
 1407SOL     OW 4552   0.598   2.591   0.270
 1407SOL    HW1 4553   0.622   2.660   0.202
 1407SOL    HW2 4554   0.520   2.624   0.324
 1408SOL     OW 4555   1.281   2.207   0.944
 1408SOL    HW1 4556   1.195   2.157   0.931
 1408SOL    HW2 4557   1.343   2.153   1.000
 1409SOL     OW 4558   1.576   3.524   0.307
 1409SOL    HW1 4559   1.665   3.570   0.310
 1409SOL    HW2 4560   1.555   3.500   0.212
 1410SOL     OW 4561   0.807   2.467   1.465
 1410SOL    HW1 4562   0.760   2.464   1.554
 1410SOL    HW2 4563   0.756   2.412   1.399
 1411SOL     OW 4564   1.394   2.331   1.674
 1411SOL    HW1 4565   1.374   2.374   1.762
 1411SOL    HW2 4566   1.472   2.269   1.683
 1412SOL     OW 4567   0.973   2.752   1.572
 1412SOL    HW1 4568   1.019   2.668   1.543
 1412SOL    HW2 4569   0.917   2.786   1.497
 1413SOL     OW 4570   0.991   2.272   1.242
 1413SOL    HW1 4571   0.914   2.306   1.296
 1413SOL    HW2 4572   0.957   2.221   1.163
 1414SOL     OW 4573   1.041   2.563   0.429
 1414SOL    HW1 4574   1.067   2.559   0.525
 1414SOL    HW2 4575   0.956   2.512   0.415
 1415SOL     OW 4576   0.076   2.673   0.789
 1415SOL    HW1 4577   0.175   2.661   0.798
 1415SOL    HW2 4578   0.052   2.768   0.810
 1416SOL     OW 4579   0.130   3.683   1.571
 1416SOL    HW1 4580   0.120   3.668   1.670
 1416SOL    HW2 4581   0.044   3.719   1.535
 1417SOL     OW 4582   0.865   2.210   0.195
 1417SOL    HW1 4583   0.924   2.273   0.146
 1417SOL    HW2 4584   0.884   2.116   0.166
 1418SOL     OW 4585   1.719   2.447   1.831
 1418SOL    HW1 4586   1.693   2.536   1.795
 1418SOL    HW2 4587   1.717   2.379   1.758
 1419SOL     OW 4588   1.362   3.006   0.545
 1419SOL    HW1 4589   1.445   2.977   0.497
 1419SOL    HW2 4590   1.313   3.073   0.489
 1420SOL     OW 4591   0.550   2.058   0.885
 1420SOL    HW1 4592   0.545   2.053   0.985
 1420SOL    HW2 4593   0.552   2.154   0.856
 1421SOL     OW 4594   1.008   3.318   0.477
 1421SOL    HW1 4595   0.962   3.390   0.425
 1421SOL    HW2 4596   1.004   3.338   0.575
 1422SOL     OW 4597   0.351   3.663   0.853
 1422SOL    HW1 4598   0.401   3.577   0.859
 1422SOL    HW2 4599   0.416   3.740   0.850
 1423SOL     OW 4600   1.795   2.928   0.873
 1423SOL    HW1 4601   1.733   2.913   0.797
 1423SOL    HW2 4602   1.743   2.939   0.958
 1424SOL     OW 4603   1.227   3.412   1.506
 1424SOL    HW1 4604   1.233   3.335   1.570
 1424SOL    HW2 4605   1.175   3.386   1.426
 1425SOL     OW 4606   0.321   2.805   0.242
 1425SOL    HW1 4607   0.403   2.844   0.200
 1425SOL    HW2 4608   0.294   2.723   0.193
 1426SOL     OW 4609   1.458   2.597   0.728
 1426SOL    HW1 4610   1.453   2.532   0.803
 1426SOL    HW2 4611   1.538   2.656   0.741
 1427SOL     OW 4612   0.461   3.128   1.727
 1427SOL    HW1 4613   0.411   3.129   1.641
 1427SOL    HW2 4614   0.398   3.110   1.803
 1428SOL     OW 4615   1.111   3.638   0.237
 1428SOL    HW1 4616   1.051   3.576   0.287
 1428SOL    HW2 4617   1.142   3.594   0.152
 1429SOL     OW 4618   0.202   2.147   1.498
 1429SOL    HW1 4619   0.122   2.207   1.485
 1429SOL    HW2 4620   0.192   2.098   1.584
 1430SOL     OW 4621   1.632   3.239   0.081
 1430SOL    HW1 4622   1.600   3.333   0.071
 1430SOL    HW2 4623   1.556   3.176   0.069
 1431SOL     OW 4624   0.464   3.605   0.323
 1431SOL    HW1 4625   0.497   3.644   0.409
 1431SOL    HW2 4626   0.540   3.598   0.258
 1432SOL     OW 4627   1.400   1.969   0.426
 1432SOL    HW1 4628   1.376   1.932   0.336
 1432SOL    HW2 4629   1.499   1.985   0.430
 1433SOL     OW 4630   0.249   3.647   1.241
 1433SOL    HW1 4631   0.306   3.582   1.291
 1433SOL    HW2 4632   0.233   3.614   1.148
 1434SOL     OW 4633   0.940   3.560   0.904
 1434SOL    HW1 4634   1.020   3.503   0.925
 1434SOL    HW2 4635   0.891   3.520   0.827
 1435SOL     OW 4636   0.382   2.562   0.480
 1435SOL    HW1 4637   0.427   2.472   0.477
 1435SOL    HW2 4638   0.288   2.551   0.513
 1436SOL     OW 4639   1.547   2.084   1.729
 1436SOL    HW1 4640   1.542   2.121   1.821
 1436SOL    HW2 4641   1.475   2.015   1.717
 1437SOL     OW 4642   0.781   2.126   1.749
 1437SOL    HW1 4643   0.848   2.065   1.792
 1437SOL    HW2 4644   0.708   2.145   1.814
 1438SOL     OW 4645   0.888   3.376   1.195
 1438SOL    HW1 4646   0.865   3.351   1.101
 1438SOL    HW2 4647   0.949   3.307   1.234
 1439SOL     OW 4648   1.351   2.452   1.433
 1439SOL    HW1 4649   1.379   2.409   1.518
 1439SOL    HW2 4650   1.376   2.548   1.434
 1440SOL     OW 4651   0.803   3.264   0.924
 1440SOL    HW1 4652   0.893   3.278   0.882
 1440SOL    HW2 4653   0.732   3.266   0.853
 1441SOL     OW 4654   0.922   2.365   0.899
 1441SOL    HW1 4655   0.897   2.356   0.803
 1441SOL    HW2 4656   0.970   2.283   0.930
 1442SOL     OW 4657   0.539   1.926   0.512
 1442SOL    HW1 4658   0.458   1.927   0.570
 1442SOL    HW2 4659   0.542   2.009   0.457
 1443SOL     OW 4660   1.434   3.050   0.041
 1443SOL    HW1 4661   1.466   2.974   0.098
 1443SOL    HW2 4662   1.342   3.077   0.071
 1444SOL     OW 4663   0.297   1.897   0.171
 1444SOL    HW1 4664   0.346   1.981   0.150
 1444SOL    HW2 4665   0.359   1.832   0.216
 1445SOL     OW 4666   0.935   2.098   0.480
 1445SOL    HW1 4667   0.887   2.139   0.402
 1445SOL    HW2 4668   1.034   2.096   0.461
 1446SOL     OW 4669   1.076   2.545   1.464
 1446SOL    HW1 4670   0.996   2.484   1.467
 1446SOL    HW2 4671   1.157   2.492   1.440
 1447SOL     OW 4672   1.227   3.432   0.793
 1447SOL    HW1 4673   1.248   3.506   0.728
 1447SOL    HW2 4674   1.295   3.432   0.866
 1448SOL     OW 4675   0.459   3.014   0.741
 1448SOL    HW1 4676   0.388   2.987   0.806
 1448SOL    HW2 4677   0.433   2.986   0.648
 1449SOL     OW 4678   1.271   3.659   0.591
 1449SOL    HW1 4679   1.315   3.723   0.527
 1449SOL    HW2 4680   1.221   3.711   0.661
 1450SOL     OW 4681   1.032   2.411   0.016
 1450SOL    HW1 4682   0.991   2.493  -0.023
 1450SOL    HW2 4683   1.096   2.437   0.089
 1451SOL     OW 4684   0.078   2.418   1.386
 1451SOL    HW1 4685   0.170   2.417   1.345
 1451SOL    HW2 4686   0.072   2.492   1.453
 1452SOL     OW 4687   0.561   2.084   1.147
 1452SOL    HW1 4688   0.599   2.000   1.184
 1452SOL    HW2 4689   0.473   2.103   1.191
 1453SOL     OW 4690   0.866   2.316   0.642
 1453SOL    HW1 4691   0.834   2.388   0.580
 1453SOL    HW2 4692   0.890   2.235   0.589
 1454SOL     OW 4693   1.017   1.901   0.753
 1454SOL    HW1 4694   0.945   1.906   0.684
 1454SOL    HW2 4695   0.993   1.832   0.822
 1455SOL     OW 4696   1.429   3.035   0.867
 1455SOL    HW1 4697   1.374   2.951   0.860
 1455SOL    HW2 4698   1.455   3.064   0.775
 1456SOL     OW 4699   1.466   2.452   0.992
 1456SOL    HW1 4700   1.436   2.357   0.999
 1456SOL    HW2 4701   1.539   2.468   1.058
 1457SOL     OW 4702   1.857   2.695   0.377
 1457SOL    HW1 4703   1.899   2.631   0.441
 1457SOL    HW2 4704   1.819   2.644   0.299
 1458SOL     OW 4705   0.488   3.247   0.174
 1458SOL    HW1 4706   0.401   3.232   0.221
 1458SOL    HW2 4707   0.471   3.273   0.079
 1459SOL     OW 4708   1.664   3.142   0.657
 1459SOL    HW1 4709   1.763   3.150   0.671
 1459SOL    HW2 4710   1.619   3.226   0.688
 1460SOL     OW 4711   1.390   2.437   0.078
 1460SOL    HW1 4712   1.336   2.416   0.159
 1460SOL    HW2 4713   1.481   2.396   0.087
 1461SOL     OW 4714   0.527   2.118   0.328
 1461SOL    HW1 4715   0.554   2.059   0.253
 1461SOL    HW2 4716   0.527   2.213   0.297
 1462SOL     OW 4717   1.754   3.085   1.588
 1462SOL    HW1 4718   1.845   3.046   1.575
 1462SOL    HW2 4719   1.762   3.181   1.612
 1463SOL     OW 4720   1.064   3.209   1.340
 1463SOL    HW1 4721   0.984   3.186   1.395
 1463SOL    HW2 4722   1.147   3.183   1.389
 1464SOL     OW 4723   1.592   3.491   1.625
 1464SOL    HW1 4724   1.619   3.525   1.535
 1464SOL    HW2 4725   1.671   3.453   1.671
 1465SOL     OW 4726   1.111   3.057   1.100
 1465SOL    HW1 4727   1.071   3.101   1.181
 1465SOL    HW2 4728   1.070   3.094   1.017
 1466SOL     OW 4729   1.638   2.961   1.079
 1466SOL    HW1 4730   1.643   3.042   1.138
 1466SOL    HW2 4731   1.552   2.963   1.028
 1467SOL     OW 4732   0.915   1.951   1.402
 1467SOL    HW1 4733   0.940   1.931   1.307
 1467SOL    HW2 4734   0.987   2.007   1.444
 1468SOL     OW 4735   0.980   2.978   1.719
 1468SOL    HW1 4736   0.881   2.984   1.729
 1468SOL    HW2 4737   1.003   2.898   1.663
 1469SOL     OW 4738   0.705   2.912   0.368
 1469SOL    HW1 4739   0.691   2.919   0.467
 1469SOL    HW2 4740   0.789   2.861   0.350
 1470SOL     OW 4741   0.410   2.675   1.251
 1470SOL    HW1 4742   0.496   2.687   1.301
 1470SOL    HW2 4743   0.368   2.588   1.278
 1471SOL     OW 4744   1.274   2.248   1.262
 1471SOL    HW1 4745   1.295   2.322   1.326
 1471SOL    HW2 4746   1.185   2.265   1.219
 1472SOL     OW 4747   0.064   3.426   1.331
 1472SOL    HW1 4748   0.018   3.508   1.297
 1472SOL    HW2 4749   0.162   3.445   1.340
 1473SOL     OW 4750   0.367   2.962   0.501
 1473SOL    HW1 4751   0.360   3.045   0.445
 1473SOL    HW2 4752   0.371   2.882   0.441
 1474SOL     OW 4753   0.566   2.399   0.865
 1474SOL    HW1 4754   0.578   2.465   0.791
 1474SOL    HW2 4755   0.612   2.433   0.948
 1475SOL     OW 4756   1.252   3.210   0.388
 1475SOL    HW1 4757   1.302   3.287   0.428
 1475SOL    HW2 4758   1.157   3.212   0.420
 1476SOL     OW 4759   1.272   3.307   1.142
 1476SOL    HW1 4760   1.319   3.320   1.229
 1476SOL    HW2 4761   1.206   3.233   1.151
 1477SOL     OW 4762   1.582   2.501   0.472
 1477SOL    HW1 4763   1.551   2.562   0.545
 1477SOL    HW2 4764   1.632   2.553   0.403
 1478SOL     OW 4765   0.354   3.372   1.329
 1478SOL    HW1 4766   0.333   3.328   1.242
 1478SOL    HW2 4767   0.451   3.398   1.332
 1479SOL     OW 4768   0.402   2.613   1.598
 1479SOL    HW1 4769   0.470   2.668   1.551
 1479SOL    HW2 4770   0.442   2.525   1.625
 1480SOL     OW 4771   1.587   2.641   1.670
 1480SOL    HW1 4772   1.495   2.679   1.665
 1480SOL    HW2 4773   1.647   2.688   1.605
 1481SOL     OW 4774   1.013   1.967   1.770
 1481SOL    HW1 4775   1.019   2.052   1.718
 1481SOL    HW2 4776   1.045   1.891   1.713
 1482SOL     OW 4777   0.504   1.912   1.740
 1482SOL    HW1 4778   0.462   1.855   1.670
 1482SOL    HW2 4779   0.438   1.981   1.772
 1483SOL     OW 4780   0.573   2.732   1.029
 1483SOL    HW1 4781   0.617   2.821   1.020
 1483SOL    HW2 4782   0.510   2.732   1.106
 1484SOL     OW 4783   1.360   2.724   1.045
 1484SOL    HW1 4784   1.285   2.724   0.979
 1484SOL    HW2 4785   1.397   2.632   1.054
 1485SOL     OW 4786   1.209   2.387   0.275
 1485SOL    HW1 4787   1.222   2.303   0.329
 1485SOL    HW2 4788   1.180   2.461   0.335
 1486SOL     OW 4789   0.307   2.075   1.231
 1486SOL    HW1 4790   0.284   2.112   1.321
 1486SOL    HW2 4791   0.277   1.980   1.225
 1487SOL     OW 4792   0.037   3.172   1.282
 1487SOL    HW1 4793   0.090   3.123   1.350
 1487SOL    HW2 4794   0.059   3.270   1.287
 1488SOL     OW 4795   0.732   2.496   1.064
 1488SOL    HW1 4796   0.791   2.470   0.988
 1488SOL    HW2 4797   0.704   2.592   1.053
 1489SOL     OW 4798   1.728   2.797   1.854
 1489SOL    HW1 4799   1.682   2.790   1.765
 1489SOL    HW2 4800   1.666   2.841   1.920
 1490SOL     OW 4801   0.307   1.925   0.618
 1490SOL    HW1 4802   0.296   2.019   0.651
 1490SOL    HW2 4803   0.302   1.862   0.695
 1491SOL     OW 4804   1.622   2.229   0.374
 1491SOL    HW1 4805   1.624   2.153   0.438
 1491SOL    HW2 4806   1.574   2.306   0.414
 1492SOL     OW 4807   1.023   2.628   0.966
 1492SOL    HW1 4808   1.038   2.649   1.062
 1492SOL    HW2 4809   0.993   2.533   0.957
 1493SOL     OW 4810   0.980   3.435   1.700
 1493SOL    HW1 4811   0.960   3.479   1.612
 1493SOL    HW2 4812   1.019   3.344   1.684
 1494SOL     OW 4813   1.859   3.380   1.605
 1494SOL    HW1 4814   1.873   3.407   1.510
 1494SOL    HW2 4815   1.942   3.402   1.658
 1495SOL     OW 4816   0.350   2.760   1.804
 1495SOL    HW1 4817   0.426   2.804   1.852
 1495SOL    HW2 4818   0.385   2.713   1.722
 1496SOL     OW 4819   1.540   2.136   0.125
 1496SOL    HW1 4820   1.479   2.061   0.148
 1496SOL    HW2 4821   1.562   2.188   0.208
 1497SOL     OW 4822   1.303   2.700   0.042
 1497SOL    HW1 4823   1.337   2.607   0.057
 1497SOL    HW2 4824   1.321   2.727  -0.053
 1498SOL     OW 4825   1.068   3.195   0.849
 1498SOL    HW1 4826   1.075   3.111   0.794
 1498SOL    HW2 4827   1.130   3.264   0.813
 1499SOL     OW 4828   0.319   2.672   0.949
 1499SOL    HW1 4829   0.412   2.708   0.954
 1499SOL    HW2 4830   0.313   2.587   1.001
 1500SOL     OW 4831   0.339   2.371   1.006
 1500SOL    HW1 4832   0.287   2.288   0.989
 1500SOL    HW2 4833   0.416   2.376   0.942
 1501SOL     OW 4834   1.138   2.242   1.678
 1501SOL    HW1 4835   1.093   2.305   1.742
 1501SOL    HW2 4836   1.231   2.273   1.661
 1502SOL     OW 4837   1.160   2.069   1.477
 1502SOL    HW1 4838   1.160   2.133   1.554
 1502SOL    HW2 4839   1.188   2.117   1.394
 1503SOL     OW 4840   0.008   3.188   0.200
 1503SOL    HW1 4841  -0.085   3.209   0.169
 1503SOL    HW2 4842   0.018   3.089   0.213
 1504SOL     OW 4843   0.088   3.663   0.927
 1504SOL    HW1 4844   0.046   3.577   0.900
 1504SOL    HW2 4845   0.182   3.666   0.893
 1505SOL     OW 4846   0.504   3.430   0.910
 1505SOL    HW1 4847   0.570   3.504   0.919
 1505SOL    HW2 4848   0.548   3.351   0.868
 1506SOL     OW 4849   1.002   2.658   1.238
 1506SOL    HW1 4850   1.043   2.626   1.324
 1506SOL    HW2 4851   0.906   2.631   1.235
 1507SOL     OW 4852   0.040   2.406   1.114
 1507SOL    HW1 4853   0.125   2.373   1.073
 1507SOL    HW2 4854   0.053   2.421   1.212
 1508SOL     OW 4855   0.189   2.382   1.722
 1508SOL    HW1 4856   0.248   2.342   1.652
 1508SOL    HW2 4857   0.131   2.453   1.681
 1509SOL     OW 4858   1.369   2.812   1.660
 1509SOL    HW1 4859   1.408   2.901   1.680
 1509SOL    HW2 4860   1.379   2.792   1.563
 1510SOL     OW 4861   0.815   2.434   0.325
 1510SOL    HW1 4862   0.822   2.345   0.279
 1510SOL    HW2 4863   0.721   2.468   0.317
 1511SOL     OW 4864   1.657   2.466   1.206
 1511SOL    HW1 4865   1.619   2.397   1.268
 1511SOL    HW2 4866   1.739   2.430   1.162
 1512SOL     OW 4867   0.252   3.426   1.744
 1512SOL    HW1 4868   0.222   3.483   1.820
 1512SOL    HW2 4869   0.245   3.329   1.770
 1513SOL     OW 4870   0.671   2.326   1.269
 1513SOL    HW1 4871   0.637   2.237   1.239
 1513SOL    HW2 4872   0.697   2.380   1.189
 1514SOL     OW 4873   0.930   3.540   1.465
 1514SOL    HW1 4874   0.906   3.522   1.370
 1514SOL    HW2 4875   0.960   3.634   1.475
 1515SOL     OW 4876   0.473   2.362   0.191
 1515SOL    HW1 4877   0.534   2.442   0.195
 1515SOL    HW2 4878   0.378   2.393   0.198
 1516SOL     OW 4879   0.159   2.999   1.466
 1516SOL    HW1 4880   0.181   2.938   1.542
 1516SOL    HW2 4881   0.169   2.950   1.380
 1517SOL     OW 4882   1.347   2.921   1.234
 1517SOL    HW1 4883   1.371   2.858   1.160
 1517SOL    HW2 4884   1.257   2.961   1.216
 1518SOL     OW 4885   1.302   2.717   0.309
 1518SOL    HW1 4886   1.216   2.686   0.351
 1518SOL    HW2 4887   1.298   2.703   0.210
 1519SOL     OW 4888   1.759   3.609   1.154
 1519SOL    HW1 4889   1.820   3.639   1.081
 1519SOL    HW2 4890   1.721   3.520   1.132
 1520SOL     OW 4891   1.252   3.593   1.128
 1520SOL    HW1 4892   1.336   3.598   1.074
 1520SOL    HW2 4893   1.229   3.497   1.146
 1521SOL     OW 4894   0.083   3.120   1.022
 1521SOL    HW1 4895   0.078   3.119   1.122
 1521SOL    HW2 4896   0.000   3.079   0.984
 1522SOL     OW 4897   0.688   3.524   1.716
 1522SOL    HW1 4898   0.632   3.605   1.725
 1522SOL    HW2 4899   0.740   3.528   1.630
 1523SOL     OW 4900   0.903   1.948   0.133
 1523SOL    HW1 4901   0.954   1.949   0.047
 1523SOL    HW2 4902   0.959   1.906   0.204
 1524SOL     OW 4903   1.726   1.997   0.523
 1524SOL    HW1 4904   1.799   1.980   0.456
 1524SOL    HW2 4905   1.695   1.910   0.561
 1525SOL     OW 4906   1.388   3.435   0.477
 1525SOL    HW1 4907   1.455   3.447   0.403
 1525SOL    HW2 4908   1.348   3.524   0.500
 1526SOL     OW 4909   0.130   3.656   1.851
 1526SOL    HW1 4910   0.089   3.582   1.904
 1526SOL    HW2 4911   0.194   3.707   1.909
 1527SOL     OW 4912   1.280   2.789   0.672
 1527SOL    HW1 4913   1.340   2.708   0.674
 1527SOL    HW2 4914   1.320   2.858   0.612
 1528SOL     OW 4915   0.830   3.135   1.422
 1528SOL    HW1 4916   0.825   3.168   1.517
 1528SOL    HW2 4917   0.744   3.154   1.376
 1529SOL     OW 4918   0.672   3.478   0.154
 1529SOL    HW1 4919   0.681   3.488   0.055
 1529SOL    HW2 4920   0.632   3.389   0.175
 1530SOL     OW 4921   1.650   3.582   1.394
 1530SOL    HW1 4922   1.703   3.592   1.310
 1530SOL    HW2 4923   1.623   3.672   1.428
 1531SOL     OW 4924   1.841   2.037   0.963
 1531SOL    HW1 4925   1.880   1.952   0.927
 1531SOL    HW2 4926   1.743   2.039   0.944
 1532SOL     OW 4927   0.263   2.188   0.720
 1532SOL    HW1 4928   0.184   2.239   0.686
 1532SOL    HW2 4929   0.254   2.173   0.818
 1533SOL     OW 4930   1.194   3.474   0.031
 1533SOL    HW1 4931   1.200   3.381   0.068
 1533SOL    HW2 4932   1.135   3.474  -0.049
 1534SOL     OW 4933   0.822   2.864   1.372
 1534SOL    HW1 4934   0.862   2.863   1.280
 1534SOL    HW2 4935   0.832   2.956   1.412
 1535SOL     OW 4936   0.916   2.772   0.291
 1535SOL    HW1 4937   0.979   2.810   0.223
 1535SOL    HW2 4938   0.956   2.689   0.330
 1536SOL     OW 4939   1.504   3.469   0.044
 1536SOL    HW1 4940   1.412   3.506   0.051
 1536SOL    HW2 4941   1.542   3.489  -0.046
 1537SOL     OW 4942   0.372   3.150   1.490
 1537SOL    HW1 4943   0.359   3.243   1.456
 1537SOL    HW2 4944   0.288   3.098   1.477
 1538SOL     OW 4945   1.614   3.154   1.289
 1538SOL    HW1 4946   1.674   3.157   1.369
 1538SOL    HW2 4947   1.539   3.218   1.302
 1539SOL     OW 4948   1.039   2.960   0.696
 1539SOL    HW1 4949   0.969   2.913   0.750
 1539SOL    HW2 4950   1.098   2.892   0.653
 1540SOL     OW 4951   1.014   2.098   0.971
 1540SOL    HW1 4952   1.006   2.062   0.878
 1540SOL    HW2 4953   1.012   2.022   1.036
 1541SOL     OW 4954   0.590   3.349   0.491
 1541SOL    HW1 4955   0.632   3.291   0.421
 1541SOL    HW2 4956   0.546   3.428   0.447
 1542SOL     OW 4957   1.709   2.247   1.381
 1542SOL    HW1 4958   1.782   2.316   1.385
 1542SOL    HW2 4959   1.737   2.172   1.322
 1543SOL     OW 4960   0.255   3.210   0.290
 1543SOL    HW1 4961   0.159   3.211   0.263
 1543SOL    HW2 4962   0.267   3.263   0.374
 1544SOL     OW 4963   0.105   2.875   1.726
 1544SOL    HW1 4964   0.028   2.842   1.780
 1544SOL    HW2 4965   0.190   2.845   1.768
 1545SOL     OW 4966   0.672   2.065   1.489
 1545SOL    HW1 4967   0.762   2.049   1.449
 1545SOL    HW2 4968   0.680   2.070   1.588
 1546SOL     OW 4969   0.075   2.207   0.033
 1546SOL    HW1 4970  -0.017   2.179   0.004
 1546SOL    HW2 4971   0.106   2.284  -0.023
 1547SOL     OW 4972   1.440   2.718   1.398
 1547SOL    HW1 4973   1.383   2.770   1.335
 1547SOL    HW2 4974   1.536   2.730   1.374
 1548SOL     OW 4975   0.072   2.028   0.318
 1548SOL    HW1 4976   0.055   2.111   0.264
 1548SOL    HW2 4977   0.162   1.991   0.296
 1549SOL     OW 4978   1.183   3.197   0.119
 1549SOL    HW1 4979   1.084   3.186   0.121
 1549SOL    HW2 4980   1.217   3.212   0.212
 1550SOL     OW 4981   0.613   2.704   1.431
 1550SOL    HW1 4982   0.669   2.785   1.414
 1550SOL    HW2 4983   0.672   2.624   1.434
 1551SOL     OW 4984   1.493   3.629   0.959
 1551SOL    HW1 4985   1.526   3.693   0.890
 1551SOL    HW2 4986   1.559   3.623   1.034
 1552SOL     OW 4987   0.716   2.427   1.708
 1552SOL    HW1 4988   0.735   2.492   1.782
 1552SOL    HW2 4989   0.776   2.347   1.717
 1553SOL     OW 4990   1.450   3.082   1.633
 1553SOL    HW1 4991   1.441   3.072   1.732
 1553SOL    HW2 4992   1.546   3.075   1.607
 1554SOL     OW 4993   0.390   3.603   1.560
 1554SOL    HW1 4994   0.299   3.644   1.558
 1554SOL    HW2 4995   0.383   3.509   1.592
 1555SOL     OW 4996   1.674   2.745   1.254
 1555SOL    HW1 4997   1.647   2.656   1.217
 1555SOL    HW2 4998   1.675   2.813   1.181
 1556SOL     OW 4999   1.225   2.187   0.449
 1556SOL    HW1 5000   1.290   2.113   0.438
 1556SOL    HW2 5001   1.245   2.237   0.533
 1557SOL     OW 5002   0.594   2.607   0.652
 1557SOL    HW1 5003   0.644   2.692   0.633
 1557SOL    HW2 5004   0.506   2.609   0.604
 1558SOL     OW 5005   1.777   2.204   1.642
 1558SOL    HW1 5006   1.760   2.235   1.548
 1558SOL    HW2 5007   1.693   2.167   1.680
 1559SOL     OW 5008   1.730   2.796   1.517
 1559SOL    HW1 5009   1.768   2.887   1.532
 1559SOL    HW2 5010   1.722   2.779   1.418
 1560SOL     OW 5011   0.859   3.236   0.016
 1560SOL    HW1 5012   0.813   3.251   0.104
 1560SOL    HW2 5013   0.903   3.321  -0.014
 1561SOL     OW 5014   0.661   3.652   0.953
 1561SOL    HW1 5015   0.615   3.740   0.940
 1561SOL    HW2 5016   0.760   3.664   0.946
 1562SOL     OW 5017   0.859   2.818   0.861
 1562SOL    HW1 5018   0.913   2.749   0.909
 1562SOL    HW2 5019   0.827   2.887   0.927
 1563SOL     OW 5020   1.083   2.846   0.087
 1563SOL    HW1 5021   1.060   2.899   0.005
 1563SOL    HW2 5022   1.164   2.790   0.068
 1564SOL     OW 5023   1.861   3.431   0.851
 1564SOL    HW1 5024   1.790   3.419   0.781
 1564SOL    HW2 5025   1.862   3.352   0.911
 1565SOL     OW 5026   0.221   3.176   1.844
 1565SOL    HW1 5027   0.156   3.103   1.823
 1565SOL    HW2 5028   0.225   3.190   1.942
 1566SOL     OW 5029   0.079   3.102   0.653
 1566SOL    HW1 5030   0.078   3.055   0.741
 1566SOL    HW2 5031   0.161   3.074   0.602
 1567SOL     OW 5032   0.672   3.253   1.624
 1567SOL    HW1 5033   0.594   3.203   1.662
 1567SOL    HW2 5034   0.669   3.348   1.655
 1568SOL     OW 5035   1.824   2.054   1.227
 1568SOL    HW1 5036   1.820   1.964   1.271
 1568SOL    HW2 5037   1.827   2.043   1.128
 1569SOL     OW 5038   0.428   2.286   0.520
 1569SOL    HW1 5039   0.458   2.214   0.458
 1569SOL    HW2 5040   0.389   2.246   0.603
 1570SOL     OW 5041   1.705   3.349   1.104
 1570SOL    HW1 5042   1.612   3.324   1.077
 1570SOL    HW2 5043   1.731   3.299   1.186
 1571SOL     OW 5044   0.317   2.409   1.280
 1571SOL    HW1 5045   0.355   2.350   1.352
 1571SOL    HW2 5046   0.357   2.383   1.192
 1572SOL     OW 5047   0.812   3.448   0.687
 1572SOL    HW1 5048   0.844   3.458   0.593
 1572SOL    HW2 5049   0.733   3.386   0.689
 1573SOL     OW 5050   1.424   2.076   1.112
 1573SOL    HW1 5051   1.476   2.011   1.167
 1573SOL    HW2 5052   1.375   2.139   1.173
 1574SOL     OW 5053   1.001   1.896   1.154
 1574SOL    HW1 5054   0.938   1.824   1.123
 1574SOL    HW2 5055   1.094   1.860   1.154
 1575SOL     OW 5056   0.770   3.192   0.301
 1575SOL    HW1 5057   0.724   3.105   0.318
 1575SOL    HW2 5058   0.861   3.189   0.342
 1576SOL     OW 5059   0.618   3.429   1.284
 1576SOL    HW1 5060   0.613   3.511   1.341
 1576SOL    HW2 5061   0.707   3.426   1.239
 1577SOL     OW 5062   1.352   1.914   0.168
 1577SOL    HW1 5063   1.387   1.873   0.084
 1577SOL    HW2 5064   1.262   1.876   0.188
 1578SOL     OW 5065   1.300   2.315   0.691
 1578SOL    HW1 5066   1.241   2.395   0.695
 1578SOL    HW2 5067   1.315   2.280   0.784
 1579SOL     OW 5068   1.593   2.083   0.882
 1579SOL    HW1 5069   1.509   2.082   0.936
 1579SOL    HW2 5070   1.595   2.166   0.826
 1580SOL     OW 5071   0.039   2.939   0.300
 1580SOL    HW1 5072   0.138   2.928   0.291
 1580SOL    HW2 5073  -0.001   2.853   0.332
 1581SOL     OW 5074   0.875   3.508   0.337
 1581SOL    HW1 5075   0.798   3.473   0.283
 1581SOL    HW2 5076   0.843   3.579   0.399
 1582SOL     OW 5077   0.230   2.490   1.975
 1582SOL    HW1 5078   0.137   2.488   2.012
 1582SOL    HW2 5079   0.231   2.451   1.883
 1583SOL     OW 5080   0.225   2.137   2.858
 1583SOL    HW1 5081   0.260   2.120   2.950
 1583SOL    HW2 5082   0.137   2.092   2.846
 1584SOL     OW 5083   0.019   2.230   2.509
 1584SOL    HW1 5084  -0.063   2.273   2.548
 1584SOL    HW2 5085  -0.009   2.157   2.446
 1585SOL     OW 5086   0.569   3.137   3.027
 1585SOL    HW1 5087   0.476   3.130   2.990
 1585SOL    HW2 5088   0.580   3.226   3.071
 1586SOL     OW 5089   1.555   3.373   2.565
 1586SOL    HW1 5090   1.498   3.357   2.646
 1586SOL    HW2 5091   1.496   3.383   2.485
 1587SOL     OW 5092   1.135   2.565   2.579
 1587SOL    HW1 5093   1.192   2.643   2.554
 1587SOL    HW2 5094   1.075   2.591   2.655
 1588SOL     OW 5095   1.755   2.469   2.093
 1588SOL    HW1 5096   1.743   2.456   1.994
 1588SOL    HW2 5097   1.725   2.388   2.142
 1589SOL     OW 5098   0.768   3.006   2.885
 1589SOL    HW1 5099   0.690   3.023   2.945
 1589SOL    HW2 5100   0.802   3.093   2.849
 1590SOL     OW 5101   0.850   2.660   3.685
 1590SOL    HW1 5102   0.846   2.736   3.750
 1590SOL    HW2 5103   0.872   2.696   3.594
 1591SOL     OW 5104   0.685   2.874   2.527
 1591SOL    HW1 5105   0.754   2.858   2.597
 1591SOL    HW2 5106   0.612   2.931   2.565
 1592SOL     OW 5107   0.686   3.023   3.665
 1592SOL    HW1 5108   0.746   3.102   3.679
 1592SOL    HW2 5109   0.600   3.054   3.624
 1593SOL     OW 5110   0.335   3.297   2.923
 1593SOL    HW1 5111   0.257   3.266   2.870
 1593SOL    HW2 5112   0.393   3.355   2.866
 1594SOL     OW 5113   1.460   3.367   3.201
 1594SOL    HW1 5114   1.484   3.461   3.227
 1594SOL    HW2 5115   1.444   3.313   3.283
 1595SOL     OW 5116   0.438   2.254   3.361
 1595SOL    HW1 5117   0.520   2.198   3.370
 1595SOL    HW2 5118   0.357   2.196   3.365
 1596SOL     OW 5119   1.603   2.309   2.599
 1596SOL    HW1 5120   1.529   2.355   2.549
 1596SOL    HW2 5121   1.654   2.377   2.652
 1597SOL     OW 5122   0.231   3.575   2.345
 1597SOL    HW1 5123   0.265   3.652   2.399
 1597SOL    HW2 5124   0.275   3.575   2.255
 1598SOL     OW 5125   1.127   3.203   3.552
 1598SOL    HW1 5126   1.174   3.203   3.640
 1598SOL    HW2 5127   1.079   3.116   3.541
 1599SOL     OW 5128   0.230   3.296   2.400
 1599SOL    HW1 5129   0.204   3.392   2.400
 1599SOL    HW2 5130   0.159   3.242   2.445
 1600SOL     OW 5131   0.240   2.953   2.748
 1600SOL    HW1 5132   0.254   2.869   2.800
 1600SOL    HW2 5133   0.185   3.017   2.803
 1601SOL     OW 5134   0.620   3.648   3.301
 1601SOL    HW1 5135   0.528   3.631   3.336
 1601SOL    HW2 5136   0.648   3.740   3.327
 1602SOL     OW 5137   0.606   2.826   1.985
 1602SOL    HW1 5138   0.613   2.910   1.931
 1602SOL    HW2 5139   0.652   2.839   2.073
 1603SOL     OW 5140   1.594   1.976   3.342
 1603SOL    HW1 5141   1.576   2.043   3.270
 1603SOL    HW2 5142   1.591   2.022   3.431
 1604SOL     OW 5143   0.122   2.505   2.425
 1604SOL    HW1 5144   0.077   2.417   2.442
 1604SOL    HW2 5145   0.121   2.559   2.509
 1605SOL     OW 5146   1.842   3.629   2.221
 1605SOL    HW1 5147   1.896   3.600   2.301
 1605SOL    HW2 5148   1.872   3.719   2.192
 1606SOL     OW 5149   0.027   3.458   1.979
 1606SOL    HW1 5150   0.008   3.362   2.000
 1606SOL    HW2 5151  -0.006   3.516   2.054
 1607SOL     OW 5152   1.689   2.784   2.474
 1607SOL    HW1 5153   1.784   2.755   2.482
 1607SOL    HW2 5154   1.681   2.849   2.399
 1608SOL     OW 5155   1.641   2.970   2.294
 1608SOL    HW1 5156   1.727   2.972   2.242
 1608SOL    HW2 5157   1.655   3.017   2.382
 1609SOL     OW 5158   0.113   2.599   3.459
 1609SOL    HW1 5159   0.201   2.586   3.504
 1609SOL    HW2 5160   0.100   2.696   3.437
 1610SOL     OW 5161   0.613   3.227   2.588
 1610SOL    HW1 5162   0.564   3.140   2.597
 1610SOL    HW2 5163   0.590   3.270   2.501
 1611SOL     OW 5164   1.293   3.090   3.285
 1611SOL    HW1 5165   1.330   3.017   3.227
 1611SOL    HW2 5166   1.345   3.095   3.370
 1612SOL     OW 5167   0.809   1.866   2.364
 1612SOL    HW1 5168   0.849   1.957   2.355
 1612SOL    HW2 5169   0.709   1.874   2.370
 1613SOL     OW 5170   0.197   2.838   3.126
 1613SOL    HW1 5171   0.286   2.793   3.112
 1613SOL    HW2 5172   0.124   2.773   3.107
 1614SOL     OW 5173   1.525   2.861   2.052
 1614SOL    HW1 5174   1.462   2.785   2.065
 1614SOL    HW2 5175   1.573   2.879   2.138
 1615SOL     OW 5176   1.187   3.654   3.478
 1615SOL    HW1 5177   1.211   3.714   3.402
 1615SOL    HW2 5178   1.194   3.559   3.448
 1616SOL     OW 5179   0.317   2.113   3.663
 1616SOL    HW1 5180   0.388   2.184   3.669
 1616SOL    HW2 5181   0.229   2.152   3.691
 1617SOL     OW 5182   1.466   3.279   2.815
 1617SOL    HW1 5183   1.407   3.285   2.895
 1617SOL    HW2 5184   1.451   3.191   2.769
 1618SOL     OW 5185   1.667   3.576   2.434
 1618SOL    HW1 5186   1.626   3.553   2.346
 1618SOL    HW2 5187   1.649   3.502   2.499
 1619SOL     OW 5188   0.598   2.591   2.132
 1619SOL    HW1 5189   0.622   2.660   2.064
 1619SOL    HW2 5190   0.520   2.624   2.186
 1620SOL     OW 5191   1.281   2.207   2.806
 1620SOL    HW1 5192   1.195   2.157   2.793
 1620SOL    HW2 5193   1.343   2.153   2.862
 1621SOL     OW 5194   1.576   3.524   2.169
 1621SOL    HW1 5195   1.665   3.570   2.172
 1621SOL    HW2 5196   1.555   3.500   2.074
 1622SOL     OW 5197   0.807   2.467   3.327
 1622SOL    HW1 5198   0.760   2.464   3.416
 1622SOL    HW2 5199   0.756   2.412   3.261
 1623SOL     OW 5200   1.394   2.331   3.536
 1623SOL    HW1 5201   1.374   2.374   3.624
 1623SOL    HW2 5202   1.472   2.269   3.545
 1624SOL     OW 5203   0.973   2.752   3.434
 1624SOL    HW1 5204   1.019   2.668   3.405
 1624SOL    HW2 5205   0.917   2.786   3.359
 1625SOL     OW 5206   0.991   2.272   3.104
 1625SOL    HW1 5207   0.914   2.306   3.158
 1625SOL    HW2 5208   0.957   2.221   3.025
 1626SOL     OW 5209   1.041   2.563   2.291
 1626SOL    HW1 5210   1.067   2.559   2.387
 1626SOL    HW2 5211   0.956   2.512   2.277
 1627SOL     OW 5212   0.076   2.673   2.651
 1627SOL    HW1 5213   0.175   2.661   2.660
 1627SOL    HW2 5214   0.052   2.768   2.672
 1628SOL     OW 5215   0.130   3.683   3.433
 1628SOL    HW1 5216   0.120   3.668   3.532
 1628SOL    HW2 5217   0.044   3.719   3.397
 1629SOL     OW 5218   0.865   2.210   2.057
 1629SOL    HW1 5219   0.924   2.273   2.008
 1629SOL    HW2 5220   0.884   2.116   2.028
 1630SOL     OW 5221   1.719   2.447   3.693
 1630SOL    HW1 5222   1.693   2.536   3.657
 1630SOL    HW2 5223   1.717   2.379   3.620
 1631SOL     OW 5224   1.362   3.006   2.407
 1631SOL    HW1 5225   1.445   2.977   2.359
 1631SOL    HW2 5226   1.313   3.073   2.351
 1632SOL     OW 5227   0.550   2.058   2.747
 1632SOL    HW1 5228   0.545   2.053   2.847
 1632SOL    HW2 5229   0.552   2.154   2.718
 1633SOL     OW 5230   1.008   3.318   2.339
 1633SOL    HW1 5231   0.962   3.390   2.287
 1633SOL    HW2 5232   1.004   3.338   2.437
 1634SOL     OW 5233   0.351   3.663   2.715
 1634SOL    HW1 5234   0.401   3.577   2.721
 1634SOL    HW2 5235   0.416   3.740   2.712
 1635SOL     OW 5236   1.795   2.928   2.735
 1635SOL    HW1 5237   1.733   2.913   2.659
 1635SOL    HW2 5238   1.743   2.939   2.820
 1636SOL     OW 5239   1.227   3.412   3.368
 1636SOL    HW1 5240   1.233   3.335   3.432
 1636SOL    HW2 5241   1.175   3.386   3.288
 1637SOL     OW 5242   0.321   2.805   2.104
 1637SOL    HW1 5243   0.403   2.844   2.062
 1637SOL    HW2 5244   0.294   2.723   2.055
 1638SOL     OW 5245   1.458   2.597   2.590
 1638SOL    HW1 5246   1.453   2.532   2.665
 1638SOL    HW2 5247   1.538   2.656   2.603
 1639SOL     OW 5248   0.461   3.128   3.589
 1639SOL    HW1 5249   0.411   3.129   3.503
 1639SOL    HW2 5250   0.398   3.110   3.665
 1640SOL     OW 5251   1.111   3.638   2.099
 1640SOL    HW1 5252   1.051   3.576   2.149
 1640SOL    HW2 5253   1.142   3.594   2.014
 1641SOL     OW 5254   0.202   2.147   3.360
 1641SOL    HW1 5255   0.122   2.207   3.347
 1641SOL    HW2 5256   0.192   2.098   3.446
 1642SOL     OW 5257   1.632   3.239   1.943
 1642SOL    HW1 5258   1.600   3.333   1.933
 1642SOL    HW2 5259   1.556   3.176   1.931
 1643SOL     OW 5260   0.464   3.605   2.185
 1643SOL    HW1 5261   0.497   3.644   2.271
 1643SOL    HW2 5262   0.540   3.598   2.120
 1644SOL     OW 5263   1.400   1.969   2.288
 1644SOL    HW1 5264   1.376   1.932   2.198
 1644SOL    HW2 5265   1.499   1.985   2.292
 1645SOL     OW 5266   0.249   3.647   3.103
 1645SOL    HW1 5267   0.306   3.582   3.153
 1645SOL    HW2 5268   0.233   3.614   3.010
 1646SOL     OW 5269   0.940   3.560   2.766
 1646SOL    HW1 5270   1.020   3.503   2.787
 1646SOL    HW2 5271   0.891   3.520   2.689
 1647SOL     OW 5272   0.382   2.562   2.342
 1647SOL    HW1 5273   0.427   2.472   2.339
 1647SOL    HW2 5274   0.288   2.551   2.375
 1648SOL     OW 5275   1.547   2.084   3.591
 1648SOL    HW1 5276   1.542   2.121   3.683
 1648SOL    HW2 5277   1.475   2.015   3.579
 1649SOL     OW 5278   0.614   1.984   1.979
 1649SOL    HW1 5279   0.712   1.962   1.986
 1649SOL    HW2 5280   0.583   1.967   1.886
 1650SOL     OW 5281   0.781   2.126   3.611
 1650SOL    HW1 5282   0.848   2.065   3.654
 1650SOL    HW2 5283   0.708   2.145   3.676
 1651SOL     OW 5284   0.888   3.376   3.057
 1651SOL    HW1 5285   0.865   3.351   2.963
 1651SOL    HW2 5286   0.949   3.307   3.096
 1652SOL     OW 5287   1.351   2.452   3.295
 1652SOL    HW1 5288   1.379   2.409   3.380
 1652SOL    HW2 5289   1.376   2.548   3.296
 1653SOL     OW 5290   0.803   3.264   2.786
 1653SOL    HW1 5291   0.893   3.278   2.744
 1653SOL    HW2 5292   0.732   3.266   2.715
 1654SOL     OW 5293   0.922   2.365   2.761
 1654SOL    HW1 5294   0.897   2.356   2.665
 1654SOL    HW2 5295   0.970   2.283   2.792
 1655SOL     OW 5296   0.539   1.926   2.374
 1655SOL    HW1 5297   0.458   1.927   2.432
 1655SOL    HW2 5298   0.542   2.009   2.319
 1656SOL     OW 5299   1.434   3.050   1.903
 1656SOL    HW1 5300   1.466   2.974   1.960
 1656SOL    HW2 5301   1.342   3.077   1.933
 1657SOL     OW 5302   0.297   1.897   2.033
 1657SOL    HW1 5303   0.346   1.981   2.012
 1657SOL    HW2 5304   0.359   1.832   2.078
 1658SOL     OW 5305   0.935   2.098   2.342
 1658SOL    HW1 5306   0.887   2.139   2.264
 1658SOL    HW2 5307   1.034   2.096   2.323
 1659SOL     OW 5308   1.076   2.545   3.326
 1659SOL    HW1 5309   0.996   2.484   3.329
 1659SOL    HW2 5310   1.157   2.492   3.302
 1660SOL     OW 5311   1.227   3.432   2.655
 1660SOL    HW1 5312   1.248   3.506   2.590
 1660SOL    HW2 5313   1.295   3.432   2.728
 1661SOL     OW 5314   0.459   3.014   2.603
 1661SOL    HW1 5315   0.388   2.987   2.668
 1661SOL    HW2 5316   0.433   2.986   2.510
 1662SOL     OW 5317   1.271   3.659   2.453
 1662SOL    HW1 5318   1.315   3.723   2.389
 1662SOL    HW2 5319   1.221   3.711   2.523
 1663SOL     OW 5320   1.032   2.411   1.878
 1663SOL    HW1 5321   0.991   2.493   1.839
 1663SOL    HW2 5322   1.096   2.437   1.951
 1664SOL     OW 5323   0.078   2.418   3.248
 1664SOL    HW1 5324   0.170   2.417   3.207
 1664SOL    HW2 5325   0.072   2.492   3.315
 1665SOL     OW 5326   0.561   2.084   3.009
 1665SOL    HW1 5327   0.599   2.000   3.046
 1665SOL    HW2 5328   0.473   2.103   3.053
 1666SOL     OW 5329   0.866   2.316   2.504
 1666SOL    HW1 5330   0.834   2.388   2.442
 1666SOL    HW2 5331   0.890   2.235   2.451
 1667SOL     OW 5332   1.017   1.901   2.615
 1667SOL    HW1 5333   0.945   1.906   2.546
 1667SOL    HW2 5334   0.993   1.832   2.684
 1668SOL     OW 5335   1.429   3.035   2.729
 1668SOL    HW1 5336   1.374   2.951   2.722
 1668SOL    HW2 5337   1.455   3.064   2.637
 1669SOL     OW 5338   1.466   2.452   2.854
 1669SOL    HW1 5339   1.436   2.357   2.861
 1669SOL    HW2 5340   1.539   2.468   2.920
 1670SOL     OW 5341   1.857   2.695   2.239
 1670SOL    HW1 5342   1.899   2.631   2.303
 1670SOL    HW2 5343   1.819   2.644   2.161
 1671SOL     OW 5344   0.488   3.247   2.036
 1671SOL    HW1 5345   0.401   3.232   2.083
 1671SOL    HW2 5346   0.471   3.273   1.941
 1672SOL     OW 5347   1.664   3.142   2.519
 1672SOL    HW1 5348   1.763   3.150   2.533
 1672SOL    HW2 5349   1.619   3.226   2.550
 1673SOL     OW 5350   1.390   2.437   1.940
 1673SOL    HW1 5351   1.336   2.416   2.021
 1673SOL    HW2 5352   1.481   2.396   1.949
 1674SOL     OW 5353   0.527   2.118   2.190
 1674SOL    HW1 5354   0.554   2.059   2.115
 1674SOL    HW2 5355   0.527   2.213   2.159
 1675SOL     OW 5356   1.754   3.085   3.450
 1675SOL    HW1 5357   1.845   3.046   3.437
 1675SOL    HW2 5358   1.762   3.181   3.474
 1676SOL     OW 5359   1.064   3.209   3.202
 1676SOL    HW1 5360   0.984   3.186   3.257
 1676SOL    HW2 5361   1.147   3.183   3.251
 1677SOL     OW 5362   1.592   3.491   3.487
 1677SOL    HW1 5363   1.619   3.525   3.397
 1677SOL    HW2 5364   1.671   3.453   3.533
 1678SOL     OW 5365   1.111   3.057   2.962
 1678SOL    HW1 5366   1.071   3.101   3.043
 1678SOL    HW2 5367   1.070   3.094   2.879
 1679SOL     OW 5368   1.638   2.961   2.941
 1679SOL    HW1 5369   1.643   3.042   3.000
 1679SOL    HW2 5370   1.552   2.963   2.890
 1680SOL     OW 5371   0.915   1.951   3.264
 1680SOL    HW1 5372   0.940   1.931   3.169
 1680SOL    HW2 5373   0.987   2.007   3.306
 1681SOL     OW 5374   0.980   2.978   3.581
 1681SOL    HW1 5375   0.881   2.984   3.591
 1681SOL    HW2 5376   1.003   2.898   3.525
 1682SOL     OW 5377   0.705   2.912   2.230
 1682SOL    HW1 5378   0.691   2.919   2.329
 1682SOL    HW2 5379   0.789   2.861   2.212
 1683SOL     OW 5380   0.410   2.675   3.113
 1683SOL    HW1 5381   0.496   2.687   3.163
 1683SOL    HW2 5382   0.368   2.588   3.140
 1684SOL     OW 5383   1.274   2.248   3.124
 1684SOL    HW1 5384   1.295   2.322   3.188
 1684SOL    HW2 5385   1.185   2.265   3.081
 1685SOL     OW 5386   0.064   3.426   3.193
 1685SOL    HW1 5387   0.018   3.508   3.159
 1685SOL    HW2 5388   0.162   3.445   3.202
 1686SOL     OW 5389   0.367   2.962   2.363
 1686SOL    HW1 5390   0.360   3.045   2.307
 1686SOL    HW2 5391   0.371   2.882   2.303
 1687SOL     OW 5392   0.566   2.399   2.727
 1687SOL    HW1 5393   0.578   2.465   2.653
 1687SOL    HW2 5394   0.612   2.433   2.810
 1688SOL     OW 5395   1.252   3.210   2.250
 1688SOL    HW1 5396   1.302   3.287   2.290
 1688SOL    HW2 5397   1.157   3.212   2.282
 1689SOL     OW 5398   1.272   3.307   3.004
 1689SOL    HW1 5399   1.319   3.320   3.091
 1689SOL    HW2 5400   1.206   3.233   3.013
 1690SOL     OW 5401   1.582   2.501   2.334
 1690SOL    HW1 5402   1.551   2.562   2.407
 1690SOL    HW2 5403   1.632   2.553   2.265
 1691SOL     OW 5404   0.354   3.372   3.191
 1691SOL    HW1 5405   0.333   3.328   3.104
 1691SOL    HW2 5406   0.451   3.398   3.194
 1692SOL     OW 5407   0.402   2.613   3.460
 1692SOL    HW1 5408   0.470   2.668   3.413
 1692SOL    HW2 5409   0.442   2.525   3.487
 1693SOL     OW 5410   1.587   2.641   3.532
 1693SOL    HW1 5411   1.495   2.679   3.527
 1693SOL    HW2 5412   1.647   2.688   3.467
 1694SOL     OW 5413   1.013   1.967   3.632
 1694SOL    HW1 5414   1.019   2.052   3.580
 1694SOL    HW2 5415   1.045   1.891   3.575
 1695SOL     OW 5416   0.504   1.912   3.602
 1695SOL    HW1 5417   0.462   1.855   3.532
 1695SOL    HW2 5418   0.438   1.981   3.634
 1696SOL     OW 5419   0.573   2.732   2.891
 1696SOL    HW1 5420   0.617   2.821   2.882
 1696SOL    HW2 5421   0.510   2.732   2.968
 1697SOL     OW 5422   1.360   2.724   2.907
 1697SOL    HW1 5423   1.285   2.724   2.841
 1697SOL    HW2 5424   1.397   2.632   2.916
 1698SOL     OW 5425   1.209   2.387   2.137
 1698SOL    HW1 5426   1.222   2.303   2.191
 1698SOL    HW2 5427   1.180   2.461   2.197
 1699SOL     OW 5428   0.307   2.075   3.093
 1699SOL    HW1 5429   0.284   2.112   3.183
 1699SOL    HW2 5430   0.277   1.980   3.087
 1700SOL     OW 5431   0.037   3.172   3.144
 1700SOL    HW1 5432   0.090   3.123   3.212
 1700SOL    HW2 5433   0.059   3.270   3.149
 1701SOL     OW 5434   0.732   2.496   2.926
 1701SOL    HW1 5435   0.791   2.470   2.850
 1701SOL    HW2 5436   0.704   2.592   2.915
 1702SOL     OW 5437   1.728   2.797   3.716
 1702SOL    HW1 5438   1.682   2.790   3.627
 1702SOL    HW2 5439   1.666   2.841   3.782
 1703SOL     OW 5440   0.307   1.925   2.480
 1703SOL    HW1 5441   0.296   2.019   2.513
 1703SOL    HW2 5442   0.302   1.862   2.557
 1704SOL     OW 5443   1.622   2.229   2.236
 1704SOL    HW1 5444   1.624   2.153   2.300
 1704SOL    HW2 5445   1.574   2.306   2.276
 1705SOL     OW 5446   1.023   2.628   2.828
 1705SOL    HW1 5447   1.038   2.649   2.924
 1705SOL    HW2 5448   0.993   2.533   2.819
 1706SOL     OW 5449   0.980   3.435   3.562
 1706SOL    HW1 5450   0.960   3.479   3.474
 1706SOL    HW2 5451   1.019   3.344   3.546
 1707SOL     OW 5452   1.859   3.380   3.467
 1707SOL    HW1 5453   1.873   3.407   3.372
 1707SOL    HW2 5454   1.942   3.402   3.520
 1708SOL     OW 5455   0.350   2.760   3.666
 1708SOL    HW1 5456   0.426   2.804   3.714
 1708SOL    HW2 5457   0.385   2.713   3.584
 1709SOL     OW 5458   1.540   2.136   1.987
 1709SOL    HW1 5459   1.479   2.061   2.010
 1709SOL    HW2 5460   1.562   2.188   2.070
 1710SOL     OW 5461   1.303   2.700   1.904
 1710SOL    HW1 5462   1.337   2.607   1.919
 1710SOL    HW2 5463   1.321   2.727   1.809
 1711SOL     OW 5464   1.068   3.195   2.711
 1711SOL    HW1 5465   1.075   3.111   2.656
 1711SOL    HW2 5466   1.130   3.264   2.675
 1712SOL     OW 5467   0.319   2.672   2.811
 1712SOL    HW1 5468   0.412   2.708   2.816
 1712SOL    HW2 5469   0.313   2.587   2.863
 1713SOL     OW 5470   0.339   2.371   2.868
 1713SOL    HW1 5471   0.287   2.288   2.851
 1713SOL    HW2 5472   0.416   2.376   2.804
 1714SOL     OW 5473   1.138   2.242   3.540
 1714SOL    HW1 5474   1.093   2.305   3.604
 1714SOL    HW2 5475   1.231   2.273   3.523
 1715SOL     OW 5476   1.160   2.069   3.339
 1715SOL    HW1 5477   1.160   2.133   3.416
 1715SOL    HW2 5478   1.188   2.117   3.256
 1716SOL     OW 5479   0.008   3.188   2.062
 1716SOL    HW1 5480  -0.085   3.209   2.031
 1716SOL    HW2 5481   0.018   3.089   2.075
 1717SOL     OW 5482   0.088   3.663   2.789
 1717SOL    HW1 5483   0.046   3.577   2.762
 1717SOL    HW2 5484   0.182   3.666   2.755
 1718SOL     OW 5485   0.504   3.430   2.772
 1718SOL    HW1 5486   0.570   3.504   2.781
 1718SOL    HW2 5487   0.548   3.351   2.730
 1719SOL     OW 5488   1.002   2.658   3.100
 1719SOL    HW1 5489   1.043   2.626   3.186
 1719SOL    HW2 5490   0.906   2.631   3.097
 1720SOL     OW 5491   0.040   2.406   2.976
 1720SOL    HW1 5492   0.125   2.373   2.935
 1720SOL    HW2 5493   0.053   2.421   3.074
 1721SOL     OW 5494   0.189   2.382   3.584
 1721SOL    HW1 5495   0.248   2.342   3.514
 1721SOL    HW2 5496   0.131   2.453   3.543
 1722SOL     OW 5497   1.369   2.812   3.522
 1722SOL    HW1 5498   1.408   2.901   3.542
 1722SOL    HW2 5499   1.379   2.792   3.425
 1723SOL     OW 5500   0.815   2.434   2.187
 1723SOL    HW1 5501   0.822   2.345   2.141
 1723SOL    HW2 5502   0.721   2.468   2.179
 1724SOL     OW 5503   1.657   2.466   3.068
 1724SOL    HW1 5504   1.619   2.397   3.130
 1724SOL    HW2 5505   1.739   2.430   3.024
 1725SOL     OW 5506   0.252   3.426   3.606
 1725SOL    HW1 5507   0.222   3.483   3.682
 1725SOL    HW2 5508   0.245   3.329   3.632
 1726SOL     OW 5509   0.671   2.326   3.131
 1726SOL    HW1 5510   0.637   2.237   3.101
 1726SOL    HW2 5511   0.697   2.380   3.051
 1727SOL     OW 5512   0.930   3.540   3.327
 1727SOL    HW1 5513   0.906   3.522   3.232
 1727SOL    HW2 5514   0.960   3.634   3.337
 1728SOL     OW 5515   0.473   2.362   2.053
 1728SOL    HW1 5516   0.534   2.442   2.057
 1728SOL    HW2 5517   0.378   2.393   2.060
 1729SOL     OW 5518   0.159   2.999   3.328
 1729SOL    HW1 5519   0.181   2.938   3.404
 1729SOL    HW2 5520   0.169   2.950   3.242
 1730SOL     OW 5521   1.347   2.921   3.096
 1730SOL    HW1 5522   1.371   2.858   3.022
 1730SOL    HW2 5523   1.257   2.961   3.078
 1731SOL     OW 5524   1.302   2.717   2.171
 1731SOL    HW1 5525   1.216   2.686   2.213
 1731SOL    HW2 5526   1.298   2.703   2.072
 1732SOL     OW 5527   1.759   3.609   3.016
 1732SOL    HW1 5528   1.820   3.639   2.943
 1732SOL    HW2 5529   1.721   3.520   2.994
 1733SOL     OW 5530   1.252   3.593   2.990
 1733SOL    HW1 5531   1.336   3.598   2.936
 1733SOL    HW2 5532   1.229   3.497   3.008
 1734SOL     OW 5533   0.083   3.120   2.884
 1734SOL    HW1 5534   0.078   3.119   2.984
 1734SOL    HW2 5535   0.000   3.079   2.846
 1735SOL     OW 5536   0.688   3.524   3.578
 1735SOL    HW1 5537   0.632   3.605   3.587
 1735SOL    HW2 5538   0.740   3.528   3.492
 1736SOL     OW 5539   1.726   1.997   2.385
 1736SOL    HW1 5540   1.799   1.980   2.318
 1736SOL    HW2 5541   1.695   1.910   2.423
 1737SOL     OW 5542   1.388   3.435   2.339
 1737SOL    HW1 5543   1.455   3.447   2.265
 1737SOL    HW2 5544   1.348   3.524   2.362
 1738SOL     OW 5545   0.130   3.656   3.713
 1738SOL    HW1 5546   0.089   3.582   3.766
 1738SOL    HW2 5547   0.194   3.707   3.771
 1739SOL     OW 5548   1.280   2.789   2.534
 1739SOL    HW1 5549   1.340   2.708   2.536
 1739SOL    HW2 5550   1.320   2.858   2.474
 1740SOL     OW 5551   0.830   3.135   3.284
 1740SOL    HW1 5552   0.825   3.168   3.379
 1740SOL    HW2 5553   0.744   3.154   3.238
 1741SOL     OW 5554   0.672   3.478   2.016
 1741SOL    HW1 5555   0.681   3.488   1.917
 1741SOL    HW2 5556   0.632   3.389   2.037
 1742SOL     OW 5557   1.650   3.582   3.256
 1742SOL    HW1 5558   1.703   3.592   3.172
 1742SOL    HW2 5559   1.623   3.672   3.290
 1743SOL     OW 5560   1.841   2.037   2.825
 1743SOL    HW1 5561   1.880   1.952   2.789
 1743SOL    HW2 5562   1.743   2.039   2.806
 1744SOL     OW 5563   0.263   2.188   2.582
 1744SOL    HW1 5564   0.184   2.239   2.548
 1744SOL    HW2 5565   0.254   2.173   2.680
 1745SOL     OW 5566   1.194   3.474   1.893
 1745SOL    HW1 5567   1.200   3.381   1.930
 1745SOL    HW2 5568   1.135   3.474   1.813
 1746SOL     OW 5569   0.822   2.864   3.234
 1746SOL    HW1 5570   0.862   2.863   3.142
 1746SOL    HW2 5571   0.832   2.956   3.274
 1747SOL     OW 5572   0.916   2.772   2.153
 1747SOL    HW1 5573   0.979   2.810   2.085
 1747SOL    HW2 5574   0.956   2.689   2.192
 1748SOL     OW 5575   1.504   3.469   1.906
 1748SOL    HW1 5576   1.412   3.506   1.913
 1748SOL    HW2 5577   1.542   3.489   1.816
 1749SOL     OW 5578   0.372   3.150   3.352
 1749SOL    HW1 5579   0.359   3.243   3.318
 1749SOL    HW2 5580   0.288   3.098   3.339
 1750SOL     OW 5581   1.614   3.154   3.151
 1750SOL    HW1 5582   1.674   3.157   3.231
 1750SOL    HW2 5583   1.539   3.218   3.164
 1751SOL     OW 5584   1.039   2.960   2.558
 1751SOL    HW1 5585   0.969   2.913   2.612
 1751SOL    HW2 5586   1.098   2.892   2.515
 1752SOL     OW 5587   1.014   2.098   2.833
 1752SOL    HW1 5588   1.006   2.062   2.740
 1752SOL    HW2 5589   1.012   2.022   2.898
 1753SOL     OW 5590   0.590   3.349   2.353
 1753SOL    HW1 5591   0.632   3.291   2.283
 1753SOL    HW2 5592   0.546   3.428   2.309
 1754SOL     OW 5593   1.709   2.247   3.243
 1754SOL    HW1 5594   1.782   2.316   3.247
 1754SOL    HW2 5595   1.737   2.172   3.184
 1755SOL     OW 5596   0.255   3.210   2.152
 1755SOL    HW1 5597   0.159   3.211   2.125
 1755SOL    HW2 5598   0.267   3.263   2.236
 1756SOL     OW 5599   0.105   2.875   3.588
 1756SOL    HW1 5600   0.028   2.842   3.642
 1756SOL    HW2 5601   0.190   2.845   3.630
 1757SOL     OW 5602   0.672   2.065   3.351
 1757SOL    HW1 5603   0.762   2.049   3.311
 1757SOL    HW2 5604   0.680   2.070   3.450
 1758SOL     OW 5605   0.075   2.207   1.895
 1758SOL    HW1 5606  -0.017   2.179   1.866
 1758SOL    HW2 5607   0.106   2.284   1.839
 1759SOL     OW 5608   1.440   2.718   3.260
 1759SOL    HW1 5609   1.383   2.770   3.197
 1759SOL    HW2 5610   1.536   2.730   3.236
 1760SOL     OW 5611   0.072   2.028   2.180
 1760SOL    HW1 5612   0.055   2.111   2.126
 1760SOL    HW2 5613   0.162   1.991   2.158
 1761SOL     OW 5614   1.183   3.197   1.981
 1761SOL    HW1 5615   1.084   3.186   1.983
 1761SOL    HW2 5616   1.217   3.212   2.074
 1762SOL     OW 5617   0.613   2.704   3.293
 1762SOL    HW1 5618   0.669   2.785   3.276
 1762SOL    HW2 5619   0.672   2.624   3.296
 1763SOL     OW 5620   1.493   3.629   2.821
 1763SOL    HW1 5621   1.526   3.693   2.752
 1763SOL    HW2 5622   1.559   3.623   2.896
 1764SOL     OW 5623   0.716   2.427   3.570
 1764SOL    HW1 5624   0.735   2.492   3.644
 1764SOL    HW2 5625   0.776   2.347   3.579
 1765SOL     OW 5626   1.450   3.082   3.495
 1765SOL    HW1 5627   1.441   3.072   3.594
 1765SOL    HW2 5628   1.546   3.075   3.469
 1766SOL     OW 5629   0.390   3.603   3.422
 1766SOL    HW1 5630   0.299   3.644   3.420
 1766SOL    HW2 5631   0.383   3.509   3.454
 1767SOL     OW 5632   1.674   2.745   3.116
 1767SOL    HW1 5633   1.647   2.656   3.079
 1767SOL    HW2 5634   1.675   2.813   3.043
 1768SOL     OW 5635   1.225   2.187   2.311
 1768SOL    HW1 5636   1.290   2.113   2.300
 1768SOL    HW2 5637   1.245   2.237   2.395
 1769SOL     OW 5638   0.594   2.607   2.514
 1769SOL    HW1 5639   0.644   2.692   2.495
 1769SOL    HW2 5640   0.506   2.609   2.466
 1770SOL     OW 5641   1.777   2.204   3.504
 1770SOL    HW1 5642   1.760   2.235   3.410
 1770SOL    HW2 5643   1.693   2.167   3.542
 1771SOL     OW 5644   1.730   2.796   3.379
 1771SOL    HW1 5645   1.768   2.887   3.394
 1771SOL    HW2 5646   1.722   2.779   3.280
 1772SOL     OW 5647   0.859   3.236   1.878
 1772SOL    HW1 5648   0.813   3.251   1.966
 1772SOL    HW2 5649   0.903   3.321   1.848
 1773SOL     OW 5650   0.661   3.652   2.815
 1773SOL    HW1 5651   0.615   3.740   2.802
 1773SOL    HW2 5652   0.760   3.664   2.808
 1774SOL     OW 5653   0.859   2.818   2.723
 1774SOL    HW1 5654   0.913   2.749   2.771
 1774SOL    HW2 5655   0.827   2.887   2.789
 1775SOL     OW 5656   1.083   2.846   1.949
 1775SOL    HW1 5657   1.060   2.899   1.867
 1775SOL    HW2 5658   1.164   2.790   1.930
 1776SOL     OW 5659   1.861   3.431   2.713
 1776SOL    HW1 5660   1.790   3.419   2.643
 1776SOL    HW2 5661   1.862   3.352   2.773
 1777SOL     OW 5662   0.221   3.176   3.706
 1777SOL    HW1 5663   0.156   3.103   3.685
 1777SOL    HW2 5664   0.225   3.190   3.804
 1778SOL     OW 5665   0.079   3.102   2.515
 1778SOL    HW1 5666   0.078   3.055   2.603
 1778SOL    HW2 5667   0.161   3.074   2.464
 1779SOL     OW 5668   0.672   3.253   3.486
 1779SOL    HW1 5669   0.594   3.203   3.524
 1779SOL    HW2 5670   0.669   3.348   3.517
 1780SOL     OW 5671   1.824   2.054   3.089
 1780SOL    HW1 5672   1.820   1.964   3.133
 1780SOL    HW2 5673   1.827   2.043   2.990
 1781SOL     OW 5674   0.428   2.286   2.382
 1781SOL    HW1 5675   0.458   2.214   2.320
 1781SOL    HW2 5676   0.389   2.246   2.465
 1782SOL     OW 5677   1.705   3.349   2.966
 1782SOL    HW1 5678   1.612   3.324   2.939
 1782SOL    HW2 5679   1.731   3.299   3.048
 1783SOL     OW 5680   0.317   2.409   3.142
 1783SOL    HW1 5681   0.355   2.350   3.214
 1783SOL    HW2 5682   0.357   2.383   3.054
 1784SOL     OW 5683   0.812   3.448   2.549
 1784SOL    HW1 5684   0.844   3.458   2.455
 1784SOL    HW2 5685   0.733   3.386   2.551
 1785SOL     OW 5686   1.424   2.076   2.974
 1785SOL    HW1 5687   1.476   2.011   3.029
 1785SOL    HW2 5688   1.375   2.139   3.035
 1786SOL     OW 5689   1.001   1.896   3.016
 1786SOL    HW1 5690   0.938   1.824   2.985
 1786SOL    HW2 5691   1.094   1.860   3.016
 1787SOL     OW 5692   0.770   3.192   2.163
 1787SOL    HW1 5693   0.724   3.105   2.180
 1787SOL    HW2 5694   0.861   3.189   2.204
 1788SOL     OW 5695   0.618   3.429   3.146
 1788SOL    HW1 5696   0.613   3.511   3.203
 1788SOL    HW2 5697   0.707   3.426   3.101
 1789SOL     OW 5698   1.352   1.914   2.030
 1789SOL    HW1 5699   1.387   1.873   1.946
 1789SOL    HW2 5700   1.262   1.876   2.050
 1790SOL     OW 5701   1.300   2.315   2.553
 1790SOL    HW1 5702   1.241   2.395   2.557
 1790SOL    HW2 5703   1.315   2.280   2.646
 1791SOL     OW 5704   1.593   2.083   2.744
 1791SOL    HW1 5705   1.509   2.082   2.798
 1791SOL    HW2 5706   1.595   2.166   2.688
 1792SOL     OW 5707   0.039   2.939   2.162
 1792SOL    HW1 5708   0.138   2.928   2.153
 1792SOL    HW2 5709  -0.001   2.853   2.194
 1793SOL     OW 5710   0.875   3.508   2.199
 1793SOL    HW1 5711   0.798   3.473   2.145
 1793SOL    HW2 5712   0.843   3.579   2.261
 1794SOL     OW 5713   0.230   2.490   3.837
 1794SOL    HW1 5714   0.137   2.488   3.874
 1794SOL    HW2 5715   0.231   2.451   3.745
 1795SOL     OW 5716   0.225   2.137   4.720
 1795SOL    HW1 5717   0.260   2.120   4.812
 1795SOL    HW2 5718   0.137   2.092   4.708
 1796SOL     OW 5719   0.019   2.230   4.371
 1796SOL    HW1 5720  -0.063   2.273   4.410
 1796SOL    HW2 5721  -0.009   2.157   4.308
 1797SOL     OW 5722   0.569   3.137   4.889
 1797SOL    HW1 5723   0.476   3.130   4.852
 1797SOL    HW2 5724   0.580   3.226   4.933
 1798SOL     OW 5725   1.555   3.373   4.427
 1798SOL    HW1 5726   1.498   3.357   4.508
 1798SOL    HW2 5727   1.496   3.383   4.347
 1799SOL     OW 5728   1.135   2.565   4.441
 1799SOL    HW1 5729   1.192   2.643   4.416
 1799SOL    HW2 5730   1.075   2.591   4.517
 1800SOL     OW 5731   1.755   2.469   3.955
 1800SOL    HW1 5732   1.743   2.456   3.856
 1800SOL    HW2 5733   1.725   2.388   4.004
 1801SOL     OW 5734   0.768   3.006   4.747
 1801SOL    HW1 5735   0.690   3.023   4.807
 1801SOL    HW2 5736   0.802   3.093   4.711
 1802SOL     OW 5737   0.850   2.660   5.547
 1802SOL    HW1 5738   0.846   2.736   5.612
 1802SOL    HW2 5739   0.872   2.696   5.456
 1803SOL     OW 5740   0.685   2.874   4.389
 1803SOL    HW1 5741   0.754   2.858   4.459
 1803SOL    HW2 5742   0.612   2.931   4.427
 1804SOL     OW 5743   0.686   3.023   5.527
 1804SOL    HW1 5744   0.746   3.102   5.541
 1804SOL    HW2 5745   0.600   3.054   5.486
 1805SOL     OW 5746   0.335   3.297   4.785
 1805SOL    HW1 5747   0.257   3.266   4.732
 1805SOL    HW2 5748   0.393   3.355   4.728
 1806SOL     OW 5749   1.460   3.367   5.063
 1806SOL    HW1 5750   1.484   3.461   5.089
 1806SOL    HW2 5751   1.444   3.313   5.145
 1807SOL     OW 5752   0.438   2.254   5.223
 1807SOL    HW1 5753   0.520   2.198   5.232
 1807SOL    HW2 5754   0.357   2.196   5.227
 1808SOL     OW 5755   1.603   2.309   4.461
 1808SOL    HW1 5756   1.529   2.355   4.411
 1808SOL    HW2 5757   1.654   2.377   4.514
 1809SOL     OW 5758   0.231   3.575   4.207
 1809SOL    HW1 5759   0.265   3.652   4.261
 1809SOL    HW2 5760   0.275   3.575   4.117
 1810SOL     OW 5761   1.127   3.203   5.414
 1810SOL    HW1 5762   1.174   3.203   5.502
 1810SOL    HW2 5763   1.079   3.116   5.403
 1811SOL     OW 5764   0.230   3.296   4.262
 1811SOL    HW1 5765   0.204   3.392   4.262
 1811SOL    HW2 5766   0.159   3.242   4.307
 1812SOL     OW 5767   0.240   2.953   4.610
 1812SOL    HW1 5768   0.254   2.869   4.662
 1812SOL    HW2 5769   0.185   3.017   4.665
 1813SOL     OW 5770   0.620   3.648   5.163
 1813SOL    HW1 5771   0.528   3.631   5.198
 1813SOL    HW2 5772   0.648   3.740   5.189
 1814SOL     OW 5773   0.606   2.826   3.847
 1814SOL    HW1 5774   0.613   2.910   3.793
 1814SOL    HW2 5775   0.652   2.839   3.935
 1815SOL     OW 5776   1.594   1.976   5.204
 1815SOL    HW1 5777   1.576   2.043   5.132
 1815SOL    HW2 5778   1.591   2.022   5.293
 1816SOL     OW 5779   0.122   2.505   4.287
 1816SOL    HW1 5780   0.077   2.417   4.304
 1816SOL    HW2 5781   0.121   2.559   4.371
 1817SOL     OW 5782   1.842   3.629   4.083
 1817SOL    HW1 5783   1.896   3.600   4.163
 1817SOL    HW2 5784   1.872   3.719   4.054
 1818SOL     OW 5785   0.027   3.458   3.841
 1818SOL    HW1 5786   0.008   3.362   3.862
 1818SOL    HW2 5787  -0.006   3.516   3.916
 1819SOL     OW 5788   1.689   2.784   4.336
 1819SOL    HW1 5789   1.784   2.755   4.344
 1819SOL    HW2 5790   1.681   2.849   4.261
 1820SOL     OW 5791   1.641   2.970   4.156
 1820SOL    HW1 5792   1.727   2.972   4.104
 1820SOL    HW2 5793   1.655   3.017   4.244
 1821SOL     OW 5794   0.113   2.599   5.321
 1821SOL    HW1 5795   0.201   2.586   5.366
 1821SOL    HW2 5796   0.100   2.696   5.299
 1822SOL     OW 5797   0.613   3.227   4.450
 1822SOL    HW1 5798   0.564   3.140   4.459
 1822SOL    HW2 5799   0.590   3.270   4.363
 1823SOL     OW 5800   1.293   3.090   5.147
 1823SOL    HW1 5801   1.330   3.017   5.089
 1823SOL    HW2 5802   1.345   3.095   5.232
 1824SOL     OW 5803   0.809   1.866   4.226
 1824SOL    HW1 5804   0.849   1.957   4.217
 1824SOL    HW2 5805   0.709   1.874   4.232
 1825SOL     OW 5806   0.197   2.838   4.988
 1825SOL    HW1 5807   0.286   2.793   4.974
 1825SOL    HW2 5808   0.124   2.773   4.969
 1826SOL     OW 5809   1.525   2.861   3.914
 1826SOL    HW1 5810   1.462   2.785   3.927
 1826SOL    HW2 5811   1.573   2.879   4.000
 1827SOL     OW 5812   1.187   3.654   5.340
 1827SOL    HW1 5813   1.211   3.714   5.264
 1827SOL    HW2 5814   1.194   3.559   5.310
 1828SOL     OW 5815   0.317   2.113   5.525
 1828SOL    HW1 5816   0.388   2.184   5.531
 1828SOL    HW2 5817   0.229   2.152   5.553
 1829SOL     OW 5818   1.466   3.279   4.677
 1829SOL    HW1 5819   1.407   3.285   4.757
 1829SOL    HW2 5820   1.451   3.191   4.631
 1830SOL     OW 5821   1.667   3.576   4.296
 1830SOL    HW1 5822   1.626   3.553   4.208
 1830SOL    HW2 5823   1.649   3.502   4.361
 1831SOL     OW 5824   0.598   2.591   3.994
 1831SOL    HW1 5825   0.622   2.660   3.926
 1831SOL    HW2 5826   0.520   2.624   4.048
 1832SOL     OW 5827   1.281   2.207   4.668
 1832SOL    HW1 5828   1.195   2.157   4.655
 1832SOL    HW2 5829   1.343   2.153   4.724
 1833SOL     OW 5830   1.576   3.524   4.031
 1833SOL    HW1 5831   1.665   3.570   4.034
 1833SOL    HW2 5832   1.555   3.500   3.936
 1834SOL     OW 5833   0.807   2.467   5.189
 1834SOL    HW1 5834   0.760   2.464   5.278
 1834SOL    HW2 5835   0.756   2.412   5.123
 1835SOL     OW 5836   1.394   2.331   5.398
 1835SOL    HW1 5837   1.374   2.374   5.486
 1835SOL    HW2 5838   1.472   2.269   5.407
 1836SOL     OW 5839   0.973   2.752   5.296
 1836SOL    HW1 5840   1.019   2.668   5.267
 1836SOL    HW2 5841   0.917   2.786   5.221
 1837SOL     OW 5842   0.991   2.272   4.966
 1837SOL    HW1 5843   0.914   2.306   5.020
 1837SOL    HW2 5844   0.957   2.221   4.887
 1838SOL     OW 5845   1.041   2.563   4.153
 1838SOL    HW1 5846   1.067   2.559   4.249
 1838SOL    HW2 5847   0.956   2.512   4.139
 1839SOL     OW 5848   0.076   2.673   4.513
 1839SOL    HW1 5849   0.175   2.661   4.522
 1839SOL    HW2 5850   0.052   2.768   4.534
 1840SOL     OW 5851   0.130   3.683   5.295
 1840SOL    HW1 5852   0.120   3.668   5.394
 1840SOL    HW2 5853   0.044   3.719   5.259
 1841SOL     OW 5854   0.865   2.210   3.919
 1841SOL    HW1 5855   0.924   2.273   3.870
 1841SOL    HW2 5856   0.884   2.116   3.890
 1842SOL     OW 5857   1.362   3.006   4.269
 1842SOL    HW1 5858   1.445   2.977   4.221
 1842SOL    HW2 5859   1.313   3.073   4.213
 1843SOL     OW 5860   0.550   2.058   4.609
 1843SOL    HW1 5861   0.545   2.053   4.709
 1843SOL    HW2 5862   0.552   2.154   4.580
 1844SOL     OW 5863   1.008   3.318   4.201
 1844SOL    HW1 5864   0.962   3.390   4.149
 1844SOL    HW2 5865   1.004   3.338   4.299
 1845SOL     OW 5866   0.351   3.663   4.577
 1845SOL    HW1 5867   0.401   3.577   4.583
 1845SOL    HW2 5868   0.416   3.740   4.574
 1846SOL     OW 5869   1.795   2.928   4.597
 1846SOL    HW1 5870   1.733   2.913   4.521
 1846SOL    HW2 5871   1.743   2.939   4.682
 1847SOL     OW 5872   1.227   3.412   5.230
 1847SOL    HW1 5873   1.233   3.335   5.294
 1847SOL    HW2 5874   1.175   3.386   5.150
 1848SOL     OW 5875   0.321   2.805   3.966
 1848SOL    HW1 5876   0.403   2.844   3.924
 1848SOL    HW2 5877   0.294   2.723   3.917
 1849SOL     OW 5878   1.458   2.597   4.452
 1849SOL    HW1 5879   1.453   2.532   4.527
 1849SOL    HW2 5880   1.538   2.656   4.465
 1850SOL     OW 5881   0.461   3.128   5.451
 1850SOL    HW1 5882   0.411   3.129   5.365
 1850SOL    HW2 5883   0.398   3.110   5.527
 1851SOL     OW 5884   1.111   3.638   3.961
 1851SOL    HW1 5885   1.051   3.576   4.011
 1851SOL    HW2 5886   1.142   3.594   3.876
 1852SOL     OW 5887   0.202   2.147   5.222
 1852SOL    HW1 5888   0.122   2.207   5.209
 1852SOL    HW2 5889   0.192   2.098   5.308
 1853SOL     OW 5890   1.632   3.239   3.805
 1853SOL    HW1 5891   1.600   3.333   3.795
 1853SOL    HW2 5892   1.556   3.176   3.793
 1854SOL     OW 5893   0.464   3.605   4.047
 1854SOL    HW1 5894   0.497   3.644   4.133
 1854SOL    HW2 5895   0.540   3.598   3.982
 1855SOL     OW 5896   1.400   1.969   4.150
 1855SOL    HW1 5897   1.376   1.932   4.060
 1855SOL    HW2 5898   1.499   1.985   4.154
 1856SOL     OW 5899   0.249   3.647   4.965
 1856SOL    HW1 5900   0.306   3.582   5.015
 1856SOL    HW2 5901   0.233   3.614   4.872
 1857SOL     OW 5902   0.940   3.560   4.628
 1857SOL    HW1 5903   1.020   3.503   4.649
 1857SOL    HW2 5904   0.891   3.520   4.551
 1858SOL     OW 5905   0.382   2.562   4.204
 1858SOL    HW1 5906   0.427   2.472   4.201
 1858SOL    HW2 5907   0.288   2.551   4.237
 1859SOL     OW 5908   1.547   2.084   5.453
 1859SOL    HW1 5909   1.542   2.121   5.545
 1859SOL    HW2 5910   1.475   2.015   5.441
 1860SOL     OW 5911   0.614   1.984   3.841
 1860SOL    HW1 5912   0.712   1.962   3.848
 1860SOL    HW2 5913   0.583   1.967   3.748
 1861SOL     OW 5914   0.781   2.126   5.473
 1861SOL    HW1 5915   0.848   2.065   5.516
 1861SOL    HW2 5916   0.708   2.145   5.538
 1862SOL     OW 5917   0.888   3.376   4.919
 1862SOL    HW1 5918   0.865   3.351   4.825
 1862SOL    HW2 5919   0.949   3.307   4.958
 1863SOL     OW 5920   1.351   2.452   5.157
 1863SOL    HW1 5921   1.379   2.409   5.242
 1863SOL    HW2 5922   1.376   2.548   5.158
 1864SOL     OW 5923   0.803   3.264   4.648
 1864SOL    HW1 5924   0.893   3.278   4.606
 1864SOL    HW2 5925   0.732   3.266   4.577
 1865SOL     OW 5926   0.922   2.365   4.623
 1865SOL    HW1 5927   0.897   2.356   4.527
 1865SOL    HW2 5928   0.970   2.283   4.654
 1866SOL     OW 5929   0.539   1.926   4.236
 1866SOL    HW1 5930   0.458   1.927   4.294
 1866SOL    HW2 5931   0.542   2.009   4.181
 1867SOL     OW 5932   1.434   3.050   3.765
 1867SOL    HW1 5933   1.466   2.974   3.822
 1867SOL    HW2 5934   1.342   3.077   3.795
 1868SOL     OW 5935   0.297   1.897   3.895
 1868SOL    HW1 5936   0.346   1.981   3.874
 1868SOL    HW2 5937   0.359   1.832   3.940
 1869SOL     OW 5938   0.935   2.098   4.204
 1869SOL    HW1 5939   0.887   2.139   4.126
 1869SOL    HW2 5940   1.034   2.096   4.185
 1870SOL     OW 5941   1.076   2.545   5.188
 1870SOL    HW1 5942   0.996   2.484   5.191
 1870SOL    HW2 5943   1.157   2.492   5.164
 1871SOL     OW 5944   1.227   3.432   4.517
 1871SOL    HW1 5945   1.248   3.506   4.452
 1871SOL    HW2 5946   1.295   3.432   4.590
 1872SOL     OW 5947   0.459   3.014   4.465
 1872SOL    HW1 5948   0.388   2.987   4.530
 1872SOL    HW2 5949   0.433   2.986   4.372
 1873SOL     OW 5950   1.271   3.659   4.315
 1873SOL    HW1 5951   1.315   3.723   4.251
 1873SOL    HW2 5952   1.221   3.711   4.385
 1874SOL     OW 5953   1.032   2.411   3.740
 1874SOL    HW1 5954   0.991   2.493   3.701
 1874SOL    HW2 5955   1.096   2.437   3.813
 1875SOL     OW 5956   0.078   2.418   5.110
 1875SOL    HW1 5957   0.170   2.417   5.069
 1875SOL    HW2 5958   0.072   2.492   5.177
 1876SOL     OW 5959   0.561   2.084   4.871
 1876SOL    HW1 5960   0.599   2.000   4.908
 1876SOL    HW2 5961   0.473   2.103   4.915
 1877SOL     OW 5962   0.866   2.316   4.366
 1877SOL    HW1 5963   0.834   2.388   4.304
 1877SOL    HW2 5964   0.890   2.235   4.313
 1878SOL     OW 5965   1.017   1.901   4.477
 1878SOL    HW1 5966   0.945   1.906   4.408
 1878SOL    HW2 5967   0.993   1.832   4.546
 1879SOL     OW 5968   1.429   3.035   4.591
 1879SOL    HW1 5969   1.374   2.951   4.584
 1879SOL    HW2 5970   1.455   3.064   4.499
 1880SOL     OW 5971   1.466   2.452   4.716
 1880SOL    HW1 5972   1.436   2.357   4.723
 1880SOL    HW2 5973   1.539   2.468   4.782
 1881SOL     OW 5974   1.857   2.695   4.101
 1881SOL    HW1 5975   1.899   2.631   4.165
 1881SOL    HW2 5976   1.819   2.644   4.023
 1882SOL     OW 5977   0.488   3.247   3.898
 1882SOL    HW1 5978   0.401   3.232   3.945
 1882SOL    HW2 5979   0.471   3.273   3.803
 1883SOL     OW 5980   1.664   3.142   4.381
 1883SOL    HW1 5981   1.763   3.150   4.395
 1883SOL    HW2 5982   1.619   3.226   4.412
 1884SOL     OW 5983   1.390   2.437   3.802
 1884SOL    HW1 5984   1.336   2.416   3.883
 1884SOL    HW2 5985   1.481   2.396   3.811
 1885SOL     OW 5986   0.527   2.118   4.052
 1885SOL    HW1 5987   0.554   2.059   3.977
 1885SOL    HW2 5988   0.527   2.213   4.021
 1886SOL     OW 5989   1.754   3.085   5.312
 1886SOL    HW1 5990   1.845   3.046   5.299
 1886SOL    HW2 5991   1.762   3.181   5.336
 1887SOL     OW 5992   1.064   3.209   5.064
 1887SOL    HW1 5993   0.984   3.186   5.119
 1887SOL    HW2 5994   1.147   3.183   5.113
 1888SOL     OW 5995   1.592   3.491   5.349
 1888SOL    HW1 5996   1.619   3.525   5.259
 1888SOL    HW2 5997   1.671   3.453   5.395
 1889SOL     OW 5998   1.111   3.057   4.824
 1889SOL    HW1 5999   1.071   3.101   4.905
 1889SOL    HW2 6000   1.070   3.094   4.741
 1890SOL     OW 6001   1.638   2.961   4.803
 1890SOL    HW1 6002   1.643   3.042   4.862
 1890SOL    HW2 6003   1.552   2.963   4.752
 1891SOL     OW 6004   0.915   1.951   5.126
 1891SOL    HW1 6005   0.940   1.931   5.031
 1891SOL    HW2 6006   0.987   2.007   5.168
 1892SOL     OW 6007   0.980   2.978   5.443
 1892SOL    HW1 6008   0.881   2.984   5.453
 1892SOL    HW2 6009   1.003   2.898   5.387
 1893SOL     OW 6010   0.705   2.912   4.092
 1893SOL    HW1 6011   0.691   2.919   4.191
 1893SOL    HW2 6012   0.789   2.861   4.074
 1894SOL     OW 6013   0.410   2.675   4.975
 1894SOL    HW1 6014   0.496   2.687   5.025
 1894SOL    HW2 6015   0.368   2.588   5.002
 1895SOL     OW 6016   1.274   2.248   4.986
 1895SOL    HW1 6017   1.295   2.322   5.050
 1895SOL    HW2 6018   1.185   2.265   4.943
 1896SOL     OW 6019   0.064   3.426   5.055
 1896SOL    HW1 6020   0.018   3.508   5.021
 1896SOL    HW2 6021   0.162   3.445   5.064
 1897SOL     OW 6022   0.367   2.962   4.225
 1897SOL    HW1 6023   0.360   3.045   4.169
 1897SOL    HW2 6024   0.371   2.882   4.165
 1898SOL     OW 6025   0.566   2.399   4.589
 1898SOL    HW1 6026   0.578   2.465   4.515
 1898SOL    HW2 6027   0.612   2.433   4.672
 1899SOL     OW 6028   1.252   3.210   4.112
 1899SOL    HW1 6029   1.302   3.287   4.152
 1899SOL    HW2 6030   1.157   3.212   4.144
 1900SOL     OW 6031   1.272   3.307   4.866
 1900SOL    HW1 6032   1.319   3.320   4.953
 1900SOL    HW2 6033   1.206   3.233   4.875
 1901SOL     OW 6034   1.582   2.501   4.196
 1901SOL    HW1 6035   1.551   2.562   4.269
 1901SOL    HW2 6036   1.632   2.553   4.127
 1902SOL     OW 6037   0.354   3.372   5.053
 1902SOL    HW1 6038   0.333   3.328   4.966
 1902SOL    HW2 6039   0.451   3.398   5.056
 1903SOL     OW 6040   0.402   2.613   5.322
 1903SOL    HW1 6041   0.470   2.668   5.275
 1903SOL    HW2 6042   0.442   2.525   5.349
 1904SOL     OW 6043   1.587   2.641   5.394
 1904SOL    HW1 6044   1.495   2.679   5.389
 1904SOL    HW2 6045   1.647   2.688   5.329
 1905SOL     OW 6046   1.013   1.967   5.494
 1905SOL    HW1 6047   1.019   2.052   5.442
 1905SOL    HW2 6048   1.045   1.891   5.437
 1906SOL     OW 6049   0.504   1.912   5.464
 1906SOL    HW1 6050   0.462   1.855   5.394
 1906SOL    HW2 6051   0.438   1.981   5.496
 1907SOL     OW 6052   0.573   2.732   4.753
 1907SOL    HW1 6053   0.617   2.821   4.744
 1907SOL    HW2 6054   0.510   2.732   4.830
 1908SOL     OW 6055   1.360   2.724   4.769
 1908SOL    HW1 6056   1.285   2.724   4.703
 1908SOL    HW2 6057   1.397   2.632   4.778
 1909SOL     OW 6058   1.209   2.387   3.999
 1909SOL    HW1 6059   1.222   2.303   4.053
 1909SOL    HW2 6060   1.180   2.461   4.059
 1910SOL     OW 6061   0.307   2.075   4.955
 1910SOL    HW1 6062   0.284   2.112   5.045
 1910SOL    HW2 6063   0.277   1.980   4.949
 1911SOL     OW 6064   0.037   3.172   5.006
 1911SOL    HW1 6065   0.090   3.123   5.074
 1911SOL    HW2 6066   0.059   3.270   5.011
 1912SOL     OW 6067   0.732   2.496   4.788
 1912SOL    HW1 6068   0.791   2.470   4.712
 1912SOL    HW2 6069   0.704   2.592   4.777
 1913SOL     OW 6070   1.728   2.797   5.578
 1913SOL    HW1 6071   1.682   2.790   5.489
 1913SOL    HW2 6072   1.666   2.841   5.644
 1914SOL     OW 6073   0.307   1.925   4.342
 1914SOL    HW1 6074   0.296   2.019   4.375
 1914SOL    HW2 6075   0.302   1.862   4.419
 1915SOL     OW 6076   1.622   2.229   4.098
 1915SOL    HW1 6077   1.624   2.153   4.162
 1915SOL    HW2 6078   1.574   2.306   4.138
 1916SOL     OW 6079   1.023   2.628   4.690
 1916SOL    HW1 6080   1.038   2.649   4.786
 1916SOL    HW2 6081   0.993   2.533   4.681
 1917SOL     OW 6082   0.980   3.435   5.424
 1917SOL    HW1 6083   0.960   3.479   5.336
 1917SOL    HW2 6084   1.019   3.344   5.408
 1918SOL     OW 6085   1.859   3.380   5.329
 1918SOL    HW1 6086   1.873   3.407   5.234
 1918SOL    HW2 6087   1.942   3.402   5.382
 1919SOL     OW 6088   0.350   2.760   5.528
 1919SOL    HW1 6089   0.426   2.804   5.576
 1919SOL    HW2 6090   0.385   2.713   5.446
 1920SOL     OW 6091   1.540   2.136   3.849
 1920SOL    HW1 6092   1.479   2.061   3.872
 1920SOL    HW2 6093   1.562   2.188   3.932
 1921SOL     OW 6094   1.303   2.700   3.766
 1921SOL    HW1 6095   1.337   2.607   3.781
 1921SOL    HW2 6096   1.321   2.727   3.671
 1922SOL     OW 6097   1.068   3.195   4.573
 1922SOL    HW1 6098   1.075   3.111   4.518
 1922SOL    HW2 6099   1.130   3.264   4.537
 1923SOL     OW 6100   0.319   2.672   4.673
 1923SOL    HW1 6101   0.412   2.708   4.678
 1923SOL    HW2 6102   0.313   2.587   4.725
 1924SOL     OW 6103   0.339   2.371   4.730
 1924SOL    HW1 6104   0.287   2.288   4.713
 1924SOL    HW2 6105   0.416   2.376   4.666
 1925SOL     OW 6106   1.138   2.242   5.402
 1925SOL    HW1 6107   1.093   2.305   5.466
 1925SOL    HW2 6108   1.231   2.273   5.385
 1926SOL     OW 6109   1.160   2.069   5.201
 1926SOL    HW1 6110   1.160   2.133   5.278
 1926SOL    HW2 6111   1.188   2.117   5.118
 1927SOL     OW 6112   0.008   3.188   3.924
 1927SOL    HW1 6113  -0.085   3.209   3.893
 1927SOL    HW2 6114   0.018   3.089   3.937
 1928SOL     OW 6115   0.088   3.663   4.651
 1928SOL    HW1 6116   0.046   3.577   4.624
 1928SOL    HW2 6117   0.182   3.666   4.617
 1929SOL     OW 6118   0.504   3.430   4.634
 1929SOL    HW1 6119   0.570   3.504   4.643
 1929SOL    HW2 6120   0.548   3.351   4.592
 1930SOL     OW 6121   1.002   2.658   4.962
 1930SOL    HW1 6122   1.043   2.626   5.048
 1930SOL    HW2 6123   0.906   2.631   4.959
 1931SOL     OW 6124   0.040   2.406   4.838
 1931SOL    HW1 6125   0.125   2.373   4.797
 1931SOL    HW2 6126   0.053   2.421   4.936
 1932SOL     OW 6127   0.189   2.382   5.446
 1932SOL    HW1 6128   0.248   2.342   5.376
 1932SOL    HW2 6129   0.131   2.453   5.405
 1933SOL     OW 6130   1.369   2.812   5.384
 1933SOL    HW1 6131   1.408   2.901   5.404
 1933SOL    HW2 6132   1.379   2.792   5.287
 1934SOL     OW 6133   0.815   2.434   4.049
 1934SOL    HW1 6134   0.822   2.345   4.003
 1934SOL    HW2 6135   0.721   2.468   4.041
 1935SOL     OW 6136   1.657   2.466   4.930
 1935SOL    HW1 6137   1.619   2.397   4.992
 1935SOL    HW2 6138   1.739   2.430   4.886
 1936SOL     OW 6139   0.252   3.426   5.468
 1936SOL    HW1 6140   0.222   3.483   5.544
 1936SOL    HW2 6141   0.245   3.329   5.494
 1937SOL     OW 6142   0.671   2.326   4.993
 1937SOL    HW1 6143   0.637   2.237   4.963
 1937SOL    HW2 6144   0.697   2.380   4.913
 1938SOL     OW 6145   0.930   3.540   5.189
 1938SOL    HW1 6146   0.906   3.522   5.094
 1938SOL    HW2 6147   0.960   3.634   5.199
 1939SOL     OW 6148   0.473   2.362   3.915
 1939SOL    HW1 6149   0.534   2.442   3.919
 1939SOL    HW2 6150   0.378   2.393   3.922
 1940SOL     OW 6151   0.159   2.999   5.190
 1940SOL    HW1 6152   0.181   2.938   5.266
 1940SOL    HW2 6153   0.169   2.950   5.104
 1941SOL     OW 6154   1.347   2.921   4.958
 1941SOL    HW1 6155   1.371   2.858   4.884
 1941SOL    HW2 6156   1.257   2.961   4.940
 1942SOL     OW 6157   1.302   2.717   4.033
 1942SOL    HW1 6158   1.216   2.686   4.075
 1942SOL    HW2 6159   1.298   2.703   3.934
 1943SOL     OW 6160   1.759   3.609   4.878
 1943SOL    HW1 6161   1.820   3.639   4.805
 1943SOL    HW2 6162   1.721   3.520   4.856
 1944SOL     OW 6163   1.252   3.593   4.852
 1944SOL    HW1 6164   1.336   3.598   4.798
 1944SOL    HW2 6165   1.229   3.497   4.870
 1945SOL     OW 6166   0.083   3.120   4.746
 1945SOL    HW1 6167   0.078   3.119   4.846
 1945SOL    HW2 6168   0.000   3.079   4.708
 1946SOL     OW 6169   0.688   3.524   5.440
 1946SOL    HW1 6170   0.632   3.605   5.449
 1946SOL    HW2 6171   0.740   3.528   5.354
 1947SOL     OW 6172   1.726   1.997   4.247
 1947SOL    HW1 6173   1.799   1.980   4.180
 1947SOL    HW2 6174   1.695   1.910   4.285
 1948SOL     OW 6175   1.388   3.435   4.201
 1948SOL    HW1 6176   1.455   3.447   4.127
 1948SOL    HW2 6177   1.348   3.524   4.224
 1949SOL     OW 6178   0.130   3.656   5.575
 1949SOL    HW1 6179   0.089   3.582   5.628
 1949SOL    HW2 6180   0.194   3.707   5.633
 1950SOL     OW 6181   1.280   2.789   4.396
 1950SOL    HW1 6182   1.340   2.708   4.398
 1950SOL    HW2 6183   1.320   2.858   4.336
 1951SOL     OW 6184   0.830   3.135   5.146
 1951SOL    HW1 6185   0.825   3.168   5.241
 1951SOL    HW2 6186   0.744   3.154   5.100
 1952SOL     OW 6187   0.672   3.478   3.878
 1952SOL    HW1 6188   0.681   3.488   3.779
 1952SOL    HW2 6189   0.632   3.389   3.899
 1953SOL     OW 6190   1.650   3.582   5.118
 1953SOL    HW1 6191   1.703   3.592   5.034
 1953SOL    HW2 6192   1.623   3.672   5.152
 1954SOL     OW 6193   1.841   2.037   4.687
 1954SOL    HW1 6194   1.880   1.952   4.651
 1954SOL    HW2 6195   1.743   2.039   4.668
 1955SOL     OW 6196   0.263   2.188   4.444
 1955SOL    HW1 6197   0.184   2.239   4.410
 1955SOL    HW2 6198   0.254   2.173   4.542
 1956SOL     OW 6199   1.194   3.474   3.755
 1956SOL    HW1 6200   1.200   3.381   3.792
 1956SOL    HW2 6201   1.135   3.474   3.675
 1957SOL     OW 6202   0.822   2.864   5.096
 1957SOL    HW1 6203   0.862   2.863   5.004
 1957SOL    HW2 6204   0.832   2.956   5.136
 1958SOL     OW 6205   0.916   2.772   4.015
 1958SOL    HW1 6206   0.979   2.810   3.947
 1958SOL    HW2 6207   0.956   2.689   4.054
 1959SOL     OW 6208   1.504   3.469   3.768
 1959SOL    HW1 6209   1.412   3.506   3.775
 1959SOL    HW2 6210   1.542   3.489   3.678
 1960SOL     OW 6211   0.372   3.150   5.214
 1960SOL    HW1 6212   0.359   3.243   5.180
 1960SOL    HW2 6213   0.288   3.098   5.201
 1961SOL     OW 6214   1.614   3.154   5.013
 1961SOL    HW1 6215   1.674   3.157   5.093
 1961SOL    HW2 6216   1.539   3.218   5.026
 1962SOL     OW 6217   1.039   2.960   4.420
 1962SOL    HW1 6218   0.969   2.913   4.474
 1962SOL    HW2 6219   1.098   2.892   4.377
 1963SOL     OW 6220   1.014   2.098   4.695
 1963SOL    HW1 6221   1.006   2.062   4.602
 1963SOL    HW2 6222   1.012   2.022   4.760
 1964SOL     OW 6223   0.590   3.349   4.215
 1964SOL    HW1 6224   0.632   3.291   4.145
 1964SOL    HW2 6225   0.546   3.428   4.171
 1965SOL     OW 6226   1.709   2.247   5.105
 1965SOL    HW1 6227   1.782   2.316   5.109
 1965SOL    HW2 6228   1.737   2.172   5.046
 1966SOL     OW 6229   0.255   3.210   4.014
 1966SOL    HW1 6230   0.159   3.211   3.987
 1966SOL    HW2 6231   0.267   3.263   4.098
 1967SOL     OW 6232   0.105   2.875   5.450
 1967SOL    HW1 6233   0.028   2.842   5.504
 1967SOL    HW2 6234   0.190   2.845   5.492
 1968SOL     OW 6235   0.672   2.065   5.213
 1968SOL    HW1 6236   0.762   2.049   5.173
 1968SOL    HW2 6237   0.680   2.070   5.312
 1969SOL     OW 6238   0.075   2.207   3.757
 1969SOL    HW1 6239  -0.017   2.179   3.728
 1969SOL    HW2 6240   0.106   2.284   3.701
 1970SOL     OW 6241   1.440   2.718   5.122
 1970SOL    HW1 6242   1.383   2.770   5.059
 1970SOL    HW2 6243   1.536   2.730   5.098
 1971SOL     OW 6244   0.072   2.028   4.042
 1971SOL    HW1 6245   0.055   2.111   3.988
 1971SOL    HW2 6246   0.162   1.991   4.020
 1972SOL     OW 6247   1.183   3.197   3.843
 1972SOL    HW1 6248   1.084   3.186   3.845
 1972SOL    HW2 6249   1.217   3.212   3.936
 1973SOL     OW 6250   0.613   2.704   5.155
 1973SOL    HW1 6251   0.669   2.785   5.138
 1973SOL    HW2 6252   0.672   2.624   5.158
 1974SOL     OW 6253   1.493   3.629   4.683
 1974SOL    HW1 6254   1.526   3.693   4.614
 1974SOL    HW2 6255   1.559   3.623   4.758
 1975SOL     OW 6256   0.716   2.427   5.432
 1975SOL    HW1 6257   0.735   2.492   5.506
 1975SOL    HW2 6258   0.776   2.347   5.441
 1976SOL     OW 6259   1.450   3.082   5.357
 1976SOL    HW1 6260   1.441   3.072   5.456
 1976SOL    HW2 6261   1.546   3.075   5.331
 1977SOL     OW 6262   0.390   3.603   5.284
 1977SOL    HW1 6263   0.299   3.644   5.282
 1977SOL    HW2 6264   0.383   3.509   5.316
 1978SOL     OW 6265   1.674   2.745   4.978
 1978SOL    HW1 6266   1.647   2.656   4.941
 1978SOL    HW2 6267   1.675   2.813   4.905
 1979SOL     OW 6268   1.225   2.187   4.173
 1979SOL    HW1 6269   1.290   2.113   4.162
 1979SOL    HW2 6270   1.245   2.237   4.257
 1980SOL     OW 6271   0.594   2.607   4.376
 1980SOL    HW1 6272   0.644   2.692   4.357
 1980SOL    HW2 6273   0.506   2.609   4.328
 1981SOL     OW 6274   1.777   2.204   5.366
 1981SOL    HW1 6275   1.760   2.235   5.272
 1981SOL    HW2 6276   1.693   2.167   5.404
 1982SOL     OW 6277   1.730   2.796   5.241
 1982SOL    HW1 6278   1.768   2.887   5.256
 1982SOL    HW2 6279   1.722   2.779   5.142
 1983SOL     OW 6280   0.859   3.236   3.740
 1983SOL    HW1 6281   0.813   3.251   3.828
 1983SOL    HW2 6282   0.903   3.321   3.710
 1984SOL     OW 6283   0.661   3.652   4.677
 1984SOL    HW1 6284   0.615   3.740   4.664
 1984SOL    HW2 6285   0.760   3.664   4.670
 1985SOL     OW 6286   0.859   2.818   4.585
 1985SOL    HW1 6287   0.913   2.749   4.633
 1985SOL    HW2 6288   0.827   2.887   4.651
 1986SOL     OW 6289   1.083   2.846   3.811
 1986SOL    HW1 6290   1.060   2.899   3.729
 1986SOL    HW2 6291   1.164   2.790   3.792
 1987SOL     OW 6292   1.861   3.431   4.575
 1987SOL    HW1 6293   1.790   3.419   4.505
 1987SOL    HW2 6294   1.862   3.352   4.635
 1988SOL     OW 6295   0.221   3.176   5.568
 1988SOL    HW1 6296   0.156   3.103   5.547
 1988SOL    HW2 6297   0.225   3.190   5.666
 1989SOL     OW 6298   0.079   3.102   4.377
 1989SOL    HW1 6299   0.078   3.055   4.465
 1989SOL    HW2 6300   0.161   3.074   4.326
 1990SOL     OW 6301   0.672   3.253   5.348
 1990SOL    HW1 6302   0.594   3.203   5.386
 1990SOL    HW2 6303   0.669   3.348   5.379
 1991SOL     OW 6304   1.824   2.054   4.951
 1991SOL    HW1 6305   1.820   1.964   4.995
 1991SOL    HW2 6306   1.827   2.043   4.852
 1992SOL     OW 6307   0.428   2.286   4.244
 1992SOL    HW1 6308   0.458   2.214   4.182
 1992SOL    HW2 6309   0.389   2.246   4.327
 1993SOL     OW 6310   1.705   3.349   4.828
 1993SOL    HW1 6311   1.612   3.324   4.801
 1993SOL    HW2 6312   1.731   3.299   4.910
 1994SOL     OW 6313   0.317   2.409   5.004
 1994SOL    HW1 6314   0.355   2.350   5.076
 1994SOL    HW2 6315   0.357   2.383   4.916
 1995SOL     OW 6316   0.812   3.448   4.411
 1995SOL    HW1 6317   0.844   3.458   4.317
 1995SOL    HW2 6318   0.733   3.386   4.413
 1996SOL     OW 6319   1.424   2.076   4.836
 1996SOL    HW1 6320   1.476   2.011   4.891
 1996SOL    HW2 6321   1.375   2.139   4.897
 1997SOL     OW 6322   1.001   1.896   4.878
 1997SOL    HW1 6323   0.938   1.824   4.847
 1997SOL    HW2 6324   1.094   1.860   4.878
 1998SOL     OW 6325   0.770   3.192   4.025
 1998SOL    HW1 6326   0.724   3.105   4.042
 1998SOL    HW2 6327   0.861   3.189   4.066
 1999SOL     OW 6328   0.618   3.429   5.008
 1999SOL    HW1 6329   0.613   3.511   5.065
 1999SOL    HW2 6330   0.707   3.426   4.963
 2000SOL     OW 6331   1.352   1.914   3.892
 2000SOL    HW1 6332   1.387   1.873   3.808
 2000SOL    HW2 6333   1.262   1.876   3.912
 2001SOL     OW 6334   1.300   2.315   4.415
 2001SOL    HW1 6335   1.241   2.395   4.419
 2001SOL    HW2 6336   1.315   2.280   4.508
 2002SOL     OW 6337   1.593   2.083   4.606
 2002SOL    HW1 6338   1.509   2.082   4.660
 2002SOL    HW2 6339   1.595   2.166   4.550
 2003SOL     OW 6340   0.039   2.939   4.024
 2003SOL    HW1 6341   0.138   2.928   4.015
 2003SOL    HW2 6342  -0.001   2.853   4.056
 2004SOL     OW 6343   0.875   3.508   4.061
 2004SOL    HW1 6344   0.798   3.473   4.007
 2004SOL    HW2 6345   0.843   3.579   4.123
 2005SOL     OW 6346   0.230   2.490   5.699
 2005SOL    HW1 6347   0.137   2.488   5.736
 2005SOL    HW2 6348   0.231   2.451   5.607
 2006SOL     OW 6349   0.225   2.137   6.582
 2006SOL    HW1 6350   0.260   2.120   6.674
 2006SOL    HW2 6351   0.137   2.092   6.570
 2007SOL     OW 6352   0.019   2.230   6.233
 2007SOL    HW1 6353  -0.063   2.273   6.272
 2007SOL    HW2 6354  -0.009   2.157   6.170
 2008SOL     OW 6355   0.569   3.137   6.751
 2008SOL    HW1 6356   0.476   3.130   6.714
 2008SOL    HW2 6357   0.580   3.226   6.795
 2009SOL     OW 6358   1.555   3.373   6.289
 2009SOL    HW1 6359   1.498   3.357   6.370
 2009SOL    HW2 6360   1.496   3.383   6.209
 2010SOL     OW 6361   1.135   2.565   6.303
 2010SOL    HW1 6362   1.192   2.643   6.278
 2010SOL    HW2 6363   1.075   2.591   6.379
 2011SOL     OW 6364   0.768   3.006   6.609
 2011SOL    HW1 6365   0.690   3.023   6.669
 2011SOL    HW2 6366   0.802   3.093   6.573
 2012SOL     OW 6367   0.850   2.660   7.409
 2012SOL    HW1 6368   0.846   2.736   7.474
 2012SOL    HW2 6369   0.872   2.696   7.318
 2013SOL     OW 6370   0.685   2.874   6.251
 2013SOL    HW1 6371   0.754   2.858   6.321
 2013SOL    HW2 6372   0.612   2.931   6.289
 2014SOL     OW 6373   0.686   3.023   7.389
 2014SOL    HW1 6374   0.746   3.102   7.403
 2014SOL    HW2 6375   0.600   3.054   7.348
 2015SOL     OW 6376   0.335   3.297   6.647
 2015SOL    HW1 6377   0.257   3.266   6.594
 2015SOL    HW2 6378   0.393   3.355   6.590
 2016SOL     OW 6379   1.460   3.367   6.925
 2016SOL    HW1 6380   1.484   3.461   6.951
 2016SOL    HW2 6381   1.444   3.313   7.007
 2017SOL     OW 6382   0.438   2.254   7.085
 2017SOL    HW1 6383   0.520   2.198   7.094
 2017SOL    HW2 6384   0.357   2.196   7.089
 2018SOL     OW 6385   0.231   3.575   6.069
 2018SOL    HW1 6386   0.265   3.652   6.123
 2018SOL    HW2 6387   0.275   3.575   5.979
 2019SOL     OW 6388   1.127   3.203   7.276
 2019SOL    HW1 6389   1.174   3.203   7.364
 2019SOL    HW2 6390   1.079   3.116   7.265
 2020SOL     OW 6391   0.230   3.296   6.124
 2020SOL    HW1 6392   0.204   3.392   6.124
 2020SOL    HW2 6393   0.159   3.242   6.169
 2021SOL     OW 6394   0.240   2.953   6.472
 2021SOL    HW1 6395   0.254   2.869   6.524
 2021SOL    HW2 6396   0.185   3.017   6.527
 2022SOL     OW 6397   0.620   3.648   7.025
 2022SOL    HW1 6398   0.528   3.631   7.060
 2022SOL    HW2 6399   0.648   3.740   7.051
 2023SOL     OW 6400   0.606   2.826   5.709
 2023SOL    HW1 6401   0.613   2.910   5.655
 2023SOL    HW2 6402   0.652   2.839   5.797
 2024SOL     OW 6403   1.594   1.976   7.066
 2024SOL    HW1 6404   1.576   2.043   6.994
 2024SOL    HW2 6405   1.591   2.022   7.155
 2025SOL     OW 6406   0.122   2.505   6.149
 2025SOL    HW1 6407   0.077   2.417   6.166
 2025SOL    HW2 6408   0.121   2.559   6.233
 2026SOL     OW 6409   1.842   3.629   5.945
 2026SOL    HW1 6410   1.896   3.600   6.025
 2026SOL    HW2 6411   1.872   3.719   5.916
 2027SOL     OW 6412   0.027   3.458   5.703
 2027SOL    HW1 6413   0.008   3.362   5.724
 2027SOL    HW2 6414  -0.006   3.516   5.778
 2028SOL     OW 6415   1.689   2.784   6.198
 2028SOL    HW1 6416   1.784   2.755   6.206
 2028SOL    HW2 6417   1.681   2.849   6.123
 2029SOL     OW 6418   1.641   2.970   6.018
 2029SOL    HW1 6419   1.727   2.972   5.966
 2029SOL    HW2 6420   1.655   3.017   6.106
 2030SOL     OW 6421   0.113   2.599   7.183
 2030SOL    HW1 6422   0.201   2.586   7.228
 2030SOL    HW2 6423   0.100   2.696   7.161
 2031SOL     OW 6424   0.613   3.227   6.312
 2031SOL    HW1 6425   0.564   3.140   6.321
 2031SOL    HW2 6426   0.590   3.270   6.225
 2032SOL     OW 6427   1.293   3.090   7.009
 2032SOL    HW1 6428   1.330   3.017   6.951
 2032SOL    HW2 6429   1.345   3.095   7.094
 2033SOL     OW 6430   0.809   1.866   6.088
 2033SOL    HW1 6431   0.849   1.957   6.079
 2033SOL    HW2 6432   0.709   1.874   6.094
 2034SOL     OW 6433   0.197   2.838   6.850
 2034SOL    HW1 6434   0.286   2.793   6.836
 2034SOL    HW2 6435   0.124   2.773   6.831
 2035SOL     OW 6436   1.525   2.861   5.776
 2035SOL    HW1 6437   1.462   2.785   5.789
 2035SOL    HW2 6438   1.573   2.879   5.862
 2036SOL     OW 6439   1.187   3.654   7.202
 2036SOL    HW1 6440   1.211   3.714   7.126
 2036SOL    HW2 6441   1.194   3.559   7.172
 2037SOL     OW 6442   0.317   2.113   7.387
 2037SOL    HW1 6443   0.388   2.184   7.393
 2037SOL    HW2 6444   0.229   2.152   7.415
 2038SOL     OW 6445   1.466   3.279   6.539
 2038SOL    HW1 6446   1.407   3.285   6.619
 2038SOL    HW2 6447   1.451   3.191   6.493
 2039SOL     OW 6448   1.667   3.576   6.158
 2039SOL    HW1 6449   1.626   3.553   6.070
 2039SOL    HW2 6450   1.649   3.502   6.223
 2040SOL     OW 6451   0.598   2.591   5.856
 2040SOL    HW1 6452   0.622   2.660   5.788
 2040SOL    HW2 6453   0.520   2.624   5.910
 2041SOL     OW 6454   1.281   2.207   6.530
 2041SOL    HW1 6455   1.195   2.157   6.517
 2041SOL    HW2 6456   1.343   2.153   6.586
 2042SOL     OW 6457   1.576   3.524   5.893
 2042SOL    HW1 6458   1.665   3.570   5.896
 2042SOL    HW2 6459   1.555   3.500   5.798
 2043SOL     OW 6460   0.807   2.467   7.051
 2043SOL    HW1 6461   0.760   2.464   7.140
 2043SOL    HW2 6462   0.756   2.412   6.985
 2044SOL     OW 6463   1.394   2.331   7.260
 2044SOL    HW1 6464   1.374   2.374   7.348
 2044SOL    HW2 6465   1.472   2.269   7.269
 2045SOL     OW 6466   0.973   2.752   7.158
 2045SOL    HW1 6467   1.019   2.668   7.129
 2045SOL    HW2 6468   0.917   2.786   7.083
 2046SOL     OW 6469   0.991   2.272   6.828
 2046SOL    HW1 6470   0.914   2.306   6.882
 2046SOL    HW2 6471   0.957   2.221   6.749
 2047SOL     OW 6472   1.041   2.563   6.015
 2047SOL    HW1 6473   1.067   2.559   6.111
 2047SOL    HW2 6474   0.956   2.512   6.001
 2048SOL     OW 6475   0.076   2.673   6.375
 2048SOL    HW1 6476   0.175   2.661   6.384
 2048SOL    HW2 6477   0.052   2.768   6.396
 2049SOL     OW 6478   0.130   3.683   7.157
 2049SOL    HW1 6479   0.120   3.668   7.256
 2049SOL    HW2 6480   0.044   3.719   7.121
 2050SOL     OW 6481   0.865   2.210   5.781
 2050SOL    HW1 6482   0.924   2.273   5.732
 2050SOL    HW2 6483   0.884   2.116   5.752
 2051SOL     OW 6484   1.719   2.447   7.417
 2051SOL    HW1 6485   1.693   2.536   7.381
 2051SOL    HW2 6486   1.717   2.379   7.344
 2052SOL     OW 6487   1.362   3.006   6.131
 2052SOL    HW1 6488   1.445   2.977   6.083
 2052SOL    HW2 6489   1.313   3.073   6.075
 2053SOL     OW 6490   0.550   2.058   6.471
 2053SOL    HW1 6491   0.545   2.053   6.571
 2053SOL    HW2 6492   0.552   2.154   6.442
 2054SOL     OW 6493   1.008   3.318   6.063
 2054SOL    HW1 6494   0.962   3.390   6.011
 2054SOL    HW2 6495   1.004   3.338   6.161
 2055SOL     OW 6496   0.351   3.663   6.439
 2055SOL    HW1 6497   0.401   3.577   6.445
 2055SOL    HW2 6498   0.416   3.740   6.436
 2056SOL     OW 6499   1.795   2.928   6.459
 2056SOL    HW1 6500   1.733   2.913   6.383
 2056SOL    HW2 6501   1.743   2.939   6.544
 2057SOL     OW 6502   1.227   3.412   7.092
 2057SOL    HW1 6503   1.233   3.335   7.156
 2057SOL    HW2 6504   1.175   3.386   7.012
 2058SOL     OW 6505   0.321   2.805   5.828
 2058SOL    HW1 6506   0.403   2.844   5.786
 2058SOL    HW2 6507   0.294   2.723   5.779
 2059SOL     OW 6508   1.458   2.597   6.314
 2059SOL    HW1 6509   1.453   2.532   6.389
 2059SOL    HW2 6510   1.538   2.656   6.327
 2060SOL     OW 6511   0.461   3.128   7.313
 2060SOL    HW1 6512   0.411   3.129   7.227
 2060SOL    HW2 6513   0.398   3.110   7.389
 2061SOL     OW 6514   1.111   3.638   5.823
 2061SOL    HW1 6515   1.051   3.576   5.873
 2061SOL    HW2 6516   1.142   3.594   5.738
 2062SOL     OW 6517   0.202   2.147   7.084
 2062SOL    HW1 6518   0.122   2.207   7.071
 2062SOL    HW2 6519   0.192   2.098   7.170
 2063SOL     OW 6520   1.632   3.239   5.667
 2063SOL    HW1 6521   1.600   3.333   5.657
 2063SOL    HW2 6522   1.556   3.176   5.655
 2064SOL     OW 6523   0.464   3.605   5.909
 2064SOL    HW1 6524   0.497   3.644   5.995
 2064SOL    HW2 6525   0.540   3.598   5.844
 2065SOL     OW 6526   0.249   3.647   6.827
 2065SOL    HW1 6527   0.306   3.582   6.877
 2065SOL    HW2 6528   0.233   3.614   6.734
 2066SOL     OW 6529   0.940   3.560   6.490
 2066SOL    HW1 6530   1.020   3.503   6.511
 2066SOL    HW2 6531   0.891   3.520   6.413
 2067SOL     OW 6532   0.382   2.562   6.066
 2067SOL    HW1 6533   0.427   2.472   6.063
 2067SOL    HW2 6534   0.288   2.551   6.099
 2068SOL     OW 6535   1.547   2.084   7.315
 2068SOL    HW1 6536   1.542   2.121   7.407
 2068SOL    HW2 6537   1.475   2.015   7.303
 2069SOL     OW 6538   0.614   1.984   5.703
 2069SOL    HW1 6539   0.712   1.962   5.710
 2069SOL    HW2 6540   0.583   1.967   5.610
 2070SOL     OW 6541   0.781   2.126   7.335
 2070SOL    HW1 6542   0.848   2.065   7.378
 2070SOL    HW2 6543   0.708   2.145   7.400
 2071SOL     OW 6544   0.888   3.376   6.781
 2071SOL    HW1 6545   0.865   3.351   6.687
 2071SOL    HW2 6546   0.949   3.307   6.820
 2072SOL     OW 6547   1.351   2.452   7.019
 2072SOL    HW1 6548   1.379   2.409   7.104
 2072SOL    HW2 6549   1.376   2.548   7.020
 2073SOL     OW 6550   0.803   3.264   6.510
 2073SOL    HW1 6551   0.893   3.278   6.468
 2073SOL    HW2 6552   0.732   3.266   6.439
 2074SOL     OW 6553   0.922   2.365   6.485
 2074SOL    HW1 6554   0.897   2.356   6.389
 2074SOL    HW2 6555   0.970   2.283   6.516
 2075SOL     OW 6556   0.539   1.926   6.098
 2075SOL    HW1 6557   0.458   1.927   6.156
 2075SOL    HW2 6558   0.542   2.009   6.043
 2076SOL     OW 6559   1.434   3.050   5.627
 2076SOL    HW1 6560   1.466   2.974   5.684
 2076SOL    HW2 6561   1.342   3.077   5.657
 2077SOL     OW 6562   0.297   1.897   5.757
 2077SOL    HW1 6563   0.346   1.981   5.736
 2077SOL    HW2 6564   0.359   1.832   5.802
 2078SOL     OW 6565   0.935   2.098   6.066
 2078SOL    HW1 6566   0.887   2.139   5.988
 2078SOL    HW2 6567   1.034   2.096   6.047
 2079SOL     OW 6568   1.076   2.545   7.050
 2079SOL    HW1 6569   0.996   2.484   7.053
 2079SOL    HW2 6570   1.157   2.492   7.026
 2080SOL     OW 6571   1.227   3.432   6.379
 2080SOL    HW1 6572   1.248   3.506   6.314
 2080SOL    HW2 6573   1.295   3.432   6.452
 2081SOL     OW 6574   0.459   3.014   6.327
 2081SOL    HW1 6575   0.388   2.987   6.392
 2081SOL    HW2 6576   0.433   2.986   6.234
 2082SOL     OW 6577   1.271   3.659   6.177
 2082SOL    HW1 6578   1.315   3.723   6.113
 2082SOL    HW2 6579   1.221   3.711   6.247
 2083SOL     OW 6580   1.032   2.411   5.602
 2083SOL    HW1 6581   0.991   2.493   5.563
 2083SOL    HW2 6582   1.096   2.437   5.675
 2084SOL     OW 6583   0.078   2.418   6.972
 2084SOL    HW1 6584   0.170   2.417   6.931
 2084SOL    HW2 6585   0.072   2.492   7.039
 2085SOL     OW 6586   0.561   2.084   6.733
 2085SOL    HW1 6587   0.599   2.000   6.770
 2085SOL    HW2 6588   0.473   2.103   6.777
 2086SOL     OW 6589   0.866   2.316   6.228
 2086SOL    HW1 6590   0.834   2.388   6.166
 2086SOL    HW2 6591   0.890   2.235   6.175
 2087SOL     OW 6592   1.017   1.901   6.339
 2087SOL    HW1 6593   0.945   1.906   6.270
 2087SOL    HW2 6594   0.993   1.832   6.408
 2088SOL     OW 6595   1.429   3.035   6.453
 2088SOL    HW1 6596   1.374   2.951   6.446
 2088SOL    HW2 6597   1.455   3.064   6.361
 2089SOL     OW 6598   1.466   2.452   6.578
 2089SOL    HW1 6599   1.436   2.357   6.585
 2089SOL    HW2 6600   1.539   2.468   6.644
 2090SOL     OW 6601   0.488   3.247   5.760
 2090SOL    HW1 6602   0.401   3.232   5.807
 2090SOL    HW2 6603   0.471   3.273   5.665
 2091SOL     OW 6604   1.664   3.142   6.243
 2091SOL    HW1 6605   1.763   3.150   6.257
 2091SOL    HW2 6606   1.619   3.226   6.274
 2092SOL     OW 6607   1.390   2.437   5.664
 2092SOL    HW1 6608   1.336   2.416   5.745
 2092SOL    HW2 6609   1.481   2.396   5.673
 2093SOL     OW 6610   0.527   2.118   5.914
 2093SOL    HW1 6611   0.554   2.059   5.839
 2093SOL    HW2 6612   0.527   2.213   5.883
 2094SOL     OW 6613   1.754   3.085   7.174
 2094SOL    HW1 6614   1.845   3.046   7.161
 2094SOL    HW2 6615   1.762   3.181   7.198
 2095SOL     OW 6616   1.064   3.209   6.926
 2095SOL    HW1 6617   0.984   3.186   6.981
 2095SOL    HW2 6618   1.147   3.183   6.975
 2096SOL     OW 6619   1.592   3.491   7.211
 2096SOL    HW1 6620   1.619   3.525   7.121
 2096SOL    HW2 6621   1.671   3.453   7.257
 2097SOL     OW 6622   1.111   3.057   6.686
 2097SOL    HW1 6623   1.071   3.101   6.767
 2097SOL    HW2 6624   1.070   3.094   6.603
 2098SOL     OW 6625   1.638   2.961   6.665
 2098SOL    HW1 6626   1.643   3.042   6.724
 2098SOL    HW2 6627   1.552   2.963   6.614
 2099SOL     OW 6628   0.915   1.951   6.988
 2099SOL    HW1 6629   0.940   1.931   6.893
 2099SOL    HW2 6630   0.987   2.007   7.030
 2100SOL     OW 6631   0.980   2.978   7.305
 2100SOL    HW1 6632   0.881   2.984   7.315
 2100SOL    HW2 6633   1.003   2.898   7.249
 2101SOL     OW 6634   0.705   2.912   5.954
 2101SOL    HW1 6635   0.691   2.919   6.053
 2101SOL    HW2 6636   0.789   2.861   5.936
 2102SOL     OW 6637   0.410   2.675   6.837
 2102SOL    HW1 6638   0.496   2.687   6.887
 2102SOL    HW2 6639   0.368   2.588   6.864
 2103SOL     OW 6640   1.274   2.248   6.848
 2103SOL    HW1 6641   1.295   2.322   6.912
 2103SOL    HW2 6642   1.185   2.265   6.805
 2104SOL     OW 6643   0.064   3.426   6.917
 2104SOL    HW1 6644   0.018   3.508   6.883
 2104SOL    HW2 6645   0.162   3.445   6.926
 2105SOL     OW 6646   0.367   2.962   6.087
 2105SOL    HW1 6647   0.360   3.045   6.031
 2105SOL    HW2 6648   0.371   2.882   6.027
 2106SOL     OW 6649   0.566   2.399   6.451
 2106SOL    HW1 6650   0.578   2.465   6.377
 2106SOL    HW2 6651   0.612   2.433   6.534
 2107SOL     OW 6652   1.252   3.210   5.974
 2107SOL    HW1 6653   1.302   3.287   6.014
 2107SOL    HW2 6654   1.157   3.212   6.006
 2108SOL     OW 6655   1.272   3.307   6.728
 2108SOL    HW1 6656   1.319   3.320   6.815
 2108SOL    HW2 6657   1.206   3.233   6.737
 2109SOL     OW 6658   0.354   3.372   6.915
 2109SOL    HW1 6659   0.333   3.328   6.828
 2109SOL    HW2 6660   0.451   3.398   6.918
 2110SOL     OW 6661   0.402   2.613   7.184
 2110SOL    HW1 6662   0.470   2.668   7.137
 2110SOL    HW2 6663   0.442   2.525   7.211
 2111SOL     OW 6664   1.587   2.641   7.256
 2111SOL    HW1 6665   1.495   2.679   7.251
 2111SOL    HW2 6666   1.647   2.688   7.191
 2112SOL     OW 6667   1.013   1.967   7.356
 2112SOL    HW1 6668   1.019   2.052   7.304
 2112SOL    HW2 6669   1.045   1.891   7.299
 2113SOL     OW 6670   0.504   1.912   7.326
 2113SOL    HW1 6671   0.462   1.855   7.256
 2113SOL    HW2 6672   0.438   1.981   7.358
 2114SOL     OW 6673   0.573   2.732   6.615
 2114SOL    HW1 6674   0.617   2.821   6.606
 2114SOL    HW2 6675   0.510   2.732   6.692
 2115SOL     OW 6676   1.360   2.724   6.631
 2115SOL    HW1 6677   1.285   2.724   6.565
 2115SOL    HW2 6678   1.397   2.632   6.640
 2116SOL     OW 6679   1.209   2.387   5.861
 2116SOL    HW1 6680   1.222   2.303   5.915
 2116SOL    HW2 6681   1.180   2.461   5.921
 2117SOL     OW 6682   0.307   2.075   6.817
 2117SOL    HW1 6683   0.284   2.112   6.907
 2117SOL    HW2 6684   0.277   1.980   6.811
 2118SOL     OW 6685   0.037   3.172   6.868
 2118SOL    HW1 6686   0.090   3.123   6.936
 2118SOL    HW2 6687   0.059   3.270   6.873
 2119SOL     OW 6688   0.732   2.496   6.650
 2119SOL    HW1 6689   0.791   2.470   6.574
 2119SOL    HW2 6690   0.704   2.592   6.639
 2120SOL     OW 6691   1.728   2.797   7.440
 2120SOL    HW1 6692   1.682   2.790   7.351
 2120SOL    HW2 6693   1.666   2.841   7.506
 2121SOL     OW 6694   0.307   1.925   6.204
 2121SOL    HW1 6695   0.296   2.019   6.237
 2121SOL    HW2 6696   0.302   1.862   6.281
 2122SOL     OW 6697   1.023   2.628   6.552
 2122SOL    HW1 6698   1.038   2.649   6.648
 2122SOL    HW2 6699   0.993   2.533   6.543
 2123SOL     OW 6700   0.980   3.435   7.286
 2123SOL    HW1 6701   0.960   3.479   7.198
 2123SOL    HW2 6702   1.019   3.344   7.270
 2124SOL     OW 6703   1.859   3.380   7.191
 2124SOL    HW1 6704   1.873   3.407   7.096
 2124SOL    HW2 6705   1.942   3.402   7.244
 2125SOL     OW 6706   0.350   2.760   7.390
 2125SOL    HW1 6707   0.426   2.804   7.438
 2125SOL    HW2 6708   0.385   2.713   7.308
 2126SOL     OW 6709   1.303   2.700   5.628
 2126SOL    HW1 6710   1.337   2.607   5.643
 2126SOL    HW2 6711   1.321   2.727   5.533
 2127SOL     OW 6712   1.068   3.195   6.435
 2127SOL    HW1 6713   1.075   3.111   6.380
 2127SOL    HW2 6714   1.130   3.264   6.399
 2128SOL     OW 6715   0.319   2.672   6.535
 2128SOL    HW1 6716   0.412   2.708   6.540
 2128SOL    HW2 6717   0.313   2.587   6.587
 2129SOL     OW 6718   0.339   2.371   6.592
 2129SOL    HW1 6719   0.287   2.288   6.575
 2129SOL    HW2 6720   0.416   2.376   6.528
 2130SOL     OW 6721   1.138   2.242   7.264
 2130SOL    HW1 6722   1.093   2.305   7.328
 2130SOL    HW2 6723   1.231   2.273   7.247
 2131SOL     OW 6724   1.160   2.069   7.063
 2131SOL    HW1 6725   1.160   2.133   7.140
 2131SOL    HW2 6726   1.188   2.117   6.980
 2132SOL     OW 6727   0.008   3.188   5.786
 2132SOL    HW1 6728  -0.085   3.209   5.755
 2132SOL    HW2 6729   0.018   3.089   5.799
 2133SOL     OW 6730   0.088   3.663   6.513
 2133SOL    HW1 6731   0.046   3.577   6.486
 2133SOL    HW2 6732   0.182   3.666   6.479
 2134SOL     OW 6733   0.504   3.430   6.496
 2134SOL    HW1 6734   0.570   3.504   6.505
 2134SOL    HW2 6735   0.548   3.351   6.454
 2135SOL     OW 6736   1.002   2.658   6.824
 2135SOL    HW1 6737   1.043   2.626   6.910
 2135SOL    HW2 6738   0.906   2.631   6.821
 2136SOL     OW 6739   0.040   2.406   6.700
 2136SOL    HW1 6740   0.125   2.373   6.659
 2136SOL    HW2 6741   0.053   2.421   6.798
 2137SOL     OW 6742   0.189   2.382   7.308
 2137SOL    HW1 6743   0.248   2.342   7.238
 2137SOL    HW2 6744   0.131   2.453   7.267
 2138SOL     OW 6745   1.369   2.812   7.246
 2138SOL    HW1 6746   1.408   2.901   7.266
 2138SOL    HW2 6747   1.379   2.792   7.149
 2139SOL     OW 6748   0.815   2.434   5.911
 2139SOL    HW1 6749   0.822   2.345   5.865
 2139SOL    HW2 6750   0.721   2.468   5.903
 2140SOL     OW 6751   1.657   2.466   6.792
 2140SOL    HW1 6752   1.619   2.397   6.854
 2140SOL    HW2 6753   1.739   2.430   6.748
 2141SOL     OW 6754   0.252   3.426   7.330
 2141SOL    HW1 6755   0.222   3.483   7.406
 2141SOL    HW2 6756   0.245   3.329   7.356
 2142SOL     OW 6757   0.671   2.326   6.855
 2142SOL    HW1 6758   0.637   2.237   6.825
 2142SOL    HW2 6759   0.697   2.380   6.775
 2143SOL     OW 6760   0.930   3.540   7.051
 2143SOL    HW1 6761   0.906   3.522   6.956
 2143SOL    HW2 6762   0.960   3.634   7.061
 2144SOL     OW 6763   0.473   2.362   5.777
 2144SOL    HW1 6764   0.534   2.442   5.781
 2144SOL    HW2 6765   0.378   2.393   5.784
 2145SOL     OW 6766   0.159   2.999   7.052
 2145SOL    HW1 6767   0.181   2.938   7.128
 2145SOL    HW2 6768   0.169   2.950   6.966
 2146SOL     OW 6769   1.347   2.921   6.820
 2146SOL    HW1 6770   1.371   2.858   6.746
 2146SOL    HW2 6771   1.257   2.961   6.802
 2147SOL     OW 6772   1.302   2.717   5.895
 2147SOL    HW1 6773   1.216   2.686   5.937
 2147SOL    HW2 6774   1.298   2.703   5.796
 2148SOL     OW 6775   1.759   3.609   6.740
 2148SOL    HW1 6776   1.820   3.639   6.667
 2148SOL    HW2 6777   1.721   3.520   6.718
 2149SOL     OW 6778   1.252   3.593   6.714
 2149SOL    HW1 6779   1.336   3.598   6.660
 2149SOL    HW2 6780   1.229   3.497   6.732
 2150SOL     OW 6781   0.083   3.120   6.608
 2150SOL    HW1 6782   0.078   3.119   6.708
 2150SOL    HW2 6783   0.000   3.079   6.570
 2151SOL     OW 6784   0.688   3.524   7.302
 2151SOL    HW1 6785   0.632   3.605   7.311
 2151SOL    HW2 6786   0.740   3.528   7.216
 2152SOL     OW 6787   1.388   3.435   6.063
 2152SOL    HW1 6788   1.455   3.447   5.989
 2152SOL    HW2 6789   1.348   3.524   6.086
 2153SOL     OW 6790   0.130   3.656   7.437
 2153SOL    HW1 6791   0.089   3.582   7.490
 2153SOL    HW2 6792   0.194   3.707   7.495
 2154SOL     OW 6793   1.280   2.789   6.258
 2154SOL    HW1 6794   1.340   2.708   6.260
 2154SOL    HW2 6795   1.320   2.858   6.198
 2155SOL     OW 6796   0.830   3.135   7.008
 2155SOL    HW1 6797   0.825   3.168   7.103
 2155SOL    HW2 6798   0.744   3.154   6.962
 2156SOL     OW 6799   0.672   3.478   5.740
 2156SOL    HW1 6800   0.681   3.488   5.641
 2156SOL    HW2 6801   0.632   3.389   5.761
 2157SOL     OW 6802   1.650   3.582   6.980
 2157SOL    HW1 6803   1.703   3.592   6.896
 2157SOL    HW2 6804   1.623   3.672   7.014
 2158SOL     OW 6805   1.841   2.037   6.549
 2158SOL    HW1 6806   1.880   1.952   6.513
 2158SOL    HW2 6807   1.743   2.039   6.530
 2159SOL     OW 6808   0.263   2.188   6.306
 2159SOL    HW1 6809   0.184   2.239   6.272
 2159SOL    HW2 6810   0.254   2.173   6.404
 2160SOL     OW 6811   1.194   3.474   5.617
 2160SOL    HW1 6812   1.200   3.381   5.654
 2160SOL    HW2 6813   1.135   3.474   5.537
 2161SOL     OW 6814   0.822   2.864   6.958
 2161SOL    HW1 6815   0.862   2.863   6.866
 2161SOL    HW2 6816   0.832   2.956   6.998
 2162SOL     OW 6817   0.916   2.772   5.877
 2162SOL    HW1 6818   0.979   2.810   5.809
 2162SOL    HW2 6819   0.956   2.689   5.916
 2163SOL     OW 6820   1.504   3.469   5.630
 2163SOL    HW1 6821   1.412   3.506   5.637
 2163SOL    HW2 6822   1.542   3.489   5.540
 2164SOL     OW 6823   0.372   3.150   7.076
 2164SOL    HW1 6824   0.359   3.243   7.042
 2164SOL    HW2 6825   0.288   3.098   7.063
 2165SOL     OW 6826   1.614   3.154   6.875
 2165SOL    HW1 6827   1.674   3.157   6.955
 2165SOL    HW2 6828   1.539   3.218   6.888
 2166SOL     OW 6829   1.039   2.960   6.282
 2166SOL    HW1 6830   0.969   2.913   6.336
 2166SOL    HW2 6831   1.098   2.892   6.239
 2167SOL     OW 6832   1.014   2.098   6.557
 2167SOL    HW1 6833   1.006   2.062   6.464
 2167SOL    HW2 6834   1.012   2.022   6.622
 2168SOL     OW 6835   0.590   3.349   6.077
 2168SOL    HW1 6836   0.632   3.291   6.007
 2168SOL    HW2 6837   0.546   3.428   6.033
 2169SOL     OW 6838   1.709   2.247   6.967
 2169SOL    HW1 6839   1.782   2.316   6.971
 2169SOL    HW2 6840   1.737   2.172   6.908
 2170SOL     OW 6841   0.255   3.210   5.876
 2170SOL    HW1 6842   0.159   3.211   5.849
 2170SOL    HW2 6843   0.267   3.263   5.960
 2171SOL     OW 6844   0.105   2.875   7.312
 2171SOL    HW1 6845   0.028   2.842   7.366
 2171SOL    HW2 6846   0.190   2.845   7.354
 2172SOL     OW 6847   0.672   2.065   7.075
 2172SOL    HW1 6848   0.762   2.049   7.035
 2172SOL    HW2 6849   0.680   2.070   7.174
 2173SOL     OW 6850   0.075   2.207   5.619
 2173SOL    HW1 6851  -0.017   2.179   5.590
 2173SOL    HW2 6852   0.106   2.284   5.563
 2174SOL     OW 6853   1.440   2.718   6.984
 2174SOL    HW1 6854   1.383   2.770   6.921
 2174SOL    HW2 6855   1.536   2.730   6.960
 2175SOL     OW 6856   0.072   2.028   5.904
 2175SOL    HW1 6857   0.055   2.111   5.850
 2175SOL    HW2 6858   0.162   1.991   5.882
 2176SOL     OW 6859   1.183   3.197   5.705
 2176SOL    HW1 6860   1.084   3.186   5.707
 2176SOL    HW2 6861   1.217   3.212   5.798
 2177SOL     OW 6862   0.613   2.704   7.017
 2177SOL    HW1 6863   0.669   2.785   7.000
 2177SOL    HW2 6864   0.672   2.624   7.020
 2178SOL     OW 6865   1.493   3.629   6.545
 2178SOL    HW1 6866   1.526   3.693   6.476
 2178SOL    HW2 6867   1.559   3.623   6.620
 2179SOL     OW 6868   0.716   2.427   7.294
 2179SOL    HW1 6869   0.735   2.492   7.368
 2179SOL    HW2 6870   0.776   2.347   7.303
 2180SOL     OW 6871   1.450   3.082   7.219
 2180SOL    HW1 6872   1.441   3.072   7.318
 2180SOL    HW2 6873   1.546   3.075   7.193
 2181SOL     OW 6874   0.390   3.603   7.146
 2181SOL    HW1 6875   0.299   3.644   7.144
 2181SOL    HW2 6876   0.383   3.509   7.178
 2182SOL     OW 6877   1.674   2.745   6.840
 2182SOL    HW1 6878   1.647   2.656   6.803
 2182SOL    HW2 6879   1.675   2.813   6.767
 2183SOL     OW 6880   1.225   2.187   6.035
 2183SOL    HW1 6881   1.290   2.113   6.024
 2183SOL    HW2 6882   1.245   2.237   6.119
 2184SOL     OW 6883   0.594   2.607   6.238
 2184SOL    HW1 6884   0.644   2.692   6.219
 2184SOL    HW2 6885   0.506   2.609   6.190
 2185SOL     OW 6886   1.777   2.204   7.228
 2185SOL    HW1 6887   1.760   2.235   7.134
 2185SOL    HW2 6888   1.693   2.167   7.266
 2186SOL     OW 6889   1.730   2.796   7.103
 2186SOL    HW1 6890   1.768   2.887   7.118
 2186SOL    HW2 6891   1.722   2.779   7.004
 2187SOL     OW 6892   0.859   3.236   5.602
 2187SOL    HW1 6893   0.813   3.251   5.690
 2187SOL    HW2 6894   0.903   3.321   5.572
 2188SOL     OW 6895   0.661   3.652   6.539
 2188SOL    HW1 6896   0.615   3.740   6.526
 2188SOL    HW2 6897   0.760   3.664   6.532
 2189SOL     OW 6898   0.859   2.818   6.447
 2189SOL    HW1 6899   0.913   2.749   6.495
 2189SOL    HW2 6900   0.827   2.887   6.513
 2190SOL     OW 6901   1.083   2.846   5.673
 2190SOL    HW1 6902   1.060   2.899   5.591
 2190SOL    HW2 6903   1.164   2.790   5.654
 2191SOL     OW 6904   1.861   3.431   6.437
 2191SOL    HW1 6905   1.790   3.419   6.367
 2191SOL    HW2 6906   1.862   3.352   6.497
 2192SOL     OW 6907   0.221   3.176   7.430
 2192SOL    HW1 6908   0.156   3.103   7.409
 2192SOL    HW2 6909   0.225   3.190   7.528
 2193SOL     OW 6910   0.079   3.102   6.239
 2193SOL    HW1 6911   0.078   3.055   6.327
 2193SOL    HW2 6912   0.161   3.074   6.188
 2194SOL     OW 6913   0.672   3.253   7.210
 2194SOL    HW1 6914   0.594   3.203   7.248
 2194SOL    HW2 6915   0.669   3.348   7.241
 2195SOL     OW 6916   1.824   2.054   6.813
 2195SOL    HW1 6917   1.820   1.964   6.857
 2195SOL    HW2 6918   1.827   2.043   6.714
 2196SOL     OW 6919   0.428   2.286   6.106
 2196SOL    HW1 6920   0.458   2.214   6.044
 2196SOL    HW2 6921   0.389   2.246   6.189
 2197SOL     OW 6922   1.705   3.349   6.690
 2197SOL    HW1 6923   1.612   3.324   6.663
 2197SOL    HW2 6924   1.731   3.299   6.772
 2198SOL     OW 6925   0.317   2.409   6.866
 2198SOL    HW1 6926   0.355   2.350   6.938
 2198SOL    HW2 6927   0.357   2.383   6.778
 2199SOL     OW 6928   0.812   3.448   6.273
 2199SOL    HW1 6929   0.844   3.458   6.179
 2199SOL    HW2 6930   0.733   3.386   6.275
 2200SOL     OW 6931   1.424   2.076   6.698
 2200SOL    HW1 6932   1.476   2.011   6.753
 2200SOL    HW2 6933   1.375   2.139   6.759
 2201SOL     OW 6934   1.001   1.896   6.740
 2201SOL    HW1 6935   0.938   1.824   6.709
 2201SOL    HW2 6936   1.094   1.860   6.740
 2202SOL     OW 6937   0.770   3.192   5.887
 2202SOL    HW1 6938   0.724   3.105   5.904
 2202SOL    HW2 6939   0.861   3.189   5.928
 2203SOL     OW 6940   0.618   3.429   6.870
 2203SOL    HW1 6941   0.613   3.511   6.927
 2203SOL    HW2 6942   0.707   3.426   6.825
 2204SOL     OW 6943   1.352   1.914   5.754
 2204SOL    HW1 6944   1.387   1.873   5.670
 2204SOL    HW2 6945   1.262   1.876   5.774
 2205SOL     OW 6946   1.300   2.315   6.277
 2205SOL    HW1 6947   1.241   2.395   6.281
 2205SOL    HW2 6948   1.315   2.280   6.370
 2206SOL     OW 6949   1.593   2.083   6.468
 2206SOL    HW1 6950   1.509   2.082   6.522
 2206SOL    HW2 6951   1.595   2.166   6.412
 2207SOL     OW 6952   0.039   2.939   5.886
 2207SOL    HW1 6953   0.138   2.928   5.877
 2207SOL    HW2 6954  -0.001   2.853   5.918
 2208SOL     OW 6955   0.875   3.508   5.923
 2208SOL    HW1 6956   0.798   3.473   5.869
 2208SOL    HW2 6957   0.843   3.579   5.985
 2209SOL     OW 6958   0.230   2.490   7.561
 2209SOL    HW1 6959   0.137   2.488   7.598
 2209SOL    HW2 6960   0.231   2.451   7.469
 2210SOL     OW 6961   0.225   2.137   8.444
 2210SOL    HW1 6962   0.260   2.120   8.536
 2210SOL    HW2 6963   0.137   2.092   8.432
 2211SOL     OW 6964   0.019   2.230   8.095
 2211SOL    HW1 6965  -0.063   2.273   8.134
 2211SOL    HW2 6966  -0.009   2.157   8.032
 2212SOL     OW 6967   0.569   3.137   8.613
 2212SOL    HW1 6968   0.476   3.130   8.576
 2212SOL    HW2 6969   0.580   3.226   8.657
 2213SOL     OW 6970   1.555   3.373   8.151
 2213SOL    HW1 6971   1.498   3.357   8.232
 2213SOL    HW2 6972   1.496   3.383   8.071
 2214SOL     OW 6973   1.135   2.565   8.165
 2214SOL    HW1 6974   1.192   2.643   8.140
 2214SOL    HW2 6975   1.075   2.591   8.241
 2215SOL     OW 6976   1.755   2.469   7.679
 2215SOL    HW1 6977   1.743   2.456   7.580
 2215SOL    HW2 6978   1.725   2.388   7.728
 2216SOL     OW 6979   0.768   3.006   8.471
 2216SOL    HW1 6980   0.690   3.023   8.531
 2216SOL    HW2 6981   0.802   3.093   8.435
 2217SOL     OW 6982   0.850   2.660   9.271
 2217SOL    HW1 6983   0.846   2.736   9.336
 2217SOL    HW2 6984   0.872   2.696   9.180
 2218SOL     OW 6985   0.685   2.874   8.113
 2218SOL    HW1 6986   0.754   2.858   8.183
 2218SOL    HW2 6987   0.612   2.931   8.151
 2219SOL     OW 6988   0.686   3.023   9.251
 2219SOL    HW1 6989   0.746   3.102   9.265
 2219SOL    HW2 6990   0.600   3.054   9.210
 2220SOL     OW 6991   0.335   3.297   8.509
 2220SOL    HW1 6992   0.257   3.266   8.456
 2220SOL    HW2 6993   0.393   3.355   8.452
 2221SOL     OW 6994   1.460   3.367   8.787
 2221SOL    HW1 6995   1.484   3.461   8.813
 2221SOL    HW2 6996   1.444   3.313   8.869
 2222SOL     OW 6997   0.438   2.254   8.947
 2222SOL    HW1 6998   0.520   2.198   8.956
 2222SOL    HW2 6999   0.357   2.196   8.951
 2223SOL     OW 7000   1.603   2.309   8.185
 2223SOL    HW1 7001   1.529   2.355   8.135
 2223SOL    HW2 7002   1.654   2.377   8.238
 2224SOL     OW 7003   0.231   3.575   7.931
 2224SOL    HW1 7004   0.265   3.652   7.985
 2224SOL    HW2 7005   0.275   3.575   7.841
 2225SOL     OW 7006   1.127   3.203   9.138
 2225SOL    HW1 7007   1.174   3.203   9.226
 2225SOL    HW2 7008   1.079   3.116   9.127
 2226SOL     OW 7009   0.230   3.296   7.986
 2226SOL    HW1 7010   0.204   3.392   7.986
 2226SOL    HW2 7011   0.159   3.242   8.031
 2227SOL     OW 7012   0.240   2.953   8.334
 2227SOL    HW1 7013   0.254   2.869   8.386
 2227SOL    HW2 7014   0.185   3.017   8.389
 2228SOL     OW 7015   0.620   3.648   8.887
 2228SOL    HW1 7016   0.528   3.631   8.922
 2228SOL    HW2 7017   0.648   3.740   8.913
 2229SOL     OW 7018   0.606   2.826   7.571
 2229SOL    HW1 7019   0.613   2.910   7.517
 2229SOL    HW2 7020   0.652   2.839   7.659
 2230SOL     OW 7021   1.594   1.976   8.928
 2230SOL    HW1 7022   1.576   2.043   8.856
 2230SOL    HW2 7023   1.591   2.022   9.017
 2231SOL     OW 7024   0.122   2.505   8.011
 2231SOL    HW1 7025   0.077   2.417   8.028
 2231SOL    HW2 7026   0.121   2.559   8.095
 2232SOL     OW 7027   1.842   3.629   7.807
 2232SOL    HW1 7028   1.896   3.600   7.887
 2232SOL    HW2 7029   1.872   3.719   7.778
 2233SOL     OW 7030   0.027   3.458   7.565
 2233SOL    HW1 7031   0.008   3.362   7.586
 2233SOL    HW2 7032  -0.006   3.516   7.640
 2234SOL     OW 7033   1.689   2.784   8.060
 2234SOL    HW1 7034   1.784   2.755   8.068
 2234SOL    HW2 7035   1.681   2.849   7.985
 2235SOL     OW 7036   1.641   2.970   7.880
 2235SOL    HW1 7037   1.727   2.972   7.828
 2235SOL    HW2 7038   1.655   3.017   7.968
 2236SOL     OW 7039   0.113   2.599   9.045
 2236SOL    HW1 7040   0.201   2.586   9.090
 2236SOL    HW2 7041   0.100   2.696   9.023
 2237SOL     OW 7042   0.613   3.227   8.174
 2237SOL    HW1 7043   0.564   3.140   8.183
 2237SOL    HW2 7044   0.590   3.270   8.087
 2238SOL     OW 7045   1.293   3.090   8.871
 2238SOL    HW1 7046   1.330   3.017   8.813
 2238SOL    HW2 7047   1.345   3.095   8.956
 2239SOL     OW 7048   0.809   1.866   7.950
 2239SOL    HW1 7049   0.849   1.957   7.941
 2239SOL    HW2 7050   0.709   1.874   7.956
 2240SOL     OW 7051   0.197   2.838   8.712
 2240SOL    HW1 7052   0.286   2.793   8.698
 2240SOL    HW2 7053   0.124   2.773   8.693
 2241SOL     OW 7054   1.525   2.861   7.638
 2241SOL    HW1 7055   1.462   2.785   7.651
 2241SOL    HW2 7056   1.573   2.879   7.724
 2242SOL     OW 7057   1.187   3.654   9.064
 2242SOL    HW1 7058   1.211   3.714   8.988
 2242SOL    HW2 7059   1.194   3.559   9.034
 2243SOL     OW 7060   0.317   2.113   9.249
 2243SOL    HW1 7061   0.388   2.184   9.255
 2243SOL    HW2 7062   0.229   2.152   9.277
 2244SOL     OW 7063   1.466   3.279   8.401
 2244SOL    HW1 7064   1.407   3.285   8.481
 2244SOL    HW2 7065   1.451   3.191   8.355
 2245SOL     OW 7066   1.667   3.576   8.020
 2245SOL    HW1 7067   1.626   3.553   7.932
 2245SOL    HW2 7068   1.649   3.502   8.085
 2246SOL     OW 7069   0.598   2.591   7.718
 2246SOL    HW1 7070   0.622   2.660   7.650
 2246SOL    HW2 7071   0.520   2.624   7.772
 2247SOL     OW 7072   1.281   2.207   8.392
 2247SOL    HW1 7073   1.195   2.157   8.379
 2247SOL    HW2 7074   1.343   2.153   8.448
 2248SOL     OW 7075   1.576   3.524   7.755
 2248SOL    HW1 7076   1.665   3.570   7.758
 2248SOL    HW2 7077   1.555   3.500   7.660
 2249SOL     OW 7078   0.807   2.467   8.913
 2249SOL    HW1 7079   0.760   2.464   9.002
 2249SOL    HW2 7080   0.756   2.412   8.847
 2250SOL     OW 7081   1.394   2.331   9.122
 2250SOL    HW1 7082   1.374   2.374   9.210
 2250SOL    HW2 7083   1.472   2.269   9.131
 2251SOL     OW 7084   0.973   2.752   9.020
 2251SOL    HW1 7085   1.019   2.668   8.991
 2251SOL    HW2 7086   0.917   2.786   8.945
 2252SOL     OW 7087   0.991   2.272   8.690
 2252SOL    HW1 7088   0.914   2.306   8.744
 2252SOL    HW2 7089   0.957   2.221   8.611
 2253SOL     OW 7090   1.041   2.563   7.877
 2253SOL    HW1 7091   1.067   2.559   7.973
 2253SOL    HW2 7092   0.956   2.512   7.863
 2254SOL     OW 7093   0.076   2.673   8.237
 2254SOL    HW1 7094   0.175   2.661   8.246
 2254SOL    HW2 7095   0.052   2.768   8.258
 2255SOL     OW 7096   0.130   3.683   9.019
 2255SOL    HW1 7097   0.120   3.668   9.118
 2255SOL    HW2 7098   0.044   3.719   8.983
 2256SOL     OW 7099   0.865   2.210   7.643
 2256SOL    HW1 7100   0.924   2.273   7.594
 2256SOL    HW2 7101   0.884   2.116   7.614
 2257SOL     OW 7102   1.719   2.447   9.279
 2257SOL    HW1 7103   1.693   2.536   9.243
 2257SOL    HW2 7104   1.717   2.379   9.206
 2258SOL     OW 7105   1.362   3.006   7.993
 2258SOL    HW1 7106   1.445   2.977   7.945
 2258SOL    HW2 7107   1.313   3.073   7.937
 2259SOL     OW 7108   0.550   2.058   8.333
 2259SOL    HW1 7109   0.545   2.053   8.433
 2259SOL    HW2 7110   0.552   2.154   8.304
 2260SOL     OW 7111   1.008   3.318   7.925
 2260SOL    HW1 7112   0.962   3.390   7.873
 2260SOL    HW2 7113   1.004   3.338   8.023
 2261SOL     OW 7114   0.351   3.663   8.301
 2261SOL    HW1 7115   0.401   3.577   8.307
 2261SOL    HW2 7116   0.416   3.740   8.298
 2262SOL     OW 7117   1.795   2.928   8.321
 2262SOL    HW1 7118   1.733   2.913   8.245
 2262SOL    HW2 7119   1.743   2.939   8.406
 2263SOL     OW 7120   1.227   3.412   8.954
 2263SOL    HW1 7121   1.233   3.335   9.018
 2263SOL    HW2 7122   1.175   3.386   8.874
 2264SOL     OW 7123   0.321   2.805   7.690
 2264SOL    HW1 7124   0.403   2.844   7.648
 2264SOL    HW2 7125   0.294   2.723   7.641
 2265SOL     OW 7126   1.458   2.597   8.176
 2265SOL    HW1 7127   1.453   2.532   8.251
 2265SOL    HW2 7128   1.538   2.656   8.189
 2266SOL     OW 7129   0.461   3.128   9.175
 2266SOL    HW1 7130   0.411   3.129   9.089
 2266SOL    HW2 7131   0.398   3.110   9.251
 2267SOL     OW 7132   1.111   3.638   7.685
 2267SOL    HW1 7133   1.051   3.576   7.735
 2267SOL    HW2 7134   1.142   3.594   7.600
 2268SOL     OW 7135   0.202   2.147   8.946
 2268SOL    HW1 7136   0.122   2.207   8.933
 2268SOL    HW2 7137   0.192   2.098   9.032
 2269SOL     OW 7138   1.632   3.239   7.529
 2269SOL    HW1 7139   1.600   3.333   7.519
 2269SOL    HW2 7140   1.556   3.176   7.517
 2270SOL     OW 7141   0.464   3.605   7.771
 2270SOL    HW1 7142   0.497   3.644   7.857
 2270SOL    HW2 7143   0.540   3.598   7.706
 2271SOL     OW 7144   1.400   1.969   7.874
 2271SOL    HW1 7145   1.376   1.932   7.784
 2271SOL    HW2 7146   1.499   1.985   7.878
 2272SOL     OW 7147   0.249   3.647   8.689
 2272SOL    HW1 7148   0.306   3.582   8.739
 2272SOL    HW2 7149   0.233   3.614   8.596
 2273SOL     OW 7150   0.940   3.560   8.352
 2273SOL    HW1 7151   1.020   3.503   8.373
 2273SOL    HW2 7152   0.891   3.520   8.275
 2274SOL     OW 7153   0.382   2.562   7.928
 2274SOL    HW1 7154   0.427   2.472   7.925
 2274SOL    HW2 7155   0.288   2.551   7.961
 2275SOL     OW 7156   1.547   2.084   9.177
 2275SOL    HW1 7157   1.542   2.121   9.269
 2275SOL    HW2 7158   1.475   2.015   9.165
 2276SOL     OW 7159   0.614   1.984   7.565
 2276SOL    HW1 7160   0.712   1.962   7.572
 2276SOL    HW2 7161   0.583   1.967   7.472
 2277SOL     OW 7162   0.781   2.126   9.197
 2277SOL    HW1 7163   0.848   2.065   9.240
 2277SOL    HW2 7164   0.708   2.145   9.262
 2278SOL     OW 7165   0.888   3.376   8.643
 2278SOL    HW1 7166   0.865   3.351   8.549
 2278SOL    HW2 7167   0.949   3.307   8.682
 2279SOL     OW 7168   1.351   2.452   8.881
 2279SOL    HW1 7169   1.379   2.409   8.966
 2279SOL    HW2 7170   1.376   2.548   8.882
 2280SOL     OW 7171   0.803   3.264   8.372
 2280SOL    HW1 7172   0.893   3.278   8.330
 2280SOL    HW2 7173   0.732   3.266   8.301
 2281SOL     OW 7174   0.922   2.365   8.347
 2281SOL    HW1 7175   0.897   2.356   8.251
 2281SOL    HW2 7176   0.970   2.283   8.378
 2282SOL     OW 7177   0.539   1.926   7.960
 2282SOL    HW1 7178   0.458   1.927   8.018
 2282SOL    HW2 7179   0.542   2.009   7.905
 2283SOL     OW 7180   1.434   3.050   7.489
 2283SOL    HW1 7181   1.466   2.974   7.546
 2283SOL    HW2 7182   1.342   3.077   7.519
 2284SOL     OW 7183   0.297   1.897   7.619
 2284SOL    HW1 7184   0.346   1.981   7.598
 2284SOL    HW2 7185   0.359   1.832   7.664
 2285SOL     OW 7186   0.935   2.098   7.928
 2285SOL    HW1 7187   0.887   2.139   7.850
 2285SOL    HW2 7188   1.034   2.096   7.909
 2286SOL     OW 7189   1.076   2.545   8.912
 2286SOL    HW1 7190   0.996   2.484   8.915
 2286SOL    HW2 7191   1.157   2.492   8.888
 2287SOL     OW 7192   1.227   3.432   8.241
 2287SOL    HW1 7193   1.248   3.506   8.176
 2287SOL    HW2 7194   1.295   3.432   8.314
 2288SOL     OW 7195   0.459   3.014   8.189
 2288SOL    HW1 7196   0.388   2.987   8.254
 2288SOL    HW2 7197   0.433   2.986   8.096
 2289SOL     OW 7198   1.271   3.659   8.039
 2289SOL    HW1 7199   1.315   3.723   7.975
 2289SOL    HW2 7200   1.221   3.711   8.109
 2290SOL     OW 7201   1.032   2.411   7.464
 2290SOL    HW1 7202   0.991   2.493   7.425
 2290SOL    HW2 7203   1.096   2.437   7.537
 2291SOL     OW 7204   0.078   2.418   8.834
 2291SOL    HW1 7205   0.170   2.417   8.793
 2291SOL    HW2 7206   0.072   2.492   8.901
 2292SOL     OW 7207   0.561   2.084   8.595
 2292SOL    HW1 7208   0.599   2.000   8.632
 2292SOL    HW2 7209   0.473   2.103   8.639
 2293SOL     OW 7210   0.866   2.316   8.090
 2293SOL    HW1 7211   0.834   2.388   8.028
 2293SOL    HW2 7212   0.890   2.235   8.037
 2294SOL     OW 7213   1.017   1.901   8.201
 2294SOL    HW1 7214   0.945   1.906   8.132
 2294SOL    HW2 7215   0.993   1.832   8.270
 2295SOL     OW 7216   1.429   3.035   8.315
 2295SOL    HW1 7217   1.374   2.951   8.308
 2295SOL    HW2 7218   1.455   3.064   8.223
 2296SOL     OW 7219   1.466   2.452   8.440
 2296SOL    HW1 7220   1.436   2.357   8.447
 2296SOL    HW2 7221   1.539   2.468   8.506
 2297SOL     OW 7222   1.857   2.695   7.825
 2297SOL    HW1 7223   1.899   2.631   7.889
 2297SOL    HW2 7224   1.819   2.644   7.747
 2298SOL     OW 7225   0.488   3.247   7.622
 2298SOL    HW1 7226   0.401   3.232   7.669
 2298SOL    HW2 7227   0.471   3.273   7.527
 2299SOL     OW 7228   1.664   3.142   8.105
 2299SOL    HW1 7229   1.763   3.150   8.119
 2299SOL    HW2 7230   1.619   3.226   8.136
 2300SOL     OW 7231   1.390   2.437   7.526
 2300SOL    HW1 7232   1.336   2.416   7.607
 2300SOL    HW2 7233   1.481   2.396   7.535
 2301SOL     OW 7234   0.527   2.118   7.776
 2301SOL    HW1 7235   0.554   2.059   7.701
 2301SOL    HW2 7236   0.527   2.213   7.745
 2302SOL     OW 7237   1.754   3.085   9.036
 2302SOL    HW1 7238   1.845   3.046   9.023
 2302SOL    HW2 7239   1.762   3.181   9.060
 2303SOL     OW 7240   1.064   3.209   8.788
 2303SOL    HW1 7241   0.984   3.186   8.843
 2303SOL    HW2 7242   1.147   3.183   8.837
 2304SOL     OW 7243   1.592   3.491   9.073
 2304SOL    HW1 7244   1.619   3.525   8.983
 2304SOL    HW2 7245   1.671   3.453   9.119
 2305SOL     OW 7246   1.111   3.057   8.548
 2305SOL    HW1 7247   1.071   3.101   8.629
 2305SOL    HW2 7248   1.070   3.094   8.465
 2306SOL     OW 7249   1.638   2.961   8.527
 2306SOL    HW1 7250   1.643   3.042   8.586
 2306SOL    HW2 7251   1.552   2.963   8.476
 2307SOL     OW 7252   0.915   1.951   8.850
 2307SOL    HW1 7253   0.940   1.931   8.755
 2307SOL    HW2 7254   0.987   2.007   8.892
 2308SOL     OW 7255   0.980   2.978   9.167
 2308SOL    HW1 7256   0.881   2.984   9.177
 2308SOL    HW2 7257   1.003   2.898   9.111
 2309SOL     OW 7258   0.705   2.912   7.816
 2309SOL    HW1 7259   0.691   2.919   7.915
 2309SOL    HW2 7260   0.789   2.861   7.798
 2310SOL     OW 7261   0.410   2.675   8.699
 2310SOL    HW1 7262   0.496   2.687   8.749
 2310SOL    HW2 7263   0.368   2.588   8.726
 2311SOL     OW 7264   1.274   2.248   8.710
 2311SOL    HW1 7265   1.295   2.322   8.774
 2311SOL    HW2 7266   1.185   2.265   8.667
 2312SOL     OW 7267   0.064   3.426   8.779
 2312SOL    HW1 7268   0.018   3.508   8.745
 2312SOL    HW2 7269   0.162   3.445   8.788
 2313SOL     OW 7270   0.367   2.962   7.949
 2313SOL    HW1 7271   0.360   3.045   7.893
 2313SOL    HW2 7272   0.371   2.882   7.889
 2314SOL     OW 7273   0.566   2.399   8.313
 2314SOL    HW1 7274   0.578   2.465   8.239
 2314SOL    HW2 7275   0.612   2.433   8.396
 2315SOL     OW 7276   1.252   3.210   7.836
 2315SOL    HW1 7277   1.302   3.287   7.876
 2315SOL    HW2 7278   1.157   3.212   7.868
 2316SOL     OW 7279   1.272   3.307   8.590
 2316SOL    HW1 7280   1.319   3.320   8.677
 2316SOL    HW2 7281   1.206   3.233   8.599
 2317SOL     OW 7282   1.582   2.501   7.920
 2317SOL    HW1 7283   1.551   2.562   7.993
 2317SOL    HW2 7284   1.632   2.553   7.851
 2318SOL     OW 7285   0.354   3.372   8.777
 2318SOL    HW1 7286   0.333   3.328   8.690
 2318SOL    HW2 7287   0.451   3.398   8.780
 2319SOL     OW 7288   0.402   2.613   9.046
 2319SOL    HW1 7289   0.470   2.668   8.999
 2319SOL    HW2 7290   0.442   2.525   9.073
 2320SOL     OW 7291   1.587   2.641   9.118
 2320SOL    HW1 7292   1.495   2.679   9.113
 2320SOL    HW2 7293   1.647   2.688   9.053
 2321SOL     OW 7294   1.013   1.967   9.218
 2321SOL    HW1 7295   1.019   2.052   9.166
 2321SOL    HW2 7296   1.045   1.891   9.161
 2322SOL     OW 7297   0.504   1.912   9.188
 2322SOL    HW1 7298   0.462   1.855   9.118
 2322SOL    HW2 7299   0.438   1.981   9.220
 2323SOL     OW 7300   0.573   2.732   8.477
 2323SOL    HW1 7301   0.617   2.821   8.468
 2323SOL    HW2 7302   0.510   2.732   8.554
 2324SOL     OW 7303   1.360   2.724   8.493
 2324SOL    HW1 7304   1.285   2.724   8.427
 2324SOL    HW2 7305   1.397   2.632   8.502
 2325SOL     OW 7306   1.209   2.387   7.723
 2325SOL    HW1 7307   1.222   2.303   7.777
 2325SOL    HW2 7308   1.180   2.461   7.783
 2326SOL     OW 7309   0.307   2.075   8.679
 2326SOL    HW1 7310   0.284   2.112   8.769
 2326SOL    HW2 7311   0.277   1.980   8.673
 2327SOL     OW 7312   0.037   3.172   8.730
 2327SOL    HW1 7313   0.090   3.123   8.798
 2327SOL    HW2 7314   0.059   3.270   8.735
 2328SOL     OW 7315   0.732   2.496   8.512
 2328SOL    HW1 7316   0.791   2.470   8.436
 2328SOL    HW2 7317   0.704   2.592   8.501
 2329SOL     OW 7318   1.728   2.797   9.302
 2329SOL    HW1 7319   1.682   2.790   9.213
 2329SOL    HW2 7320   1.666   2.841   9.368
 2330SOL     OW 7321   0.307   1.925   8.066
 2330SOL    HW1 7322   0.296   2.019   8.099
 2330SOL    HW2 7323   0.302   1.862   8.143
 2331SOL     OW 7324   1.622   2.229   7.822
 2331SOL    HW1 7325   1.624   2.153   7.886
 2331SOL    HW2 7326   1.574   2.306   7.862
 2332SOL     OW 7327   1.023   2.628   8.414
 2332SOL    HW1 7328   1.038   2.649   8.510
 2332SOL    HW2 7329   0.993   2.533   8.405
 2333SOL     OW 7330   0.980   3.435   9.148
 2333SOL    HW1 7331   0.960   3.479   9.060
 2333SOL    HW2 7332   1.019   3.344   9.132
 2334SOL     OW 7333   1.859   3.380   9.053
 2334SOL    HW1 7334   1.873   3.407   8.958
 2334SOL    HW2 7335   1.942   3.402   9.106
 2335SOL     OW 7336   0.350   2.760   9.252
 2335SOL    HW1 7337   0.426   2.804   9.300
 2335SOL    HW2 7338   0.385   2.713   9.170
 2336SOL     OW 7339   1.540   2.136   7.573
 2336SOL    HW1 7340   1.479   2.061   7.596
 2336SOL    HW2 7341   1.562   2.188   7.656
 2337SOL     OW 7342   1.303   2.700   7.490
 2337SOL    HW1 7343   1.337   2.607   7.505
 2337SOL    HW2 7344   1.321   2.727   7.395
 2338SOL     OW 7345   1.068   3.195   8.297
 2338SOL    HW1 7346   1.075   3.111   8.242
 2338SOL    HW2 7347   1.130   3.264   8.261
 2339SOL     OW 7348   0.319   2.672   8.397
 2339SOL    HW1 7349   0.412   2.708   8.402
 2339SOL    HW2 7350   0.313   2.587   8.449
 2340SOL     OW 7351   0.339   2.371   8.454
 2340SOL    HW1 7352   0.287   2.288   8.437
 2340SOL    HW2 7353   0.416   2.376   8.390
 2341SOL     OW 7354   1.138   2.242   9.126
 2341SOL    HW1 7355   1.093   2.305   9.190
 2341SOL    HW2 7356   1.231   2.273   9.109
 2342SOL     OW 7357   1.160   2.069   8.925
 2342SOL    HW1 7358   1.160   2.133   9.002
 2342SOL    HW2 7359   1.188   2.117   8.842
 2343SOL     OW 7360   0.008   3.188   7.648
 2343SOL    HW1 7361  -0.085   3.209   7.617
 2343SOL    HW2 7362   0.018   3.089   7.661
 2344SOL     OW 7363   0.088   3.663   8.375
 2344SOL    HW1 7364   0.046   3.577   8.348
 2344SOL    HW2 7365   0.182   3.666   8.341
 2345SOL     OW 7366   0.504   3.430   8.358
 2345SOL    HW1 7367   0.570   3.504   8.367
 2345SOL    HW2 7368   0.548   3.351   8.316
 2346SOL     OW 7369   1.002   2.658   8.686
 2346SOL    HW1 7370   1.043   2.626   8.772
 2346SOL    HW2 7371   0.906   2.631   8.683
 2347SOL     OW 7372   0.040   2.406   8.562
 2347SOL    HW1 7373   0.125   2.373   8.521
 2347SOL    HW2 7374   0.053   2.421   8.660
 2348SOL     OW 7375   0.189   2.382   9.170
 2348SOL    HW1 7376   0.248   2.342   9.100
 2348SOL    HW2 7377   0.131   2.453   9.129
 2349SOL     OW 7378   1.369   2.812   9.108
 2349SOL    HW1 7379   1.408   2.901   9.128
 2349SOL    HW2 7380   1.379   2.792   9.011
 2350SOL     OW 7381   0.815   2.434   7.773
 2350SOL    HW1 7382   0.822   2.345   7.727
 2350SOL    HW2 7383   0.721   2.468   7.765
 2351SOL     OW 7384   1.657   2.466   8.654
 2351SOL    HW1 7385   1.619   2.397   8.716
 2351SOL    HW2 7386   1.739   2.430   8.610
 2352SOL     OW 7387   0.252   3.426   9.192
 2352SOL    HW1 7388   0.222   3.483   9.268
 2352SOL    HW2 7389   0.245   3.329   9.218
 2353SOL     OW 7390   0.671   2.326   8.717
 2353SOL    HW1 7391   0.637   2.237   8.687
 2353SOL    HW2 7392   0.697   2.380   8.637
 2354SOL     OW 7393   0.930   3.540   8.913
 2354SOL    HW1 7394   0.906   3.522   8.818
 2354SOL    HW2 7395   0.960   3.634   8.923
 2355SOL     OW 7396   0.473   2.362   7.639
 2355SOL    HW1 7397   0.534   2.442   7.643
 2355SOL    HW2 7398   0.378   2.393   7.646
 2356SOL     OW 7399   0.159   2.999   8.914
 2356SOL    HW1 7400   0.181   2.938   8.990
 2356SOL    HW2 7401   0.169   2.950   8.828
 2357SOL     OW 7402   1.347   2.921   8.682
 2357SOL    HW1 7403   1.371   2.858   8.608
 2357SOL    HW2 7404   1.257   2.961   8.664
 2358SOL     OW 7405   1.302   2.717   7.757
 2358SOL    HW1 7406   1.216   2.686   7.799
 2358SOL    HW2 7407   1.298   2.703   7.658
 2359SOL     OW 7408   1.759   3.609   8.602
 2359SOL    HW1 7409   1.820   3.639   8.529
 2359SOL    HW2 7410   1.721   3.520   8.580
 2360SOL     OW 7411   1.252   3.593   8.576
 2360SOL    HW1 7412   1.336   3.598   8.522
 2360SOL    HW2 7413   1.229   3.497   8.594
 2361SOL     OW 7414   0.083   3.120   8.470
 2361SOL    HW1 7415   0.078   3.119   8.570
 2361SOL    HW2 7416   0.000   3.079   8.432
 2362SOL     OW 7417   0.688   3.524   9.164
 2362SOL    HW1 7418   0.632   3.605   9.173
 2362SOL    HW2 7419   0.740   3.528   9.078
 2363SOL     OW 7420   1.726   1.997   7.971
 2363SOL    HW1 7421   1.799   1.980   7.904
 2363SOL    HW2 7422   1.695   1.910   8.009
 2364SOL     OW 7423   1.388   3.435   7.925
 2364SOL    HW1 7424   1.455   3.447   7.851
 2364SOL    HW2 7425   1.348   3.524   7.948
 2365SOL     OW 7426   0.130   3.656   9.299
 2365SOL    HW1 7427   0.089   3.582   9.352
 2365SOL    HW2 7428   0.194   3.707   9.357
 2366SOL     OW 7429   1.280   2.789   8.120
 2366SOL    HW1 7430   1.340   2.708   8.122
 2366SOL    HW2 7431   1.320   2.858   8.060
 2367SOL     OW 7432   0.830   3.135   8.870
 2367SOL    HW1 7433   0.825   3.168   8.965
 2367SOL    HW2 7434   0.744   3.154   8.824
 2368SOL     OW 7435   0.672   3.478   7.602
 2368SOL    HW1 7436   0.681   3.488   7.503
 2368SOL    HW2 7437   0.632   3.389   7.623
 2369SOL     OW 7438   1.650   3.582   8.842
 2369SOL    HW1 7439   1.703   3.592   8.758
 2369SOL    HW2 7440   1.623   3.672   8.876
 2370SOL     OW 7441   1.841   2.037   8.411
 2370SOL    HW1 7442   1.880   1.952   8.375
 2370SOL    HW2 7443   1.743   2.039   8.392
 2371SOL     OW 7444   0.263   2.188   8.168
 2371SOL    HW1 7445   0.184   2.239   8.134
 2371SOL    HW2 7446   0.254   2.173   8.266
 2372SOL     OW 7447   1.194   3.474   7.479
 2372SOL    HW1 7448   1.200   3.381   7.516
 2372SOL    HW2 7449   1.135   3.474   7.399
 2373SOL     OW 7450   0.822   2.864   8.820
 2373SOL    HW1 7451   0.862   2.863   8.728
 2373SOL    HW2 7452   0.832   2.956   8.860
 2374SOL     OW 7453   0.916   2.772   7.739
 2374SOL    HW1 7454   0.979   2.810   7.671
 2374SOL    HW2 7455   0.956   2.689   7.778
 2375SOL     OW 7456   1.504   3.469   7.492
 2375SOL    HW1 7457   1.412   3.506   7.499
 2375SOL    HW2 7458   1.542   3.489   7.402
 2376SOL     OW 7459   0.372   3.150   8.938
 2376SOL    HW1 7460   0.359   3.243   8.904
 2376SOL    HW2 7461   0.288   3.098   8.925
 2377SOL     OW 7462   1.614   3.154   8.737
 2377SOL    HW1 7463   1.674   3.157   8.817
 2377SOL    HW2 7464   1.539   3.218   8.750
 2378SOL     OW 7465   1.039   2.960   8.144
 2378SOL    HW1 7466   0.969   2.913   8.198
 2378SOL    HW2 7467   1.098   2.892   8.101
 2379SOL     OW 7468   1.014   2.098   8.419
 2379SOL    HW1 7469   1.006   2.062   8.326
 2379SOL    HW2 7470   1.012   2.022   8.484
 2380SOL     OW 7471   0.590   3.349   7.939
 2380SOL    HW1 7472   0.632   3.291   7.869
 2380SOL    HW2 7473   0.546   3.428   7.895
 2381SOL     OW 7474   1.709   2.247   8.829
 2381SOL    HW1 7475   1.782   2.316   8.833
 2381SOL    HW2 7476   1.737   2.172   8.770
 2382SOL     OW 7477   0.255   3.210   7.738
 2382SOL    HW1 7478   0.159   3.211   7.711
 2382SOL    HW2 7479   0.267   3.263   7.822
 2383SOL     OW 7480   0.105   2.875   9.174
 2383SOL    HW1 7481   0.028   2.842   9.228
 2383SOL    HW2 7482   0.190   2.845   9.216
 2384SOL     OW 7483   0.672   2.065   8.937
 2384SOL    HW1 7484   0.762   2.049   8.897
 2384SOL    HW2 7485   0.680   2.070   9.036
 2385SOL     OW 7486   0.075   2.207   7.481
 2385SOL    HW1 7487  -0.017   2.179   7.452
 2385SOL    HW2 7488   0.106   2.284   7.425
 2386SOL     OW 7489   1.440   2.718   8.846
 2386SOL    HW1 7490   1.383   2.770   8.783
 2386SOL    HW2 7491   1.536   2.730   8.822
 2387SOL     OW 7492   0.072   2.028   7.766
 2387SOL    HW1 7493   0.055   2.111   7.712
 2387SOL    HW2 7494   0.162   1.991   7.744
 2388SOL     OW 7495   1.183   3.197   7.567
 2388SOL    HW1 7496   1.084   3.186   7.569
 2388SOL    HW2 7497   1.217   3.212   7.660
 2389SOL     OW 7498   0.613   2.704   8.879
 2389SOL    HW1 7499   0.669   2.785   8.862
 2389SOL    HW2 7500   0.672   2.624   8.882
 2390SOL     OW 7501   1.493   3.629   8.407
 2390SOL    HW1 7502   1.526   3.693   8.338
 2390SOL    HW2 7503   1.559   3.623   8.482
 2391SOL     OW 7504   0.716   2.427   9.156
 2391SOL    HW1 7505   0.735   2.492   9.230
 2391SOL    HW2 7506   0.776   2.347   9.165
 2392SOL     OW 7507   1.450   3.082   9.081
 2392SOL    HW1 7508   1.441   3.072   9.180
 2392SOL    HW2 7509   1.546   3.075   9.055
 2393SOL     OW 7510   0.390   3.603   9.008
 2393SOL    HW1 7511   0.299   3.644   9.006
 2393SOL    HW2 7512   0.383   3.509   9.040
 2394SOL     OW 7513   1.674   2.745   8.702
 2394SOL    HW1 7514   1.647   2.656   8.665
 2394SOL    HW2 7515   1.675   2.813   8.629
 2395SOL     OW 7516   1.225   2.187   7.897
 2395SOL    HW1 7517   1.290   2.113   7.886
 2395SOL    HW2 7518   1.245   2.237   7.981
 2396SOL     OW 7519   0.594   2.607   8.100
 2396SOL    HW1 7520   0.644   2.692   8.081
 2396SOL    HW2 7521   0.506   2.609   8.052
 2397SOL     OW 7522   1.777   2.204   9.090
 2397SOL    HW1 7523   1.760   2.235   8.996
 2397SOL    HW2 7524   1.693   2.167   9.128
 2398SOL     OW 7525   1.730   2.796   8.965
 2398SOL    HW1 7526   1.768   2.887   8.980
 2398SOL    HW2 7527   1.722   2.779   8.866
 2399SOL     OW 7528   0.859   3.236   7.464
 2399SOL    HW1 7529   0.813   3.251   7.552
 2399SOL    HW2 7530   0.903   3.321   7.434
 2400SOL     OW 7531   0.661   3.652   8.401
 2400SOL    HW1 7532   0.615   3.740   8.388
 2400SOL    HW2 7533   0.760   3.664   8.394
 2401SOL     OW 7534   0.859   2.818   8.309
 2401SOL    HW1 7535   0.913   2.749   8.357
 2401SOL    HW2 7536   0.827   2.887   8.375
 2402SOL     OW 7537   1.083   2.846   7.535
 2402SOL    HW1 7538   1.060   2.899   7.453
 2402SOL    HW2 7539   1.164   2.790   7.516
 2403SOL     OW 7540   1.861   3.431   8.299
 2403SOL    HW1 7541   1.790   3.419   8.229
 2403SOL    HW2 7542   1.862   3.352   8.359
 2404SOL     OW 7543   0.221   3.176   9.292
 2404SOL    HW1 7544   0.156   3.103   9.271
 2404SOL    HW2 7545   0.225   3.190   9.390
 2405SOL     OW 7546   0.079   3.102   8.101
 2405SOL    HW1 7547   0.078   3.055   8.189
 2405SOL    HW2 7548   0.161   3.074   8.050
 2406SOL     OW 7549   0.672   3.253   9.072
 2406SOL    HW1 7550   0.594   3.203   9.110
 2406SOL    HW2 7551   0.669   3.348   9.103
 2407SOL     OW 7552   1.824   2.054   8.675
 2407SOL    HW1 7553   1.820   1.964   8.719
 2407SOL    HW2 7554   1.827   2.043   8.576
 2408SOL     OW 7555   0.428   2.286   7.968
 2408SOL    HW1 7556   0.458   2.214   7.906
 2408SOL    HW2 7557   0.389   2.246   8.051
 2409SOL     OW 7558   1.705   3.349   8.552
 2409SOL    HW1 7559   1.612   3.324   8.525
 2409SOL    HW2 7560   1.731   3.299   8.634
 2410SOL     OW 7561   0.317   2.409   8.728
 2410SOL    HW1 7562   0.355   2.350   8.800
 2410SOL    HW2 7563   0.357   2.383   8.640
 2411SOL     OW 7564   0.812   3.448   8.135
 2411SOL    HW1 7565   0.844   3.458   8.041
 2411SOL    HW2 7566   0.733   3.386   8.137
 2412SOL     OW 7567   1.424   2.076   8.560
 2412SOL    HW1 7568   1.476   2.011   8.615
 2412SOL    HW2 7569   1.375   2.139   8.621
 2413SOL     OW 7570   1.001   1.896   8.602
 2413SOL    HW1 7571   0.938   1.824   8.571
 2413SOL    HW2 7572   1.094   1.860   8.602
 2414SOL     OW 7573   0.770   3.192   7.749
 2414SOL    HW1 7574   0.724   3.105   7.766
 2414SOL    HW2 7575   0.861   3.189   7.790
 2415SOL     OW 7576   0.618   3.429   8.732
 2415SOL    HW1 7577   0.613   3.511   8.789
 2415SOL    HW2 7578   0.707   3.426   8.687
 2416SOL     OW 7579   1.352   1.914   7.616
 2416SOL    HW1 7580   1.387   1.873   7.532
 2416SOL    HW2 7581   1.262   1.876   7.636
 2417SOL     OW 7582   1.300   2.315   8.139
 2417SOL    HW1 7583   1.241   2.395   8.143
 2417SOL    HW2 7584   1.315   2.280   8.232
 2418SOL     OW 7585   1.593   2.083   8.330
 2418SOL    HW1 7586   1.509   2.082   8.384
 2418SOL    HW2 7587   1.595   2.166   8.274
 2419SOL     OW 7588   0.039   2.939   7.748
 2419SOL    HW1 7589   0.138   2.928   7.739
 2419SOL    HW2 7590  -0.001   2.853   7.780
 2420SOL     OW 7591   0.875   3.508   7.785
 2420SOL    HW1 7592   0.798   3.473   7.731
 2420SOL    HW2 7593   0.843   3.579   7.847
 2421SOL     OW 7594   0.230   2.490   9.423
 2421SOL    HW1 7595   0.137   2.488   9.460
 2421SOL    HW2 7596   0.231   2.451   9.331
 2422SOL     OW 7597   0.225   2.137  10.306
 2422SOL    HW1 7598   0.260   2.120  10.398
 2422SOL    HW2 7599   0.137   2.092  10.294
 2423SOL     OW 7600   0.019   2.230   9.957
 2423SOL    HW1 7601  -0.063   2.273   9.996
 2423SOL    HW2 7602  -0.009   2.157   9.894
 2424SOL     OW 7603   0.569   3.137  10.475
 2424SOL    HW1 7604   0.476   3.130  10.438
 2424SOL    HW2 7605   0.580   3.226  10.519
 2425SOL     OW 7606   1.555   3.373  10.013
 2425SOL    HW1 7607   1.498   3.357  10.094
 2425SOL    HW2 7608   1.496   3.383   9.933
 2426SOL     OW 7609   1.135   2.565  10.027
 2426SOL    HW1 7610   1.192   2.643  10.002
 2426SOL    HW2 7611   1.075   2.591  10.103
 2427SOL     OW 7612   1.755   2.469   9.541
 2427SOL    HW1 7613   1.743   2.456   9.442
 2427SOL    HW2 7614   1.725   2.388   9.590
 2428SOL     OW 7615   0.768   3.006  10.333
 2428SOL    HW1 7616   0.690   3.023  10.393
 2428SOL    HW2 7617   0.802   3.093  10.297
 2429SOL     OW 7618   0.850   2.660  11.133
 2429SOL    HW1 7619   0.846   2.736  11.198
 2429SOL    HW2 7620   0.872   2.696  11.042
 2430SOL     OW 7621   0.685   2.874   9.975
 2430SOL    HW1 7622   0.754   2.858  10.045
 2430SOL    HW2 7623   0.612   2.931  10.013
 2431SOL     OW 7624   0.686   3.023  11.113
 2431SOL    HW1 7625   0.746   3.102  11.127
 2431SOL    HW2 7626   0.600   3.054  11.072
 2432SOL     OW 7627   0.335   3.297  10.371
 2432SOL    HW1 7628   0.257   3.266  10.318
 2432SOL    HW2 7629   0.393   3.355  10.314
 2433SOL     OW 7630   1.460   3.367  10.649
 2433SOL    HW1 7631   1.484   3.461  10.675
 2433SOL    HW2 7632   1.444   3.313  10.731
 2434SOL     OW 7633   0.438   2.254  10.809
 2434SOL    HW1 7634   0.520   2.198  10.818
 2434SOL    HW2 7635   0.357   2.196  10.813
 2435SOL     OW 7636   1.603   2.309  10.047
 2435SOL    HW1 7637   1.529   2.355   9.997
 2435SOL    HW2 7638   1.654   2.377  10.100
 2436SOL     OW 7639   0.231   3.575   9.793
 2436SOL    HW1 7640   0.265   3.652   9.847
 2436SOL    HW2 7641   0.275   3.575   9.703
 2437SOL     OW 7642   1.127   3.203  11.000
 2437SOL    HW1 7643   1.174   3.203  11.088
 2437SOL    HW2 7644   1.079   3.116  10.989
 2438SOL     OW 7645   0.230   3.296   9.848
 2438SOL    HW1 7646   0.204   3.392   9.848
 2438SOL    HW2 7647   0.159   3.242   9.893
 2439SOL     OW 7648   0.240   2.953  10.196
 2439SOL    HW1 7649   0.254   2.869  10.248
 2439SOL    HW2 7650   0.185   3.017  10.251
 2440SOL     OW 7651   0.620   3.648  10.749
 2440SOL    HW1 7652   0.528   3.631  10.784
 2440SOL    HW2 7653   0.648   3.740  10.775
 2441SOL     OW 7654   0.606   2.826   9.433
 2441SOL    HW1 7655   0.613   2.910   9.379
 2441SOL    HW2 7656   0.652   2.839   9.521
 2442SOL     OW 7657   1.594   1.976  10.790
 2442SOL    HW1 7658   1.576   2.043  10.718
 2442SOL    HW2 7659   1.591   2.022  10.879
 2443SOL     OW 7660   0.122   2.505   9.873
 2443SOL    HW1 7661   0.077   2.417   9.890
 2443SOL    HW2 7662   0.121   2.559   9.957
 2444SOL     OW 7663   1.842   3.629   9.669
 2444SOL    HW1 7664   1.896   3.600   9.749
 2444SOL    HW2 7665   1.872   3.719   9.640
 2445SOL     OW 7666   0.027   3.458   9.427
 2445SOL    HW1 7667   0.008   3.362   9.448
 2445SOL    HW2 7668  -0.006   3.516   9.502
 2446SOL     OW 7669   1.689   2.784   9.922
 2446SOL    HW1 7670   1.784   2.755   9.930
 2446SOL    HW2 7671   1.681   2.849   9.847
 2447SOL     OW 7672   1.641   2.970   9.742
 2447SOL    HW1 7673   1.727   2.972   9.690
 2447SOL    HW2 7674   1.655   3.017   9.830
 2448SOL     OW 7675   0.113   2.599  10.907
 2448SOL    HW1 7676   0.201   2.586  10.952
 2448SOL    HW2 7677   0.100   2.696  10.885
 2449SOL     OW 7678   0.613   3.227  10.036
 2449SOL    HW1 7679   0.564   3.140  10.045
 2449SOL    HW2 7680   0.590   3.270   9.949
 2450SOL     OW 7681   1.293   3.090  10.733
 2450SOL    HW1 7682   1.330   3.017  10.675
 2450SOL    HW2 7683   1.345   3.095  10.818
 2451SOL     OW 7684   0.809   1.866   9.812
 2451SOL    HW1 7685   0.849   1.957   9.803
 2451SOL    HW2 7686   0.709   1.874   9.818
 2452SOL     OW 7687   0.197   2.838  10.574
 2452SOL    HW1 7688   0.286   2.793  10.560
 2452SOL    HW2 7689   0.124   2.773  10.555
 2453SOL     OW 7690   1.525   2.861   9.500
 2453SOL    HW1 7691   1.462   2.785   9.513
 2453SOL    HW2 7692   1.573   2.879   9.586
 2454SOL     OW 7693   1.187   3.654  10.926
 2454SOL    HW1 7694   1.211   3.714  10.850
 2454SOL    HW2 7695   1.194   3.559  10.896
 2455SOL     OW 7696   0.317   2.113  11.111
 2455SOL    HW1 7697   0.388   2.184  11.117
 2455SOL    HW2 7698   0.229   2.152  11.139
 2456SOL     OW 7699   1.466   3.279  10.263
 2456SOL    HW1 7700   1.407   3.285  10.343
 2456SOL    HW2 7701   1.451   3.191  10.217
 2457SOL     OW 7702   1.667   3.576   9.882
 2457SOL    HW1 7703   1.626   3.553   9.794
 2457SOL    HW2 7704   1.649   3.502   9.947
 2458SOL     OW 7705   0.598   2.591   9.580
 2458SOL    HW1 7706   0.622   2.660   9.512
 2458SOL    HW2 7707   0.520   2.624   9.634
 2459SOL     OW 7708   1.281   2.207  10.254
 2459SOL    HW1 7709   1.195   2.157  10.241
 2459SOL    HW2 7710   1.343   2.153  10.310
 2460SOL     OW 7711   1.576   3.524   9.617
 2460SOL    HW1 7712   1.665   3.570   9.620
 2460SOL    HW2 7713   1.555   3.500   9.522
 2461SOL     OW 7714   0.807   2.467  10.775
 2461SOL    HW1 7715   0.760   2.464  10.864
 2461SOL    HW2 7716   0.756   2.412  10.709
 2462SOL     OW 7717   1.394   2.331  10.984
 2462SOL    HW1 7718   1.374   2.374  11.072
 2462SOL    HW2 7719   1.472   2.269  10.993
 2463SOL     OW 7720   0.973   2.752  10.882
 2463SOL    HW1 7721   1.019   2.668  10.853
 2463SOL    HW2 7722   0.917   2.786  10.807
 2464SOL     OW 7723   0.991   2.272  10.552
 2464SOL    HW1 7724   0.914   2.306  10.606
 2464SOL    HW2 7725   0.957   2.221  10.473
 2465SOL     OW 7726   1.041   2.563   9.739
 2465SOL    HW1 7727   1.067   2.559   9.835
 2465SOL    HW2 7728   0.956   2.512   9.725
 2466SOL     OW 7729   0.076   2.673  10.099
 2466SOL    HW1 7730   0.175   2.661  10.108
 2466SOL    HW2 7731   0.052   2.768  10.120
 2467SOL     OW 7732   0.130   3.683  10.881
 2467SOL    HW1 7733   0.120   3.668  10.980
 2467SOL    HW2 7734   0.044   3.719  10.845
 2468SOL     OW 7735   0.865   2.210   9.505
 2468SOL    HW1 7736   0.924   2.273   9.456
 2468SOL    HW2 7737   0.884   2.116   9.476
 2469SOL     OW 7738   1.719   2.447  11.141
 2469SOL    HW1 7739   1.693   2.536  11.105
 2469SOL    HW2 7740   1.717   2.379  11.068
 2470SOL     OW 7741   1.362   3.006   9.855
 2470SOL    HW1 7742   1.445   2.977   9.807
 2470SOL    HW2 7743   1.313   3.073   9.799
 2471SOL     OW 7744   0.550   2.058  10.195
 2471SOL    HW1 7745   0.545   2.053  10.295
 2471SOL    HW2 7746   0.552   2.154  10.166
 2472SOL     OW 7747   1.008   3.318   9.787
 2472SOL    HW1 7748   0.962   3.390   9.735
 2472SOL    HW2 7749   1.004   3.338   9.885
 2473SOL     OW 7750   0.351   3.663  10.163
 2473SOL    HW1 7751   0.401   3.577  10.169
 2473SOL    HW2 7752   0.416   3.740  10.160
 2474SOL     OW 7753   1.795   2.928  10.183
 2474SOL    HW1 7754   1.733   2.913  10.107
 2474SOL    HW2 7755   1.743   2.939  10.268
 2475SOL     OW 7756   1.227   3.412  10.816
 2475SOL    HW1 7757   1.233   3.335  10.880
 2475SOL    HW2 7758   1.175   3.386  10.736
 2476SOL     OW 7759   0.321   2.805   9.552
 2476SOL    HW1 7760   0.403   2.844   9.510
 2476SOL    HW2 7761   0.294   2.723   9.503
 2477SOL     OW 7762   1.458   2.597  10.038
 2477SOL    HW1 7763   1.453   2.532  10.113
 2477SOL    HW2 7764   1.538   2.656  10.051
 2478SOL     OW 7765   0.461   3.128  11.037
 2478SOL    HW1 7766   0.411   3.129  10.951
 2478SOL    HW2 7767   0.398   3.110  11.113
 2479SOL     OW 7768   1.111   3.638   9.547
 2479SOL    HW1 7769   1.051   3.576   9.597
 2479SOL    HW2 7770   1.142   3.594   9.462
 2480SOL     OW 7771   0.202   2.147  10.808
 2480SOL    HW1 7772   0.122   2.207  10.795
 2480SOL    HW2 7773   0.192   2.098  10.894
 2481SOL     OW 7774   1.632   3.239   9.391
 2481SOL    HW1 7775   1.600   3.333   9.381
 2481SOL    HW2 7776   1.556   3.176   9.379
 2482SOL     OW 7777   0.464   3.605   9.633
 2482SOL    HW1 7778   0.497   3.644   9.719
 2482SOL    HW2 7779   0.540   3.598   9.568
 2483SOL     OW 7780   1.400   1.969   9.736
 2483SOL    HW1 7781   1.376   1.932   9.646
 2483SOL    HW2 7782   1.499   1.985   9.740
 2484SOL     OW 7783   0.249   3.647  10.551
 2484SOL    HW1 7784   0.306   3.582  10.601
 2484SOL    HW2 7785   0.233   3.614  10.458
 2485SOL     OW 7786   0.940   3.560  10.214
 2485SOL    HW1 7787   1.020   3.503  10.235
 2485SOL    HW2 7788   0.891   3.520  10.137
 2486SOL     OW 7789   0.382   2.562   9.790
 2486SOL    HW1 7790   0.427   2.472   9.787
 2486SOL    HW2 7791   0.288   2.551   9.823
 2487SOL     OW 7792   1.547   2.084  11.039
 2487SOL    HW1 7793   1.542   2.121  11.131
 2487SOL    HW2 7794   1.475   2.015  11.027
 2488SOL     OW 7795   0.614   1.984   9.427
 2488SOL    HW1 7796   0.712   1.962   9.434
 2488SOL    HW2 7797   0.583   1.967   9.334
 2489SOL     OW 7798   0.781   2.126  11.059
 2489SOL    HW1 7799   0.848   2.065  11.102
 2489SOL    HW2 7800   0.708   2.145  11.124
 2490SOL     OW 7801   0.888   3.376  10.505
 2490SOL    HW1 7802   0.865   3.351  10.411
 2490SOL    HW2 7803   0.949   3.307  10.544
 2491SOL     OW 7804   1.351   2.452  10.743
 2491SOL    HW1 7805   1.379   2.409  10.828
 2491SOL    HW2 7806   1.376   2.548  10.744
 2492SOL     OW 7807   0.803   3.264  10.234
 2492SOL    HW1 7808   0.893   3.278  10.192
 2492SOL    HW2 7809   0.732   3.266  10.163
 2493SOL     OW 7810   0.922   2.365  10.209
 2493SOL    HW1 7811   0.897   2.356  10.113
 2493SOL    HW2 7812   0.970   2.283  10.240
 2494SOL     OW 7813   0.539   1.926   9.822
 2494SOL    HW1 7814   0.458   1.927   9.880
 2494SOL    HW2 7815   0.542   2.009   9.767
 2495SOL     OW 7816   1.434   3.050   9.351
 2495SOL    HW1 7817   1.466   2.974   9.408
 2495SOL    HW2 7818   1.342   3.077   9.381
 2496SOL     OW 7819   0.297   1.897   9.481
 2496SOL    HW1 7820   0.346   1.981   9.460
 2496SOL    HW2 7821   0.359   1.832   9.526
 2497SOL     OW 7822   0.935   2.098   9.790
 2497SOL    HW1 7823   0.887   2.139   9.712
 2497SOL    HW2 7824   1.034   2.096   9.771
 2498SOL     OW 7825   1.076   2.545  10.774
 2498SOL    HW1 7826   0.996   2.484  10.777
 2498SOL    HW2 7827   1.157   2.492  10.750
 2499SOL     OW 7828   1.227   3.432  10.103
 2499SOL    HW1 7829   1.248   3.506  10.038
 2499SOL    HW2 7830   1.295   3.432  10.176
 2500SOL     OW 7831   0.459   3.014  10.051
 2500SOL    HW1 7832   0.388   2.987  10.116
 2500SOL    HW2 7833   0.433   2.986   9.958
 2501SOL     OW 7834   1.271   3.659   9.901
 2501SOL    HW1 7835   1.315   3.723   9.837
 2501SOL    HW2 7836   1.221   3.711   9.971
 2502SOL     OW 7837   1.032   2.411   9.326
 2502SOL    HW1 7838   0.991   2.493   9.287
 2502SOL    HW2 7839   1.096   2.437   9.399
 2503SOL     OW 7840   0.078   2.418  10.696
 2503SOL    HW1 7841   0.170   2.417  10.655
 2503SOL    HW2 7842   0.072   2.492  10.763
 2504SOL     OW 7843   0.561   2.084  10.457
 2504SOL    HW1 7844   0.599   2.000  10.494
 2504SOL    HW2 7845   0.473   2.103  10.501
 2505SOL     OW 7846   0.866   2.316   9.952
 2505SOL    HW1 7847   0.834   2.388   9.890
 2505SOL    HW2 7848   0.890   2.235   9.899
 2506SOL     OW 7849   1.017   1.901  10.063
 2506SOL    HW1 7850   0.945   1.906   9.994
 2506SOL    HW2 7851   0.993   1.832  10.132
 2507SOL     OW 7852   1.429   3.035  10.177
 2507SOL    HW1 7853   1.374   2.951  10.170
 2507SOL    HW2 7854   1.455   3.064  10.085
 2508SOL     OW 7855   1.466   2.452  10.302
 2508SOL    HW1 7856   1.436   2.357  10.309
 2508SOL    HW2 7857   1.539   2.468  10.368
 2509SOL     OW 7858   1.857   2.695   9.687
 2509SOL    HW1 7859   1.899   2.631   9.751
 2509SOL    HW2 7860   1.819   2.644   9.609
 2510SOL     OW 7861   0.488   3.247   9.484
 2510SOL    HW1 7862   0.401   3.232   9.531
 2510SOL    HW2 7863   0.471   3.273   9.389
 2511SOL     OW 7864   1.664   3.142   9.967
 2511SOL    HW1 7865   1.763   3.150   9.981
 2511SOL    HW2 7866   1.619   3.226   9.998
 2512SOL     OW 7867   1.390   2.437   9.388
 2512SOL    HW1 7868   1.336   2.416   9.469
 2512SOL    HW2 7869   1.481   2.396   9.397
 2513SOL     OW 7870   0.527   2.118   9.638
 2513SOL    HW1 7871   0.554   2.059   9.563
 2513SOL    HW2 7872   0.527   2.213   9.607
 2514SOL     OW 7873   1.754   3.085  10.898
 2514SOL    HW1 7874   1.845   3.046  10.885
 2514SOL    HW2 7875   1.762   3.181  10.922
 2515SOL     OW 7876   1.064   3.209  10.650
 2515SOL    HW1 7877   0.984   3.186  10.705
 2515SOL    HW2 7878   1.147   3.183  10.699
 2516SOL     OW 7879   1.592   3.491  10.935
 2516SOL    HW1 7880   1.619   3.525  10.845
 2516SOL    HW2 7881   1.671   3.453  10.981
 2517SOL     OW 7882   1.111   3.057  10.410
 2517SOL    HW1 7883   1.071   3.101  10.491
 2517SOL    HW2 7884   1.070   3.094  10.327
 2518SOL     OW 7885   1.638   2.961  10.389
 2518SOL    HW1 7886   1.643   3.042  10.448
 2518SOL    HW2 7887   1.552   2.963  10.338
 2519SOL     OW 7888   0.915   1.951  10.712
 2519SOL    HW1 7889   0.940   1.931  10.617
 2519SOL    HW2 7890   0.987   2.007  10.754
 2520SOL     OW 7891   0.980   2.978  11.029
 2520SOL    HW1 7892   0.881   2.984  11.039
 2520SOL    HW2 7893   1.003   2.898  10.973
 2521SOL     OW 7894   0.705   2.912   9.678
 2521SOL    HW1 7895   0.691   2.919   9.777
 2521SOL    HW2 7896   0.789   2.861   9.660
 2522SOL     OW 7897   0.410   2.675  10.561
 2522SOL    HW1 7898   0.496   2.687  10.611
 2522SOL    HW2 7899   0.368   2.588  10.588
 2523SOL     OW 7900   1.274   2.248  10.572
 2523SOL    HW1 7901   1.295   2.322  10.636
 2523SOL    HW2 7902   1.185   2.265  10.529
 2524SOL     OW 7903   0.064   3.426  10.641
 2524SOL    HW1 7904   0.018   3.508  10.607
 2524SOL    HW2 7905   0.162   3.445  10.650
 2525SOL     OW 7906   0.367   2.962   9.811
 2525SOL    HW1 7907   0.360   3.045   9.755
 2525SOL    HW2 7908   0.371   2.882   9.751
 2526SOL     OW 7909   0.566   2.399  10.175
 2526SOL    HW1 7910   0.578   2.465  10.101
 2526SOL    HW2 7911   0.612   2.433  10.258
 2527SOL     OW 7912   1.252   3.210   9.698
 2527SOL    HW1 7913   1.302   3.287   9.738
 2527SOL    HW2 7914   1.157   3.212   9.730
 2528SOL     OW 7915   1.272   3.307  10.452
 2528SOL    HW1 7916   1.319   3.320  10.539
 2528SOL    HW2 7917   1.206   3.233  10.461
 2529SOL     OW 7918   1.582   2.501   9.782
 2529SOL    HW1 7919   1.551   2.562   9.855
 2529SOL    HW2 7920   1.632   2.553   9.713
 2530SOL     OW 7921   0.354   3.372  10.639
 2530SOL    HW1 7922   0.333   3.328  10.552
 2530SOL    HW2 7923   0.451   3.398  10.642
 2531SOL     OW 7924   0.402   2.613  10.908
 2531SOL    HW1 7925   0.470   2.668  10.861
 2531SOL    HW2 7926   0.442   2.525  10.935
 2532SOL     OW 7927   1.587   2.641  10.980
 2532SOL    HW1 7928   1.495   2.679  10.975
 2532SOL    HW2 7929   1.647   2.688  10.915
 2533SOL     OW 7930   1.013   1.967  11.080
 2533SOL    HW1 7931   1.019   2.052  11.028
 2533SOL    HW2 7932   1.045   1.891  11.023
 2534SOL     OW 7933   0.504   1.912  11.050
 2534SOL    HW1 7934   0.462   1.855  10.980
 2534SOL    HW2 7935   0.438   1.981  11.082
 2535SOL     OW 7936   0.573   2.732  10.339
 2535SOL    HW1 7937   0.617   2.821  10.330
 2535SOL    HW2 7938   0.510   2.732  10.416
 2536SOL     OW 7939   1.360   2.724  10.355
 2536SOL    HW1 7940   1.285   2.724  10.289
 2536SOL    HW2 7941   1.397   2.632  10.364
 2537SOL     OW 7942   1.209   2.387   9.585
 2537SOL    HW1 7943   1.222   2.303   9.639
 2537SOL    HW2 7944   1.180   2.461   9.645
 2538SOL     OW 7945   0.307   2.075  10.541
 2538SOL    HW1 7946   0.284   2.112  10.631
 2538SOL    HW2 7947   0.277   1.980  10.535
 2539SOL     OW 7948   0.037   3.172  10.592
 2539SOL    HW1 7949   0.090   3.123  10.660
 2539SOL    HW2 7950   0.059   3.270  10.597
 2540SOL     OW 7951   0.732   2.496  10.374
 2540SOL    HW1 7952   0.791   2.470  10.298
 2540SOL    HW2 7953   0.704   2.592  10.363
 2541SOL     OW 7954   1.728   2.797  11.164
 2541SOL    HW1 7955   1.682   2.790  11.075
 2541SOL    HW2 7956   1.666   2.841  11.230
 2542SOL     OW 7957   0.307   1.925   9.928
 2542SOL    HW1 7958   0.296   2.019   9.961
 2542SOL    HW2 7959   0.302   1.862  10.005
 2543SOL     OW 7960   1.622   2.229   9.684
 2543SOL    HW1 7961   1.624   2.153   9.748
 2543SOL    HW2 7962   1.574   2.306   9.724
 2544SOL     OW 7963   1.023   2.628  10.276
 2544SOL    HW1 7964   1.038   2.649  10.372
 2544SOL    HW2 7965   0.993   2.533  10.267
 2545SOL     OW 7966   0.980   3.435  11.010
 2545SOL    HW1 7967   0.960   3.479  10.922
 2545SOL    HW2 7968   1.019   3.344  10.994
 2546SOL     OW 7969   1.859   3.380  10.915
 2546SOL    HW1 7970   1.873   3.407  10.820
 2546SOL    HW2 7971   1.942   3.402  10.968
 2547SOL     OW 7972   0.350   2.760  11.114
 2547SOL    HW1 7973   0.426   2.804  11.162
 2547SOL    HW2 7974   0.385   2.713  11.032
 2548SOL     OW 7975   1.540   2.136   9.435
 2548SOL    HW1 7976   1.479   2.061   9.458
 2548SOL    HW2 7977   1.562   2.188   9.518
 2549SOL     OW 7978   1.303   2.700   9.352
 2549SOL    HW1 7979   1.337   2.607   9.367
 2549SOL    HW2 7980   1.321   2.727   9.257
 2550SOL     OW 7981   1.068   3.195  10.159
 2550SOL    HW1 7982   1.075   3.111  10.104
 2550SOL    HW2 7983   1.130   3.264  10.123
 2551SOL     OW 7984   0.319   2.672  10.259
 2551SOL    HW1 7985   0.412   2.708  10.264
 2551SOL    HW2 7986   0.313   2.587  10.311
 2552SOL     OW 7987   0.339   2.371  10.316
 2552SOL    HW1 7988   0.287   2.288  10.299
 2552SOL    HW2 7989   0.416   2.376  10.252
 2553SOL     OW 7990   1.138   2.242  10.988
 2553SOL    HW1 7991   1.093   2.305  11.052
 2553SOL    HW2 7992   1.231   2.273  10.971
 2554SOL     OW 7993   1.160   2.069  10.787
 2554SOL    HW1 7994   1.160   2.133  10.864
 2554SOL    HW2 7995   1.188   2.117  10.704
 2555SOL     OW 7996   0.008   3.188   9.510
 2555SOL    HW1 7997  -0.085   3.209   9.479
 2555SOL    HW2 7998   0.018   3.089   9.523
 2556SOL     OW 7999   0.088   3.663  10.237
 2556SOL    HW1 8000   0.046   3.577  10.210
 2556SOL    HW2 8001   0.182   3.666  10.203
 2557SOL     OW 8002   0.504   3.430  10.220
 2557SOL    HW1 8003   0.570   3.504  10.229
 2557SOL    HW2 8004   0.548   3.351  10.178
 2558SOL     OW 8005   1.002   2.658  10.548
 2558SOL    HW1 8006   1.043   2.626  10.634
 2558SOL    HW2 8007   0.906   2.631  10.545
 2559SOL     OW 8008   0.040   2.406  10.424
 2559SOL    HW1 8009   0.125   2.373  10.383
 2559SOL    HW2 8010   0.053   2.421  10.522
 2560SOL     OW 8011   0.189   2.382  11.032
 2560SOL    HW1 8012   0.248   2.342  10.962
 2560SOL    HW2 8013   0.131   2.453  10.991
 2561SOL     OW 8014   1.369   2.812  10.970
 2561SOL    HW1 8015   1.408   2.901  10.990
 2561SOL    HW2 8016   1.379   2.792  10.873
 2562SOL     OW 8017   0.815   2.434   9.635
 2562SOL    HW1 8018   0.822   2.345   9.589
 2562SOL    HW2 8019   0.721   2.468   9.627
 2563SOL     OW 8020   1.657   2.466  10.516
 2563SOL    HW1 8021   1.619   2.397  10.578
 2563SOL    HW2 8022   1.739   2.430  10.472
 2564SOL     OW 8023   0.252   3.426  11.054
 2564SOL    HW1 8024   0.222   3.483  11.130
 2564SOL    HW2 8025   0.245   3.329  11.080
 2565SOL     OW 8026   0.671   2.326  10.579
 2565SOL    HW1 8027   0.637   2.237  10.549
 2565SOL    HW2 8028   0.697   2.380  10.499
 2566SOL     OW 8029   0.930   3.540  10.775
 2566SOL    HW1 8030   0.906   3.522  10.680
 2566SOL    HW2 8031   0.960   3.634  10.785
 2567SOL     OW 8032   0.473   2.362   9.501
 2567SOL    HW1 8033   0.534   2.442   9.505
 2567SOL    HW2 8034   0.378   2.393   9.508
 2568SOL     OW 8035   0.159   2.999  10.776
 2568SOL    HW1 8036   0.181   2.938  10.852
 2568SOL    HW2 8037   0.169   2.950  10.690
 2569SOL     OW 8038   1.347   2.921  10.544
 2569SOL    HW1 8039   1.371   2.858  10.470
 2569SOL    HW2 8040   1.257   2.961  10.526
 2570SOL     OW 8041   1.302   2.717   9.619
 2570SOL    HW1 8042   1.216   2.686   9.661
 2570SOL    HW2 8043   1.298   2.703   9.520
 2571SOL     OW 8044   1.759   3.609  10.464
 2571SOL    HW1 8045   1.820   3.639  10.391
 2571SOL    HW2 8046   1.721   3.520  10.442
 2572SOL     OW 8047   1.252   3.593  10.438
 2572SOL    HW1 8048   1.336   3.598  10.384
 2572SOL    HW2 8049   1.229   3.497  10.456
 2573SOL     OW 8050   0.083   3.120  10.332
 2573SOL    HW1 8051   0.078   3.119  10.432
 2573SOL    HW2 8052   0.000   3.079  10.294
 2574SOL     OW 8053   0.688   3.524  11.026
 2574SOL    HW1 8054   0.632   3.605  11.035
 2574SOL    HW2 8055   0.740   3.528  10.940
 2575SOL     OW 8056   1.726   1.997   9.833
 2575SOL    HW1 8057   1.799   1.980   9.766
 2575SOL    HW2 8058   1.695   1.910   9.871
 2576SOL     OW 8059   1.388   3.435   9.787
 2576SOL    HW1 8060   1.455   3.447   9.713
 2576SOL    HW2 8061   1.348   3.524   9.810
 2577SOL     OW 8062   0.130   3.656  11.161
 2577SOL    HW1 8063   0.089   3.582  11.214
 2577SOL    HW2 8064   0.194   3.707  11.219
 2578SOL     OW 8065   1.280   2.789   9.982
 2578SOL    HW1 8066   1.340   2.708   9.984
 2578SOL    HW2 8067   1.320   2.858   9.922
 2579SOL     OW 8068   0.830   3.135  10.732
 2579SOL    HW1 8069   0.825   3.168  10.827
 2579SOL    HW2 8070   0.744   3.154  10.686
 2580SOL     OW 8071   0.672   3.478   9.464
 2580SOL    HW1 8072   0.681   3.488   9.365
 2580SOL    HW2 8073   0.632   3.389   9.485
 2581SOL     OW 8074   1.650   3.582  10.704
 2581SOL    HW1 8075   1.703   3.592  10.620
 2581SOL    HW2 8076   1.623   3.672  10.738
 2582SOL     OW 8077   1.841   2.037  10.273
 2582SOL    HW1 8078   1.880   1.952  10.237
 2582SOL    HW2 8079   1.743   2.039  10.254
 2583SOL     OW 8080   0.263   2.188  10.030
 2583SOL    HW1 8081   0.184   2.239   9.996
 2583SOL    HW2 8082   0.254   2.173  10.128
 2584SOL     OW 8083   1.194   3.474   9.341
 2584SOL    HW1 8084   1.200   3.381   9.378
 2584SOL    HW2 8085   1.135   3.474   9.261
 2585SOL     OW 8086   0.822   2.864  10.682
 2585SOL    HW1 8087   0.862   2.863  10.590
 2585SOL    HW2 8088   0.832   2.956  10.722
 2586SOL     OW 8089   0.916   2.772   9.601
 2586SOL    HW1 8090   0.979   2.810   9.533
 2586SOL    HW2 8091   0.956   2.689   9.640
 2587SOL     OW 8092   1.504   3.469   9.354
 2587SOL    HW1 8093   1.412   3.506   9.361
 2587SOL    HW2 8094   1.542   3.489   9.264
 2588SOL     OW 8095   0.372   3.150  10.800
 2588SOL    HW1 8096   0.359   3.243  10.766
 2588SOL    HW2 8097   0.288   3.098  10.787
 2589SOL     OW 8098   1.614   3.154  10.599
 2589SOL    HW1 8099   1.674   3.157  10.679
 2589SOL    HW2 8100   1.539   3.218  10.612
 2590SOL     OW 8101   1.039   2.960  10.006
 2590SOL    HW1 8102   0.969   2.913  10.060
 2590SOL    HW2 8103   1.098   2.892   9.963
 2591SOL     OW 8104   1.014   2.098  10.281
 2591SOL    HW1 8105   1.006   2.062  10.188
 2591SOL    HW2 8106   1.012   2.022  10.346
 2592SOL     OW 8107   0.590   3.349   9.801
 2592SOL    HW1 8108   0.632   3.291   9.731
 2592SOL    HW2 8109   0.546   3.428   9.757
 2593SOL     OW 8110   1.709   2.247  10.691
 2593SOL    HW1 8111   1.782   2.316  10.695
 2593SOL    HW2 8112   1.737   2.172  10.632
 2594SOL     OW 8113   0.255   3.210   9.600
 2594SOL    HW1 8114   0.159   3.211   9.573
 2594SOL    HW2 8115   0.267   3.263   9.684
 2595SOL     OW 8116   0.105   2.875  11.036
 2595SOL    HW1 8117   0.028   2.842  11.090
 2595SOL    HW2 8118   0.190   2.845  11.078
 2596SOL     OW 8119   0.672   2.065  10.799
 2596SOL    HW1 8120   0.762   2.049  10.759
 2596SOL    HW2 8121   0.680   2.070  10.898
 2597SOL     OW 8122   0.075   2.207   9.343
 2597SOL    HW1 8123  -0.017   2.179   9.314
 2597SOL    HW2 8124   0.106   2.284   9.287
 2598SOL     OW 8125   1.440   2.718  10.708
 2598SOL    HW1 8126   1.383   2.770  10.645
 2598SOL    HW2 8127   1.536   2.730  10.684
 2599SOL     OW 8128   0.072   2.028   9.628
 2599SOL    HW1 8129   0.055   2.111   9.574
 2599SOL    HW2 8130   0.162   1.991   9.606
 2600SOL     OW 8131   1.183   3.197   9.429
 2600SOL    HW1 8132   1.084   3.186   9.431
 2600SOL    HW2 8133   1.217   3.212   9.522
 2601SOL     OW 8134   0.613   2.704  10.741
 2601SOL    HW1 8135   0.669   2.785  10.724
 2601SOL    HW2 8136   0.672   2.624  10.744
 2602SOL     OW 8137   1.493   3.629  10.269
 2602SOL    HW1 8138   1.526   3.693  10.200
 2602SOL    HW2 8139   1.559   3.623  10.344
 2603SOL     OW 8140   0.716   2.427  11.018
 2603SOL    HW1 8141   0.735   2.492  11.092
 2603SOL    HW2 8142   0.776   2.347  11.027
 2604SOL     OW 8143   1.450   3.082  10.943
 2604SOL    HW1 8144   1.441   3.072  11.042
 2604SOL    HW2 8145   1.546   3.075  10.917
 2605SOL     OW 8146   0.390   3.603  10.870
 2605SOL    HW1 8147   0.299   3.644  10.868
 2605SOL    HW2 8148   0.383   3.509  10.902
 2606SOL     OW 8149   1.674   2.745  10.564
 2606SOL    HW1 8150   1.647   2.656  10.527
 2606SOL    HW2 8151   1.675   2.813  10.491
 2607SOL     OW 8152   1.225   2.187   9.759
 2607SOL    HW1 8153   1.290   2.113   9.748
 2607SOL    HW2 8154   1.245   2.237   9.843
 2608SOL     OW 8155   0.594   2.607   9.962
 2608SOL    HW1 8156   0.644   2.692   9.943
 2608SOL    HW2 8157   0.506   2.609   9.914
 2609SOL     OW 8158   1.777   2.204  10.952
 2609SOL    HW1 8159   1.760   2.235  10.858
 2609SOL    HW2 8160   1.693   2.167  10.990
 2610SOL     OW 8161   1.730   2.796  10.827
 2610SOL    HW1 8162   1.768   2.887  10.842
 2610SOL    HW2 8163   1.722   2.779  10.728
 2611SOL     OW 8164   0.859   3.236   9.326
 2611SOL    HW1 8165   0.813   3.251   9.414
 2611SOL    HW2 8166   0.903   3.321   9.296
 2612SOL     OW 8167   0.661   3.652  10.263
 2612SOL    HW1 8168   0.615   3.740  10.250
 2612SOL    HW2 8169   0.760   3.664  10.256
 2613SOL     OW 8170   0.859   2.818  10.171
 2613SOL    HW1 8171   0.913   2.749  10.219
 2613SOL    HW2 8172   0.827   2.887  10.237
 2614SOL     OW 8173   1.083   2.846   9.397
 2614SOL    HW1 8174   1.060   2.899   9.315
 2614SOL    HW2 8175   1.164   2.790   9.378
 2615SOL     OW 8176   1.861   3.431  10.161
 2615SOL    HW1 8177   1.790   3.419  10.091
 2615SOL    HW2 8178   1.862   3.352  10.221
 2616SOL     OW 8179   0.221   3.176  11.154
 2616SOL    HW1 8180   0.156   3.103  11.133
 2616SOL    HW2 8181   0.225   3.190  11.252
 2617SOL     OW 8182   0.079   3.102   9.963
 2617SOL    HW1 8183   0.078   3.055  10.051
 2617SOL    HW2 8184   0.161   3.074   9.912
 2618SOL     OW 8185   0.672   3.253  10.934
 2618SOL    HW1 8186   0.594   3.203  10.972
 2618SOL    HW2 8187   0.669   3.348  10.965
 2619SOL     OW 8188   1.824   2.054  10.537
 2619SOL    HW1 8189   1.820   1.964  10.581
 2619SOL    HW2 8190   1.827   2.043  10.438
 2620SOL     OW 8191   0.428   2.286   9.830
 2620SOL    HW1 8192   0.458   2.214   9.768
 2620SOL    HW2 8193   0.389   2.246   9.913
 2621SOL     OW 8194   1.705   3.349  10.414
 2621SOL    HW1 8195   1.612   3.324  10.387
 2621SOL    HW2 8196   1.731   3.299  10.496
 2622SOL     OW 8197   0.317   2.409  10.590
 2622SOL    HW1 8198   0.355   2.350  10.662
 2622SOL    HW2 8199   0.357   2.383  10.502
 2623SOL     OW 8200   0.812   3.448   9.997
 2623SOL    HW1 8201   0.844   3.458   9.903
 2623SOL    HW2 8202   0.733   3.386   9.999
 2624SOL     OW 8203   1.424   2.076  10.422
 2624SOL    HW1 8204   1.476   2.011  10.477
 2624SOL    HW2 8205   1.375   2.139  10.483
 2625SOL     OW 8206   1.001   1.896  10.464
 2625SOL    HW1 8207   0.938   1.824  10.433
 2625SOL    HW2 8208   1.094   1.860  10.464
 2626SOL     OW 8209   0.770   3.192   9.611
 2626SOL    HW1 8210   0.724   3.105   9.628
 2626SOL    HW2 8211   0.861   3.189   9.652
 2627SOL     OW 8212   0.618   3.429  10.594
 2627SOL    HW1 8213   0.613   3.511  10.651
 2627SOL    HW2 8214   0.707   3.426  10.549
 2628SOL     OW 8215   1.352   1.914   9.478
 2628SOL    HW1 8216   1.387   1.873   9.394
 2628SOL    HW2 8217   1.262   1.876   9.498
 2629SOL     OW 8218   1.300   2.315  10.001
 2629SOL    HW1 8219   1.241   2.395  10.005
 2629SOL    HW2 8220   1.315   2.280  10.094
 2630SOL     OW 8221   1.593   2.083  10.192
 2630SOL    HW1 8222   1.509   2.082  10.246
 2630SOL    HW2 8223   1.595   2.166  10.136
 2631SOL     OW 8224   0.039   2.939   9.610
 2631SOL    HW1 8225   0.138   2.928   9.601
 2631SOL    HW2 8226  -0.001   2.853   9.642
 2632SOL     OW 8227   0.875   3.508   9.647
 2632SOL    HW1 8228   0.798   3.473   9.593
 2632SOL    HW2 8229   0.843   3.579   9.709
 2633SOL     OW 8230   0.230   2.490  11.285
 2633SOL    HW1 8231   0.137   2.488  11.322
 2633SOL    HW2 8232   0.231   2.451  11.193
 2634SOL     OW 8233   0.225   2.137  12.168
 2634SOL    HW1 8234   0.260   2.120  12.260
 2634SOL    HW2 8235   0.137   2.092  12.156
 2635SOL     OW 8236   0.019   2.230  11.819
 2635SOL    HW1 8237  -0.063   2.273  11.858
 2635SOL    HW2 8238  -0.009   2.157  11.756
 2636SOL     OW 8239   1.555   3.373  11.875
 2636SOL    HW1 8240   1.498   3.357  11.956
 2636SOL    HW2 8241   1.496   3.383  11.795
 2637SOL     OW 8242   1.135   2.565  11.889
 2637SOL    HW1 8243   1.192   2.643  11.864
 2637SOL    HW2 8244   1.075   2.591  11.965
 2638SOL     OW 8245   1.755   2.469  11.403
 2638SOL    HW1 8246   1.743   2.456  11.304
 2638SOL    HW2 8247   1.725   2.388  11.452
 2639SOL     OW 8248   0.685   2.874  11.837
 2639SOL    HW1 8249   0.754   2.858  11.907
 2639SOL    HW2 8250   0.612   2.931  11.875
 2640SOL     OW 8251   1.603   2.309  11.909
 2640SOL    HW1 8252   1.529   2.355  11.859
 2640SOL    HW2 8253   1.654   2.377  11.962
 2641SOL     OW 8254   0.231   3.575  11.655
 2641SOL    HW1 8255   0.265   3.652  11.709
 2641SOL    HW2 8256   0.275   3.575  11.565
 2642SOL     OW 8257   0.230   3.296  11.710
 2642SOL    HW1 8258   0.204   3.392  11.710
 2642SOL    HW2 8259   0.159   3.242  11.755
 2643SOL     OW 8260   0.240   2.953  12.058
 2643SOL    HW1 8261   0.254   2.869  12.110
 2643SOL    HW2 8262   0.185   3.017  12.113
 2644SOL     OW 8263   0.606   2.826  11.295
 2644SOL    HW1 8264   0.613   2.910  11.241
 2644SOL    HW2 8265   0.652   2.839  11.383
 2645SOL     OW 8266   0.122   2.505  11.735
 2645SOL    HW1 8267   0.077   2.417  11.752
 2645SOL    HW2 8268   0.121   2.559  11.819
 2646SOL     OW 8269   1.842   3.629  11.531
 2646SOL    HW1 8270   1.896   3.600  11.611
 2646SOL    HW2 8271   1.872   3.719  11.502
 2647SOL     OW 8272   0.027   3.458  11.289
 2647SOL    HW1 8273   0.008   3.362  11.310
 2647SOL    HW2 8274  -0.006   3.516  11.364
 2648SOL     OW 8275   1.689   2.784  11.784
 2648SOL    HW1 8276   1.784   2.755  11.792
 2648SOL    HW2 8277   1.681   2.849  11.709
 2649SOL     OW 8278   1.641   2.970  11.604
 2649SOL    HW1 8279   1.727   2.972  11.552
 2649SOL    HW2 8280   1.655   3.017  11.692
 2650SOL     OW 8281   0.613   3.227  11.898
 2650SOL    HW1 8282   0.564   3.140  11.907
 2650SOL    HW2 8283   0.590   3.270  11.811
 2651SOL     OW 8284   0.809   1.866  11.674
 2651SOL    HW1 8285   0.849   1.957  11.665
 2651SOL    HW2 8286   0.709   1.874  11.680
 2652SOL     OW 8287   1.525   2.861  11.362
 2652SOL    HW1 8288   1.462   2.785  11.375
 2652SOL    HW2 8289   1.573   2.879  11.448
 2653SOL     OW 8290   1.667   3.576  11.744
 2653SOL    HW1 8291   1.626   3.553  11.656
 2653SOL    HW2 8292   1.649   3.502  11.809
 2654SOL     OW 8293   0.598   2.591  11.442
 2654SOL    HW1 8294   0.622   2.660  11.374
 2654SOL    HW2 8295   0.520   2.624  11.496
 2655SOL     OW 8296   1.281   2.207  12.116
 2655SOL    HW1 8297   1.195   2.157  12.103
 2655SOL    HW2 8298   1.343   2.153  12.172
 2656SOL     OW 8299   1.576   3.524  11.479
 2656SOL    HW1 8300   1.665   3.570  11.482
 2656SOL    HW2 8301   1.555   3.500  11.384
 2657SOL     OW 8302   1.041   2.563  11.601
 2657SOL    HW1 8303   1.067   2.559  11.697
 2657SOL    HW2 8304   0.956   2.512  11.587
 2658SOL     OW 8305   0.076   2.673  11.961
 2658SOL    HW1 8306   0.175   2.661  11.970
 2658SOL    HW2 8307   0.052   2.768  11.982
 2659SOL     OW 8308   0.865   2.210  11.367
 2659SOL    HW1 8309   0.924   2.273  11.318
 2659SOL    HW2 8310   0.884   2.116  11.338
 2660SOL     OW 8311   1.362   3.006  11.717
 2660SOL    HW1 8312   1.445   2.977  11.669
 2660SOL    HW2 8313   1.313   3.073  11.661
 2661SOL     OW 8314   1.008   3.318  11.649
 2661SOL    HW1 8315   0.962   3.390  11.597
 2661SOL    HW2 8316   1.004   3.338  11.747
 2662SOL     OW 8317   0.351   3.663  12.025
 2662SOL    HW1 8318   0.401   3.577  12.031
 2662SOL    HW2 8319   0.416   3.740  12.022
 2663SOL     OW 8320   1.795   2.928  12.045
 2663SOL    HW1 8321   1.733   2.913  11.969
 2663SOL    HW2 8322   1.743   2.939  12.130
 2664SOL     OW 8323   0.321   2.805  11.414
 2664SOL    HW1 8324   0.403   2.844  11.372
 2664SOL    HW2 8325   0.294   2.723  11.365
 2665SOL     OW 8326   1.458   2.597  11.900
 2665SOL    HW1 8327   1.453   2.532  11.975
 2665SOL    HW2 8328   1.538   2.656  11.913
 2666SOL     OW 8329   1.111   3.638  11.409
 2666SOL    HW1 8330   1.051   3.576  11.459
 2666SOL    HW2 8331   1.142   3.594  11.324
 2667SOL     OW 8332   1.632   3.239  11.253
 2667SOL    HW1 8333   1.600   3.333  11.243
 2667SOL    HW2 8334   1.556   3.176  11.241
 2668SOL     OW 8335   0.464   3.605  11.495
 2668SOL    HW1 8336   0.497   3.644  11.581
 2668SOL    HW2 8337   0.540   3.598  11.430
 2669SOL     OW 8338   1.400   1.969  11.598
 2669SOL    HW1 8339   1.376   1.932  11.508
 2669SOL    HW2 8340   1.499   1.985  11.602
 2670SOL     OW 8341   0.940   3.560  12.076
 2670SOL    HW1 8342   1.020   3.503  12.097
 2670SOL    HW2 8343   0.891   3.520  11.999
 2671SOL     OW 8344   0.382   2.562  11.652
 2671SOL    HW1 8345   0.427   2.472  11.649
 2671SOL    HW2 8346   0.288   2.551  11.685
 2672SOL     OW 8347   0.614   1.984  11.289
 2672SOL    HW1 8348   0.712   1.962  11.296
 2672SOL    HW2 8349   0.583   1.967  11.196
 2673SOL     OW 8350   0.539   1.926  11.684
 2673SOL    HW1 8351   0.458   1.927  11.742
 2673SOL    HW2 8352   0.542   2.009  11.629
 2674SOL     OW 8353   1.434   3.050  11.213
 2674SOL    HW1 8354   1.466   2.974  11.270
 2674SOL    HW2 8355   1.342   3.077  11.243
 2675SOL     OW 8356   0.297   1.897  11.343
 2675SOL    HW1 8357   0.346   1.981  11.322
 2675SOL    HW2 8358   0.359   1.832  11.388
 2676SOL     OW 8359   0.935   2.098  11.652
 2676SOL    HW1 8360   0.887   2.139  11.574
 2676SOL    HW2 8361   1.034   2.096  11.633
 2677SOL     OW 8362   0.459   3.014  11.913
 2677SOL    HW1 8363   0.388   2.987  11.978
 2677SOL    HW2 8364   0.433   2.986  11.820
 2678SOL     OW 8365   1.271   3.659  11.763
 2678SOL    HW1 8366   1.315   3.723  11.699
 2678SOL    HW2 8367   1.221   3.711  11.833
 2679SOL     OW 8368   1.032   2.411  11.188
 2679SOL    HW1 8369   0.991   2.493  11.149
 2679SOL    HW2 8370   1.096   2.437  11.261
 2680SOL     OW 8371   0.866   2.316  11.814
 2680SOL    HW1 8372   0.834   2.388  11.752
 2680SOL    HW2 8373   0.890   2.235  11.761
 2681SOL     OW 8374   1.017   1.901  11.925
 2681SOL    HW1 8375   0.945   1.906  11.856
 2681SOL    HW2 8376   0.993   1.832  11.994
 2682SOL     OW 8377   1.857   2.695  11.549
 2682SOL    HW1 8378   1.899   2.631  11.613
 2682SOL    HW2 8379   1.819   2.644  11.471
 2683SOL     OW 8380   0.488   3.247  11.346
 2683SOL    HW1 8381   0.401   3.232  11.393
 2683SOL    HW2 8382   0.471   3.273  11.251
 2684SOL     OW 8383   1.664   3.142  11.829
 2684SOL    HW1 8384   1.763   3.150  11.843
 2684SOL    HW2 8385   1.619   3.226  11.860
 2685SOL     OW 8386   1.390   2.437  11.250
 2685SOL    HW1 8387   1.336   2.416  11.331
 2685SOL    HW2 8388   1.481   2.396  11.259
 2686SOL     OW 8389   0.527   2.118  11.500
 2686SOL    HW1 8390   0.554   2.059  11.425
 2686SOL    HW2 8391   0.527   2.213  11.469
 2687SOL     OW 8392   0.705   2.912  11.540
 2687SOL    HW1 8393   0.691   2.919  11.639
 2687SOL    HW2 8394   0.789   2.861  11.522
 2688SOL     OW 8395   0.367   2.962  11.673
 2688SOL    HW1 8396   0.360   3.045  11.617
 2688SOL    HW2 8397   0.371   2.882  11.613
 2689SOL     OW 8398   1.252   3.210  11.560
 2689SOL    HW1 8399   1.302   3.287  11.600
 2689SOL    HW2 8400   1.157   3.212  11.592
 2690SOL     OW 8401   1.582   2.501  11.644
 2690SOL    HW1 8402   1.551   2.562  11.717
 2690SOL    HW2 8403   1.632   2.553  11.575
 2691SOL     OW 8404   1.209   2.387  11.447
 2691SOL    HW1 8405   1.222   2.303  11.501
 2691SOL    HW2 8406   1.180   2.461  11.507
 2692SOL     OW 8407   0.307   1.925  11.790
 2692SOL    HW1 8408   0.296   2.019  11.823
 2692SOL    HW2 8409   0.302   1.862  11.867
 2693SOL     OW 8410   1.622   2.229  11.546
 2693SOL    HW1 8411   1.624   2.153  11.610
 2693SOL    HW2 8412   1.574   2.306  11.586
 2694SOL     OW 8413   1.540   2.136  11.297
 2694SOL    HW1 8414   1.479   2.061  11.320
 2694SOL    HW2 8415   1.562   2.188  11.380
 2695SOL     OW 8416   1.303   2.700  11.214
 2695SOL    HW1 8417   1.337   2.607  11.229
 2695SOL    HW2 8418   1.321   2.727  11.119
 2696SOL     OW 8419   0.008   3.188  11.372
 2696SOL    HW1 8420  -0.085   3.209  11.341
 2696SOL    HW2 8421   0.018   3.089  11.385
 2697SOL     OW 8422   0.815   2.434  11.497
 2697SOL    HW1 8423   0.822   2.345  11.451
 2697SOL    HW2 8424   0.721   2.468  11.489
 2698SOL     OW 8425   0.473   2.362  11.363
 2698SOL    HW1 8426   0.534   2.442  11.367
 2698SOL    HW2 8427   0.378   2.393  11.370
 2699SOL     OW 8428   1.302   2.717  11.481
 2699SOL    HW1 8429   1.216   2.686  11.523
 2699SOL    HW2 8430   1.298   2.703  11.382
 2700SOL     OW 8431   1.726   1.997  11.695
 2700SOL    HW1 8432   1.799   1.980  11.628
 2700SOL    HW2 8433   1.695   1.910  11.733
 2701SOL     OW 8434   1.388   3.435  11.649
 2701SOL    HW1 8435   1.455   3.447  11.575
 2701SOL    HW2 8436   1.348   3.524  11.672
 2702SOL     OW 8437   1.280   2.789  11.844
 2702SOL    HW1 8438   1.340   2.708  11.846
 2702SOL    HW2 8439   1.320   2.858  11.784
 2703SOL     OW 8440   0.672   3.478  11.326
 2703SOL    HW1 8441   0.681   3.488  11.227
 2703SOL    HW2 8442   0.632   3.389  11.347
 2704SOL     OW 8443   1.841   2.037  12.135
 2704SOL    HW1 8444   1.880   1.952  12.099
 2704SOL    HW2 8445   1.743   2.039  12.116
 2705SOL     OW 8446   0.263   2.188  11.892
 2705SOL    HW1 8447   0.184   2.239  11.858
 2705SOL    HW2 8448   0.254   2.173  11.990
 2706SOL     OW 8449   1.194   3.474  11.203
 2706SOL    HW1 8450   1.200   3.381  11.240
 2706SOL    HW2 8451   1.135   3.474  11.123
 2707SOL     OW 8452   0.916   2.772  11.463
 2707SOL    HW1 8453   0.979   2.810  11.395
 2707SOL    HW2 8454   0.956   2.689  11.502
 2708SOL     OW 8455   1.504   3.469  11.216
 2708SOL    HW1 8456   1.412   3.506  11.223
 2708SOL    HW2 8457   1.542   3.489  11.126
 2709SOL     OW 8458   1.039   2.960  11.868
 2709SOL    HW1 8459   0.969   2.913  11.922
 2709SOL    HW2 8460   1.098   2.892  11.825
 2710SOL     OW 8461   0.590   3.349  11.663
 2710SOL    HW1 8462   0.632   3.291  11.593
 2710SOL    HW2 8463   0.546   3.428  11.619
 2711SOL     OW 8464   0.255   3.210  11.462
 2711SOL    HW1 8465   0.159   3.211  11.435
 2711SOL    HW2 8466   0.267   3.263  11.546
 2712SOL     OW 8467   0.075   2.207  11.205
 2712SOL    HW1 8468  -0.017   2.179  11.176
 2712SOL    HW2 8469   0.106   2.284  11.149
 2713SOL     OW 8470   0.072   2.028  11.490
 2713SOL    HW1 8471   0.055   2.111  11.436
 2713SOL    HW2 8472   0.162   1.991  11.468
 2714SOL     OW 8473   1.183   3.197  11.291
 2714SOL    HW1 8474   1.084   3.186  11.293
 2714SOL    HW2 8475   1.217   3.212  11.384
 2715SOL     OW 8476   1.225   2.187  11.621
 2715SOL    HW1 8477   1.290   2.113  11.610
 2715SOL    HW2 8478   1.245   2.237  11.705
 2716SOL     OW 8479   0.594   2.607  11.824
 2716SOL    HW1 8480   0.644   2.692  11.805
 2716SOL    HW2 8481   0.506   2.609  11.776
 2717SOL     OW 8482   0.859   3.236  11.188
 2717SOL    HW1 8483   0.813   3.251  11.276
 2717SOL    HW2 8484   0.903   3.321  11.158
 2718SOL     OW 8485   0.661   3.652  12.125
 2718SOL    HW1 8486   0.615   3.740  12.112
 2718SOL    HW2 8487   0.760   3.664  12.118
 2719SOL     OW 8488   0.859   2.818  12.033
 2719SOL    HW1 8489   0.913   2.749  12.081
 2719SOL    HW2 8490   0.827   2.887  12.099
 2720SOL     OW 8491   1.083   2.846  11.259
 2720SOL    HW1 8492   1.060   2.899  11.177
 2720SOL    HW2 8493   1.164   2.790  11.240
 2721SOL     OW 8494   0.079   3.102  11.825
 2721SOL    HW1 8495   0.078   3.055  11.913
 2721SOL    HW2 8496   0.161   3.074  11.774
 2722SOL     OW 8497   0.428   2.286  11.692
 2722SOL    HW1 8498   0.458   2.214  11.630
 2722SOL    HW2 8499   0.389   2.246  11.775
 2723SOL     OW 8500   1.705   3.349  12.276
 2723SOL    HW1 8501   1.612   3.324  12.249
 2723SOL    HW2 8502   1.731   3.299  12.358
 2724SOL     OW 8503   0.812   3.448  11.859
 2724SOL    HW1 8504   0.844   3.458  11.765
 2724SOL    HW2 8505   0.733   3.386  11.861
 2725SOL     OW 8506   0.770   3.192  11.473
 2725SOL    HW1 8507   0.724   3.105  11.490
 2725SOL    HW2 8508   0.861   3.189  11.514
 2726SOL     OW 8509   1.352   1.914  11.340
 2726SOL    HW1 8510   1.387   1.873  11.256
 2726SOL    HW2 8511   1.262   1.876  11.360
 2727SOL     OW 8512   1.300   2.315  11.863
 2727SOL    HW1 8513   1.241   2.395  11.867
 2727SOL    HW2 8514   1.315   2.280  11.956
 2728SOL     OW 8515   0.039   2.939  11.472
 2728SOL    HW1 8516   0.138   2.928  11.463
 2728SOL    HW2 8517  -0.001   2.853  11.504
 2729SOL     OW 8518   0.875   3.508  11.509
 2729SOL    HW1 8519   0.798   3.473  11.455
 2729SOL    HW2 8520   0.843   3.579  11.571
 2730SOL     OW 8521   0.225   3.999   0.996
 2730SOL    HW1 8522   0.260   3.982   1.088
 2730SOL    HW2 8523   0.137   3.954   0.984
 2731SOL     OW 8524   0.019   4.092   0.647
 2731SOL    HW1 8525  -0.063   4.135   0.686
 2731SOL    HW2 8526  -0.009   4.019   0.584
 2732SOL     OW 8527   1.755   4.331   0.231
 2732SOL    HW1 8528   1.743   4.318   0.132
 2732SOL    HW2 8529   1.725   4.250   0.280
 2733SOL     OW 8530   0.438   4.116   1.499
 2733SOL    HW1 8531   0.520   4.060   1.508
 2733SOL    HW2 8532   0.357   4.058   1.503
 2734SOL     OW 8533   1.603   4.171   0.737
 2734SOL    HW1 8534   1.529   4.217   0.687
 2734SOL    HW2 8535   1.654   4.239   0.790
 2735SOL     OW 8536   1.594   3.838   1.480
 2735SOL    HW1 8537   1.576   3.905   1.408
 2735SOL    HW2 8538   1.591   3.884   1.569
 2736SOL     OW 8539   0.122   4.367   0.563
 2736SOL    HW1 8540   0.077   4.279   0.580
 2736SOL    HW2 8541   0.121   4.421   0.647
 2737SOL     OW 8542   0.809   3.728   0.502
 2737SOL    HW1 8543   0.849   3.819   0.493
 2737SOL    HW2 8544   0.709   3.736   0.508
 2738SOL     OW 8545   0.317   3.975   1.801
 2738SOL    HW1 8546   0.388   4.046   1.807
 2738SOL    HW2 8547   0.229   4.014   1.829
 2739SOL     OW 8548   1.281   4.069   0.944
 2739SOL    HW1 8549   1.195   4.019   0.931
 2739SOL    HW2 8550   1.343   4.015   1.000
 2740SOL     OW 8551   1.394   4.193   1.674
 2740SOL    HW1 8552   1.374   4.236   1.762
 2740SOL    HW2 8553   1.472   4.131   1.683
 2741SOL     OW 8554   0.991   4.134   1.242
 2741SOL    HW1 8555   0.914   4.168   1.296
 2741SOL    HW2 8556   0.957   4.083   1.163
 2742SOL     OW 8557   0.076   4.535   0.789
 2742SOL    HW1 8558   0.175   4.523   0.798
 2742SOL    HW2 8559   0.052   4.630   0.810
 2743SOL     OW 8560   0.865   4.072   0.195
 2743SOL    HW1 8561   0.924   4.135   0.146
 2743SOL    HW2 8562   0.884   3.978   0.166
 2744SOL     OW 8563   1.719   4.309   1.831
 2744SOL    HW1 8564   1.693   4.398   1.795
 2744SOL    HW2 8565   1.717   4.241   1.758
 2745SOL     OW 8566   0.550   3.920   0.885
 2745SOL    HW1 8567   0.545   3.915   0.985
 2745SOL    HW2 8568   0.552   4.016   0.856
 2746SOL     OW 8569   0.202   4.009   1.498
 2746SOL    HW1 8570   0.122   4.069   1.485
 2746SOL    HW2 8571   0.192   3.960   1.584
 2747SOL     OW 8572   1.400   3.831   0.426
 2747SOL    HW1 8573   1.376   3.794   0.336
 2747SOL    HW2 8574   1.499   3.847   0.430
 2748SOL     OW 8575   1.547   3.946   1.729
 2748SOL    HW1 8576   1.542   3.983   1.821
 2748SOL    HW2 8577   1.475   3.877   1.717
 2749SOL     OW 8578   0.781   3.988   1.749
 2749SOL    HW1 8579   0.848   3.927   1.792
 2749SOL    HW2 8580   0.708   4.007   1.814
 2750SOL     OW 8581   1.351   4.314   1.433
 2750SOL    HW1 8582   1.379   4.271   1.518
 2750SOL    HW2 8583   1.376   4.410   1.434
 2751SOL     OW 8584   0.539   3.788   0.512
 2751SOL    HW1 8585   0.458   3.789   0.570
 2751SOL    HW2 8586   0.542   3.871   0.457
 2752SOL     OW 8587   0.297   3.759   0.171
 2752SOL    HW1 8588   0.346   3.843   0.150
 2752SOL    HW2 8589   0.359   3.694   0.216
 2753SOL     OW 8590   0.935   3.960   0.480
 2753SOL    HW1 8591   0.887   4.001   0.402
 2753SOL    HW2 8592   1.034   3.958   0.461
 2754SOL     OW 8593   0.078   4.280   1.386
 2754SOL    HW1 8594   0.170   4.279   1.345
 2754SOL    HW2 8595   0.072   4.354   1.453
 2755SOL     OW 8596   0.561   3.946   1.147
 2755SOL    HW1 8597   0.599   3.862   1.184
 2755SOL    HW2 8598   0.473   3.965   1.191
 2756SOL     OW 8599   1.017   3.763   0.753
 2756SOL    HW1 8600   0.945   3.768   0.684
 2756SOL    HW2 8601   0.993   3.694   0.822
 2757SOL     OW 8602   1.466   4.314   0.992
 2757SOL    HW1 8603   1.436   4.219   0.999
 2757SOL    HW2 8604   1.539   4.330   1.058
 2758SOL     OW 8605   0.527   3.980   0.328
 2758SOL    HW1 8606   0.554   3.921   0.253
 2758SOL    HW2 8607   0.527   4.075   0.297
 2759SOL     OW 8608   0.915   3.813   1.402
 2759SOL    HW1 8609   0.940   3.793   1.307
 2759SOL    HW2 8610   0.987   3.869   1.444
 2760SOL     OW 8611   1.274   4.110   1.262
 2760SOL    HW1 8612   1.295   4.184   1.326
 2760SOL    HW2 8613   1.185   4.127   1.219
 2761SOL     OW 8614   0.566   4.261   0.865
 2761SOL    HW1 8615   0.578   4.327   0.791
 2761SOL    HW2 8616   0.612   4.295   0.948
 2762SOL     OW 8617   1.013   3.829   1.770
 2762SOL    HW1 8618   1.019   3.914   1.718
 2762SOL    HW2 8619   1.045   3.753   1.713
 2763SOL     OW 8620   0.504   3.774   1.740
 2763SOL    HW1 8621   0.462   3.717   1.670
 2763SOL    HW2 8622   0.438   3.843   1.772
 2764SOL     OW 8623   0.307   3.937   1.231
 2764SOL    HW1 8624   0.284   3.974   1.321
 2764SOL    HW2 8625   0.277   3.842   1.225
 2765SOL     OW 8626   0.732   4.358   1.064
 2765SOL    HW1 8627   0.791   4.332   0.988
 2765SOL    HW2 8628   0.704   4.454   1.053
 2766SOL     OW 8629   0.307   3.787   0.618
 2766SOL    HW1 8630   0.296   3.881   0.651
 2766SOL    HW2 8631   0.302   3.724   0.695
 2767SOL     OW 8632   1.622   4.091   0.374
 2767SOL    HW1 8633   1.624   4.015   0.438
 2767SOL    HW2 8634   1.574   4.168   0.414
 2768SOL     OW 8635   1.540   3.998   0.125
 2768SOL    HW1 8636   1.479   3.923   0.148
 2768SOL    HW2 8637   1.562   4.050   0.208
 2769SOL     OW 8638   0.339   4.233   1.006
 2769SOL    HW1 8639   0.287   4.150   0.989
 2769SOL    HW2 8640   0.416   4.238   0.942
 2770SOL     OW 8641   1.138   4.104   1.678
 2770SOL    HW1 8642   1.093   4.167   1.742
 2770SOL    HW2 8643   1.231   4.135   1.661
 2771SOL     OW 8644   1.160   3.931   1.477
 2771SOL    HW1 8645   1.160   3.995   1.554
 2771SOL    HW2 8646   1.188   3.979   1.394
 2772SOL     OW 8647   0.040   4.268   1.114
 2772SOL    HW1 8648   0.125   4.235   1.073
 2772SOL    HW2 8649   0.053   4.283   1.212
 2773SOL     OW 8650   0.189   4.244   1.722
 2773SOL    HW1 8651   0.248   4.204   1.652
 2773SOL    HW2 8652   0.131   4.315   1.681
 2774SOL     OW 8653   0.815   4.296   0.325
 2774SOL    HW1 8654   0.822   4.207   0.279
 2774SOL    HW2 8655   0.721   4.330   0.317
 2775SOL     OW 8656   1.657   4.328   1.206
 2775SOL    HW1 8657   1.619   4.259   1.268
 2775SOL    HW2 8658   1.739   4.292   1.162
 2776SOL     OW 8659   0.671   4.188   1.269
 2776SOL    HW1 8660   0.637   4.099   1.239
 2776SOL    HW2 8661   0.697   4.242   1.189
 2777SOL     OW 8662   0.903   3.810   0.133
 2777SOL    HW1 8663   0.954   3.811   0.047
 2777SOL    HW2 8664   0.959   3.768   0.204
 2778SOL     OW 8665   1.726   3.859   0.523
 2778SOL    HW1 8666   1.799   3.842   0.456
 2778SOL    HW2 8667   1.695   3.772   0.561
 2779SOL     OW 8668   1.841   3.899   0.963
 2779SOL    HW1 8669   1.880   3.814   0.927
 2779SOL    HW2 8670   1.743   3.901   0.944
 2780SOL     OW 8671   0.263   4.050   0.720
 2780SOL    HW1 8672   0.184   4.101   0.686
 2780SOL    HW2 8673   0.254   4.035   0.818
 2781SOL     OW 8674   1.014   3.960   0.971
 2781SOL    HW1 8675   1.006   3.924   0.878
 2781SOL    HW2 8676   1.012   3.884   1.036
 2782SOL     OW 8677   1.709   4.109   1.381
 2782SOL    HW1 8678   1.782   4.178   1.385
 2782SOL    HW2 8679   1.737   4.034   1.322
 2783SOL     OW 8680   0.672   3.927   1.489
 2783SOL    HW1 8681   0.762   3.911   1.449
 2783SOL    HW2 8682   0.680   3.932   1.588
 2784SOL     OW 8683   0.075   4.069   0.033
 2784SOL    HW1 8684  -0.017   4.041   0.004
 2784SOL    HW2 8685   0.106   4.146  -0.023
 2785SOL     OW 8686   0.072   3.890   0.318
 2785SOL    HW1 8687   0.055   3.973   0.264
 2785SOL    HW2 8688   0.162   3.853   0.296
 2786SOL     OW 8689   0.716   4.289   1.708
 2786SOL    HW1 8690   0.735   4.354   1.782
 2786SOL    HW2 8691   0.776   4.209   1.717
 2787SOL     OW 8692   1.225   4.049   0.449
 2787SOL    HW1 8693   1.290   3.975   0.438
 2787SOL    HW2 8694   1.245   4.099   0.533
 2788SOL     OW 8695   1.777   4.066   1.642
 2788SOL    HW1 8696   1.760   4.097   1.548
 2788SOL    HW2 8697   1.693   4.029   1.680
 2789SOL     OW 8698   1.824   3.916   1.227
 2789SOL    HW1 8699   1.820   3.826   1.271
 2789SOL    HW2 8700   1.827   3.905   1.128
 2790SOL     OW 8701   0.428   4.148   0.520
 2790SOL    HW1 8702   0.458   4.076   0.458
 2790SOL    HW2 8703   0.389   4.108   0.603
 2791SOL     OW 8704   0.317   4.271   1.280
 2791SOL    HW1 8705   0.355   4.212   1.352
 2791SOL    HW2 8706   0.357   4.245   1.192
 2792SOL     OW 8707   1.424   3.938   1.112
 2792SOL    HW1 8708   1.476   3.873   1.167
 2792SOL    HW2 8709   1.375   4.001   1.173
 2793SOL     OW 8710   1.001   3.758   1.154
 2793SOL    HW1 8711   0.938   3.686   1.123
 2793SOL    HW2 8712   1.094   3.722   1.154
 2794SOL     OW 8713   1.352   3.776   0.168
 2794SOL    HW1 8714   1.387   3.735   0.084
 2794SOL    HW2 8715   1.262   3.738   0.188
 2795SOL     OW 8716   1.300   4.177   0.691
 2795SOL    HW1 8717   1.241   4.257   0.695
 2795SOL    HW2 8718   1.315   4.142   0.784
 2796SOL     OW 8719   1.593   3.945   0.882
 2796SOL    HW1 8720   1.509   3.944   0.936
 2796SOL    HW2 8721   1.595   4.028   0.826
 2797SOL     OW 8722   0.225   3.999   2.858
 2797SOL    HW1 8723   0.260   3.982   2.950
 2797SOL    HW2 8724   0.137   3.954   2.846
 2798SOL     OW 8725   0.019   4.092   2.509
 2798SOL    HW1 8726  -0.063   4.135   2.548
 2798SOL    HW2 8727  -0.009   4.019   2.446
 2799SOL     OW 8728   1.755   4.331   2.093
 2799SOL    HW1 8729   1.743   4.318   1.994
 2799SOL    HW2 8730   1.725   4.250   2.142
 2800SOL     OW 8731   0.438   4.116   3.361
 2800SOL    HW1 8732   0.520   4.060   3.370
 2800SOL    HW2 8733   0.357   4.058   3.365
 2801SOL     OW 8734   1.603   4.171   2.599
 2801SOL    HW1 8735   1.529   4.217   2.549
 2801SOL    HW2 8736   1.654   4.239   2.652
 2802SOL     OW 8737   1.594   3.838   3.342
 2802SOL    HW1 8738   1.576   3.905   3.270
 2802SOL    HW2 8739   1.591   3.884   3.431
 2803SOL     OW 8740   0.122   4.367   2.425
 2803SOL    HW1 8741   0.077   4.279   2.442
 2803SOL    HW2 8742   0.121   4.421   2.509
 2804SOL     OW 8743   0.809   3.728   2.364
 2804SOL    HW1 8744   0.849   3.819   2.355
 2804SOL    HW2 8745   0.709   3.736   2.370
 2805SOL     OW 8746   0.317   3.975   3.663
 2805SOL    HW1 8747   0.388   4.046   3.669
 2805SOL    HW2 8748   0.229   4.014   3.691
 2806SOL     OW 8749   1.281   4.069   2.806
 2806SOL    HW1 8750   1.195   4.019   2.793
 2806SOL    HW2 8751   1.343   4.015   2.862
 2807SOL     OW 8752   1.394   4.193   3.536
 2807SOL    HW1 8753   1.374   4.236   3.624
 2807SOL    HW2 8754   1.472   4.131   3.545
 2808SOL     OW 8755   0.991   4.134   3.104
 2808SOL    HW1 8756   0.914   4.168   3.158
 2808SOL    HW2 8757   0.957   4.083   3.025
 2809SOL     OW 8758   0.076   4.535   2.651
 2809SOL    HW1 8759   0.175   4.523   2.660
 2809SOL    HW2 8760   0.052   4.630   2.672
 2810SOL     OW 8761   0.865   4.072   2.057
 2810SOL    HW1 8762   0.924   4.135   2.008
 2810SOL    HW2 8763   0.884   3.978   2.028
 2811SOL     OW 8764   1.719   4.309   3.693
 2811SOL    HW1 8765   1.693   4.398   3.657
 2811SOL    HW2 8766   1.717   4.241   3.620
 2812SOL     OW 8767   0.550   3.920   2.747
 2812SOL    HW1 8768   0.545   3.915   2.847
 2812SOL    HW2 8769   0.552   4.016   2.718
 2813SOL     OW 8770   0.202   4.009   3.360
 2813SOL    HW1 8771   0.122   4.069   3.347
 2813SOL    HW2 8772   0.192   3.960   3.446
 2814SOL     OW 8773   1.400   3.831   2.288
 2814SOL    HW1 8774   1.376   3.794   2.198
 2814SOL    HW2 8775   1.499   3.847   2.292
 2815SOL     OW 8776   1.547   3.946   3.591
 2815SOL    HW1 8777   1.542   3.983   3.683
 2815SOL    HW2 8778   1.475   3.877   3.579
 2816SOL     OW 8779   0.614   3.846   1.979
 2816SOL    HW1 8780   0.712   3.824   1.986
 2816SOL    HW2 8781   0.583   3.829   1.886
 2817SOL     OW 8782   0.781   3.988   3.611
 2817SOL    HW1 8783   0.848   3.927   3.654
 2817SOL    HW2 8784   0.708   4.007   3.676
 2818SOL     OW 8785   1.351   4.314   3.295
 2818SOL    HW1 8786   1.379   4.271   3.380
 2818SOL    HW2 8787   1.376   4.410   3.296
 2819SOL     OW 8788   0.539   3.788   2.374
 2819SOL    HW1 8789   0.458   3.789   2.432
 2819SOL    HW2 8790   0.542   3.871   2.319
 2820SOL     OW 8791   0.297   3.759   2.033
 2820SOL    HW1 8792   0.346   3.843   2.012
 2820SOL    HW2 8793   0.359   3.694   2.078
 2821SOL     OW 8794   0.935   3.960   2.342
 2821SOL    HW1 8795   0.887   4.001   2.264
 2821SOL    HW2 8796   1.034   3.958   2.323
 2822SOL     OW 8797   0.078   4.280   3.248
 2822SOL    HW1 8798   0.170   4.279   3.207
 2822SOL    HW2 8799   0.072   4.354   3.315
 2823SOL     OW 8800   0.561   3.946   3.009
 2823SOL    HW1 8801   0.599   3.862   3.046
 2823SOL    HW2 8802   0.473   3.965   3.053
 2824SOL     OW 8803   1.017   3.763   2.615
 2824SOL    HW1 8804   0.945   3.768   2.546
 2824SOL    HW2 8805   0.993   3.694   2.684
 2825SOL     OW 8806   1.466   4.314   2.854
 2825SOL    HW1 8807   1.436   4.219   2.861
 2825SOL    HW2 8808   1.539   4.330   2.920
 2826SOL     OW 8809   0.527   3.980   2.190
 2826SOL    HW1 8810   0.554   3.921   2.115
 2826SOL    HW2 8811   0.527   4.075   2.159
 2827SOL     OW 8812   0.915   3.813   3.264
 2827SOL    HW1 8813   0.940   3.793   3.169
 2827SOL    HW2 8814   0.987   3.869   3.306
 2828SOL     OW 8815   1.274   4.110   3.124
 2828SOL    HW1 8816   1.295   4.184   3.188
 2828SOL    HW2 8817   1.185   4.127   3.081
 2829SOL     OW 8818   0.566   4.261   2.727
 2829SOL    HW1 8819   0.578   4.327   2.653
 2829SOL    HW2 8820   0.612   4.295   2.810
 2830SOL     OW 8821   1.013   3.829   3.632
 2830SOL    HW1 8822   1.019   3.914   3.580
 2830SOL    HW2 8823   1.045   3.753   3.575
 2831SOL     OW 8824   0.504   3.774   3.602
 2831SOL    HW1 8825   0.462   3.717   3.532
 2831SOL    HW2 8826   0.438   3.843   3.634
 2832SOL     OW 8827   0.307   3.937   3.093
 2832SOL    HW1 8828   0.284   3.974   3.183
 2832SOL    HW2 8829   0.277   3.842   3.087
 2833SOL     OW 8830   0.732   4.358   2.926
 2833SOL    HW1 8831   0.791   4.332   2.850
 2833SOL    HW2 8832   0.704   4.454   2.915
 2834SOL     OW 8833   0.307   3.787   2.480
 2834SOL    HW1 8834   0.296   3.881   2.513
 2834SOL    HW2 8835   0.302   3.724   2.557
 2835SOL     OW 8836   1.622   4.091   2.236
 2835SOL    HW1 8837   1.624   4.015   2.300
 2835SOL    HW2 8838   1.574   4.168   2.276
 2836SOL     OW 8839   1.540   3.998   1.987
 2836SOL    HW1 8840   1.479   3.923   2.010
 2836SOL    HW2 8841   1.562   4.050   2.070
 2837SOL     OW 8842   0.339   4.233   2.868
 2837SOL    HW1 8843   0.287   4.150   2.851
 2837SOL    HW2 8844   0.416   4.238   2.804
 2838SOL     OW 8845   1.138   4.104   3.540
 2838SOL    HW1 8846   1.093   4.167   3.604
 2838SOL    HW2 8847   1.231   4.135   3.523
 2839SOL     OW 8848   1.160   3.931   3.339
 2839SOL    HW1 8849   1.160   3.995   3.416
 2839SOL    HW2 8850   1.188   3.979   3.256
 2840SOL     OW 8851   0.040   4.268   2.976
 2840SOL    HW1 8852   0.125   4.235   2.935
 2840SOL    HW2 8853   0.053   4.283   3.074
 2841SOL     OW 8854   0.189   4.244   3.584
 2841SOL    HW1 8855   0.248   4.204   3.514
 2841SOL    HW2 8856   0.131   4.315   3.543
 2842SOL     OW 8857   0.815   4.296   2.187
 2842SOL    HW1 8858   0.822   4.207   2.141
 2842SOL    HW2 8859   0.721   4.330   2.179
 2843SOL     OW 8860   1.657   4.328   3.068
 2843SOL    HW1 8861   1.619   4.259   3.130
 2843SOL    HW2 8862   1.739   4.292   3.024
 2844SOL     OW 8863   0.671   4.188   3.131
 2844SOL    HW1 8864   0.637   4.099   3.101
 2844SOL    HW2 8865   0.697   4.242   3.051
 2845SOL     OW 8866   1.726   3.859   2.385
 2845SOL    HW1 8867   1.799   3.842   2.318
 2845SOL    HW2 8868   1.695   3.772   2.423
 2846SOL     OW 8869   1.841   3.899   2.825
 2846SOL    HW1 8870   1.880   3.814   2.789
 2846SOL    HW2 8871   1.743   3.901   2.806
 2847SOL     OW 8872   0.263   4.050   2.582
 2847SOL    HW1 8873   0.184   4.101   2.548
 2847SOL    HW2 8874   0.254   4.035   2.680
 2848SOL     OW 8875   1.014   3.960   2.833
 2848SOL    HW1 8876   1.006   3.924   2.740
 2848SOL    HW2 8877   1.012   3.884   2.898
 2849SOL     OW 8878   1.709   4.109   3.243
 2849SOL    HW1 8879   1.782   4.178   3.247
 2849SOL    HW2 8880   1.737   4.034   3.184
 2850SOL     OW 8881   0.672   3.927   3.351
 2850SOL    HW1 8882   0.762   3.911   3.311
 2850SOL    HW2 8883   0.680   3.932   3.450
 2851SOL     OW 8884   0.075   4.069   1.895
 2851SOL    HW1 8885  -0.017   4.041   1.866
 2851SOL    HW2 8886   0.106   4.146   1.839
 2852SOL     OW 8887   0.072   3.890   2.180
 2852SOL    HW1 8888   0.055   3.973   2.126
 2852SOL    HW2 8889   0.162   3.853   2.158
 2853SOL     OW 8890   0.716   4.289   3.570
 2853SOL    HW1 8891   0.735   4.354   3.644
 2853SOL    HW2 8892   0.776   4.209   3.579
 2854SOL     OW 8893   1.225   4.049   2.311
 2854SOL    HW1 8894   1.290   3.975   2.300
 2854SOL    HW2 8895   1.245   4.099   2.395
 2855SOL     OW 8896   1.777   4.066   3.504
 2855SOL    HW1 8897   1.760   4.097   3.410
 2855SOL    HW2 8898   1.693   4.029   3.542
 2856SOL     OW 8899   1.824   3.916   3.089
 2856SOL    HW1 8900   1.820   3.826   3.133
 2856SOL    HW2 8901   1.827   3.905   2.990
 2857SOL     OW 8902   0.428   4.148   2.382
 2857SOL    HW1 8903   0.458   4.076   2.320
 2857SOL    HW2 8904   0.389   4.108   2.465
 2858SOL     OW 8905   0.317   4.271   3.142
 2858SOL    HW1 8906   0.355   4.212   3.214
 2858SOL    HW2 8907   0.357   4.245   3.054
 2859SOL     OW 8908   1.424   3.938   2.974
 2859SOL    HW1 8909   1.476   3.873   3.029
 2859SOL    HW2 8910   1.375   4.001   3.035
 2860SOL     OW 8911   1.001   3.758   3.016
 2860SOL    HW1 8912   0.938   3.686   2.985
 2860SOL    HW2 8913   1.094   3.722   3.016
 2861SOL     OW 8914   1.352   3.776   2.030
 2861SOL    HW1 8915   1.387   3.735   1.946
 2861SOL    HW2 8916   1.262   3.738   2.050
 2862SOL     OW 8917   1.300   4.177   2.553
 2862SOL    HW1 8918   1.241   4.257   2.557
 2862SOL    HW2 8919   1.315   4.142   2.646
 2863SOL     OW 8920   1.593   3.945   2.744
 2863SOL    HW1 8921   1.509   3.944   2.798
 2863SOL    HW2 8922   1.595   4.028   2.688
 2864SOL     OW 8923   0.225   3.999   4.720
 2864SOL    HW1 8924   0.260   3.982   4.812
 2864SOL    HW2 8925   0.137   3.954   4.708
 2865SOL     OW 8926   0.019   4.092   4.371
 2865SOL    HW1 8927  -0.063   4.135   4.410
 2865SOL    HW2 8928  -0.009   4.019   4.308
 2866SOL     OW 8929   1.755   4.331   3.955
 2866SOL    HW1 8930   1.743   4.318   3.856
 2866SOL    HW2 8931   1.725   4.250   4.004
 2867SOL     OW 8932   0.438   4.116   5.223
 2867SOL    HW1 8933   0.520   4.060   5.232
 2867SOL    HW2 8934   0.357   4.058   5.227
 2868SOL     OW 8935   1.603   4.171   4.461
 2868SOL    HW1 8936   1.529   4.217   4.411
 2868SOL    HW2 8937   1.654   4.239   4.514
 2869SOL     OW 8938   1.594   3.838   5.204
 2869SOL    HW1 8939   1.576   3.905   5.132
 2869SOL    HW2 8940   1.591   3.884   5.293
 2870SOL     OW 8941   0.122   4.367   4.287
 2870SOL    HW1 8942   0.077   4.279   4.304
 2870SOL    HW2 8943   0.121   4.421   4.371
 2871SOL     OW 8944   0.809   3.728   4.226
 2871SOL    HW1 8945   0.849   3.819   4.217
 2871SOL    HW2 8946   0.709   3.736   4.232
 2872SOL     OW 8947   0.317   3.975   5.525
 2872SOL    HW1 8948   0.388   4.046   5.531
 2872SOL    HW2 8949   0.229   4.014   5.553
 2873SOL     OW 8950   1.281   4.069   4.668
 2873SOL    HW1 8951   1.195   4.019   4.655
 2873SOL    HW2 8952   1.343   4.015   4.724
 2874SOL     OW 8953   1.394   4.193   5.398
 2874SOL    HW1 8954   1.374   4.236   5.486
 2874SOL    HW2 8955   1.472   4.131   5.407
 2875SOL     OW 8956   0.991   4.134   4.966
 2875SOL    HW1 8957   0.914   4.168   5.020
 2875SOL    HW2 8958   0.957   4.083   4.887
 2876SOL     OW 8959   0.076   4.535   4.513
 2876SOL    HW1 8960   0.175   4.523   4.522
 2876SOL    HW2 8961   0.052   4.630   4.534
 2877SOL     OW 8962   0.865   4.072   3.919
 2877SOL    HW1 8963   0.924   4.135   3.870
 2877SOL    HW2 8964   0.884   3.978   3.890
 2878SOL     OW 8965   1.719   4.309   5.555
 2878SOL    HW1 8966   1.693   4.398   5.519
 2878SOL    HW2 8967   1.717   4.241   5.482
 2879SOL     OW 8968   0.550   3.920   4.609
 2879SOL    HW1 8969   0.545   3.915   4.709
 2879SOL    HW2 8970   0.552   4.016   4.580
 2880SOL     OW 8971   0.202   4.009   5.222
 2880SOL    HW1 8972   0.122   4.069   5.209
 2880SOL    HW2 8973   0.192   3.960   5.308
 2881SOL     OW 8974   1.400   3.831   4.150
 2881SOL    HW1 8975   1.376   3.794   4.060
 2881SOL    HW2 8976   1.499   3.847   4.154
 2882SOL     OW 8977   1.547   3.946   5.453
 2882SOL    HW1 8978   1.542   3.983   5.545
 2882SOL    HW2 8979   1.475   3.877   5.441
 2883SOL     OW 8980   0.614   3.846   3.841
 2883SOL    HW1 8981   0.712   3.824   3.848
 2883SOL    HW2 8982   0.583   3.829   3.748
 2884SOL     OW 8983   0.781   3.988   5.473
 2884SOL    HW1 8984   0.848   3.927   5.516
 2884SOL    HW2 8985   0.708   4.007   5.538
 2885SOL     OW 8986   1.351   4.314   5.157
 2885SOL    HW1 8987   1.379   4.271   5.242
 2885SOL    HW2 8988   1.376   4.410   5.158
 2886SOL     OW 8989   0.539   3.788   4.236
 2886SOL    HW1 8990   0.458   3.789   4.294
 2886SOL    HW2 8991   0.542   3.871   4.181
 2887SOL     OW 8992   0.297   3.759   3.895
 2887SOL    HW1 8993   0.346   3.843   3.874
 2887SOL    HW2 8994   0.359   3.694   3.940
 2888SOL     OW 8995   0.935   3.960   4.204
 2888SOL    HW1 8996   0.887   4.001   4.126
 2888SOL    HW2 8997   1.034   3.958   4.185
 2889SOL     OW 8998   0.078   4.280   5.110
 2889SOL    HW1 8999   0.170   4.279   5.069
 2889SOL    HW2 9000   0.072   4.354   5.177
 2890SOL     OW 9001   0.561   3.946   4.871
 2890SOL    HW1 9002   0.599   3.862   4.908
 2890SOL    HW2 9003   0.473   3.965   4.915
 2891SOL     OW 9004   1.017   3.763   4.477
 2891SOL    HW1 9005   0.945   3.768   4.408
 2891SOL    HW2 9006   0.993   3.694   4.546
 2892SOL     OW 9007   1.466   4.314   4.716
 2892SOL    HW1 9008   1.436   4.219   4.723
 2892SOL    HW2 9009   1.539   4.330   4.782
 2893SOL     OW 9010   0.527   3.980   4.052
 2893SOL    HW1 9011   0.554   3.921   3.977
 2893SOL    HW2 9012   0.527   4.075   4.021
 2894SOL     OW 9013   0.915   3.813   5.126
 2894SOL    HW1 9014   0.940   3.793   5.031
 2894SOL    HW2 9015   0.987   3.869   5.168
 2895SOL     OW 9016   1.274   4.110   4.986
 2895SOL    HW1 9017   1.295   4.184   5.050
 2895SOL    HW2 9018   1.185   4.127   4.943
 2896SOL     OW 9019   0.566   4.261   4.589
 2896SOL    HW1 9020   0.578   4.327   4.515
 2896SOL    HW2 9021   0.612   4.295   4.672
 2897SOL     OW 9022   1.013   3.829   5.494
 2897SOL    HW1 9023   1.019   3.914   5.442
 2897SOL    HW2 9024   1.045   3.753   5.437
 2898SOL     OW 9025   0.504   3.774   5.464
 2898SOL    HW1 9026   0.462   3.717   5.394
 2898SOL    HW2 9027   0.438   3.843   5.496
 2899SOL     OW 9028   0.307   3.937   4.955
 2899SOL    HW1 9029   0.284   3.974   5.045
 2899SOL    HW2 9030   0.277   3.842   4.949
 2900SOL     OW 9031   0.732   4.358   4.788
 2900SOL    HW1 9032   0.791   4.332   4.712
 2900SOL    HW2 9033   0.704   4.454   4.777
 2901SOL     OW 9034   0.307   3.787   4.342
 2901SOL    HW1 9035   0.296   3.881   4.375
 2901SOL    HW2 9036   0.302   3.724   4.419
 2902SOL     OW 9037   1.622   4.091   4.098
 2902SOL    HW1 9038   1.624   4.015   4.162
 2902SOL    HW2 9039   1.574   4.168   4.138
 2903SOL     OW 9040   1.540   3.998   3.849
 2903SOL    HW1 9041   1.479   3.923   3.872
 2903SOL    HW2 9042   1.562   4.050   3.932
 2904SOL     OW 9043   0.339   4.233   4.730
 2904SOL    HW1 9044   0.287   4.150   4.713
 2904SOL    HW2 9045   0.416   4.238   4.666
 2905SOL     OW 9046   1.138   4.104   5.402
 2905SOL    HW1 9047   1.093   4.167   5.466
 2905SOL    HW2 9048   1.231   4.135   5.385
 2906SOL     OW 9049   1.160   3.931   5.201
 2906SOL    HW1 9050   1.160   3.995   5.278
 2906SOL    HW2 9051   1.188   3.979   5.118
 2907SOL     OW 9052   0.040   4.268   4.838
 2907SOL    HW1 9053   0.125   4.235   4.797
 2907SOL    HW2 9054   0.053   4.283   4.936
 2908SOL     OW 9055   0.189   4.244   5.446
 2908SOL    HW1 9056   0.248   4.204   5.376
 2908SOL    HW2 9057   0.131   4.315   5.405
 2909SOL     OW 9058   0.815   4.296   4.049
 2909SOL    HW1 9059   0.822   4.207   4.003
 2909SOL    HW2 9060   0.721   4.330   4.041
 2910SOL     OW 9061   1.657   4.328   4.930
 2910SOL    HW1 9062   1.619   4.259   4.992
 2910SOL    HW2 9063   1.739   4.292   4.886
 2911SOL     OW 9064   0.671   4.188   4.993
 2911SOL    HW1 9065   0.637   4.099   4.963
 2911SOL    HW2 9066   0.697   4.242   4.913
 2912SOL     OW 9067   1.726   3.859   4.247
 2912SOL    HW1 9068   1.799   3.842   4.180
 2912SOL    HW2 9069   1.695   3.772   4.285
 2913SOL     OW 9070   1.841   3.899   4.687
 2913SOL    HW1 9071   1.880   3.814   4.651
 2913SOL    HW2 9072   1.743   3.901   4.668
 2914SOL     OW 9073   0.263   4.050   4.444
 2914SOL    HW1 9074   0.184   4.101   4.410
 2914SOL    HW2 9075   0.254   4.035   4.542
 2915SOL     OW 9076   1.014   3.960   4.695
 2915SOL    HW1 9077   1.006   3.924   4.602
 2915SOL    HW2 9078   1.012   3.884   4.760
 2916SOL     OW 9079   1.709   4.109   5.105
 2916SOL    HW1 9080   1.782   4.178   5.109
 2916SOL    HW2 9081   1.737   4.034   5.046
 2917SOL     OW 9082   0.672   3.927   5.213
 2917SOL    HW1 9083   0.762   3.911   5.173
 2917SOL    HW2 9084   0.680   3.932   5.312
 2918SOL     OW 9085   0.075   4.069   3.757
 2918SOL    HW1 9086  -0.017   4.041   3.728
 2918SOL    HW2 9087   0.106   4.146   3.701
 2919SOL     OW 9088   0.072   3.890   4.042
 2919SOL    HW1 9089   0.055   3.973   3.988
 2919SOL    HW2 9090   0.162   3.853   4.020
 2920SOL     OW 9091   0.716   4.289   5.432
 2920SOL    HW1 9092   0.735   4.354   5.506
 2920SOL    HW2 9093   0.776   4.209   5.441
 2921SOL     OW 9094   1.225   4.049   4.173
 2921SOL    HW1 9095   1.290   3.975   4.162
 2921SOL    HW2 9096   1.245   4.099   4.257
 2922SOL     OW 9097   1.777   4.066   5.366
 2922SOL    HW1 9098   1.760   4.097   5.272
 2922SOL    HW2 9099   1.693   4.029   5.404
 2923SOL     OW 9100   1.824   3.916   4.951
 2923SOL    HW1 9101   1.820   3.826   4.995
 2923SOL    HW2 9102   1.827   3.905   4.852
 2924SOL     OW 9103   0.428   4.148   4.244
 2924SOL    HW1 9104   0.458   4.076   4.182
 2924SOL    HW2 9105   0.389   4.108   4.327
 2925SOL     OW 9106   0.317   4.271   5.004
 2925SOL    HW1 9107   0.355   4.212   5.076
 2925SOL    HW2 9108   0.357   4.245   4.916
 2926SOL     OW 9109   1.424   3.938   4.836
 2926SOL    HW1 9110   1.476   3.873   4.891
 2926SOL    HW2 9111   1.375   4.001   4.897
 2927SOL     OW 9112   1.001   3.758   4.878
 2927SOL    HW1 9113   0.938   3.686   4.847
 2927SOL    HW2 9114   1.094   3.722   4.878
 2928SOL     OW 9115   1.352   3.776   3.892
 2928SOL    HW1 9116   1.387   3.735   3.808
 2928SOL    HW2 9117   1.262   3.738   3.912
 2929SOL     OW 9118   1.300   4.177   4.415
 2929SOL    HW1 9119   1.241   4.257   4.419
 2929SOL    HW2 9120   1.315   4.142   4.508
 2930SOL     OW 9121   1.593   3.945   4.606
 2930SOL    HW1 9122   1.509   3.944   4.660
 2930SOL    HW2 9123   1.595   4.028   4.550
 2931SOL     OW 9124   0.225   3.999   6.582
 2931SOL    HW1 9125   0.260   3.982   6.674
 2931SOL    HW2 9126   0.137   3.954   6.570
 2932SOL     OW 9127   0.019   4.092   6.233
 2932SOL    HW1 9128  -0.063   4.135   6.272
 2932SOL    HW2 9129  -0.009   4.019   6.170
 2933SOL     OW 9130   1.755   4.331   5.817
 2933SOL    HW1 9131   1.743   4.318   5.718
 2933SOL    HW2 9132   1.725   4.250   5.866
 2934SOL     OW 9133   0.438   4.116   7.085
 2934SOL    HW1 9134   0.520   4.060   7.094
 2934SOL    HW2 9135   0.357   4.058   7.089
 2935SOL     OW 9136   1.603   4.171   6.323
 2935SOL    HW1 9137   1.529   4.217   6.273
 2935SOL    HW2 9138   1.654   4.239   6.376
 2936SOL     OW 9139   1.594   3.838   7.066
 2936SOL    HW1 9140   1.576   3.905   6.994
 2936SOL    HW2 9141   1.591   3.884   7.155
 2937SOL     OW 9142   0.122   4.367   6.149
 2937SOL    HW1 9143   0.077   4.279   6.166
 2937SOL    HW2 9144   0.121   4.421   6.233
 2938SOL     OW 9145   0.809   3.728   6.088
 2938SOL    HW1 9146   0.849   3.819   6.079
 2938SOL    HW2 9147   0.709   3.736   6.094
 2939SOL     OW 9148   0.317   3.975   7.387
 2939SOL    HW1 9149   0.388   4.046   7.393
 2939SOL    HW2 9150   0.229   4.014   7.415
 2940SOL     OW 9151   1.281   4.069   6.530
 2940SOL    HW1 9152   1.195   4.019   6.517
 2940SOL    HW2 9153   1.343   4.015   6.586
 2941SOL     OW 9154   1.394   4.193   7.260
 2941SOL    HW1 9155   1.374   4.236   7.348
 2941SOL    HW2 9156   1.472   4.131   7.269
 2942SOL     OW 9157   0.991   4.134   6.828
 2942SOL    HW1 9158   0.914   4.168   6.882
 2942SOL    HW2 9159   0.957   4.083   6.749
 2943SOL     OW 9160   0.076   4.535   6.375
 2943SOL    HW1 9161   0.175   4.523   6.384
 2943SOL    HW2 9162   0.052   4.630   6.396
 2944SOL     OW 9163   0.865   4.072   5.781
 2944SOL    HW1 9164   0.924   4.135   5.732
 2944SOL    HW2 9165   0.884   3.978   5.752
 2945SOL     OW 9166   1.719   4.309   7.417
 2945SOL    HW1 9167   1.693   4.398   7.381
 2945SOL    HW2 9168   1.717   4.241   7.344
 2946SOL     OW 9169   0.550   3.920   6.471
 2946SOL    HW1 9170   0.545   3.915   6.571
 2946SOL    HW2 9171   0.552   4.016   6.442
 2947SOL     OW 9172   0.202   4.009   7.084
 2947SOL    HW1 9173   0.122   4.069   7.071
 2947SOL    HW2 9174   0.192   3.960   7.170
 2948SOL     OW 9175   1.400   3.831   6.012
 2948SOL    HW1 9176   1.376   3.794   5.922
 2948SOL    HW2 9177   1.499   3.847   6.016
 2949SOL     OW 9178   1.547   3.946   7.315
 2949SOL    HW1 9179   1.542   3.983   7.407
 2949SOL    HW2 9180   1.475   3.877   7.303
 2950SOL     OW 9181   0.614   3.846   5.703
 2950SOL    HW1 9182   0.712   3.824   5.710
 2950SOL    HW2 9183   0.583   3.829   5.610
 2951SOL     OW 9184   0.781   3.988   7.335
 2951SOL    HW1 9185   0.848   3.927   7.378
 2951SOL    HW2 9186   0.708   4.007   7.400
 2952SOL     OW 9187   1.351   4.314   7.019
 2952SOL    HW1 9188   1.379   4.271   7.104
 2952SOL    HW2 9189   1.376   4.410   7.020
 2953SOL     OW 9190   0.539   3.788   6.098
 2953SOL    HW1 9191   0.458   3.789   6.156
 2953SOL    HW2 9192   0.542   3.871   6.043
 2954SOL     OW 9193   0.297   3.759   5.757
 2954SOL    HW1 9194   0.346   3.843   5.736
 2954SOL    HW2 9195   0.359   3.694   5.802
 2955SOL     OW 9196   0.935   3.960   6.066
 2955SOL    HW1 9197   0.887   4.001   5.988
 2955SOL    HW2 9198   1.034   3.958   6.047
 2956SOL     OW 9199   0.078   4.280   6.972
 2956SOL    HW1 9200   0.170   4.279   6.931
 2956SOL    HW2 9201   0.072   4.354   7.039
 2957SOL     OW 9202   0.561   3.946   6.733
 2957SOL    HW1 9203   0.599   3.862   6.770
 2957SOL    HW2 9204   0.473   3.965   6.777
 2958SOL     OW 9205   1.017   3.763   6.339
 2958SOL    HW1 9206   0.945   3.768   6.270
 2958SOL    HW2 9207   0.993   3.694   6.408
 2959SOL     OW 9208   1.466   4.314   6.578
 2959SOL    HW1 9209   1.436   4.219   6.585
 2959SOL    HW2 9210   1.539   4.330   6.644
 2960SOL     OW 9211   0.527   3.980   5.914
 2960SOL    HW1 9212   0.554   3.921   5.839
 2960SOL    HW2 9213   0.527   4.075   5.883
 2961SOL     OW 9214   0.915   3.813   6.988
 2961SOL    HW1 9215   0.940   3.793   6.893
 2961SOL    HW2 9216   0.987   3.869   7.030
 2962SOL     OW 9217   1.274   4.110   6.848
 2962SOL    HW1 9218   1.295   4.184   6.912
 2962SOL    HW2 9219   1.185   4.127   6.805
 2963SOL     OW 9220   0.566   4.261   6.451
 2963SOL    HW1 9221   0.578   4.327   6.377
 2963SOL    HW2 9222   0.612   4.295   6.534
 2964SOL     OW 9223   1.013   3.829   7.356
 2964SOL    HW1 9224   1.019   3.914   7.304
 2964SOL    HW2 9225   1.045   3.753   7.299
 2965SOL     OW 9226   0.504   3.774   7.326
 2965SOL    HW1 9227   0.462   3.717   7.256
 2965SOL    HW2 9228   0.438   3.843   7.358
 2966SOL     OW 9229   0.307   3.937   6.817
 2966SOL    HW1 9230   0.284   3.974   6.907
 2966SOL    HW2 9231   0.277   3.842   6.811
 2967SOL     OW 9232   0.732   4.358   6.650
 2967SOL    HW1 9233   0.791   4.332   6.574
 2967SOL    HW2 9234   0.704   4.454   6.639
 2968SOL     OW 9235   0.307   3.787   6.204
 2968SOL    HW1 9236   0.296   3.881   6.237
 2968SOL    HW2 9237   0.302   3.724   6.281
 2969SOL     OW 9238   1.622   4.091   5.960
 2969SOL    HW1 9239   1.624   4.015   6.024
 2969SOL    HW2 9240   1.574   4.168   6.000
 2970SOL     OW 9241   1.540   3.998   5.711
 2970SOL    HW1 9242   1.479   3.923   5.734
 2970SOL    HW2 9243   1.562   4.050   5.794
 2971SOL     OW 9244   0.339   4.233   6.592
 2971SOL    HW1 9245   0.287   4.150   6.575
 2971SOL    HW2 9246   0.416   4.238   6.528
 2972SOL     OW 9247   1.138   4.104   7.264
 2972SOL    HW1 9248   1.093   4.167   7.328
 2972SOL    HW2 9249   1.231   4.135   7.247
 2973SOL     OW 9250   1.160   3.931   7.063
 2973SOL    HW1 9251   1.160   3.995   7.140
 2973SOL    HW2 9252   1.188   3.979   6.980
 2974SOL     OW 9253   0.040   4.268   6.700
 2974SOL    HW1 9254   0.125   4.235   6.659
 2974SOL    HW2 9255   0.053   4.283   6.798
 2975SOL     OW 9256   0.189   4.244   7.308
 2975SOL    HW1 9257   0.248   4.204   7.238
 2975SOL    HW2 9258   0.131   4.315   7.267
 2976SOL     OW 9259   0.815   4.296   5.911
 2976SOL    HW1 9260   0.822   4.207   5.865
 2976SOL    HW2 9261   0.721   4.330   5.903
 2977SOL     OW 9262   1.657   4.328   6.792
 2977SOL    HW1 9263   1.619   4.259   6.854
 2977SOL    HW2 9264   1.739   4.292   6.748
 2978SOL     OW 9265   0.671   4.188   6.855
 2978SOL    HW1 9266   0.637   4.099   6.825
 2978SOL    HW2 9267   0.697   4.242   6.775
 2979SOL     OW 9268   1.726   3.859   6.109
 2979SOL    HW1 9269   1.799   3.842   6.042
 2979SOL    HW2 9270   1.695   3.772   6.147
 2980SOL     OW 9271   1.841   3.899   6.549
 2980SOL    HW1 9272   1.880   3.814   6.513
 2980SOL    HW2 9273   1.743   3.901   6.530
 2981SOL     OW 9274   0.263   4.050   6.306
 2981SOL    HW1 9275   0.184   4.101   6.272
 2981SOL    HW2 9276   0.254   4.035   6.404
 2982SOL     OW 9277   1.014   3.960   6.557
 2982SOL    HW1 9278   1.006   3.924   6.464
 2982SOL    HW2 9279   1.012   3.884   6.622
 2983SOL     OW 9280   1.709   4.109   6.967
 2983SOL    HW1 9281   1.782   4.178   6.971
 2983SOL    HW2 9282   1.737   4.034   6.908
 2984SOL     OW 9283   0.672   3.927   7.075
 2984SOL    HW1 9284   0.762   3.911   7.035
 2984SOL    HW2 9285   0.680   3.932   7.174
 2985SOL     OW 9286   0.075   4.069   5.619
 2985SOL    HW1 9287  -0.017   4.041   5.590
 2985SOL    HW2 9288   0.106   4.146   5.563
 2986SOL     OW 9289   0.072   3.890   5.904
 2986SOL    HW1 9290   0.055   3.973   5.850
 2986SOL    HW2 9291   0.162   3.853   5.882
 2987SOL     OW 9292   0.716   4.289   7.294
 2987SOL    HW1 9293   0.735   4.354   7.368
 2987SOL    HW2 9294   0.776   4.209   7.303
 2988SOL     OW 9295   1.225   4.049   6.035
 2988SOL    HW1 9296   1.290   3.975   6.024
 2988SOL    HW2 9297   1.245   4.099   6.119
 2989SOL     OW 9298   1.777   4.066   7.228
 2989SOL    HW1 9299   1.760   4.097   7.134
 2989SOL    HW2 9300   1.693   4.029   7.266
 2990SOL     OW 9301   1.824   3.916   6.813
 2990SOL    HW1 9302   1.820   3.826   6.857
 2990SOL    HW2 9303   1.827   3.905   6.714
 2991SOL     OW 9304   0.428   4.148   6.106
 2991SOL    HW1 9305   0.458   4.076   6.044
 2991SOL    HW2 9306   0.389   4.108   6.189
 2992SOL     OW 9307   0.317   4.271   6.866
 2992SOL    HW1 9308   0.355   4.212   6.938
 2992SOL    HW2 9309   0.357   4.245   6.778
 2993SOL     OW 9310   1.424   3.938   6.698
 2993SOL    HW1 9311   1.476   3.873   6.753
 2993SOL    HW2 9312   1.375   4.001   6.759
 2994SOL     OW 9313   1.001   3.758   6.740
 2994SOL    HW1 9314   0.938   3.686   6.709
 2994SOL    HW2 9315   1.094   3.722   6.740
 2995SOL     OW 9316   1.352   3.776   5.754
 2995SOL    HW1 9317   1.387   3.735   5.670
 2995SOL    HW2 9318   1.262   3.738   5.774
 2996SOL     OW 9319   1.300   4.177   6.277
 2996SOL    HW1 9320   1.241   4.257   6.281
 2996SOL    HW2 9321   1.315   4.142   6.370
 2997SOL     OW 9322   1.593   3.945   6.468
 2997SOL    HW1 9323   1.509   3.944   6.522
 2997SOL    HW2 9324   1.595   4.028   6.412
 2998SOL     OW 9325   0.225   3.999   8.444
 2998SOL    HW1 9326   0.260   3.982   8.536
 2998SOL    HW2 9327   0.137   3.954   8.432
 2999SOL     OW 9328   0.019   4.092   8.095
 2999SOL    HW1 9329  -0.063   4.135   8.134
 2999SOL    HW2 9330  -0.009   4.019   8.032
 3000SOL     OW 9331   1.755   4.331   7.679
 3000SOL    HW1 9332   1.743   4.318   7.580
 3000SOL    HW2 9333   1.725   4.250   7.728
 3001SOL     OW 9334   0.438   4.116   8.947
 3001SOL    HW1 9335   0.520   4.060   8.956
 3001SOL    HW2 9336   0.357   4.058   8.951
 3002SOL     OW 9337   1.603   4.171   8.185
 3002SOL    HW1 9338   1.529   4.217   8.135
 3002SOL    HW2 9339   1.654   4.239   8.238
 3003SOL     OW 9340   1.594   3.838   8.928
 3003SOL    HW1 9341   1.576   3.905   8.856
 3003SOL    HW2 9342   1.591   3.884   9.017
 3004SOL     OW 9343   0.122   4.367   8.011
 3004SOL    HW1 9344   0.077   4.279   8.028
 3004SOL    HW2 9345   0.121   4.421   8.095
 3005SOL     OW 9346   0.809   3.728   7.950
 3005SOL    HW1 9347   0.849   3.819   7.941
 3005SOL    HW2 9348   0.709   3.736   7.956
 3006SOL     OW 9349   0.317   3.975   9.249
 3006SOL    HW1 9350   0.388   4.046   9.255
 3006SOL    HW2 9351   0.229   4.014   9.277
 3007SOL     OW 9352   1.281   4.069   8.392
 3007SOL    HW1 9353   1.195   4.019   8.379
 3007SOL    HW2 9354   1.343   4.015   8.448
 3008SOL     OW 9355   1.394   4.193   9.122
 3008SOL    HW1 9356   1.374   4.236   9.210
 3008SOL    HW2 9357   1.472   4.131   9.131
 3009SOL     OW 9358   0.991   4.134   8.690
 3009SOL    HW1 9359   0.914   4.168   8.744
 3009SOL    HW2 9360   0.957   4.083   8.611
 3010SOL     OW 9361   0.076   4.535   8.237
 3010SOL    HW1 9362   0.175   4.523   8.246
 3010SOL    HW2 9363   0.052   4.630   8.258
 3011SOL     OW 9364   0.865   4.072   7.643
 3011SOL    HW1 9365   0.924   4.135   7.594
 3011SOL    HW2 9366   0.884   3.978   7.614
 3012SOL     OW 9367   1.719   4.309   9.279
 3012SOL    HW1 9368   1.693   4.398   9.243
 3012SOL    HW2 9369   1.717   4.241   9.206
 3013SOL     OW 9370   0.550   3.920   8.333
 3013SOL    HW1 9371   0.545   3.915   8.433
 3013SOL    HW2 9372   0.552   4.016   8.304
 3014SOL     OW 9373   0.202   4.009   8.946
 3014SOL    HW1 9374   0.122   4.069   8.933
 3014SOL    HW2 9375   0.192   3.960   9.032
 3015SOL     OW 9376   1.400   3.831   7.874
 3015SOL    HW1 9377   1.376   3.794   7.784
 3015SOL    HW2 9378   1.499   3.847   7.878
 3016SOL     OW 9379   1.547   3.946   9.177
 3016SOL    HW1 9380   1.542   3.983   9.269
 3016SOL    HW2 9381   1.475   3.877   9.165
 3017SOL     OW 9382   0.614   3.846   7.565
 3017SOL    HW1 9383   0.712   3.824   7.572
 3017SOL    HW2 9384   0.583   3.829   7.472
 3018SOL     OW 9385   0.781   3.988   9.197
 3018SOL    HW1 9386   0.848   3.927   9.240
 3018SOL    HW2 9387   0.708   4.007   9.262
 3019SOL     OW 9388   1.351   4.314   8.881
 3019SOL    HW1 9389   1.379   4.271   8.966
 3019SOL    HW2 9390   1.376   4.410   8.882
 3020SOL     OW 9391   0.539   3.788   7.960
 3020SOL    HW1 9392   0.458   3.789   8.018
 3020SOL    HW2 9393   0.542   3.871   7.905
 3021SOL     OW 9394   0.297   3.759   7.619
 3021SOL    HW1 9395   0.346   3.843   7.598
 3021SOL    HW2 9396   0.359   3.694   7.664
 3022SOL     OW 9397   0.935   3.960   7.928
 3022SOL    HW1 9398   0.887   4.001   7.850
 3022SOL    HW2 9399   1.034   3.958   7.909
 3023SOL     OW 9400   0.078   4.280   8.834
 3023SOL    HW1 9401   0.170   4.279   8.793
 3023SOL    HW2 9402   0.072   4.354   8.901
 3024SOL     OW 9403   0.561   3.946   8.595
 3024SOL    HW1 9404   0.599   3.862   8.632
 3024SOL    HW2 9405   0.473   3.965   8.639
 3025SOL     OW 9406   1.017   3.763   8.201
 3025SOL    HW1 9407   0.945   3.768   8.132
 3025SOL    HW2 9408   0.993   3.694   8.270
 3026SOL     OW 9409   1.466   4.314   8.440
 3026SOL    HW1 9410   1.436   4.219   8.447
 3026SOL    HW2 9411   1.539   4.330   8.506
 3027SOL     OW 9412   0.527   3.980   7.776
 3027SOL    HW1 9413   0.554   3.921   7.701
 3027SOL    HW2 9414   0.527   4.075   7.745
 3028SOL     OW 9415   0.915   3.813   8.850
 3028SOL    HW1 9416   0.940   3.793   8.755
 3028SOL    HW2 9417   0.987   3.869   8.892
 3029SOL     OW 9418   1.274   4.110   8.710
 3029SOL    HW1 9419   1.295   4.184   8.774
 3029SOL    HW2 9420   1.185   4.127   8.667
 3030SOL     OW 9421   0.566   4.261   8.313
 3030SOL    HW1 9422   0.578   4.327   8.239
 3030SOL    HW2 9423   0.612   4.295   8.396
 3031SOL     OW 9424   1.013   3.829   9.218
 3031SOL    HW1 9425   1.019   3.914   9.166
 3031SOL    HW2 9426   1.045   3.753   9.161
 3032SOL     OW 9427   0.504   3.774   9.188
 3032SOL    HW1 9428   0.462   3.717   9.118
 3032SOL    HW2 9429   0.438   3.843   9.220
 3033SOL     OW 9430   0.307   3.937   8.679
 3033SOL    HW1 9431   0.284   3.974   8.769
 3033SOL    HW2 9432   0.277   3.842   8.673
 3034SOL     OW 9433   0.732   4.358   8.512
 3034SOL    HW1 9434   0.791   4.332   8.436
 3034SOL    HW2 9435   0.704   4.454   8.501
 3035SOL     OW 9436   0.307   3.787   8.066
 3035SOL    HW1 9437   0.296   3.881   8.099
 3035SOL    HW2 9438   0.302   3.724   8.143
 3036SOL     OW 9439   1.622   4.091   7.822
 3036SOL    HW1 9440   1.624   4.015   7.886
 3036SOL    HW2 9441   1.574   4.168   7.862
 3037SOL     OW 9442   1.540   3.998   7.573
 3037SOL    HW1 9443   1.479   3.923   7.596
 3037SOL    HW2 9444   1.562   4.050   7.656
 3038SOL     OW 9445   0.339   4.233   8.454
 3038SOL    HW1 9446   0.287   4.150   8.437
 3038SOL    HW2 9447   0.416   4.238   8.390
 3039SOL     OW 9448   1.138   4.104   9.126
 3039SOL    HW1 9449   1.093   4.167   9.190
 3039SOL    HW2 9450   1.231   4.135   9.109
 3040SOL     OW 9451   1.160   3.931   8.925
 3040SOL    HW1 9452   1.160   3.995   9.002
 3040SOL    HW2 9453   1.188   3.979   8.842
 3041SOL     OW 9454   0.040   4.268   8.562
 3041SOL    HW1 9455   0.125   4.235   8.521
 3041SOL    HW2 9456   0.053   4.283   8.660
 3042SOL     OW 9457   0.189   4.244   9.170
 3042SOL    HW1 9458   0.248   4.204   9.100
 3042SOL    HW2 9459   0.131   4.315   9.129
 3043SOL     OW 9460   0.815   4.296   7.773
 3043SOL    HW1 9461   0.822   4.207   7.727
 3043SOL    HW2 9462   0.721   4.330   7.765
 3044SOL     OW 9463   1.657   4.328   8.654
 3044SOL    HW1 9464   1.619   4.259   8.716
 3044SOL    HW2 9465   1.739   4.292   8.610
 3045SOL     OW 9466   0.671   4.188   8.717
 3045SOL    HW1 9467   0.637   4.099   8.687
 3045SOL    HW2 9468   0.697   4.242   8.637
 3046SOL     OW 9469   1.726   3.859   7.971
 3046SOL    HW1 9470   1.799   3.842   7.904
 3046SOL    HW2 9471   1.695   3.772   8.009
 3047SOL     OW 9472   1.841   3.899   8.411
 3047SOL    HW1 9473   1.880   3.814   8.375
 3047SOL    HW2 9474   1.743   3.901   8.392
 3048SOL     OW 9475   0.263   4.050   8.168
 3048SOL    HW1 9476   0.184   4.101   8.134
 3048SOL    HW2 9477   0.254   4.035   8.266
 3049SOL     OW 9478   1.014   3.960   8.419
 3049SOL    HW1 9479   1.006   3.924   8.326
 3049SOL    HW2 9480   1.012   3.884   8.484
 3050SOL     OW 9481   1.709   4.109   8.829
 3050SOL    HW1 9482   1.782   4.178   8.833
 3050SOL    HW2 9483   1.737   4.034   8.770
 3051SOL     OW 9484   0.672   3.927   8.937
 3051SOL    HW1 9485   0.762   3.911   8.897
 3051SOL    HW2 9486   0.680   3.932   9.036
 3052SOL     OW 9487   0.075   4.069   7.481
 3052SOL    HW1 9488  -0.017   4.041   7.452
 3052SOL    HW2 9489   0.106   4.146   7.425
 3053SOL     OW 9490   0.072   3.890   7.766
 3053SOL    HW1 9491   0.055   3.973   7.712
 3053SOL    HW2 9492   0.162   3.853   7.744
 3054SOL     OW 9493   0.716   4.289   9.156
 3054SOL    HW1 9494   0.735   4.354   9.230
 3054SOL    HW2 9495   0.776   4.209   9.165
 3055SOL     OW 9496   1.225   4.049   7.897
 3055SOL    HW1 9497   1.290   3.975   7.886
 3055SOL    HW2 9498   1.245   4.099   7.981
 3056SOL     OW 9499   1.777   4.066   9.090
 3056SOL    HW1 9500   1.760   4.097   8.996
 3056SOL    HW2 9501   1.693   4.029   9.128
 3057SOL     OW 9502   1.824   3.916   8.675
 3057SOL    HW1 9503   1.820   3.826   8.719
 3057SOL    HW2 9504   1.827   3.905   8.576
 3058SOL     OW 9505   0.428   4.148   7.968
 3058SOL    HW1 9506   0.458   4.076   7.906
 3058SOL    HW2 9507   0.389   4.108   8.051
 3059SOL     OW 9508   0.317   4.271   8.728
 3059SOL    HW1 9509   0.355   4.212   8.800
 3059SOL    HW2 9510   0.357   4.245   8.640
 3060SOL     OW 9511   1.424   3.938   8.560
 3060SOL    HW1 9512   1.476   3.873   8.615
 3060SOL    HW2 9513   1.375   4.001   8.621
 3061SOL     OW 9514   1.001   3.758   8.602
 3061SOL    HW1 9515   0.938   3.686   8.571
 3061SOL    HW2 9516   1.094   3.722   8.602
 3062SOL     OW 9517   1.352   3.776   7.616
 3062SOL    HW1 9518   1.387   3.735   7.532
 3062SOL    HW2 9519   1.262   3.738   7.636
 3063SOL     OW 9520   1.300   4.177   8.139
 3063SOL    HW1 9521   1.241   4.257   8.143
 3063SOL    HW2 9522   1.315   4.142   8.232
 3064SOL     OW 9523   1.593   3.945   8.330
 3064SOL    HW1 9524   1.509   3.944   8.384
 3064SOL    HW2 9525   1.595   4.028   8.274
 3065SOL     OW 9526   0.225   3.999  10.306
 3065SOL    HW1 9527   0.260   3.982  10.398
 3065SOL    HW2 9528   0.137   3.954  10.294
 3066SOL     OW 9529   0.019   4.092   9.957
 3066SOL    HW1 9530  -0.063   4.135   9.996
 3066SOL    HW2 9531  -0.009   4.019   9.894
 3067SOL     OW 9532   1.755   4.331   9.541
 3067SOL    HW1 9533   1.743   4.318   9.442
 3067SOL    HW2 9534   1.725   4.250   9.590
 3068SOL     OW 9535   0.438   4.116  10.809
 3068SOL    HW1 9536   0.520   4.060  10.818
 3068SOL    HW2 9537   0.357   4.058  10.813
 3069SOL     OW 9538   1.603   4.171  10.047
 3069SOL    HW1 9539   1.529   4.217   9.997
 3069SOL    HW2 9540   1.654   4.239  10.100
 3070SOL     OW 9541   1.594   3.838  10.790
 3070SOL    HW1 9542   1.576   3.905  10.718
 3070SOL    HW2 9543   1.591   3.884  10.879
 3071SOL     OW 9544   0.122   4.367   9.873
 3071SOL    HW1 9545   0.077   4.279   9.890
 3071SOL    HW2 9546   0.121   4.421   9.957
 3072SOL     OW 9547   0.809   3.728   9.812
 3072SOL    HW1 9548   0.849   3.819   9.803
 3072SOL    HW2 9549   0.709   3.736   9.818
 3073SOL     OW 9550   0.317   3.975  11.111
 3073SOL    HW1 9551   0.388   4.046  11.117
 3073SOL    HW2 9552   0.229   4.014  11.139
 3074SOL     OW 9553   1.281   4.069  10.254
 3074SOL    HW1 9554   1.195   4.019  10.241
 3074SOL    HW2 9555   1.343   4.015  10.310
 3075SOL     OW 9556   1.394   4.193  10.984
 3075SOL    HW1 9557   1.374   4.236  11.072
 3075SOL    HW2 9558   1.472   4.131  10.993
 3076SOL     OW 9559   0.991   4.134  10.552
 3076SOL    HW1 9560   0.914   4.168  10.606
 3076SOL    HW2 9561   0.957   4.083  10.473
 3077SOL     OW 9562   0.076   4.535  10.099
 3077SOL    HW1 9563   0.175   4.523  10.108
 3077SOL    HW2 9564   0.052   4.630  10.120
 3078SOL     OW 9565   0.865   4.072   9.505
 3078SOL    HW1 9566   0.924   4.135   9.456
 3078SOL    HW2 9567   0.884   3.978   9.476
 3079SOL     OW 9568   1.719   4.309  11.141
 3079SOL    HW1 9569   1.693   4.398  11.105
 3079SOL    HW2 9570   1.717   4.241  11.068
 3080SOL     OW 9571   0.550   3.920  10.195
 3080SOL    HW1 9572   0.545   3.915  10.295
 3080SOL    HW2 9573   0.552   4.016  10.166
 3081SOL     OW 9574   0.202   4.009  10.808
 3081SOL    HW1 9575   0.122   4.069  10.795
 3081SOL    HW2 9576   0.192   3.960  10.894
 3082SOL     OW 9577   1.400   3.831   9.736
 3082SOL    HW1 9578   1.376   3.794   9.646
 3082SOL    HW2 9579   1.499   3.847   9.740
 3083SOL     OW 9580   1.547   3.946  11.039
 3083SOL    HW1 9581   1.542   3.983  11.131
 3083SOL    HW2 9582   1.475   3.877  11.027
 3084SOL     OW 9583   0.614   3.846   9.427
 3084SOL    HW1 9584   0.712   3.824   9.434
 3084SOL    HW2 9585   0.583   3.829   9.334
 3085SOL     OW 9586   0.781   3.988  11.059
 3085SOL    HW1 9587   0.848   3.927  11.102
 3085SOL    HW2 9588   0.708   4.007  11.124
 3086SOL     OW 9589   1.351   4.314  10.743
 3086SOL    HW1 9590   1.379   4.271  10.828
 3086SOL    HW2 9591   1.376   4.410  10.744
 3087SOL     OW 9592   0.539   3.788   9.822
 3087SOL    HW1 9593   0.458   3.789   9.880
 3087SOL    HW2 9594   0.542   3.871   9.767
 3088SOL     OW 9595   0.297   3.759   9.481
 3088SOL    HW1 9596   0.346   3.843   9.460
 3088SOL    HW2 9597   0.359   3.694   9.526
 3089SOL     OW 9598   0.935   3.960   9.790
 3089SOL    HW1 9599   0.887   4.001   9.712
 3089SOL    HW2 9600   1.034   3.958   9.771
 3090SOL     OW 9601   0.078   4.280  10.696
 3090SOL    HW1 9602   0.170   4.279  10.655
 3090SOL    HW2 9603   0.072   4.354  10.763
 3091SOL     OW 9604   0.561   3.946  10.457
 3091SOL    HW1 9605   0.599   3.862  10.494
 3091SOL    HW2 9606   0.473   3.965  10.501
 3092SOL     OW 9607   1.017   3.763  10.063
 3092SOL    HW1 9608   0.945   3.768   9.994
 3092SOL    HW2 9609   0.993   3.694  10.132
 3093SOL     OW 9610   1.466   4.314  10.302
 3093SOL    HW1 9611   1.436   4.219  10.309
 3093SOL    HW2 9612   1.539   4.330  10.368
 3094SOL     OW 9613   0.527   3.980   9.638
 3094SOL    HW1 9614   0.554   3.921   9.563
 3094SOL    HW2 9615   0.527   4.075   9.607
 3095SOL     OW 9616   0.915   3.813  10.712
 3095SOL    HW1 9617   0.940   3.793  10.617
 3095SOL    HW2 9618   0.987   3.869  10.754
 3096SOL     OW 9619   1.274   4.110  10.572
 3096SOL    HW1 9620   1.295   4.184  10.636
 3096SOL    HW2 9621   1.185   4.127  10.529
 3097SOL     OW 9622   0.566   4.261  10.175
 3097SOL    HW1 9623   0.578   4.327  10.101
 3097SOL    HW2 9624   0.612   4.295  10.258
 3098SOL     OW 9625   1.013   3.829  11.080
 3098SOL    HW1 9626   1.019   3.914  11.028
 3098SOL    HW2 9627   1.045   3.753  11.023
 3099SOL     OW 9628   0.504   3.774  11.050
 3099SOL    HW1 9629   0.462   3.717  10.980
 3099SOL    HW2 9630   0.438   3.843  11.082
 3100SOL     OW 9631   0.307   3.937  10.541
 3100SOL    HW1 9632   0.284   3.974  10.631
 3100SOL    HW2 9633   0.277   3.842  10.535
 3101SOL     OW 9634   0.732   4.358  10.374
 3101SOL    HW1 9635   0.791   4.332  10.298
 3101SOL    HW2 9636   0.704   4.454  10.363
 3102SOL     OW 9637   0.307   3.787   9.928
 3102SOL    HW1 9638   0.296   3.881   9.961
 3102SOL    HW2 9639   0.302   3.724  10.005
 3103SOL     OW 9640   1.622   4.091   9.684
 3103SOL    HW1 9641   1.624   4.015   9.748
 3103SOL    HW2 9642   1.574   4.168   9.724
 3104SOL     OW 9643   1.540   3.998   9.435
 3104SOL    HW1 9644   1.479   3.923   9.458
 3104SOL    HW2 9645   1.562   4.050   9.518
 3105SOL     OW 9646   0.339   4.233  10.316
 3105SOL    HW1 9647   0.287   4.150  10.299
 3105SOL    HW2 9648   0.416   4.238  10.252
 3106SOL     OW 9649   1.138   4.104  10.988
 3106SOL    HW1 9650   1.093   4.167  11.052
 3106SOL    HW2 9651   1.231   4.135  10.971
 3107SOL     OW 9652   1.160   3.931  10.787
 3107SOL    HW1 9653   1.160   3.995  10.864
 3107SOL    HW2 9654   1.188   3.979  10.704
 3108SOL     OW 9655   0.040   4.268  10.424
 3108SOL    HW1 9656   0.125   4.235  10.383
 3108SOL    HW2 9657   0.053   4.283  10.522
 3109SOL     OW 9658   0.189   4.244  11.032
 3109SOL    HW1 9659   0.248   4.204  10.962
 3109SOL    HW2 9660   0.131   4.315  10.991
 3110SOL     OW 9661   0.815   4.296   9.635
 3110SOL    HW1 9662   0.822   4.207   9.589
 3110SOL    HW2 9663   0.721   4.330   9.627
 3111SOL     OW 9664   1.657   4.328  10.516
 3111SOL    HW1 9665   1.619   4.259  10.578
 3111SOL    HW2 9666   1.739   4.292  10.472
 3112SOL     OW 9667   0.671   4.188  10.579
 3112SOL    HW1 9668   0.637   4.099  10.549
 3112SOL    HW2 9669   0.697   4.242  10.499
 3113SOL     OW 9670   1.726   3.859   9.833
 3113SOL    HW1 9671   1.799   3.842   9.766
 3113SOL    HW2 9672   1.695   3.772   9.871
 3114SOL     OW 9673   1.841   3.899  10.273
 3114SOL    HW1 9674   1.880   3.814  10.237
 3114SOL    HW2 9675   1.743   3.901  10.254
 3115SOL     OW 9676   0.263   4.050  10.030
 3115SOL    HW1 9677   0.184   4.101   9.996
 3115SOL    HW2 9678   0.254   4.035  10.128
 3116SOL     OW 9679   1.014   3.960  10.281
 3116SOL    HW1 9680   1.006   3.924  10.188
 3116SOL    HW2 9681   1.012   3.884  10.346
 3117SOL     OW 9682   1.709   4.109  10.691
 3117SOL    HW1 9683   1.782   4.178  10.695
 3117SOL    HW2 9684   1.737   4.034  10.632
 3118SOL     OW 9685   0.672   3.927  10.799
 3118SOL    HW1 9686   0.762   3.911  10.759
 3118SOL    HW2 9687   0.680   3.932  10.898
 3119SOL     OW 9688   0.075   4.069   9.343
 3119SOL    HW1 9689  -0.017   4.041   9.314
 3119SOL    HW2 9690   0.106   4.146   9.287
 3120SOL     OW 9691   0.072   3.890   9.628
 3120SOL    HW1 9692   0.055   3.973   9.574
 3120SOL    HW2 9693   0.162   3.853   9.606
 3121SOL     OW 9694   0.716   4.289  11.018
 3121SOL    HW1 9695   0.735   4.354  11.092
 3121SOL    HW2 9696   0.776   4.209  11.027
 3122SOL     OW 9697   1.225   4.049   9.759
 3122SOL    HW1 9698   1.290   3.975   9.748
 3122SOL    HW2 9699   1.245   4.099   9.843
 3123SOL     OW 9700   1.777   4.066  10.952
 3123SOL    HW1 9701   1.760   4.097  10.858
 3123SOL    HW2 9702   1.693   4.029  10.990
 3124SOL     OW 9703   1.824   3.916  10.537
 3124SOL    HW1 9704   1.820   3.826  10.581
 3124SOL    HW2 9705   1.827   3.905  10.438
 3125SOL     OW 9706   0.428   4.148   9.830
 3125SOL    HW1 9707   0.458   4.076   9.768
 3125SOL    HW2 9708   0.389   4.108   9.913
 3126SOL     OW 9709   0.317   4.271  10.590
 3126SOL    HW1 9710   0.355   4.212  10.662
 3126SOL    HW2 9711   0.357   4.245  10.502
 3127SOL     OW 9712   1.424   3.938  10.422
 3127SOL    HW1 9713   1.476   3.873  10.477
 3127SOL    HW2 9714   1.375   4.001  10.483
 3128SOL     OW 9715   1.001   3.758  10.464
 3128SOL    HW1 9716   0.938   3.686  10.433
 3128SOL    HW2 9717   1.094   3.722  10.464
 3129SOL     OW 9718   1.352   3.776   9.478
 3129SOL    HW1 9719   1.387   3.735   9.394
 3129SOL    HW2 9720   1.262   3.738   9.498
 3130SOL     OW 9721   1.300   4.177  10.001
 3130SOL    HW1 9722   1.241   4.257  10.005
 3130SOL    HW2 9723   1.315   4.142  10.094
 3131SOL     OW 9724   1.593   3.945  10.192
 3131SOL    HW1 9725   1.509   3.944  10.246
 3131SOL    HW2 9726   1.595   4.028  10.136
 3132SOL     OW 9727   0.225   3.999  12.168
 3132SOL    HW1 9728   0.260   3.982  12.260
 3132SOL    HW2 9729   0.137   3.954  12.156
 3133SOL     OW 9730   0.019   4.092  11.819
 3133SOL    HW1 9731  -0.063   4.135  11.858
 3133SOL    HW2 9732  -0.009   4.019  11.756
 3134SOL     OW 9733   1.755   4.331  11.403
 3134SOL    HW1 9734   1.743   4.318  11.304
 3134SOL    HW2 9735   1.725   4.250  11.452
 3135SOL     OW 9736   1.603   4.171  11.909
 3135SOL    HW1 9737   1.529   4.217  11.859
 3135SOL    HW2 9738   1.654   4.239  11.962
 3136SOL     OW 9739   0.122   4.367  11.735
 3136SOL    HW1 9740   0.077   4.279  11.752
 3136SOL    HW2 9741   0.121   4.421  11.819
 3137SOL     OW 9742   0.809   3.728  11.674
 3137SOL    HW1 9743   0.849   3.819  11.665
 3137SOL    HW2 9744   0.709   3.736  11.680
 3138SOL     OW 9745   1.281   4.069  12.116
 3138SOL    HW1 9746   1.195   4.019  12.103
 3138SOL    HW2 9747   1.343   4.015  12.172
 3139SOL     OW 9748   0.865   4.072  11.367
 3139SOL    HW1 9749   0.924   4.135  11.318
 3139SOL    HW2 9750   0.884   3.978  11.338
 3140SOL     OW 9751   1.458   4.459  11.900
 3140SOL    HW1 9752   1.453   4.394  11.975
 3140SOL    HW2 9753   1.538   4.518  11.913
 3141SOL     OW 9754   1.400   3.831  11.598
 3141SOL    HW1 9755   1.376   3.794  11.508
 3141SOL    HW2 9756   1.499   3.847  11.602
 3142SOL     OW 9757   0.614   3.846  11.289
 3142SOL    HW1 9758   0.712   3.824  11.296
 3142SOL    HW2 9759   0.583   3.829  11.196
 3143SOL     OW 9760   0.539   3.788  11.684
 3143SOL    HW1 9761   0.458   3.789  11.742
 3143SOL    HW2 9762   0.542   3.871  11.629
 3144SOL     OW 9763   0.297   3.759  11.343
 3144SOL    HW1 9764   0.346   3.843  11.322
 3144SOL    HW2 9765   0.359   3.694  11.388
 3145SOL     OW 9766   0.935   3.960  11.652
 3145SOL    HW1 9767   0.887   4.001  11.574
 3145SOL    HW2 9768   1.034   3.958  11.633
 3146SOL     OW 9769   1.017   3.763  11.925
 3146SOL    HW1 9770   0.945   3.768  11.856
 3146SOL    HW2 9771   0.993   3.694  11.994
 3147SOL     OW 9772   0.527   3.980  11.500
 3147SOL    HW1 9773   0.554   3.921  11.425
 3147SOL    HW2 9774   0.527   4.075  11.469
 3148SOL     OW 9775   0.566   4.261  12.037
 3148SOL    HW1 9776   0.578   4.327  11.963
 3148SOL    HW2 9777   0.612   4.295  12.120
 3149SOL     OW 9778   0.307   3.787  11.790
 3149SOL    HW1 9779   0.296   3.881  11.823
 3149SOL    HW2 9780   0.302   3.724  11.867
 3150SOL     OW 9781   1.622   4.091  11.546
 3150SOL    HW1 9782   1.624   4.015  11.610
 3150SOL    HW2 9783   1.574   4.168  11.586
 3151SOL     OW 9784   1.540   3.998  11.297
 3151SOL    HW1 9785   1.479   3.923  11.320
 3151SOL    HW2 9786   1.562   4.050  11.380
 3152SOL     OW 9787   0.040   4.268  12.286
 3152SOL    HW1 9788   0.125   4.235  12.245
 3152SOL    HW2 9789   0.053   4.283  12.384
 3153SOL     OW 9790   0.815   4.296  11.497
 3153SOL    HW1 9791   0.822   4.207  11.451
 3153SOL    HW2 9792   0.721   4.330  11.489
 3154SOL     OW 9793   1.726   3.859  11.695
 3154SOL    HW1 9794   1.799   3.842  11.628
 3154SOL    HW2 9795   1.695   3.772  11.733
 3155SOL     OW 9796   1.841   3.899  12.135
 3155SOL    HW1 9797   1.880   3.814  12.099
 3155SOL    HW2 9798   1.743   3.901  12.116
 3156SOL     OW 9799   0.263   4.050  11.892
 3156SOL    HW1 9800   0.184   4.101  11.858
 3156SOL    HW2 9801   0.254   4.035  11.990
 3157SOL     OW 9802   0.075   4.069  11.205
 3157SOL    HW1 9803  -0.017   4.041  11.176
 3157SOL    HW2 9804   0.106   4.146  11.149
 3158SOL     OW 9805   0.072   3.890  11.490
 3158SOL    HW1 9806   0.055   3.973  11.436
 3158SOL    HW2 9807   0.162   3.853  11.468
 3159SOL     OW 9808   1.225   4.049  11.621
 3159SOL    HW1 9809   1.290   3.975  11.610
 3159SOL    HW2 9810   1.245   4.099  11.705
 3160SOL     OW 9811   0.428   4.148  11.692
 3160SOL    HW1 9812   0.458   4.076  11.630
 3160SOL    HW2 9813   0.389   4.108  11.775
 3161SOL     OW 9814   1.352   3.776  11.340
 3161SOL    HW1 9815   1.387   3.735  11.256
 3161SOL    HW2 9816   1.262   3.738  11.360
 3162SOL     OW 9817   1.300   4.177  11.863
 3162SOL    HW1 9818   1.241   4.257  11.867
 3162SOL    HW2 9819   1.315   4.142  11.956
 3163SOL     OW 9820   2.092   0.628   0.113
 3163SOL    HW1 9821   1.999   0.626   0.150
 3163SOL    HW2 9822   2.093   0.589   0.021
 3164SOL     OW 9823   2.087   0.275   0.996
 3164SOL    HW1 9824   2.122   0.258   1.088
 3164SOL    HW2 9825   1.999   0.230   0.984
 3165SOL     OW 9826   1.881   0.368   0.647
 3165SOL    HW1 9827   1.799   0.411   0.686
 3165SOL    HW2 9828   1.853   0.295   0.584
 3166SOL     OW 9829   2.431   1.275   1.165
 3166SOL    HW1 9830   2.338   1.268   1.128
 3166SOL    HW2 9831   2.442   1.364   1.209
 3167SOL     OW 9832   3.417   1.511   0.703
 3167SOL    HW1 9833   3.360   1.495   0.784
 3167SOL    HW2 9834   3.358   1.521   0.623
 3168SOL     OW 9835   2.997   0.703   0.717
 3168SOL    HW1 9836   3.054   0.781   0.692
 3168SOL    HW2 9837   2.937   0.729   0.793
 3169SOL     OW 9838   3.617   0.607   0.231
 3169SOL    HW1 9839   3.605   0.594   0.132
 3169SOL    HW2 9840   3.587   0.526   0.280
 3170SOL     OW 9841   2.630   1.144   1.023
 3170SOL    HW1 9842   2.552   1.161   1.083
 3170SOL    HW2 9843   2.664   1.231   0.987
 3171SOL     OW 9844   2.712   0.798   1.823
 3171SOL    HW1 9845   2.708   0.874   1.888
 3171SOL    HW2 9846   2.734   0.834   1.732
 3172SOL     OW 9847   2.547   1.012   0.665
 3172SOL    HW1 9848   2.616   0.996   0.735
 3172SOL    HW2 9849   2.474   1.069   0.703
 3173SOL     OW 9850   2.548   1.161   1.803
 3173SOL    HW1 9851   2.608   1.240   1.817
 3173SOL    HW2 9852   2.462   1.192   1.762
 3174SOL     OW 9853   2.197   1.435   1.061
 3174SOL    HW1 9854   2.119   1.404   1.008
 3174SOL    HW2 9855   2.255   1.493   1.004
 3175SOL     OW 9856   3.322   1.505   1.339
 3175SOL    HW1 9857   3.346   1.599   1.365
 3175SOL    HW2 9858   3.306   1.451   1.421
 3176SOL     OW 9859   2.300   0.392   1.499
 3176SOL    HW1 9860   2.382   0.336   1.508
 3176SOL    HW2 9861   2.219   0.334   1.503
 3177SOL     OW 9862   3.465   0.447   0.737
 3177SOL    HW1 9863   3.391   0.493   0.687
 3177SOL    HW2 9864   3.516   0.515   0.790
 3178SOL     OW 9865   2.093   1.713   0.483
 3178SOL    HW1 9866   2.127   1.790   0.537
 3178SOL    HW2 9867   2.137   1.713   0.393
 3179SOL     OW 9868   2.989   1.341   1.690
 3179SOL    HW1 9869   3.036   1.341   1.778
 3179SOL    HW2 9870   2.941   1.254   1.679
 3180SOL     OW 9871   2.092   1.434   0.538
 3180SOL    HW1 9872   2.066   1.530   0.538
 3180SOL    HW2 9873   2.021   1.380   0.583
 3181SOL     OW 9874   2.102   1.091   0.886
 3181SOL    HW1 9875   2.116   1.007   0.938
 3181SOL    HW2 9876   2.047   1.155   0.941
 3182SOL     OW 9877   2.482   1.786   1.439
 3182SOL    HW1 9878   2.390   1.769   1.474
 3182SOL    HW2 9879   2.510   1.878   1.465
 3183SOL     OW 9880   2.468   0.964   0.123
 3183SOL    HW1 9881   2.475   1.048   0.069
 3183SOL    HW2 9882   2.514   0.977   0.211
 3184SOL     OW 9883   3.456   0.114   1.480
 3184SOL    HW1 9884   3.438   0.181   1.408
 3184SOL    HW2 9885   3.453   0.160   1.569
 3185SOL     OW 9886   1.984   0.643   0.563
 3185SOL    HW1 9887   1.939   0.555   0.580
 3185SOL    HW2 9888   1.983   0.697   0.647
 3186SOL     OW 9889   3.704   1.767   0.359
 3186SOL    HW1 9890   3.758   1.738   0.439
 3186SOL    HW2 9891   3.734   1.857   0.330
 3187SOL     OW 9892   1.889   1.596   0.117
 3187SOL    HW1 9893   1.870   1.500   0.138
 3187SOL    HW2 9894   1.856   1.654   0.192
 3188SOL     OW 9895   3.551   0.922   0.612
 3188SOL    HW1 9896   3.646   0.893   0.620
 3188SOL    HW2 9897   3.543   0.987   0.537
 3189SOL     OW 9898   3.503   1.108   0.432
 3189SOL    HW1 9899   3.589   1.110   0.380
 3189SOL    HW2 9900   3.517   1.155   0.520
 3190SOL     OW 9901   1.975   0.737   1.597
 3190SOL    HW1 9902   2.063   0.724   1.642
 3190SOL    HW2 9903   1.962   0.834   1.575
 3191SOL     OW 9904   2.475   1.365   0.726
 3191SOL    HW1 9905   2.426   1.278   0.735
 3191SOL    HW2 9906   2.452   1.408   0.639
 3192SOL     OW 9907   3.155   1.228   1.423
 3192SOL    HW1 9908   3.192   1.155   1.365
 3192SOL    HW2 9909   3.207   1.233   1.508
 3193SOL     OW 9910   2.671   0.004   0.502
 3193SOL    HW1 9911   2.711   0.095   0.493
 3193SOL    HW2 9912   2.571   0.012   0.508
 3194SOL     OW 9913   2.059   0.976   1.264
 3194SOL    HW1 9914   2.148   0.931   1.250
 3194SOL    HW2 9915   1.986   0.911   1.245
 3195SOL     OW 9916   3.387   0.999   0.190
 3195SOL    HW1 9917   3.324   0.923   0.203
 3195SOL    HW2 9918   3.435   1.017   0.276
 3196SOL     OW 9919   3.049   1.792   1.616
 3196SOL    HW1 9920   3.073   1.852   1.540
 3196SOL    HW2 9921   3.056   1.697   1.586
 3197SOL     OW 9922   2.179   0.251   1.801
 3197SOL    HW1 9923   2.250   0.322   1.807
 3197SOL    HW2 9924   2.091   0.290   1.829
 3198SOL     OW 9925   3.328   1.417   0.953
 3198SOL    HW1 9926   3.269   1.423   1.033
 3198SOL    HW2 9927   3.313   1.329   0.907
 3199SOL     OW 9928   3.529   1.714   0.572
 3199SOL    HW1 9929   3.488   1.691   0.484
 3199SOL    HW2 9930   3.511   1.640   0.637
 3200SOL     OW 9931   2.460   0.729   0.270
 3200SOL    HW1 9932   2.484   0.798   0.202
 3200SOL    HW2 9933   2.382   0.762   0.324
 3201SOL     OW 9934   3.143   0.345   0.944
 3201SOL    HW1 9935   3.057   0.295   0.931
 3201SOL    HW2 9936   3.205   0.291   1.000
 3202SOL     OW 9937   3.438   1.662   0.307
 3202SOL    HW1 9938   3.527   1.708   0.310
 3202SOL    HW2 9939   3.417   1.638   0.212
 3203SOL     OW 9940   2.669   0.605   1.465
 3203SOL    HW1 9941   2.622   0.602   1.554
 3203SOL    HW2 9942   2.618   0.550   1.399
 3204SOL     OW 9943   3.256   0.469   1.674
 3204SOL    HW1 9944   3.236   0.512   1.762
 3204SOL    HW2 9945   3.334   0.407   1.683
 3205SOL     OW 9946   2.835   0.890   1.572
 3205SOL    HW1 9947   2.881   0.806   1.543
 3205SOL    HW2 9948   2.779   0.924   1.497
 3206SOL     OW 9949   2.853   0.410   1.242
 3206SOL    HW1 9950   2.776   0.444   1.296
 3206SOL    HW2 9951   2.819   0.359   1.163
 3207SOL     OW 9952   2.903   0.701   0.429
 3207SOL    HW1 9953   2.929   0.697   0.525
 3207SOL    HW2 9954   2.818   0.650   0.415
 3208SOL     OW 9955   1.938   0.811   0.789
 3208SOL    HW1 9956   2.037   0.799   0.798
 3208SOL    HW2 9957   1.914   0.906   0.810
 3209SOL     OW 9958   1.992   1.821   1.571
 3209SOL    HW1 9959   1.982   1.806   1.670
 3209SOL    HW2 9960   1.906   1.857   1.535
 3210SOL     OW 9961   2.727   0.348   0.195
 3210SOL    HW1 9962   2.786   0.411   0.146
 3210SOL    HW2 9963   2.746   0.254   0.166
 3211SOL     OW 9964   3.581   0.585   1.831
 3211SOL    HW1 9965   3.555   0.674   1.795
 3211SOL    HW2 9966   3.579   0.517   1.758
 3212SOL     OW 9967   3.224   1.144   0.545
 3212SOL    HW1 9968   3.307   1.115   0.497
 3212SOL    HW2 9969   3.175   1.211   0.489
 3213SOL     OW 9970   2.412   0.196   0.885
 3213SOL    HW1 9971   2.407   0.191   0.985
 3213SOL    HW2 9972   2.414   0.292   0.856
 3214SOL     OW 9973   2.870   1.456   0.477
 3214SOL    HW1 9974   2.824   1.528   0.425
 3214SOL    HW2 9975   2.866   1.476   0.575
 3215SOL     OW 9976   2.213   1.801   0.853
 3215SOL    HW1 9977   2.263   1.715   0.859
 3215SOL    HW2 9978   2.278   1.878   0.850
 3216SOL     OW 9979   3.657   1.066   0.873
 3216SOL    HW1 9980   3.595   1.051   0.797
 3216SOL    HW2 9981   3.605   1.077   0.958
 3217SOL     OW 9982   3.089   1.550   1.506
 3217SOL    HW1 9983   3.095   1.473   1.570
 3217SOL    HW2 9984   3.037   1.524   1.426
 3218SOL     OW 9985   2.183   0.943   0.242
 3218SOL    HW1 9986   2.265   0.982   0.200
 3218SOL    HW2 9987   2.156   0.861   0.193
 3219SOL     OW 9988   3.320   0.735   0.728
 3219SOL    HW1 9989   3.315   0.670   0.803
 3219SOL    HW2 9990   3.400   0.794   0.741
 3220SOL     OW 9991   2.323   1.266   1.727
 3220SOL    HW1 9992   2.273   1.267   1.641
 3220SOL    HW2 9993   2.260   1.248   1.803
 3221SOL     OW 9994   2.973   1.776   0.237
 3221SOL    HW1 9995   2.913   1.714   0.287
 3221SOL    HW2 9996   3.004   1.732   0.152
 3222SOL     OW 9997   2.064   0.285   1.498
 3222SOL    HW1 9998   1.984   0.345   1.485
 3222SOL    HW2 9999   2.054   0.236   1.584
 3223SOL     OW10000   3.494   1.377   0.081
 3223SOL    HW110001   3.462   1.471   0.071
 3223SOL    HW210002   3.418   1.314   0.069
 3224SOL     OW10003   2.326   1.743   0.323
 3224SOL    HW110004   2.359   1.782   0.409
 3224SOL    HW210005   2.402   1.736   0.258
 3225SOL     OW10006   3.262   0.107   0.426
 3225SOL    HW110007   3.238   0.070   0.336
 3225SOL    HW210008   3.361   0.123   0.430
 3226SOL     OW10009   2.111   1.785   1.241
 3226SOL    HW110010   2.168   1.720   1.291
 3226SOL    HW210011   2.095   1.752   1.148
 3227SOL     OW10012   2.802   1.698   0.904
 3227SOL    HW110013   2.882   1.641   0.925
 3227SOL    HW210014   2.753   1.658   0.827
 3228SOL     OW10015   2.244   0.700   0.480
 3228SOL    HW110016   2.289   0.610   0.477
 3228SOL    HW210017   2.150   0.689   0.513
 3229SOL     OW10018   3.409   0.222   1.729
 3229SOL    HW110019   3.404   0.259   1.821
 3229SOL    HW210020   3.337   0.153   1.717
 3230SOL     OW10021   2.476   0.122   0.117
 3230SOL    HW110022   2.574   0.100   0.124
 3230SOL    HW210023   2.445   0.105   0.024
 3231SOL     OW10024   2.643   0.264   1.749
 3231SOL    HW110025   2.710   0.203   1.792
 3231SOL    HW210026   2.570   0.283   1.814
 3232SOL     OW10027   2.750   1.514   1.195
 3232SOL    HW110028   2.727   1.489   1.101
 3232SOL    HW210029   2.811   1.445   1.234
 3233SOL     OW10030   3.213   0.590   1.433
 3233SOL    HW110031   3.241   0.547   1.518
 3233SOL    HW210032   3.238   0.686   1.434
 3234SOL     OW10033   2.665   1.402   0.924
 3234SOL    HW110034   2.755   1.416   0.882
 3234SOL    HW210035   2.594   1.404   0.853
 3235SOL     OW10036   2.784   0.503   0.899
 3235SOL    HW110037   2.759   0.494   0.803
 3235SOL    HW210038   2.832   0.421   0.930
 3236SOL     OW10039   2.401   0.064   0.512
 3236SOL    HW110040   2.320   0.065   0.570
 3236SOL    HW210041   2.404   0.147   0.457
 3237SOL     OW10042   3.296   1.188   0.041
 3237SOL    HW110043   3.328   1.112   0.098
 3237SOL    HW210044   3.204   1.215   0.071
 3238SOL     OW10045   2.159   0.035   0.171
 3238SOL    HW110046   2.208   0.119   0.150
 3238SOL    HW210047   2.221  -0.030   0.216
 3239SOL     OW10048   2.797   0.236   0.480
 3239SOL    HW110049   2.749   0.277   0.402
 3239SOL    HW210050   2.896   0.234   0.461
 3240SOL     OW10051   2.938   0.683   1.464
 3240SOL    HW110052   2.858   0.622   1.467
 3240SOL    HW210053   3.019   0.630   1.440
 3241SOL     OW10054   3.089   1.570   0.793
 3241SOL    HW110055   3.110   1.644   0.728
 3241SOL    HW210056   3.157   1.570   0.866
 3242SOL     OW10057   2.321   1.152   0.741
 3242SOL    HW110058   2.250   1.125   0.806
 3242SOL    HW210059   2.295   1.124   0.648
 3243SOL     OW10060   3.133   1.797   0.591
 3243SOL    HW110061   3.177   1.861   0.527
 3243SOL    HW210062   3.083   1.849   0.661
 3244SOL     OW10063   2.894   0.549   0.016
 3244SOL    HW110064   2.853   0.631  -0.023
 3244SOL    HW210065   2.958   0.575   0.089
 3245SOL     OW10066   1.940   0.556   1.386
 3245SOL    HW110067   2.032   0.555   1.345
 3245SOL    HW210068   1.934   0.630   1.453
 3246SOL     OW10069   2.423   0.222   1.147
 3246SOL    HW110070   2.461   0.138   1.184
 3246SOL    HW210071   2.335   0.241   1.191
 3247SOL     OW10072   2.728   0.454   0.642
 3247SOL    HW110073   2.696   0.526   0.580
 3247SOL    HW210074   2.752   0.373   0.589
 3248SOL     OW10075   2.879   0.039   0.753
 3248SOL    HW110076   2.807   0.044   0.684
 3248SOL    HW210077   2.855  -0.030   0.822
 3249SOL     OW10078   3.291   1.173   0.867
 3249SOL    HW110079   3.236   1.089   0.860
 3249SOL    HW210080   3.317   1.202   0.775
 3250SOL     OW10081   3.328   0.590   0.992
 3250SOL    HW110082   3.298   0.495   0.999
 3250SOL    HW210083   3.401   0.606   1.058
 3251SOL     OW10084   3.719   0.833   0.377
 3251SOL    HW110085   3.761   0.769   0.441
 3251SOL    HW210086   3.681   0.782   0.299
 3252SOL     OW10087   2.350   1.385   0.174
 3252SOL    HW110088   2.263   1.370   0.221
 3252SOL    HW210089   2.333   1.411   0.079
 3253SOL     OW10090   3.526   1.280   0.657
 3253SOL    HW110091   3.625   1.288   0.671
 3253SOL    HW210092   3.481   1.364   0.688
 3254SOL     OW10093   3.252   0.575   0.078
 3254SOL    HW110094   3.198   0.554   0.159
 3254SOL    HW210095   3.343   0.534   0.087
 3255SOL     OW10096   2.389   0.256   0.328
 3255SOL    HW110097   2.416   0.197   0.253
 3255SOL    HW210098   2.389   0.351   0.297
 3256SOL     OW10099   3.616   1.223   1.588
 3256SOL    HW110100   3.707   1.184   1.575
 3256SOL    HW210101   3.624   1.319   1.612
 3257SOL     OW10102   2.926   1.347   1.340
 3257SOL    HW110103   2.846   1.324   1.395
 3257SOL    HW210104   3.009   1.321   1.389
 3258SOL     OW10105   3.454   1.629   1.625
 3258SOL    HW110106   3.481   1.663   1.535
 3258SOL    HW210107   3.533   1.591   1.671
 3259SOL     OW10108   2.973   1.195   1.100
 3259SOL    HW110109   2.933   1.239   1.181
 3259SOL    HW210110   2.932   1.232   1.017
 3260SOL     OW10111   3.500   1.099   1.079
 3260SOL    HW110112   3.505   1.180   1.138
 3260SOL    HW210113   3.414   1.101   1.028
 3261SOL     OW10114   2.777   0.089   1.402
 3261SOL    HW110115   2.802   0.069   1.307
 3261SOL    HW210116   2.849   0.145   1.444
 3262SOL     OW10117   2.842   1.116   1.719
 3262SOL    HW110118   2.743   1.122   1.729
 3262SOL    HW210119   2.865   1.036   1.663
 3263SOL     OW10120   2.567   1.050   0.368
 3263SOL    HW110121   2.553   1.057   0.467
 3263SOL    HW210122   2.651   0.999   0.350
 3264SOL     OW10123   2.272   0.813   1.251
 3264SOL    HW110124   2.358   0.825   1.301
 3264SOL    HW210125   2.230   0.726   1.278
 3265SOL     OW10126   3.136   0.386   1.262
 3265SOL    HW110127   3.157   0.460   1.326
 3265SOL    HW210128   3.047   0.403   1.219
 3266SOL     OW10129   1.926   1.564   1.331
 3266SOL    HW110130   1.880   1.646   1.297
 3266SOL    HW210131   2.024   1.583   1.340
 3267SOL     OW10132   2.229   1.100   0.501
 3267SOL    HW110133   2.222   1.183   0.445
 3267SOL    HW210134   2.233   1.020   0.441
 3268SOL     OW10135   2.428   0.537   0.865
 3268SOL    HW110136   2.440   0.603   0.791
 3268SOL    HW210137   2.474   0.571   0.948
 3269SOL     OW10138   3.114   1.348   0.388
 3269SOL    HW110139   3.164   1.425   0.428
 3269SOL    HW210140   3.019   1.350   0.420
 3270SOL     OW10141   3.134   1.445   1.142
 3270SOL    HW110142   3.181   1.458   1.229
 3270SOL    HW210143   3.068   1.371   1.151
 3271SOL     OW10144   3.444   0.639   0.472
 3271SOL    HW110145   3.413   0.700   0.545
 3271SOL    HW210146   3.494   0.691   0.403
 3272SOL     OW10147   2.216   1.510   1.329
 3272SOL    HW110148   2.195   1.466   1.242
 3272SOL    HW210149   2.313   1.536   1.332
 3273SOL     OW10150   2.264   0.751   1.598
 3273SOL    HW110151   2.332   0.806   1.551
 3273SOL    HW210152   2.304   0.663   1.625
 3274SOL     OW10153   3.449   0.779   1.670
 3274SOL    HW110154   3.357   0.817   1.665
 3274SOL    HW210155   3.509   0.826   1.605
 3275SOL     OW10156   2.875   0.105   1.770
 3275SOL    HW110157   2.881   0.190   1.718
 3275SOL    HW210158   2.907   0.029   1.713
 3276SOL     OW10159   2.366   0.050   1.740
 3276SOL    HW110160   2.324  -0.007   1.670
 3276SOL    HW210161   2.300   0.119   1.772
 3277SOL     OW10162   2.435   0.870   1.029
 3277SOL    HW110163   2.479   0.959   1.020
 3277SOL    HW210164   2.372   0.870   1.106
 3278SOL     OW10165   3.222   0.862   1.045
 3278SOL    HW110166   3.147   0.862   0.979
 3278SOL    HW210167   3.259   0.770   1.054
 3279SOL     OW10168   3.071   0.525   0.275
 3279SOL    HW110169   3.084   0.441   0.329
 3279SOL    HW210170   3.042   0.599   0.335
 3280SOL     OW10171   2.169   0.213   1.231
 3280SOL    HW110172   2.146   0.250   1.321
 3280SOL    HW210173   2.139   0.118   1.225
 3281SOL     OW10174   1.899   1.310   1.282
 3281SOL    HW110175   1.952   1.261   1.350
 3281SOL    HW210176   1.921   1.408   1.287
 3282SOL     OW10177   2.594   0.634   1.064
 3282SOL    HW110178   2.653   0.608   0.988
 3282SOL    HW210179   2.566   0.730   1.053
 3283SOL     OW10180   3.590   0.935   1.854
 3283SOL    HW110181   3.544   0.928   1.765
 3283SOL    HW210182   3.528   0.979   1.920
 3284SOL     OW10183   2.169   0.063   0.618
 3284SOL    HW110184   2.158   0.157   0.651
 3284SOL    HW210185   2.164   0.000   0.695
 3285SOL     OW10186   3.484   0.367   0.374
 3285SOL    HW110187   3.486   0.291   0.438
 3285SOL    HW210188   3.436   0.444   0.414
 3286SOL     OW10189   2.885   0.766   0.966
 3286SOL    HW110190   2.900   0.787   1.062
 3286SOL    HW210191   2.855   0.671   0.957
 3287SOL     OW10192   2.842   1.573   1.700
 3287SOL    HW110193   2.822   1.617   1.612
 3287SOL    HW210194   2.881   1.482   1.684
 3288SOL     OW10195   3.721   1.518   1.605
 3288SOL    HW110196   3.735   1.545   1.510
 3288SOL    HW210197   3.804   1.540   1.658
 3289SOL     OW10198   2.212   0.898   1.804
 3289SOL    HW110199   2.288   0.942   1.852
 3289SOL    HW210200   2.247   0.851   1.722
 3290SOL     OW10201   3.402   0.274   0.125
 3290SOL    HW110202   3.341   0.199   0.148
 3290SOL    HW210203   3.424   0.326   0.208
 3291SOL     OW10204   3.165   0.838   0.042
 3291SOL    HW110205   3.199   0.745   0.057
 3291SOL    HW210206   3.183   0.865  -0.053
 3292SOL     OW10207   2.930   1.333   0.849
 3292SOL    HW110208   2.937   1.249   0.794
 3292SOL    HW210209   2.992   1.402   0.813
 3293SOL     OW10210   2.181   0.810   0.949
 3293SOL    HW110211   2.274   0.846   0.954
 3293SOL    HW210212   2.175   0.725   1.001
 3294SOL     OW10213   2.201   0.509   1.006
 3294SOL    HW110214   2.149   0.426   0.989
 3294SOL    HW210215   2.278   0.514   0.942
 3295SOL     OW10216   3.000   0.380   1.678
 3295SOL    HW110217   2.955   0.443   1.742
 3295SOL    HW210218   3.093   0.411   1.661
 3296SOL     OW10219   3.022   0.207   1.477
 3296SOL    HW110220   3.022   0.271   1.554
 3296SOL    HW210221   3.050   0.255   1.394
 3297SOL     OW10222   1.870   1.326   0.200
 3297SOL    HW110223   1.777   1.347   0.169
 3297SOL    HW210224   1.880   1.227   0.213
 3298SOL     OW10225   1.950   1.801   0.927
 3298SOL    HW110226   1.908   1.715   0.900
 3298SOL    HW210227   2.044   1.804   0.893
 3299SOL     OW10228   2.366   1.568   0.910
 3299SOL    HW110229   2.432   1.642   0.919
 3299SOL    HW210230   2.410   1.489   0.868
 3300SOL     OW10231   2.864   0.796   1.238
 3300SOL    HW110232   2.905   0.764   1.324
 3300SOL    HW210233   2.768   0.769   1.235
 3301SOL     OW10234   1.902   0.544   1.114
 3301SOL    HW110235   1.987   0.511   1.073
 3301SOL    HW210236   1.915   0.559   1.212
 3302SOL     OW10237   2.051   0.520   1.722
 3302SOL    HW110238   2.110   0.480   1.652
 3302SOL    HW210239   1.993   0.591   1.681
 3303SOL     OW10240   3.231   0.950   1.660
 3303SOL    HW110241   3.270   1.039   1.680
 3303SOL    HW210242   3.241   0.930   1.563
 3304SOL     OW10243   2.677   0.572   0.325
 3304SOL    HW110244   2.684   0.483   0.279
 3304SOL    HW210245   2.583   0.606   0.317
 3305SOL     OW10246   3.519   0.604   1.206
 3305SOL    HW110247   3.481   0.535   1.268
 3305SOL    HW210248   3.601   0.568   1.162
 3306SOL     OW10249   2.114   1.564   1.744
 3306SOL    HW110250   2.084   1.621   1.820
 3306SOL    HW210251   2.107   1.467   1.770
 3307SOL     OW10252   2.533   0.464   1.269
 3307SOL    HW110253   2.499   0.375   1.239
 3307SOL    HW210254   2.559   0.518   1.189
 3308SOL     OW10255   2.792   1.678   1.465
 3308SOL    HW110256   2.768   1.660   1.370
 3308SOL    HW210257   2.822   1.772   1.475
 3309SOL     OW10258   2.335   0.500   0.191
 3309SOL    HW110259   2.396   0.580   0.195
 3309SOL    HW210260   2.240   0.531   0.198
 3310SOL     OW10261   2.021   1.137   1.466
 3310SOL    HW110262   2.043   1.076   1.542
 3310SOL    HW210263   2.031   1.088   1.380
 3311SOL     OW10264   3.209   1.059   1.234
 3311SOL    HW110265   3.233   0.996   1.160
 3311SOL    HW210266   3.119   1.099   1.216
 3312SOL     OW10267   3.164   0.855   0.309
 3312SOL    HW110268   3.078   0.824   0.351
 3312SOL    HW210269   3.160   0.841   0.210
 3313SOL     OW10270   3.621   1.747   1.154
 3313SOL    HW110271   3.682   1.777   1.081
 3313SOL    HW210272   3.583   1.658   1.132
 3314SOL     OW10273   3.114   1.731   1.128
 3314SOL    HW110274   3.198   1.736   1.074
 3314SOL    HW210275   3.091   1.635   1.146
 3315SOL     OW10276   1.945   1.258   1.022
 3315SOL    HW110277   1.940   1.257   1.122
 3315SOL    HW210278   1.862   1.217   0.984
 3316SOL     OW10279   2.550   1.662   1.716
 3316SOL    HW110280   2.494   1.743   1.725
 3316SOL    HW210281   2.602   1.666   1.630
 3317SOL     OW10282   2.765   0.086   0.133
 3317SOL    HW110283   2.816   0.087   0.047
 3317SOL    HW210284   2.821   0.044   0.204
 3318SOL     OW10285   3.588   0.135   0.523
 3318SOL    HW110286   3.661   0.118   0.456
 3318SOL    HW210287   3.557   0.048   0.561
 3319SOL     OW10288   3.250   1.573   0.477
 3319SOL    HW110289   3.317   1.585   0.403
 3319SOL    HW210290   3.210   1.662   0.500
 3320SOL     OW10291   1.992   1.794   1.851
 3320SOL    HW110292   1.951   1.720   1.904
 3320SOL    HW210293   2.056   1.845   1.909
 3321SOL     OW10294   3.142   0.927   0.672
 3321SOL    HW110295   3.202   0.846   0.674
 3321SOL    HW210296   3.182   0.996   0.612
 3322SOL     OW10297   2.692   1.273   1.422
 3322SOL    HW110298   2.687   1.306   1.517
 3322SOL    HW210299   2.606   1.292   1.376
 3323SOL     OW10300   2.534   1.616   0.154
 3323SOL    HW110301   2.543   1.626   0.055
 3323SOL    HW210302   2.494   1.527   0.175
 3324SOL     OW10303   3.512   1.720   1.394
 3324SOL    HW110304   3.565   1.730   1.310
 3324SOL    HW210305   3.485   1.810   1.428
 3325SOL     OW10306   3.703   0.175   0.963
 3325SOL    HW110307   3.742   0.090   0.927
 3325SOL    HW210308   3.605   0.177   0.944
 3326SOL     OW10309   2.125   0.326   0.720
 3326SOL    HW110310   2.046   0.377   0.686
 3326SOL    HW210311   2.116   0.311   0.818
 3327SOL     OW10312   3.056   1.612   0.031
 3327SOL    HW110313   3.062   1.519   0.068
 3327SOL    HW210314   2.997   1.612  -0.049
 3328SOL     OW10315   2.684   1.002   1.372
 3328SOL    HW110316   2.724   1.001   1.280
 3328SOL    HW210317   2.694   1.094   1.412
 3329SOL     OW10318   2.778   0.910   0.291
 3329SOL    HW110319   2.841   0.948   0.223
 3329SOL    HW210320   2.818   0.827   0.330
 3330SOL     OW10321   3.366   1.607   0.044
 3330SOL    HW110322   3.274   1.644   0.051
 3330SOL    HW210323   3.404   1.627  -0.046
 3331SOL     OW10324   2.234   1.288   1.490
 3331SOL    HW110325   2.221   1.381   1.456
 3331SOL    HW210326   2.150   1.236   1.477
 3332SOL     OW10327   3.476   1.292   1.289
 3332SOL    HW110328   3.536   1.295   1.369
 3332SOL    HW210329   3.401   1.356   1.302
 3333SOL     OW10330   2.901   1.098   0.696
 3333SOL    HW110331   2.831   1.051   0.750
 3333SOL    HW210332   2.960   1.030   0.653
 3334SOL     OW10333   2.876   0.236   0.971
 3334SOL    HW110334   2.868   0.200   0.878
 3334SOL    HW210335   2.874   0.160   1.036
 3335SOL     OW10336   2.452   1.487   0.491
 3335SOL    HW110337   2.494   1.429   0.421
 3335SOL    HW210338   2.408   1.566   0.447
 3336SOL     OW10339   3.571   0.385   1.381
 3336SOL    HW110340   3.644   0.454   1.385
 3336SOL    HW210341   3.599   0.310   1.322
 3337SOL     OW10342   2.117   1.348   0.290
 3337SOL    HW110343   2.021   1.349   0.263
 3337SOL    HW210344   2.129   1.401   0.374
 3338SOL     OW10345   1.967   1.013   1.726
 3338SOL    HW110346   1.890   0.980   1.780
 3338SOL    HW210347   2.052   0.983   1.768
 3339SOL     OW10348   2.534   0.203   1.489
 3339SOL    HW110349   2.624   0.187   1.449
 3339SOL    HW210350   2.542   0.208   1.588
 3340SOL     OW10351   1.937   0.345   0.033
 3340SOL    HW110352   1.845   0.317   0.004
 3340SOL    HW210353   1.968   0.422  -0.023
 3341SOL     OW10354   3.302   0.856   1.398
 3341SOL    HW110355   3.245   0.908   1.335
 3341SOL    HW210356   3.398   0.868   1.374
 3342SOL     OW10357   1.934   0.166   0.318
 3342SOL    HW110358   1.917   0.249   0.264
 3342SOL    HW210359   2.024   0.129   0.296
 3343SOL     OW10360   3.045   1.335   0.119
 3343SOL    HW110361   2.946   1.324   0.121
 3343SOL    HW210362   3.079   1.350   0.212
 3344SOL     OW10363   2.475   0.842   1.431
 3344SOL    HW110364   2.531   0.923   1.414
 3344SOL    HW210365   2.534   0.762   1.434
 3345SOL     OW10366   3.355   1.767   0.959
 3345SOL    HW110367   3.388   1.831   0.890
 3345SOL    HW210368   3.421   1.761   1.034
 3346SOL     OW10369   2.578   0.565   1.708
 3346SOL    HW110370   2.597   0.630   1.782
 3346SOL    HW210371   2.638   0.485   1.717
 3347SOL     OW10372   3.312   1.220   1.633
 3347SOL    HW110373   3.303   1.210   1.732
 3347SOL    HW210374   3.408   1.213   1.607
 3348SOL     OW10375   2.252   1.741   1.560
 3348SOL    HW110376   2.161   1.782   1.558
 3348SOL    HW210377   2.245   1.647   1.592
 3349SOL     OW10378   3.536   0.883   1.254
 3349SOL    HW110379   3.509   0.794   1.217
 3349SOL    HW210380   3.537   0.951   1.181
 3350SOL     OW10381   3.087   0.325   0.449
 3350SOL    HW110382   3.152   0.251   0.438
 3350SOL    HW210383   3.107   0.375   0.533
 3351SOL     OW10384   2.456   0.745   0.652
 3351SOL    HW110385   2.506   0.830   0.633
 3351SOL    HW210386   2.368   0.747   0.604
 3352SOL     OW10387   3.639   0.342   1.642
 3352SOL    HW110388   3.622   0.373   1.548
 3352SOL    HW210389   3.555   0.305   1.680
 3353SOL     OW10390   3.592   0.934   1.517
 3353SOL    HW110391   3.630   1.025   1.532
 3353SOL    HW210392   3.584   0.917   1.418
 3354SOL     OW10393   2.721   1.374   0.016
 3354SOL    HW110394   2.675   1.389   0.104
 3354SOL    HW210395   2.765   1.459  -0.014
 3355SOL     OW10396   2.523   1.790   0.953
 3355SOL    HW110397   2.477   1.878   0.940
 3355SOL    HW210398   2.622   1.802   0.946
 3356SOL     OW10399   2.721   0.956   0.861
 3356SOL    HW110400   2.775   0.887   0.909
 3356SOL    HW210401   2.689   1.025   0.927
 3357SOL     OW10402   2.945   0.984   0.087
 3357SOL    HW110403   2.922   1.037   0.005
 3357SOL    HW210404   3.026   0.928   0.068
 3358SOL     OW10405   3.723   1.569   0.851
 3358SOL    HW110406   3.652   1.557   0.781
 3358SOL    HW210407   3.724   1.490   0.911
 3359SOL     OW10408   2.083   1.314   1.844
 3359SOL    HW110409   2.018   1.241   1.823
 3359SOL    HW210410   2.087   1.328   1.942
 3360SOL     OW10411   1.941   1.240   0.653
 3360SOL    HW110412   1.940   1.193   0.741
 3360SOL    HW210413   2.023   1.212   0.602
 3361SOL     OW10414   2.534   1.391   1.624
 3361SOL    HW110415   2.456   1.341   1.662
 3361SOL    HW210416   2.531   1.486   1.655
 3362SOL     OW10417   3.686   0.192   1.227
 3362SOL    HW110418   3.682   0.102   1.271
 3362SOL    HW210419   3.689   0.181   1.128
 3363SOL     OW10420   2.290   0.424   0.520
 3363SOL    HW110421   2.320   0.352   0.458
 3363SOL    HW210422   2.251   0.384   0.603
 3364SOL     OW10423   3.567   1.487   1.104
 3364SOL    HW110424   3.474   1.462   1.077
 3364SOL    HW210425   3.593   1.437   1.186
 3365SOL     OW10426   2.179   0.547   1.280
 3365SOL    HW110427   2.217   0.488   1.352
 3365SOL    HW210428   2.219   0.521   1.192
 3366SOL     OW10429   2.674   1.586   0.687
 3366SOL    HW110430   2.706   1.596   0.593
 3366SOL    HW210431   2.595   1.524   0.689
 3367SOL     OW10432   3.286   0.214   1.112
 3367SOL    HW110433   3.338   0.149   1.167
 3367SOL    HW210434   3.237   0.277   1.173
 3368SOL     OW10435   2.863   0.034   1.154
 3368SOL    HW110436   2.800  -0.038   1.123
 3368SOL    HW210437   2.956  -0.002   1.154
 3369SOL     OW10438   2.632   1.330   0.301
 3369SOL    HW110439   2.586   1.243   0.318
 3369SOL    HW210440   2.723   1.327   0.342
 3370SOL     OW10441   2.480   1.567   1.284
 3370SOL    HW110442   2.475   1.649   1.341
 3370SOL    HW210443   2.569   1.564   1.239
 3371SOL     OW10444   3.214   0.052   0.168
 3371SOL    HW110445   3.249   0.011   0.084
 3371SOL    HW210446   3.124   0.014   0.188
 3372SOL     OW10447   3.162   0.453   0.691
 3372SOL    HW110448   3.103   0.533   0.695
 3372SOL    HW210449   3.177   0.418   0.784
 3373SOL     OW10450   3.455   0.221   0.882
 3373SOL    HW110451   3.371   0.220   0.936
 3373SOL    HW210452   3.457   0.304   0.826
 3374SOL     OW10453   1.901   1.077   0.300
 3374SOL    HW110454   2.000   1.066   0.291
 3374SOL    HW210455   1.861   0.991   0.332
 3375SOL     OW10456   2.737   1.646   0.337
 3375SOL    HW110457   2.660   1.611   0.283
 3375SOL    HW210458   2.705   1.717   0.399
 3376SOL     OW10459   2.092   0.628   1.975
 3376SOL    HW110460   1.999   0.626   2.012
 3376SOL    HW210461   2.093   0.589   1.883
 3377SOL     OW10462   2.087   0.275   2.858
 3377SOL    HW110463   2.122   0.258   2.950
 3377SOL    HW210464   1.999   0.230   2.846
 3378SOL     OW10465   1.881   0.368   2.509
 3378SOL    HW110466   1.799   0.411   2.548
 3378SOL    HW210467   1.853   0.295   2.446
 3379SOL     OW10468   2.431   1.275   3.027
 3379SOL    HW110469   2.338   1.268   2.990
 3379SOL    HW210470   2.442   1.364   3.071
 3380SOL     OW10471   3.417   1.511   2.565
 3380SOL    HW110472   3.360   1.495   2.646
 3380SOL    HW210473   3.358   1.521   2.485
 3381SOL     OW10474   2.997   0.703   2.579
 3381SOL    HW110475   3.054   0.781   2.554
 3381SOL    HW210476   2.937   0.729   2.655
 3382SOL     OW10477   3.617   0.607   2.093
 3382SOL    HW110478   3.605   0.594   1.994
 3382SOL    HW210479   3.587   0.526   2.142
 3383SOL     OW10480   2.630   1.144   2.885
 3383SOL    HW110481   2.552   1.161   2.945
 3383SOL    HW210482   2.664   1.231   2.849
 3384SOL     OW10483   2.712   0.798   3.685
 3384SOL    HW110484   2.708   0.874   3.750
 3384SOL    HW210485   2.734   0.834   3.594
 3385SOL     OW10486   2.547   1.012   2.527
 3385SOL    HW110487   2.616   0.996   2.597
 3385SOL    HW210488   2.474   1.069   2.565
 3386SOL     OW10489   2.548   1.161   3.665
 3386SOL    HW110490   2.608   1.240   3.679
 3386SOL    HW210491   2.462   1.192   3.624
 3387SOL     OW10492   2.197   1.435   2.923
 3387SOL    HW110493   2.119   1.404   2.870
 3387SOL    HW210494   2.255   1.493   2.866
 3388SOL     OW10495   3.322   1.505   3.201
 3388SOL    HW110496   3.346   1.599   3.227
 3388SOL    HW210497   3.306   1.451   3.283
 3389SOL     OW10498   2.300   0.392   3.361
 3389SOL    HW110499   2.382   0.336   3.370
 3389SOL    HW210500   2.219   0.334   3.365
 3390SOL     OW10501   3.465   0.447   2.599
 3390SOL    HW110502   3.391   0.493   2.549
 3390SOL    HW210503   3.516   0.515   2.652
 3391SOL     OW10504   2.093   1.713   2.345
 3391SOL    HW110505   2.127   1.790   2.399
 3391SOL    HW210506   2.137   1.713   2.255
 3392SOL     OW10507   2.989   1.341   3.552
 3392SOL    HW110508   3.036   1.341   3.640
 3392SOL    HW210509   2.941   1.254   3.541
 3393SOL     OW10510   2.092   1.434   2.400
 3393SOL    HW110511   2.066   1.530   2.400
 3393SOL    HW210512   2.021   1.380   2.445
 3394SOL     OW10513   2.102   1.091   2.748
 3394SOL    HW110514   2.116   1.007   2.800
 3394SOL    HW210515   2.047   1.155   2.803
 3395SOL     OW10516   2.482   1.786   3.301
 3395SOL    HW110517   2.390   1.769   3.336
 3395SOL    HW210518   2.510   1.878   3.327
 3396SOL     OW10519   2.468   0.964   1.985
 3396SOL    HW110520   2.475   1.048   1.931
 3396SOL    HW210521   2.514   0.977   2.073
 3397SOL     OW10522   3.456   0.114   3.342
 3397SOL    HW110523   3.438   0.181   3.270
 3397SOL    HW210524   3.453   0.160   3.431
 3398SOL     OW10525   1.984   0.643   2.425
 3398SOL    HW110526   1.939   0.555   2.442
 3398SOL    HW210527   1.983   0.697   2.509
 3399SOL     OW10528   3.704   1.767   2.221
 3399SOL    HW110529   3.758   1.738   2.301
 3399SOL    HW210530   3.734   1.857   2.192
 3400SOL     OW10531   1.889   1.596   1.979
 3400SOL    HW110532   1.870   1.500   2.000
 3400SOL    HW210533   1.856   1.654   2.054
 3401SOL     OW10534   3.551   0.922   2.474
 3401SOL    HW110535   3.646   0.893   2.482
 3401SOL    HW210536   3.543   0.987   2.399
 3402SOL     OW10537   3.503   1.108   2.294
 3402SOL    HW110538   3.589   1.110   2.242
 3402SOL    HW210539   3.517   1.155   2.382
 3403SOL     OW10540   1.975   0.737   3.459
 3403SOL    HW110541   2.063   0.724   3.504
 3403SOL    HW210542   1.962   0.834   3.437
 3404SOL     OW10543   2.475   1.365   2.588
 3404SOL    HW110544   2.426   1.278   2.597
 3404SOL    HW210545   2.452   1.408   2.501
 3405SOL     OW10546   3.155   1.228   3.285
 3405SOL    HW110547   3.192   1.155   3.227
 3405SOL    HW210548   3.207   1.233   3.370
 3406SOL     OW10549   2.671   0.004   2.364
 3406SOL    HW110550   2.711   0.095   2.355
 3406SOL    HW210551   2.571   0.012   2.370
 3407SOL     OW10552   2.059   0.976   3.126
 3407SOL    HW110553   2.148   0.931   3.112
 3407SOL    HW210554   1.986   0.911   3.107
 3408SOL     OW10555   3.387   0.999   2.052
 3408SOL    HW110556   3.324   0.923   2.065
 3408SOL    HW210557   3.435   1.017   2.138
 3409SOL     OW10558   3.049   1.792   3.478
 3409SOL    HW110559   3.073   1.852   3.402
 3409SOL    HW210560   3.056   1.697   3.448
 3410SOL     OW10561   2.179   0.251   3.663
 3410SOL    HW110562   2.250   0.322   3.669
 3410SOL    HW210563   2.091   0.290   3.691
 3411SOL     OW10564   3.328   1.417   2.815
 3411SOL    HW110565   3.269   1.423   2.895
 3411SOL    HW210566   3.313   1.329   2.769
 3412SOL     OW10567   3.529   1.714   2.434
 3412SOL    HW110568   3.488   1.691   2.346
 3412SOL    HW210569   3.511   1.640   2.499
 3413SOL     OW10570   2.460   0.729   2.132
 3413SOL    HW110571   2.484   0.798   2.064
 3413SOL    HW210572   2.382   0.762   2.186
 3414SOL     OW10573   3.143   0.345   2.806
 3414SOL    HW110574   3.057   0.295   2.793
 3414SOL    HW210575   3.205   0.291   2.862
 3415SOL     OW10576   3.438   1.662   2.169
 3415SOL    HW110577   3.527   1.708   2.172
 3415SOL    HW210578   3.417   1.638   2.074
 3416SOL     OW10579   2.669   0.605   3.327
 3416SOL    HW110580   2.622   0.602   3.416
 3416SOL    HW210581   2.618   0.550   3.261
 3417SOL     OW10582   3.256   0.469   3.536
 3417SOL    HW110583   3.236   0.512   3.624
 3417SOL    HW210584   3.334   0.407   3.545
 3418SOL     OW10585   2.835   0.890   3.434
 3418SOL    HW110586   2.881   0.806   3.405
 3418SOL    HW210587   2.779   0.924   3.359
 3419SOL     OW10588   2.853   0.410   3.104
 3419SOL    HW110589   2.776   0.444   3.158
 3419SOL    HW210590   2.819   0.359   3.025
 3420SOL     OW10591   2.903   0.701   2.291
 3420SOL    HW110592   2.929   0.697   2.387
 3420SOL    HW210593   2.818   0.650   2.277
 3421SOL     OW10594   1.938   0.811   2.651
 3421SOL    HW110595   2.037   0.799   2.660
 3421SOL    HW210596   1.914   0.906   2.672
 3422SOL     OW10597   1.992   1.821   3.433
 3422SOL    HW110598   1.982   1.806   3.532
 3422SOL    HW210599   1.906   1.857   3.397
 3423SOL     OW10600   2.727   0.348   2.057
 3423SOL    HW110601   2.786   0.411   2.008
 3423SOL    HW210602   2.746   0.254   2.028
 3424SOL     OW10603   3.581   0.585   3.693
 3424SOL    HW110604   3.555   0.674   3.657
 3424SOL    HW210605   3.579   0.517   3.620
 3425SOL     OW10606   3.224   1.144   2.407
 3425SOL    HW110607   3.307   1.115   2.359
 3425SOL    HW210608   3.175   1.211   2.351
 3426SOL     OW10609   2.412   0.196   2.747
 3426SOL    HW110610   2.407   0.191   2.847
 3426SOL    HW210611   2.414   0.292   2.718
 3427SOL     OW10612   2.870   1.456   2.339
 3427SOL    HW110613   2.824   1.528   2.287
 3427SOL    HW210614   2.866   1.476   2.437
 3428SOL     OW10615   2.213   1.801   2.715
 3428SOL    HW110616   2.263   1.715   2.721
 3428SOL    HW210617   2.278   1.878   2.712
 3429SOL     OW10618   3.657   1.066   2.735
 3429SOL    HW110619   3.595   1.051   2.659
 3429SOL    HW210620   3.605   1.077   2.820
 3430SOL     OW10621   3.089   1.550   3.368
 3430SOL    HW110622   3.095   1.473   3.432
 3430SOL    HW210623   3.037   1.524   3.288
 3431SOL     OW10624   2.183   0.943   2.104
 3431SOL    HW110625   2.265   0.982   2.062
 3431SOL    HW210626   2.156   0.861   2.055
 3432SOL     OW10627   3.320   0.735   2.590
 3432SOL    HW110628   3.315   0.670   2.665
 3432SOL    HW210629   3.400   0.794   2.603
 3433SOL     OW10630   2.323   1.266   3.589
 3433SOL    HW110631   2.273   1.267   3.503
 3433SOL    HW210632   2.260   1.248   3.665
 3434SOL     OW10633   2.973   1.776   2.099
 3434SOL    HW110634   2.913   1.714   2.149
 3434SOL    HW210635   3.004   1.732   2.014
 3435SOL     OW10636   2.064   0.285   3.360
 3435SOL    HW110637   1.984   0.345   3.347
 3435SOL    HW210638   2.054   0.236   3.446
 3436SOL     OW10639   3.494   1.377   1.943
 3436SOL    HW110640   3.462   1.471   1.933
 3436SOL    HW210641   3.418   1.314   1.931
 3437SOL     OW10642   2.326   1.743   2.185
 3437SOL    HW110643   2.359   1.782   2.271
 3437SOL    HW210644   2.402   1.736   2.120
 3438SOL     OW10645   3.262   0.107   2.288
 3438SOL    HW110646   3.238   0.070   2.198
 3438SOL    HW210647   3.361   0.123   2.292
 3439SOL     OW10648   2.111   1.785   3.103
 3439SOL    HW110649   2.168   1.720   3.153
 3439SOL    HW210650   2.095   1.752   3.010
 3440SOL     OW10651   2.802   1.698   2.766
 3440SOL    HW110652   2.882   1.641   2.787
 3440SOL    HW210653   2.753   1.658   2.689
 3441SOL     OW10654   2.244   0.700   2.342
 3441SOL    HW110655   2.289   0.610   2.339
 3441SOL    HW210656   2.150   0.689   2.375
 3442SOL     OW10657   3.409   0.222   3.591
 3442SOL    HW110658   3.404   0.259   3.683
 3442SOL    HW210659   3.337   0.153   3.579
 3443SOL     OW10660   2.476   0.122   1.979
 3443SOL    HW110661   2.574   0.100   1.986
 3443SOL    HW210662   2.445   0.105   1.886
 3444SOL     OW10663   2.643   0.264   3.611
 3444SOL    HW110664   2.710   0.203   3.654
 3444SOL    HW210665   2.570   0.283   3.676
 3445SOL     OW10666   2.750   1.514   3.057
 3445SOL    HW110667   2.727   1.489   2.963
 3445SOL    HW210668   2.811   1.445   3.096
 3446SOL     OW10669   3.213   0.590   3.295
 3446SOL    HW110670   3.241   0.547   3.380
 3446SOL    HW210671   3.238   0.686   3.296
 3447SOL     OW10672   2.665   1.402   2.786
 3447SOL    HW110673   2.755   1.416   2.744
 3447SOL    HW210674   2.594   1.404   2.715
 3448SOL     OW10675   2.784   0.503   2.761
 3448SOL    HW110676   2.759   0.494   2.665
 3448SOL    HW210677   2.832   0.421   2.792
 3449SOL     OW10678   2.401   0.064   2.374
 3449SOL    HW110679   2.320   0.065   2.432
 3449SOL    HW210680   2.404   0.147   2.319
 3450SOL     OW10681   3.296   1.188   1.903
 3450SOL    HW110682   3.328   1.112   1.960
 3450SOL    HW210683   3.204   1.215   1.933
 3451SOL     OW10684   2.159   0.035   2.033
 3451SOL    HW110685   2.208   0.119   2.012
 3451SOL    HW210686   2.221  -0.030   2.078
 3452SOL     OW10687   2.797   0.236   2.342
 3452SOL    HW110688   2.749   0.277   2.264
 3452SOL    HW210689   2.896   0.234   2.323
 3453SOL     OW10690   2.938   0.683   3.326
 3453SOL    HW110691   2.858   0.622   3.329
 3453SOL    HW210692   3.019   0.630   3.302
 3454SOL     OW10693   3.089   1.570   2.655
 3454SOL    HW110694   3.110   1.644   2.590
 3454SOL    HW210695   3.157   1.570   2.728
 3455SOL     OW10696   2.321   1.152   2.603
 3455SOL    HW110697   2.250   1.125   2.668
 3455SOL    HW210698   2.295   1.124   2.510
 3456SOL     OW10699   3.133   1.797   2.453
 3456SOL    HW110700   3.177   1.861   2.389
 3456SOL    HW210701   3.083   1.849   2.523
 3457SOL     OW10702   2.894   0.549   1.878
 3457SOL    HW110703   2.853   0.631   1.839
 3457SOL    HW210704   2.958   0.575   1.951
 3458SOL     OW10705   1.940   0.556   3.248
 3458SOL    HW110706   2.032   0.555   3.207
 3458SOL    HW210707   1.934   0.630   3.315
 3459SOL     OW10708   2.423   0.222   3.009
 3459SOL    HW110709   2.461   0.138   3.046
 3459SOL    HW210710   2.335   0.241   3.053
 3460SOL     OW10711   2.728   0.454   2.504
 3460SOL    HW110712   2.696   0.526   2.442
 3460SOL    HW210713   2.752   0.373   2.451
 3461SOL     OW10714   2.879   0.039   2.615
 3461SOL    HW110715   2.807   0.044   2.546
 3461SOL    HW210716   2.855  -0.030   2.684
 3462SOL     OW10717   3.291   1.173   2.729
 3462SOL    HW110718   3.236   1.089   2.722
 3462SOL    HW210719   3.317   1.202   2.637
 3463SOL     OW10720   3.328   0.590   2.854
 3463SOL    HW110721   3.298   0.495   2.861
 3463SOL    HW210722   3.401   0.606   2.920
 3464SOL     OW10723   3.719   0.833   2.239
 3464SOL    HW110724   3.761   0.769   2.303
 3464SOL    HW210725   3.681   0.782   2.161
 3465SOL     OW10726   2.350   1.385   2.036
 3465SOL    HW110727   2.263   1.370   2.083
 3465SOL    HW210728   2.333   1.411   1.941
 3466SOL     OW10729   3.526   1.280   2.519
 3466SOL    HW110730   3.625   1.288   2.533
 3466SOL    HW210731   3.481   1.364   2.550
 3467SOL     OW10732   3.252   0.575   1.940
 3467SOL    HW110733   3.198   0.554   2.021
 3467SOL    HW210734   3.343   0.534   1.949
 3468SOL     OW10735   2.389   0.256   2.190
 3468SOL    HW110736   2.416   0.197   2.115
 3468SOL    HW210737   2.389   0.351   2.159
 3469SOL     OW10738   3.616   1.223   3.450
 3469SOL    HW110739   3.707   1.184   3.437
 3469SOL    HW210740   3.624   1.319   3.474
 3470SOL     OW10741   2.926   1.347   3.202
 3470SOL    HW110742   2.846   1.324   3.257
 3470SOL    HW210743   3.009   1.321   3.251
 3471SOL     OW10744   3.454   1.629   3.487
 3471SOL    HW110745   3.481   1.663   3.397
 3471SOL    HW210746   3.533   1.591   3.533
 3472SOL     OW10747   2.973   1.195   2.962
 3472SOL    HW110748   2.933   1.239   3.043
 3472SOL    HW210749   2.932   1.232   2.879
 3473SOL     OW10750   3.500   1.099   2.941
 3473SOL    HW110751   3.505   1.180   3.000
 3473SOL    HW210752   3.414   1.101   2.890
 3474SOL     OW10753   2.777   0.089   3.264
 3474SOL    HW110754   2.802   0.069   3.169
 3474SOL    HW210755   2.849   0.145   3.306
 3475SOL     OW10756   2.842   1.116   3.581
 3475SOL    HW110757   2.743   1.122   3.591
 3475SOL    HW210758   2.865   1.036   3.525
 3476SOL     OW10759   2.567   1.050   2.230
 3476SOL    HW110760   2.553   1.057   2.329
 3476SOL    HW210761   2.651   0.999   2.212
 3477SOL     OW10762   2.272   0.813   3.113
 3477SOL    HW110763   2.358   0.825   3.163
 3477SOL    HW210764   2.230   0.726   3.140
 3478SOL     OW10765   3.136   0.386   3.124
 3478SOL    HW110766   3.157   0.460   3.188
 3478SOL    HW210767   3.047   0.403   3.081
 3479SOL     OW10768   1.926   1.564   3.193
 3479SOL    HW110769   1.880   1.646   3.159
 3479SOL    HW210770   2.024   1.583   3.202
 3480SOL     OW10771   2.229   1.100   2.363
 3480SOL    HW110772   2.222   1.183   2.307
 3480SOL    HW210773   2.233   1.020   2.303
 3481SOL     OW10774   2.428   0.537   2.727
 3481SOL    HW110775   2.440   0.603   2.653
 3481SOL    HW210776   2.474   0.571   2.810
 3482SOL     OW10777   3.114   1.348   2.250
 3482SOL    HW110778   3.164   1.425   2.290
 3482SOL    HW210779   3.019   1.350   2.282
 3483SOL     OW10780   3.134   1.445   3.004
 3483SOL    HW110781   3.181   1.458   3.091
 3483SOL    HW210782   3.068   1.371   3.013
 3484SOL     OW10783   3.444   0.639   2.334
 3484SOL    HW110784   3.413   0.700   2.407
 3484SOL    HW210785   3.494   0.691   2.265
 3485SOL     OW10786   2.216   1.510   3.191
 3485SOL    HW110787   2.195   1.466   3.104
 3485SOL    HW210788   2.313   1.536   3.194
 3486SOL     OW10789   2.264   0.751   3.460
 3486SOL    HW110790   2.332   0.806   3.413
 3486SOL    HW210791   2.304   0.663   3.487
 3487SOL     OW10792   3.449   0.779   3.532
 3487SOL    HW110793   3.357   0.817   3.527
 3487SOL    HW210794   3.509   0.826   3.467
 3488SOL     OW10795   2.875   0.105   3.632
 3488SOL    HW110796   2.881   0.190   3.580
 3488SOL    HW210797   2.907   0.029   3.575
 3489SOL     OW10798   2.366   0.050   3.602
 3489SOL    HW110799   2.324  -0.007   3.532
 3489SOL    HW210800   2.300   0.119   3.634
 3490SOL     OW10801   2.435   0.870   2.891
 3490SOL    HW110802   2.479   0.959   2.882
 3490SOL    HW210803   2.372   0.870   2.968
 3491SOL     OW10804   3.222   0.862   2.907
 3491SOL    HW110805   3.147   0.862   2.841
 3491SOL    HW210806   3.259   0.770   2.916
 3492SOL     OW10807   3.071   0.525   2.137
 3492SOL    HW110808   3.084   0.441   2.191
 3492SOL    HW210809   3.042   0.599   2.197
 3493SOL     OW10810   2.169   0.213   3.093
 3493SOL    HW110811   2.146   0.250   3.183
 3493SOL    HW210812   2.139   0.118   3.087
 3494SOL     OW10813   1.899   1.310   3.144
 3494SOL    HW110814   1.952   1.261   3.212
 3494SOL    HW210815   1.921   1.408   3.149
 3495SOL     OW10816   2.594   0.634   2.926
 3495SOL    HW110817   2.653   0.608   2.850
 3495SOL    HW210818   2.566   0.730   2.915
 3496SOL     OW10819   3.590   0.935   3.716
 3496SOL    HW110820   3.544   0.928   3.627
 3496SOL    HW210821   3.528   0.979   3.782
 3497SOL     OW10822   2.169   0.063   2.480
 3497SOL    HW110823   2.158   0.157   2.513
 3497SOL    HW210824   2.164   0.000   2.557
 3498SOL     OW10825   3.484   0.367   2.236
 3498SOL    HW110826   3.486   0.291   2.300
 3498SOL    HW210827   3.436   0.444   2.276
 3499SOL     OW10828   2.885   0.766   2.828
 3499SOL    HW110829   2.900   0.787   2.924
 3499SOL    HW210830   2.855   0.671   2.819
 3500SOL     OW10831   2.842   1.573   3.562
 3500SOL    HW110832   2.822   1.617   3.474
 3500SOL    HW210833   2.881   1.482   3.546
 3501SOL     OW10834   3.721   1.518   3.467
 3501SOL    HW110835   3.735   1.545   3.372
 3501SOL    HW210836   3.804   1.540   3.520
 3502SOL     OW10837   2.212   0.898   3.666
 3502SOL    HW110838   2.288   0.942   3.714
 3502SOL    HW210839   2.247   0.851   3.584
 3503SOL     OW10840   3.402   0.274   1.987
 3503SOL    HW110841   3.341   0.199   2.010
 3503SOL    HW210842   3.424   0.326   2.070
 3504SOL     OW10843   3.165   0.838   1.904
 3504SOL    HW110844   3.199   0.745   1.919
 3504SOL    HW210845   3.183   0.865   1.809
 3505SOL     OW10846   2.930   1.333   2.711
 3505SOL    HW110847   2.937   1.249   2.656
 3505SOL    HW210848   2.992   1.402   2.675
 3506SOL     OW10849   2.181   0.810   2.811
 3506SOL    HW110850   2.274   0.846   2.816
 3506SOL    HW210851   2.175   0.725   2.863
 3507SOL     OW10852   2.201   0.509   2.868
 3507SOL    HW110853   2.149   0.426   2.851
 3507SOL    HW210854   2.278   0.514   2.804
 3508SOL     OW10855   3.000   0.380   3.540
 3508SOL    HW110856   2.955   0.443   3.604
 3508SOL    HW210857   3.093   0.411   3.523
 3509SOL     OW10858   3.022   0.207   3.339
 3509SOL    HW110859   3.022   0.271   3.416
 3509SOL    HW210860   3.050   0.255   3.256
 3510SOL     OW10861   1.870   1.326   2.062
 3510SOL    HW110862   1.777   1.347   2.031
 3510SOL    HW210863   1.880   1.227   2.075
 3511SOL     OW10864   1.950   1.801   2.789
 3511SOL    HW110865   1.908   1.715   2.762
 3511SOL    HW210866   2.044   1.804   2.755
 3512SOL     OW10867   2.366   1.568   2.772
 3512SOL    HW110868   2.432   1.642   2.781
 3512SOL    HW210869   2.410   1.489   2.730
 3513SOL     OW10870   2.864   0.796   3.100
 3513SOL    HW110871   2.905   0.764   3.186
 3513SOL    HW210872   2.768   0.769   3.097
 3514SOL     OW10873   1.902   0.544   2.976
 3514SOL    HW110874   1.987   0.511   2.935
 3514SOL    HW210875   1.915   0.559   3.074
 3515SOL     OW10876   2.051   0.520   3.584
 3515SOL    HW110877   2.110   0.480   3.514
 3515SOL    HW210878   1.993   0.591   3.543
 3516SOL     OW10879   3.231   0.950   3.522
 3516SOL    HW110880   3.270   1.039   3.542
 3516SOL    HW210881   3.241   0.930   3.425
 3517SOL     OW10882   2.677   0.572   2.187
 3517SOL    HW110883   2.684   0.483   2.141
 3517SOL    HW210884   2.583   0.606   2.179
 3518SOL     OW10885   3.519   0.604   3.068
 3518SOL    HW110886   3.481   0.535   3.130
 3518SOL    HW210887   3.601   0.568   3.024
 3519SOL     OW10888   2.114   1.564   3.606
 3519SOL    HW110889   2.084   1.621   3.682
 3519SOL    HW210890   2.107   1.467   3.632
 3520SOL     OW10891   2.533   0.464   3.131
 3520SOL    HW110892   2.499   0.375   3.101
 3520SOL    HW210893   2.559   0.518   3.051
 3521SOL     OW10894   2.792   1.678   3.327
 3521SOL    HW110895   2.768   1.660   3.232
 3521SOL    HW210896   2.822   1.772   3.337
 3522SOL     OW10897   2.335   0.500   2.053
 3522SOL    HW110898   2.396   0.580   2.057
 3522SOL    HW210899   2.240   0.531   2.060
 3523SOL     OW10900   2.021   1.137   3.328
 3523SOL    HW110901   2.043   1.076   3.404
 3523SOL    HW210902   2.031   1.088   3.242
 3524SOL     OW10903   3.209   1.059   3.096
 3524SOL    HW110904   3.233   0.996   3.022
 3524SOL    HW210905   3.119   1.099   3.078
 3525SOL     OW10906   3.164   0.855   2.171
 3525SOL    HW110907   3.078   0.824   2.213
 3525SOL    HW210908   3.160   0.841   2.072
 3526SOL     OW10909   3.621   1.747   3.016
 3526SOL    HW110910   3.682   1.777   2.943
 3526SOL    HW210911   3.583   1.658   2.994
 3527SOL     OW10912   3.114   1.731   2.990
 3527SOL    HW110913   3.198   1.736   2.936
 3527SOL    HW210914   3.091   1.635   3.008
 3528SOL     OW10915   1.945   1.258   2.884
 3528SOL    HW110916   1.940   1.257   2.984
 3528SOL    HW210917   1.862   1.217   2.846
 3529SOL     OW10918   2.550   1.662   3.578
 3529SOL    HW110919   2.494   1.743   3.587
 3529SOL    HW210920   2.602   1.666   3.492
 3530SOL     OW10921   3.588   0.135   2.385
 3530SOL    HW110922   3.661   0.118   2.318
 3530SOL    HW210923   3.557   0.048   2.423
 3531SOL     OW10924   3.250   1.573   2.339
 3531SOL    HW110925   3.317   1.585   2.265
 3531SOL    HW210926   3.210   1.662   2.362
 3532SOL     OW10927   1.992   1.794   3.713
 3532SOL    HW110928   1.951   1.720   3.766
 3532SOL    HW210929   2.056   1.845   3.771
 3533SOL     OW10930   3.142   0.927   2.534
 3533SOL    HW110931   3.202   0.846   2.536
 3533SOL    HW210932   3.182   0.996   2.474
 3534SOL     OW10933   2.692   1.273   3.284
 3534SOL    HW110934   2.687   1.306   3.379
 3534SOL    HW210935   2.606   1.292   3.238
 3535SOL     OW10936   2.534   1.616   2.016
 3535SOL    HW110937   2.543   1.626   1.917
 3535SOL    HW210938   2.494   1.527   2.037
 3536SOL     OW10939   3.512   1.720   3.256
 3536SOL    HW110940   3.565   1.730   3.172
 3536SOL    HW210941   3.485   1.810   3.290
 3537SOL     OW10942   3.703   0.175   2.825
 3537SOL    HW110943   3.742   0.090   2.789
 3537SOL    HW210944   3.605   0.177   2.806
 3538SOL     OW10945   2.125   0.326   2.582
 3538SOL    HW110946   2.046   0.377   2.548
 3538SOL    HW210947   2.116   0.311   2.680
 3539SOL     OW10948   3.056   1.612   1.893
 3539SOL    HW110949   3.062   1.519   1.930
 3539SOL    HW210950   2.997   1.612   1.813
 3540SOL     OW10951   2.684   1.002   3.234
 3540SOL    HW110952   2.724   1.001   3.142
 3540SOL    HW210953   2.694   1.094   3.274
 3541SOL     OW10954   2.778   0.910   2.153
 3541SOL    HW110955   2.841   0.948   2.085
 3541SOL    HW210956   2.818   0.827   2.192
 3542SOL     OW10957   3.366   1.607   1.906
 3542SOL    HW110958   3.274   1.644   1.913
 3542SOL    HW210959   3.404   1.627   1.816
 3543SOL     OW10960   2.234   1.288   3.352
 3543SOL    HW110961   2.221   1.381   3.318
 3543SOL    HW210962   2.150   1.236   3.339
 3544SOL     OW10963   3.476   1.292   3.151
 3544SOL    HW110964   3.536   1.295   3.231
 3544SOL    HW210965   3.401   1.356   3.164
 3545SOL     OW10966   2.901   1.098   2.558
 3545SOL    HW110967   2.831   1.051   2.612
 3545SOL    HW210968   2.960   1.030   2.515
 3546SOL     OW10969   2.876   0.236   2.833
 3546SOL    HW110970   2.868   0.200   2.740
 3546SOL    HW210971   2.874   0.160   2.898
 3547SOL     OW10972   2.452   1.487   2.353
 3547SOL    HW110973   2.494   1.429   2.283
 3547SOL    HW210974   2.408   1.566   2.309
 3548SOL     OW10975   3.571   0.385   3.243
 3548SOL    HW110976   3.644   0.454   3.247
 3548SOL    HW210977   3.599   0.310   3.184
 3549SOL     OW10978   2.117   1.348   2.152
 3549SOL    HW110979   2.021   1.349   2.125
 3549SOL    HW210980   2.129   1.401   2.236
 3550SOL     OW10981   1.967   1.013   3.588
 3550SOL    HW110982   1.890   0.980   3.642
 3550SOL    HW210983   2.052   0.983   3.630
 3551SOL     OW10984   2.534   0.203   3.351
 3551SOL    HW110985   2.624   0.187   3.311
 3551SOL    HW210986   2.542   0.208   3.450
 3552SOL     OW10987   1.937   0.345   1.895
 3552SOL    HW110988   1.845   0.317   1.866
 3552SOL    HW210989   1.968   0.422   1.839
 3553SOL     OW10990   3.302   0.856   3.260
 3553SOL    HW110991   3.245   0.908   3.197
 3553SOL    HW210992   3.398   0.868   3.236
 3554SOL     OW10993   1.934   0.166   2.180
 3554SOL    HW110994   1.917   0.249   2.126
 3554SOL    HW210995   2.024   0.129   2.158
 3555SOL     OW10996   3.045   1.335   1.981
 3555SOL    HW110997   2.946   1.324   1.983
 3555SOL    HW210998   3.079   1.350   2.074
 3556SOL     OW10999   2.475   0.842   3.293
 3556SOL    HW111000   2.531   0.923   3.276
 3556SOL    HW211001   2.534   0.762   3.296
 3557SOL     OW11002   3.355   1.767   2.821
 3557SOL    HW111003   3.388   1.831   2.752
 3557SOL    HW211004   3.421   1.761   2.896
 3558SOL     OW11005   2.578   0.565   3.570
 3558SOL    HW111006   2.597   0.630   3.644
 3558SOL    HW211007   2.638   0.485   3.579
 3559SOL     OW11008   3.312   1.220   3.495
 3559SOL    HW111009   3.303   1.210   3.594
 3559SOL    HW211010   3.408   1.213   3.469
 3560SOL     OW11011   2.252   1.741   3.422
 3560SOL    HW111012   2.161   1.782   3.420
 3560SOL    HW211013   2.245   1.647   3.454
 3561SOL     OW11014   3.536   0.883   3.116
 3561SOL    HW111015   3.509   0.794   3.079
 3561SOL    HW211016   3.537   0.951   3.043
 3562SOL     OW11017   3.087   0.325   2.311
 3562SOL    HW111018   3.152   0.251   2.300
 3562SOL    HW211019   3.107   0.375   2.395
 3563SOL     OW11020   2.456   0.745   2.514
 3563SOL    HW111021   2.506   0.830   2.495
 3563SOL    HW211022   2.368   0.747   2.466
 3564SOL     OW11023   3.639   0.342   3.504
 3564SOL    HW111024   3.622   0.373   3.410
 3564SOL    HW211025   3.555   0.305   3.542
 3565SOL     OW11026   3.592   0.934   3.379
 3565SOL    HW111027   3.630   1.025   3.394
 3565SOL    HW211028   3.584   0.917   3.280
 3566SOL     OW11029   2.721   1.374   1.878
 3566SOL    HW111030   2.675   1.389   1.966
 3566SOL    HW211031   2.765   1.459   1.848
 3567SOL     OW11032   2.523   1.790   2.815
 3567SOL    HW111033   2.477   1.878   2.802
 3567SOL    HW211034   2.622   1.802   2.808
 3568SOL     OW11035   2.721   0.956   2.723
 3568SOL    HW111036   2.775   0.887   2.771
 3568SOL    HW211037   2.689   1.025   2.789
 3569SOL     OW11038   2.945   0.984   1.949
 3569SOL    HW111039   2.922   1.037   1.867
 3569SOL    HW211040   3.026   0.928   1.930
 3570SOL     OW11041   3.723   1.569   2.713
 3570SOL    HW111042   3.652   1.557   2.643
 3570SOL    HW211043   3.724   1.490   2.773
 3571SOL     OW11044   2.083   1.314   3.706
 3571SOL    HW111045   2.018   1.241   3.685
 3571SOL    HW211046   2.087   1.328   3.804
 3572SOL     OW11047   1.941   1.240   2.515
 3572SOL    HW111048   1.940   1.193   2.603
 3572SOL    HW211049   2.023   1.212   2.464
 3573SOL     OW11050   2.534   1.391   3.486
 3573SOL    HW111051   2.456   1.341   3.524
 3573SOL    HW211052   2.531   1.486   3.517
 3574SOL     OW11053   3.686   0.192   3.089
 3574SOL    HW111054   3.682   0.102   3.133
 3574SOL    HW211055   3.689   0.181   2.990
 3575SOL     OW11056   2.290   0.424   2.382
 3575SOL    HW111057   2.320   0.352   2.320
 3575SOL    HW211058   2.251   0.384   2.465
 3576SOL     OW11059   3.567   1.487   2.966
 3576SOL    HW111060   3.474   1.462   2.939
 3576SOL    HW211061   3.593   1.437   3.048
 3577SOL     OW11062   2.179   0.547   3.142
 3577SOL    HW111063   2.217   0.488   3.214
 3577SOL    HW211064   2.219   0.521   3.054
 3578SOL     OW11065   2.674   1.586   2.549
 3578SOL    HW111066   2.706   1.596   2.455
 3578SOL    HW211067   2.595   1.524   2.551
 3579SOL     OW11068   3.286   0.214   2.974
 3579SOL    HW111069   3.338   0.149   3.029
 3579SOL    HW211070   3.237   0.277   3.035
 3580SOL     OW11071   2.863   0.034   3.016
 3580SOL    HW111072   2.800  -0.038   2.985
 3580SOL    HW211073   2.956  -0.002   3.016
 3581SOL     OW11074   2.632   1.330   2.163
 3581SOL    HW111075   2.586   1.243   2.180
 3581SOL    HW211076   2.723   1.327   2.204
 3582SOL     OW11077   2.480   1.567   3.146
 3582SOL    HW111078   2.475   1.649   3.203
 3582SOL    HW211079   2.569   1.564   3.101
 3583SOL     OW11080   3.214   0.052   2.030
 3583SOL    HW111081   3.249   0.011   1.946
 3583SOL    HW211082   3.124   0.014   2.050
 3584SOL     OW11083   3.162   0.453   2.553
 3584SOL    HW111084   3.103   0.533   2.557
 3584SOL    HW211085   3.177   0.418   2.646
 3585SOL     OW11086   3.455   0.221   2.744
 3585SOL    HW111087   3.371   0.220   2.798
 3585SOL    HW211088   3.457   0.304   2.688
 3586SOL     OW11089   1.901   1.077   2.162
 3586SOL    HW111090   2.000   1.066   2.153
 3586SOL    HW211091   1.861   0.991   2.194
 3587SOL     OW11092   2.737   1.646   2.199
 3587SOL    HW111093   2.660   1.611   2.145
 3587SOL    HW211094   2.705   1.717   2.261
 3588SOL     OW11095   2.092   0.628   3.837
 3588SOL    HW111096   1.999   0.626   3.874
 3588SOL    HW211097   2.093   0.589   3.745
 3589SOL     OW11098   2.087   0.275   4.720
 3589SOL    HW111099   2.122   0.258   4.812
 3589SOL    HW211100   1.999   0.230   4.708
 3590SOL     OW11101   1.881   0.368   4.371
 3590SOL    HW111102   1.799   0.411   4.410
 3590SOL    HW211103   1.853   0.295   4.308
 3591SOL     OW11104   2.431   1.275   4.889
 3591SOL    HW111105   2.338   1.268   4.852
 3591SOL    HW211106   2.442   1.364   4.933
 3592SOL     OW11107   3.417   1.511   4.427
 3592SOL    HW111108   3.360   1.495   4.508
 3592SOL    HW211109   3.358   1.521   4.347
 3593SOL     OW11110   2.997   0.703   4.441
 3593SOL    HW111111   3.054   0.781   4.416
 3593SOL    HW211112   2.937   0.729   4.517
 3594SOL     OW11113   3.617   0.607   3.955
 3594SOL    HW111114   3.605   0.594   3.856
 3594SOL    HW211115   3.587   0.526   4.004
 3595SOL     OW11116   2.630   1.144   4.747
 3595SOL    HW111117   2.552   1.161   4.807
 3595SOL    HW211118   2.664   1.231   4.711
 3596SOL     OW11119   2.712   0.798   5.547
 3596SOL    HW111120   2.708   0.874   5.612
 3596SOL    HW211121   2.734   0.834   5.456
 3597SOL     OW11122   2.547   1.012   4.389
 3597SOL    HW111123   2.616   0.996   4.459
 3597SOL    HW211124   2.474   1.069   4.427
 3598SOL     OW11125   2.548   1.161   5.527
 3598SOL    HW111126   2.608   1.240   5.541
 3598SOL    HW211127   2.462   1.192   5.486
 3599SOL     OW11128   2.197   1.435   4.785
 3599SOL    HW111129   2.119   1.404   4.732
 3599SOL    HW211130   2.255   1.493   4.728
 3600SOL     OW11131   3.322   1.505   5.063
 3600SOL    HW111132   3.346   1.599   5.089
 3600SOL    HW211133   3.306   1.451   5.145
 3601SOL     OW11134   2.300   0.392   5.223
 3601SOL    HW111135   2.382   0.336   5.232
 3601SOL    HW211136   2.219   0.334   5.227
 3602SOL     OW11137   3.465   0.447   4.461
 3602SOL    HW111138   3.391   0.493   4.411
 3602SOL    HW211139   3.516   0.515   4.514
 3603SOL     OW11140   2.093   1.713   4.207
 3603SOL    HW111141   2.127   1.790   4.261
 3603SOL    HW211142   2.137   1.713   4.117
 3604SOL     OW11143   2.989   1.341   5.414
 3604SOL    HW111144   3.036   1.341   5.502
 3604SOL    HW211145   2.941   1.254   5.403
 3605SOL     OW11146   2.092   1.434   4.262
 3605SOL    HW111147   2.066   1.530   4.262
 3605SOL    HW211148   2.021   1.380   4.307
 3606SOL     OW11149   2.102   1.091   4.610
 3606SOL    HW111150   2.116   1.007   4.662
 3606SOL    HW211151   2.047   1.155   4.665
 3607SOL     OW11152   2.482   1.786   5.163
 3607SOL    HW111153   2.390   1.769   5.198
 3607SOL    HW211154   2.510   1.878   5.189
 3608SOL     OW11155   2.468   0.964   3.847
 3608SOL    HW111156   2.475   1.048   3.793
 3608SOL    HW211157   2.514   0.977   3.935
 3609SOL     OW11158   3.456   0.114   5.204
 3609SOL    HW111159   3.438   0.181   5.132
 3609SOL    HW211160   3.453   0.160   5.293
 3610SOL     OW11161   1.984   0.643   4.287
 3610SOL    HW111162   1.939   0.555   4.304
 3610SOL    HW211163   1.983   0.697   4.371
 3611SOL     OW11164   3.704   1.767   4.083
 3611SOL    HW111165   3.758   1.738   4.163
 3611SOL    HW211166   3.734   1.857   4.054
 3612SOL     OW11167   1.889   1.596   3.841
 3612SOL    HW111168   1.870   1.500   3.862
 3612SOL    HW211169   1.856   1.654   3.916
 3613SOL     OW11170   3.551   0.922   4.336
 3613SOL    HW111171   3.646   0.893   4.344
 3613SOL    HW211172   3.543   0.987   4.261
 3614SOL     OW11173   3.503   1.108   4.156
 3614SOL    HW111174   3.589   1.110   4.104
 3614SOL    HW211175   3.517   1.155   4.244
 3615SOL     OW11176   1.975   0.737   5.321
 3615SOL    HW111177   2.063   0.724   5.366
 3615SOL    HW211178   1.962   0.834   5.299
 3616SOL     OW11179   2.475   1.365   4.450
 3616SOL    HW111180   2.426   1.278   4.459
 3616SOL    HW211181   2.452   1.408   4.363
 3617SOL     OW11182   3.155   1.228   5.147
 3617SOL    HW111183   3.192   1.155   5.089
 3617SOL    HW211184   3.207   1.233   5.232
 3618SOL     OW11185   2.671   0.004   4.226
 3618SOL    HW111186   2.711   0.095   4.217
 3618SOL    HW211187   2.571   0.012   4.232
 3619SOL     OW11188   2.059   0.976   4.988
 3619SOL    HW111189   2.148   0.931   4.974
 3619SOL    HW211190   1.986   0.911   4.969
 3620SOL     OW11191   3.387   0.999   3.914
 3620SOL    HW111192   3.324   0.923   3.927
 3620SOL    HW211193   3.435   1.017   4.000
 3621SOL     OW11194   3.049   1.792   5.340
 3621SOL    HW111195   3.073   1.852   5.264
 3621SOL    HW211196   3.056   1.697   5.310
 3622SOL     OW11197   2.179   0.251   5.525
 3622SOL    HW111198   2.250   0.322   5.531
 3622SOL    HW211199   2.091   0.290   5.553
 3623SOL     OW11200   3.328   1.417   4.677
 3623SOL    HW111201   3.269   1.423   4.757
 3623SOL    HW211202   3.313   1.329   4.631
 3624SOL     OW11203   3.529   1.714   4.296
 3624SOL    HW111204   3.488   1.691   4.208
 3624SOL    HW211205   3.511   1.640   4.361
 3625SOL     OW11206   2.460   0.729   3.994
 3625SOL    HW111207   2.484   0.798   3.926
 3625SOL    HW211208   2.382   0.762   4.048
 3626SOL     OW11209   3.143   0.345   4.668
 3626SOL    HW111210   3.057   0.295   4.655
 3626SOL    HW211211   3.205   0.291   4.724
 3627SOL     OW11212   3.438   1.662   4.031
 3627SOL    HW111213   3.527   1.708   4.034
 3627SOL    HW211214   3.417   1.638   3.936
 3628SOL     OW11215   2.669   0.605   5.189
 3628SOL    HW111216   2.622   0.602   5.278
 3628SOL    HW211217   2.618   0.550   5.123
 3629SOL     OW11218   3.256   0.469   5.398
 3629SOL    HW111219   3.236   0.512   5.486
 3629SOL    HW211220   3.334   0.407   5.407
 3630SOL     OW11221   2.835   0.890   5.296
 3630SOL    HW111222   2.881   0.806   5.267
 3630SOL    HW211223   2.779   0.924   5.221
 3631SOL     OW11224   2.853   0.410   4.966
 3631SOL    HW111225   2.776   0.444   5.020
 3631SOL    HW211226   2.819   0.359   4.887
 3632SOL     OW11227   2.903   0.701   4.153
 3632SOL    HW111228   2.929   0.697   4.249
 3632SOL    HW211229   2.818   0.650   4.139
 3633SOL     OW11230   1.938   0.811   4.513
 3633SOL    HW111231   2.037   0.799   4.522
 3633SOL    HW211232   1.914   0.906   4.534
 3634SOL     OW11233   1.992   1.821   5.295
 3634SOL    HW111234   1.982   1.806   5.394
 3634SOL    HW211235   1.906   1.857   5.259
 3635SOL     OW11236   2.727   0.348   3.919
 3635SOL    HW111237   2.786   0.411   3.870
 3635SOL    HW211238   2.746   0.254   3.890
 3636SOL     OW11239   3.581   0.585   5.555
 3636SOL    HW111240   3.555   0.674   5.519
 3636SOL    HW211241   3.579   0.517   5.482
 3637SOL     OW11242   3.224   1.144   4.269
 3637SOL    HW111243   3.307   1.115   4.221
 3637SOL    HW211244   3.175   1.211   4.213
 3638SOL     OW11245   2.412   0.196   4.609
 3638SOL    HW111246   2.407   0.191   4.709
 3638SOL    HW211247   2.414   0.292   4.580
 3639SOL     OW11248   2.870   1.456   4.201
 3639SOL    HW111249   2.824   1.528   4.149
 3639SOL    HW211250   2.866   1.476   4.299
 3640SOL     OW11251   2.213   1.801   4.577
 3640SOL    HW111252   2.263   1.715   4.583
 3640SOL    HW211253   2.278   1.878   4.574
 3641SOL     OW11254   3.657   1.066   4.597
 3641SOL    HW111255   3.595   1.051   4.521
 3641SOL    HW211256   3.605   1.077   4.682
 3642SOL     OW11257   3.089   1.550   5.230
 3642SOL    HW111258   3.095   1.473   5.294
 3642SOL    HW211259   3.037   1.524   5.150
 3643SOL     OW11260   2.183   0.943   3.966
 3643SOL    HW111261   2.265   0.982   3.924
 3643SOL    HW211262   2.156   0.861   3.917
 3644SOL     OW11263   3.320   0.735   4.452
 3644SOL    HW111264   3.315   0.670   4.527
 3644SOL    HW211265   3.400   0.794   4.465
 3645SOL     OW11266   2.323   1.266   5.451
 3645SOL    HW111267   2.273   1.267   5.365
 3645SOL    HW211268   2.260   1.248   5.527
 3646SOL     OW11269   2.973   1.776   3.961
 3646SOL    HW111270   2.913   1.714   4.011
 3646SOL    HW211271   3.004   1.732   3.876
 3647SOL     OW11272   2.064   0.285   5.222
 3647SOL    HW111273   1.984   0.345   5.209
 3647SOL    HW211274   2.054   0.236   5.308
 3648SOL     OW11275   3.494   1.377   3.805
 3648SOL    HW111276   3.462   1.471   3.795
 3648SOL    HW211277   3.418   1.314   3.793
 3649SOL     OW11278   2.326   1.743   4.047
 3649SOL    HW111279   2.359   1.782   4.133
 3649SOL    HW211280   2.402   1.736   3.982
 3650SOL     OW11281   3.262   0.107   4.150
 3650SOL    HW111282   3.238   0.070   4.060
 3650SOL    HW211283   3.361   0.123   4.154
 3651SOL     OW11284   2.111   1.785   4.965
 3651SOL    HW111285   2.168   1.720   5.015
 3651SOL    HW211286   2.095   1.752   4.872
 3652SOL     OW11287   2.802   1.698   4.628
 3652SOL    HW111288   2.882   1.641   4.649
 3652SOL    HW211289   2.753   1.658   4.551
 3653SOL     OW11290   2.244   0.700   4.204
 3653SOL    HW111291   2.289   0.610   4.201
 3653SOL    HW211292   2.150   0.689   4.237
 3654SOL     OW11293   3.409   0.222   5.453
 3654SOL    HW111294   3.404   0.259   5.545
 3654SOL    HW211295   3.337   0.153   5.441
 3655SOL     OW11296   2.476   0.122   3.841
 3655SOL    HW111297   2.574   0.100   3.848
 3655SOL    HW211298   2.445   0.105   3.748
 3656SOL     OW11299   2.643   0.264   5.473
 3656SOL    HW111300   2.710   0.203   5.516
 3656SOL    HW211301   2.570   0.283   5.538
 3657SOL     OW11302   2.750   1.514   4.919
 3657SOL    HW111303   2.727   1.489   4.825
 3657SOL    HW211304   2.811   1.445   4.958
 3658SOL     OW11305   3.213   0.590   5.157
 3658SOL    HW111306   3.241   0.547   5.242
 3658SOL    HW211307   3.238   0.686   5.158
 3659SOL     OW11308   2.665   1.402   4.648
 3659SOL    HW111309   2.755   1.416   4.606
 3659SOL    HW211310   2.594   1.404   4.577
 3660SOL     OW11311   2.784   0.503   4.623
 3660SOL    HW111312   2.759   0.494   4.527
 3660SOL    HW211313   2.832   0.421   4.654
 3661SOL     OW11314   2.401   0.064   4.236
 3661SOL    HW111315   2.320   0.065   4.294
 3661SOL    HW211316   2.404   0.147   4.181
 3662SOL     OW11317   3.296   1.188   3.765
 3662SOL    HW111318   3.328   1.112   3.822
 3662SOL    HW211319   3.204   1.215   3.795
 3663SOL     OW11320   2.159   0.035   3.895
 3663SOL    HW111321   2.208   0.119   3.874
 3663SOL    HW211322   2.221  -0.030   3.940
 3664SOL     OW11323   2.797   0.236   4.204
 3664SOL    HW111324   2.749   0.277   4.126
 3664SOL    HW211325   2.896   0.234   4.185
 3665SOL     OW11326   2.938   0.683   5.188
 3665SOL    HW111327   2.858   0.622   5.191
 3665SOL    HW211328   3.019   0.630   5.164
 3666SOL     OW11329   3.089   1.570   4.517
 3666SOL    HW111330   3.110   1.644   4.452
 3666SOL    HW211331   3.157   1.570   4.590
 3667SOL     OW11332   2.321   1.152   4.465
 3667SOL    HW111333   2.250   1.125   4.530
 3667SOL    HW211334   2.295   1.124   4.372
 3668SOL     OW11335   3.133   1.797   4.315
 3668SOL    HW111336   3.177   1.861   4.251
 3668SOL    HW211337   3.083   1.849   4.385
 3669SOL     OW11338   2.894   0.549   3.740
 3669SOL    HW111339   2.853   0.631   3.701
 3669SOL    HW211340   2.958   0.575   3.813
 3670SOL     OW11341   1.940   0.556   5.110
 3670SOL    HW111342   2.032   0.555   5.069
 3670SOL    HW211343   1.934   0.630   5.177
 3671SOL     OW11344   2.423   0.222   4.871
 3671SOL    HW111345   2.461   0.138   4.908
 3671SOL    HW211346   2.335   0.241   4.915
 3672SOL     OW11347   2.728   0.454   4.366
 3672SOL    HW111348   2.696   0.526   4.304
 3672SOL    HW211349   2.752   0.373   4.313
 3673SOL     OW11350   2.879   0.039   4.477
 3673SOL    HW111351   2.807   0.044   4.408
 3673SOL    HW211352   2.855  -0.030   4.546
 3674SOL     OW11353   3.291   1.173   4.591
 3674SOL    HW111354   3.236   1.089   4.584
 3674SOL    HW211355   3.317   1.202   4.499
 3675SOL     OW11356   3.328   0.590   4.716
 3675SOL    HW111357   3.298   0.495   4.723
 3675SOL    HW211358   3.401   0.606   4.782
 3676SOL     OW11359   3.719   0.833   4.101
 3676SOL    HW111360   3.761   0.769   4.165
 3676SOL    HW211361   3.681   0.782   4.023
 3677SOL     OW11362   2.350   1.385   3.898
 3677SOL    HW111363   2.263   1.370   3.945
 3677SOL    HW211364   2.333   1.411   3.803
 3678SOL     OW11365   3.526   1.280   4.381
 3678SOL    HW111366   3.625   1.288   4.395
 3678SOL    HW211367   3.481   1.364   4.412
 3679SOL     OW11368   3.252   0.575   3.802
 3679SOL    HW111369   3.198   0.554   3.883
 3679SOL    HW211370   3.343   0.534   3.811
 3680SOL     OW11371   2.389   0.256   4.052
 3680SOL    HW111372   2.416   0.197   3.977
 3680SOL    HW211373   2.389   0.351   4.021
 3681SOL     OW11374   3.616   1.223   5.312
 3681SOL    HW111375   3.707   1.184   5.299
 3681SOL    HW211376   3.624   1.319   5.336
 3682SOL     OW11377   2.926   1.347   5.064
 3682SOL    HW111378   2.846   1.324   5.119
 3682SOL    HW211379   3.009   1.321   5.113
 3683SOL     OW11380   3.454   1.629   5.349
 3683SOL    HW111381   3.481   1.663   5.259
 3683SOL    HW211382   3.533   1.591   5.395
 3684SOL     OW11383   2.973   1.195   4.824
 3684SOL    HW111384   2.933   1.239   4.905
 3684SOL    HW211385   2.932   1.232   4.741
 3685SOL     OW11386   3.500   1.099   4.803
 3685SOL    HW111387   3.505   1.180   4.862
 3685SOL    HW211388   3.414   1.101   4.752
 3686SOL     OW11389   2.777   0.089   5.126
 3686SOL    HW111390   2.802   0.069   5.031
 3686SOL    HW211391   2.849   0.145   5.168
 3687SOL     OW11392   2.842   1.116   5.443
 3687SOL    HW111393   2.743   1.122   5.453
 3687SOL    HW211394   2.865   1.036   5.387
 3688SOL     OW11395   2.567   1.050   4.092
 3688SOL    HW111396   2.553   1.057   4.191
 3688SOL    HW211397   2.651   0.999   4.074
 3689SOL     OW11398   2.272   0.813   4.975
 3689SOL    HW111399   2.358   0.825   5.025
 3689SOL    HW211400   2.230   0.726   5.002
 3690SOL     OW11401   3.136   0.386   4.986
 3690SOL    HW111402   3.157   0.460   5.050
 3690SOL    HW211403   3.047   0.403   4.943
 3691SOL     OW11404   1.926   1.564   5.055
 3691SOL    HW111405   1.880   1.646   5.021
 3691SOL    HW211406   2.024   1.583   5.064
 3692SOL     OW11407   2.229   1.100   4.225
 3692SOL    HW111408   2.222   1.183   4.169
 3692SOL    HW211409   2.233   1.020   4.165
 3693SOL     OW11410   2.428   0.537   4.589
 3693SOL    HW111411   2.440   0.603   4.515
 3693SOL    HW211412   2.474   0.571   4.672
 3694SOL     OW11413   3.114   1.348   4.112
 3694SOL    HW111414   3.164   1.425   4.152
 3694SOL    HW211415   3.019   1.350   4.144
 3695SOL     OW11416   3.134   1.445   4.866
 3695SOL    HW111417   3.181   1.458   4.953
 3695SOL    HW211418   3.068   1.371   4.875
 3696SOL     OW11419   3.444   0.639   4.196
 3696SOL    HW111420   3.413   0.700   4.269
 3696SOL    HW211421   3.494   0.691   4.127
 3697SOL     OW11422   2.216   1.510   5.053
 3697SOL    HW111423   2.195   1.466   4.966
 3697SOL    HW211424   2.313   1.536   5.056
 3698SOL     OW11425   2.264   0.751   5.322
 3698SOL    HW111426   2.332   0.806   5.275
 3698SOL    HW211427   2.304   0.663   5.349
 3699SOL     OW11428   3.449   0.779   5.394
 3699SOL    HW111429   3.357   0.817   5.389
 3699SOL    HW211430   3.509   0.826   5.329
 3700SOL     OW11431   2.875   0.105   5.494
 3700SOL    HW111432   2.881   0.190   5.442
 3700SOL    HW211433   2.907   0.029   5.437
 3701SOL     OW11434   2.366   0.050   5.464
 3701SOL    HW111435   2.324  -0.007   5.394
 3701SOL    HW211436   2.300   0.119   5.496
 3702SOL     OW11437   2.435   0.870   4.753
 3702SOL    HW111438   2.479   0.959   4.744
 3702SOL    HW211439   2.372   0.870   4.830
 3703SOL     OW11440   3.222   0.862   4.769
 3703SOL    HW111441   3.147   0.862   4.703
 3703SOL    HW211442   3.259   0.770   4.778
 3704SOL     OW11443   3.071   0.525   3.999
 3704SOL    HW111444   3.084   0.441   4.053
 3704SOL    HW211445   3.042   0.599   4.059
 3705SOL     OW11446   2.169   0.213   4.955
 3705SOL    HW111447   2.146   0.250   5.045
 3705SOL    HW211448   2.139   0.118   4.949
 3706SOL     OW11449   1.899   1.310   5.006
 3706SOL    HW111450   1.952   1.261   5.074
 3706SOL    HW211451   1.921   1.408   5.011
 3707SOL     OW11452   2.594   0.634   4.788
 3707SOL    HW111453   2.653   0.608   4.712
 3707SOL    HW211454   2.566   0.730   4.777
 3708SOL     OW11455   3.590   0.935   5.578
 3708SOL    HW111456   3.544   0.928   5.489
 3708SOL    HW211457   3.528   0.979   5.644
 3709SOL     OW11458   2.169   0.063   4.342
 3709SOL    HW111459   2.158   0.157   4.375
 3709SOL    HW211460   2.164   0.000   4.419
 3710SOL     OW11461   3.484   0.367   4.098
 3710SOL    HW111462   3.486   0.291   4.162
 3710SOL    HW211463   3.436   0.444   4.138
 3711SOL     OW11464   2.885   0.766   4.690
 3711SOL    HW111465   2.900   0.787   4.786
 3711SOL    HW211466   2.855   0.671   4.681
 3712SOL     OW11467   2.842   1.573   5.424
 3712SOL    HW111468   2.822   1.617   5.336
 3712SOL    HW211469   2.881   1.482   5.408
 3713SOL     OW11470   3.721   1.518   5.329
 3713SOL    HW111471   3.735   1.545   5.234
 3713SOL    HW211472   3.804   1.540   5.382
 3714SOL     OW11473   2.212   0.898   5.528
 3714SOL    HW111474   2.288   0.942   5.576
 3714SOL    HW211475   2.247   0.851   5.446
 3715SOL     OW11476   3.402   0.274   3.849
 3715SOL    HW111477   3.341   0.199   3.872
 3715SOL    HW211478   3.424   0.326   3.932
 3716SOL     OW11479   3.165   0.838   3.766
 3716SOL    HW111480   3.199   0.745   3.781
 3716SOL    HW211481   3.183   0.865   3.671
 3717SOL     OW11482   2.930   1.333   4.573
 3717SOL    HW111483   2.937   1.249   4.518
 3717SOL    HW211484   2.992   1.402   4.537
 3718SOL     OW11485   2.181   0.810   4.673
 3718SOL    HW111486   2.274   0.846   4.678
 3718SOL    HW211487   2.175   0.725   4.725
 3719SOL     OW11488   2.201   0.509   4.730
 3719SOL    HW111489   2.149   0.426   4.713
 3719SOL    HW211490   2.278   0.514   4.666
 3720SOL     OW11491   3.000   0.380   5.402
 3720SOL    HW111492   2.955   0.443   5.466
 3720SOL    HW211493   3.093   0.411   5.385
 3721SOL     OW11494   3.022   0.207   5.201
 3721SOL    HW111495   3.022   0.271   5.278
 3721SOL    HW211496   3.050   0.255   5.118
 3722SOL     OW11497   1.870   1.326   3.924
 3722SOL    HW111498   1.777   1.347   3.893
 3722SOL    HW211499   1.880   1.227   3.937
 3723SOL     OW11500   1.950   1.801   4.651
 3723SOL    HW111501   1.908   1.715   4.624
 3723SOL    HW211502   2.044   1.804   4.617
 3724SOL     OW11503   2.366   1.568   4.634
 3724SOL    HW111504   2.432   1.642   4.643
 3724SOL    HW211505   2.410   1.489   4.592
 3725SOL     OW11506   2.864   0.796   4.962
 3725SOL    HW111507   2.905   0.764   5.048
 3725SOL    HW211508   2.768   0.769   4.959
 3726SOL     OW11509   1.902   0.544   4.838
 3726SOL    HW111510   1.987   0.511   4.797
 3726SOL    HW211511   1.915   0.559   4.936
 3727SOL     OW11512   2.051   0.520   5.446
 3727SOL    HW111513   2.110   0.480   5.376
 3727SOL    HW211514   1.993   0.591   5.405
 3728SOL     OW11515   3.231   0.950   5.384
 3728SOL    HW111516   3.270   1.039   5.404
 3728SOL    HW211517   3.241   0.930   5.287
 3729SOL     OW11518   2.677   0.572   4.049
 3729SOL    HW111519   2.684   0.483   4.003
 3729SOL    HW211520   2.583   0.606   4.041
 3730SOL     OW11521   3.519   0.604   4.930
 3730SOL    HW111522   3.481   0.535   4.992
 3730SOL    HW211523   3.601   0.568   4.886
 3731SOL     OW11524   2.114   1.564   5.468
 3731SOL    HW111525   2.084   1.621   5.544
 3731SOL    HW211526   2.107   1.467   5.494
 3732SOL     OW11527   2.533   0.464   4.993
 3732SOL    HW111528   2.499   0.375   4.963
 3732SOL    HW211529   2.559   0.518   4.913
 3733SOL     OW11530   2.792   1.678   5.189
 3733SOL    HW111531   2.768   1.660   5.094
 3733SOL    HW211532   2.822   1.772   5.199
 3734SOL     OW11533   2.335   0.500   3.915
 3734SOL    HW111534   2.396   0.580   3.919
 3734SOL    HW211535   2.240   0.531   3.922
 3735SOL     OW11536   2.021   1.137   5.190
 3735SOL    HW111537   2.043   1.076   5.266
 3735SOL    HW211538   2.031   1.088   5.104
 3736SOL     OW11539   3.209   1.059   4.958
 3736SOL    HW111540   3.233   0.996   4.884
 3736SOL    HW211541   3.119   1.099   4.940
 3737SOL     OW11542   3.164   0.855   4.033
 3737SOL    HW111543   3.078   0.824   4.075
 3737SOL    HW211544   3.160   0.841   3.934
 3738SOL     OW11545   3.621   1.747   4.878
 3738SOL    HW111546   3.682   1.777   4.805
 3738SOL    HW211547   3.583   1.658   4.856
 3739SOL     OW11548   3.114   1.731   4.852
 3739SOL    HW111549   3.198   1.736   4.798
 3739SOL    HW211550   3.091   1.635   4.870
 3740SOL     OW11551   1.945   1.258   4.746
 3740SOL    HW111552   1.940   1.257   4.846
 3740SOL    HW211553   1.862   1.217   4.708
 3741SOL     OW11554   2.550   1.662   5.440
 3741SOL    HW111555   2.494   1.743   5.449
 3741SOL    HW211556   2.602   1.666   5.354
 3742SOL     OW11557   3.588   0.135   4.247
 3742SOL    HW111558   3.661   0.118   4.180
 3742SOL    HW211559   3.557   0.048   4.285
 3743SOL     OW11560   3.250   1.573   4.201
 3743SOL    HW111561   3.317   1.585   4.127
 3743SOL    HW211562   3.210   1.662   4.224
 3744SOL     OW11563   1.992   1.794   5.575
 3744SOL    HW111564   1.951   1.720   5.628
 3744SOL    HW211565   2.056   1.845   5.633
 3745SOL     OW11566   3.142   0.927   4.396
 3745SOL    HW111567   3.202   0.846   4.398
 3745SOL    HW211568   3.182   0.996   4.336
 3746SOL     OW11569   2.692   1.273   5.146
 3746SOL    HW111570   2.687   1.306   5.241
 3746SOL    HW211571   2.606   1.292   5.100
 3747SOL     OW11572   2.534   1.616   3.878
 3747SOL    HW111573   2.543   1.626   3.779
 3747SOL    HW211574   2.494   1.527   3.899
 3748SOL     OW11575   3.512   1.720   5.118
 3748SOL    HW111576   3.565   1.730   5.034
 3748SOL    HW211577   3.485   1.810   5.152
 3749SOL     OW11578   3.703   0.175   4.687
 3749SOL    HW111579   3.742   0.090   4.651
 3749SOL    HW211580   3.605   0.177   4.668
 3750SOL     OW11581   2.125   0.326   4.444
 3750SOL    HW111582   2.046   0.377   4.410
 3750SOL    HW211583   2.116   0.311   4.542
 3751SOL     OW11584   3.056   1.612   3.755
 3751SOL    HW111585   3.062   1.519   3.792
 3751SOL    HW211586   2.997   1.612   3.675
 3752SOL     OW11587   2.684   1.002   5.096
 3752SOL    HW111588   2.724   1.001   5.004
 3752SOL    HW211589   2.694   1.094   5.136
 3753SOL     OW11590   2.778   0.910   4.015
 3753SOL    HW111591   2.841   0.948   3.947
 3753SOL    HW211592   2.818   0.827   4.054
 3754SOL     OW11593   3.366   1.607   3.768
 3754SOL    HW111594   3.274   1.644   3.775
 3754SOL    HW211595   3.404   1.627   3.678
 3755SOL     OW11596   2.234   1.288   5.214
 3755SOL    HW111597   2.221   1.381   5.180
 3755SOL    HW211598   2.150   1.236   5.201
 3756SOL     OW11599   3.476   1.292   5.013
 3756SOL    HW111600   3.536   1.295   5.093
 3756SOL    HW211601   3.401   1.356   5.026
 3757SOL     OW11602   2.901   1.098   4.420
 3757SOL    HW111603   2.831   1.051   4.474
 3757SOL    HW211604   2.960   1.030   4.377
 3758SOL     OW11605   2.876   0.236   4.695
 3758SOL    HW111606   2.868   0.200   4.602
 3758SOL    HW211607   2.874   0.160   4.760
 3759SOL     OW11608   2.452   1.487   4.215
 3759SOL    HW111609   2.494   1.429   4.145
 3759SOL    HW211610   2.408   1.566   4.171
 3760SOL     OW11611   3.571   0.385   5.105
 3760SOL    HW111612   3.644   0.454   5.109
 3760SOL    HW211613   3.599   0.310   5.046
 3761SOL     OW11614   2.117   1.348   4.014
 3761SOL    HW111615   2.021   1.349   3.987
 3761SOL    HW211616   2.129   1.401   4.098
 3762SOL     OW11617   1.967   1.013   5.450
 3762SOL    HW111618   1.890   0.980   5.504
 3762SOL    HW211619   2.052   0.983   5.492
 3763SOL     OW11620   2.534   0.203   5.213
 3763SOL    HW111621   2.624   0.187   5.173
 3763SOL    HW211622   2.542   0.208   5.312
 3764SOL     OW11623   1.937   0.345   3.757
 3764SOL    HW111624   1.845   0.317   3.728
 3764SOL    HW211625   1.968   0.422   3.701
 3765SOL     OW11626   3.302   0.856   5.122
 3765SOL    HW111627   3.245   0.908   5.059
 3765SOL    HW211628   3.398   0.868   5.098
 3766SOL     OW11629   1.934   0.166   4.042
 3766SOL    HW111630   1.917   0.249   3.988
 3766SOL    HW211631   2.024   0.129   4.020
 3767SOL     OW11632   3.045   1.335   3.843
 3767SOL    HW111633   2.946   1.324   3.845
 3767SOL    HW211634   3.079   1.350   3.936
 3768SOL     OW11635   2.475   0.842   5.155
 3768SOL    HW111636   2.531   0.923   5.138
 3768SOL    HW211637   2.534   0.762   5.158
 3769SOL     OW11638   3.355   1.767   4.683
 3769SOL    HW111639   3.388   1.831   4.614
 3769SOL    HW211640   3.421   1.761   4.758
 3770SOL     OW11641   2.578   0.565   5.432
 3770SOL    HW111642   2.597   0.630   5.506
 3770SOL    HW211643   2.638   0.485   5.441
 3771SOL     OW11644   3.312   1.220   5.357
 3771SOL    HW111645   3.303   1.210   5.456
 3771SOL    HW211646   3.408   1.213   5.331
 3772SOL     OW11647   2.252   1.741   5.284
 3772SOL    HW111648   2.161   1.782   5.282
 3772SOL    HW211649   2.245   1.647   5.316
 3773SOL     OW11650   3.536   0.883   4.978
 3773SOL    HW111651   3.509   0.794   4.941
 3773SOL    HW211652   3.537   0.951   4.905
 3774SOL     OW11653   3.087   0.325   4.173
 3774SOL    HW111654   3.152   0.251   4.162
 3774SOL    HW211655   3.107   0.375   4.257
 3775SOL     OW11656   2.456   0.745   4.376
 3775SOL    HW111657   2.506   0.830   4.357
 3775SOL    HW211658   2.368   0.747   4.328
 3776SOL     OW11659   3.639   0.342   5.366
 3776SOL    HW111660   3.622   0.373   5.272
 3776SOL    HW211661   3.555   0.305   5.404
 3777SOL     OW11662   3.592   0.934   5.241
 3777SOL    HW111663   3.630   1.025   5.256
 3777SOL    HW211664   3.584   0.917   5.142
 3778SOL     OW11665   2.721   1.374   3.740
 3778SOL    HW111666   2.675   1.389   3.828
 3778SOL    HW211667   2.765   1.459   3.710
 3779SOL     OW11668   2.523   1.790   4.677
 3779SOL    HW111669   2.477   1.878   4.664
 3779SOL    HW211670   2.622   1.802   4.670
 3780SOL     OW11671   2.721   0.956   4.585
 3780SOL    HW111672   2.775   0.887   4.633
 3780SOL    HW211673   2.689   1.025   4.651
 3781SOL     OW11674   2.945   0.984   3.811
 3781SOL    HW111675   2.922   1.037   3.729
 3781SOL    HW211676   3.026   0.928   3.792
 3782SOL     OW11677   3.723   1.569   4.575
 3782SOL    HW111678   3.652   1.557   4.505
 3782SOL    HW211679   3.724   1.490   4.635
 3783SOL     OW11680   2.083   1.314   5.568
 3783SOL    HW111681   2.018   1.241   5.547
 3783SOL    HW211682   2.087   1.328   5.666
 3784SOL     OW11683   1.941   1.240   4.377
 3784SOL    HW111684   1.940   1.193   4.465
 3784SOL    HW211685   2.023   1.212   4.326
 3785SOL     OW11686   2.534   1.391   5.348
 3785SOL    HW111687   2.456   1.341   5.386
 3785SOL    HW211688   2.531   1.486   5.379
 3786SOL     OW11689   3.686   0.192   4.951
 3786SOL    HW111690   3.682   0.102   4.995
 3786SOL    HW211691   3.689   0.181   4.852
 3787SOL     OW11692   2.290   0.424   4.244
 3787SOL    HW111693   2.320   0.352   4.182
 3787SOL    HW211694   2.251   0.384   4.327
 3788SOL     OW11695   3.567   1.487   4.828
 3788SOL    HW111696   3.474   1.462   4.801
 3788SOL    HW211697   3.593   1.437   4.910
 3789SOL     OW11698   2.179   0.547   5.004
 3789SOL    HW111699   2.217   0.488   5.076
 3789SOL    HW211700   2.219   0.521   4.916
 3790SOL     OW11701   2.674   1.586   4.411
 3790SOL    HW111702   2.706   1.596   4.317
 3790SOL    HW211703   2.595   1.524   4.413
 3791SOL     OW11704   3.286   0.214   4.836
 3791SOL    HW111705   3.338   0.149   4.891
 3791SOL    HW211706   3.237   0.277   4.897
 3792SOL     OW11707   2.863   0.034   4.878
 3792SOL    HW111708   2.800  -0.038   4.847
 3792SOL    HW211709   2.956  -0.002   4.878
 3793SOL     OW11710   2.632   1.330   4.025
 3793SOL    HW111711   2.586   1.243   4.042
 3793SOL    HW211712   2.723   1.327   4.066
 3794SOL     OW11713   2.480   1.567   5.008
 3794SOL    HW111714   2.475   1.649   5.065
 3794SOL    HW211715   2.569   1.564   4.963
 3795SOL     OW11716   3.214   0.052   3.892
 3795SOL    HW111717   3.249   0.011   3.808
 3795SOL    HW211718   3.124   0.014   3.912
 3796SOL     OW11719   3.162   0.453   4.415
 3796SOL    HW111720   3.103   0.533   4.419
 3796SOL    HW211721   3.177   0.418   4.508
 3797SOL     OW11722   3.455   0.221   4.606
 3797SOL    HW111723   3.371   0.220   4.660
 3797SOL    HW211724   3.457   0.304   4.550
 3798SOL     OW11725   1.901   1.077   4.024
 3798SOL    HW111726   2.000   1.066   4.015
 3798SOL    HW211727   1.861   0.991   4.056
 3799SOL     OW11728   2.737   1.646   4.061
 3799SOL    HW111729   2.660   1.611   4.007
 3799SOL    HW211730   2.705   1.717   4.123
 3800SOL     OW11731   2.092   0.628   5.699
 3800SOL    HW111732   1.999   0.626   5.736
 3800SOL    HW211733   2.093   0.589   5.607
 3801SOL     OW11734   2.087   0.275   6.582
 3801SOL    HW111735   2.122   0.258   6.674
 3801SOL    HW211736   1.999   0.230   6.570
 3802SOL     OW11737   1.881   0.368   6.233
 3802SOL    HW111738   1.799   0.411   6.272
 3802SOL    HW211739   1.853   0.295   6.170
 3803SOL     OW11740   2.431   1.275   6.751
 3803SOL    HW111741   2.338   1.268   6.714
 3803SOL    HW211742   2.442   1.364   6.795
 3804SOL     OW11743   3.417   1.511   6.289
 3804SOL    HW111744   3.360   1.495   6.370
 3804SOL    HW211745   3.358   1.521   6.209
 3805SOL     OW11746   2.997   0.703   6.303
 3805SOL    HW111747   3.054   0.781   6.278
 3805SOL    HW211748   2.937   0.729   6.379
 3806SOL     OW11749   3.617   0.607   5.817
 3806SOL    HW111750   3.605   0.594   5.718
 3806SOL    HW211751   3.587   0.526   5.866
 3807SOL     OW11752   2.630   1.144   6.609
 3807SOL    HW111753   2.552   1.161   6.669
 3807SOL    HW211754   2.664   1.231   6.573
 3808SOL     OW11755   2.712   0.798   7.409
 3808SOL    HW111756   2.708   0.874   7.474
 3808SOL    HW211757   2.734   0.834   7.318
 3809SOL     OW11758   2.547   1.012   6.251
 3809SOL    HW111759   2.616   0.996   6.321
 3809SOL    HW211760   2.474   1.069   6.289
 3810SOL     OW11761   2.548   1.161   7.389
 3810SOL    HW111762   2.608   1.240   7.403
 3810SOL    HW211763   2.462   1.192   7.348
 3811SOL     OW11764   2.197   1.435   6.647
 3811SOL    HW111765   2.119   1.404   6.594
 3811SOL    HW211766   2.255   1.493   6.590
 3812SOL     OW11767   3.322   1.505   6.925
 3812SOL    HW111768   3.346   1.599   6.951
 3812SOL    HW211769   3.306   1.451   7.007
 3813SOL     OW11770   2.300   0.392   7.085
 3813SOL    HW111771   2.382   0.336   7.094
 3813SOL    HW211772   2.219   0.334   7.089
 3814SOL     OW11773   3.465   0.447   6.323
 3814SOL    HW111774   3.391   0.493   6.273
 3814SOL    HW211775   3.516   0.515   6.376
 3815SOL     OW11776   2.989   1.341   7.276
 3815SOL    HW111777   3.036   1.341   7.364
 3815SOL    HW211778   2.941   1.254   7.265
 3816SOL     OW11779   2.102   1.091   6.472
 3816SOL    HW111780   2.116   1.007   6.524
 3816SOL    HW211781   2.047   1.155   6.527
 3817SOL     OW11782   2.482   1.786   7.025
 3817SOL    HW111783   2.390   1.769   7.060
 3817SOL    HW211784   2.510   1.878   7.051
 3818SOL     OW11785   2.468   0.964   5.709
 3818SOL    HW111786   2.475   1.048   5.655
 3818SOL    HW211787   2.514   0.977   5.797
 3819SOL     OW11788   3.456   0.114   7.066
 3819SOL    HW111789   3.438   0.181   6.994
 3819SOL    HW211790   3.453   0.160   7.155
 3820SOL     OW11791   1.984   0.643   6.149
 3820SOL    HW111792   1.939   0.555   6.166
 3820SOL    HW211793   1.983   0.697   6.233
 3821SOL     OW11794   3.704   1.767   5.945
 3821SOL    HW111795   3.758   1.738   6.025
 3821SOL    HW211796   3.734   1.857   5.916
 3822SOL     OW11797   3.551   0.922   6.198
 3822SOL    HW111798   3.646   0.893   6.206
 3822SOL    HW211799   3.543   0.987   6.123
 3823SOL     OW11800   3.503   1.108   6.018
 3823SOL    HW111801   3.589   1.110   5.966
 3823SOL    HW211802   3.517   1.155   6.106
 3824SOL     OW11803   1.975   0.737   7.183
 3824SOL    HW111804   2.063   0.724   7.228
 3824SOL    HW211805   1.962   0.834   7.161
 3825SOL     OW11806   2.475   1.365   6.312
 3825SOL    HW111807   2.426   1.278   6.321
 3825SOL    HW211808   2.452   1.408   6.225
 3826SOL     OW11809   3.155   1.228   7.009
 3826SOL    HW111810   3.192   1.155   6.951
 3826SOL    HW211811   3.207   1.233   7.094
 3827SOL     OW11812   2.671   0.004   6.088
 3827SOL    HW111813   2.711   0.095   6.079
 3827SOL    HW211814   2.571   0.012   6.094
 3828SOL     OW11815   2.059   0.976   6.850
 3828SOL    HW111816   2.148   0.931   6.836
 3828SOL    HW211817   1.986   0.911   6.831
 3829SOL     OW11818   3.387   0.999   5.776
 3829SOL    HW111819   3.324   0.923   5.789
 3829SOL    HW211820   3.435   1.017   5.862
 3830SOL     OW11821   3.049   1.792   7.202
 3830SOL    HW111822   3.073   1.852   7.126
 3830SOL    HW211823   3.056   1.697   7.172
 3831SOL     OW11824   2.179   0.251   7.387
 3831SOL    HW111825   2.250   0.322   7.393
 3831SOL    HW211826   2.091   0.290   7.415
 3832SOL     OW11827   3.328   1.417   6.539
 3832SOL    HW111828   3.269   1.423   6.619
 3832SOL    HW211829   3.313   1.329   6.493
 3833SOL     OW11830   3.529   1.714   6.158
 3833SOL    HW111831   3.488   1.691   6.070
 3833SOL    HW211832   3.511   1.640   6.223
 3834SOL     OW11833   2.460   0.729   5.856
 3834SOL    HW111834   2.484   0.798   5.788
 3834SOL    HW211835   2.382   0.762   5.910
 3835SOL     OW11836   3.143   0.345   6.530
 3835SOL    HW111837   3.057   0.295   6.517
 3835SOL    HW211838   3.205   0.291   6.586
 3836SOL     OW11839   3.438   1.662   5.893
 3836SOL    HW111840   3.527   1.708   5.896
 3836SOL    HW211841   3.417   1.638   5.798
 3837SOL     OW11842   2.669   0.605   7.051
 3837SOL    HW111843   2.622   0.602   7.140
 3837SOL    HW211844   2.618   0.550   6.985
 3838SOL     OW11845   3.256   0.469   7.260
 3838SOL    HW111846   3.236   0.512   7.348
 3838SOL    HW211847   3.334   0.407   7.269
 3839SOL     OW11848   2.835   0.890   7.158
 3839SOL    HW111849   2.881   0.806   7.129
 3839SOL    HW211850   2.779   0.924   7.083
 3840SOL     OW11851   2.853   0.410   6.828
 3840SOL    HW111852   2.776   0.444   6.882
 3840SOL    HW211853   2.819   0.359   6.749
 3841SOL     OW11854   2.903   0.701   6.015
 3841SOL    HW111855   2.929   0.697   6.111
 3841SOL    HW211856   2.818   0.650   6.001
 3842SOL     OW11857   1.938   0.811   6.375
 3842SOL    HW111858   2.037   0.799   6.384
 3842SOL    HW211859   1.914   0.906   6.396
 3843SOL     OW11860   1.992   1.821   7.157
 3843SOL    HW111861   1.982   1.806   7.256
 3843SOL    HW211862   1.906   1.857   7.121
 3844SOL     OW11863   2.727   0.348   5.781
 3844SOL    HW111864   2.786   0.411   5.732
 3844SOL    HW211865   2.746   0.254   5.752
 3845SOL     OW11866   3.581   0.585   7.417
 3845SOL    HW111867   3.555   0.674   7.381
 3845SOL    HW211868   3.579   0.517   7.344
 3846SOL     OW11869   3.224   1.144   6.131
 3846SOL    HW111870   3.307   1.115   6.083
 3846SOL    HW211871   3.175   1.211   6.075
 3847SOL     OW11872   2.412   0.196   6.471
 3847SOL    HW111873   2.407   0.191   6.571
 3847SOL    HW211874   2.414   0.292   6.442
 3848SOL     OW11875   2.870   1.456   6.063
 3848SOL    HW111876   2.824   1.528   6.011
 3848SOL    HW211877   2.866   1.476   6.161
 3849SOL     OW11878   3.657   1.066   6.459
 3849SOL    HW111879   3.595   1.051   6.383
 3849SOL    HW211880   3.605   1.077   6.544
 3850SOL     OW11881   3.089   1.550   7.092
 3850SOL    HW111882   3.095   1.473   7.156
 3850SOL    HW211883   3.037   1.524   7.012
 3851SOL     OW11884   2.183   0.943   5.828
 3851SOL    HW111885   2.265   0.982   5.786
 3851SOL    HW211886   2.156   0.861   5.779
 3852SOL     OW11887   3.320   0.735   6.314
 3852SOL    HW111888   3.315   0.670   6.389
 3852SOL    HW211889   3.400   0.794   6.327
 3853SOL     OW11890   2.323   1.266   7.313
 3853SOL    HW111891   2.273   1.267   7.227
 3853SOL    HW211892   2.260   1.248   7.389
 3854SOL     OW11893   2.973   1.776   5.823
 3854SOL    HW111894   2.913   1.714   5.873
 3854SOL    HW211895   3.004   1.732   5.738
 3855SOL     OW11896   2.064   0.285   7.084
 3855SOL    HW111897   1.984   0.345   7.071
 3855SOL    HW211898   2.054   0.236   7.170
 3856SOL     OW11899   3.494   1.377   5.667
 3856SOL    HW111900   3.462   1.471   5.657
 3856SOL    HW211901   3.418   1.314   5.655
 3857SOL     OW11902   3.262   0.107   6.012
 3857SOL    HW111903   3.238   0.070   5.922
 3857SOL    HW211904   3.361   0.123   6.016
 3858SOL     OW11905   2.111   1.785   6.827
 3858SOL    HW111906   2.168   1.720   6.877
 3858SOL    HW211907   2.095   1.752   6.734
 3859SOL     OW11908   2.802   1.698   6.490
 3859SOL    HW111909   2.882   1.641   6.511
 3859SOL    HW211910   2.753   1.658   6.413
 3860SOL     OW11911   2.244   0.700   6.066
 3860SOL    HW111912   2.289   0.610   6.063
 3860SOL    HW211913   2.150   0.689   6.099
 3861SOL     OW11914   3.409   0.222   7.315
 3861SOL    HW111915   3.404   0.259   7.407
 3861SOL    HW211916   3.337   0.153   7.303
 3862SOL     OW11917   2.476   0.122   5.703
 3862SOL    HW111918   2.574   0.100   5.710
 3862SOL    HW211919   2.445   0.105   5.610
 3863SOL     OW11920   2.643   0.264   7.335
 3863SOL    HW111921   2.710   0.203   7.378
 3863SOL    HW211922   2.570   0.283   7.400
 3864SOL     OW11923   2.750   1.514   6.781
 3864SOL    HW111924   2.727   1.489   6.687
 3864SOL    HW211925   2.811   1.445   6.820
 3865SOL     OW11926   3.213   0.590   7.019
 3865SOL    HW111927   3.241   0.547   7.104
 3865SOL    HW211928   3.238   0.686   7.020
 3866SOL     OW11929   2.665   1.402   6.510
 3866SOL    HW111930   2.755   1.416   6.468
 3866SOL    HW211931   2.594   1.404   6.439
 3867SOL     OW11932   2.784   0.503   6.485
 3867SOL    HW111933   2.759   0.494   6.389
 3867SOL    HW211934   2.832   0.421   6.516
 3868SOL     OW11935   2.401   0.064   6.098
 3868SOL    HW111936   2.320   0.065   6.156
 3868SOL    HW211937   2.404   0.147   6.043
 3869SOL     OW11938   3.296   1.188   5.627
 3869SOL    HW111939   3.328   1.112   5.684
 3869SOL    HW211940   3.204   1.215   5.657
 3870SOL     OW11941   2.159   0.035   5.757
 3870SOL    HW111942   2.208   0.119   5.736
 3870SOL    HW211943   2.221  -0.030   5.802
 3871SOL     OW11944   2.797   0.236   6.066
 3871SOL    HW111945   2.749   0.277   5.988
 3871SOL    HW211946   2.896   0.234   6.047
 3872SOL     OW11947   2.938   0.683   7.050
 3872SOL    HW111948   2.858   0.622   7.053
 3872SOL    HW211949   3.019   0.630   7.026
 3873SOL     OW11950   3.089   1.570   6.379
 3873SOL    HW111951   3.110   1.644   6.314
 3873SOL    HW211952   3.157   1.570   6.452
 3874SOL     OW11953   2.321   1.152   6.327
 3874SOL    HW111954   2.250   1.125   6.392
 3874SOL    HW211955   2.295   1.124   6.234
 3875SOL     OW11956   3.133   1.797   6.177
 3875SOL    HW111957   3.177   1.861   6.113
 3875SOL    HW211958   3.083   1.849   6.247
 3876SOL     OW11959   2.894   0.549   5.602
 3876SOL    HW111960   2.853   0.631   5.563
 3876SOL    HW211961   2.958   0.575   5.675
 3877SOL     OW11962   1.940   0.556   6.972
 3877SOL    HW111963   2.032   0.555   6.931
 3877SOL    HW211964   1.934   0.630   7.039
 3878SOL     OW11965   2.423   0.222   6.733
 3878SOL    HW111966   2.461   0.138   6.770
 3878SOL    HW211967   2.335   0.241   6.777
 3879SOL     OW11968   2.728   0.454   6.228
 3879SOL    HW111969   2.696   0.526   6.166
 3879SOL    HW211970   2.752   0.373   6.175
 3880SOL     OW11971   2.879   0.039   6.339
 3880SOL    HW111972   2.807   0.044   6.270
 3880SOL    HW211973   2.855  -0.030   6.408
 3881SOL     OW11974   3.291   1.173   6.453
 3881SOL    HW111975   3.236   1.089   6.446
 3881SOL    HW211976   3.317   1.202   6.361
 3882SOL     OW11977   3.328   0.590   6.578
 3882SOL    HW111978   3.298   0.495   6.585
 3882SOL    HW211979   3.401   0.606   6.644
 3883SOL     OW11980   3.719   0.833   5.963
 3883SOL    HW111981   3.761   0.769   6.027
 3883SOL    HW211982   3.681   0.782   5.885
 3884SOL     OW11983   2.350   1.385   5.760
 3884SOL    HW111984   2.263   1.370   5.807
 3884SOL    HW211985   2.333   1.411   5.665
 3885SOL     OW11986   3.526   1.280   6.243
 3885SOL    HW111987   3.625   1.288   6.257
 3885SOL    HW211988   3.481   1.364   6.274
 3886SOL     OW11989   3.252   0.575   5.664
 3886SOL    HW111990   3.198   0.554   5.745
 3886SOL    HW211991   3.343   0.534   5.673
 3887SOL     OW11992   2.389   0.256   5.914
 3887SOL    HW111993   2.416   0.197   5.839
 3887SOL    HW211994   2.389   0.351   5.883
 3888SOL     OW11995   3.616   1.223   7.174
 3888SOL    HW111996   3.707   1.184   7.161
 3888SOL    HW211997   3.624   1.319   7.198
 3889SOL     OW11998   2.926   1.347   6.926
 3889SOL    HW111999   2.846   1.324   6.981
 3889SOL    HW212000   3.009   1.321   6.975
 3890SOL     OW12001   3.454   1.629   7.211
 3890SOL    HW112002   3.481   1.663   7.121
 3890SOL    HW212003   3.533   1.591   7.257
 3891SOL     OW12004   2.973   1.195   6.686
 3891SOL    HW112005   2.933   1.239   6.767
 3891SOL    HW212006   2.932   1.232   6.603
 3892SOL     OW12007   3.500   1.099   6.665
 3892SOL    HW112008   3.505   1.180   6.724
 3892SOL    HW212009   3.414   1.101   6.614
 3893SOL     OW12010   2.777   0.089   6.988
 3893SOL    HW112011   2.802   0.069   6.893
 3893SOL    HW212012   2.849   0.145   7.030
 3894SOL     OW12013   2.842   1.116   7.305
 3894SOL    HW112014   2.743   1.122   7.315
 3894SOL    HW212015   2.865   1.036   7.249
 3895SOL     OW12016   2.567   1.050   5.954
 3895SOL    HW112017   2.553   1.057   6.053
 3895SOL    HW212018   2.651   0.999   5.936
 3896SOL     OW12019   2.272   0.813   6.837
 3896SOL    HW112020   2.358   0.825   6.887
 3896SOL    HW212021   2.230   0.726   6.864
 3897SOL     OW12022   3.136   0.386   6.848
 3897SOL    HW112023   3.157   0.460   6.912
 3897SOL    HW212024   3.047   0.403   6.805
 3898SOL     OW12025   1.926   1.564   6.917
 3898SOL    HW112026   1.880   1.646   6.883
 3898SOL    HW212027   2.024   1.583   6.926
 3899SOL     OW12028   2.229   1.100   6.087
 3899SOL    HW112029   2.222   1.183   6.031
 3899SOL    HW212030   2.233   1.020   6.027
 3900SOL     OW12031   2.428   0.537   6.451
 3900SOL    HW112032   2.440   0.603   6.377
 3900SOL    HW212033   2.474   0.571   6.534
 3901SOL     OW12034   3.114   1.348   5.974
 3901SOL    HW112035   3.164   1.425   6.014
 3901SOL    HW212036   3.019   1.350   6.006
 3902SOL     OW12037   3.134   1.445   6.728
 3902SOL    HW112038   3.181   1.458   6.815
 3902SOL    HW212039   3.068   1.371   6.737
 3903SOL     OW12040   3.444   0.639   6.058
 3903SOL    HW112041   3.413   0.700   6.131
 3903SOL    HW212042   3.494   0.691   5.989
 3904SOL     OW12043   2.216   1.510   6.915
 3904SOL    HW112044   2.195   1.466   6.828
 3904SOL    HW212045   2.313   1.536   6.918
 3905SOL     OW12046   2.264   0.751   7.184
 3905SOL    HW112047   2.332   0.806   7.137
 3905SOL    HW212048   2.304   0.663   7.211
 3906SOL     OW12049   3.449   0.779   7.256
 3906SOL    HW112050   3.357   0.817   7.251
 3906SOL    HW212051   3.509   0.826   7.191
 3907SOL     OW12052   2.875   0.105   7.356
 3907SOL    HW112053   2.881   0.190   7.304
 3907SOL    HW212054   2.907   0.029   7.299
 3908SOL     OW12055   2.366   0.050   7.326
 3908SOL    HW112056   2.324  -0.007   7.256
 3908SOL    HW212057   2.300   0.119   7.358
 3909SOL     OW12058   2.435   0.870   6.615
 3909SOL    HW112059   2.479   0.959   6.606
 3909SOL    HW212060   2.372   0.870   6.692
 3910SOL     OW12061   3.222   0.862   6.631
 3910SOL    HW112062   3.147   0.862   6.565
 3910SOL    HW212063   3.259   0.770   6.640
 3911SOL     OW12064   3.071   0.525   5.861
 3911SOL    HW112065   3.084   0.441   5.915
 3911SOL    HW212066   3.042   0.599   5.921
 3912SOL     OW12067   2.169   0.213   6.817
 3912SOL    HW112068   2.146   0.250   6.907
 3912SOL    HW212069   2.139   0.118   6.811
 3913SOL     OW12070   1.899   1.310   6.868
 3913SOL    HW112071   1.952   1.261   6.936
 3913SOL    HW212072   1.921   1.408   6.873
 3914SOL     OW12073   2.594   0.634   6.650
 3914SOL    HW112074   2.653   0.608   6.574
 3914SOL    HW212075   2.566   0.730   6.639
 3915SOL     OW12076   3.590   0.935   7.440
 3915SOL    HW112077   3.544   0.928   7.351
 3915SOL    HW212078   3.528   0.979   7.506
 3916SOL     OW12079   2.169   0.063   6.204
 3916SOL    HW112080   2.158   0.157   6.237
 3916SOL    HW212081   2.164   0.000   6.281
 3917SOL     OW12082   3.484   0.367   5.960
 3917SOL    HW112083   3.486   0.291   6.024
 3917SOL    HW212084   3.436   0.444   6.000
 3918SOL     OW12085   2.885   0.766   6.552
 3918SOL    HW112086   2.900   0.787   6.648
 3918SOL    HW212087   2.855   0.671   6.543
 3919SOL     OW12088   2.842   1.573   7.286
 3919SOL    HW112089   2.822   1.617   7.198
 3919SOL    HW212090   2.881   1.482   7.270
 3920SOL     OW12091   3.721   1.518   7.191
 3920SOL    HW112092   3.735   1.545   7.096
 3920SOL    HW212093   3.804   1.540   7.244
 3921SOL     OW12094   2.212   0.898   7.390
 3921SOL    HW112095   2.288   0.942   7.438
 3921SOL    HW212096   2.247   0.851   7.308
 3922SOL     OW12097   3.402   0.274   5.711
 3922SOL    HW112098   3.341   0.199   5.734
 3922SOL    HW212099   3.424   0.326   5.794
 3923SOL     OW12100   3.165   0.838   5.628
 3923SOL    HW112101   3.199   0.745   5.643
 3923SOL    HW212102   3.183   0.865   5.533
 3924SOL     OW12103   2.930   1.333   6.435
 3924SOL    HW112104   2.937   1.249   6.380
 3924SOL    HW212105   2.992   1.402   6.399
 3925SOL     OW12106   2.181   0.810   6.535
 3925SOL    HW112107   2.274   0.846   6.540
 3925SOL    HW212108   2.175   0.725   6.587
 3926SOL     OW12109   2.201   0.509   6.592
 3926SOL    HW112110   2.149   0.426   6.575
 3926SOL    HW212111   2.278   0.514   6.528
 3927SOL     OW12112   3.000   0.380   7.264
 3927SOL    HW112113   2.955   0.443   7.328
 3927SOL    HW212114   3.093   0.411   7.247
 3928SOL     OW12115   3.022   0.207   7.063
 3928SOL    HW112116   3.022   0.271   7.140
 3928SOL    HW212117   3.050   0.255   6.980
 3929SOL     OW12118   1.870   1.326   5.786
 3929SOL    HW112119   1.777   1.347   5.755
 3929SOL    HW212120   1.880   1.227   5.799
 3930SOL     OW12121   1.950   1.801   6.513
 3930SOL    HW112122   1.908   1.715   6.486
 3930SOL    HW212123   2.044   1.804   6.479
 3931SOL     OW12124   2.366   1.568   6.496
 3931SOL    HW112125   2.432   1.642   6.505
 3931SOL    HW212126   2.410   1.489   6.454
 3932SOL     OW12127   2.864   0.796   6.824
 3932SOL    HW112128   2.905   0.764   6.910
 3932SOL    HW212129   2.768   0.769   6.821
 3933SOL     OW12130   1.902   0.544   6.700
 3933SOL    HW112131   1.987   0.511   6.659
 3933SOL    HW212132   1.915   0.559   6.798
 3934SOL     OW12133   2.051   0.520   7.308
 3934SOL    HW112134   2.110   0.480   7.238
 3934SOL    HW212135   1.993   0.591   7.267
 3935SOL     OW12136   3.231   0.950   7.246
 3935SOL    HW112137   3.270   1.039   7.266
 3935SOL    HW212138   3.241   0.930   7.149
 3936SOL     OW12139   2.677   0.572   5.911
 3936SOL    HW112140   2.684   0.483   5.865
 3936SOL    HW212141   2.583   0.606   5.903
 3937SOL     OW12142   3.519   0.604   6.792
 3937SOL    HW112143   3.481   0.535   6.854
 3937SOL    HW212144   3.601   0.568   6.748
 3938SOL     OW12145   2.114   1.564   7.330
 3938SOL    HW112146   2.084   1.621   7.406
 3938SOL    HW212147   2.107   1.467   7.356
 3939SOL     OW12148   2.533   0.464   6.855
 3939SOL    HW112149   2.499   0.375   6.825
 3939SOL    HW212150   2.559   0.518   6.775
 3940SOL     OW12151   2.792   1.678   7.051
 3940SOL    HW112152   2.768   1.660   6.956
 3940SOL    HW212153   2.822   1.772   7.061
 3941SOL     OW12154   2.335   0.500   5.777
 3941SOL    HW112155   2.396   0.580   5.781
 3941SOL    HW212156   2.240   0.531   5.784
 3942SOL     OW12157   2.021   1.137   7.052
 3942SOL    HW112158   2.043   1.076   7.128
 3942SOL    HW212159   2.031   1.088   6.966
 3943SOL     OW12160   3.209   1.059   6.820
 3943SOL    HW112161   3.233   0.996   6.746
 3943SOL    HW212162   3.119   1.099   6.802
 3944SOL     OW12163   3.164   0.855   5.895
 3944SOL    HW112164   3.078   0.824   5.937
 3944SOL    HW212165   3.160   0.841   5.796
 3945SOL     OW12166   3.621   1.747   6.740
 3945SOL    HW112167   3.682   1.777   6.667
 3945SOL    HW212168   3.583   1.658   6.718
 3946SOL     OW12169   3.114   1.731   6.714
 3946SOL    HW112170   3.198   1.736   6.660
 3946SOL    HW212171   3.091   1.635   6.732
 3947SOL     OW12172   1.945   1.258   6.608
 3947SOL    HW112173   1.940   1.257   6.708
 3947SOL    HW212174   1.862   1.217   6.570
 3948SOL     OW12175   2.550   1.662   7.302
 3948SOL    HW112176   2.494   1.743   7.311
 3948SOL    HW212177   2.602   1.666   7.216
 3949SOL     OW12178   3.588   0.135   6.109
 3949SOL    HW112179   3.661   0.118   6.042
 3949SOL    HW212180   3.557   0.048   6.147
 3950SOL     OW12181   3.250   1.573   6.063
 3950SOL    HW112182   3.317   1.585   5.989
 3950SOL    HW212183   3.210   1.662   6.086
 3951SOL     OW12184   1.992   1.794   7.437
 3951SOL    HW112185   1.951   1.720   7.490
 3951SOL    HW212186   2.056   1.845   7.495
 3952SOL     OW12187   3.142   0.927   6.258
 3952SOL    HW112188   3.202   0.846   6.260
 3952SOL    HW212189   3.182   0.996   6.198
 3953SOL     OW12190   2.692   1.273   7.008
 3953SOL    HW112191   2.687   1.306   7.103
 3953SOL    HW212192   2.606   1.292   6.962
 3954SOL     OW12193   3.512   1.720   6.980
 3954SOL    HW112194   3.565   1.730   6.896
 3954SOL    HW212195   3.485   1.810   7.014
 3955SOL     OW12196   3.703   0.175   6.549
 3955SOL    HW112197   3.742   0.090   6.513
 3955SOL    HW212198   3.605   0.177   6.530
 3956SOL     OW12199   2.125   0.326   6.306
 3956SOL    HW112200   2.046   0.377   6.272
 3956SOL    HW212201   2.116   0.311   6.404
 3957SOL     OW12202   3.056   1.612   5.617
 3957SOL    HW112203   3.062   1.519   5.654
 3957SOL    HW212204   2.997   1.612   5.537
 3958SOL     OW12205   2.684   1.002   6.958
 3958SOL    HW112206   2.724   1.001   6.866
 3958SOL    HW212207   2.694   1.094   6.998
 3959SOL     OW12208   2.778   0.910   5.877
 3959SOL    HW112209   2.841   0.948   5.809
 3959SOL    HW212210   2.818   0.827   5.916
 3960SOL     OW12211   3.366   1.607   5.630
 3960SOL    HW112212   3.274   1.644   5.637
 3960SOL    HW212213   3.404   1.627   5.540
 3961SOL     OW12214   2.234   1.288   7.076
 3961SOL    HW112215   2.221   1.381   7.042
 3961SOL    HW212216   2.150   1.236   7.063
 3962SOL     OW12217   3.476   1.292   6.875
 3962SOL    HW112218   3.536   1.295   6.955
 3962SOL    HW212219   3.401   1.356   6.888
 3963SOL     OW12220   2.901   1.098   6.282
 3963SOL    HW112221   2.831   1.051   6.336
 3963SOL    HW212222   2.960   1.030   6.239
 3964SOL     OW12223   2.876   0.236   6.557
 3964SOL    HW112224   2.868   0.200   6.464
 3964SOL    HW212225   2.874   0.160   6.622
 3965SOL     OW12226   3.571   0.385   6.967
 3965SOL    HW112227   3.644   0.454   6.971
 3965SOL    HW212228   3.599   0.310   6.908
 3966SOL     OW12229   2.117   1.348   5.876
 3966SOL    HW112230   2.021   1.349   5.849
 3966SOL    HW212231   2.129   1.401   5.960
 3967SOL     OW12232   1.967   1.013   7.312
 3967SOL    HW112233   1.890   0.980   7.366
 3967SOL    HW212234   2.052   0.983   7.354
 3968SOL     OW12235   2.534   0.203   7.075
 3968SOL    HW112236   2.624   0.187   7.035
 3968SOL    HW212237   2.542   0.208   7.174
 3969SOL     OW12238   1.937   0.345   5.619
 3969SOL    HW112239   1.845   0.317   5.590
 3969SOL    HW212240   1.968   0.422   5.563
 3970SOL     OW12241   3.302   0.856   6.984
 3970SOL    HW112242   3.245   0.908   6.921
 3970SOL    HW212243   3.398   0.868   6.960
 3971SOL     OW12244   1.934   0.166   5.904
 3971SOL    HW112245   1.917   0.249   5.850
 3971SOL    HW212246   2.024   0.129   5.882
 3972SOL     OW12247   3.045   1.335   5.705
 3972SOL    HW112248   2.946   1.324   5.707
 3972SOL    HW212249   3.079   1.350   5.798
 3973SOL     OW12250   2.475   0.842   7.017
 3973SOL    HW112251   2.531   0.923   7.000
 3973SOL    HW212252   2.534   0.762   7.020
 3974SOL     OW12253   3.355   1.767   6.545
 3974SOL    HW112254   3.388   1.831   6.476
 3974SOL    HW212255   3.421   1.761   6.620
 3975SOL     OW12256   2.578   0.565   7.294
 3975SOL    HW112257   2.597   0.630   7.368
 3975SOL    HW212258   2.638   0.485   7.303
 3976SOL     OW12259   3.312   1.220   7.219
 3976SOL    HW112260   3.303   1.210   7.318
 3976SOL    HW212261   3.408   1.213   7.193
 3977SOL     OW12262   2.252   1.741   7.146
 3977SOL    HW112263   2.161   1.782   7.144
 3977SOL    HW212264   2.245   1.647   7.178
 3978SOL     OW12265   3.536   0.883   6.840
 3978SOL    HW112266   3.509   0.794   6.803
 3978SOL    HW212267   3.537   0.951   6.767
 3979SOL     OW12268   3.087   0.325   6.035
 3979SOL    HW112269   3.152   0.251   6.024
 3979SOL    HW212270   3.107   0.375   6.119
 3980SOL     OW12271   2.456   0.745   6.238
 3980SOL    HW112272   2.506   0.830   6.219
 3980SOL    HW212273   2.368   0.747   6.190
 3981SOL     OW12274   3.639   0.342   7.228
 3981SOL    HW112275   3.622   0.373   7.134
 3981SOL    HW212276   3.555   0.305   7.266
 3982SOL     OW12277   3.592   0.934   7.103
 3982SOL    HW112278   3.630   1.025   7.118
 3982SOL    HW212279   3.584   0.917   7.004
 3983SOL     OW12280   2.721   1.374   5.602
 3983SOL    HW112281   2.675   1.389   5.690
 3983SOL    HW212282   2.765   1.459   5.572
 3984SOL     OW12283   2.523   1.790   6.539
 3984SOL    HW112284   2.477   1.878   6.526
 3984SOL    HW212285   2.622   1.802   6.532
 3985SOL     OW12286   2.721   0.956   6.447
 3985SOL    HW112287   2.775   0.887   6.495
 3985SOL    HW212288   2.689   1.025   6.513
 3986SOL     OW12289   2.945   0.984   5.673
 3986SOL    HW112290   2.922   1.037   5.591
 3986SOL    HW212291   3.026   0.928   5.654
 3987SOL     OW12292   3.723   1.569   6.437
 3987SOL    HW112293   3.652   1.557   6.367
 3987SOL    HW212294   3.724   1.490   6.497
 3988SOL     OW12295   2.083   1.314   7.430
 3988SOL    HW112296   2.018   1.241   7.409
 3988SOL    HW212297   2.087   1.328   7.528
 3989SOL     OW12298   1.941   1.240   6.239
 3989SOL    HW112299   1.940   1.193   6.327
 3989SOL    HW212300   2.023   1.212   6.188
 3990SOL     OW12301   2.534   1.391   7.210
 3990SOL    HW112302   2.456   1.341   7.248
 3990SOL    HW212303   2.531   1.486   7.241
 3991SOL     OW12304   3.686   0.192   6.813
 3991SOL    HW112305   3.682   0.102   6.857
 3991SOL    HW212306   3.689   0.181   6.714
 3992SOL     OW12307   2.290   0.424   6.106
 3992SOL    HW112308   2.320   0.352   6.044
 3992SOL    HW212309   2.251   0.384   6.189
 3993SOL     OW12310   3.567   1.487   6.690
 3993SOL    HW112311   3.474   1.462   6.663
 3993SOL    HW212312   3.593   1.437   6.772
 3994SOL     OW12313   2.179   0.547   6.866
 3994SOL    HW112314   2.217   0.488   6.938
 3994SOL    HW212315   2.219   0.521   6.778
 3995SOL     OW12316   2.674   1.586   6.273
 3995SOL    HW112317   2.706   1.596   6.179
 3995SOL    HW212318   2.595   1.524   6.275
 3996SOL     OW12319   3.286   0.214   6.698
 3996SOL    HW112320   3.338   0.149   6.753
 3996SOL    HW212321   3.237   0.277   6.759
 3997SOL     OW12322   2.863   0.034   6.740
 3997SOL    HW112323   2.800  -0.038   6.709
 3997SOL    HW212324   2.956  -0.002   6.740
 3998SOL     OW12325   2.632   1.330   5.887
 3998SOL    HW112326   2.586   1.243   5.904
 3998SOL    HW212327   2.723   1.327   5.928
 3999SOL     OW12328   2.480   1.567   6.870
 3999SOL    HW112329   2.475   1.649   6.927
 3999SOL    HW212330   2.569   1.564   6.825
 4000SOL     OW12331   3.214   0.052   5.754
 4000SOL    HW112332   3.249   0.011   5.670
 4000SOL    HW212333   3.124   0.014   5.774
 4001SOL     OW12334   3.162   0.453   6.277
 4001SOL    HW112335   3.103   0.533   6.281
 4001SOL    HW212336   3.177   0.418   6.370
 4002SOL     OW12337   3.455   0.221   6.468
 4002SOL    HW112338   3.371   0.220   6.522
 4002SOL    HW212339   3.457   0.304   6.412
 4003SOL     OW12340   1.901   1.077   5.886
 4003SOL    HW112341   2.000   1.066   5.877
 4003SOL    HW212342   1.861   0.991   5.918
 4004SOL     OW12343   2.092   0.628   7.561
 4004SOL    HW112344   1.999   0.626   7.598
 4004SOL    HW212345   2.093   0.589   7.469
 4005SOL     OW12346   2.087   0.275   8.444
 4005SOL    HW112347   2.122   0.258   8.536
 4005SOL    HW212348   1.999   0.230   8.432
 4006SOL     OW12349   1.881   0.368   8.095
 4006SOL    HW112350   1.799   0.411   8.134
 4006SOL    HW212351   1.853   0.295   8.032
 4007SOL     OW12352   2.431   1.275   8.613
 4007SOL    HW112353   2.338   1.268   8.576
 4007SOL    HW212354   2.442   1.364   8.657
 4008SOL     OW12355   3.417   1.511   8.151
 4008SOL    HW112356   3.360   1.495   8.232
 4008SOL    HW212357   3.358   1.521   8.071
 4009SOL     OW12358   2.997   0.703   8.165
 4009SOL    HW112359   3.054   0.781   8.140
 4009SOL    HW212360   2.937   0.729   8.241
 4010SOL     OW12361   3.617   0.607   7.679
 4010SOL    HW112362   3.605   0.594   7.580
 4010SOL    HW212363   3.587   0.526   7.728
 4011SOL     OW12364   2.630   1.144   8.471
 4011SOL    HW112365   2.552   1.161   8.531
 4011SOL    HW212366   2.664   1.231   8.435
 4012SOL     OW12367   2.712   0.798   9.271
 4012SOL    HW112368   2.708   0.874   9.336
 4012SOL    HW212369   2.734   0.834   9.180
 4013SOL     OW12370   2.547   1.012   8.113
 4013SOL    HW112371   2.616   0.996   8.183
 4013SOL    HW212372   2.474   1.069   8.151
 4014SOL     OW12373   2.548   1.161   9.251
 4014SOL    HW112374   2.608   1.240   9.265
 4014SOL    HW212375   2.462   1.192   9.210
 4015SOL     OW12376   2.197   1.435   8.509
 4015SOL    HW112377   2.119   1.404   8.456
 4015SOL    HW212378   2.255   1.493   8.452
 4016SOL     OW12379   3.322   1.505   8.787
 4016SOL    HW112380   3.346   1.599   8.813
 4016SOL    HW212381   3.306   1.451   8.869
 4017SOL     OW12382   2.300   0.392   8.947
 4017SOL    HW112383   2.382   0.336   8.956
 4017SOL    HW212384   2.219   0.334   8.951
 4018SOL     OW12385   3.465   0.447   8.185
 4018SOL    HW112386   3.391   0.493   8.135
 4018SOL    HW212387   3.516   0.515   8.238
 4019SOL     OW12388   2.093   1.713   7.931
 4019SOL    HW112389   2.127   1.790   7.985
 4019SOL    HW212390   2.137   1.713   7.841
 4020SOL     OW12391   2.989   1.341   9.138
 4020SOL    HW112392   3.036   1.341   9.226
 4020SOL    HW212393   2.941   1.254   9.127
 4021SOL     OW12394   2.092   1.434   7.986
 4021SOL    HW112395   2.066   1.530   7.986
 4021SOL    HW212396   2.021   1.380   8.031
 4022SOL     OW12397   2.102   1.091   8.334
 4022SOL    HW112398   2.116   1.007   8.386
 4022SOL    HW212399   2.047   1.155   8.389
 4023SOL     OW12400   2.482   1.786   8.887
 4023SOL    HW112401   2.390   1.769   8.922
 4023SOL    HW212402   2.510   1.878   8.913
 4024SOL     OW12403   2.468   0.964   7.571
 4024SOL    HW112404   2.475   1.048   7.517
 4024SOL    HW212405   2.514   0.977   7.659
 4025SOL     OW12406   3.456   0.114   8.928
 4025SOL    HW112407   3.438   0.181   8.856
 4025SOL    HW212408   3.453   0.160   9.017
 4026SOL     OW12409   1.984   0.643   8.011
 4026SOL    HW112410   1.939   0.555   8.028
 4026SOL    HW212411   1.983   0.697   8.095
 4027SOL     OW12412   3.704   1.767   7.807
 4027SOL    HW112413   3.758   1.738   7.887
 4027SOL    HW212414   3.734   1.857   7.778
 4028SOL     OW12415   1.889   1.596   7.565
 4028SOL    HW112416   1.870   1.500   7.586
 4028SOL    HW212417   1.856   1.654   7.640
 4029SOL     OW12418   3.551   0.922   8.060
 4029SOL    HW112419   3.646   0.893   8.068
 4029SOL    HW212420   3.543   0.987   7.985
 4030SOL     OW12421   3.503   1.108   7.880
 4030SOL    HW112422   3.589   1.110   7.828
 4030SOL    HW212423   3.517   1.155   7.968
 4031SOL     OW12424   1.975   0.737   9.045
 4031SOL    HW112425   2.063   0.724   9.090
 4031SOL    HW212426   1.962   0.834   9.023
 4032SOL     OW12427   2.475   1.365   8.174
 4032SOL    HW112428   2.426   1.278   8.183
 4032SOL    HW212429   2.452   1.408   8.087
 4033SOL     OW12430   3.155   1.228   8.871
 4033SOL    HW112431   3.192   1.155   8.813
 4033SOL    HW212432   3.207   1.233   8.956
 4034SOL     OW12433   2.671   0.004   7.950
 4034SOL    HW112434   2.711   0.095   7.941
 4034SOL    HW212435   2.571   0.012   7.956
 4035SOL     OW12436   2.059   0.976   8.712
 4035SOL    HW112437   2.148   0.931   8.698
 4035SOL    HW212438   1.986   0.911   8.693
 4036SOL     OW12439   3.387   0.999   7.638
 4036SOL    HW112440   3.324   0.923   7.651
 4036SOL    HW212441   3.435   1.017   7.724
 4037SOL     OW12442   3.049   1.792   9.064
 4037SOL    HW112443   3.073   1.852   8.988
 4037SOL    HW212444   3.056   1.697   9.034
 4038SOL     OW12445   2.179   0.251   9.249
 4038SOL    HW112446   2.250   0.322   9.255
 4038SOL    HW212447   2.091   0.290   9.277
 4039SOL     OW12448   3.328   1.417   8.401
 4039SOL    HW112449   3.269   1.423   8.481
 4039SOL    HW212450   3.313   1.329   8.355
 4040SOL     OW12451   3.529   1.714   8.020
 4040SOL    HW112452   3.488   1.691   7.932
 4040SOL    HW212453   3.511   1.640   8.085
 4041SOL     OW12454   2.460   0.729   7.718
 4041SOL    HW112455   2.484   0.798   7.650
 4041SOL    HW212456   2.382   0.762   7.772
 4042SOL     OW12457   3.143   0.345   8.392
 4042SOL    HW112458   3.057   0.295   8.379
 4042SOL    HW212459   3.205   0.291   8.448
 4043SOL     OW12460   3.438   1.662   7.755
 4043SOL    HW112461   3.527   1.708   7.758
 4043SOL    HW212462   3.417   1.638   7.660
 4044SOL     OW12463   2.669   0.605   8.913
 4044SOL    HW112464   2.622   0.602   9.002
 4044SOL    HW212465   2.618   0.550   8.847
 4045SOL     OW12466   3.256   0.469   9.122
 4045SOL    HW112467   3.236   0.512   9.210
 4045SOL    HW212468   3.334   0.407   9.131
 4046SOL     OW12469   2.835   0.890   9.020
 4046SOL    HW112470   2.881   0.806   8.991
 4046SOL    HW212471   2.779   0.924   8.945
 4047SOL     OW12472   2.853   0.410   8.690
 4047SOL    HW112473   2.776   0.444   8.744
 4047SOL    HW212474   2.819   0.359   8.611
 4048SOL     OW12475   2.903   0.701   7.877
 4048SOL    HW112476   2.929   0.697   7.973
 4048SOL    HW212477   2.818   0.650   7.863
 4049SOL     OW12478   1.938   0.811   8.237
 4049SOL    HW112479   2.037   0.799   8.246
 4049SOL    HW212480   1.914   0.906   8.258
 4050SOL     OW12481   1.992   1.821   9.019
 4050SOL    HW112482   1.982   1.806   9.118
 4050SOL    HW212483   1.906   1.857   8.983
 4051SOL     OW12484   2.727   0.348   7.643
 4051SOL    HW112485   2.786   0.411   7.594
 4051SOL    HW212486   2.746   0.254   7.614
 4052SOL     OW12487   3.581   0.585   9.279
 4052SOL    HW112488   3.555   0.674   9.243
 4052SOL    HW212489   3.579   0.517   9.206
 4053SOL     OW12490   3.224   1.144   7.993
 4053SOL    HW112491   3.307   1.115   7.945
 4053SOL    HW212492   3.175   1.211   7.937
 4054SOL     OW12493   2.412   0.196   8.333
 4054SOL    HW112494   2.407   0.191   8.433
 4054SOL    HW212495   2.414   0.292   8.304
 4055SOL     OW12496   2.870   1.456   7.925
 4055SOL    HW112497   2.824   1.528   7.873
 4055SOL    HW212498   2.866   1.476   8.023
 4056SOL     OW12499   2.213   1.801   8.301
 4056SOL    HW112500   2.263   1.715   8.307
 4056SOL    HW212501   2.278   1.878   8.298
 4057SOL     OW12502   3.657   1.066   8.321
 4057SOL    HW112503   3.595   1.051   8.245
 4057SOL    HW212504   3.605   1.077   8.406
 4058SOL     OW12505   3.089   1.550   8.954
 4058SOL    HW112506   3.095   1.473   9.018
 4058SOL    HW212507   3.037   1.524   8.874
 4059SOL     OW12508   2.183   0.943   7.690
 4059SOL    HW112509   2.265   0.982   7.648
 4059SOL    HW212510   2.156   0.861   7.641
 4060SOL     OW12511   3.320   0.735   8.176
 4060SOL    HW112512   3.315   0.670   8.251
 4060SOL    HW212513   3.400   0.794   8.189
 4061SOL     OW12514   2.323   1.266   9.175
 4061SOL    HW112515   2.273   1.267   9.089
 4061SOL    HW212516   2.260   1.248   9.251
 4062SOL     OW12517   2.973   1.776   7.685
 4062SOL    HW112518   2.913   1.714   7.735
 4062SOL    HW212519   3.004   1.732   7.600
 4063SOL     OW12520   2.064   0.285   8.946
 4063SOL    HW112521   1.984   0.345   8.933
 4063SOL    HW212522   2.054   0.236   9.032
 4064SOL     OW12523   3.494   1.377   7.529
 4064SOL    HW112524   3.462   1.471   7.519
 4064SOL    HW212525   3.418   1.314   7.517
 4065SOL     OW12526   2.326   1.743   7.771
 4065SOL    HW112527   2.359   1.782   7.857
 4065SOL    HW212528   2.402   1.736   7.706
 4066SOL     OW12529   3.262   0.107   7.874
 4066SOL    HW112530   3.238   0.070   7.784
 4066SOL    HW212531   3.361   0.123   7.878
 4067SOL     OW12532   2.111   1.785   8.689
 4067SOL    HW112533   2.168   1.720   8.739
 4067SOL    HW212534   2.095   1.752   8.596
 4068SOL     OW12535   2.802   1.698   8.352
 4068SOL    HW112536   2.882   1.641   8.373
 4068SOL    HW212537   2.753   1.658   8.275
 4069SOL     OW12538   2.244   0.700   7.928
 4069SOL    HW112539   2.289   0.610   7.925
 4069SOL    HW212540   2.150   0.689   7.961
 4070SOL     OW12541   3.409   0.222   9.177
 4070SOL    HW112542   3.404   0.259   9.269
 4070SOL    HW212543   3.337   0.153   9.165
 4071SOL     OW12544   2.476   0.122   7.565
 4071SOL    HW112545   2.574   0.100   7.572
 4071SOL    HW212546   2.445   0.105   7.472
 4072SOL     OW12547   2.643   0.264   9.197
 4072SOL    HW112548   2.710   0.203   9.240
 4072SOL    HW212549   2.570   0.283   9.262
 4073SOL     OW12550   2.750   1.514   8.643
 4073SOL    HW112551   2.727   1.489   8.549
 4073SOL    HW212552   2.811   1.445   8.682
 4074SOL     OW12553   3.213   0.590   8.881
 4074SOL    HW112554   3.241   0.547   8.966
 4074SOL    HW212555   3.238   0.686   8.882
 4075SOL     OW12556   2.665   1.402   8.372
 4075SOL    HW112557   2.755   1.416   8.330
 4075SOL    HW212558   2.594   1.404   8.301
 4076SOL     OW12559   2.784   0.503   8.347
 4076SOL    HW112560   2.759   0.494   8.251
 4076SOL    HW212561   2.832   0.421   8.378
 4077SOL     OW12562   2.401   0.064   7.960
 4077SOL    HW112563   2.320   0.065   8.018
 4077SOL    HW212564   2.404   0.147   7.905
 4078SOL     OW12565   3.296   1.188   7.489
 4078SOL    HW112566   3.328   1.112   7.546
 4078SOL    HW212567   3.204   1.215   7.519
 4079SOL     OW12568   2.159   0.035   7.619
 4079SOL    HW112569   2.208   0.119   7.598
 4079SOL    HW212570   2.221  -0.030   7.664
 4080SOL     OW12571   2.797   0.236   7.928
 4080SOL    HW112572   2.749   0.277   7.850
 4080SOL    HW212573   2.896   0.234   7.909
 4081SOL     OW12574   2.938   0.683   8.912
 4081SOL    HW112575   2.858   0.622   8.915
 4081SOL    HW212576   3.019   0.630   8.888
 4082SOL     OW12577   3.089   1.570   8.241
 4082SOL    HW112578   3.110   1.644   8.176
 4082SOL    HW212579   3.157   1.570   8.314
 4083SOL     OW12580   2.321   1.152   8.189
 4083SOL    HW112581   2.250   1.125   8.254
 4083SOL    HW212582   2.295   1.124   8.096
 4084SOL     OW12583   3.133   1.797   8.039
 4084SOL    HW112584   3.177   1.861   7.975
 4084SOL    HW212585   3.083   1.849   8.109
 4085SOL     OW12586   2.894   0.549   7.464
 4085SOL    HW112587   2.853   0.631   7.425
 4085SOL    HW212588   2.958   0.575   7.537
 4086SOL     OW12589   1.940   0.556   8.834
 4086SOL    HW112590   2.032   0.555   8.793
 4086SOL    HW212591   1.934   0.630   8.901
 4087SOL     OW12592   2.423   0.222   8.595
 4087SOL    HW112593   2.461   0.138   8.632
 4087SOL    HW212594   2.335   0.241   8.639
 4088SOL     OW12595   2.728   0.454   8.090
 4088SOL    HW112596   2.696   0.526   8.028
 4088SOL    HW212597   2.752   0.373   8.037
 4089SOL     OW12598   2.879   0.039   8.201
 4089SOL    HW112599   2.807   0.044   8.132
 4089SOL    HW212600   2.855  -0.030   8.270
 4090SOL     OW12601   3.291   1.173   8.315
 4090SOL    HW112602   3.236   1.089   8.308
 4090SOL    HW212603   3.317   1.202   8.223
 4091SOL     OW12604   3.328   0.590   8.440
 4091SOL    HW112605   3.298   0.495   8.447
 4091SOL    HW212606   3.401   0.606   8.506
 4092SOL     OW12607   3.719   0.833   7.825
 4092SOL    HW112608   3.761   0.769   7.889
 4092SOL    HW212609   3.681   0.782   7.747
 4093SOL     OW12610   2.350   1.385   7.622
 4093SOL    HW112611   2.263   1.370   7.669
 4093SOL    HW212612   2.333   1.411   7.527
 4094SOL     OW12613   3.526   1.280   8.105
 4094SOL    HW112614   3.625   1.288   8.119
 4094SOL    HW212615   3.481   1.364   8.136
 4095SOL     OW12616   3.252   0.575   7.526
 4095SOL    HW112617   3.198   0.554   7.607
 4095SOL    HW212618   3.343   0.534   7.535
 4096SOL     OW12619   2.389   0.256   7.776
 4096SOL    HW112620   2.416   0.197   7.701
 4096SOL    HW212621   2.389   0.351   7.745
 4097SOL     OW12622   3.616   1.223   9.036
 4097SOL    HW112623   3.707   1.184   9.023
 4097SOL    HW212624   3.624   1.319   9.060
 4098SOL     OW12625   2.926   1.347   8.788
 4098SOL    HW112626   2.846   1.324   8.843
 4098SOL    HW212627   3.009   1.321   8.837
 4099SOL     OW12628   3.454   1.629   9.073
 4099SOL    HW112629   3.481   1.663   8.983
 4099SOL    HW212630   3.533   1.591   9.119
 4100SOL     OW12631   2.973   1.195   8.548
 4100SOL    HW112632   2.933   1.239   8.629
 4100SOL    HW212633   2.932   1.232   8.465
 4101SOL     OW12634   3.500   1.099   8.527
 4101SOL    HW112635   3.505   1.180   8.586
 4101SOL    HW212636   3.414   1.101   8.476
 4102SOL     OW12637   2.777   0.089   8.850
 4102SOL    HW112638   2.802   0.069   8.755
 4102SOL    HW212639   2.849   0.145   8.892
 4103SOL     OW12640   2.842   1.116   9.167
 4103SOL    HW112641   2.743   1.122   9.177
 4103SOL    HW212642   2.865   1.036   9.111
 4104SOL     OW12643   2.567   1.050   7.816
 4104SOL    HW112644   2.553   1.057   7.915
 4104SOL    HW212645   2.651   0.999   7.798
 4105SOL     OW12646   2.272   0.813   8.699
 4105SOL    HW112647   2.358   0.825   8.749
 4105SOL    HW212648   2.230   0.726   8.726
 4106SOL     OW12649   3.136   0.386   8.710
 4106SOL    HW112650   3.157   0.460   8.774
 4106SOL    HW212651   3.047   0.403   8.667
 4107SOL     OW12652   1.926   1.564   8.779
 4107SOL    HW112653   1.880   1.646   8.745
 4107SOL    HW212654   2.024   1.583   8.788
 4108SOL     OW12655   2.229   1.100   7.949
 4108SOL    HW112656   2.222   1.183   7.893
 4108SOL    HW212657   2.233   1.020   7.889
 4109SOL     OW12658   2.428   0.537   8.313
 4109SOL    HW112659   2.440   0.603   8.239
 4109SOL    HW212660   2.474   0.571   8.396
 4110SOL     OW12661   3.114   1.348   7.836
 4110SOL    HW112662   3.164   1.425   7.876
 4110SOL    HW212663   3.019   1.350   7.868
 4111SOL     OW12664   3.134   1.445   8.590
 4111SOL    HW112665   3.181   1.458   8.677
 4111SOL    HW212666   3.068   1.371   8.599
 4112SOL     OW12667   3.444   0.639   7.920
 4112SOL    HW112668   3.413   0.700   7.993
 4112SOL    HW212669   3.494   0.691   7.851
 4113SOL     OW12670   2.216   1.510   8.777
 4113SOL    HW112671   2.195   1.466   8.690
 4113SOL    HW212672   2.313   1.536   8.780
 4114SOL     OW12673   2.264   0.751   9.046
 4114SOL    HW112674   2.332   0.806   8.999
 4114SOL    HW212675   2.304   0.663   9.073
 4115SOL     OW12676   3.449   0.779   9.118
 4115SOL    HW112677   3.357   0.817   9.113
 4115SOL    HW212678   3.509   0.826   9.053
 4116SOL     OW12679   2.875   0.105   9.218
 4116SOL    HW112680   2.881   0.190   9.166
 4116SOL    HW212681   2.907   0.029   9.161
 4117SOL     OW12682   2.366   0.050   9.188
 4117SOL    HW112683   2.324  -0.007   9.118
 4117SOL    HW212684   2.300   0.119   9.220
 4118SOL     OW12685   2.435   0.870   8.477
 4118SOL    HW112686   2.479   0.959   8.468
 4118SOL    HW212687   2.372   0.870   8.554
 4119SOL     OW12688   3.222   0.862   8.493
 4119SOL    HW112689   3.147   0.862   8.427
 4119SOL    HW212690   3.259   0.770   8.502
 4120SOL     OW12691   3.071   0.525   7.723
 4120SOL    HW112692   3.084   0.441   7.777
 4120SOL    HW212693   3.042   0.599   7.783
 4121SOL     OW12694   2.169   0.213   8.679
 4121SOL    HW112695   2.146   0.250   8.769
 4121SOL    HW212696   2.139   0.118   8.673
 4122SOL     OW12697   1.899   1.310   8.730
 4122SOL    HW112698   1.952   1.261   8.798
 4122SOL    HW212699   1.921   1.408   8.735
 4123SOL     OW12700   2.594   0.634   8.512
 4123SOL    HW112701   2.653   0.608   8.436
 4123SOL    HW212702   2.566   0.730   8.501
 4124SOL     OW12703   3.590   0.935   9.302
 4124SOL    HW112704   3.544   0.928   9.213
 4124SOL    HW212705   3.528   0.979   9.368
 4125SOL     OW12706   2.169   0.063   8.066
 4125SOL    HW112707   2.158   0.157   8.099
 4125SOL    HW212708   2.164   0.000   8.143
 4126SOL     OW12709   3.484   0.367   7.822
 4126SOL    HW112710   3.486   0.291   7.886
 4126SOL    HW212711   3.436   0.444   7.862
 4127SOL     OW12712   2.885   0.766   8.414
 4127SOL    HW112713   2.900   0.787   8.510
 4127SOL    HW212714   2.855   0.671   8.405
 4128SOL     OW12715   2.842   1.573   9.148
 4128SOL    HW112716   2.822   1.617   9.060
 4128SOL    HW212717   2.881   1.482   9.132
 4129SOL     OW12718   3.721   1.518   9.053
 4129SOL    HW112719   3.735   1.545   8.958
 4129SOL    HW212720   3.804   1.540   9.106
 4130SOL     OW12721   2.212   0.898   9.252
 4130SOL    HW112722   2.288   0.942   9.300
 4130SOL    HW212723   2.247   0.851   9.170
 4131SOL     OW12724   3.402   0.274   7.573
 4131SOL    HW112725   3.341   0.199   7.596
 4131SOL    HW212726   3.424   0.326   7.656
 4132SOL     OW12727   3.165   0.838   7.490
 4132SOL    HW112728   3.199   0.745   7.505
 4132SOL    HW212729   3.183   0.865   7.395
 4133SOL     OW12730   2.930   1.333   8.297
 4133SOL    HW112731   2.937   1.249   8.242
 4133SOL    HW212732   2.992   1.402   8.261
 4134SOL     OW12733   2.181   0.810   8.397
 4134SOL    HW112734   2.274   0.846   8.402
 4134SOL    HW212735   2.175   0.725   8.449
 4135SOL     OW12736   2.201   0.509   8.454
 4135SOL    HW112737   2.149   0.426   8.437
 4135SOL    HW212738   2.278   0.514   8.390
 4136SOL     OW12739   3.000   0.380   9.126
 4136SOL    HW112740   2.955   0.443   9.190
 4136SOL    HW212741   3.093   0.411   9.109
 4137SOL     OW12742   3.022   0.207   8.925
 4137SOL    HW112743   3.022   0.271   9.002
 4137SOL    HW212744   3.050   0.255   8.842
 4138SOL     OW12745   1.870   1.326   7.648
 4138SOL    HW112746   1.777   1.347   7.617
 4138SOL    HW212747   1.880   1.227   7.661
 4139SOL     OW12748   1.950   1.801   8.375
 4139SOL    HW112749   1.908   1.715   8.348
 4139SOL    HW212750   2.044   1.804   8.341
 4140SOL     OW12751   2.366   1.568   8.358
 4140SOL    HW112752   2.432   1.642   8.367
 4140SOL    HW212753   2.410   1.489   8.316
 4141SOL     OW12754   2.864   0.796   8.686
 4141SOL    HW112755   2.905   0.764   8.772
 4141SOL    HW212756   2.768   0.769   8.683
 4142SOL     OW12757   1.902   0.544   8.562
 4142SOL    HW112758   1.987   0.511   8.521
 4142SOL    HW212759   1.915   0.559   8.660
 4143SOL     OW12760   2.051   0.520   9.170
 4143SOL    HW112761   2.110   0.480   9.100
 4143SOL    HW212762   1.993   0.591   9.129
 4144SOL     OW12763   3.231   0.950   9.108
 4144SOL    HW112764   3.270   1.039   9.128
 4144SOL    HW212765   3.241   0.930   9.011
 4145SOL     OW12766   2.677   0.572   7.773
 4145SOL    HW112767   2.684   0.483   7.727
 4145SOL    HW212768   2.583   0.606   7.765
 4146SOL     OW12769   3.519   0.604   8.654
 4146SOL    HW112770   3.481   0.535   8.716
 4146SOL    HW212771   3.601   0.568   8.610
 4147SOL     OW12772   2.114   1.564   9.192
 4147SOL    HW112773   2.084   1.621   9.268
 4147SOL    HW212774   2.107   1.467   9.218
 4148SOL     OW12775   2.533   0.464   8.717
 4148SOL    HW112776   2.499   0.375   8.687
 4148SOL    HW212777   2.559   0.518   8.637
 4149SOL     OW12778   2.792   1.678   8.913
 4149SOL    HW112779   2.768   1.660   8.818
 4149SOL    HW212780   2.822   1.772   8.923
 4150SOL     OW12781   2.335   0.500   7.639
 4150SOL    HW112782   2.396   0.580   7.643
 4150SOL    HW212783   2.240   0.531   7.646
 4151SOL     OW12784   2.021   1.137   8.914
 4151SOL    HW112785   2.043   1.076   8.990
 4151SOL    HW212786   2.031   1.088   8.828
 4152SOL     OW12787   3.209   1.059   8.682
 4152SOL    HW112788   3.233   0.996   8.608
 4152SOL    HW212789   3.119   1.099   8.664
 4153SOL     OW12790   3.164   0.855   7.757
 4153SOL    HW112791   3.078   0.824   7.799
 4153SOL    HW212792   3.160   0.841   7.658
 4154SOL     OW12793   3.621   1.747   8.602
 4154SOL    HW112794   3.682   1.777   8.529
 4154SOL    HW212795   3.583   1.658   8.580
 4155SOL     OW12796   3.114   1.731   8.576
 4155SOL    HW112797   3.198   1.736   8.522
 4155SOL    HW212798   3.091   1.635   8.594
 4156SOL     OW12799   1.945   1.258   8.470
 4156SOL    HW112800   1.940   1.257   8.570
 4156SOL    HW212801   1.862   1.217   8.432
 4157SOL     OW12802   2.550   1.662   9.164
 4157SOL    HW112803   2.494   1.743   9.173
 4157SOL    HW212804   2.602   1.666   9.078
 4158SOL     OW12805   3.588   0.135   7.971
 4158SOL    HW112806   3.661   0.118   7.904
 4158SOL    HW212807   3.557   0.048   8.009
 4159SOL     OW12808   3.250   1.573   7.925
 4159SOL    HW112809   3.317   1.585   7.851
 4159SOL    HW212810   3.210   1.662   7.948
 4160SOL     OW12811   1.992   1.794   9.299
 4160SOL    HW112812   1.951   1.720   9.352
 4160SOL    HW212813   2.056   1.845   9.357
 4161SOL     OW12814   3.142   0.927   8.120
 4161SOL    HW112815   3.202   0.846   8.122
 4161SOL    HW212816   3.182   0.996   8.060
 4162SOL     OW12817   2.692   1.273   8.870
 4162SOL    HW112818   2.687   1.306   8.965
 4162SOL    HW212819   2.606   1.292   8.824
 4163SOL     OW12820   2.534   1.616   7.602
 4163SOL    HW112821   2.543   1.626   7.503
 4163SOL    HW212822   2.494   1.527   7.623
 4164SOL     OW12823   3.512   1.720   8.842
 4164SOL    HW112824   3.565   1.730   8.758
 4164SOL    HW212825   3.485   1.810   8.876
 4165SOL     OW12826   3.703   0.175   8.411
 4165SOL    HW112827   3.742   0.090   8.375
 4165SOL    HW212828   3.605   0.177   8.392
 4166SOL     OW12829   2.125   0.326   8.168
 4166SOL    HW112830   2.046   0.377   8.134
 4166SOL    HW212831   2.116   0.311   8.266
 4167SOL     OW12832   3.056   1.612   7.479
 4167SOL    HW112833   3.062   1.519   7.516
 4167SOL    HW212834   2.997   1.612   7.399
 4168SOL     OW12835   2.684   1.002   8.820
 4168SOL    HW112836   2.724   1.001   8.728
 4168SOL    HW212837   2.694   1.094   8.860
 4169SOL     OW12838   2.778   0.910   7.739
 4169SOL    HW112839   2.841   0.948   7.671
 4169SOL    HW212840   2.818   0.827   7.778
 4170SOL     OW12841   3.366   1.607   7.492
 4170SOL    HW112842   3.274   1.644   7.499
 4170SOL    HW212843   3.404   1.627   7.402
 4171SOL     OW12844   2.234   1.288   8.938
 4171SOL    HW112845   2.221   1.381   8.904
 4171SOL    HW212846   2.150   1.236   8.925
 4172SOL     OW12847   3.476   1.292   8.737
 4172SOL    HW112848   3.536   1.295   8.817
 4172SOL    HW212849   3.401   1.356   8.750
 4173SOL     OW12850   2.901   1.098   8.144
 4173SOL    HW112851   2.831   1.051   8.198
 4173SOL    HW212852   2.960   1.030   8.101
 4174SOL     OW12853   2.876   0.236   8.419
 4174SOL    HW112854   2.868   0.200   8.326
 4174SOL    HW212855   2.874   0.160   8.484
 4175SOL     OW12856   2.452   1.487   7.939
 4175SOL    HW112857   2.494   1.429   7.869
 4175SOL    HW212858   2.408   1.566   7.895
 4176SOL     OW12859   3.571   0.385   8.829
 4176SOL    HW112860   3.644   0.454   8.833
 4176SOL    HW212861   3.599   0.310   8.770
 4177SOL     OW12862   2.117   1.348   7.738
 4177SOL    HW112863   2.021   1.349   7.711
 4177SOL    HW212864   2.129   1.401   7.822
 4178SOL     OW12865   1.967   1.013   9.174
 4178SOL    HW112866   1.890   0.980   9.228
 4178SOL    HW212867   2.052   0.983   9.216
 4179SOL     OW12868   2.534   0.203   8.937
 4179SOL    HW112869   2.624   0.187   8.897
 4179SOL    HW212870   2.542   0.208   9.036
 4180SOL     OW12871   1.937   0.345   7.481
 4180SOL    HW112872   1.845   0.317   7.452
 4180SOL    HW212873   1.968   0.422   7.425
 4181SOL     OW12874   3.302   0.856   8.846
 4181SOL    HW112875   3.245   0.908   8.783
 4181SOL    HW212876   3.398   0.868   8.822
 4182SOL     OW12877   1.934   0.166   7.766
 4182SOL    HW112878   1.917   0.249   7.712
 4182SOL    HW212879   2.024   0.129   7.744
 4183SOL     OW12880   3.045   1.335   7.567
 4183SOL    HW112881   2.946   1.324   7.569
 4183SOL    HW212882   3.079   1.350   7.660
 4184SOL     OW12883   2.475   0.842   8.879
 4184SOL    HW112884   2.531   0.923   8.862
 4184SOL    HW212885   2.534   0.762   8.882
 4185SOL     OW12886   3.355   1.767   8.407
 4185SOL    HW112887   3.388   1.831   8.338
 4185SOL    HW212888   3.421   1.761   8.482
 4186SOL     OW12889   2.578   0.565   9.156
 4186SOL    HW112890   2.597   0.630   9.230
 4186SOL    HW212891   2.638   0.485   9.165
 4187SOL     OW12892   3.312   1.220   9.081
 4187SOL    HW112893   3.303   1.210   9.180
 4187SOL    HW212894   3.408   1.213   9.055
 4188SOL     OW12895   2.252   1.741   9.008
 4188SOL    HW112896   2.161   1.782   9.006
 4188SOL    HW212897   2.245   1.647   9.040
 4189SOL     OW12898   3.536   0.883   8.702
 4189SOL    HW112899   3.509   0.794   8.665
 4189SOL    HW212900   3.537   0.951   8.629
 4190SOL     OW12901   3.087   0.325   7.897
 4190SOL    HW112902   3.152   0.251   7.886
 4190SOL    HW212903   3.107   0.375   7.981
 4191SOL     OW12904   2.456   0.745   8.100
 4191SOL    HW112905   2.506   0.830   8.081
 4191SOL    HW212906   2.368   0.747   8.052
 4192SOL     OW12907   3.639   0.342   9.090
 4192SOL    HW112908   3.622   0.373   8.996
 4192SOL    HW212909   3.555   0.305   9.128
 4193SOL     OW12910   3.592   0.934   8.965
 4193SOL    HW112911   3.630   1.025   8.980
 4193SOL    HW212912   3.584   0.917   8.866
 4194SOL     OW12913   2.721   1.374   7.464
 4194SOL    HW112914   2.675   1.389   7.552
 4194SOL    HW212915   2.765   1.459   7.434
 4195SOL     OW12916   2.523   1.790   8.401
 4195SOL    HW112917   2.477   1.878   8.388
 4195SOL    HW212918   2.622   1.802   8.394
 4196SOL     OW12919   2.721   0.956   8.309
 4196SOL    HW112920   2.775   0.887   8.357
 4196SOL    HW212921   2.689   1.025   8.375
 4197SOL     OW12922   2.945   0.984   7.535
 4197SOL    HW112923   2.922   1.037   7.453
 4197SOL    HW212924   3.026   0.928   7.516
 4198SOL     OW12925   3.723   1.569   8.299
 4198SOL    HW112926   3.652   1.557   8.229
 4198SOL    HW212927   3.724   1.490   8.359
 4199SOL     OW12928   2.083   1.314   9.292
 4199SOL    HW112929   2.018   1.241   9.271
 4199SOL    HW212930   2.087   1.328   9.390
 4200SOL     OW12931   1.941   1.240   8.101
 4200SOL    HW112932   1.940   1.193   8.189
 4200SOL    HW212933   2.023   1.212   8.050
 4201SOL     OW12934   2.534   1.391   9.072
 4201SOL    HW112935   2.456   1.341   9.110
 4201SOL    HW212936   2.531   1.486   9.103
 4202SOL     OW12937   3.686   0.192   8.675
 4202SOL    HW112938   3.682   0.102   8.719
 4202SOL    HW212939   3.689   0.181   8.576
 4203SOL     OW12940   2.290   0.424   7.968
 4203SOL    HW112941   2.320   0.352   7.906
 4203SOL    HW212942   2.251   0.384   8.051
 4204SOL     OW12943   3.567   1.487   8.552
 4204SOL    HW112944   3.474   1.462   8.525
 4204SOL    HW212945   3.593   1.437   8.634
 4205SOL     OW12946   2.179   0.547   8.728
 4205SOL    HW112947   2.217   0.488   8.800
 4205SOL    HW212948   2.219   0.521   8.640
 4206SOL     OW12949   2.674   1.586   8.135
 4206SOL    HW112950   2.706   1.596   8.041
 4206SOL    HW212951   2.595   1.524   8.137
 4207SOL     OW12952   3.286   0.214   8.560
 4207SOL    HW112953   3.338   0.149   8.615
 4207SOL    HW212954   3.237   0.277   8.621
 4208SOL     OW12955   2.863   0.034   8.602
 4208SOL    HW112956   2.800  -0.038   8.571
 4208SOL    HW212957   2.956  -0.002   8.602
 4209SOL     OW12958   2.632   1.330   7.749
 4209SOL    HW112959   2.586   1.243   7.766
 4209SOL    HW212960   2.723   1.327   7.790
 4210SOL     OW12961   2.480   1.567   8.732
 4210SOL    HW112962   2.475   1.649   8.789
 4210SOL    HW212963   2.569   1.564   8.687
 4211SOL     OW12964   3.214   0.052   7.616
 4211SOL    HW112965   3.249   0.011   7.532
 4211SOL    HW212966   3.124   0.014   7.636
 4212SOL     OW12967   3.162   0.453   8.139
 4212SOL    HW112968   3.103   0.533   8.143
 4212SOL    HW212969   3.177   0.418   8.232
 4213SOL     OW12970   3.455   0.221   8.330
 4213SOL    HW112971   3.371   0.220   8.384
 4213SOL    HW212972   3.457   0.304   8.274
 4214SOL     OW12973   1.901   1.077   7.748
 4214SOL    HW112974   2.000   1.066   7.739
 4214SOL    HW212975   1.861   0.991   7.780
 4215SOL     OW12976   2.737   1.646   7.785
 4215SOL    HW112977   2.660   1.611   7.731
 4215SOL    HW212978   2.705   1.717   7.847
 4216SOL     OW12979   2.092   0.628   9.423
 4216SOL    HW112980   1.999   0.626   9.460
 4216SOL    HW212981   2.093   0.589   9.331
 4217SOL     OW12982   2.087   0.275  10.306
 4217SOL    HW112983   2.122   0.258  10.398
 4217SOL    HW212984   1.999   0.230  10.294
 4218SOL     OW12985   1.881   0.368   9.957
 4218SOL    HW112986   1.799   0.411   9.996
 4218SOL    HW212987   1.853   0.295   9.894
 4219SOL     OW12988   2.431   1.275  10.475
 4219SOL    HW112989   2.338   1.268  10.438
 4219SOL    HW212990   2.442   1.364  10.519
 4220SOL     OW12991   3.417   1.511  10.013
 4220SOL    HW112992   3.360   1.495  10.094
 4220SOL    HW212993   3.358   1.521   9.933
 4221SOL     OW12994   2.997   0.703  10.027
 4221SOL    HW112995   3.054   0.781  10.002
 4221SOL    HW212996   2.937   0.729  10.103
 4222SOL     OW12997   3.617   0.607   9.541
 4222SOL    HW112998   3.605   0.594   9.442
 4222SOL    HW212999   3.587   0.526   9.590
 4223SOL     OW13000   2.630   1.144  10.333
 4223SOL    HW113001   2.552   1.161  10.393
 4223SOL    HW213002   2.664   1.231  10.297
 4224SOL     OW13003   2.712   0.798  11.133
 4224SOL    HW113004   2.708   0.874  11.198
 4224SOL    HW213005   2.734   0.834  11.042
 4225SOL     OW13006   2.547   1.012   9.975
 4225SOL    HW113007   2.616   0.996  10.045
 4225SOL    HW213008   2.474   1.069  10.013
 4226SOL     OW13009   2.548   1.161  11.113
 4226SOL    HW113010   2.608   1.240  11.127
 4226SOL    HW213011   2.462   1.192  11.072
 4227SOL     OW13012   2.197   1.435  10.371
 4227SOL    HW113013   2.119   1.404  10.318
 4227SOL    HW213014   2.255   1.493  10.314
 4228SOL     OW13015   3.322   1.505  10.649
 4228SOL    HW113016   3.346   1.599  10.675
 4228SOL    HW213017   3.306   1.451  10.731
 4229SOL     OW13018   2.300   0.392  10.809
 4229SOL    HW113019   2.382   0.336  10.818
 4229SOL    HW213020   2.219   0.334  10.813
 4230SOL     OW13021   3.465   0.447  10.047
 4230SOL    HW113022   3.391   0.493   9.997
 4230SOL    HW213023   3.516   0.515  10.100
 4231SOL     OW13024   2.093   1.713   9.793
 4231SOL    HW113025   2.127   1.790   9.847
 4231SOL    HW213026   2.137   1.713   9.703
 4232SOL     OW13027   2.989   1.341  11.000
 4232SOL    HW113028   3.036   1.341  11.088
 4232SOL    HW213029   2.941   1.254  10.989
 4233SOL     OW13030   2.092   1.434   9.848
 4233SOL    HW113031   2.066   1.530   9.848
 4233SOL    HW213032   2.021   1.380   9.893
 4234SOL     OW13033   2.102   1.091  10.196
 4234SOL    HW113034   2.116   1.007  10.248
 4234SOL    HW213035   2.047   1.155  10.251
 4235SOL     OW13036   2.482   1.786  10.749
 4235SOL    HW113037   2.390   1.769  10.784
 4235SOL    HW213038   2.510   1.878  10.775
 4236SOL     OW13039   2.468   0.964   9.433
 4236SOL    HW113040   2.475   1.048   9.379
 4236SOL    HW213041   2.514   0.977   9.521
 4237SOL     OW13042   3.456   0.114  10.790
 4237SOL    HW113043   3.438   0.181  10.718
 4237SOL    HW213044   3.453   0.160  10.879
 4238SOL     OW13045   1.984   0.643   9.873
 4238SOL    HW113046   1.939   0.555   9.890
 4238SOL    HW213047   1.983   0.697   9.957
 4239SOL     OW13048   3.704   1.767   9.669
 4239SOL    HW113049   3.758   1.738   9.749
 4239SOL    HW213050   3.734   1.857   9.640
 4240SOL     OW13051   1.889   1.596   9.427
 4240SOL    HW113052   1.870   1.500   9.448
 4240SOL    HW213053   1.856   1.654   9.502
 4241SOL     OW13054   3.551   0.922   9.922
 4241SOL    HW113055   3.646   0.893   9.930
 4241SOL    HW213056   3.543   0.987   9.847
 4242SOL     OW13057   3.503   1.108   9.742
 4242SOL    HW113058   3.589   1.110   9.690
 4242SOL    HW213059   3.517   1.155   9.830
 4243SOL     OW13060   1.975   0.737  10.907
 4243SOL    HW113061   2.063   0.724  10.952
 4243SOL    HW213062   1.962   0.834  10.885
 4244SOL     OW13063   2.475   1.365  10.036
 4244SOL    HW113064   2.426   1.278  10.045
 4244SOL    HW213065   2.452   1.408   9.949
 4245SOL     OW13066   3.155   1.228  10.733
 4245SOL    HW113067   3.192   1.155  10.675
 4245SOL    HW213068   3.207   1.233  10.818
 4246SOL     OW13069   2.671   0.004   9.812
 4246SOL    HW113070   2.711   0.095   9.803
 4246SOL    HW213071   2.571   0.012   9.818
 4247SOL     OW13072   2.059   0.976  10.574
 4247SOL    HW113073   2.148   0.931  10.560
 4247SOL    HW213074   1.986   0.911  10.555
 4248SOL     OW13075   3.387   0.999   9.500
 4248SOL    HW113076   3.324   0.923   9.513
 4248SOL    HW213077   3.435   1.017   9.586
 4249SOL     OW13078   3.049   1.792  10.926
 4249SOL    HW113079   3.073   1.852  10.850
 4249SOL    HW213080   3.056   1.697  10.896
 4250SOL     OW13081   2.179   0.251  11.111
 4250SOL    HW113082   2.250   0.322  11.117
 4250SOL    HW213083   2.091   0.290  11.139
 4251SOL     OW13084   3.328   1.417  10.263
 4251SOL    HW113085   3.269   1.423  10.343
 4251SOL    HW213086   3.313   1.329  10.217
 4252SOL     OW13087   3.529   1.714   9.882
 4252SOL    HW113088   3.488   1.691   9.794
 4252SOL    HW213089   3.511   1.640   9.947
 4253SOL     OW13090   2.460   0.729   9.580
 4253SOL    HW113091   2.484   0.798   9.512
 4253SOL    HW213092   2.382   0.762   9.634
 4254SOL     OW13093   3.143   0.345  10.254
 4254SOL    HW113094   3.057   0.295  10.241
 4254SOL    HW213095   3.205   0.291  10.310
 4255SOL     OW13096   3.438   1.662   9.617
 4255SOL    HW113097   3.527   1.708   9.620
 4255SOL    HW213098   3.417   1.638   9.522
 4256SOL     OW13099   2.669   0.605  10.775
 4256SOL    HW113100   2.622   0.602  10.864
 4256SOL    HW213101   2.618   0.550  10.709
 4257SOL     OW13102   3.256   0.469  10.984
 4257SOL    HW113103   3.236   0.512  11.072
 4257SOL    HW213104   3.334   0.407  10.993
 4258SOL     OW13105   2.835   0.890  10.882
 4258SOL    HW113106   2.881   0.806  10.853
 4258SOL    HW213107   2.779   0.924  10.807
 4259SOL     OW13108   2.853   0.410  10.552
 4259SOL    HW113109   2.776   0.444  10.606
 4259SOL    HW213110   2.819   0.359  10.473
 4260SOL     OW13111   2.903   0.701   9.739
 4260SOL    HW113112   2.929   0.697   9.835
 4260SOL    HW213113   2.818   0.650   9.725
 4261SOL     OW13114   1.938   0.811  10.099
 4261SOL    HW113115   2.037   0.799  10.108
 4261SOL    HW213116   1.914   0.906  10.120
 4262SOL     OW13117   1.992   1.821  10.881
 4262SOL    HW113118   1.982   1.806  10.980
 4262SOL    HW213119   1.906   1.857  10.845
 4263SOL     OW13120   2.727   0.348   9.505
 4263SOL    HW113121   2.786   0.411   9.456
 4263SOL    HW213122   2.746   0.254   9.476
 4264SOL     OW13123   3.581   0.585  11.141
 4264SOL    HW113124   3.555   0.674  11.105
 4264SOL    HW213125   3.579   0.517  11.068
 4265SOL     OW13126   3.224   1.144   9.855
 4265SOL    HW113127   3.307   1.115   9.807
 4265SOL    HW213128   3.175   1.211   9.799
 4266SOL     OW13129   2.412   0.196  10.195
 4266SOL    HW113130   2.407   0.191  10.295
 4266SOL    HW213131   2.414   0.292  10.166
 4267SOL     OW13132   2.870   1.456   9.787
 4267SOL    HW113133   2.824   1.528   9.735
 4267SOL    HW213134   2.866   1.476   9.885
 4268SOL     OW13135   2.213   1.801  10.163
 4268SOL    HW113136   2.263   1.715  10.169
 4268SOL    HW213137   2.278   1.878  10.160
 4269SOL     OW13138   3.657   1.066  10.183
 4269SOL    HW113139   3.595   1.051  10.107
 4269SOL    HW213140   3.605   1.077  10.268
 4270SOL     OW13141   3.089   1.550  10.816
 4270SOL    HW113142   3.095   1.473  10.880
 4270SOL    HW213143   3.037   1.524  10.736
 4271SOL     OW13144   2.183   0.943   9.552
 4271SOL    HW113145   2.265   0.982   9.510
 4271SOL    HW213146   2.156   0.861   9.503
 4272SOL     OW13147   3.320   0.735  10.038
 4272SOL    HW113148   3.315   0.670  10.113
 4272SOL    HW213149   3.400   0.794  10.051
 4273SOL     OW13150   2.323   1.266  11.037
 4273SOL    HW113151   2.273   1.267  10.951
 4273SOL    HW213152   2.260   1.248  11.113
 4274SOL     OW13153   2.973   1.776   9.547
 4274SOL    HW113154   2.913   1.714   9.597
 4274SOL    HW213155   3.004   1.732   9.462
 4275SOL     OW13156   2.064   0.285  10.808
 4275SOL    HW113157   1.984   0.345  10.795
 4275SOL    HW213158   2.054   0.236  10.894
 4276SOL     OW13159   3.494   1.377   9.391
 4276SOL    HW113160   3.462   1.471   9.381
 4276SOL    HW213161   3.418   1.314   9.379
 4277SOL     OW13162   2.326   1.743   9.633
 4277SOL    HW113163   2.359   1.782   9.719
 4277SOL    HW213164   2.402   1.736   9.568
 4278SOL     OW13165   3.262   0.107   9.736
 4278SOL    HW113166   3.238   0.070   9.646
 4278SOL    HW213167   3.361   0.123   9.740
 4279SOL     OW13168   2.111   1.785  10.551
 4279SOL    HW113169   2.168   1.720  10.601
 4279SOL    HW213170   2.095   1.752  10.458
 4280SOL     OW13171   2.802   1.698  10.214
 4280SOL    HW113172   2.882   1.641  10.235
 4280SOL    HW213173   2.753   1.658  10.137
 4281SOL     OW13174   2.244   0.700   9.790
 4281SOL    HW113175   2.289   0.610   9.787
 4281SOL    HW213176   2.150   0.689   9.823
 4282SOL     OW13177   3.409   0.222  11.039
 4282SOL    HW113178   3.404   0.259  11.131
 4282SOL    HW213179   3.337   0.153  11.027
 4283SOL     OW13180   2.476   0.122   9.427
 4283SOL    HW113181   2.574   0.100   9.434
 4283SOL    HW213182   2.445   0.105   9.334
 4284SOL     OW13183   2.643   0.264  11.059
 4284SOL    HW113184   2.710   0.203  11.102
 4284SOL    HW213185   2.570   0.283  11.124
 4285SOL     OW13186   2.750   1.514  10.505
 4285SOL    HW113187   2.727   1.489  10.411
 4285SOL    HW213188   2.811   1.445  10.544
 4286SOL     OW13189   3.213   0.590  10.743
 4286SOL    HW113190   3.241   0.547  10.828
 4286SOL    HW213191   3.238   0.686  10.744
 4287SOL     OW13192   2.665   1.402  10.234
 4287SOL    HW113193   2.755   1.416  10.192
 4287SOL    HW213194   2.594   1.404  10.163
 4288SOL     OW13195   2.784   0.503  10.209
 4288SOL    HW113196   2.759   0.494  10.113
 4288SOL    HW213197   2.832   0.421  10.240
 4289SOL     OW13198   2.401   0.064   9.822
 4289SOL    HW113199   2.320   0.065   9.880
 4289SOL    HW213200   2.404   0.147   9.767
 4290SOL     OW13201   3.296   1.188   9.351
 4290SOL    HW113202   3.328   1.112   9.408
 4290SOL    HW213203   3.204   1.215   9.381
 4291SOL     OW13204   2.159   0.035   9.481
 4291SOL    HW113205   2.208   0.119   9.460
 4291SOL    HW213206   2.221  -0.030   9.526
 4292SOL     OW13207   2.797   0.236   9.790
 4292SOL    HW113208   2.749   0.277   9.712
 4292SOL    HW213209   2.896   0.234   9.771
 4293SOL     OW13210   2.938   0.683  10.774
 4293SOL    HW113211   2.858   0.622  10.777
 4293SOL    HW213212   3.019   0.630  10.750
 4294SOL     OW13213   3.089   1.570  10.103
 4294SOL    HW113214   3.110   1.644  10.038
 4294SOL    HW213215   3.157   1.570  10.176
 4295SOL     OW13216   2.321   1.152  10.051
 4295SOL    HW113217   2.250   1.125  10.116
 4295SOL    HW213218   2.295   1.124   9.958
 4296SOL     OW13219   3.133   1.797   9.901
 4296SOL    HW113220   3.177   1.861   9.837
 4296SOL    HW213221   3.083   1.849   9.971
 4297SOL     OW13222   2.894   0.549   9.326
 4297SOL    HW113223   2.853   0.631   9.287
 4297SOL    HW213224   2.958   0.575   9.399
 4298SOL     OW13225   1.940   0.556  10.696
 4298SOL    HW113226   2.032   0.555  10.655
 4298SOL    HW213227   1.934   0.630  10.763
 4299SOL     OW13228   2.423   0.222  10.457
 4299SOL    HW113229   2.461   0.138  10.494
 4299SOL    HW213230   2.335   0.241  10.501
 4300SOL     OW13231   2.728   0.454   9.952
 4300SOL    HW113232   2.696   0.526   9.890
 4300SOL    HW213233   2.752   0.373   9.899
 4301SOL     OW13234   2.879   0.039  10.063
 4301SOL    HW113235   2.807   0.044   9.994
 4301SOL    HW213236   2.855  -0.030  10.132
 4302SOL     OW13237   3.291   1.173  10.177
 4302SOL    HW113238   3.236   1.089  10.170
 4302SOL    HW213239   3.317   1.202  10.085
 4303SOL     OW13240   3.328   0.590  10.302
 4303SOL    HW113241   3.298   0.495  10.309
 4303SOL    HW213242   3.401   0.606  10.368
 4304SOL     OW13243   3.719   0.833   9.687
 4304SOL    HW113244   3.761   0.769   9.751
 4304SOL    HW213245   3.681   0.782   9.609
 4305SOL     OW13246   2.350   1.385   9.484
 4305SOL    HW113247   2.263   1.370   9.531
 4305SOL    HW213248   2.333   1.411   9.389
 4306SOL     OW13249   3.526   1.280   9.967
 4306SOL    HW113250   3.625   1.288   9.981
 4306SOL    HW213251   3.481   1.364   9.998
 4307SOL     OW13252   3.252   0.575   9.388
 4307SOL    HW113253   3.198   0.554   9.469
 4307SOL    HW213254   3.343   0.534   9.397
 4308SOL     OW13255   2.389   0.256   9.638
 4308SOL    HW113256   2.416   0.197   9.563
 4308SOL    HW213257   2.389   0.351   9.607
 4309SOL     OW13258   3.616   1.223  10.898
 4309SOL    HW113259   3.707   1.184  10.885
 4309SOL    HW213260   3.624   1.319  10.922
 4310SOL     OW13261   2.926   1.347  10.650
 4310SOL    HW113262   2.846   1.324  10.705
 4310SOL    HW213263   3.009   1.321  10.699
 4311SOL     OW13264   3.454   1.629  10.935
 4311SOL    HW113265   3.481   1.663  10.845
 4311SOL    HW213266   3.533   1.591  10.981
 4312SOL     OW13267   2.973   1.195  10.410
 4312SOL    HW113268   2.933   1.239  10.491
 4312SOL    HW213269   2.932   1.232  10.327
 4313SOL     OW13270   3.500   1.099  10.389
 4313SOL    HW113271   3.505   1.180  10.448
 4313SOL    HW213272   3.414   1.101  10.338
 4314SOL     OW13273   2.777   0.089  10.712
 4314SOL    HW113274   2.802   0.069  10.617
 4314SOL    HW213275   2.849   0.145  10.754
 4315SOL     OW13276   2.842   1.116  11.029
 4315SOL    HW113277   2.743   1.122  11.039
 4315SOL    HW213278   2.865   1.036  10.973
 4316SOL     OW13279   2.567   1.050   9.678
 4316SOL    HW113280   2.553   1.057   9.777
 4316SOL    HW213281   2.651   0.999   9.660
 4317SOL     OW13282   2.272   0.813  10.561
 4317SOL    HW113283   2.358   0.825  10.611
 4317SOL    HW213284   2.230   0.726  10.588
 4318SOL     OW13285   3.136   0.386  10.572
 4318SOL    HW113286   3.157   0.460  10.636
 4318SOL    HW213287   3.047   0.403  10.529
 4319SOL     OW13288   1.926   1.564  10.641
 4319SOL    HW113289   1.880   1.646  10.607
 4319SOL    HW213290   2.024   1.583  10.650
 4320SOL     OW13291   2.229   1.100   9.811
 4320SOL    HW113292   2.222   1.183   9.755
 4320SOL    HW213293   2.233   1.020   9.751
 4321SOL     OW13294   2.428   0.537  10.175
 4321SOL    HW113295   2.440   0.603  10.101
 4321SOL    HW213296   2.474   0.571  10.258
 4322SOL     OW13297   3.114   1.348   9.698
 4322SOL    HW113298   3.164   1.425   9.738
 4322SOL    HW213299   3.019   1.350   9.730
 4323SOL     OW13300   3.134   1.445  10.452
 4323SOL    HW113301   3.181   1.458  10.539
 4323SOL    HW213302   3.068   1.371  10.461
 4324SOL     OW13303   3.444   0.639   9.782
 4324SOL    HW113304   3.413   0.700   9.855
 4324SOL    HW213305   3.494   0.691   9.713
 4325SOL     OW13306   2.216   1.510  10.639
 4325SOL    HW113307   2.195   1.466  10.552
 4325SOL    HW213308   2.313   1.536  10.642
 4326SOL     OW13309   2.264   0.751  10.908
 4326SOL    HW113310   2.332   0.806  10.861
 4326SOL    HW213311   2.304   0.663  10.935
 4327SOL     OW13312   3.449   0.779  10.980
 4327SOL    HW113313   3.357   0.817  10.975
 4327SOL    HW213314   3.509   0.826  10.915
 4328SOL     OW13315   2.875   0.105  11.080
 4328SOL    HW113316   2.881   0.190  11.028
 4328SOL    HW213317   2.907   0.029  11.023
 4329SOL     OW13318   2.366   0.050  11.050
 4329SOL    HW113319   2.324  -0.007  10.980
 4329SOL    HW213320   2.300   0.119  11.082
 4330SOL     OW13321   2.435   0.870  10.339
 4330SOL    HW113322   2.479   0.959  10.330
 4330SOL    HW213323   2.372   0.870  10.416
 4331SOL     OW13324   3.222   0.862  10.355
 4331SOL    HW113325   3.147   0.862  10.289
 4331SOL    HW213326   3.259   0.770  10.364
 4332SOL     OW13327   3.071   0.525   9.585
 4332SOL    HW113328   3.084   0.441   9.639
 4332SOL    HW213329   3.042   0.599   9.645
 4333SOL     OW13330   2.169   0.213  10.541
 4333SOL    HW113331   2.146   0.250  10.631
 4333SOL    HW213332   2.139   0.118  10.535
 4334SOL     OW13333   1.899   1.310  10.592
 4334SOL    HW113334   1.952   1.261  10.660
 4334SOL    HW213335   1.921   1.408  10.597
 4335SOL     OW13336   2.594   0.634  10.374
 4335SOL    HW113337   2.653   0.608  10.298
 4335SOL    HW213338   2.566   0.730  10.363
 4336SOL     OW13339   3.590   0.935  11.164
 4336SOL    HW113340   3.544   0.928  11.075
 4336SOL    HW213341   3.528   0.979  11.230
 4337SOL     OW13342   2.169   0.063   9.928
 4337SOL    HW113343   2.158   0.157   9.961
 4337SOL    HW213344   2.164   0.000  10.005
 4338SOL     OW13345   3.484   0.367   9.684
 4338SOL    HW113346   3.486   0.291   9.748
 4338SOL    HW213347   3.436   0.444   9.724
 4339SOL     OW13348   2.885   0.766  10.276
 4339SOL    HW113349   2.900   0.787  10.372
 4339SOL    HW213350   2.855   0.671  10.267
 4340SOL     OW13351   2.842   1.573  11.010
 4340SOL    HW113352   2.822   1.617  10.922
 4340SOL    HW213353   2.881   1.482  10.994
 4341SOL     OW13354   3.721   1.518  10.915
 4341SOL    HW113355   3.735   1.545  10.820
 4341SOL    HW213356   3.804   1.540  10.968
 4342SOL     OW13357   2.212   0.898  11.114
 4342SOL    HW113358   2.288   0.942  11.162
 4342SOL    HW213359   2.247   0.851  11.032
 4343SOL     OW13360   3.402   0.274   9.435
 4343SOL    HW113361   3.341   0.199   9.458
 4343SOL    HW213362   3.424   0.326   9.518
 4344SOL     OW13363   3.165   0.838   9.352
 4344SOL    HW113364   3.199   0.745   9.367
 4344SOL    HW213365   3.183   0.865   9.257
 4345SOL     OW13366   2.930   1.333  10.159
 4345SOL    HW113367   2.937   1.249  10.104
 4345SOL    HW213368   2.992   1.402  10.123
 4346SOL     OW13369   2.181   0.810  10.259
 4346SOL    HW113370   2.274   0.846  10.264
 4346SOL    HW213371   2.175   0.725  10.311
 4347SOL     OW13372   2.201   0.509  10.316
 4347SOL    HW113373   2.149   0.426  10.299
 4347SOL    HW213374   2.278   0.514  10.252
 4348SOL     OW13375   3.000   0.380  10.988
 4348SOL    HW113376   2.955   0.443  11.052
 4348SOL    HW213377   3.093   0.411  10.971
 4349SOL     OW13378   3.022   0.207  10.787
 4349SOL    HW113379   3.022   0.271  10.864
 4349SOL    HW213380   3.050   0.255  10.704
 4350SOL     OW13381   1.870   1.326   9.510
 4350SOL    HW113382   1.777   1.347   9.479
 4350SOL    HW213383   1.880   1.227   9.523
 4351SOL     OW13384   1.950   1.801  10.237
 4351SOL    HW113385   1.908   1.715  10.210
 4351SOL    HW213386   2.044   1.804  10.203
 4352SOL     OW13387   2.366   1.568  10.220
 4352SOL    HW113388   2.432   1.642  10.229
 4352SOL    HW213389   2.410   1.489  10.178
 4353SOL     OW13390   2.864   0.796  10.548
 4353SOL    HW113391   2.905   0.764  10.634
 4353SOL    HW213392   2.768   0.769  10.545
 4354SOL     OW13393   1.902   0.544  10.424
 4354SOL    HW113394   1.987   0.511  10.383
 4354SOL    HW213395   1.915   0.559  10.522
 4355SOL     OW13396   2.051   0.520  11.032
 4355SOL    HW113397   2.110   0.480  10.962
 4355SOL    HW213398   1.993   0.591  10.991
 4356SOL     OW13399   3.231   0.950  10.970
 4356SOL    HW113400   3.270   1.039  10.990
 4356SOL    HW213401   3.241   0.930  10.873
 4357SOL     OW13402   2.677   0.572   9.635
 4357SOL    HW113403   2.684   0.483   9.589
 4357SOL    HW213404   2.583   0.606   9.627
 4358SOL     OW13405   3.519   0.604  10.516
 4358SOL    HW113406   3.481   0.535  10.578
 4358SOL    HW213407   3.601   0.568  10.472
 4359SOL     OW13408   2.114   1.564  11.054
 4359SOL    HW113409   2.084   1.621  11.130
 4359SOL    HW213410   2.107   1.467  11.080
 4360SOL     OW13411   2.533   0.464  10.579
 4360SOL    HW113412   2.499   0.375  10.549
 4360SOL    HW213413   2.559   0.518  10.499
 4361SOL     OW13414   2.792   1.678  10.775
 4361SOL    HW113415   2.768   1.660  10.680
 4361SOL    HW213416   2.822   1.772  10.785
 4362SOL     OW13417   2.335   0.500   9.501
 4362SOL    HW113418   2.396   0.580   9.505
 4362SOL    HW213419   2.240   0.531   9.508
 4363SOL     OW13420   2.021   1.137  10.776
 4363SOL    HW113421   2.043   1.076  10.852
 4363SOL    HW213422   2.031   1.088  10.690
 4364SOL     OW13423   3.209   1.059  10.544
 4364SOL    HW113424   3.233   0.996  10.470
 4364SOL    HW213425   3.119   1.099  10.526
 4365SOL     OW13426   3.164   0.855   9.619
 4365SOL    HW113427   3.078   0.824   9.661
 4365SOL    HW213428   3.160   0.841   9.520
 4366SOL     OW13429   3.621   1.747  10.464
 4366SOL    HW113430   3.682   1.777  10.391
 4366SOL    HW213431   3.583   1.658  10.442
 4367SOL     OW13432   3.114   1.731  10.438
 4367SOL    HW113433   3.198   1.736  10.384
 4367SOL    HW213434   3.091   1.635  10.456
 4368SOL     OW13435   1.945   1.258  10.332
 4368SOL    HW113436   1.940   1.257  10.432
 4368SOL    HW213437   1.862   1.217  10.294
 4369SOL     OW13438   2.550   1.662  11.026
 4369SOL    HW113439   2.494   1.743  11.035
 4369SOL    HW213440   2.602   1.666  10.940
 4370SOL     OW13441   3.588   0.135   9.833
 4370SOL    HW113442   3.661   0.118   9.766
 4370SOL    HW213443   3.557   0.048   9.871
 4371SOL     OW13444   3.250   1.573   9.787
 4371SOL    HW113445   3.317   1.585   9.713
 4371SOL    HW213446   3.210   1.662   9.810
 4372SOL     OW13447   1.992   1.794  11.161
 4372SOL    HW113448   1.951   1.720  11.214
 4372SOL    HW213449   2.056   1.845  11.219
 4373SOL     OW13450   3.142   0.927   9.982
 4373SOL    HW113451   3.202   0.846   9.984
 4373SOL    HW213452   3.182   0.996   9.922
 4374SOL     OW13453   2.692   1.273  10.732
 4374SOL    HW113454   2.687   1.306  10.827
 4374SOL    HW213455   2.606   1.292  10.686
 4375SOL     OW13456   2.534   1.616   9.464
 4375SOL    HW113457   2.543   1.626   9.365
 4375SOL    HW213458   2.494   1.527   9.485
 4376SOL     OW13459   3.512   1.720  10.704
 4376SOL    HW113460   3.565   1.730  10.620
 4376SOL    HW213461   3.485   1.810  10.738
 4377SOL     OW13462   3.703   0.175  10.273
 4377SOL    HW113463   3.742   0.090  10.237
 4377SOL    HW213464   3.605   0.177  10.254
 4378SOL     OW13465   2.125   0.326  10.030
 4378SOL    HW113466   2.046   0.377   9.996
 4378SOL    HW213467   2.116   0.311  10.128
 4379SOL     OW13468   3.056   1.612   9.341
 4379SOL    HW113469   3.062   1.519   9.378
 4379SOL    HW213470   2.997   1.612   9.261
 4380SOL     OW13471   2.684   1.002  10.682
 4380SOL    HW113472   2.724   1.001  10.590
 4380SOL    HW213473   2.694   1.094  10.722
 4381SOL     OW13474   2.778   0.910   9.601
 4381SOL    HW113475   2.841   0.948   9.533
 4381SOL    HW213476   2.818   0.827   9.640
 4382SOL     OW13477   3.366   1.607   9.354
 4382SOL    HW113478   3.274   1.644   9.361
 4382SOL    HW213479   3.404   1.627   9.264
 4383SOL     OW13480   2.234   1.288  10.800
 4383SOL    HW113481   2.221   1.381  10.766
 4383SOL    HW213482   2.150   1.236  10.787
 4384SOL     OW13483   3.476   1.292  10.599
 4384SOL    HW113484   3.536   1.295  10.679
 4384SOL    HW213485   3.401   1.356  10.612
 4385SOL     OW13486   2.901   1.098  10.006
 4385SOL    HW113487   2.831   1.051  10.060
 4385SOL    HW213488   2.960   1.030   9.963
 4386SOL     OW13489   2.876   0.236  10.281
 4386SOL    HW113490   2.868   0.200  10.188
 4386SOL    HW213491   2.874   0.160  10.346
 4387SOL     OW13492   2.452   1.487   9.801
 4387SOL    HW113493   2.494   1.429   9.731
 4387SOL    HW213494   2.408   1.566   9.757
 4388SOL     OW13495   3.571   0.385  10.691
 4388SOL    HW113496   3.644   0.454  10.695
 4388SOL    HW213497   3.599   0.310  10.632
 4389SOL     OW13498   2.117   1.348   9.600
 4389SOL    HW113499   2.021   1.349   9.573
 4389SOL    HW213500   2.129   1.401   9.684
 4390SOL     OW13501   1.967   1.013  11.036
 4390SOL    HW113502   1.890   0.980  11.090
 4390SOL    HW213503   2.052   0.983  11.078
 4391SOL     OW13504   2.534   0.203  10.799
 4391SOL    HW113505   2.624   0.187  10.759
 4391SOL    HW213506   2.542   0.208  10.898
 4392SOL     OW13507   1.937   0.345   9.343
 4392SOL    HW113508   1.845   0.317   9.314
 4392SOL    HW213509   1.968   0.422   9.287
 4393SOL     OW13510   3.302   0.856  10.708
 4393SOL    HW113511   3.245   0.908  10.645
 4393SOL    HW213512   3.398   0.868  10.684
 4394SOL     OW13513   1.934   0.166   9.628
 4394SOL    HW113514   1.917   0.249   9.574
 4394SOL    HW213515   2.024   0.129   9.606
 4395SOL     OW13516   3.045   1.335   9.429
 4395SOL    HW113517   2.946   1.324   9.431
 4395SOL    HW213518   3.079   1.350   9.522
 4396SOL     OW13519   2.475   0.842  10.741
 4396SOL    HW113520   2.531   0.923  10.724
 4396SOL    HW213521   2.534   0.762  10.744
 4397SOL     OW13522   3.355   1.767  10.269
 4397SOL    HW113523   3.388   1.831  10.200
 4397SOL    HW213524   3.421   1.761  10.344
 4398SOL     OW13525   2.578   0.565  11.018
 4398SOL    HW113526   2.597   0.630  11.092
 4398SOL    HW213527   2.638   0.485  11.027
 4399SOL     OW13528   3.312   1.220  10.943
 4399SOL    HW113529   3.303   1.210  11.042
 4399SOL    HW213530   3.408   1.213  10.917
 4400SOL     OW13531   2.252   1.741  10.870
 4400SOL    HW113532   2.161   1.782  10.868
 4400SOL    HW213533   2.245   1.647  10.902
 4401SOL     OW13534   3.536   0.883  10.564
 4401SOL    HW113535   3.509   0.794  10.527
 4401SOL    HW213536   3.537   0.951  10.491
 4402SOL     OW13537   3.087   0.325   9.759
 4402SOL    HW113538   3.152   0.251   9.748
 4402SOL    HW213539   3.107   0.375   9.843
 4403SOL     OW13540   2.456   0.745   9.962
 4403SOL    HW113541   2.506   0.830   9.943
 4403SOL    HW213542   2.368   0.747   9.914
 4404SOL     OW13543   3.639   0.342  10.952
 4404SOL    HW113544   3.622   0.373  10.858
 4404SOL    HW213545   3.555   0.305  10.990
 4405SOL     OW13546   3.592   0.934  10.827
 4405SOL    HW113547   3.630   1.025  10.842
 4405SOL    HW213548   3.584   0.917  10.728
 4406SOL     OW13549   2.721   1.374   9.326
 4406SOL    HW113550   2.675   1.389   9.414
 4406SOL    HW213551   2.765   1.459   9.296
 4407SOL     OW13552   2.523   1.790  10.263
 4407SOL    HW113553   2.477   1.878  10.250
 4407SOL    HW213554   2.622   1.802  10.256
 4408SOL     OW13555   2.721   0.956  10.171
 4408SOL    HW113556   2.775   0.887  10.219
 4408SOL    HW213557   2.689   1.025  10.237
 4409SOL     OW13558   2.945   0.984   9.397
 4409SOL    HW113559   2.922   1.037   9.315
 4409SOL    HW213560   3.026   0.928   9.378
 4410SOL     OW13561   3.723   1.569  10.161
 4410SOL    HW113562   3.652   1.557  10.091
 4410SOL    HW213563   3.724   1.490  10.221
 4411SOL     OW13564   2.083   1.314  11.154
 4411SOL    HW113565   2.018   1.241  11.133
 4411SOL    HW213566   2.087   1.328  11.252
 4412SOL     OW13567   1.941   1.240   9.963
 4412SOL    HW113568   1.940   1.193  10.051
 4412SOL    HW213569   2.023   1.212   9.912
 4413SOL     OW13570   2.534   1.391  10.934
 4413SOL    HW113571   2.456   1.341  10.972
 4413SOL    HW213572   2.531   1.486  10.965
 4414SOL     OW13573   3.686   0.192  10.537
 4414SOL    HW113574   3.682   0.102  10.581
 4414SOL    HW213575   3.689   0.181  10.438
 4415SOL     OW13576   2.290   0.424   9.830
 4415SOL    HW113577   2.320   0.352   9.768
 4415SOL    HW213578   2.251   0.384   9.913
 4416SOL     OW13579   3.567   1.487  10.414
 4416SOL    HW113580   3.474   1.462  10.387
 4416SOL    HW213581   3.593   1.437  10.496
 4417SOL     OW13582   2.179   0.547  10.590
 4417SOL    HW113583   2.217   0.488  10.662
 4417SOL    HW213584   2.219   0.521  10.502
 4418SOL     OW13585   2.674   1.586   9.997
 4418SOL    HW113586   2.706   1.596   9.903
 4418SOL    HW213587   2.595   1.524   9.999
 4419SOL     OW13588   3.286   0.214  10.422
 4419SOL    HW113589   3.338   0.149  10.477
 4419SOL    HW213590   3.237   0.277  10.483
 4420SOL     OW13591   2.863   0.034  10.464
 4420SOL    HW113592   2.800  -0.038  10.433
 4420SOL    HW213593   2.956  -0.002  10.464
 4421SOL     OW13594   2.632   1.330   9.611
 4421SOL    HW113595   2.586   1.243   9.628
 4421SOL    HW213596   2.723   1.327   9.652
 4422SOL     OW13597   2.480   1.567  10.594
 4422SOL    HW113598   2.475   1.649  10.651
 4422SOL    HW213599   2.569   1.564  10.549
 4423SOL     OW13600   3.214   0.052   9.478
 4423SOL    HW113601   3.249   0.011   9.394
 4423SOL    HW213602   3.124   0.014   9.498
 4424SOL     OW13603   3.162   0.453  10.001
 4424SOL    HW113604   3.103   0.533  10.005
 4424SOL    HW213605   3.177   0.418  10.094
 4425SOL     OW13606   3.455   0.221  10.192
 4425SOL    HW113607   3.371   0.220  10.246
 4425SOL    HW213608   3.457   0.304  10.136
 4426SOL     OW13609   1.901   1.077   9.610
 4426SOL    HW113610   2.000   1.066   9.601
 4426SOL    HW213611   1.861   0.991   9.642
 4427SOL     OW13612   2.737   1.646   9.647
 4427SOL    HW113613   2.660   1.611   9.593
 4427SOL    HW213614   2.705   1.717   9.709
 4428SOL     OW13615   2.092   0.628  11.285
 4428SOL    HW113616   1.999   0.626  11.322
 4428SOL    HW213617   2.093   0.589  11.193
 4429SOL     OW13618   2.087   0.275  12.168
 4429SOL    HW113619   2.122   0.258  12.260
 4429SOL    HW213620   1.999   0.230  12.156
 4430SOL     OW13621   1.881   0.368  11.819
 4430SOL    HW113622   1.799   0.411  11.858
 4430SOL    HW213623   1.853   0.295  11.756
 4431SOL     OW13624   3.417   1.511  11.875
 4431SOL    HW113625   3.360   1.495  11.956
 4431SOL    HW213626   3.358   1.521  11.795
 4432SOL     OW13627   2.997   0.703  11.889
 4432SOL    HW113628   3.054   0.781  11.864
 4432SOL    HW213629   2.937   0.729  11.965
 4433SOL     OW13630   3.617   0.607  11.403
 4433SOL    HW113631   3.605   0.594  11.304
 4433SOL    HW213632   3.587   0.526  11.452
 4434SOL     OW13633   2.547   1.012  11.837
 4434SOL    HW113634   2.616   0.996  11.907
 4434SOL    HW213635   2.474   1.069  11.875
 4435SOL     OW13636   3.465   0.447  11.909
 4435SOL    HW113637   3.391   0.493  11.859
 4435SOL    HW213638   3.516   0.515  11.962
 4436SOL     OW13639   2.093   1.713  11.655
 4436SOL    HW113640   2.127   1.790  11.709
 4436SOL    HW213641   2.137   1.713  11.565
 4437SOL     OW13642   2.092   1.434  11.710
 4437SOL    HW113643   2.066   1.530  11.710
 4437SOL    HW213644   2.021   1.380  11.755
 4438SOL     OW13645   2.102   1.091  12.058
 4438SOL    HW113646   2.116   1.007  12.110
 4438SOL    HW213647   2.047   1.155  12.113
 4439SOL     OW13648   2.468   0.964  11.295
 4439SOL    HW113649   2.475   1.048  11.241
 4439SOL    HW213650   2.514   0.977  11.383
 4440SOL     OW13651   1.984   0.643  11.735
 4440SOL    HW113652   1.939   0.555  11.752
 4440SOL    HW213653   1.983   0.697  11.819
 4441SOL     OW13654   3.704   1.767  11.531
 4441SOL    HW113655   3.758   1.738  11.611
 4441SOL    HW213656   3.734   1.857  11.502
 4442SOL     OW13657   1.889   1.596  11.289
 4442SOL    HW113658   1.870   1.500  11.310
 4442SOL    HW213659   1.856   1.654  11.364
 4443SOL     OW13660   3.551   0.922  11.784
 4443SOL    HW113661   3.646   0.893  11.792
 4443SOL    HW213662   3.543   0.987  11.709
 4444SOL     OW13663   3.503   1.108  11.604
 4444SOL    HW113664   3.589   1.110  11.552
 4444SOL    HW213665   3.517   1.155  11.692
 4445SOL     OW13666   2.475   1.365  11.898
 4445SOL    HW113667   2.426   1.278  11.907
 4445SOL    HW213668   2.452   1.408  11.811
 4446SOL     OW13669   2.671   0.004  11.674
 4446SOL    HW113670   2.711   0.095  11.665
 4446SOL    HW213671   2.571   0.012  11.680
 4447SOL     OW13672   3.387   0.999  11.362
 4447SOL    HW113673   3.324   0.923  11.375
 4447SOL    HW213674   3.435   1.017  11.448
 4448SOL     OW13675   3.529   1.714  11.744
 4448SOL    HW113676   3.488   1.691  11.656
 4448SOL    HW213677   3.511   1.640  11.809
 4449SOL     OW13678   2.460   0.729  11.442
 4449SOL    HW113679   2.484   0.798  11.374
 4449SOL    HW213680   2.382   0.762  11.496
 4450SOL     OW13681   3.143   0.345  12.116
 4450SOL    HW113682   3.057   0.295  12.103
 4450SOL    HW213683   3.205   0.291  12.172
 4451SOL     OW13684   3.438   1.662  11.479
 4451SOL    HW113685   3.527   1.708  11.482
 4451SOL    HW213686   3.417   1.638  11.384
 4452SOL     OW13687   2.903   0.701  11.601
 4452SOL    HW113688   2.929   0.697  11.697
 4452SOL    HW213689   2.818   0.650  11.587
 4453SOL     OW13690   1.938   0.811  11.961
 4453SOL    HW113691   2.037   0.799  11.970
 4453SOL    HW213692   1.914   0.906  11.982
 4454SOL     OW13693   2.727   0.348  11.367
 4454SOL    HW113694   2.786   0.411  11.318
 4454SOL    HW213695   2.746   0.254  11.338
 4455SOL     OW13696   3.224   1.144  11.717
 4455SOL    HW113697   3.307   1.115  11.669
 4455SOL    HW213698   3.175   1.211  11.661
 4456SOL     OW13699   2.870   1.456  11.649
 4456SOL    HW113700   2.824   1.528  11.597
 4456SOL    HW213701   2.866   1.476  11.747
 4457SOL     OW13702   2.213   1.801  12.025
 4457SOL    HW113703   2.263   1.715  12.031
 4457SOL    HW213704   2.278   1.878  12.022
 4458SOL     OW13705   3.657   1.066  12.045
 4458SOL    HW113706   3.595   1.051  11.969
 4458SOL    HW213707   3.605   1.077  12.130
 4459SOL     OW13708   2.183   0.943  11.414
 4459SOL    HW113709   2.265   0.982  11.372
 4459SOL    HW213710   2.156   0.861  11.365
 4460SOL     OW13711   3.320   0.735  11.900
 4460SOL    HW113712   3.315   0.670  11.975
 4460SOL    HW213713   3.400   0.794  11.913
 4461SOL     OW13714   2.973   1.776  11.409
 4461SOL    HW113715   2.913   1.714  11.459
 4461SOL    HW213716   3.004   1.732  11.324
 4462SOL     OW13717   3.494   1.377  11.253
 4462SOL    HW113718   3.462   1.471  11.243
 4462SOL    HW213719   3.418   1.314  11.241
 4463SOL     OW13720   2.326   1.743  11.495
 4463SOL    HW113721   2.359   1.782  11.581
 4463SOL    HW213722   2.402   1.736  11.430
 4464SOL     OW13723   3.262   0.107  11.598
 4464SOL    HW113724   3.238   0.070  11.508
 4464SOL    HW213725   3.361   0.123  11.602
 4465SOL     OW13726   2.802   1.698  12.076
 4465SOL    HW113727   2.882   1.641  12.097
 4465SOL    HW213728   2.753   1.658  11.999
 4466SOL     OW13729   2.244   0.700  11.652
 4466SOL    HW113730   2.289   0.610  11.649
 4466SOL    HW213731   2.150   0.689  11.685
 4467SOL     OW13732   2.476   0.122  11.289
 4467SOL    HW113733   2.574   0.100  11.296
 4467SOL    HW213734   2.445   0.105  11.196
 4468SOL     OW13735   2.401   0.064  11.684
 4468SOL    HW113736   2.320   0.065  11.742
 4468SOL    HW213737   2.404   0.147  11.629
 4469SOL     OW13738   3.296   1.188  11.213
 4469SOL    HW113739   3.328   1.112  11.270
 4469SOL    HW213740   3.204   1.215  11.243
 4470SOL     OW13741   2.159   0.035  11.343
 4470SOL    HW113742   2.208   0.119  11.322
 4470SOL    HW213743   2.221  -0.030  11.388
 4471SOL     OW13744   2.797   0.236  11.652
 4471SOL    HW113745   2.749   0.277  11.574
 4471SOL    HW213746   2.896   0.234  11.633
 4472SOL     OW13747   2.321   1.152  11.913
 4472SOL    HW113748   2.250   1.125  11.978
 4472SOL    HW213749   2.295   1.124  11.820
 4473SOL     OW13750   3.133   1.797  11.763
 4473SOL    HW113751   3.177   1.861  11.699
 4473SOL    HW213752   3.083   1.849  11.833
 4474SOL     OW13753   2.894   0.549  11.188
 4474SOL    HW113754   2.853   0.631  11.149
 4474SOL    HW213755   2.958   0.575  11.261
 4475SOL     OW13756   2.728   0.454  11.814
 4475SOL    HW113757   2.696   0.526  11.752
 4475SOL    HW213758   2.752   0.373  11.761
 4476SOL     OW13759   2.879   0.039  11.925
 4476SOL    HW113760   2.807   0.044  11.856
 4476SOL    HW213761   2.855  -0.030  11.994
 4477SOL     OW13762   3.719   0.833  11.549
 4477SOL    HW113763   3.761   0.769  11.613
 4477SOL    HW213764   3.681   0.782  11.471
 4478SOL     OW13765   2.350   1.385  11.346
 4478SOL    HW113766   2.263   1.370  11.393
 4478SOL    HW213767   2.333   1.411  11.251
 4479SOL     OW13768   3.526   1.280  11.829
 4479SOL    HW113769   3.625   1.288  11.843
 4479SOL    HW213770   3.481   1.364  11.860
 4480SOL     OW13771   3.252   0.575  11.250
 4480SOL    HW113772   3.198   0.554  11.331
 4480SOL    HW213773   3.343   0.534  11.259
 4481SOL     OW13774   2.389   0.256  11.500
 4481SOL    HW113775   2.416   0.197  11.425
 4481SOL    HW213776   2.389   0.351  11.469
 4482SOL     OW13777   2.567   1.050  11.540
 4482SOL    HW113778   2.553   1.057  11.639
 4482SOL    HW213779   2.651   0.999  11.522
 4483SOL     OW13780   2.229   1.100  11.673
 4483SOL    HW113781   2.222   1.183  11.617
 4483SOL    HW213782   2.233   1.020  11.613
 4484SOL     OW13783   3.114   1.348  11.560
 4484SOL    HW113784   3.164   1.425  11.600
 4484SOL    HW213785   3.019   1.350  11.592
 4485SOL     OW13786   3.444   0.639  11.644
 4485SOL    HW113787   3.413   0.700  11.717
 4485SOL    HW213788   3.494   0.691  11.575
 4486SOL     OW13789   3.071   0.525  11.447
 4486SOL    HW113790   3.084   0.441  11.501
 4486SOL    HW213791   3.042   0.599  11.507
 4487SOL     OW13792   2.169   0.063  11.790
 4487SOL    HW113793   2.158   0.157  11.823
 4487SOL    HW213794   2.164   0.000  11.867
 4488SOL     OW13795   3.484   0.367  11.546
 4488SOL    HW113796   3.486   0.291  11.610
 4488SOL    HW213797   3.436   0.444  11.586
 4489SOL     OW13798   3.402   0.274  11.297
 4489SOL    HW113799   3.341   0.199  11.320
 4489SOL    HW213800   3.424   0.326  11.380
 4490SOL     OW13801   3.165   0.838  11.214
 4490SOL    HW113802   3.199   0.745  11.229
 4490SOL    HW213803   3.183   0.865  11.119
 4491SOL     OW13804   1.870   1.326  11.372
 4491SOL    HW113805   1.777   1.347  11.341
 4491SOL    HW213806   1.880   1.227  11.385
 4492SOL     OW13807   2.677   0.572  11.497
 4492SOL    HW113808   2.684   0.483  11.451
 4492SOL    HW213809   2.583   0.606  11.489
 4493SOL     OW13810   2.335   0.500  11.363
 4493SOL    HW113811   2.396   0.580  11.367
 4493SOL    HW213812   2.240   0.531  11.370
 4494SOL     OW13813   3.164   0.855  11.481
 4494SOL    HW113814   3.078   0.824  11.523
 4494SOL    HW213815   3.160   0.841  11.382
 4495SOL     OW13816   3.588   0.135  11.695
 4495SOL    HW113817   3.661   0.118  11.628
 4495SOL    HW213818   3.557   0.048  11.733
 4496SOL     OW13819   3.250   1.573  11.649
 4496SOL    HW113820   3.317   1.585  11.575
 4496SOL    HW213821   3.210   1.662  11.672
 4497SOL     OW13822   3.142   0.927  11.844
 4497SOL    HW113823   3.202   0.846  11.846
 4497SOL    HW213824   3.182   0.996  11.784
 4498SOL     OW13825   2.534   1.616  11.326
 4498SOL    HW113826   2.543   1.626  11.227
 4498SOL    HW213827   2.494   1.527  11.347
 4499SOL     OW13828   3.703   0.175  12.135
 4499SOL    HW113829   3.742   0.090  12.099
 4499SOL    HW213830   3.605   0.177  12.116
 4500SOL     OW13831   2.125   0.326  11.892
 4500SOL    HW113832   2.046   0.377  11.858
 4500SOL    HW213833   2.116   0.311  11.990
 4501SOL     OW13834   3.056   1.612  11.203
 4501SOL    HW113835   3.062   1.519  11.240
 4501SOL    HW213836   2.997   1.612  11.123
 4502SOL     OW13837   2.778   0.910  11.463
 4502SOL    HW113838   2.841   0.948  11.395
 4502SOL    HW213839   2.818   0.827  11.502
 4503SOL     OW13840   3.366   1.607  11.216
 4503SOL    HW113841   3.274   1.644  11.223
 4503SOL    HW213842   3.404   1.627  11.126
 4504SOL     OW13843   2.901   1.098  11.868
 4504SOL    HW113844   2.831   1.051  11.922
 4504SOL    HW213845   2.960   1.030  11.825
 4505SOL     OW13846   2.452   1.487  11.663
 4505SOL    HW113847   2.494   1.429  11.593
 4505SOL    HW213848   2.408   1.566  11.619
 4506SOL     OW13849   2.117   1.348  11.462
 4506SOL    HW113850   2.021   1.349  11.435
 4506SOL    HW213851   2.129   1.401  11.546
 4507SOL     OW13852   1.937   0.345  11.205
 4507SOL    HW113853   1.845   0.317  11.176
 4507SOL    HW213854   1.968   0.422  11.149
 4508SOL     OW13855   1.934   0.166  11.490
 4508SOL    HW113856   1.917   0.249  11.436
 4508SOL    HW213857   2.024   0.129  11.468
 4509SOL     OW13858   3.045   1.335  11.291
 4509SOL    HW113859   2.946   1.324  11.293
 4509SOL    HW213860   3.079   1.350  11.384
 4510SOL     OW13861   3.087   0.325  11.621
 4510SOL    HW113862   3.152   0.251  11.610
 4510SOL    HW213863   3.107   0.375  11.705
 4511SOL     OW13864   2.456   0.745  11.824
 4511SOL    HW113865   2.506   0.830  11.805
 4511SOL    HW213866   2.368   0.747  11.776
 4512SOL     OW13867   2.721   1.374  11.188
 4512SOL    HW113868   2.675   1.389  11.276
 4512SOL    HW213869   2.765   1.459  11.158
 4513SOL     OW13870   2.523   1.790  12.125
 4513SOL    HW113871   2.477   1.878  12.112
 4513SOL    HW213872   2.622   1.802  12.118
 4514SOL     OW13873   2.721   0.956  12.033
 4514SOL    HW113874   2.775   0.887  12.081
 4514SOL    HW213875   2.689   1.025  12.099
 4515SOL     OW13876   2.945   0.984  11.259
 4515SOL    HW113877   2.922   1.037  11.177
 4515SOL    HW213878   3.026   0.928  11.240
 4516SOL     OW13879   1.941   1.240  11.825
 4516SOL    HW113880   1.940   1.193  11.913
 4516SOL    HW213881   2.023   1.212  11.774
 4517SOL     OW13882   2.290   0.424  11.692
 4517SOL    HW113883   2.320   0.352  11.630
 4517SOL    HW213884   2.251   0.384  11.775
 4518SOL     OW13885   3.567   1.487  12.276
 4518SOL    HW113886   3.474   1.462  12.249
 4518SOL    HW213887   3.593   1.437  12.358
 4519SOL     OW13888   2.674   1.586  11.859
 4519SOL    HW113889   2.706   1.596  11.765
 4519SOL    HW213890   2.595   1.524  11.861
 4520SOL     OW13891   2.632   1.330  11.473
 4520SOL    HW113892   2.586   1.243  11.490
 4520SOL    HW213893   2.723   1.327  11.514
 4521SOL     OW13894   3.214   0.052  11.340
 4521SOL    HW113895   3.249   0.011  11.256
 4521SOL    HW213896   3.124   0.014  11.360
 4522SOL     OW13897   3.162   0.453  11.863
 4522SOL    HW113898   3.103   0.533  11.867
 4522SOL    HW213899   3.177   0.418  11.956
 4523SOL     OW13900   1.901   1.077  11.472
 4523SOL    HW113901   2.000   1.066  11.463
 4523SOL    HW213902   1.861   0.991  11.504
 4524SOL     OW13903   2.737   1.646  11.509
 4524SOL    HW113904   2.660   1.611  11.455
 4524SOL    HW213905   2.705   1.717  11.571
 4525SOL     OW13906   2.092   2.490   0.113
 4525SOL    HW113907   1.999   2.488   0.150
 4525SOL    HW213908   2.093   2.451   0.021
 4526SOL     OW13909   1.881   2.230   0.647
 4526SOL    HW113910   1.799   2.273   0.686
 4526SOL    HW213911   1.853   2.157   0.584
 4527SOL     OW13912   2.431   3.137   1.165
 4527SOL    HW113913   2.338   3.130   1.128
 4527SOL    HW213914   2.442   3.226   1.209
 4528SOL     OW13915   3.417   3.373   0.703
 4528SOL    HW113916   3.360   3.357   0.784
 4528SOL    HW213917   3.358   3.383   0.623
 4529SOL     OW13918   2.997   2.565   0.717
 4529SOL    HW113919   3.054   2.643   0.692
 4529SOL    HW213920   2.937   2.591   0.793
 4530SOL     OW13921   3.617   2.469   0.231
 4530SOL    HW113922   3.605   2.456   0.132
 4530SOL    HW213923   3.587   2.388   0.280
 4531SOL     OW13924   2.630   3.006   1.023
 4531SOL    HW113925   2.552   3.023   1.083
 4531SOL    HW213926   2.664   3.093   0.987
 4532SOL     OW13927   2.712   2.660   1.823
 4532SOL    HW113928   2.708   2.736   1.888
 4532SOL    HW213929   2.734   2.696   1.732
 4533SOL     OW13930   2.547   2.874   0.665
 4533SOL    HW113931   2.616   2.858   0.735
 4533SOL    HW213932   2.474   2.931   0.703
 4534SOL     OW13933   2.548   3.023   1.803
 4534SOL    HW113934   2.608   3.102   1.817
 4534SOL    HW213935   2.462   3.054   1.762
 4535SOL     OW13936   2.197   3.297   1.061
 4535SOL    HW113937   2.119   3.266   1.008
 4535SOL    HW213938   2.255   3.355   1.004
 4536SOL     OW13939   3.322   3.367   1.339
 4536SOL    HW113940   3.346   3.461   1.365
 4536SOL    HW213941   3.306   3.313   1.421
 4537SOL     OW13942   3.465   2.309   0.737
 4537SOL    HW113943   3.391   2.355   0.687
 4537SOL    HW213944   3.516   2.377   0.790
 4538SOL     OW13945   2.093   3.575   0.483
 4538SOL    HW113946   2.127   3.652   0.537
 4538SOL    HW213947   2.137   3.575   0.393
 4539SOL     OW13948   2.989   3.203   1.690
 4539SOL    HW113949   3.036   3.203   1.778
 4539SOL    HW213950   2.941   3.116   1.679
 4540SOL     OW13951   2.092   3.296   0.538
 4540SOL    HW113952   2.066   3.392   0.538
 4540SOL    HW213953   2.021   3.242   0.583
 4541SOL     OW13954   2.102   2.953   0.886
 4541SOL    HW113955   2.116   2.869   0.938
 4541SOL    HW213956   2.047   3.017   0.941
 4542SOL     OW13957   2.482   3.648   1.439
 4542SOL    HW113958   2.390   3.631   1.474
 4542SOL    HW213959   2.510   3.740   1.465
 4543SOL     OW13960   2.468   2.826   0.123
 4543SOL    HW113961   2.475   2.910   0.069
 4543SOL    HW213962   2.514   2.839   0.211
 4544SOL     OW13963   3.456   1.976   1.480
 4544SOL    HW113964   3.438   2.043   1.408
 4544SOL    HW213965   3.453   2.022   1.569
 4545SOL     OW13966   1.984   2.505   0.563
 4545SOL    HW113967   1.939   2.417   0.580
 4545SOL    HW213968   1.983   2.559   0.647
 4546SOL     OW13969   3.704   3.629   0.359
 4546SOL    HW113970   3.758   3.600   0.439
 4546SOL    HW213971   3.734   3.719   0.330
 4547SOL     OW13972   1.889   3.458   0.117
 4547SOL    HW113973   1.870   3.362   0.138
 4547SOL    HW213974   1.856   3.516   0.192
 4548SOL     OW13975   3.551   2.784   0.612
 4548SOL    HW113976   3.646   2.755   0.620
 4548SOL    HW213977   3.543   2.849   0.537
 4549SOL     OW13978   3.503   2.970   0.432
 4549SOL    HW113979   3.589   2.972   0.380
 4549SOL    HW213980   3.517   3.017   0.520
 4550SOL     OW13981   1.975   2.599   1.597
 4550SOL    HW113982   2.063   2.586   1.642
 4550SOL    HW213983   1.962   2.696   1.575
 4551SOL     OW13984   2.475   3.227   0.726
 4551SOL    HW113985   2.426   3.140   0.735
 4551SOL    HW213986   2.452   3.270   0.639
 4552SOL     OW13987   3.155   3.090   1.423
 4552SOL    HW113988   3.192   3.017   1.365
 4552SOL    HW213989   3.207   3.095   1.508
 4553SOL     OW13990   2.671   1.866   0.502
 4553SOL    HW113991   2.711   1.957   0.493
 4553SOL    HW213992   2.571   1.874   0.508
 4554SOL     OW13993   2.059   2.838   1.264
 4554SOL    HW113994   2.148   2.793   1.250
 4554SOL    HW213995   1.986   2.773   1.245
 4555SOL     OW13996   3.387   2.861   0.190
 4555SOL    HW113997   3.324   2.785   0.203
 4555SOL    HW213998   3.435   2.879   0.276
 4556SOL     OW13999   3.049   3.654   1.616
 4556SOL    HW114000   3.073   3.714   1.540
 4556SOL    HW214001   3.056   3.559   1.586
 4557SOL     OW14002   3.328   3.279   0.953
 4557SOL    HW114003   3.269   3.285   1.033
 4557SOL    HW214004   3.313   3.191   0.907
 4558SOL     OW14005   3.529   3.576   0.572
 4558SOL    HW114006   3.488   3.553   0.484
 4558SOL    HW214007   3.511   3.502   0.637
 4559SOL     OW14008   2.460   2.591   0.270
 4559SOL    HW114009   2.484   2.660   0.202
 4559SOL    HW214010   2.382   2.624   0.324
 4560SOL     OW14011   3.143   2.207   0.944
 4560SOL    HW114012   3.057   2.157   0.931
 4560SOL    HW214013   3.205   2.153   1.000
 4561SOL     OW14014   3.438   3.524   0.307
 4561SOL    HW114015   3.527   3.570   0.310
 4561SOL    HW214016   3.417   3.500   0.212
 4562SOL     OW14017   2.669   2.467   1.465
 4562SOL    HW114018   2.622   2.464   1.554
 4562SOL    HW214019   2.618   2.412   1.399
 4563SOL     OW14020   3.256   2.331   1.674
 4563SOL    HW114021   3.236   2.374   1.762
 4563SOL    HW214022   3.334   2.269   1.683
 4564SOL     OW14023   2.835   2.752   1.572
 4564SOL    HW114024   2.881   2.668   1.543
 4564SOL    HW214025   2.779   2.786   1.497
 4565SOL     OW14026   2.853   2.272   1.242
 4565SOL    HW114027   2.776   2.306   1.296
 4565SOL    HW214028   2.819   2.221   1.163
 4566SOL     OW14029   2.903   2.563   0.429
 4566SOL    HW114030   2.929   2.559   0.525
 4566SOL    HW214031   2.818   2.512   0.415
 4567SOL     OW14032   1.938   2.673   0.789
 4567SOL    HW114033   2.037   2.661   0.798
 4567SOL    HW214034   1.914   2.768   0.810
 4568SOL     OW14035   1.992   3.683   1.571
 4568SOL    HW114036   1.982   3.668   1.670
 4568SOL    HW214037   1.906   3.719   1.535
 4569SOL     OW14038   2.727   2.210   0.195
 4569SOL    HW114039   2.786   2.273   0.146
 4569SOL    HW214040   2.746   2.116   0.166
 4570SOL     OW14041   3.581   2.447   1.831
 4570SOL    HW114042   3.555   2.536   1.795
 4570SOL    HW214043   3.579   2.379   1.758
 4571SOL     OW14044   3.224   3.006   0.545
 4571SOL    HW114045   3.307   2.977   0.497
 4571SOL    HW214046   3.175   3.073   0.489
 4572SOL     OW14047   2.412   2.058   0.885
 4572SOL    HW114048   2.407   2.053   0.985
 4572SOL    HW214049   2.414   2.154   0.856
 4573SOL     OW14050   2.870   3.318   0.477
 4573SOL    HW114051   2.824   3.390   0.425
 4573SOL    HW214052   2.866   3.338   0.575
 4574SOL     OW14053   2.213   3.663   0.853
 4574SOL    HW114054   2.263   3.577   0.859
 4574SOL    HW214055   2.278   3.740   0.850
 4575SOL     OW14056   3.657   2.928   0.873
 4575SOL    HW114057   3.595   2.913   0.797
 4575SOL    HW214058   3.605   2.939   0.958
 4576SOL     OW14059   3.089   3.412   1.506
 4576SOL    HW114060   3.095   3.335   1.570
 4576SOL    HW214061   3.037   3.386   1.426
 4577SOL     OW14062   2.183   2.805   0.242
 4577SOL    HW114063   2.265   2.844   0.200
 4577SOL    HW214064   2.156   2.723   0.193
 4578SOL     OW14065   3.320   2.597   0.728
 4578SOL    HW114066   3.315   2.532   0.803
 4578SOL    HW214067   3.400   2.656   0.741
 4579SOL     OW14068   2.323   3.128   1.727
 4579SOL    HW114069   2.273   3.129   1.641
 4579SOL    HW214070   2.260   3.110   1.803
 4580SOL     OW14071   2.973   3.638   0.237
 4580SOL    HW114072   2.913   3.576   0.287
 4580SOL    HW214073   3.004   3.594   0.152
 4581SOL     OW14074   3.494   3.239   0.081
 4581SOL    HW114075   3.462   3.333   0.071
 4581SOL    HW214076   3.418   3.176   0.069
 4582SOL     OW14077   2.326   3.605   0.323
 4582SOL    HW114078   2.359   3.644   0.409
 4582SOL    HW214079   2.402   3.598   0.258
 4583SOL     OW14080   3.262   1.969   0.426
 4583SOL    HW114081   3.238   1.932   0.336
 4583SOL    HW214082   3.361   1.985   0.430
 4584SOL     OW14083   2.111   3.647   1.241
 4584SOL    HW114084   2.168   3.582   1.291
 4584SOL    HW214085   2.095   3.614   1.148
 4585SOL     OW14086   2.802   3.560   0.904
 4585SOL    HW114087   2.882   3.503   0.925
 4585SOL    HW214088   2.753   3.520   0.827
 4586SOL     OW14089   2.244   2.562   0.480
 4586SOL    HW114090   2.289   2.472   0.477
 4586SOL    HW214091   2.150   2.551   0.513
 4587SOL     OW14092   3.409   2.084   1.729
 4587SOL    HW114093   3.404   2.121   1.821
 4587SOL    HW214094   3.337   2.015   1.717
 4588SOL     OW14095   2.643   2.126   1.749
 4588SOL    HW114096   2.710   2.065   1.792
 4588SOL    HW214097   2.570   2.145   1.814
 4589SOL     OW14098   2.750   3.376   1.195
 4589SOL    HW114099   2.727   3.351   1.101
 4589SOL    HW214100   2.811   3.307   1.234
 4590SOL     OW14101   3.213   2.452   1.433
 4590SOL    HW114102   3.241   2.409   1.518
 4590SOL    HW214103   3.238   2.548   1.434
 4591SOL     OW14104   2.665   3.264   0.924
 4591SOL    HW114105   2.755   3.278   0.882
 4591SOL    HW214106   2.594   3.266   0.853
 4592SOL     OW14107   2.784   2.365   0.899
 4592SOL    HW114108   2.759   2.356   0.803
 4592SOL    HW214109   2.832   2.283   0.930
 4593SOL     OW14110   2.401   1.926   0.512
 4593SOL    HW114111   2.320   1.927   0.570
 4593SOL    HW214112   2.404   2.009   0.457
 4594SOL     OW14113   3.296   3.050   0.041
 4594SOL    HW114114   3.328   2.974   0.098
 4594SOL    HW214115   3.204   3.077   0.071
 4595SOL     OW14116   2.159   1.897   0.171
 4595SOL    HW114117   2.208   1.981   0.150
 4595SOL    HW214118   2.221   1.832   0.216
 4596SOL     OW14119   2.797   2.098   0.480
 4596SOL    HW114120   2.749   2.139   0.402
 4596SOL    HW214121   2.896   2.096   0.461
 4597SOL     OW14122   2.938   2.545   1.464
 4597SOL    HW114123   2.858   2.484   1.467
 4597SOL    HW214124   3.019   2.492   1.440
 4598SOL     OW14125   3.089   3.432   0.793
 4598SOL    HW114126   3.110   3.506   0.728
 4598SOL    HW214127   3.157   3.432   0.866
 4599SOL     OW14128   2.321   3.014   0.741
 4599SOL    HW114129   2.250   2.987   0.806
 4599SOL    HW214130   2.295   2.986   0.648
 4600SOL     OW14131   3.133   3.659   0.591
 4600SOL    HW114132   3.177   3.723   0.527
 4600SOL    HW214133   3.083   3.711   0.661
 4601SOL     OW14134   2.894   2.411   0.016
 4601SOL    HW114135   2.853   2.493  -0.023
 4601SOL    HW214136   2.958   2.437   0.089
 4602SOL     OW14137   1.940   2.418   1.386
 4602SOL    HW114138   2.032   2.417   1.345
 4602SOL    HW214139   1.934   2.492   1.453
 4603SOL     OW14140   2.423   2.084   1.147
 4603SOL    HW114141   2.461   2.000   1.184
 4603SOL    HW214142   2.335   2.103   1.191
 4604SOL     OW14143   2.728   2.316   0.642
 4604SOL    HW114144   2.696   2.388   0.580
 4604SOL    HW214145   2.752   2.235   0.589
 4605SOL     OW14146   2.879   1.901   0.753
 4605SOL    HW114147   2.807   1.906   0.684
 4605SOL    HW214148   2.855   1.832   0.822
 4606SOL     OW14149   3.291   3.035   0.867
 4606SOL    HW114150   3.236   2.951   0.860
 4606SOL    HW214151   3.317   3.064   0.775
 4607SOL     OW14152   3.328   2.452   0.992
 4607SOL    HW114153   3.298   2.357   0.999
 4607SOL    HW214154   3.401   2.468   1.058
 4608SOL     OW14155   3.719   2.695   0.377
 4608SOL    HW114156   3.761   2.631   0.441
 4608SOL    HW214157   3.681   2.644   0.299
 4609SOL     OW14158   2.350   3.247   0.174
 4609SOL    HW114159   2.263   3.232   0.221
 4609SOL    HW214160   2.333   3.273   0.079
 4610SOL     OW14161   3.526   3.142   0.657
 4610SOL    HW114162   3.625   3.150   0.671
 4610SOL    HW214163   3.481   3.226   0.688
 4611SOL     OW14164   3.252   2.437   0.078
 4611SOL    HW114165   3.198   2.416   0.159
 4611SOL    HW214166   3.343   2.396   0.087
 4612SOL     OW14167   2.389   2.118   0.328
 4612SOL    HW114168   2.416   2.059   0.253
 4612SOL    HW214169   2.389   2.213   0.297
 4613SOL     OW14170   3.616   3.085   1.588
 4613SOL    HW114171   3.707   3.046   1.575
 4613SOL    HW214172   3.624   3.181   1.612
 4614SOL     OW14173   2.926   3.209   1.340
 4614SOL    HW114174   2.846   3.186   1.395
 4614SOL    HW214175   3.009   3.183   1.389
 4615SOL     OW14176   3.454   3.491   1.625
 4615SOL    HW114177   3.481   3.525   1.535
 4615SOL    HW214178   3.533   3.453   1.671
 4616SOL     OW14179   2.973   3.057   1.100
 4616SOL    HW114180   2.933   3.101   1.181
 4616SOL    HW214181   2.932   3.094   1.017
 4617SOL     OW14182   3.500   2.961   1.079
 4617SOL    HW114183   3.505   3.042   1.138
 4617SOL    HW214184   3.414   2.963   1.028
 4618SOL     OW14185   2.777   1.951   1.402
 4618SOL    HW114186   2.802   1.931   1.307
 4618SOL    HW214187   2.849   2.007   1.444
 4619SOL     OW14188   2.842   2.978   1.719
 4619SOL    HW114189   2.743   2.984   1.729
 4619SOL    HW214190   2.865   2.898   1.663
 4620SOL     OW14191   2.567   2.912   0.368
 4620SOL    HW114192   2.553   2.919   0.467
 4620SOL    HW214193   2.651   2.861   0.350
 4621SOL     OW14194   2.272   2.675   1.251
 4621SOL    HW114195   2.358   2.687   1.301
 4621SOL    HW214196   2.230   2.588   1.278
 4622SOL     OW14197   3.136   2.248   1.262
 4622SOL    HW114198   3.157   2.322   1.326
 4622SOL    HW214199   3.047   2.265   1.219
 4623SOL     OW14200   1.926   3.426   1.331
 4623SOL    HW114201   1.880   3.508   1.297
 4623SOL    HW214202   2.024   3.445   1.340
 4624SOL     OW14203   2.229   2.962   0.501
 4624SOL    HW114204   2.222   3.045   0.445
 4624SOL    HW214205   2.233   2.882   0.441
 4625SOL     OW14206   2.428   2.399   0.865
 4625SOL    HW114207   2.440   2.465   0.791
 4625SOL    HW214208   2.474   2.433   0.948
 4626SOL     OW14209   3.114   3.210   0.388
 4626SOL    HW114210   3.164   3.287   0.428
 4626SOL    HW214211   3.019   3.212   0.420
 4627SOL     OW14212   3.134   3.307   1.142
 4627SOL    HW114213   3.181   3.320   1.229
 4627SOL    HW214214   3.068   3.233   1.151
 4628SOL     OW14215   3.444   2.501   0.472
 4628SOL    HW114216   3.413   2.562   0.545
 4628SOL    HW214217   3.494   2.553   0.403
 4629SOL     OW14218   2.216   3.372   1.329
 4629SOL    HW114219   2.195   3.328   1.242
 4629SOL    HW214220   2.313   3.398   1.332
 4630SOL     OW14221   2.264   2.613   1.598
 4630SOL    HW114222   2.332   2.668   1.551
 4630SOL    HW214223   2.304   2.525   1.625
 4631SOL     OW14224   3.449   2.641   1.670
 4631SOL    HW114225   3.357   2.679   1.665
 4631SOL    HW214226   3.509   2.688   1.605
 4632SOL     OW14227   2.875   1.967   1.770
 4632SOL    HW114228   2.881   2.052   1.718
 4632SOL    HW214229   2.907   1.891   1.713
 4633SOL     OW14230   2.366   1.912   1.740
 4633SOL    HW114231   2.324   1.855   1.670
 4633SOL    HW214232   2.300   1.981   1.772
 4634SOL     OW14233   2.435   2.732   1.029
 4634SOL    HW114234   2.479   2.821   1.020
 4634SOL    HW214235   2.372   2.732   1.106
 4635SOL     OW14236   3.222   2.724   1.045
 4635SOL    HW114237   3.147   2.724   0.979
 4635SOL    HW214238   3.259   2.632   1.054
 4636SOL     OW14239   3.071   2.387   0.275
 4636SOL    HW114240   3.084   2.303   0.329
 4636SOL    HW214241   3.042   2.461   0.335
 4637SOL     OW14242   1.899   3.172   1.282
 4637SOL    HW114243   1.952   3.123   1.350
 4637SOL    HW214244   1.921   3.270   1.287
 4638SOL     OW14245   2.594   2.496   1.064
 4638SOL    HW114246   2.653   2.470   0.988
 4638SOL    HW214247   2.566   2.592   1.053
 4639SOL     OW14248   3.590   2.797   1.854
 4639SOL    HW114249   3.544   2.790   1.765
 4639SOL    HW214250   3.528   2.841   1.920
 4640SOL     OW14251   3.484   2.229   0.374
 4640SOL    HW114252   3.486   2.153   0.438
 4640SOL    HW214253   3.436   2.306   0.414
 4641SOL     OW14254   2.885   2.628   0.966
 4641SOL    HW114255   2.900   2.649   1.062
 4641SOL    HW214256   2.855   2.533   0.957
 4642SOL     OW14257   2.842   3.435   1.700
 4642SOL    HW114258   2.822   3.479   1.612
 4642SOL    HW214259   2.881   3.344   1.684
 4643SOL     OW14260   3.721   3.380   1.605
 4643SOL    HW114261   3.735   3.407   1.510
 4643SOL    HW214262   3.804   3.402   1.658
 4644SOL     OW14263   2.212   2.760   1.804
 4644SOL    HW114264   2.288   2.804   1.852
 4644SOL    HW214265   2.247   2.713   1.722
 4645SOL     OW14266   3.402   2.136   0.125
 4645SOL    HW114267   3.341   2.061   0.148
 4645SOL    HW214268   3.424   2.188   0.208
 4646SOL     OW14269   3.165   2.700   0.042
 4646SOL    HW114270   3.199   2.607   0.057
 4646SOL    HW214271   3.183   2.727  -0.053
 4647SOL     OW14272   2.930   3.195   0.849
 4647SOL    HW114273   2.937   3.111   0.794
 4647SOL    HW214274   2.992   3.264   0.813
 4648SOL     OW14275   2.181   2.672   0.949
 4648SOL    HW114276   2.274   2.708   0.954
 4648SOL    HW214277   2.175   2.587   1.001
 4649SOL     OW14278   3.000   2.242   1.678
 4649SOL    HW114279   2.955   2.305   1.742
 4649SOL    HW214280   3.093   2.273   1.661
 4650SOL     OW14281   3.022   2.069   1.477
 4650SOL    HW114282   3.022   2.133   1.554
 4650SOL    HW214283   3.050   2.117   1.394
 4651SOL     OW14284   1.870   3.188   0.200
 4651SOL    HW114285   1.777   3.209   0.169
 4651SOL    HW214286   1.880   3.089   0.213
 4652SOL     OW14287   1.950   3.663   0.927
 4652SOL    HW114288   1.908   3.577   0.900
 4652SOL    HW214289   2.044   3.666   0.893
 4653SOL     OW14290   2.366   3.430   0.910
 4653SOL    HW114291   2.432   3.504   0.919
 4653SOL    HW214292   2.410   3.351   0.868
 4654SOL     OW14293   2.864   2.658   1.238
 4654SOL    HW114294   2.905   2.626   1.324
 4654SOL    HW214295   2.768   2.631   1.235
 4655SOL     OW14296   1.902   2.406   1.114
 4655SOL    HW114297   1.987   2.373   1.073
 4655SOL    HW214298   1.915   2.421   1.212
 4656SOL     OW14299   2.051   2.382   1.722
 4656SOL    HW114300   2.110   2.342   1.652
 4656SOL    HW214301   1.993   2.453   1.681
 4657SOL     OW14302   3.231   2.812   1.660
 4657SOL    HW114303   3.270   2.901   1.680
 4657SOL    HW214304   3.241   2.792   1.563
 4658SOL     OW14305   2.677   2.434   0.325
 4658SOL    HW114306   2.684   2.345   0.279
 4658SOL    HW214307   2.583   2.468   0.317
 4659SOL     OW14308   3.519   2.466   1.206
 4659SOL    HW114309   3.481   2.397   1.268
 4659SOL    HW214310   3.601   2.430   1.162
 4660SOL     OW14311   2.114   3.426   1.744
 4660SOL    HW114312   2.084   3.483   1.820
 4660SOL    HW214313   2.107   3.329   1.770
 4661SOL     OW14314   2.533   2.326   1.269
 4661SOL    HW114315   2.499   2.237   1.239
 4661SOL    HW214316   2.559   2.380   1.189
 4662SOL     OW14317   2.792   3.540   1.465
 4662SOL    HW114318   2.768   3.522   1.370
 4662SOL    HW214319   2.822   3.634   1.475
 4663SOL     OW14320   2.021   2.999   1.466
 4663SOL    HW114321   2.043   2.938   1.542
 4663SOL    HW214322   2.031   2.950   1.380
 4664SOL     OW14323   3.209   2.921   1.234
 4664SOL    HW114324   3.233   2.858   1.160
 4664SOL    HW214325   3.119   2.961   1.216
 4665SOL     OW14326   3.164   2.717   0.309
 4665SOL    HW114327   3.078   2.686   0.351
 4665SOL    HW214328   3.160   2.703   0.210
 4666SOL     OW14329   3.621   3.609   1.154
 4666SOL    HW114330   3.682   3.639   1.081
 4666SOL    HW214331   3.583   3.520   1.132
 4667SOL     OW14332   3.114   3.593   1.128
 4667SOL    HW114333   3.198   3.598   1.074
 4667SOL    HW214334   3.091   3.497   1.146
 4668SOL     OW14335   1.945   3.120   1.022
 4668SOL    HW114336   1.940   3.119   1.122
 4668SOL    HW214337   1.862   3.079   0.984
 4669SOL     OW14338   2.550   3.524   1.716
 4669SOL    HW114339   2.494   3.605   1.725
 4669SOL    HW214340   2.602   3.528   1.630
 4670SOL     OW14341   2.765   1.948   0.133
 4670SOL    HW114342   2.816   1.949   0.047
 4670SOL    HW214343   2.821   1.906   0.204
 4671SOL     OW14344   3.588   1.997   0.523
 4671SOL    HW114345   3.661   1.980   0.456
 4671SOL    HW214346   3.557   1.910   0.561
 4672SOL     OW14347   3.250   3.435   0.477
 4672SOL    HW114348   3.317   3.447   0.403
 4672SOL    HW214349   3.210   3.524   0.500
 4673SOL     OW14350   1.992   3.656   1.851
 4673SOL    HW114351   1.951   3.582   1.904
 4673SOL    HW214352   2.056   3.707   1.909
 4674SOL     OW14353   3.142   2.789   0.672
 4674SOL    HW114354   3.202   2.708   0.674
 4674SOL    HW214355   3.182   2.858   0.612
 4675SOL     OW14356   2.692   3.135   1.422
 4675SOL    HW114357   2.687   3.168   1.517
 4675SOL    HW214358   2.606   3.154   1.376
 4676SOL     OW14359   2.534   3.478   0.154
 4676SOL    HW114360   2.543   3.488   0.055
 4676SOL    HW214361   2.494   3.389   0.175
 4677SOL     OW14362   3.512   3.582   1.394
 4677SOL    HW114363   3.565   3.592   1.310
 4677SOL    HW214364   3.485   3.672   1.428
 4678SOL     OW14365   3.703   2.037   0.963
 4678SOL    HW114366   3.742   1.952   0.927
 4678SOL    HW214367   3.605   2.039   0.944
 4679SOL     OW14368   3.056   3.474   0.031
 4679SOL    HW114369   3.062   3.381   0.068
 4679SOL    HW214370   2.997   3.474  -0.049
 4680SOL     OW14371   2.684   2.864   1.372
 4680SOL    HW114372   2.724   2.863   1.280
 4680SOL    HW214373   2.694   2.956   1.412
 4681SOL     OW14374   2.778   2.772   0.291
 4681SOL    HW114375   2.841   2.810   0.223
 4681SOL    HW214376   2.818   2.689   0.330
 4682SOL     OW14377   3.366   3.469   0.044
 4682SOL    HW114378   3.274   3.506   0.051
 4682SOL    HW214379   3.404   3.489  -0.046
 4683SOL     OW14380   2.234   3.150   1.490
 4683SOL    HW114381   2.221   3.243   1.456
 4683SOL    HW214382   2.150   3.098   1.477
 4684SOL     OW14383   3.476   3.154   1.289
 4684SOL    HW114384   3.536   3.157   1.369
 4684SOL    HW214385   3.401   3.218   1.302
 4685SOL     OW14386   2.901   2.960   0.696
 4685SOL    HW114387   2.831   2.913   0.750
 4685SOL    HW214388   2.960   2.892   0.653
 4686SOL     OW14389   2.876   2.098   0.971
 4686SOL    HW114390   2.868   2.062   0.878
 4686SOL    HW214391   2.874   2.022   1.036
 4687SOL     OW14392   2.452   3.349   0.491
 4687SOL    HW114393   2.494   3.291   0.421
 4687SOL    HW214394   2.408   3.428   0.447
 4688SOL     OW14395   3.571   2.247   1.381
 4688SOL    HW114396   3.644   2.316   1.385
 4688SOL    HW214397   3.599   2.172   1.322
 4689SOL     OW14398   2.117   3.210   0.290
 4689SOL    HW114399   2.021   3.211   0.263
 4689SOL    HW214400   2.129   3.263   0.374
 4690SOL     OW14401   1.967   2.875   1.726
 4690SOL    HW114402   1.890   2.842   1.780
 4690SOL    HW214403   2.052   2.845   1.768
 4691SOL     OW14404   2.534   2.065   1.489
 4691SOL    HW114405   2.624   2.049   1.449
 4691SOL    HW214406   2.542   2.070   1.588
 4692SOL     OW14407   1.937   2.207   0.033
 4692SOL    HW114408   1.845   2.179   0.004
 4692SOL    HW214409   1.968   2.284  -0.023
 4693SOL     OW14410   3.302   2.718   1.398
 4693SOL    HW114411   3.245   2.770   1.335
 4693SOL    HW214412   3.398   2.730   1.374
 4694SOL     OW14413   3.045   3.197   0.119
 4694SOL    HW114414   2.946   3.186   0.121
 4694SOL    HW214415   3.079   3.212   0.212
 4695SOL     OW14416   2.475   2.704   1.431
 4695SOL    HW114417   2.531   2.785   1.414
 4695SOL    HW214418   2.534   2.624   1.434
 4696SOL     OW14419   3.355   3.629   0.959
 4696SOL    HW114420   3.388   3.693   0.890
 4696SOL    HW214421   3.421   3.623   1.034
 4697SOL     OW14422   2.578   2.427   1.708
 4697SOL    HW114423   2.597   2.492   1.782
 4697SOL    HW214424   2.638   2.347   1.717
 4698SOL     OW14425   3.312   3.082   1.633
 4698SOL    HW114426   3.303   3.072   1.732
 4698SOL    HW214427   3.408   3.075   1.607
 4699SOL     OW14428   2.252   3.603   1.560
 4699SOL    HW114429   2.161   3.644   1.558
 4699SOL    HW214430   2.245   3.509   1.592
 4700SOL     OW14431   3.536   2.745   1.254
 4700SOL    HW114432   3.509   2.656   1.217
 4700SOL    HW214433   3.537   2.813   1.181
 4701SOL     OW14434   3.087   2.187   0.449
 4701SOL    HW114435   3.152   2.113   0.438
 4701SOL    HW214436   3.107   2.237   0.533
 4702SOL     OW14437   2.456   2.607   0.652
 4702SOL    HW114438   2.506   2.692   0.633
 4702SOL    HW214439   2.368   2.609   0.604
 4703SOL     OW14440   3.639   2.204   1.642
 4703SOL    HW114441   3.622   2.235   1.548
 4703SOL    HW214442   3.555   2.167   1.680
 4704SOL     OW14443   3.592   2.796   1.517
 4704SOL    HW114444   3.630   2.887   1.532
 4704SOL    HW214445   3.584   2.779   1.418
 4705SOL     OW14446   2.721   3.236   0.016
 4705SOL    HW114447   2.675   3.251   0.104
 4705SOL    HW214448   2.765   3.321  -0.014
 4706SOL     OW14449   2.523   3.652   0.953
 4706SOL    HW114450   2.477   3.740   0.940
 4706SOL    HW214451   2.622   3.664   0.946
 4707SOL     OW14452   2.721   2.818   0.861
 4707SOL    HW114453   2.775   2.749   0.909
 4707SOL    HW214454   2.689   2.887   0.927
 4708SOL     OW14455   2.945   2.846   0.087
 4708SOL    HW114456   2.922   2.899   0.005
 4708SOL    HW214457   3.026   2.790   0.068
 4709SOL     OW14458   3.723   3.431   0.851
 4709SOL    HW114459   3.652   3.419   0.781
 4709SOL    HW214460   3.724   3.352   0.911
 4710SOL     OW14461   2.083   3.176   1.844
 4710SOL    HW114462   2.018   3.103   1.823
 4710SOL    HW214463   2.087   3.190   1.942
 4711SOL     OW14464   1.941   3.102   0.653
 4711SOL    HW114465   1.940   3.055   0.741
 4711SOL    HW214466   2.023   3.074   0.602
 4712SOL     OW14467   2.534   3.253   1.624
 4712SOL    HW114468   2.456   3.203   1.662
 4712SOL    HW214469   2.531   3.348   1.655
 4713SOL     OW14470   3.686   2.054   1.227
 4713SOL    HW114471   3.682   1.964   1.271
 4713SOL    HW214472   3.689   2.043   1.128
 4714SOL     OW14473   3.567   3.349   1.104
 4714SOL    HW114474   3.474   3.324   1.077
 4714SOL    HW214475   3.593   3.299   1.186
 4715SOL     OW14476   2.179   2.409   1.280
 4715SOL    HW114477   2.217   2.350   1.352
 4715SOL    HW214478   2.219   2.383   1.192
 4716SOL     OW14479   2.674   3.448   0.687
 4716SOL    HW114480   2.706   3.458   0.593
 4716SOL    HW214481   2.595   3.386   0.689
 4717SOL     OW14482   3.286   2.076   1.112
 4717SOL    HW114483   3.338   2.011   1.167
 4717SOL    HW214484   3.237   2.139   1.173
 4718SOL     OW14485   2.863   1.896   1.154
 4718SOL    HW114486   2.800   1.824   1.123
 4718SOL    HW214487   2.956   1.860   1.154
 4719SOL     OW14488   2.632   3.192   0.301
 4719SOL    HW114489   2.586   3.105   0.318
 4719SOL    HW214490   2.723   3.189   0.342
 4720SOL     OW14491   2.480   3.429   1.284
 4720SOL    HW114492   2.475   3.511   1.341
 4720SOL    HW214493   2.569   3.426   1.239
 4721SOL     OW14494   3.214   1.914   0.168
 4721SOL    HW114495   3.249   1.873   0.084
 4721SOL    HW214496   3.124   1.876   0.188
 4722SOL     OW14497   3.162   2.315   0.691
 4722SOL    HW114498   3.103   2.395   0.695
 4722SOL    HW214499   3.177   2.280   0.784
 4723SOL     OW14500   3.455   2.083   0.882
 4723SOL    HW114501   3.371   2.082   0.936
 4723SOL    HW214502   3.457   2.166   0.826
 4724SOL     OW14503   1.901   2.939   0.300
 4724SOL    HW114504   2.000   2.928   0.291
 4724SOL    HW214505   1.861   2.853   0.332
 4725SOL     OW14506   2.737   3.508   0.337
 4725SOL    HW114507   2.660   3.473   0.283
 4725SOL    HW214508   2.705   3.579   0.399
 4726SOL     OW14509   2.092   2.490   1.975
 4726SOL    HW114510   1.999   2.488   2.012
 4726SOL    HW214511   2.093   2.451   1.883
 4727SOL     OW14512   1.881   2.230   2.509
 4727SOL    HW114513   1.799   2.273   2.548
 4727SOL    HW214514   1.853   2.157   2.446
 4728SOL     OW14515   2.431   3.137   3.027
 4728SOL    HW114516   2.338   3.130   2.990
 4728SOL    HW214517   2.442   3.226   3.071
 4729SOL     OW14518   3.417   3.373   2.565
 4729SOL    HW114519   3.360   3.357   2.646
 4729SOL    HW214520   3.358   3.383   2.485
 4730SOL     OW14521   2.997   2.565   2.579
 4730SOL    HW114522   3.054   2.643   2.554
 4730SOL    HW214523   2.937   2.591   2.655
 4731SOL     OW14524   3.617   2.469   2.093
 4731SOL    HW114525   3.605   2.456   1.994
 4731SOL    HW214526   3.587   2.388   2.142
 4732SOL     OW14527   2.630   3.006   2.885
 4732SOL    HW114528   2.552   3.023   2.945
 4732SOL    HW214529   2.664   3.093   2.849
 4733SOL     OW14530   2.712   2.660   3.685
 4733SOL    HW114531   2.708   2.736   3.750
 4733SOL    HW214532   2.734   2.696   3.594
 4734SOL     OW14533   2.547   2.874   2.527
 4734SOL    HW114534   2.616   2.858   2.597
 4734SOL    HW214535   2.474   2.931   2.565
 4735SOL     OW14536   2.548   3.023   3.665
 4735SOL    HW114537   2.608   3.102   3.679
 4735SOL    HW214538   2.462   3.054   3.624
 4736SOL     OW14539   2.197   3.297   2.923
 4736SOL    HW114540   2.119   3.266   2.870
 4736SOL    HW214541   2.255   3.355   2.866
 4737SOL     OW14542   3.322   3.367   3.201
 4737SOL    HW114543   3.346   3.461   3.227
 4737SOL    HW214544   3.306   3.313   3.283
 4738SOL     OW14545   3.465   2.309   2.599
 4738SOL    HW114546   3.391   2.355   2.549
 4738SOL    HW214547   3.516   2.377   2.652
 4739SOL     OW14548   2.093   3.575   2.345
 4739SOL    HW114549   2.127   3.652   2.399
 4739SOL    HW214550   2.137   3.575   2.255
 4740SOL     OW14551   2.989   3.203   3.552
 4740SOL    HW114552   3.036   3.203   3.640
 4740SOL    HW214553   2.941   3.116   3.541
 4741SOL     OW14554   2.092   3.296   2.400
 4741SOL    HW114555   2.066   3.392   2.400
 4741SOL    HW214556   2.021   3.242   2.445
 4742SOL     OW14557   2.102   2.953   2.748
 4742SOL    HW114558   2.116   2.869   2.800
 4742SOL    HW214559   2.047   3.017   2.803
 4743SOL     OW14560   2.482   3.648   3.301
 4743SOL    HW114561   2.390   3.631   3.336
 4743SOL    HW214562   2.510   3.740   3.327
 4744SOL     OW14563   2.468   2.826   1.985
 4744SOL    HW114564   2.475   2.910   1.931
 4744SOL    HW214565   2.514   2.839   2.073
 4745SOL     OW14566   3.456   1.976   3.342
 4745SOL    HW114567   3.438   2.043   3.270
 4745SOL    HW214568   3.453   2.022   3.431
 4746SOL     OW14569   1.984   2.505   2.425
 4746SOL    HW114570   1.939   2.417   2.442
 4746SOL    HW214571   1.983   2.559   2.509
 4747SOL     OW14572   3.704   3.629   2.221
 4747SOL    HW114573   3.758   3.600   2.301
 4747SOL    HW214574   3.734   3.719   2.192
 4748SOL     OW14575   1.889   3.458   1.979
 4748SOL    HW114576   1.870   3.362   2.000
 4748SOL    HW214577   1.856   3.516   2.054
 4749SOL     OW14578   3.551   2.784   2.474
 4749SOL    HW114579   3.646   2.755   2.482
 4749SOL    HW214580   3.543   2.849   2.399
 4750SOL     OW14581   3.503   2.970   2.294
 4750SOL    HW114582   3.589   2.972   2.242
 4750SOL    HW214583   3.517   3.017   2.382
 4751SOL     OW14584   1.975   2.599   3.459
 4751SOL    HW114585   2.063   2.586   3.504
 4751SOL    HW214586   1.962   2.696   3.437
 4752SOL     OW14587   2.475   3.227   2.588
 4752SOL    HW114588   2.426   3.140   2.597
 4752SOL    HW214589   2.452   3.270   2.501
 4753SOL     OW14590   3.155   3.090   3.285
 4753SOL    HW114591   3.192   3.017   3.227
 4753SOL    HW214592   3.207   3.095   3.370
 4754SOL     OW14593   2.671   1.866   2.364
 4754SOL    HW114594   2.711   1.957   2.355
 4754SOL    HW214595   2.571   1.874   2.370
 4755SOL     OW14596   2.059   2.838   3.126
 4755SOL    HW114597   2.148   2.793   3.112
 4755SOL    HW214598   1.986   2.773   3.107
 4756SOL     OW14599   3.387   2.861   2.052
 4756SOL    HW114600   3.324   2.785   2.065
 4756SOL    HW214601   3.435   2.879   2.138
 4757SOL     OW14602   3.049   3.654   3.478
 4757SOL    HW114603   3.073   3.714   3.402
 4757SOL    HW214604   3.056   3.559   3.448
 4758SOL     OW14605   3.328   3.279   2.815
 4758SOL    HW114606   3.269   3.285   2.895
 4758SOL    HW214607   3.313   3.191   2.769
 4759SOL     OW14608   3.529   3.576   2.434
 4759SOL    HW114609   3.488   3.553   2.346
 4759SOL    HW214610   3.511   3.502   2.499
 4760SOL     OW14611   2.460   2.591   2.132
 4760SOL    HW114612   2.484   2.660   2.064
 4760SOL    HW214613   2.382   2.624   2.186
 4761SOL     OW14614   3.143   2.207   2.806
 4761SOL    HW114615   3.057   2.157   2.793
 4761SOL    HW214616   3.205   2.153   2.862
 4762SOL     OW14617   3.438   3.524   2.169
 4762SOL    HW114618   3.527   3.570   2.172
 4762SOL    HW214619   3.417   3.500   2.074
 4763SOL     OW14620   2.669   2.467   3.327
 4763SOL    HW114621   2.622   2.464   3.416
 4763SOL    HW214622   2.618   2.412   3.261
 4764SOL     OW14623   3.256   2.331   3.536
 4764SOL    HW114624   3.236   2.374   3.624
 4764SOL    HW214625   3.334   2.269   3.545
 4765SOL     OW14626   2.835   2.752   3.434
 4765SOL    HW114627   2.881   2.668   3.405
 4765SOL    HW214628   2.779   2.786   3.359
 4766SOL     OW14629   2.853   2.272   3.104
 4766SOL    HW114630   2.776   2.306   3.158
 4766SOL    HW214631   2.819   2.221   3.025
 4767SOL     OW14632   2.903   2.563   2.291
 4767SOL    HW114633   2.929   2.559   2.387
 4767SOL    HW214634   2.818   2.512   2.277
 4768SOL     OW14635   1.938   2.673   2.651
 4768SOL    HW114636   2.037   2.661   2.660
 4768SOL    HW214637   1.914   2.768   2.672
 4769SOL     OW14638   1.992   3.683   3.433
 4769SOL    HW114639   1.982   3.668   3.532
 4769SOL    HW214640   1.906   3.719   3.397
 4770SOL     OW14641   2.727   2.210   2.057
 4770SOL    HW114642   2.786   2.273   2.008
 4770SOL    HW214643   2.746   2.116   2.028
 4771SOL     OW14644   3.581   2.447   3.693
 4771SOL    HW114645   3.555   2.536   3.657
 4771SOL    HW214646   3.579   2.379   3.620
 4772SOL     OW14647   3.224   3.006   2.407
 4772SOL    HW114648   3.307   2.977   2.359
 4772SOL    HW214649   3.175   3.073   2.351
 4773SOL     OW14650   2.412   2.058   2.747
 4773SOL    HW114651   2.407   2.053   2.847
 4773SOL    HW214652   2.414   2.154   2.718
 4774SOL     OW14653   2.870   3.318   2.339
 4774SOL    HW114654   2.824   3.390   2.287
 4774SOL    HW214655   2.866   3.338   2.437
 4775SOL     OW14656   2.213   3.663   2.715
 4775SOL    HW114657   2.263   3.577   2.721
 4775SOL    HW214658   2.278   3.740   2.712
 4776SOL     OW14659   3.657   2.928   2.735
 4776SOL    HW114660   3.595   2.913   2.659
 4776SOL    HW214661   3.605   2.939   2.820
 4777SOL     OW14662   3.089   3.412   3.368
 4777SOL    HW114663   3.095   3.335   3.432
 4777SOL    HW214664   3.037   3.386   3.288
 4778SOL     OW14665   2.183   2.805   2.104
 4778SOL    HW114666   2.265   2.844   2.062
 4778SOL    HW214667   2.156   2.723   2.055
 4779SOL     OW14668   3.320   2.597   2.590
 4779SOL    HW114669   3.315   2.532   2.665
 4779SOL    HW214670   3.400   2.656   2.603
 4780SOL     OW14671   2.323   3.128   3.589
 4780SOL    HW114672   2.273   3.129   3.503
 4780SOL    HW214673   2.260   3.110   3.665
 4781SOL     OW14674   2.973   3.638   2.099
 4781SOL    HW114675   2.913   3.576   2.149
 4781SOL    HW214676   3.004   3.594   2.014
 4782SOL     OW14677   3.494   3.239   1.943
 4782SOL    HW114678   3.462   3.333   1.933
 4782SOL    HW214679   3.418   3.176   1.931
 4783SOL     OW14680   2.326   3.605   2.185
 4783SOL    HW114681   2.359   3.644   2.271
 4783SOL    HW214682   2.402   3.598   2.120
 4784SOL     OW14683   3.262   1.969   2.288
 4784SOL    HW114684   3.238   1.932   2.198
 4784SOL    HW214685   3.361   1.985   2.292
 4785SOL     OW14686   2.111   3.647   3.103
 4785SOL    HW114687   2.168   3.582   3.153
 4785SOL    HW214688   2.095   3.614   3.010
 4786SOL     OW14689   2.802   3.560   2.766
 4786SOL    HW114690   2.882   3.503   2.787
 4786SOL    HW214691   2.753   3.520   2.689
 4787SOL     OW14692   2.244   2.562   2.342
 4787SOL    HW114693   2.289   2.472   2.339
 4787SOL    HW214694   2.150   2.551   2.375
 4788SOL     OW14695   3.409   2.084   3.591
 4788SOL    HW114696   3.404   2.121   3.683
 4788SOL    HW214697   3.337   2.015   3.579
 4789SOL     OW14698   2.476   1.984   1.979
 4789SOL    HW114699   2.574   1.962   1.986
 4789SOL    HW214700   2.445   1.967   1.886
 4790SOL     OW14701   2.643   2.126   3.611
 4790SOL    HW114702   2.710   2.065   3.654
 4790SOL    HW214703   2.570   2.145   3.676
 4791SOL     OW14704   2.750   3.376   3.057
 4791SOL    HW114705   2.727   3.351   2.963
 4791SOL    HW214706   2.811   3.307   3.096
 4792SOL     OW14707   3.213   2.452   3.295
 4792SOL    HW114708   3.241   2.409   3.380
 4792SOL    HW214709   3.238   2.548   3.296
 4793SOL     OW14710   2.665   3.264   2.786
 4793SOL    HW114711   2.755   3.278   2.744
 4793SOL    HW214712   2.594   3.266   2.715
 4794SOL     OW14713   2.784   2.365   2.761
 4794SOL    HW114714   2.759   2.356   2.665
 4794SOL    HW214715   2.832   2.283   2.792
 4795SOL     OW14716   2.401   1.926   2.374
 4795SOL    HW114717   2.320   1.927   2.432
 4795SOL    HW214718   2.404   2.009   2.319
 4796SOL     OW14719   3.296   3.050   1.903
 4796SOL    HW114720   3.328   2.974   1.960
 4796SOL    HW214721   3.204   3.077   1.933
 4797SOL     OW14722   2.159   1.897   2.033
 4797SOL    HW114723   2.208   1.981   2.012
 4797SOL    HW214724   2.221   1.832   2.078
 4798SOL     OW14725   2.797   2.098   2.342
 4798SOL    HW114726   2.749   2.139   2.264
 4798SOL    HW214727   2.896   2.096   2.323
 4799SOL     OW14728   2.938   2.545   3.326
 4799SOL    HW114729   2.858   2.484   3.329
 4799SOL    HW214730   3.019   2.492   3.302
 4800SOL     OW14731   3.089   3.432   2.655
 4800SOL    HW114732   3.110   3.506   2.590
 4800SOL    HW214733   3.157   3.432   2.728
 4801SOL     OW14734   2.321   3.014   2.603
 4801SOL    HW114735   2.250   2.987   2.668
 4801SOL    HW214736   2.295   2.986   2.510
 4802SOL     OW14737   3.133   3.659   2.453
 4802SOL    HW114738   3.177   3.723   2.389
 4802SOL    HW214739   3.083   3.711   2.523
 4803SOL     OW14740   2.894   2.411   1.878
 4803SOL    HW114741   2.853   2.493   1.839
 4803SOL    HW214742   2.958   2.437   1.951
 4804SOL     OW14743   1.940   2.418   3.248
 4804SOL    HW114744   2.032   2.417   3.207
 4804SOL    HW214745   1.934   2.492   3.315
 4805SOL     OW14746   2.728   2.316   2.504
 4805SOL    HW114747   2.696   2.388   2.442
 4805SOL    HW214748   2.752   2.235   2.451
 4806SOL     OW14749   2.879   1.901   2.615
 4806SOL    HW114750   2.807   1.906   2.546
 4806SOL    HW214751   2.855   1.832   2.684
 4807SOL     OW14752   3.291   3.035   2.729
 4807SOL    HW114753   3.236   2.951   2.722
 4807SOL    HW214754   3.317   3.064   2.637
 4808SOL     OW14755   3.328   2.452   2.854
 4808SOL    HW114756   3.298   2.357   2.861
 4808SOL    HW214757   3.401   2.468   2.920
 4809SOL     OW14758   3.719   2.695   2.239
 4809SOL    HW114759   3.761   2.631   2.303
 4809SOL    HW214760   3.681   2.644   2.161
 4810SOL     OW14761   2.350   3.247   2.036
 4810SOL    HW114762   2.263   3.232   2.083
 4810SOL    HW214763   2.333   3.273   1.941
 4811SOL     OW14764   3.526   3.142   2.519
 4811SOL    HW114765   3.625   3.150   2.533
 4811SOL    HW214766   3.481   3.226   2.550
 4812SOL     OW14767   3.252   2.437   1.940
 4812SOL    HW114768   3.198   2.416   2.021
 4812SOL    HW214769   3.343   2.396   1.949
 4813SOL     OW14770   3.616   3.085   3.450
 4813SOL    HW114771   3.707   3.046   3.437
 4813SOL    HW214772   3.624   3.181   3.474
 4814SOL     OW14773   2.926   3.209   3.202
 4814SOL    HW114774   2.846   3.186   3.257
 4814SOL    HW214775   3.009   3.183   3.251
 4815SOL     OW14776   3.454   3.491   3.487
 4815SOL    HW114777   3.481   3.525   3.397
 4815SOL    HW214778   3.533   3.453   3.533
 4816SOL     OW14779   2.973   3.057   2.962
 4816SOL    HW114780   2.933   3.101   3.043
 4816SOL    HW214781   2.932   3.094   2.879
 4817SOL     OW14782   3.500   2.961   2.941
 4817SOL    HW114783   3.505   3.042   3.000
 4817SOL    HW214784   3.414   2.963   2.890
 4818SOL     OW14785   2.777   1.951   3.264
 4818SOL    HW114786   2.802   1.931   3.169
 4818SOL    HW214787   2.849   2.007   3.306
 4819SOL     OW14788   2.842   2.978   3.581
 4819SOL    HW114789   2.743   2.984   3.591
 4819SOL    HW214790   2.865   2.898   3.525
 4820SOL     OW14791   2.567   2.912   2.230
 4820SOL    HW114792   2.553   2.919   2.329
 4820SOL    HW214793   2.651   2.861   2.212
 4821SOL     OW14794   2.272   2.675   3.113
 4821SOL    HW114795   2.358   2.687   3.163
 4821SOL    HW214796   2.230   2.588   3.140
 4822SOL     OW14797   3.136   2.248   3.124
 4822SOL    HW114798   3.157   2.322   3.188
 4822SOL    HW214799   3.047   2.265   3.081
 4823SOL     OW14800   1.926   3.426   3.193
 4823SOL    HW114801   1.880   3.508   3.159
 4823SOL    HW214802   2.024   3.445   3.202
 4824SOL     OW14803   2.229   2.962   2.363
 4824SOL    HW114804   2.222   3.045   2.307
 4824SOL    HW214805   2.233   2.882   2.303
 4825SOL     OW14806   2.428   2.399   2.727
 4825SOL    HW114807   2.440   2.465   2.653
 4825SOL    HW214808   2.474   2.433   2.810
 4826SOL     OW14809   3.114   3.210   2.250
 4826SOL    HW114810   3.164   3.287   2.290
 4826SOL    HW214811   3.019   3.212   2.282
 4827SOL     OW14812   3.134   3.307   3.004
 4827SOL    HW114813   3.181   3.320   3.091
 4827SOL    HW214814   3.068   3.233   3.013
 4828SOL     OW14815   3.444   2.501   2.334
 4828SOL    HW114816   3.413   2.562   2.407
 4828SOL    HW214817   3.494   2.553   2.265
 4829SOL     OW14818   2.216   3.372   3.191
 4829SOL    HW114819   2.195   3.328   3.104
 4829SOL    HW214820   2.313   3.398   3.194
 4830SOL     OW14821   2.264   2.613   3.460
 4830SOL    HW114822   2.332   2.668   3.413
 4830SOL    HW214823   2.304   2.525   3.487
 4831SOL     OW14824   3.449   2.641   3.532
 4831SOL    HW114825   3.357   2.679   3.527
 4831SOL    HW214826   3.509   2.688   3.467
 4832SOL     OW14827   2.875   1.967   3.632
 4832SOL    HW114828   2.881   2.052   3.580
 4832SOL    HW214829   2.907   1.891   3.575
 4833SOL     OW14830   2.366   1.912   3.602
 4833SOL    HW114831   2.324   1.855   3.532
 4833SOL    HW214832   2.300   1.981   3.634
 4834SOL     OW14833   2.435   2.732   2.891
 4834SOL    HW114834   2.479   2.821   2.882
 4834SOL    HW214835   2.372   2.732   2.968
 4835SOL     OW14836   3.222   2.724   2.907
 4835SOL    HW114837   3.147   2.724   2.841
 4835SOL    HW214838   3.259   2.632   2.916
 4836SOL     OW14839   3.071   2.387   2.137
 4836SOL    HW114840   3.084   2.303   2.191
 4836SOL    HW214841   3.042   2.461   2.197
 4837SOL     OW14842   1.899   3.172   3.144
 4837SOL    HW114843   1.952   3.123   3.212
 4837SOL    HW214844   1.921   3.270   3.149
 4838SOL     OW14845   2.594   2.496   2.926
 4838SOL    HW114846   2.653   2.470   2.850
 4838SOL    HW214847   2.566   2.592   2.915
 4839SOL     OW14848   3.590   2.797   3.716
 4839SOL    HW114849   3.544   2.790   3.627
 4839SOL    HW214850   3.528   2.841   3.782
 4840SOL     OW14851   3.484   2.229   2.236
 4840SOL    HW114852   3.486   2.153   2.300
 4840SOL    HW214853   3.436   2.306   2.276
 4841SOL     OW14854   2.885   2.628   2.828
 4841SOL    HW114855   2.900   2.649   2.924
 4841SOL    HW214856   2.855   2.533   2.819
 4842SOL     OW14857   2.842   3.435   3.562
 4842SOL    HW114858   2.822   3.479   3.474
 4842SOL    HW214859   2.881   3.344   3.546
 4843SOL     OW14860   3.721   3.380   3.467
 4843SOL    HW114861   3.735   3.407   3.372
 4843SOL    HW214862   3.804   3.402   3.520
 4844SOL     OW14863   2.212   2.760   3.666
 4844SOL    HW114864   2.288   2.804   3.714
 4844SOL    HW214865   2.247   2.713   3.584
 4845SOL     OW14866   3.402   2.136   1.987
 4845SOL    HW114867   3.341   2.061   2.010
 4845SOL    HW214868   3.424   2.188   2.070
 4846SOL     OW14869   3.165   2.700   1.904
 4846SOL    HW114870   3.199   2.607   1.919
 4846SOL    HW214871   3.183   2.727   1.809
 4847SOL     OW14872   2.930   3.195   2.711
 4847SOL    HW114873   2.937   3.111   2.656
 4847SOL    HW214874   2.992   3.264   2.675
 4848SOL     OW14875   2.181   2.672   2.811
 4848SOL    HW114876   2.274   2.708   2.816
 4848SOL    HW214877   2.175   2.587   2.863
 4849SOL     OW14878   3.000   2.242   3.540
 4849SOL    HW114879   2.955   2.305   3.604
 4849SOL    HW214880   3.093   2.273   3.523
 4850SOL     OW14881   3.022   2.069   3.339
 4850SOL    HW114882   3.022   2.133   3.416
 4850SOL    HW214883   3.050   2.117   3.256
 4851SOL     OW14884   1.870   3.188   2.062
 4851SOL    HW114885   1.777   3.209   2.031
 4851SOL    HW214886   1.880   3.089   2.075
 4852SOL     OW14887   1.950   3.663   2.789
 4852SOL    HW114888   1.908   3.577   2.762
 4852SOL    HW214889   2.044   3.666   2.755
 4853SOL     OW14890   2.366   3.430   2.772
 4853SOL    HW114891   2.432   3.504   2.781
 4853SOL    HW214892   2.410   3.351   2.730
 4854SOL     OW14893   2.864   2.658   3.100
 4854SOL    HW114894   2.905   2.626   3.186
 4854SOL    HW214895   2.768   2.631   3.097
 4855SOL     OW14896   1.902   2.406   2.976
 4855SOL    HW114897   1.987   2.373   2.935
 4855SOL    HW214898   1.915   2.421   3.074
 4856SOL     OW14899   2.051   2.382   3.584
 4856SOL    HW114900   2.110   2.342   3.514
 4856SOL    HW214901   1.993   2.453   3.543
 4857SOL     OW14902   3.231   2.812   3.522
 4857SOL    HW114903   3.270   2.901   3.542
 4857SOL    HW214904   3.241   2.792   3.425
 4858SOL     OW14905   2.677   2.434   2.187
 4858SOL    HW114906   2.684   2.345   2.141
 4858SOL    HW214907   2.583   2.468   2.179
 4859SOL     OW14908   3.519   2.466   3.068
 4859SOL    HW114909   3.481   2.397   3.130
 4859SOL    HW214910   3.601   2.430   3.024
 4860SOL     OW14911   2.114   3.426   3.606
 4860SOL    HW114912   2.084   3.483   3.682
 4860SOL    HW214913   2.107   3.329   3.632
 4861SOL     OW14914   2.533   2.326   3.131
 4861SOL    HW114915   2.499   2.237   3.101
 4861SOL    HW214916   2.559   2.380   3.051
 4862SOL     OW14917   2.792   3.540   3.327
 4862SOL    HW114918   2.768   3.522   3.232
 4862SOL    HW214919   2.822   3.634   3.337
 4863SOL     OW14920   2.335   2.362   2.053
 4863SOL    HW114921   2.396   2.442   2.057
 4863SOL    HW214922   2.240   2.393   2.060
 4864SOL     OW14923   2.021   2.999   3.328
 4864SOL    HW114924   2.043   2.938   3.404
 4864SOL    HW214925   2.031   2.950   3.242
 4865SOL     OW14926   3.209   2.921   3.096
 4865SOL    HW114927   3.233   2.858   3.022
 4865SOL    HW214928   3.119   2.961   3.078
 4866SOL     OW14929   3.164   2.717   2.171
 4866SOL    HW114930   3.078   2.686   2.213
 4866SOL    HW214931   3.160   2.703   2.072
 4867SOL     OW14932   3.621   3.609   3.016
 4867SOL    HW114933   3.682   3.639   2.943
 4867SOL    HW214934   3.583   3.520   2.994
 4868SOL     OW14935   3.114   3.593   2.990
 4868SOL    HW114936   3.198   3.598   2.936
 4868SOL    HW214937   3.091   3.497   3.008
 4869SOL     OW14938   1.945   3.120   2.884
 4869SOL    HW114939   1.940   3.119   2.984
 4869SOL    HW214940   1.862   3.079   2.846
 4870SOL     OW14941   2.550   3.524   3.578
 4870SOL    HW114942   2.494   3.605   3.587
 4870SOL    HW214943   2.602   3.528   3.492
 4871SOL     OW14944   3.588   1.997   2.385
 4871SOL    HW114945   3.661   1.980   2.318
 4871SOL    HW214946   3.557   1.910   2.423
 4872SOL     OW14947   3.250   3.435   2.339
 4872SOL    HW114948   3.317   3.447   2.265
 4872SOL    HW214949   3.210   3.524   2.362
 4873SOL     OW14950   1.992   3.656   3.713
 4873SOL    HW114951   1.951   3.582   3.766
 4873SOL    HW214952   2.056   3.707   3.771
 4874SOL     OW14953   3.142   2.789   2.534
 4874SOL    HW114954   3.202   2.708   2.536
 4874SOL    HW214955   3.182   2.858   2.474
 4875SOL     OW14956   2.692   3.135   3.284
 4875SOL    HW114957   2.687   3.168   3.379
 4875SOL    HW214958   2.606   3.154   3.238
 4876SOL     OW14959   2.534   3.478   2.016
 4876SOL    HW114960   2.543   3.488   1.917
 4876SOL    HW214961   2.494   3.389   2.037
 4877SOL     OW14962   3.512   3.582   3.256
 4877SOL    HW114963   3.565   3.592   3.172
 4877SOL    HW214964   3.485   3.672   3.290
 4878SOL     OW14965   3.703   2.037   2.825
 4878SOL    HW114966   3.742   1.952   2.789
 4878SOL    HW214967   3.605   2.039   2.806
 4879SOL     OW14968   3.056   3.474   1.893
 4879SOL    HW114969   3.062   3.381   1.930
 4879SOL    HW214970   2.997   3.474   1.813
 4880SOL     OW14971   2.684   2.864   3.234
 4880SOL    HW114972   2.724   2.863   3.142
 4880SOL    HW214973   2.694   2.956   3.274
 4881SOL     OW14974   2.778   2.772   2.153
 4881SOL    HW114975   2.841   2.810   2.085
 4881SOL    HW214976   2.818   2.689   2.192
 4882SOL     OW14977   3.366   3.469   1.906
 4882SOL    HW114978   3.274   3.506   1.913
 4882SOL    HW214979   3.404   3.489   1.816
 4883SOL     OW14980   2.234   3.150   3.352
 4883SOL    HW114981   2.221   3.243   3.318
 4883SOL    HW214982   2.150   3.098   3.339
 4884SOL     OW14983   3.476   3.154   3.151
 4884SOL    HW114984   3.536   3.157   3.231
 4884SOL    HW214985   3.401   3.218   3.164
 4885SOL     OW14986   2.901   2.960   2.558
 4885SOL    HW114987   2.831   2.913   2.612
 4885SOL    HW214988   2.960   2.892   2.515
 4886SOL     OW14989   2.876   2.098   2.833
 4886SOL    HW114990   2.868   2.062   2.740
 4886SOL    HW214991   2.874   2.022   2.898
 4887SOL     OW14992   2.452   3.349   2.353
 4887SOL    HW114993   2.494   3.291   2.283
 4887SOL    HW214994   2.408   3.428   2.309
 4888SOL     OW14995   3.571   2.247   3.243
 4888SOL    HW114996   3.644   2.316   3.247
 4888SOL    HW214997   3.599   2.172   3.184
 4889SOL     OW14998   2.117   3.210   2.152
 4889SOL    HW114999   2.021   3.211   2.125
 4889SOL    HW215000   2.129   3.263   2.236
 4890SOL     OW15001   1.967   2.875   3.588
 4890SOL    HW115002   1.890   2.842   3.642
 4890SOL    HW215003   2.052   2.845   3.630
 4891SOL     OW15004   2.534   2.065   3.351
 4891SOL    HW115005   2.624   2.049   3.311
 4891SOL    HW215006   2.542   2.070   3.450
 4892SOL     OW15007   3.302   2.718   3.260
 4892SOL    HW115008   3.245   2.770   3.197
 4892SOL    HW215009   3.398   2.730   3.236
 4893SOL     OW15010   3.045   3.197   1.981
 4893SOL    HW115011   2.946   3.186   1.983
 4893SOL    HW215012   3.079   3.212   2.074
 4894SOL     OW15013   2.475   2.704   3.293
 4894SOL    HW115014   2.531   2.785   3.276
 4894SOL    HW215015   2.534   2.624   3.296
 4895SOL     OW15016   3.355   3.629   2.821
 4895SOL    HW115017   3.388   3.693   2.752
 4895SOL    HW215018   3.421   3.623   2.896
 4896SOL     OW15019   2.578   2.427   3.570
 4896SOL    HW115020   2.597   2.492   3.644
 4896SOL    HW215021   2.638   2.347   3.579
 4897SOL     OW15022   3.312   3.082   3.495
 4897SOL    HW115023   3.303   3.072   3.594
 4897SOL    HW215024   3.408   3.075   3.469
 4898SOL     OW15025   2.252   3.603   3.422
 4898SOL    HW115026   2.161   3.644   3.420
 4898SOL    HW215027   2.245   3.509   3.454
 4899SOL     OW15028   3.536   2.745   3.116
 4899SOL    HW115029   3.509   2.656   3.079
 4899SOL    HW215030   3.537   2.813   3.043
 4900SOL     OW15031   3.087   2.187   2.311
 4900SOL    HW115032   3.152   2.113   2.300
 4900SOL    HW215033   3.107   2.237   2.395
 4901SOL     OW15034   2.456   2.607   2.514
 4901SOL    HW115035   2.506   2.692   2.495
 4901SOL    HW215036   2.368   2.609   2.466
 4902SOL     OW15037   3.639   2.204   3.504
 4902SOL    HW115038   3.622   2.235   3.410
 4902SOL    HW215039   3.555   2.167   3.542
 4903SOL     OW15040   3.592   2.796   3.379
 4903SOL    HW115041   3.630   2.887   3.394
 4903SOL    HW215042   3.584   2.779   3.280
 4904SOL     OW15043   2.721   3.236   1.878
 4904SOL    HW115044   2.675   3.251   1.966
 4904SOL    HW215045   2.765   3.321   1.848
 4905SOL     OW15046   2.523   3.652   2.815
 4905SOL    HW115047   2.477   3.740   2.802
 4905SOL    HW215048   2.622   3.664   2.808
 4906SOL     OW15049   2.721   2.818   2.723
 4906SOL    HW115050   2.775   2.749   2.771
 4906SOL    HW215051   2.689   2.887   2.789
 4907SOL     OW15052   2.945   2.846   1.949
 4907SOL    HW115053   2.922   2.899   1.867
 4907SOL    HW215054   3.026   2.790   1.930
 4908SOL     OW15055   3.723   3.431   2.713
 4908SOL    HW115056   3.652   3.419   2.643
 4908SOL    HW215057   3.724   3.352   2.773
 4909SOL     OW15058   2.083   3.176   3.706
 4909SOL    HW115059   2.018   3.103   3.685
 4909SOL    HW215060   2.087   3.190   3.804
 4910SOL     OW15061   1.941   3.102   2.515
 4910SOL    HW115062   1.940   3.055   2.603
 4910SOL    HW215063   2.023   3.074   2.464
 4911SOL     OW15064   2.534   3.253   3.486
 4911SOL    HW115065   2.456   3.203   3.524
 4911SOL    HW215066   2.531   3.348   3.517
 4912SOL     OW15067   3.686   2.054   3.089
 4912SOL    HW115068   3.682   1.964   3.133
 4912SOL    HW215069   3.689   2.043   2.990
 4913SOL     OW15070   3.567   3.349   2.966
 4913SOL    HW115071   3.474   3.324   2.939
 4913SOL    HW215072   3.593   3.299   3.048
 4914SOL     OW15073   2.674   3.448   2.549
 4914SOL    HW115074   2.706   3.458   2.455
 4914SOL    HW215075   2.595   3.386   2.551
 4915SOL     OW15076   3.286   2.076   2.974
 4915SOL    HW115077   3.338   2.011   3.029
 4915SOL    HW215078   3.237   2.139   3.035
 4916SOL     OW15079   2.863   1.896   3.016
 4916SOL    HW115080   2.800   1.824   2.985
 4916SOL    HW215081   2.956   1.860   3.016
 4917SOL     OW15082   2.632   3.192   2.163
 4917SOL    HW115083   2.586   3.105   2.180
 4917SOL    HW215084   2.723   3.189   2.204
 4918SOL     OW15085   2.480   3.429   3.146
 4918SOL    HW115086   2.475   3.511   3.203
 4918SOL    HW215087   2.569   3.426   3.101
 4919SOL     OW15088   3.214   1.914   2.030
 4919SOL    HW115089   3.249   1.873   1.946
 4919SOL    HW215090   3.124   1.876   2.050
 4920SOL     OW15091   3.162   2.315   2.553
 4920SOL    HW115092   3.103   2.395   2.557
 4920SOL    HW215093   3.177   2.280   2.646
 4921SOL     OW15094   3.455   2.083   2.744
 4921SOL    HW115095   3.371   2.082   2.798
 4921SOL    HW215096   3.457   2.166   2.688
 4922SOL     OW15097   1.901   2.939   2.162
 4922SOL    HW115098   2.000   2.928   2.153
 4922SOL    HW215099   1.861   2.853   2.194
 4923SOL     OW15100   2.737   3.508   2.199
 4923SOL    HW115101   2.660   3.473   2.145
 4923SOL    HW215102   2.705   3.579   2.261
 4924SOL     OW15103   2.092   2.490   3.837
 4924SOL    HW115104   1.999   2.488   3.874
 4924SOL    HW215105   2.093   2.451   3.745
 4925SOL     OW15106   1.881   2.230   4.371
 4925SOL    HW115107   1.799   2.273   4.410
 4925SOL    HW215108   1.853   2.157   4.308
 4926SOL     OW15109   2.431   3.137   4.889
 4926SOL    HW115110   2.338   3.130   4.852
 4926SOL    HW215111   2.442   3.226   4.933
 4927SOL     OW15112   3.417   3.373   4.427
 4927SOL    HW115113   3.360   3.357   4.508
 4927SOL    HW215114   3.358   3.383   4.347
 4928SOL     OW15115   2.997   2.565   4.441
 4928SOL    HW115116   3.054   2.643   4.416
 4928SOL    HW215117   2.937   2.591   4.517
 4929SOL     OW15118   3.617   2.469   3.955
 4929SOL    HW115119   3.605   2.456   3.856
 4929SOL    HW215120   3.587   2.388   4.004
 4930SOL     OW15121   2.630   3.006   4.747
 4930SOL    HW115122   2.552   3.023   4.807
 4930SOL    HW215123   2.664   3.093   4.711
 4931SOL     OW15124   2.712   2.660   5.547
 4931SOL    HW115125   2.708   2.736   5.612
 4931SOL    HW215126   2.734   2.696   5.456
 4932SOL     OW15127   2.547   2.874   4.389
 4932SOL    HW115128   2.616   2.858   4.459
 4932SOL    HW215129   2.474   2.931   4.427
 4933SOL     OW15130   2.548   3.023   5.527
 4933SOL    HW115131   2.608   3.102   5.541
 4933SOL    HW215132   2.462   3.054   5.486
 4934SOL     OW15133   2.197   3.297   4.785
 4934SOL    HW115134   2.119   3.266   4.732
 4934SOL    HW215135   2.255   3.355   4.728
 4935SOL     OW15136   3.322   3.367   5.063
 4935SOL    HW115137   3.346   3.461   5.089
 4935SOL    HW215138   3.306   3.313   5.145
 4936SOL     OW15139   3.465   2.309   4.461
 4936SOL    HW115140   3.391   2.355   4.411
 4936SOL    HW215141   3.516   2.377   4.514
 4937SOL     OW15142   2.093   3.575   4.207
 4937SOL    HW115143   2.127   3.652   4.261
 4937SOL    HW215144   2.137   3.575   4.117
 4938SOL     OW15145   2.989   3.203   5.414
 4938SOL    HW115146   3.036   3.203   5.502
 4938SOL    HW215147   2.941   3.116   5.403
 4939SOL     OW15148   2.092   3.296   4.262
 4939SOL    HW115149   2.066   3.392   4.262
 4939SOL    HW215150   2.021   3.242   4.307
 4940SOL     OW15151   2.102   2.953   4.610
 4940SOL    HW115152   2.116   2.869   4.662
 4940SOL    HW215153   2.047   3.017   4.665
 4941SOL     OW15154   2.482   3.648   5.163
 4941SOL    HW115155   2.390   3.631   5.198
 4941SOL    HW215156   2.510   3.740   5.189
 4942SOL     OW15157   2.468   2.826   3.847
 4942SOL    HW115158   2.475   2.910   3.793
 4942SOL    HW215159   2.514   2.839   3.935
 4943SOL     OW15160   3.456   1.976   5.204
 4943SOL    HW115161   3.438   2.043   5.132
 4943SOL    HW215162   3.453   2.022   5.293
 4944SOL     OW15163   1.984   2.505   4.287
 4944SOL    HW115164   1.939   2.417   4.304
 4944SOL    HW215165   1.983   2.559   4.371
 4945SOL     OW15166   3.704   3.629   4.083
 4945SOL    HW115167   3.758   3.600   4.163
 4945SOL    HW215168   3.734   3.719   4.054
 4946SOL     OW15169   1.889   3.458   3.841
 4946SOL    HW115170   1.870   3.362   3.862
 4946SOL    HW215171   1.856   3.516   3.916
 4947SOL     OW15172   3.551   2.784   4.336
 4947SOL    HW115173   3.646   2.755   4.344
 4947SOL    HW215174   3.543   2.849   4.261
 4948SOL     OW15175   3.503   2.970   4.156
 4948SOL    HW115176   3.589   2.972   4.104
 4948SOL    HW215177   3.517   3.017   4.244
 4949SOL     OW15178   1.975   2.599   5.321
 4949SOL    HW115179   2.063   2.586   5.366
 4949SOL    HW215180   1.962   2.696   5.299
 4950SOL     OW15181   2.475   3.227   4.450
 4950SOL    HW115182   2.426   3.140   4.459
 4950SOL    HW215183   2.452   3.270   4.363
 4951SOL     OW15184   3.155   3.090   5.147
 4951SOL    HW115185   3.192   3.017   5.089
 4951SOL    HW215186   3.207   3.095   5.232
 4952SOL     OW15187   2.671   1.866   4.226
 4952SOL    HW115188   2.711   1.957   4.217
 4952SOL    HW215189   2.571   1.874   4.232
 4953SOL     OW15190   2.059   2.838   4.988
 4953SOL    HW115191   2.148   2.793   4.974
 4953SOL    HW215192   1.986   2.773   4.969
 4954SOL     OW15193   3.387   2.861   3.914
 4954SOL    HW115194   3.324   2.785   3.927
 4954SOL    HW215195   3.435   2.879   4.000
 4955SOL     OW15196   3.049   3.654   5.340
 4955SOL    HW115197   3.073   3.714   5.264
 4955SOL    HW215198   3.056   3.559   5.310
 4956SOL     OW15199   3.328   3.279   4.677
 4956SOL    HW115200   3.269   3.285   4.757
 4956SOL    HW215201   3.313   3.191   4.631
 4957SOL     OW15202   3.529   3.576   4.296
 4957SOL    HW115203   3.488   3.553   4.208
 4957SOL    HW215204   3.511   3.502   4.361
 4958SOL     OW15205   2.460   2.591   3.994
 4958SOL    HW115206   2.484   2.660   3.926
 4958SOL    HW215207   2.382   2.624   4.048
 4959SOL     OW15208   3.143   2.207   4.668
 4959SOL    HW115209   3.057   2.157   4.655
 4959SOL    HW215210   3.205   2.153   4.724
 4960SOL     OW15211   3.438   3.524   4.031
 4960SOL    HW115212   3.527   3.570   4.034
 4960SOL    HW215213   3.417   3.500   3.936
 4961SOL     OW15214   2.669   2.467   5.189
 4961SOL    HW115215   2.622   2.464   5.278
 4961SOL    HW215216   2.618   2.412   5.123
 4962SOL     OW15217   3.256   2.331   5.398
 4962SOL    HW115218   3.236   2.374   5.486
 4962SOL    HW215219   3.334   2.269   5.407
 4963SOL     OW15220   2.835   2.752   5.296
 4963SOL    HW115221   2.881   2.668   5.267
 4963SOL    HW215222   2.779   2.786   5.221
 4964SOL     OW15223   2.853   2.272   4.966
 4964SOL    HW115224   2.776   2.306   5.020
 4964SOL    HW215225   2.819   2.221   4.887
 4965SOL     OW15226   2.903   2.563   4.153
 4965SOL    HW115227   2.929   2.559   4.249
 4965SOL    HW215228   2.818   2.512   4.139
 4966SOL     OW15229   1.938   2.673   4.513
 4966SOL    HW115230   2.037   2.661   4.522
 4966SOL    HW215231   1.914   2.768   4.534
 4967SOL     OW15232   1.992   3.683   5.295
 4967SOL    HW115233   1.982   3.668   5.394
 4967SOL    HW215234   1.906   3.719   5.259
 4968SOL     OW15235   2.727   2.210   3.919
 4968SOL    HW115236   2.786   2.273   3.870
 4968SOL    HW215237   2.746   2.116   3.890
 4969SOL     OW15238   3.581   2.447   5.555
 4969SOL    HW115239   3.555   2.536   5.519
 4969SOL    HW215240   3.579   2.379   5.482
 4970SOL     OW15241   3.224   3.006   4.269
 4970SOL    HW115242   3.307   2.977   4.221
 4970SOL    HW215243   3.175   3.073   4.213
 4971SOL     OW15244   2.412   2.058   4.609
 4971SOL    HW115245   2.407   2.053   4.709
 4971SOL    HW215246   2.414   2.154   4.580
 4972SOL     OW15247   2.870   3.318   4.201
 4972SOL    HW115248   2.824   3.390   4.149
 4972SOL    HW215249   2.866   3.338   4.299
 4973SOL     OW15250   2.213   3.663   4.577
 4973SOL    HW115251   2.263   3.577   4.583
 4973SOL    HW215252   2.278   3.740   4.574
 4974SOL     OW15253   3.657   2.928   4.597
 4974SOL    HW115254   3.595   2.913   4.521
 4974SOL    HW215255   3.605   2.939   4.682
 4975SOL     OW15256   3.089   3.412   5.230
 4975SOL    HW115257   3.095   3.335   5.294
 4975SOL    HW215258   3.037   3.386   5.150
 4976SOL     OW15259   2.183   2.805   3.966
 4976SOL    HW115260   2.265   2.844   3.924
 4976SOL    HW215261   2.156   2.723   3.917
 4977SOL     OW15262   3.320   2.597   4.452
 4977SOL    HW115263   3.315   2.532   4.527
 4977SOL    HW215264   3.400   2.656   4.465
 4978SOL     OW15265   2.323   3.128   5.451
 4978SOL    HW115266   2.273   3.129   5.365
 4978SOL    HW215267   2.260   3.110   5.527
 4979SOL     OW15268   2.973   3.638   3.961
 4979SOL    HW115269   2.913   3.576   4.011
 4979SOL    HW215270   3.004   3.594   3.876
 4980SOL     OW15271   3.494   3.239   3.805
 4980SOL    HW115272   3.462   3.333   3.795
 4980SOL    HW215273   3.418   3.176   3.793
 4981SOL     OW15274   2.326   3.605   4.047
 4981SOL    HW115275   2.359   3.644   4.133
 4981SOL    HW215276   2.402   3.598   3.982
 4982SOL     OW15277   3.262   1.969   4.150
 4982SOL    HW115278   3.238   1.932   4.060
 4982SOL    HW215279   3.361   1.985   4.154
 4983SOL     OW15280   2.111   3.647   4.965
 4983SOL    HW115281   2.168   3.582   5.015
 4983SOL    HW215282   2.095   3.614   4.872
 4984SOL     OW15283   2.802   3.560   4.628
 4984SOL    HW115284   2.882   3.503   4.649
 4984SOL    HW215285   2.753   3.520   4.551
 4985SOL     OW15286   2.244   2.562   4.204
 4985SOL    HW115287   2.289   2.472   4.201
 4985SOL    HW215288   2.150   2.551   4.237
 4986SOL     OW15289   3.409   2.084   5.453
 4986SOL    HW115290   3.404   2.121   5.545
 4986SOL    HW215291   3.337   2.015   5.441
 4987SOL     OW15292   2.476   1.984   3.841
 4987SOL    HW115293   2.574   1.962   3.848
 4987SOL    HW215294   2.445   1.967   3.748
 4988SOL     OW15295   2.643   2.126   5.473
 4988SOL    HW115296   2.710   2.065   5.516
 4988SOL    HW215297   2.570   2.145   5.538
 4989SOL     OW15298   2.750   3.376   4.919
 4989SOL    HW115299   2.727   3.351   4.825
 4989SOL    HW215300   2.811   3.307   4.958
 4990SOL     OW15301   3.213   2.452   5.157
 4990SOL    HW115302   3.241   2.409   5.242
 4990SOL    HW215303   3.238   2.548   5.158
 4991SOL     OW15304   2.665   3.264   4.648
 4991SOL    HW115305   2.755   3.278   4.606
 4991SOL    HW215306   2.594   3.266   4.577
 4992SOL     OW15307   2.784   2.365   4.623
 4992SOL    HW115308   2.759   2.356   4.527
 4992SOL    HW215309   2.832   2.283   4.654
 4993SOL     OW15310   2.401   1.926   4.236
 4993SOL    HW115311   2.320   1.927   4.294
 4993SOL    HW215312   2.404   2.009   4.181
 4994SOL     OW15313   3.296   3.050   3.765
 4994SOL    HW115314   3.328   2.974   3.822
 4994SOL    HW215315   3.204   3.077   3.795
 4995SOL     OW15316   2.159   1.897   3.895
 4995SOL    HW115317   2.208   1.981   3.874
 4995SOL    HW215318   2.221   1.832   3.940
 4996SOL     OW15319   2.797   2.098   4.204
 4996SOL    HW115320   2.749   2.139   4.126
 4996SOL    HW215321   2.896   2.096   4.185
 4997SOL     OW15322   2.938   2.545   5.188
 4997SOL    HW115323   2.858   2.484   5.191
 4997SOL    HW215324   3.019   2.492   5.164
 4998SOL     OW15325   3.089   3.432   4.517
 4998SOL    HW115326   3.110   3.506   4.452
 4998SOL    HW215327   3.157   3.432   4.590
 4999SOL     OW15328   2.321   3.014   4.465
 4999SOL    HW115329   2.250   2.987   4.530
 4999SOL    HW215330   2.295   2.986   4.372
 5000SOL     OW15331   3.133   3.659   4.315
 5000SOL    HW115332   3.177   3.723   4.251
 5000SOL    HW215333   3.083   3.711   4.385
 5001SOL     OW15334   2.894   2.411   3.740
 5001SOL    HW115335   2.853   2.493   3.701
 5001SOL    HW215336   2.958   2.437   3.813
 5002SOL     OW15337   1.940   2.418   5.110
 5002SOL    HW115338   2.032   2.417   5.069
 5002SOL    HW215339   1.934   2.492   5.177
 5003SOL     OW15340   2.728   2.316   4.366
 5003SOL    HW115341   2.696   2.388   4.304
 5003SOL    HW215342   2.752   2.235   4.313
 5004SOL     OW15343   2.879   1.901   4.477
 5004SOL    HW115344   2.807   1.906   4.408
 5004SOL    HW215345   2.855   1.832   4.546
 5005SOL     OW15346   3.291   3.035   4.591
 5005SOL    HW115347   3.236   2.951   4.584
 5005SOL    HW215348   3.317   3.064   4.499
 5006SOL     OW15349   3.328   2.452   4.716
 5006SOL    HW115350   3.298   2.357   4.723
 5006SOL    HW215351   3.401   2.468   4.782
 5007SOL     OW15352   3.719   2.695   4.101
 5007SOL    HW115353   3.761   2.631   4.165
 5007SOL    HW215354   3.681   2.644   4.023
 5008SOL     OW15355   2.350   3.247   3.898
 5008SOL    HW115356   2.263   3.232   3.945
 5008SOL    HW215357   2.333   3.273   3.803
 5009SOL     OW15358   3.526   3.142   4.381
 5009SOL    HW115359   3.625   3.150   4.395
 5009SOL    HW215360   3.481   3.226   4.412
 5010SOL     OW15361   3.252   2.437   3.802
 5010SOL    HW115362   3.198   2.416   3.883
 5010SOL    HW215363   3.343   2.396   3.811
 5011SOL     OW15364   3.616   3.085   5.312
 5011SOL    HW115365   3.707   3.046   5.299
 5011SOL    HW215366   3.624   3.181   5.336
 5012SOL     OW15367   2.926   3.209   5.064
 5012SOL    HW115368   2.846   3.186   5.119
 5012SOL    HW215369   3.009   3.183   5.113
 5013SOL     OW15370   3.454   3.491   5.349
 5013SOL    HW115371   3.481   3.525   5.259
 5013SOL    HW215372   3.533   3.453   5.395
 5014SOL     OW15373   2.973   3.057   4.824
 5014SOL    HW115374   2.933   3.101   4.905
 5014SOL    HW215375   2.932   3.094   4.741
 5015SOL     OW15376   3.500   2.961   4.803
 5015SOL    HW115377   3.505   3.042   4.862
 5015SOL    HW215378   3.414   2.963   4.752
 5016SOL     OW15379   2.777   1.951   5.126
 5016SOL    HW115380   2.802   1.931   5.031
 5016SOL    HW215381   2.849   2.007   5.168
 5017SOL     OW15382   2.842   2.978   5.443
 5017SOL    HW115383   2.743   2.984   5.453
 5017SOL    HW215384   2.865   2.898   5.387
 5018SOL     OW15385   2.567   2.912   4.092
 5018SOL    HW115386   2.553   2.919   4.191
 5018SOL    HW215387   2.651   2.861   4.074
 5019SOL     OW15388   2.272   2.675   4.975
 5019SOL    HW115389   2.358   2.687   5.025
 5019SOL    HW215390   2.230   2.588   5.002
 5020SOL     OW15391   3.136   2.248   4.986
 5020SOL    HW115392   3.157   2.322   5.050
 5020SOL    HW215393   3.047   2.265   4.943
 5021SOL     OW15394   1.926   3.426   5.055
 5021SOL    HW115395   1.880   3.508   5.021
 5021SOL    HW215396   2.024   3.445   5.064
 5022SOL     OW15397   2.229   2.962   4.225
 5022SOL    HW115398   2.222   3.045   4.169
 5022SOL    HW215399   2.233   2.882   4.165
 5023SOL     OW15400   2.428   2.399   4.589
 5023SOL    HW115401   2.440   2.465   4.515
 5023SOL    HW215402   2.474   2.433   4.672
 5024SOL     OW15403   3.114   3.210   4.112
 5024SOL    HW115404   3.164   3.287   4.152
 5024SOL    HW215405   3.019   3.212   4.144
 5025SOL     OW15406   3.134   3.307   4.866
 5025SOL    HW115407   3.181   3.320   4.953
 5025SOL    HW215408   3.068   3.233   4.875
 5026SOL     OW15409   3.444   2.501   4.196
 5026SOL    HW115410   3.413   2.562   4.269
 5026SOL    HW215411   3.494   2.553   4.127
 5027SOL     OW15412   2.216   3.372   5.053
 5027SOL    HW115413   2.195   3.328   4.966
 5027SOL    HW215414   2.313   3.398   5.056
 5028SOL     OW15415   2.264   2.613   5.322
 5028SOL    HW115416   2.332   2.668   5.275
 5028SOL    HW215417   2.304   2.525   5.349
 5029SOL     OW15418   3.449   2.641   5.394
 5029SOL    HW115419   3.357   2.679   5.389
 5029SOL    HW215420   3.509   2.688   5.329
 5030SOL     OW15421   2.875   1.967   5.494
 5030SOL    HW115422   2.881   2.052   5.442
 5030SOL    HW215423   2.907   1.891   5.437
 5031SOL     OW15424   2.366   1.912   5.464
 5031SOL    HW115425   2.324   1.855   5.394
 5031SOL    HW215426   2.300   1.981   5.496
 5032SOL     OW15427   2.435   2.732   4.753
 5032SOL    HW115428   2.479   2.821   4.744
 5032SOL    HW215429   2.372   2.732   4.830
 5033SOL     OW15430   3.222   2.724   4.769
 5033SOL    HW115431   3.147   2.724   4.703
 5033SOL    HW215432   3.259   2.632   4.778
 5034SOL     OW15433   3.071   2.387   3.999
 5034SOL    HW115434   3.084   2.303   4.053
 5034SOL    HW215435   3.042   2.461   4.059
 5035SOL     OW15436   1.899   3.172   5.006
 5035SOL    HW115437   1.952   3.123   5.074
 5035SOL    HW215438   1.921   3.270   5.011
 5036SOL     OW15439   2.594   2.496   4.788
 5036SOL    HW115440   2.653   2.470   4.712
 5036SOL    HW215441   2.566   2.592   4.777
 5037SOL     OW15442   3.590   2.797   5.578
 5037SOL    HW115443   3.544   2.790   5.489
 5037SOL    HW215444   3.528   2.841   5.644
 5038SOL     OW15445   3.484   2.229   4.098
 5038SOL    HW115446   3.486   2.153   4.162
 5038SOL    HW215447   3.436   2.306   4.138
 5039SOL     OW15448   2.885   2.628   4.690
 5039SOL    HW115449   2.900   2.649   4.786
 5039SOL    HW215450   2.855   2.533   4.681
 5040SOL     OW15451   2.842   3.435   5.424
 5040SOL    HW115452   2.822   3.479   5.336
 5040SOL    HW215453   2.881   3.344   5.408
 5041SOL     OW15454   3.721   3.380   5.329
 5041SOL    HW115455   3.735   3.407   5.234
 5041SOL    HW215456   3.804   3.402   5.382
 5042SOL     OW15457   2.212   2.760   5.528
 5042SOL    HW115458   2.288   2.804   5.576
 5042SOL    HW215459   2.247   2.713   5.446
 5043SOL     OW15460   3.402   2.136   3.849
 5043SOL    HW115461   3.341   2.061   3.872
 5043SOL    HW215462   3.424   2.188   3.932
 5044SOL     OW15463   3.165   2.700   3.766
 5044SOL    HW115464   3.199   2.607   3.781
 5044SOL    HW215465   3.183   2.727   3.671
 5045SOL     OW15466   2.930   3.195   4.573
 5045SOL    HW115467   2.937   3.111   4.518
 5045SOL    HW215468   2.992   3.264   4.537
 5046SOL     OW15469   2.181   2.672   4.673
 5046SOL    HW115470   2.274   2.708   4.678
 5046SOL    HW215471   2.175   2.587   4.725
 5047SOL     OW15472   3.000   2.242   5.402
 5047SOL    HW115473   2.955   2.305   5.466
 5047SOL    HW215474   3.093   2.273   5.385
 5048SOL     OW15475   3.022   2.069   5.201
 5048SOL    HW115476   3.022   2.133   5.278
 5048SOL    HW215477   3.050   2.117   5.118
 5049SOL     OW15478   1.870   3.188   3.924
 5049SOL    HW115479   1.777   3.209   3.893
 5049SOL    HW215480   1.880   3.089   3.937
 5050SOL     OW15481   1.950   3.663   4.651
 5050SOL    HW115482   1.908   3.577   4.624
 5050SOL    HW215483   2.044   3.666   4.617
 5051SOL     OW15484   2.366   3.430   4.634
 5051SOL    HW115485   2.432   3.504   4.643
 5051SOL    HW215486   2.410   3.351   4.592
 5052SOL     OW15487   2.864   2.658   4.962
 5052SOL    HW115488   2.905   2.626   5.048
 5052SOL    HW215489   2.768   2.631   4.959
 5053SOL     OW15490   1.902   2.406   4.838
 5053SOL    HW115491   1.987   2.373   4.797
 5053SOL    HW215492   1.915   2.421   4.936
 5054SOL     OW15493   2.051   2.382   5.446
 5054SOL    HW115494   2.110   2.342   5.376
 5054SOL    HW215495   1.993   2.453   5.405
 5055SOL     OW15496   3.231   2.812   5.384
 5055SOL    HW115497   3.270   2.901   5.404
 5055SOL    HW215498   3.241   2.792   5.287
 5056SOL     OW15499   2.677   2.434   4.049
 5056SOL    HW115500   2.684   2.345   4.003
 5056SOL    HW215501   2.583   2.468   4.041
 5057SOL     OW15502   3.519   2.466   4.930
 5057SOL    HW115503   3.481   2.397   4.992
 5057SOL    HW215504   3.601   2.430   4.886
 5058SOL     OW15505   2.114   3.426   5.468
 5058SOL    HW115506   2.084   3.483   5.544
 5058SOL    HW215507   2.107   3.329   5.494
 5059SOL     OW15508   2.533   2.326   4.993
 5059SOL    HW115509   2.499   2.237   4.963
 5059SOL    HW215510   2.559   2.380   4.913
 5060SOL     OW15511   2.792   3.540   5.189
 5060SOL    HW115512   2.768   3.522   5.094
 5060SOL    HW215513   2.822   3.634   5.199
 5061SOL     OW15514   2.021   2.999   5.190
 5061SOL    HW115515   2.043   2.938   5.266
 5061SOL    HW215516   2.031   2.950   5.104
 5062SOL     OW15517   3.209   2.921   4.958
 5062SOL    HW115518   3.233   2.858   4.884
 5062SOL    HW215519   3.119   2.961   4.940
 5063SOL     OW15520   3.164   2.717   4.033
 5063SOL    HW115521   3.078   2.686   4.075
 5063SOL    HW215522   3.160   2.703   3.934
 5064SOL     OW15523   3.621   3.609   4.878
 5064SOL    HW115524   3.682   3.639   4.805
 5064SOL    HW215525   3.583   3.520   4.856
 5065SOL     OW15526   3.114   3.593   4.852
 5065SOL    HW115527   3.198   3.598   4.798
 5065SOL    HW215528   3.091   3.497   4.870
 5066SOL     OW15529   1.945   3.120   4.746
 5066SOL    HW115530   1.940   3.119   4.846
 5066SOL    HW215531   1.862   3.079   4.708
 5067SOL     OW15532   2.550   3.524   5.440
 5067SOL    HW115533   2.494   3.605   5.449
 5067SOL    HW215534   2.602   3.528   5.354
 5068SOL     OW15535   3.588   1.997   4.247
 5068SOL    HW115536   3.661   1.980   4.180
 5068SOL    HW215537   3.557   1.910   4.285
 5069SOL     OW15538   3.250   3.435   4.201
 5069SOL    HW115539   3.317   3.447   4.127
 5069SOL    HW215540   3.210   3.524   4.224
 5070SOL     OW15541   1.992   3.656   5.575
 5070SOL    HW115542   1.951   3.582   5.628
 5070SOL    HW215543   2.056   3.707   5.633
 5071SOL     OW15544   3.142   2.789   4.396
 5071SOL    HW115545   3.202   2.708   4.398
 5071SOL    HW215546   3.182   2.858   4.336
 5072SOL     OW15547   2.692   3.135   5.146
 5072SOL    HW115548   2.687   3.168   5.241
 5072SOL    HW215549   2.606   3.154   5.100
 5073SOL     OW15550   2.534   3.478   3.878
 5073SOL    HW115551   2.543   3.488   3.779
 5073SOL    HW215552   2.494   3.389   3.899
 5074SOL     OW15553   3.512   3.582   5.118
 5074SOL    HW115554   3.565   3.592   5.034
 5074SOL    HW215555   3.485   3.672   5.152
 5075SOL     OW15556   3.703   2.037   4.687
 5075SOL    HW115557   3.742   1.952   4.651
 5075SOL    HW215558   3.605   2.039   4.668
 5076SOL     OW15559   3.056   3.474   3.755
 5076SOL    HW115560   3.062   3.381   3.792
 5076SOL    HW215561   2.997   3.474   3.675
 5077SOL     OW15562   2.684   2.864   5.096
 5077SOL    HW115563   2.724   2.863   5.004
 5077SOL    HW215564   2.694   2.956   5.136
 5078SOL     OW15565   2.778   2.772   4.015
 5078SOL    HW115566   2.841   2.810   3.947
 5078SOL    HW215567   2.818   2.689   4.054
 5079SOL     OW15568   3.366   3.469   3.768
 5079SOL    HW115569   3.274   3.506   3.775
 5079SOL    HW215570   3.404   3.489   3.678
 5080SOL     OW15571   2.234   3.150   5.214
 5080SOL    HW115572   2.221   3.243   5.180
 5080SOL    HW215573   2.150   3.098   5.201
 5081SOL     OW15574   3.476   3.154   5.013
 5081SOL    HW115575   3.536   3.157   5.093
 5081SOL    HW215576   3.401   3.218   5.026
 5082SOL     OW15577   2.901   2.960   4.420
 5082SOL    HW115578   2.831   2.913   4.474
 5082SOL    HW215579   2.960   2.892   4.377
 5083SOL     OW15580   2.876   2.098   4.695
 5083SOL    HW115581   2.868   2.062   4.602
 5083SOL    HW215582   2.874   2.022   4.760
 5084SOL     OW15583   2.452   3.349   4.215
 5084SOL    HW115584   2.494   3.291   4.145
 5084SOL    HW215585   2.408   3.428   4.171
 5085SOL     OW15586   3.571   2.247   5.105
 5085SOL    HW115587   3.644   2.316   5.109
 5085SOL    HW215588   3.599   2.172   5.046
 5086SOL     OW15589   2.117   3.210   4.014
 5086SOL    HW115590   2.021   3.211   3.987
 5086SOL    HW215591   2.129   3.263   4.098
 5087SOL     OW15592   1.967   2.875   5.450
 5087SOL    HW115593   1.890   2.842   5.504
 5087SOL    HW215594   2.052   2.845   5.492
 5088SOL     OW15595   2.534   2.065   5.213
 5088SOL    HW115596   2.624   2.049   5.173
 5088SOL    HW215597   2.542   2.070   5.312
 5089SOL     OW15598   3.302   2.718   5.122
 5089SOL    HW115599   3.245   2.770   5.059
 5089SOL    HW215600   3.398   2.730   5.098
 5090SOL     OW15601   1.934   2.028   4.042
 5090SOL    HW115602   1.917   2.111   3.988
 5090SOL    HW215603   2.024   1.991   4.020
 5091SOL     OW15604   3.045   3.197   3.843
 5091SOL    HW115605   2.946   3.186   3.845
 5091SOL    HW215606   3.079   3.212   3.936
 5092SOL     OW15607   2.475   2.704   5.155
 5092SOL    HW115608   2.531   2.785   5.138
 5092SOL    HW215609   2.534   2.624   5.158
 5093SOL     OW15610   3.355   3.629   4.683
 5093SOL    HW115611   3.388   3.693   4.614
 5093SOL    HW215612   3.421   3.623   4.758
 5094SOL     OW15613   2.578   2.427   5.432
 5094SOL    HW115614   2.597   2.492   5.506
 5094SOL    HW215615   2.638   2.347   5.441
 5095SOL     OW15616   3.312   3.082   5.357
 5095SOL    HW115617   3.303   3.072   5.456
 5095SOL    HW215618   3.408   3.075   5.331
 5096SOL     OW15619   2.252   3.603   5.284
 5096SOL    HW115620   2.161   3.644   5.282
 5096SOL    HW215621   2.245   3.509   5.316
 5097SOL     OW15622   3.536   2.745   4.978
 5097SOL    HW115623   3.509   2.656   4.941
 5097SOL    HW215624   3.537   2.813   4.905
 5098SOL     OW15625   3.087   2.187   4.173
 5098SOL    HW115626   3.152   2.113   4.162
 5098SOL    HW215627   3.107   2.237   4.257
 5099SOL     OW15628   2.456   2.607   4.376
 5099SOL    HW115629   2.506   2.692   4.357
 5099SOL    HW215630   2.368   2.609   4.328
 5100SOL     OW15631   3.639   2.204   5.366
 5100SOL    HW115632   3.622   2.235   5.272
 5100SOL    HW215633   3.555   2.167   5.404
 5101SOL     OW15634   3.592   2.796   5.241
 5101SOL    HW115635   3.630   2.887   5.256
 5101SOL    HW215636   3.584   2.779   5.142
 5102SOL     OW15637   2.721   3.236   3.740
 5102SOL    HW115638   2.675   3.251   3.828
 5102SOL    HW215639   2.765   3.321   3.710
 5103SOL     OW15640   2.523   3.652   4.677
 5103SOL    HW115641   2.477   3.740   4.664
 5103SOL    HW215642   2.622   3.664   4.670
 5104SOL     OW15643   2.721   2.818   4.585
 5104SOL    HW115644   2.775   2.749   4.633
 5104SOL    HW215645   2.689   2.887   4.651
 5105SOL     OW15646   2.945   2.846   3.811
 5105SOL    HW115647   2.922   2.899   3.729
 5105SOL    HW215648   3.026   2.790   3.792
 5106SOL     OW15649   3.723   3.431   4.575
 5106SOL    HW115650   3.652   3.419   4.505
 5106SOL    HW215651   3.724   3.352   4.635
 5107SOL     OW15652   2.083   3.176   5.568
 5107SOL    HW115653   2.018   3.103   5.547
 5107SOL    HW215654   2.087   3.190   5.666
 5108SOL     OW15655   1.941   3.102   4.377
 5108SOL    HW115656   1.940   3.055   4.465
 5108SOL    HW215657   2.023   3.074   4.326
 5109SOL     OW15658   2.534   3.253   5.348
 5109SOL    HW115659   2.456   3.203   5.386
 5109SOL    HW215660   2.531   3.348   5.379
 5110SOL     OW15661   3.686   2.054   4.951
 5110SOL    HW115662   3.682   1.964   4.995
 5110SOL    HW215663   3.689   2.043   4.852
 5111SOL     OW15664   3.567   3.349   4.828
 5111SOL    HW115665   3.474   3.324   4.801
 5111SOL    HW215666   3.593   3.299   4.910
 5112SOL     OW15667   2.674   3.448   4.411
 5112SOL    HW115668   2.706   3.458   4.317
 5112SOL    HW215669   2.595   3.386   4.413
 5113SOL     OW15670   3.286   2.076   4.836
 5113SOL    HW115671   3.338   2.011   4.891
 5113SOL    HW215672   3.237   2.139   4.897
 5114SOL     OW15673   2.863   1.896   4.878
 5114SOL    HW115674   2.800   1.824   4.847
 5114SOL    HW215675   2.956   1.860   4.878
 5115SOL     OW15676   2.632   3.192   4.025
 5115SOL    HW115677   2.586   3.105   4.042
 5115SOL    HW215678   2.723   3.189   4.066
 5116SOL     OW15679   2.480   3.429   5.008
 5116SOL    HW115680   2.475   3.511   5.065
 5116SOL    HW215681   2.569   3.426   4.963
 5117SOL     OW15682   3.214   1.914   3.892
 5117SOL    HW115683   3.249   1.873   3.808
 5117SOL    HW215684   3.124   1.876   3.912
 5118SOL     OW15685   3.162   2.315   4.415
 5118SOL    HW115686   3.103   2.395   4.419
 5118SOL    HW215687   3.177   2.280   4.508
 5119SOL     OW15688   3.455   2.083   4.606
 5119SOL    HW115689   3.371   2.082   4.660
 5119SOL    HW215690   3.457   2.166   4.550
 5120SOL     OW15691   1.901   2.939   4.024
 5120SOL    HW115692   2.000   2.928   4.015
 5120SOL    HW215693   1.861   2.853   4.056
 5121SOL     OW15694   2.737   3.508   4.061
 5121SOL    HW115695   2.660   3.473   4.007
 5121SOL    HW215696   2.705   3.579   4.123
 5122SOL     OW15697   2.431   3.137   6.751
 5122SOL    HW115698   2.338   3.130   6.714
 5122SOL    HW215699   2.442   3.226   6.795
 5123SOL     OW15700   3.417   3.373   6.289
 5123SOL    HW115701   3.360   3.357   6.370
 5123SOL    HW215702   3.358   3.383   6.209
 5124SOL     OW15703   2.997   2.565   6.303
 5124SOL    HW115704   3.054   2.643   6.278
 5124SOL    HW215705   2.937   2.591   6.379
 5125SOL     OW15706   3.617   2.469   5.817
 5125SOL    HW115707   3.605   2.456   5.718
 5125SOL    HW215708   3.587   2.388   5.866
 5126SOL     OW15709   2.630   3.006   6.609
 5126SOL    HW115710   2.552   3.023   6.669
 5126SOL    HW215711   2.664   3.093   6.573
 5127SOL     OW15712   2.712   2.660   7.409
 5127SOL    HW115713   2.708   2.736   7.474
 5127SOL    HW215714   2.734   2.696   7.318
 5128SOL     OW15715   2.547   2.874   6.251
 5128SOL    HW115716   2.616   2.858   6.321
 5128SOL    HW215717   2.474   2.931   6.289
 5129SOL     OW15718   2.548   3.023   7.389
 5129SOL    HW115719   2.608   3.102   7.403
 5129SOL    HW215720   2.462   3.054   7.348
 5130SOL     OW15721   2.197   3.297   6.647
 5130SOL    HW115722   2.119   3.266   6.594
 5130SOL    HW215723   2.255   3.355   6.590
 5131SOL     OW15724   3.322   3.367   6.925
 5131SOL    HW115725   3.346   3.461   6.951
 5131SOL    HW215726   3.306   3.313   7.007
 5132SOL     OW15727   3.465   2.309   6.323
 5132SOL    HW115728   3.391   2.355   6.273
 5132SOL    HW215729   3.516   2.377   6.376
 5133SOL     OW15730   2.093   3.575   6.069
 5133SOL    HW115731   2.127   3.652   6.123
 5133SOL    HW215732   2.137   3.575   5.979
 5134SOL     OW15733   2.989   3.203   7.276
 5134SOL    HW115734   3.036   3.203   7.364
 5134SOL    HW215735   2.941   3.116   7.265
 5135SOL     OW15736   2.092   3.296   6.124
 5135SOL    HW115737   2.066   3.392   6.124
 5135SOL    HW215738   2.021   3.242   6.169
 5136SOL     OW15739   2.102   2.953   6.472
 5136SOL    HW115740   2.116   2.869   6.524
 5136SOL    HW215741   2.047   3.017   6.527
 5137SOL     OW15742   2.482   3.648   7.025
 5137SOL    HW115743   2.390   3.631   7.060
 5137SOL    HW215744   2.510   3.740   7.051
 5138SOL     OW15745   2.468   2.826   5.709
 5138SOL    HW115746   2.475   2.910   5.655
 5138SOL    HW215747   2.514   2.839   5.797
 5139SOL     OW15748   3.456   1.976   7.066
 5139SOL    HW115749   3.438   2.043   6.994
 5139SOL    HW215750   3.453   2.022   7.155
 5140SOL     OW15751   3.704   3.629   5.945
 5140SOL    HW115752   3.758   3.600   6.025
 5140SOL    HW215753   3.734   3.719   5.916
 5141SOL     OW15754   1.889   3.458   5.703
 5141SOL    HW115755   1.870   3.362   5.724
 5141SOL    HW215756   1.856   3.516   5.778
 5142SOL     OW15757   3.551   2.784   6.198
 5142SOL    HW115758   3.646   2.755   6.206
 5142SOL    HW215759   3.543   2.849   6.123
 5143SOL     OW15760   3.503   2.970   6.018
 5143SOL    HW115761   3.589   2.972   5.966
 5143SOL    HW215762   3.517   3.017   6.106
 5144SOL     OW15763   1.975   2.599   7.183
 5144SOL    HW115764   2.063   2.586   7.228
 5144SOL    HW215765   1.962   2.696   7.161
 5145SOL     OW15766   2.475   3.227   6.312
 5145SOL    HW115767   2.426   3.140   6.321
 5145SOL    HW215768   2.452   3.270   6.225
 5146SOL     OW15769   3.155   3.090   7.009
 5146SOL    HW115770   3.192   3.017   6.951
 5146SOL    HW215771   3.207   3.095   7.094
 5147SOL     OW15772   2.059   2.838   6.850
 5147SOL    HW115773   2.148   2.793   6.836
 5147SOL    HW215774   1.986   2.773   6.831
 5148SOL     OW15775   3.387   2.861   5.776
 5148SOL    HW115776   3.324   2.785   5.789
 5148SOL    HW215777   3.435   2.879   5.862
 5149SOL     OW15778   3.049   3.654   7.202
 5149SOL    HW115779   3.073   3.714   7.126
 5149SOL    HW215780   3.056   3.559   7.172
 5150SOL     OW15781   3.328   3.279   6.539
 5150SOL    HW115782   3.269   3.285   6.619
 5150SOL    HW215783   3.313   3.191   6.493
 5151SOL     OW15784   3.529   3.576   6.158
 5151SOL    HW115785   3.488   3.553   6.070
 5151SOL    HW215786   3.511   3.502   6.223
 5152SOL     OW15787   3.143   2.207   6.530
 5152SOL    HW115788   3.057   2.157   6.517
 5152SOL    HW215789   3.205   2.153   6.586
 5153SOL     OW15790   3.438   3.524   5.893
 5153SOL    HW115791   3.527   3.570   5.896
 5153SOL    HW215792   3.417   3.500   5.798
 5154SOL     OW15793   2.669   2.467   7.051
 5154SOL    HW115794   2.622   2.464   7.140
 5154SOL    HW215795   2.618   2.412   6.985
 5155SOL     OW15796   3.256   2.331   7.260
 5155SOL    HW115797   3.236   2.374   7.348
 5155SOL    HW215798   3.334   2.269   7.269
 5156SOL     OW15799   2.835   2.752   7.158
 5156SOL    HW115800   2.881   2.668   7.129
 5156SOL    HW215801   2.779   2.786   7.083
 5157SOL     OW15802   2.853   2.272   6.828
 5157SOL    HW115803   2.776   2.306   6.882
 5157SOL    HW215804   2.819   2.221   6.749
 5158SOL     OW15805   2.903   2.563   6.015
 5158SOL    HW115806   2.929   2.559   6.111
 5158SOL    HW215807   2.818   2.512   6.001
 5159SOL     OW15808   1.992   3.683   7.157
 5159SOL    HW115809   1.982   3.668   7.256
 5159SOL    HW215810   1.906   3.719   7.121
 5160SOL     OW15811   3.581   2.447   7.417
 5160SOL    HW115812   3.555   2.536   7.381
 5160SOL    HW215813   3.579   2.379   7.344
 5161SOL     OW15814   3.224   3.006   6.131
 5161SOL    HW115815   3.307   2.977   6.083
 5161SOL    HW215816   3.175   3.073   6.075
 5162SOL     OW15817   2.870   3.318   6.063
 5162SOL    HW115818   2.824   3.390   6.011
 5162SOL    HW215819   2.866   3.338   6.161
 5163SOL     OW15820   2.213   3.663   6.439
 5163SOL    HW115821   2.263   3.577   6.445
 5163SOL    HW215822   2.278   3.740   6.436
 5164SOL     OW15823   3.657   2.928   6.459
 5164SOL    HW115824   3.595   2.913   6.383
 5164SOL    HW215825   3.605   2.939   6.544
 5165SOL     OW15826   3.089   3.412   7.092
 5165SOL    HW115827   3.095   3.335   7.156
 5165SOL    HW215828   3.037   3.386   7.012
 5166SOL     OW15829   3.320   2.597   6.314
 5166SOL    HW115830   3.315   2.532   6.389
 5166SOL    HW215831   3.400   2.656   6.327
 5167SOL     OW15832   2.323   3.128   7.313
 5167SOL    HW115833   2.273   3.129   7.227
 5167SOL    HW215834   2.260   3.110   7.389
 5168SOL     OW15835   2.973   3.638   5.823
 5168SOL    HW115836   2.913   3.576   5.873
 5168SOL    HW215837   3.004   3.594   5.738
 5169SOL     OW15838   3.494   3.239   5.667
 5169SOL    HW115839   3.462   3.333   5.657
 5169SOL    HW215840   3.418   3.176   5.655
 5170SOL     OW15841   2.326   3.605   5.909
 5170SOL    HW115842   2.359   3.644   5.995
 5170SOL    HW215843   2.402   3.598   5.844
 5171SOL     OW15844   3.262   1.969   6.012
 5171SOL    HW115845   3.238   1.932   5.922
 5171SOL    HW215846   3.361   1.985   6.016
 5172SOL     OW15847   2.111   3.647   6.827
 5172SOL    HW115848   2.168   3.582   6.877
 5172SOL    HW215849   2.095   3.614   6.734
 5173SOL     OW15850   2.802   3.560   6.490
 5173SOL    HW115851   2.882   3.503   6.511
 5173SOL    HW215852   2.753   3.520   6.413
 5174SOL     OW15853   3.409   2.084   7.315
 5174SOL    HW115854   3.404   2.121   7.407
 5174SOL    HW215855   3.337   2.015   7.303
 5175SOL     OW15856   2.643   2.126   7.335
 5175SOL    HW115857   2.710   2.065   7.378
 5175SOL    HW215858   2.570   2.145   7.400
 5176SOL     OW15859   2.750   3.376   6.781
 5176SOL    HW115860   2.727   3.351   6.687
 5176SOL    HW215861   2.811   3.307   6.820
 5177SOL     OW15862   3.213   2.452   7.019
 5177SOL    HW115863   3.241   2.409   7.104
 5177SOL    HW215864   3.238   2.548   7.020
 5178SOL     OW15865   2.665   3.264   6.510
 5178SOL    HW115866   2.755   3.278   6.468
 5178SOL    HW215867   2.594   3.266   6.439
 5179SOL     OW15868   2.784   2.365   6.485
 5179SOL    HW115869   2.759   2.356   6.389
 5179SOL    HW215870   2.832   2.283   6.516
 5180SOL     OW15871   3.296   3.050   5.627
 5180SOL    HW115872   3.328   2.974   5.684
 5180SOL    HW215873   3.204   3.077   5.657
 5181SOL     OW15874   2.938   2.545   7.050
 5181SOL    HW115875   2.858   2.484   7.053
 5181SOL    HW215876   3.019   2.492   7.026
 5182SOL     OW15877   3.089   3.432   6.379
 5182SOL    HW115878   3.110   3.506   6.314
 5182SOL    HW215879   3.157   3.432   6.452
 5183SOL     OW15880   2.321   3.014   6.327
 5183SOL    HW115881   2.250   2.987   6.392
 5183SOL    HW215882   2.295   2.986   6.234
 5184SOL     OW15883   3.133   3.659   6.177
 5184SOL    HW115884   3.177   3.723   6.113
 5184SOL    HW215885   3.083   3.711   6.247
 5185SOL     OW15886   2.894   2.411   5.602
 5185SOL    HW115887   2.853   2.493   5.563
 5185SOL    HW215888   2.958   2.437   5.675
 5186SOL     OW15889   1.940   2.418   6.972
 5186SOL    HW115890   2.032   2.417   6.931
 5186SOL    HW215891   1.934   2.492   7.039
 5187SOL     OW15892   2.423   2.084   6.733
 5187SOL    HW115893   2.461   2.000   6.770
 5187SOL    HW215894   2.335   2.103   6.777
 5188SOL     OW15895   2.879   1.901   6.339
 5188SOL    HW115896   2.807   1.906   6.270
 5188SOL    HW215897   2.855   1.832   6.408
 5189SOL     OW15898   3.291   3.035   6.453
 5189SOL    HW115899   3.236   2.951   6.446
 5189SOL    HW215900   3.317   3.064   6.361
 5190SOL     OW15901   3.328   2.452   6.578
 5190SOL    HW115902   3.298   2.357   6.585
 5190SOL    HW215903   3.401   2.468   6.644
 5191SOL     OW15904   3.719   2.695   5.963
 5191SOL    HW115905   3.761   2.631   6.027
 5191SOL    HW215906   3.681   2.644   5.885
 5192SOL     OW15907   2.350   3.247   5.760
 5192SOL    HW115908   2.263   3.232   5.807
 5192SOL    HW215909   2.333   3.273   5.665
 5193SOL     OW15910   3.526   3.142   6.243
 5193SOL    HW115911   3.625   3.150   6.257
 5193SOL    HW215912   3.481   3.226   6.274
 5194SOL     OW15913   3.252   2.437   5.664
 5194SOL    HW115914   3.198   2.416   5.745
 5194SOL    HW215915   3.343   2.396   5.673
 5195SOL     OW15916   3.616   3.085   7.174
 5195SOL    HW115917   3.707   3.046   7.161
 5195SOL    HW215918   3.624   3.181   7.198
 5196SOL     OW15919   2.926   3.209   6.926
 5196SOL    HW115920   2.846   3.186   6.981
 5196SOL    HW215921   3.009   3.183   6.975
 5197SOL     OW15922   3.454   3.491   7.211
 5197SOL    HW115923   3.481   3.525   7.121
 5197SOL    HW215924   3.533   3.453   7.257
 5198SOL     OW15925   2.973   3.057   6.686
 5198SOL    HW115926   2.933   3.101   6.767
 5198SOL    HW215927   2.932   3.094   6.603
 5199SOL     OW15928   3.500   2.961   6.665
 5199SOL    HW115929   3.505   3.042   6.724
 5199SOL    HW215930   3.414   2.963   6.614
 5200SOL     OW15931   2.777   1.951   6.988
 5200SOL    HW115932   2.802   1.931   6.893
 5200SOL    HW215933   2.849   2.007   7.030
 5201SOL     OW15934   2.842   2.978   7.305
 5201SOL    HW115935   2.743   2.984   7.315
 5201SOL    HW215936   2.865   2.898   7.249
 5202SOL     OW15937   2.567   2.912   5.954
 5202SOL    HW115938   2.553   2.919   6.053
 5202SOL    HW215939   2.651   2.861   5.936
 5203SOL     OW15940   2.272   2.675   6.837
 5203SOL    HW115941   2.358   2.687   6.887
 5203SOL    HW215942   2.230   2.588   6.864
 5204SOL     OW15943   3.136   2.248   6.848
 5204SOL    HW115944   3.157   2.322   6.912
 5204SOL    HW215945   3.047   2.265   6.805
 5205SOL     OW15946   1.926   3.426   6.917
 5205SOL    HW115947   1.880   3.508   6.883
 5205SOL    HW215948   2.024   3.445   6.926
 5206SOL     OW15949   2.229   2.962   6.087
 5206SOL    HW115950   2.222   3.045   6.031
 5206SOL    HW215951   2.233   2.882   6.027
 5207SOL     OW15952   3.114   3.210   5.974
 5207SOL    HW115953   3.164   3.287   6.014
 5207SOL    HW215954   3.019   3.212   6.006
 5208SOL     OW15955   3.134   3.307   6.728
 5208SOL    HW115956   3.181   3.320   6.815
 5208SOL    HW215957   3.068   3.233   6.737
 5209SOL     OW15958   3.444   2.501   6.058
 5209SOL    HW115959   3.413   2.562   6.131
 5209SOL    HW215960   3.494   2.553   5.989
 5210SOL     OW15961   2.216   3.372   6.915
 5210SOL    HW115962   2.195   3.328   6.828
 5210SOL    HW215963   2.313   3.398   6.918
 5211SOL     OW15964   2.264   2.613   7.184
 5211SOL    HW115965   2.332   2.668   7.137
 5211SOL    HW215966   2.304   2.525   7.211
 5212SOL     OW15967   3.449   2.641   7.256
 5212SOL    HW115968   3.357   2.679   7.251
 5212SOL    HW215969   3.509   2.688   7.191
 5213SOL     OW15970   2.875   1.967   7.356
 5213SOL    HW115971   2.881   2.052   7.304
 5213SOL    HW215972   2.907   1.891   7.299
 5214SOL     OW15973   2.366   1.912   7.326
 5214SOL    HW115974   2.324   1.855   7.256
 5214SOL    HW215975   2.300   1.981   7.358
 5215SOL     OW15976   2.435   2.732   6.615
 5215SOL    HW115977   2.479   2.821   6.606
 5215SOL    HW215978   2.372   2.732   6.692
 5216SOL     OW15979   3.222   2.724   6.631
 5216SOL    HW115980   3.147   2.724   6.565
 5216SOL    HW215981   3.259   2.632   6.640
 5217SOL     OW15982   3.071   2.387   5.861
 5217SOL    HW115983   3.084   2.303   5.915
 5217SOL    HW215984   3.042   2.461   5.921
 5218SOL     OW15985   1.899   3.172   6.868
 5218SOL    HW115986   1.952   3.123   6.936
 5218SOL    HW215987   1.921   3.270   6.873
 5219SOL     OW15988   2.594   2.496   6.650
 5219SOL    HW115989   2.653   2.470   6.574
 5219SOL    HW215990   2.566   2.592   6.639
 5220SOL     OW15991   3.590   2.797   7.440
 5220SOL    HW115992   3.544   2.790   7.351
 5220SOL    HW215993   3.528   2.841   7.506
 5221SOL     OW15994   3.484   2.229   5.960
 5221SOL    HW115995   3.486   2.153   6.024
 5221SOL    HW215996   3.436   2.306   6.000
 5222SOL     OW15997   2.885   2.628   6.552
 5222SOL    HW115998   2.900   2.649   6.648
 5222SOL    HW215999   2.855   2.533   6.543
 5223SOL     OW16000   2.842   3.435   7.286
 5223SOL    HW116001   2.822   3.479   7.198
 5223SOL    HW216002   2.881   3.344   7.270
 5224SOL     OW16003   3.721   3.380   7.191
 5224SOL    HW116004   3.735   3.407   7.096
 5224SOL    HW216005   3.804   3.402   7.244
 5225SOL     OW16006   2.212   2.760   7.390
 5225SOL    HW116007   2.288   2.804   7.438
 5225SOL    HW216008   2.247   2.713   7.308
 5226SOL     OW16009   3.402   2.136   5.711
 5226SOL    HW116010   3.341   2.061   5.734
 5226SOL    HW216011   3.424   2.188   5.794
 5227SOL     OW16012   3.165   2.700   5.628
 5227SOL    HW116013   3.199   2.607   5.643
 5227SOL    HW216014   3.183   2.727   5.533
 5228SOL     OW16015   2.930   3.195   6.435
 5228SOL    HW116016   2.937   3.111   6.380
 5228SOL    HW216017   2.992   3.264   6.399
 5229SOL     OW16018   2.181   2.672   6.535
 5229SOL    HW116019   2.274   2.708   6.540
 5229SOL    HW216020   2.175   2.587   6.587
 5230SOL     OW16021   3.000   2.242   7.264
 5230SOL    HW116022   2.955   2.305   7.328
 5230SOL    HW216023   3.093   2.273   7.247
 5231SOL     OW16024   3.022   2.069   7.063
 5231SOL    HW116025   3.022   2.133   7.140
 5231SOL    HW216026   3.050   2.117   6.980
 5232SOL     OW16027   1.870   3.188   5.786
 5232SOL    HW116028   1.777   3.209   5.755
 5232SOL    HW216029   1.880   3.089   5.799
 5233SOL     OW16030   1.950   3.663   6.513
 5233SOL    HW116031   1.908   3.577   6.486
 5233SOL    HW216032   2.044   3.666   6.479
 5234SOL     OW16033   2.366   3.430   6.496
 5234SOL    HW116034   2.432   3.504   6.505
 5234SOL    HW216035   2.410   3.351   6.454
 5235SOL     OW16036   2.864   2.658   6.824
 5235SOL    HW116037   2.905   2.626   6.910
 5235SOL    HW216038   2.768   2.631   6.821
 5236SOL     OW16039   1.902   2.406   6.700
 5236SOL    HW116040   1.987   2.373   6.659
 5236SOL    HW216041   1.915   2.421   6.798
 5237SOL     OW16042   2.051   2.382   7.308
 5237SOL    HW116043   2.110   2.342   7.238
 5237SOL    HW216044   1.993   2.453   7.267
 5238SOL     OW16045   3.231   2.812   7.246
 5238SOL    HW116046   3.270   2.901   7.266
 5238SOL    HW216047   3.241   2.792   7.149
 5239SOL     OW16048   3.519   2.466   6.792
 5239SOL    HW116049   3.481   2.397   6.854
 5239SOL    HW216050   3.601   2.430   6.748
 5240SOL     OW16051   2.114   3.426   7.330
 5240SOL    HW116052   2.084   3.483   7.406
 5240SOL    HW216053   2.107   3.329   7.356
 5241SOL     OW16054   2.533   2.326   6.855
 5241SOL    HW116055   2.499   2.237   6.825
 5241SOL    HW216056   2.559   2.380   6.775
 5242SOL     OW16057   2.792   3.540   7.051
 5242SOL    HW116058   2.768   3.522   6.956
 5242SOL    HW216059   2.822   3.634   7.061
 5243SOL     OW16060   2.021   2.999   7.052
 5243SOL    HW116061   2.043   2.938   7.128
 5243SOL    HW216062   2.031   2.950   6.966
 5244SOL     OW16063   3.209   2.921   6.820
 5244SOL    HW116064   3.233   2.858   6.746
 5244SOL    HW216065   3.119   2.961   6.802
 5245SOL     OW16066   3.164   2.717   5.895
 5245SOL    HW116067   3.078   2.686   5.937
 5245SOL    HW216068   3.160   2.703   5.796
 5246SOL     OW16069   3.621   3.609   6.740
 5246SOL    HW116070   3.682   3.639   6.667
 5246SOL    HW216071   3.583   3.520   6.718
 5247SOL     OW16072   3.114   3.593   6.714
 5247SOL    HW116073   3.198   3.598   6.660
 5247SOL    HW216074   3.091   3.497   6.732
 5248SOL     OW16075   1.945   3.120   6.608
 5248SOL    HW116076   1.940   3.119   6.708
 5248SOL    HW216077   1.862   3.079   6.570
 5249SOL     OW16078   2.550   3.524   7.302
 5249SOL    HW116079   2.494   3.605   7.311
 5249SOL    HW216080   2.602   3.528   7.216
 5250SOL     OW16081   3.588   1.997   6.109
 5250SOL    HW116082   3.661   1.980   6.042
 5250SOL    HW216083   3.557   1.910   6.147
 5251SOL     OW16084   3.250   3.435   6.063
 5251SOL    HW116085   3.317   3.447   5.989
 5251SOL    HW216086   3.210   3.524   6.086
 5252SOL     OW16087   1.992   3.656   7.437
 5252SOL    HW116088   1.951   3.582   7.490
 5252SOL    HW216089   2.056   3.707   7.495
 5253SOL     OW16090   3.142   2.789   6.258
 5253SOL    HW116091   3.202   2.708   6.260
 5253SOL    HW216092   3.182   2.858   6.198
 5254SOL     OW16093   2.692   3.135   7.008
 5254SOL    HW116094   2.687   3.168   7.103
 5254SOL    HW216095   2.606   3.154   6.962
 5255SOL     OW16096   2.534   3.478   5.740
 5255SOL    HW116097   2.543   3.488   5.641
 5255SOL    HW216098   2.494   3.389   5.761
 5256SOL     OW16099   3.512   3.582   6.980
 5256SOL    HW116100   3.565   3.592   6.896
 5256SOL    HW216101   3.485   3.672   7.014
 5257SOL     OW16102   3.703   2.037   6.549
 5257SOL    HW116103   3.742   1.952   6.513
 5257SOL    HW216104   3.605   2.039   6.530
 5258SOL     OW16105   3.056   3.474   5.617
 5258SOL    HW116106   3.062   3.381   5.654
 5258SOL    HW216107   2.997   3.474   5.537
 5259SOL     OW16108   2.684   2.864   6.958
 5259SOL    HW116109   2.724   2.863   6.866
 5259SOL    HW216110   2.694   2.956   6.998
 5260SOL     OW16111   2.778   2.772   5.877
 5260SOL    HW116112   2.841   2.810   5.809
 5260SOL    HW216113   2.818   2.689   5.916
 5261SOL     OW16114   3.366   3.469   5.630
 5261SOL    HW116115   3.274   3.506   5.637
 5261SOL    HW216116   3.404   3.489   5.540
 5262SOL     OW16117   2.234   3.150   7.076
 5262SOL    HW116118   2.221   3.243   7.042
 5262SOL    HW216119   2.150   3.098   7.063
 5263SOL     OW16120   3.476   3.154   6.875
 5263SOL    HW116121   3.536   3.157   6.955
 5263SOL    HW216122   3.401   3.218   6.888
 5264SOL     OW16123   2.901   2.960   6.282
 5264SOL    HW116124   2.831   2.913   6.336
 5264SOL    HW216125   2.960   2.892   6.239
 5265SOL     OW16126   2.876   2.098   6.557
 5265SOL    HW116127   2.868   2.062   6.464
 5265SOL    HW216128   2.874   2.022   6.622
 5266SOL     OW16129   2.452   3.349   6.077
 5266SOL    HW116130   2.494   3.291   6.007
 5266SOL    HW216131   2.408   3.428   6.033
 5267SOL     OW16132   3.571   2.247   6.967
 5267SOL    HW116133   3.644   2.316   6.971
 5267SOL    HW216134   3.599   2.172   6.908
 5268SOL     OW16135   2.117   3.210   5.876
 5268SOL    HW116136   2.021   3.211   5.849
 5268SOL    HW216137   2.129   3.263   5.960
 5269SOL     OW16138   1.967   2.875   7.312
 5269SOL    HW116139   1.890   2.842   7.366
 5269SOL    HW216140   2.052   2.845   7.354
 5270SOL     OW16141   2.534   2.065   7.075
 5270SOL    HW116142   2.624   2.049   7.035
 5270SOL    HW216143   2.542   2.070   7.174
 5271SOL     OW16144   1.937   2.207   5.619
 5271SOL    HW116145   1.845   2.179   5.590
 5271SOL    HW216146   1.968   2.284   5.563
 5272SOL     OW16147   3.302   2.718   6.984
 5272SOL    HW116148   3.245   2.770   6.921
 5272SOL    HW216149   3.398   2.730   6.960
 5273SOL     OW16150   3.045   3.197   5.705
 5273SOL    HW116151   2.946   3.186   5.707
 5273SOL    HW216152   3.079   3.212   5.798
 5274SOL     OW16153   2.475   2.704   7.017
 5274SOL    HW116154   2.531   2.785   7.000
 5274SOL    HW216155   2.534   2.624   7.020
 5275SOL     OW16156   3.355   3.629   6.545
 5275SOL    HW116157   3.388   3.693   6.476
 5275SOL    HW216158   3.421   3.623   6.620
 5276SOL     OW16159   2.578   2.427   7.294
 5276SOL    HW116160   2.597   2.492   7.368
 5276SOL    HW216161   2.638   2.347   7.303
 5277SOL     OW16162   3.312   3.082   7.219
 5277SOL    HW116163   3.303   3.072   7.318
 5277SOL    HW216164   3.408   3.075   7.193
 5278SOL     OW16165   2.252   3.603   7.146
 5278SOL    HW116166   2.161   3.644   7.144
 5278SOL    HW216167   2.245   3.509   7.178
 5279SOL     OW16168   3.536   2.745   6.840
 5279SOL    HW116169   3.509   2.656   6.803
 5279SOL    HW216170   3.537   2.813   6.767
 5280SOL     OW16171   3.087   2.187   6.035
 5280SOL    HW116172   3.152   2.113   6.024
 5280SOL    HW216173   3.107   2.237   6.119
 5281SOL     OW16174   3.639   2.204   7.228
 5281SOL    HW116175   3.622   2.235   7.134
 5281SOL    HW216176   3.555   2.167   7.266
 5282SOL     OW16177   3.592   2.796   7.103
 5282SOL    HW116178   3.630   2.887   7.118
 5282SOL    HW216179   3.584   2.779   7.004
 5283SOL     OW16180   2.721   3.236   5.602
 5283SOL    HW116181   2.675   3.251   5.690
 5283SOL    HW216182   2.765   3.321   5.572
 5284SOL     OW16183   2.523   3.652   6.539
 5284SOL    HW116184   2.477   3.740   6.526
 5284SOL    HW216185   2.622   3.664   6.532
 5285SOL     OW16186   2.721   2.818   6.447
 5285SOL    HW116187   2.775   2.749   6.495
 5285SOL    HW216188   2.689   2.887   6.513
 5286SOL     OW16189   2.945   2.846   5.673
 5286SOL    HW116190   2.922   2.899   5.591
 5286SOL    HW216191   3.026   2.790   5.654
 5287SOL     OW16192   3.723   3.431   6.437
 5287SOL    HW116193   3.652   3.419   6.367
 5287SOL    HW216194   3.724   3.352   6.497
 5288SOL     OW16195   2.083   3.176   7.430
 5288SOL    HW116196   2.018   3.103   7.409
 5288SOL    HW216197   2.087   3.190   7.528
 5289SOL     OW16198   1.941   3.102   6.239
 5289SOL    HW116199   1.940   3.055   6.327
 5289SOL    HW216200   2.023   3.074   6.188
 5290SOL     OW16201   2.534   3.253   7.210
 5290SOL    HW116202   2.456   3.203   7.248
 5290SOL    HW216203   2.531   3.348   7.241
 5291SOL     OW16204   3.686   2.054   6.813
 5291SOL    HW116205   3.682   1.964   6.857
 5291SOL    HW216206   3.689   2.043   6.714
 5292SOL     OW16207   3.567   3.349   6.690
 5292SOL    HW116208   3.474   3.324   6.663
 5292SOL    HW216209   3.593   3.299   6.772
 5293SOL     OW16210   2.179   2.409   6.866
 5293SOL    HW116211   2.217   2.350   6.938
 5293SOL    HW216212   2.219   2.383   6.778
 5294SOL     OW16213   2.674   3.448   6.273
 5294SOL    HW116214   2.706   3.458   6.179
 5294SOL    HW216215   2.595   3.386   6.275
 5295SOL     OW16216   3.286   2.076   6.698
 5295SOL    HW116217   3.338   2.011   6.753
 5295SOL    HW216218   3.237   2.139   6.759
 5296SOL     OW16219   2.863   1.896   6.740
 5296SOL    HW116220   2.800   1.824   6.709
 5296SOL    HW216221   2.956   1.860   6.740
 5297SOL     OW16222   2.632   3.192   5.887
 5297SOL    HW116223   2.586   3.105   5.904
 5297SOL    HW216224   2.723   3.189   5.928
 5298SOL     OW16225   2.480   3.429   6.870
 5298SOL    HW116226   2.475   3.511   6.927
 5298SOL    HW216227   2.569   3.426   6.825
 5299SOL     OW16228   3.214   1.914   5.754
 5299SOL    HW116229   3.249   1.873   5.670
 5299SOL    HW216230   3.124   1.876   5.774
 5300SOL     OW16231   3.162   2.315   6.277
 5300SOL    HW116232   3.103   2.395   6.281
 5300SOL    HW216233   3.177   2.280   6.370
 5301SOL     OW16234   3.455   2.083   6.468
 5301SOL    HW116235   3.371   2.082   6.522
 5301SOL    HW216236   3.457   2.166   6.412
 5302SOL     OW16237   1.901   2.939   5.886
 5302SOL    HW116238   2.000   2.928   5.877
 5302SOL    HW216239   1.861   2.853   5.918
 5303SOL     OW16240   2.737   3.508   5.923
 5303SOL    HW116241   2.660   3.473   5.869
 5303SOL    HW216242   2.705   3.579   5.985
 5304SOL     OW16243   2.092   2.490   7.561
 5304SOL    HW116244   1.999   2.488   7.598
 5304SOL    HW216245   2.093   2.451   7.469
 5305SOL     OW16246   1.881   2.230   8.095
 5305SOL    HW116247   1.799   2.273   8.134
 5305SOL    HW216248   1.853   2.157   8.032
 5306SOL     OW16249   2.431   3.137   8.613
 5306SOL    HW116250   2.338   3.130   8.576
 5306SOL    HW216251   2.442   3.226   8.657
 5307SOL     OW16252   3.417   3.373   8.151
 5307SOL    HW116253   3.360   3.357   8.232
 5307SOL    HW216254   3.358   3.383   8.071
 5308SOL     OW16255   2.997   2.565   8.165
 5308SOL    HW116256   3.054   2.643   8.140
 5308SOL    HW216257   2.937   2.591   8.241
 5309SOL     OW16258   3.617   2.469   7.679
 5309SOL    HW116259   3.605   2.456   7.580
 5309SOL    HW216260   3.587   2.388   7.728
 5310SOL     OW16261   2.630   3.006   8.471
 5310SOL    HW116262   2.552   3.023   8.531
 5310SOL    HW216263   2.664   3.093   8.435
 5311SOL     OW16264   2.712   2.660   9.271
 5311SOL    HW116265   2.708   2.736   9.336
 5311SOL    HW216266   2.734   2.696   9.180
 5312SOL     OW16267   2.547   2.874   8.113
 5312SOL    HW116268   2.616   2.858   8.183
 5312SOL    HW216269   2.474   2.931   8.151
 5313SOL     OW16270   2.548   3.023   9.251
 5313SOL    HW116271   2.608   3.102   9.265
 5313SOL    HW216272   2.462   3.054   9.210
 5314SOL     OW16273   2.197   3.297   8.509
 5314SOL    HW116274   2.119   3.266   8.456
 5314SOL    HW216275   2.255   3.355   8.452
 5315SOL     OW16276   3.322   3.367   8.787
 5315SOL    HW116277   3.346   3.461   8.813
 5315SOL    HW216278   3.306   3.313   8.869
 5316SOL     OW16279   3.465   2.309   8.185
 5316SOL    HW116280   3.391   2.355   8.135
 5316SOL    HW216281   3.516   2.377   8.238
 5317SOL     OW16282   2.093   3.575   7.931
 5317SOL    HW116283   2.127   3.652   7.985
 5317SOL    HW216284   2.137   3.575   7.841
 5318SOL     OW16285   2.989   3.203   9.138
 5318SOL    HW116286   3.036   3.203   9.226
 5318SOL    HW216287   2.941   3.116   9.127
 5319SOL     OW16288   2.092   3.296   7.986
 5319SOL    HW116289   2.066   3.392   7.986
 5319SOL    HW216290   2.021   3.242   8.031
 5320SOL     OW16291   2.102   2.953   8.334
 5320SOL    HW116292   2.116   2.869   8.386
 5320SOL    HW216293   2.047   3.017   8.389
 5321SOL     OW16294   2.482   3.648   8.887
 5321SOL    HW116295   2.390   3.631   8.922
 5321SOL    HW216296   2.510   3.740   8.913
 5322SOL     OW16297   2.468   2.826   7.571
 5322SOL    HW116298   2.475   2.910   7.517
 5322SOL    HW216299   2.514   2.839   7.659
 5323SOL     OW16300   3.456   1.976   8.928
 5323SOL    HW116301   3.438   2.043   8.856
 5323SOL    HW216302   3.453   2.022   9.017
 5324SOL     OW16303   1.984   2.505   8.011
 5324SOL    HW116304   1.939   2.417   8.028
 5324SOL    HW216305   1.983   2.559   8.095
 5325SOL     OW16306   3.704   3.629   7.807
 5325SOL    HW116307   3.758   3.600   7.887
 5325SOL    HW216308   3.734   3.719   7.778
 5326SOL     OW16309   1.889   3.458   7.565
 5326SOL    HW116310   1.870   3.362   7.586
 5326SOL    HW216311   1.856   3.516   7.640
 5327SOL     OW16312   3.551   2.784   8.060
 5327SOL    HW116313   3.646   2.755   8.068
 5327SOL    HW216314   3.543   2.849   7.985
 5328SOL     OW16315   3.503   2.970   7.880
 5328SOL    HW116316   3.589   2.972   7.828
 5328SOL    HW216317   3.517   3.017   7.968
 5329SOL     OW16318   1.975   2.599   9.045
 5329SOL    HW116319   2.063   2.586   9.090
 5329SOL    HW216320   1.962   2.696   9.023
 5330SOL     OW16321   2.475   3.227   8.174
 5330SOL    HW116322   2.426   3.140   8.183
 5330SOL    HW216323   2.452   3.270   8.087
 5331SOL     OW16324   3.155   3.090   8.871
 5331SOL    HW116325   3.192   3.017   8.813
 5331SOL    HW216326   3.207   3.095   8.956
 5332SOL     OW16327   2.671   1.866   7.950
 5332SOL    HW116328   2.711   1.957   7.941
 5332SOL    HW216329   2.571   1.874   7.956
 5333SOL     OW16330   2.059   2.838   8.712
 5333SOL    HW116331   2.148   2.793   8.698
 5333SOL    HW216332   1.986   2.773   8.693
 5334SOL     OW16333   3.387   2.861   7.638
 5334SOL    HW116334   3.324   2.785   7.651
 5334SOL    HW216335   3.435   2.879   7.724
 5335SOL     OW16336   3.049   3.654   9.064
 5335SOL    HW116337   3.073   3.714   8.988
 5335SOL    HW216338   3.056   3.559   9.034
 5336SOL     OW16339   3.328   3.279   8.401
 5336SOL    HW116340   3.269   3.285   8.481
 5336SOL    HW216341   3.313   3.191   8.355
 5337SOL     OW16342   3.529   3.576   8.020
 5337SOL    HW116343   3.488   3.553   7.932
 5337SOL    HW216344   3.511   3.502   8.085
 5338SOL     OW16345   2.460   2.591   7.718
 5338SOL    HW116346   2.484   2.660   7.650
 5338SOL    HW216347   2.382   2.624   7.772
 5339SOL     OW16348   3.143   2.207   8.392
 5339SOL    HW116349   3.057   2.157   8.379
 5339SOL    HW216350   3.205   2.153   8.448
 5340SOL     OW16351   3.438   3.524   7.755
 5340SOL    HW116352   3.527   3.570   7.758
 5340SOL    HW216353   3.417   3.500   7.660
 5341SOL     OW16354   2.669   2.467   8.913
 5341SOL    HW116355   2.622   2.464   9.002
 5341SOL    HW216356   2.618   2.412   8.847
 5342SOL     OW16357   3.256   2.331   9.122
 5342SOL    HW116358   3.236   2.374   9.210
 5342SOL    HW216359   3.334   2.269   9.131
 5343SOL     OW16360   2.835   2.752   9.020
 5343SOL    HW116361   2.881   2.668   8.991
 5343SOL    HW216362   2.779   2.786   8.945
 5344SOL     OW16363   2.853   2.272   8.690
 5344SOL    HW116364   2.776   2.306   8.744
 5344SOL    HW216365   2.819   2.221   8.611
 5345SOL     OW16366   2.903   2.563   7.877
 5345SOL    HW116367   2.929   2.559   7.973
 5345SOL    HW216368   2.818   2.512   7.863
 5346SOL     OW16369   1.938   2.673   8.237
 5346SOL    HW116370   2.037   2.661   8.246
 5346SOL    HW216371   1.914   2.768   8.258
 5347SOL     OW16372   1.992   3.683   9.019
 5347SOL    HW116373   1.982   3.668   9.118
 5347SOL    HW216374   1.906   3.719   8.983
 5348SOL     OW16375   2.727   2.210   7.643
 5348SOL    HW116376   2.786   2.273   7.594
 5348SOL    HW216377   2.746   2.116   7.614
 5349SOL     OW16378   3.581   2.447   9.279
 5349SOL    HW116379   3.555   2.536   9.243
 5349SOL    HW216380   3.579   2.379   9.206
 5350SOL     OW16381   3.224   3.006   7.993
 5350SOL    HW116382   3.307   2.977   7.945
 5350SOL    HW216383   3.175   3.073   7.937
 5351SOL     OW16384   2.412   2.058   8.333
 5351SOL    HW116385   2.407   2.053   8.433
 5351SOL    HW216386   2.414   2.154   8.304
 5352SOL     OW16387   2.870   3.318   7.925
 5352SOL    HW116388   2.824   3.390   7.873
 5352SOL    HW216389   2.866   3.338   8.023
 5353SOL     OW16390   2.213   3.663   8.301
 5353SOL    HW116391   2.263   3.577   8.307
 5353SOL    HW216392   2.278   3.740   8.298
 5354SOL     OW16393   3.657   2.928   8.321
 5354SOL    HW116394   3.595   2.913   8.245
 5354SOL    HW216395   3.605   2.939   8.406
 5355SOL     OW16396   3.089   3.412   8.954
 5355SOL    HW116397   3.095   3.335   9.018
 5355SOL    HW216398   3.037   3.386   8.874
 5356SOL     OW16399   2.183   2.805   7.690
 5356SOL    HW116400   2.265   2.844   7.648
 5356SOL    HW216401   2.156   2.723   7.641
 5357SOL     OW16402   3.320   2.597   8.176
 5357SOL    HW116403   3.315   2.532   8.251
 5357SOL    HW216404   3.400   2.656   8.189
 5358SOL     OW16405   2.323   3.128   9.175
 5358SOL    HW116406   2.273   3.129   9.089
 5358SOL    HW216407   2.260   3.110   9.251
 5359SOL     OW16408   2.973   3.638   7.685
 5359SOL    HW116409   2.913   3.576   7.735
 5359SOL    HW216410   3.004   3.594   7.600
 5360SOL     OW16411   3.494   3.239   7.529
 5360SOL    HW116412   3.462   3.333   7.519
 5360SOL    HW216413   3.418   3.176   7.517
 5361SOL     OW16414   2.326   3.605   7.771
 5361SOL    HW116415   2.359   3.644   7.857
 5361SOL    HW216416   2.402   3.598   7.706
 5362SOL     OW16417   3.262   1.969   7.874
 5362SOL    HW116418   3.238   1.932   7.784
 5362SOL    HW216419   3.361   1.985   7.878
 5363SOL     OW16420   2.111   3.647   8.689
 5363SOL    HW116421   2.168   3.582   8.739
 5363SOL    HW216422   2.095   3.614   8.596
 5364SOL     OW16423   2.802   3.560   8.352
 5364SOL    HW116424   2.882   3.503   8.373
 5364SOL    HW216425   2.753   3.520   8.275
 5365SOL     OW16426   2.244   2.562   7.928
 5365SOL    HW116427   2.289   2.472   7.925
 5365SOL    HW216428   2.150   2.551   7.961
 5366SOL     OW16429   3.409   2.084   9.177
 5366SOL    HW116430   3.404   2.121   9.269
 5366SOL    HW216431   3.337   2.015   9.165
 5367SOL     OW16432   2.476   1.984   7.565
 5367SOL    HW116433   2.574   1.962   7.572
 5367SOL    HW216434   2.445   1.967   7.472
 5368SOL     OW16435   2.643   2.126   9.197
 5368SOL    HW116436   2.710   2.065   9.240
 5368SOL    HW216437   2.570   2.145   9.262
 5369SOL     OW16438   2.750   3.376   8.643
 5369SOL    HW116439   2.727   3.351   8.549
 5369SOL    HW216440   2.811   3.307   8.682
 5370SOL     OW16441   3.213   2.452   8.881
 5370SOL    HW116442   3.241   2.409   8.966
 5370SOL    HW216443   3.238   2.548   8.882
 5371SOL     OW16444   2.665   3.264   8.372
 5371SOL    HW116445   2.755   3.278   8.330
 5371SOL    HW216446   2.594   3.266   8.301
 5372SOL     OW16447   2.784   2.365   8.347
 5372SOL    HW116448   2.759   2.356   8.251
 5372SOL    HW216449   2.832   2.283   8.378
 5373SOL     OW16450   2.401   1.926   7.960
 5373SOL    HW116451   2.320   1.927   8.018
 5373SOL    HW216452   2.404   2.009   7.905
 5374SOL     OW16453   3.296   3.050   7.489
 5374SOL    HW116454   3.328   2.974   7.546
 5374SOL    HW216455   3.204   3.077   7.519
 5375SOL     OW16456   2.797   2.098   7.928
 5375SOL    HW116457   2.749   2.139   7.850
 5375SOL    HW216458   2.896   2.096   7.909
 5376SOL     OW16459   2.938   2.545   8.912
 5376SOL    HW116460   2.858   2.484   8.915
 5376SOL    HW216461   3.019   2.492   8.888
 5377SOL     OW16462   3.089   3.432   8.241
 5377SOL    HW116463   3.110   3.506   8.176
 5377SOL    HW216464   3.157   3.432   8.314
 5378SOL     OW16465   2.321   3.014   8.189
 5378SOL    HW116466   2.250   2.987   8.254
 5378SOL    HW216467   2.295   2.986   8.096
 5379SOL     OW16468   3.133   3.659   8.039
 5379SOL    HW116469   3.177   3.723   7.975
 5379SOL    HW216470   3.083   3.711   8.109
 5380SOL     OW16471   2.894   2.411   7.464
 5380SOL    HW116472   2.853   2.493   7.425
 5380SOL    HW216473   2.958   2.437   7.537
 5381SOL     OW16474   1.940   2.418   8.834
 5381SOL    HW116475   2.032   2.417   8.793
 5381SOL    HW216476   1.934   2.492   8.901
 5382SOL     OW16477   2.728   2.316   8.090
 5382SOL    HW116478   2.696   2.388   8.028
 5382SOL    HW216479   2.752   2.235   8.037
 5383SOL     OW16480   2.879   1.901   8.201
 5383SOL    HW116481   2.807   1.906   8.132
 5383SOL    HW216482   2.855   1.832   8.270
 5384SOL     OW16483   3.291   3.035   8.315
 5384SOL    HW116484   3.236   2.951   8.308
 5384SOL    HW216485   3.317   3.064   8.223
 5385SOL     OW16486   3.328   2.452   8.440
 5385SOL    HW116487   3.298   2.357   8.447
 5385SOL    HW216488   3.401   2.468   8.506
 5386SOL     OW16489   3.719   2.695   7.825
 5386SOL    HW116490   3.761   2.631   7.889
 5386SOL    HW216491   3.681   2.644   7.747
 5387SOL     OW16492   2.350   3.247   7.622
 5387SOL    HW116493   2.263   3.232   7.669
 5387SOL    HW216494   2.333   3.273   7.527
 5388SOL     OW16495   3.526   3.142   8.105
 5388SOL    HW116496   3.625   3.150   8.119
 5388SOL    HW216497   3.481   3.226   8.136
 5389SOL     OW16498   3.252   2.437   7.526
 5389SOL    HW116499   3.198   2.416   7.607
 5389SOL    HW216500   3.343   2.396   7.535
 5390SOL     OW16501   2.389   2.118   7.776
 5390SOL    HW116502   2.416   2.059   7.701
 5390SOL    HW216503   2.389   2.213   7.745
 5391SOL     OW16504   3.616   3.085   9.036
 5391SOL    HW116505   3.707   3.046   9.023
 5391SOL    HW216506   3.624   3.181   9.060
 5392SOL     OW16507   2.926   3.209   8.788
 5392SOL    HW116508   2.846   3.186   8.843
 5392SOL    HW216509   3.009   3.183   8.837
 5393SOL     OW16510   3.454   3.491   9.073
 5393SOL    HW116511   3.481   3.525   8.983
 5393SOL    HW216512   3.533   3.453   9.119
 5394SOL     OW16513   2.973   3.057   8.548
 5394SOL    HW116514   2.933   3.101   8.629
 5394SOL    HW216515   2.932   3.094   8.465
 5395SOL     OW16516   3.500   2.961   8.527
 5395SOL    HW116517   3.505   3.042   8.586
 5395SOL    HW216518   3.414   2.963   8.476
 5396SOL     OW16519   2.777   1.951   8.850
 5396SOL    HW116520   2.802   1.931   8.755
 5396SOL    HW216521   2.849   2.007   8.892
 5397SOL     OW16522   2.842   2.978   9.167
 5397SOL    HW116523   2.743   2.984   9.177
 5397SOL    HW216524   2.865   2.898   9.111
 5398SOL     OW16525   2.567   2.912   7.816
 5398SOL    HW116526   2.553   2.919   7.915
 5398SOL    HW216527   2.651   2.861   7.798
 5399SOL     OW16528   2.272   2.675   8.699
 5399SOL    HW116529   2.358   2.687   8.749
 5399SOL    HW216530   2.230   2.588   8.726
 5400SOL     OW16531   3.136   2.248   8.710
 5400SOL    HW116532   3.157   2.322   8.774
 5400SOL    HW216533   3.047   2.265   8.667
 5401SOL     OW16534   1.926   3.426   8.779
 5401SOL    HW116535   1.880   3.508   8.745
 5401SOL    HW216536   2.024   3.445   8.788
 5402SOL     OW16537   2.229   2.962   7.949
 5402SOL    HW116538   2.222   3.045   7.893
 5402SOL    HW216539   2.233   2.882   7.889
 5403SOL     OW16540   2.428   2.399   8.313
 5403SOL    HW116541   2.440   2.465   8.239
 5403SOL    HW216542   2.474   2.433   8.396
 5404SOL     OW16543   3.114   3.210   7.836
 5404SOL    HW116544   3.164   3.287   7.876
 5404SOL    HW216545   3.019   3.212   7.868
 5405SOL     OW16546   3.134   3.307   8.590
 5405SOL    HW116547   3.181   3.320   8.677
 5405SOL    HW216548   3.068   3.233   8.599
 5406SOL     OW16549   3.444   2.501   7.920
 5406SOL    HW116550   3.413   2.562   7.993
 5406SOL    HW216551   3.494   2.553   7.851
 5407SOL     OW16552   2.216   3.372   8.777
 5407SOL    HW116553   2.195   3.328   8.690
 5407SOL    HW216554   2.313   3.398   8.780
 5408SOL     OW16555   2.264   2.613   9.046
 5408SOL    HW116556   2.332   2.668   8.999
 5408SOL    HW216557   2.304   2.525   9.073
 5409SOL     OW16558   3.449   2.641   9.118
 5409SOL    HW116559   3.357   2.679   9.113
 5409SOL    HW216560   3.509   2.688   9.053
 5410SOL     OW16561   2.875   1.967   9.218
 5410SOL    HW116562   2.881   2.052   9.166
 5410SOL    HW216563   2.907   1.891   9.161
 5411SOL     OW16564   2.366   1.912   9.188
 5411SOL    HW116565   2.324   1.855   9.118
 5411SOL    HW216566   2.300   1.981   9.220
 5412SOL     OW16567   2.435   2.732   8.477
 5412SOL    HW116568   2.479   2.821   8.468
 5412SOL    HW216569   2.372   2.732   8.554
 5413SOL     OW16570   3.222   2.724   8.493
 5413SOL    HW116571   3.147   2.724   8.427
 5413SOL    HW216572   3.259   2.632   8.502
 5414SOL     OW16573   3.071   2.387   7.723
 5414SOL    HW116574   3.084   2.303   7.777
 5414SOL    HW216575   3.042   2.461   7.783
 5415SOL     OW16576   1.899   3.172   8.730
 5415SOL    HW116577   1.952   3.123   8.798
 5415SOL    HW216578   1.921   3.270   8.735
 5416SOL     OW16579   2.594   2.496   8.512
 5416SOL    HW116580   2.653   2.470   8.436
 5416SOL    HW216581   2.566   2.592   8.501
 5417SOL     OW16582   3.590   2.797   9.302
 5417SOL    HW116583   3.544   2.790   9.213
 5417SOL    HW216584   3.528   2.841   9.368
 5418SOL     OW16585   3.484   2.229   7.822
 5418SOL    HW116586   3.486   2.153   7.886
 5418SOL    HW216587   3.436   2.306   7.862
 5419SOL     OW16588   2.885   2.628   8.414
 5419SOL    HW116589   2.900   2.649   8.510
 5419SOL    HW216590   2.855   2.533   8.405
 5420SOL     OW16591   2.842   3.435   9.148
 5420SOL    HW116592   2.822   3.479   9.060
 5420SOL    HW216593   2.881   3.344   9.132
 5421SOL     OW16594   3.721   3.380   9.053
 5421SOL    HW116595   3.735   3.407   8.958
 5421SOL    HW216596   3.804   3.402   9.106
 5422SOL     OW16597   2.212   2.760   9.252
 5422SOL    HW116598   2.288   2.804   9.300
 5422SOL    HW216599   2.247   2.713   9.170
 5423SOL     OW16600   3.402   2.136   7.573
 5423SOL    HW116601   3.341   2.061   7.596
 5423SOL    HW216602   3.424   2.188   7.656
 5424SOL     OW16603   3.165   2.700   7.490
 5424SOL    HW116604   3.199   2.607   7.505
 5424SOL    HW216605   3.183   2.727   7.395
 5425SOL     OW16606   2.930   3.195   8.297
 5425SOL    HW116607   2.937   3.111   8.242
 5425SOL    HW216608   2.992   3.264   8.261
 5426SOL     OW16609   2.181   2.672   8.397
 5426SOL    HW116610   2.274   2.708   8.402
 5426SOL    HW216611   2.175   2.587   8.449
 5427SOL     OW16612   3.000   2.242   9.126
 5427SOL    HW116613   2.955   2.305   9.190
 5427SOL    HW216614   3.093   2.273   9.109
 5428SOL     OW16615   3.022   2.069   8.925
 5428SOL    HW116616   3.022   2.133   9.002
 5428SOL    HW216617   3.050   2.117   8.842
 5429SOL     OW16618   1.870   3.188   7.648
 5429SOL    HW116619   1.777   3.209   7.617
 5429SOL    HW216620   1.880   3.089   7.661
 5430SOL     OW16621   1.950   3.663   8.375
 5430SOL    HW116622   1.908   3.577   8.348
 5430SOL    HW216623   2.044   3.666   8.341
 5431SOL     OW16624   2.366   3.430   8.358
 5431SOL    HW116625   2.432   3.504   8.367
 5431SOL    HW216626   2.410   3.351   8.316
 5432SOL     OW16627   2.864   2.658   8.686
 5432SOL    HW116628   2.905   2.626   8.772
 5432SOL    HW216629   2.768   2.631   8.683
 5433SOL     OW16630   1.902   2.406   8.562
 5433SOL    HW116631   1.987   2.373   8.521
 5433SOL    HW216632   1.915   2.421   8.660
 5434SOL     OW16633   2.051   2.382   9.170
 5434SOL    HW116634   2.110   2.342   9.100
 5434SOL    HW216635   1.993   2.453   9.129
 5435SOL     OW16636   3.231   2.812   9.108
 5435SOL    HW116637   3.270   2.901   9.128
 5435SOL    HW216638   3.241   2.792   9.011
 5436SOL     OW16639   2.677   2.434   7.773
 5436SOL    HW116640   2.684   2.345   7.727
 5436SOL    HW216641   2.583   2.468   7.765
 5437SOL     OW16642   3.519   2.466   8.654
 5437SOL    HW116643   3.481   2.397   8.716
 5437SOL    HW216644   3.601   2.430   8.610
 5438SOL     OW16645   2.114   3.426   9.192
 5438SOL    HW116646   2.084   3.483   9.268
 5438SOL    HW216647   2.107   3.329   9.218
 5439SOL     OW16648   2.533   2.326   8.717
 5439SOL    HW116649   2.499   2.237   8.687
 5439SOL    HW216650   2.559   2.380   8.637
 5440SOL     OW16651   2.792   3.540   8.913
 5440SOL    HW116652   2.768   3.522   8.818
 5440SOL    HW216653   2.822   3.634   8.923
 5441SOL     OW16654   2.335   2.362   7.639
 5441SOL    HW116655   2.396   2.442   7.643
 5441SOL    HW216656   2.240   2.393   7.646
 5442SOL     OW16657   2.021   2.999   8.914
 5442SOL    HW116658   2.043   2.938   8.990
 5442SOL    HW216659   2.031   2.950   8.828
 5443SOL     OW16660   3.209   2.921   8.682
 5443SOL    HW116661   3.233   2.858   8.608
 5443SOL    HW216662   3.119   2.961   8.664
 5444SOL     OW16663   3.164   2.717   7.757
 5444SOL    HW116664   3.078   2.686   7.799
 5444SOL    HW216665   3.160   2.703   7.658
 5445SOL     OW16666   3.621   3.609   8.602
 5445SOL    HW116667   3.682   3.639   8.529
 5445SOL    HW216668   3.583   3.520   8.580
 5446SOL     OW16669   3.114   3.593   8.576
 5446SOL    HW116670   3.198   3.598   8.522
 5446SOL    HW216671   3.091   3.497   8.594
 5447SOL     OW16672   1.945   3.120   8.470
 5447SOL    HW116673   1.940   3.119   8.570
 5447SOL    HW216674   1.862   3.079   8.432
 5448SOL     OW16675   2.550   3.524   9.164
 5448SOL    HW116676   2.494   3.605   9.173
 5448SOL    HW216677   2.602   3.528   9.078
 5449SOL     OW16678   3.588   1.997   7.971
 5449SOL    HW116679   3.661   1.980   7.904
 5449SOL    HW216680   3.557   1.910   8.009
 5450SOL     OW16681   3.250   3.435   7.925
 5450SOL    HW116682   3.317   3.447   7.851
 5450SOL    HW216683   3.210   3.524   7.948
 5451SOL     OW16684   1.992   3.656   9.299
 5451SOL    HW116685   1.951   3.582   9.352
 5451SOL    HW216686   2.056   3.707   9.357
 5452SOL     OW16687   3.142   2.789   8.120
 5452SOL    HW116688   3.202   2.708   8.122
 5452SOL    HW216689   3.182   2.858   8.060
 5453SOL     OW16690   2.692   3.135   8.870
 5453SOL    HW116691   2.687   3.168   8.965
 5453SOL    HW216692   2.606   3.154   8.824
 5454SOL     OW16693   2.534   3.478   7.602
 5454SOL    HW116694   2.543   3.488   7.503
 5454SOL    HW216695   2.494   3.389   7.623
 5455SOL     OW16696   3.512   3.582   8.842
 5455SOL    HW116697   3.565   3.592   8.758
 5455SOL    HW216698   3.485   3.672   8.876
 5456SOL     OW16699   3.703   2.037   8.411
 5456SOL    HW116700   3.742   1.952   8.375
 5456SOL    HW216701   3.605   2.039   8.392
 5457SOL     OW16702   3.056   3.474   7.479
 5457SOL    HW116703   3.062   3.381   7.516
 5457SOL    HW216704   2.997   3.474   7.399
 5458SOL     OW16705   2.684   2.864   8.820
 5458SOL    HW116706   2.724   2.863   8.728
 5458SOL    HW216707   2.694   2.956   8.860
 5459SOL     OW16708   2.778   2.772   7.739
 5459SOL    HW116709   2.841   2.810   7.671
 5459SOL    HW216710   2.818   2.689   7.778
 5460SOL     OW16711   3.366   3.469   7.492
 5460SOL    HW116712   3.274   3.506   7.499
 5460SOL    HW216713   3.404   3.489   7.402
 5461SOL     OW16714   2.234   3.150   8.938
 5461SOL    HW116715   2.221   3.243   8.904
 5461SOL    HW216716   2.150   3.098   8.925
 5462SOL     OW16717   3.476   3.154   8.737
 5462SOL    HW116718   3.536   3.157   8.817
 5462SOL    HW216719   3.401   3.218   8.750
 5463SOL     OW16720   2.901   2.960   8.144
 5463SOL    HW116721   2.831   2.913   8.198
 5463SOL    HW216722   2.960   2.892   8.101
 5464SOL     OW16723   2.876   2.098   8.419
 5464SOL    HW116724   2.868   2.062   8.326
 5464SOL    HW216725   2.874   2.022   8.484
 5465SOL     OW16726   2.452   3.349   7.939
 5465SOL    HW116727   2.494   3.291   7.869
 5465SOL    HW216728   2.408   3.428   7.895
 5466SOL     OW16729   3.571   2.247   8.829
 5466SOL    HW116730   3.644   2.316   8.833
 5466SOL    HW216731   3.599   2.172   8.770
 5467SOL     OW16732   2.117   3.210   7.738
 5467SOL    HW116733   2.021   3.211   7.711
 5467SOL    HW216734   2.129   3.263   7.822
 5468SOL     OW16735   1.967   2.875   9.174
 5468SOL    HW116736   1.890   2.842   9.228
 5468SOL    HW216737   2.052   2.845   9.216
 5469SOL     OW16738   2.534   2.065   8.937
 5469SOL    HW116739   2.624   2.049   8.897
 5469SOL    HW216740   2.542   2.070   9.036
 5470SOL     OW16741   3.302   2.718   8.846
 5470SOL    HW116742   3.245   2.770   8.783
 5470SOL    HW216743   3.398   2.730   8.822
 5471SOL     OW16744   3.045   3.197   7.567
 5471SOL    HW116745   2.946   3.186   7.569
 5471SOL    HW216746   3.079   3.212   7.660
 5472SOL     OW16747   2.475   2.704   8.879
 5472SOL    HW116748   2.531   2.785   8.862
 5472SOL    HW216749   2.534   2.624   8.882
 5473SOL     OW16750   3.355   3.629   8.407
 5473SOL    HW116751   3.388   3.693   8.338
 5473SOL    HW216752   3.421   3.623   8.482
 5474SOL     OW16753   2.578   2.427   9.156
 5474SOL    HW116754   2.597   2.492   9.230
 5474SOL    HW216755   2.638   2.347   9.165
 5475SOL     OW16756   3.312   3.082   9.081
 5475SOL    HW116757   3.303   3.072   9.180
 5475SOL    HW216758   3.408   3.075   9.055
 5476SOL     OW16759   2.252   3.603   9.008
 5476SOL    HW116760   2.161   3.644   9.006
 5476SOL    HW216761   2.245   3.509   9.040
 5477SOL     OW16762   3.536   2.745   8.702
 5477SOL    HW116763   3.509   2.656   8.665
 5477SOL    HW216764   3.537   2.813   8.629
 5478SOL     OW16765   3.087   2.187   7.897
 5478SOL    HW116766   3.152   2.113   7.886
 5478SOL    HW216767   3.107   2.237   7.981
 5479SOL     OW16768   2.456   2.607   8.100
 5479SOL    HW116769   2.506   2.692   8.081
 5479SOL    HW216770   2.368   2.609   8.052
 5480SOL     OW16771   3.639   2.204   9.090
 5480SOL    HW116772   3.622   2.235   8.996
 5480SOL    HW216773   3.555   2.167   9.128
 5481SOL     OW16774   3.592   2.796   8.965
 5481SOL    HW116775   3.630   2.887   8.980
 5481SOL    HW216776   3.584   2.779   8.866
 5482SOL     OW16777   2.721   3.236   7.464
 5482SOL    HW116778   2.675   3.251   7.552
 5482SOL    HW216779   2.765   3.321   7.434
 5483SOL     OW16780   2.523   3.652   8.401
 5483SOL    HW116781   2.477   3.740   8.388
 5483SOL    HW216782   2.622   3.664   8.394
 5484SOL     OW16783   2.721   2.818   8.309
 5484SOL    HW116784   2.775   2.749   8.357
 5484SOL    HW216785   2.689   2.887   8.375
 5485SOL     OW16786   2.945   2.846   7.535
 5485SOL    HW116787   2.922   2.899   7.453
 5485SOL    HW216788   3.026   2.790   7.516
 5486SOL     OW16789   3.723   3.431   8.299
 5486SOL    HW116790   3.652   3.419   8.229
 5486SOL    HW216791   3.724   3.352   8.359
 5487SOL     OW16792   2.083   3.176   9.292
 5487SOL    HW116793   2.018   3.103   9.271
 5487SOL    HW216794   2.087   3.190   9.390
 5488SOL     OW16795   1.941   3.102   8.101
 5488SOL    HW116796   1.940   3.055   8.189
 5488SOL    HW216797   2.023   3.074   8.050
 5489SOL     OW16798   2.534   3.253   9.072
 5489SOL    HW116799   2.456   3.203   9.110
 5489SOL    HW216800   2.531   3.348   9.103
 5490SOL     OW16801   3.686   2.054   8.675
 5490SOL    HW116802   3.682   1.964   8.719
 5490SOL    HW216803   3.689   2.043   8.576
 5491SOL     OW16804   3.567   3.349   8.552
 5491SOL    HW116805   3.474   3.324   8.525
 5491SOL    HW216806   3.593   3.299   8.634
 5492SOL     OW16807   2.674   3.448   8.135
 5492SOL    HW116808   2.706   3.458   8.041
 5492SOL    HW216809   2.595   3.386   8.137
 5493SOL     OW16810   3.286   2.076   8.560
 5493SOL    HW116811   3.338   2.011   8.615
 5493SOL    HW216812   3.237   2.139   8.621
 5494SOL     OW16813   2.863   1.896   8.602
 5494SOL    HW116814   2.800   1.824   8.571
 5494SOL    HW216815   2.956   1.860   8.602
 5495SOL     OW16816   2.632   3.192   7.749
 5495SOL    HW116817   2.586   3.105   7.766
 5495SOL    HW216818   2.723   3.189   7.790
 5496SOL     OW16819   2.480   3.429   8.732
 5496SOL    HW116820   2.475   3.511   8.789
 5496SOL    HW216821   2.569   3.426   8.687
 5497SOL     OW16822   3.214   1.914   7.616
 5497SOL    HW116823   3.249   1.873   7.532
 5497SOL    HW216824   3.124   1.876   7.636
 5498SOL     OW16825   3.162   2.315   8.139
 5498SOL    HW116826   3.103   2.395   8.143
 5498SOL    HW216827   3.177   2.280   8.232
 5499SOL     OW16828   3.455   2.083   8.330
 5499SOL    HW116829   3.371   2.082   8.384
 5499SOL    HW216830   3.457   2.166   8.274
 5500SOL     OW16831   1.901   2.939   7.748
 5500SOL    HW116832   2.000   2.928   7.739
 5500SOL    HW216833   1.861   2.853   7.780
 5501SOL     OW16834   2.737   3.508   7.785
 5501SOL    HW116835   2.660   3.473   7.731
 5501SOL    HW216836   2.705   3.579   7.847
 5502SOL     OW16837   2.092   2.490   9.423
 5502SOL    HW116838   1.999   2.488   9.460
 5502SOL    HW216839   2.093   2.451   9.331
 5503SOL     OW16840   1.881   2.230   9.957
 5503SOL    HW116841   1.799   2.273   9.996
 5503SOL    HW216842   1.853   2.157   9.894
 5504SOL     OW16843   2.431   3.137  10.475
 5504SOL    HW116844   2.338   3.130  10.438
 5504SOL    HW216845   2.442   3.226  10.519
 5505SOL     OW16846   3.417   3.373  10.013
 5505SOL    HW116847   3.360   3.357  10.094
 5505SOL    HW216848   3.358   3.383   9.933
 5506SOL     OW16849   2.997   2.565  10.027
 5506SOL    HW116850   3.054   2.643  10.002
 5506SOL    HW216851   2.937   2.591  10.103
 5507SOL     OW16852   3.617   2.469   9.541
 5507SOL    HW116853   3.605   2.456   9.442
 5507SOL    HW216854   3.587   2.388   9.590
 5508SOL     OW16855   2.630   3.006  10.333
 5508SOL    HW116856   2.552   3.023  10.393
 5508SOL    HW216857   2.664   3.093  10.297
 5509SOL     OW16858   2.712   2.660  11.133
 5509SOL    HW116859   2.708   2.736  11.198
 5509SOL    HW216860   2.734   2.696  11.042
 5510SOL     OW16861   2.547   2.874   9.975
 5510SOL    HW116862   2.616   2.858  10.045
 5510SOL    HW216863   2.474   2.931  10.013
 5511SOL     OW16864   2.548   3.023  11.113
 5511SOL    HW116865   2.608   3.102  11.127
 5511SOL    HW216866   2.462   3.054  11.072
 5512SOL     OW16867   2.197   3.297  10.371
 5512SOL    HW116868   2.119   3.266  10.318
 5512SOL    HW216869   2.255   3.355  10.314
 5513SOL     OW16870   3.322   3.367  10.649
 5513SOL    HW116871   3.346   3.461  10.675
 5513SOL    HW216872   3.306   3.313  10.731
 5514SOL     OW16873   3.465   2.309  10.047
 5514SOL    HW116874   3.391   2.355   9.997
 5514SOL    HW216875   3.516   2.377  10.100
 5515SOL     OW16876   2.093   3.575   9.793
 5515SOL    HW116877   2.127   3.652   9.847
 5515SOL    HW216878   2.137   3.575   9.703
 5516SOL     OW16879   2.989   3.203  11.000
 5516SOL    HW116880   3.036   3.203  11.088
 5516SOL    HW216881   2.941   3.116  10.989
 5517SOL     OW16882   2.092   3.296   9.848
 5517SOL    HW116883   2.066   3.392   9.848
 5517SOL    HW216884   2.021   3.242   9.893
 5518SOL     OW16885   2.102   2.953  10.196
 5518SOL    HW116886   2.116   2.869  10.248
 5518SOL    HW216887   2.047   3.017  10.251
 5519SOL     OW16888   2.482   3.648  10.749
 5519SOL    HW116889   2.390   3.631  10.784
 5519SOL    HW216890   2.510   3.740  10.775
 5520SOL     OW16891   2.468   2.826   9.433
 5520SOL    HW116892   2.475   2.910   9.379
 5520SOL    HW216893   2.514   2.839   9.521
 5521SOL     OW16894   3.456   1.976  10.790
 5521SOL    HW116895   3.438   2.043  10.718
 5521SOL    HW216896   3.453   2.022  10.879
 5522SOL     OW16897   1.984   2.505   9.873
 5522SOL    HW116898   1.939   2.417   9.890
 5522SOL    HW216899   1.983   2.559   9.957
 5523SOL     OW16900   3.704   3.629   9.669
 5523SOL    HW116901   3.758   3.600   9.749
 5523SOL    HW216902   3.734   3.719   9.640
 5524SOL     OW16903   1.889   3.458   9.427
 5524SOL    HW116904   1.870   3.362   9.448
 5524SOL    HW216905   1.856   3.516   9.502
 5525SOL     OW16906   3.551   2.784   9.922
 5525SOL    HW116907   3.646   2.755   9.930
 5525SOL    HW216908   3.543   2.849   9.847
 5526SOL     OW16909   3.503   2.970   9.742
 5526SOL    HW116910   3.589   2.972   9.690
 5526SOL    HW216911   3.517   3.017   9.830
 5527SOL     OW16912   1.975   2.599  10.907
 5527SOL    HW116913   2.063   2.586  10.952
 5527SOL    HW216914   1.962   2.696  10.885
 5528SOL     OW16915   2.475   3.227  10.036
 5528SOL    HW116916   2.426   3.140  10.045
 5528SOL    HW216917   2.452   3.270   9.949
 5529SOL     OW16918   3.155   3.090  10.733
 5529SOL    HW116919   3.192   3.017  10.675
 5529SOL    HW216920   3.207   3.095  10.818
 5530SOL     OW16921   2.671   1.866   9.812
 5530SOL    HW116922   2.711   1.957   9.803
 5530SOL    HW216923   2.571   1.874   9.818
 5531SOL     OW16924   2.059   2.838  10.574
 5531SOL    HW116925   2.148   2.793  10.560
 5531SOL    HW216926   1.986   2.773  10.555
 5532SOL     OW16927   3.387   2.861   9.500
 5532SOL    HW116928   3.324   2.785   9.513
 5532SOL    HW216929   3.435   2.879   9.586
 5533SOL     OW16930   3.049   3.654  10.926
 5533SOL    HW116931   3.073   3.714  10.850
 5533SOL    HW216932   3.056   3.559  10.896
 5534SOL     OW16933   3.328   3.279  10.263
 5534SOL    HW116934   3.269   3.285  10.343
 5534SOL    HW216935   3.313   3.191  10.217
 5535SOL     OW16936   3.529   3.576   9.882
 5535SOL    HW116937   3.488   3.553   9.794
 5535SOL    HW216938   3.511   3.502   9.947
 5536SOL     OW16939   2.460   2.591   9.580
 5536SOL    HW116940   2.484   2.660   9.512
 5536SOL    HW216941   2.382   2.624   9.634
 5537SOL     OW16942   3.143   2.207  10.254
 5537SOL    HW116943   3.057   2.157  10.241
 5537SOL    HW216944   3.205   2.153  10.310
 5538SOL     OW16945   3.438   3.524   9.617
 5538SOL    HW116946   3.527   3.570   9.620
 5538SOL    HW216947   3.417   3.500   9.522
 5539SOL     OW16948   2.669   2.467  10.775
 5539SOL    HW116949   2.622   2.464  10.864
 5539SOL    HW216950   2.618   2.412  10.709
 5540SOL     OW16951   3.256   2.331  10.984
 5540SOL    HW116952   3.236   2.374  11.072
 5540SOL    HW216953   3.334   2.269  10.993
 5541SOL     OW16954   2.835   2.752  10.882
 5541SOL    HW116955   2.881   2.668  10.853
 5541SOL    HW216956   2.779   2.786  10.807
 5542SOL     OW16957   2.853   2.272  10.552
 5542SOL    HW116958   2.776   2.306  10.606
 5542SOL    HW216959   2.819   2.221  10.473
 5543SOL     OW16960   2.903   2.563   9.739
 5543SOL    HW116961   2.929   2.559   9.835
 5543SOL    HW216962   2.818   2.512   9.725
 5544SOL     OW16963   1.938   2.673  10.099
 5544SOL    HW116964   2.037   2.661  10.108
 5544SOL    HW216965   1.914   2.768  10.120
 5545SOL     OW16966   1.992   3.683  10.881
 5545SOL    HW116967   1.982   3.668  10.980
 5545SOL    HW216968   1.906   3.719  10.845
 5546SOL     OW16969   2.727   2.210   9.505
 5546SOL    HW116970   2.786   2.273   9.456
 5546SOL    HW216971   2.746   2.116   9.476
 5547SOL     OW16972   3.581   2.447  11.141
 5547SOL    HW116973   3.555   2.536  11.105
 5547SOL    HW216974   3.579   2.379  11.068
 5548SOL     OW16975   3.224   3.006   9.855
 5548SOL    HW116976   3.307   2.977   9.807
 5548SOL    HW216977   3.175   3.073   9.799
 5549SOL     OW16978   2.412   2.058  10.195
 5549SOL    HW116979   2.407   2.053  10.295
 5549SOL    HW216980   2.414   2.154  10.166
 5550SOL     OW16981   2.870   3.318   9.787
 5550SOL    HW116982   2.824   3.390   9.735
 5550SOL    HW216983   2.866   3.338   9.885
 5551SOL     OW16984   2.213   3.663  10.163
 5551SOL    HW116985   2.263   3.577  10.169
 5551SOL    HW216986   2.278   3.740  10.160
 5552SOL     OW16987   3.657   2.928  10.183
 5552SOL    HW116988   3.595   2.913  10.107
 5552SOL    HW216989   3.605   2.939  10.268
 5553SOL     OW16990   3.089   3.412  10.816
 5553SOL    HW116991   3.095   3.335  10.880
 5553SOL    HW216992   3.037   3.386  10.736
 5554SOL     OW16993   2.183   2.805   9.552
 5554SOL    HW116994   2.265   2.844   9.510
 5554SOL    HW216995   2.156   2.723   9.503
 5555SOL     OW16996   3.320   2.597  10.038
 5555SOL    HW116997   3.315   2.532  10.113
 5555SOL    HW216998   3.400   2.656  10.051
 5556SOL     OW16999   2.323   3.128  11.037
 5556SOL    HW117000   2.273   3.129  10.951
 5556SOL    HW217001   2.260   3.110  11.113
 5557SOL     OW17002   2.973   3.638   9.547
 5557SOL    HW117003   2.913   3.576   9.597
 5557SOL    HW217004   3.004   3.594   9.462
 5558SOL     OW17005   3.494   3.239   9.391
 5558SOL    HW117006   3.462   3.333   9.381
 5558SOL    HW217007   3.418   3.176   9.379
 5559SOL     OW17008   2.326   3.605   9.633
 5559SOL    HW117009   2.359   3.644   9.719
 5559SOL    HW217010   2.402   3.598   9.568
 5560SOL     OW17011   3.262   1.969   9.736
 5560SOL    HW117012   3.238   1.932   9.646
 5560SOL    HW217013   3.361   1.985   9.740
 5561SOL     OW17014   2.111   3.647  10.551
 5561SOL    HW117015   2.168   3.582  10.601
 5561SOL    HW217016   2.095   3.614  10.458
 5562SOL     OW17017   2.802   3.560  10.214
 5562SOL    HW117018   2.882   3.503  10.235
 5562SOL    HW217019   2.753   3.520  10.137
 5563SOL     OW17020   2.244   2.562   9.790
 5563SOL    HW117021   2.289   2.472   9.787
 5563SOL    HW217022   2.150   2.551   9.823
 5564SOL     OW17023   3.409   2.084  11.039
 5564SOL    HW117024   3.404   2.121  11.131
 5564SOL    HW217025   3.337   2.015  11.027
 5565SOL     OW17026   2.476   1.984   9.427
 5565SOL    HW117027   2.574   1.962   9.434
 5565SOL    HW217028   2.445   1.967   9.334
 5566SOL     OW17029   2.643   2.126  11.059
 5566SOL    HW117030   2.710   2.065  11.102
 5566SOL    HW217031   2.570   2.145  11.124
 5567SOL     OW17032   2.750   3.376  10.505
 5567SOL    HW117033   2.727   3.351  10.411
 5567SOL    HW217034   2.811   3.307  10.544
 5568SOL     OW17035   3.213   2.452  10.743
 5568SOL    HW117036   3.241   2.409  10.828
 5568SOL    HW217037   3.238   2.548  10.744
 5569SOL     OW17038   2.665   3.264  10.234
 5569SOL    HW117039   2.755   3.278  10.192
 5569SOL    HW217040   2.594   3.266  10.163
 5570SOL     OW17041   2.784   2.365  10.209
 5570SOL    HW117042   2.759   2.356  10.113
 5570SOL    HW217043   2.832   2.283  10.240
 5571SOL     OW17044   2.401   1.926   9.822
 5571SOL    HW117045   2.320   1.927   9.880
 5571SOL    HW217046   2.404   2.009   9.767
 5572SOL     OW17047   3.296   3.050   9.351
 5572SOL    HW117048   3.328   2.974   9.408
 5572SOL    HW217049   3.204   3.077   9.381
 5573SOL     OW17050   2.797   2.098   9.790
 5573SOL    HW117051   2.749   2.139   9.712
 5573SOL    HW217052   2.896   2.096   9.771
 5574SOL     OW17053   2.938   2.545  10.774
 5574SOL    HW117054   2.858   2.484  10.777
 5574SOL    HW217055   3.019   2.492  10.750
 5575SOL     OW17056   3.089   3.432  10.103
 5575SOL    HW117057   3.110   3.506  10.038
 5575SOL    HW217058   3.157   3.432  10.176
 5576SOL     OW17059   2.321   3.014  10.051
 5576SOL    HW117060   2.250   2.987  10.116
 5576SOL    HW217061   2.295   2.986   9.958
 5577SOL     OW17062   3.133   3.659   9.901
 5577SOL    HW117063   3.177   3.723   9.837
 5577SOL    HW217064   3.083   3.711   9.971
 5578SOL     OW17065   2.894   2.411   9.326
 5578SOL    HW117066   2.853   2.493   9.287
 5578SOL    HW217067   2.958   2.437   9.399
 5579SOL     OW17068   1.940   2.418  10.696
 5579SOL    HW117069   2.032   2.417  10.655
 5579SOL    HW217070   1.934   2.492  10.763
 5580SOL     OW17071   2.728   2.316   9.952
 5580SOL    HW117072   2.696   2.388   9.890
 5580SOL    HW217073   2.752   2.235   9.899
 5581SOL     OW17074   2.879   1.901  10.063
 5581SOL    HW117075   2.807   1.906   9.994
 5581SOL    HW217076   2.855   1.832  10.132
 5582SOL     OW17077   3.291   3.035  10.177
 5582SOL    HW117078   3.236   2.951  10.170
 5582SOL    HW217079   3.317   3.064  10.085
 5583SOL     OW17080   3.328   2.452  10.302
 5583SOL    HW117081   3.298   2.357  10.309
 5583SOL    HW217082   3.401   2.468  10.368
 5584SOL     OW17083   3.719   2.695   9.687
 5584SOL    HW117084   3.761   2.631   9.751
 5584SOL    HW217085   3.681   2.644   9.609
 5585SOL     OW17086   2.350   3.247   9.484
 5585SOL    HW117087   2.263   3.232   9.531
 5585SOL    HW217088   2.333   3.273   9.389
 5586SOL     OW17089   3.526   3.142   9.967
 5586SOL    HW117090   3.625   3.150   9.981
 5586SOL    HW217091   3.481   3.226   9.998
 5587SOL     OW17092   3.252   2.437   9.388
 5587SOL    HW117093   3.198   2.416   9.469
 5587SOL    HW217094   3.343   2.396   9.397
 5588SOL     OW17095   3.616   3.085  10.898
 5588SOL    HW117096   3.707   3.046  10.885
 5588SOL    HW217097   3.624   3.181  10.922
 5589SOL     OW17098   2.926   3.209  10.650
 5589SOL    HW117099   2.846   3.186  10.705
 5589SOL    HW217100   3.009   3.183  10.699
 5590SOL     OW17101   3.454   3.491  10.935
 5590SOL    HW117102   3.481   3.525  10.845
 5590SOL    HW217103   3.533   3.453  10.981
 5591SOL     OW17104   2.973   3.057  10.410
 5591SOL    HW117105   2.933   3.101  10.491
 5591SOL    HW217106   2.932   3.094  10.327
 5592SOL     OW17107   3.500   2.961  10.389
 5592SOL    HW117108   3.505   3.042  10.448
 5592SOL    HW217109   3.414   2.963  10.338
 5593SOL     OW17110   2.777   1.951  10.712
 5593SOL    HW117111   2.802   1.931  10.617
 5593SOL    HW217112   2.849   2.007  10.754
 5594SOL     OW17113   2.842   2.978  11.029
 5594SOL    HW117114   2.743   2.984  11.039
 5594SOL    HW217115   2.865   2.898  10.973
 5595SOL     OW17116   2.567   2.912   9.678
 5595SOL    HW117117   2.553   2.919   9.777
 5595SOL    HW217118   2.651   2.861   9.660
 5596SOL     OW17119   2.272   2.675  10.561
 5596SOL    HW117120   2.358   2.687  10.611
 5596SOL    HW217121   2.230   2.588  10.588
 5597SOL     OW17122   3.136   2.248  10.572
 5597SOL    HW117123   3.157   2.322  10.636
 5597SOL    HW217124   3.047   2.265  10.529
 5598SOL     OW17125   1.926   3.426  10.641
 5598SOL    HW117126   1.880   3.508  10.607
 5598SOL    HW217127   2.024   3.445  10.650
 5599SOL     OW17128   2.229   2.962   9.811
 5599SOL    HW117129   2.222   3.045   9.755
 5599SOL    HW217130   2.233   2.882   9.751
 5600SOL     OW17131   2.428   2.399  10.175
 5600SOL    HW117132   2.440   2.465  10.101
 5600SOL    HW217133   2.474   2.433  10.258
 5601SOL     OW17134   3.114   3.210   9.698
 5601SOL    HW117135   3.164   3.287   9.738
 5601SOL    HW217136   3.019   3.212   9.730
 5602SOL     OW17137   3.134   3.307  10.452
 5602SOL    HW117138   3.181   3.320  10.539
 5602SOL    HW217139   3.068   3.233  10.461
 5603SOL     OW17140   3.444   2.501   9.782
 5603SOL    HW117141   3.413   2.562   9.855
 5603SOL    HW217142   3.494   2.553   9.713
 5604SOL     OW17143   2.216   3.372  10.639
 5604SOL    HW117144   2.195   3.328  10.552
 5604SOL    HW217145   2.313   3.398  10.642
 5605SOL     OW17146   2.264   2.613  10.908
 5605SOL    HW117147   2.332   2.668  10.861
 5605SOL    HW217148   2.304   2.525  10.935
 5606SOL     OW17149   3.449   2.641  10.980
 5606SOL    HW117150   3.357   2.679  10.975
 5606SOL    HW217151   3.509   2.688  10.915
 5607SOL     OW17152   2.875   1.967  11.080
 5607SOL    HW117153   2.881   2.052  11.028
 5607SOL    HW217154   2.907   1.891  11.023
 5608SOL     OW17155   2.366   1.912  11.050
 5608SOL    HW117156   2.324   1.855  10.980
 5608SOL    HW217157   2.300   1.981  11.082
 5609SOL     OW17158   2.435   2.732  10.339
 5609SOL    HW117159   2.479   2.821  10.330
 5609SOL    HW217160   2.372   2.732  10.416
 5610SOL     OW17161   3.222   2.724  10.355
 5610SOL    HW117162   3.147   2.724  10.289
 5610SOL    HW217163   3.259   2.632  10.364
 5611SOL     OW17164   3.071   2.387   9.585
 5611SOL    HW117165   3.084   2.303   9.639
 5611SOL    HW217166   3.042   2.461   9.645
 5612SOL     OW17167   1.899   3.172  10.592
 5612SOL    HW117168   1.952   3.123  10.660
 5612SOL    HW217169   1.921   3.270  10.597
 5613SOL     OW17170   2.594   2.496  10.374
 5613SOL    HW117171   2.653   2.470  10.298
 5613SOL    HW217172   2.566   2.592  10.363
 5614SOL     OW17173   3.590   2.797  11.164
 5614SOL    HW117174   3.544   2.790  11.075
 5614SOL    HW217175   3.528   2.841  11.230
 5615SOL     OW17176   3.484   2.229   9.684
 5615SOL    HW117177   3.486   2.153   9.748
 5615SOL    HW217178   3.436   2.306   9.724
 5616SOL     OW17179   2.885   2.628  10.276
 5616SOL    HW117180   2.900   2.649  10.372
 5616SOL    HW217181   2.855   2.533  10.267
 5617SOL     OW17182   2.842   3.435  11.010
 5617SOL    HW117183   2.822   3.479  10.922
 5617SOL    HW217184   2.881   3.344  10.994
 5618SOL     OW17185   3.721   3.380  10.915
 5618SOL    HW117186   3.735   3.407  10.820
 5618SOL    HW217187   3.804   3.402  10.968
 5619SOL     OW17188   2.212   2.760  11.114
 5619SOL    HW117189   2.288   2.804  11.162
 5619SOL    HW217190   2.247   2.713  11.032
 5620SOL     OW17191   3.402   2.136   9.435
 5620SOL    HW117192   3.341   2.061   9.458
 5620SOL    HW217193   3.424   2.188   9.518
 5621SOL     OW17194   3.165   2.700   9.352
 5621SOL    HW117195   3.199   2.607   9.367
 5621SOL    HW217196   3.183   2.727   9.257
 5622SOL     OW17197   2.930   3.195  10.159
 5622SOL    HW117198   2.937   3.111  10.104
 5622SOL    HW217199   2.992   3.264  10.123
 5623SOL     OW17200   2.181   2.672  10.259
 5623SOL    HW117201   2.274   2.708  10.264
 5623SOL    HW217202   2.175   2.587  10.311
 5624SOL     OW17203   3.000   2.242  10.988
 5624SOL    HW117204   2.955   2.305  11.052
 5624SOL    HW217205   3.093   2.273  10.971
 5625SOL     OW17206   3.022   2.069  10.787
 5625SOL    HW117207   3.022   2.133  10.864
 5625SOL    HW217208   3.050   2.117  10.704
 5626SOL     OW17209   1.870   3.188   9.510
 5626SOL    HW117210   1.777   3.209   9.479
 5626SOL    HW217211   1.880   3.089   9.523
 5627SOL     OW17212   1.950   3.663  10.237
 5627SOL    HW117213   1.908   3.577  10.210
 5627SOL    HW217214   2.044   3.666  10.203
 5628SOL     OW17215   2.366   3.430  10.220
 5628SOL    HW117216   2.432   3.504  10.229
 5628SOL    HW217217   2.410   3.351  10.178
 5629SOL     OW17218   2.864   2.658  10.548
 5629SOL    HW117219   2.905   2.626  10.634
 5629SOL    HW217220   2.768   2.631  10.545
 5630SOL     OW17221   1.902   2.406  10.424
 5630SOL    HW117222   1.987   2.373  10.383
 5630SOL    HW217223   1.915   2.421  10.522
 5631SOL     OW17224   2.051   2.382  11.032
 5631SOL    HW117225   2.110   2.342  10.962
 5631SOL    HW217226   1.993   2.453  10.991
 5632SOL     OW17227   3.231   2.812  10.970
 5632SOL    HW117228   3.270   2.901  10.990
 5632SOL    HW217229   3.241   2.792  10.873
 5633SOL     OW17230   2.677   2.434   9.635
 5633SOL    HW117231   2.684   2.345   9.589
 5633SOL    HW217232   2.583   2.468   9.627
 5634SOL     OW17233   3.519   2.466  10.516
 5634SOL    HW117234   3.481   2.397  10.578
 5634SOL    HW217235   3.601   2.430  10.472
 5635SOL     OW17236   2.114   3.426  11.054
 5635SOL    HW117237   2.084   3.483  11.130
 5635SOL    HW217238   2.107   3.329  11.080
 5636SOL     OW17239   2.533   2.326  10.579
 5636SOL    HW117240   2.499   2.237  10.549
 5636SOL    HW217241   2.559   2.380  10.499
 5637SOL     OW17242   2.792   3.540  10.775
 5637SOL    HW117243   2.768   3.522  10.680
 5637SOL    HW217244   2.822   3.634  10.785
 5638SOL     OW17245   2.021   2.999  10.776
 5638SOL    HW117246   2.043   2.938  10.852
 5638SOL    HW217247   2.031   2.950  10.690
 5639SOL     OW17248   3.209   2.921  10.544
 5639SOL    HW117249   3.233   2.858  10.470
 5639SOL    HW217250   3.119   2.961  10.526
 5640SOL     OW17251   3.164   2.717   9.619
 5640SOL    HW117252   3.078   2.686   9.661
 5640SOL    HW217253   3.160   2.703   9.520
 5641SOL     OW17254   3.621   3.609  10.464
 5641SOL    HW117255   3.682   3.639  10.391
 5641SOL    HW217256   3.583   3.520  10.442
 5642SOL     OW17257   3.114   3.593  10.438
 5642SOL    HW117258   3.198   3.598  10.384
 5642SOL    HW217259   3.091   3.497  10.456
 5643SOL     OW17260   1.945   3.120  10.332
 5643SOL    HW117261   1.940   3.119  10.432
 5643SOL    HW217262   1.862   3.079  10.294
 5644SOL     OW17263   2.550   3.524  11.026
 5644SOL    HW117264   2.494   3.605  11.035
 5644SOL    HW217265   2.602   3.528  10.940
 5645SOL     OW17266   3.588   1.997   9.833
 5645SOL    HW117267   3.661   1.980   9.766
 5645SOL    HW217268   3.557   1.910   9.871
 5646SOL     OW17269   3.250   3.435   9.787
 5646SOL    HW117270   3.317   3.447   9.713
 5646SOL    HW217271   3.210   3.524   9.810
 5647SOL     OW17272   1.992   3.656  11.161
 5647SOL    HW117273   1.951   3.582  11.214
 5647SOL    HW217274   2.056   3.707  11.219
 5648SOL     OW17275   3.142   2.789   9.982
 5648SOL    HW117276   3.202   2.708   9.984
 5648SOL    HW217277   3.182   2.858   9.922
 5649SOL     OW17278   2.692   3.135  10.732
 5649SOL    HW117279   2.687   3.168  10.827
 5649SOL    HW217280   2.606   3.154  10.686
 5650SOL     OW17281   2.534   3.478   9.464
 5650SOL    HW117282   2.543   3.488   9.365
 5650SOL    HW217283   2.494   3.389   9.485
 5651SOL     OW17284   3.512   3.582  10.704
 5651SOL    HW117285   3.565   3.592  10.620
 5651SOL    HW217286   3.485   3.672  10.738
 5652SOL     OW17287   3.703   2.037  10.273
 5652SOL    HW117288   3.742   1.952  10.237
 5652SOL    HW217289   3.605   2.039  10.254
 5653SOL     OW17290   3.056   3.474   9.341
 5653SOL    HW117291   3.062   3.381   9.378
 5653SOL    HW217292   2.997   3.474   9.261
 5654SOL     OW17293   2.684   2.864  10.682
 5654SOL    HW117294   2.724   2.863  10.590
 5654SOL    HW217295   2.694   2.956  10.722
 5655SOL     OW17296   2.778   2.772   9.601
 5655SOL    HW117297   2.841   2.810   9.533
 5655SOL    HW217298   2.818   2.689   9.640
 5656SOL     OW17299   3.366   3.469   9.354
 5656SOL    HW117300   3.274   3.506   9.361
 5656SOL    HW217301   3.404   3.489   9.264
 5657SOL     OW17302   2.234   3.150  10.800
 5657SOL    HW117303   2.221   3.243  10.766
 5657SOL    HW217304   2.150   3.098  10.787
 5658SOL     OW17305   3.476   3.154  10.599
 5658SOL    HW117306   3.536   3.157  10.679
 5658SOL    HW217307   3.401   3.218  10.612
 5659SOL     OW17308   2.901   2.960  10.006
 5659SOL    HW117309   2.831   2.913  10.060
 5659SOL    HW217310   2.960   2.892   9.963
 5660SOL     OW17311   2.876   2.098  10.281
 5660SOL    HW117312   2.868   2.062  10.188
 5660SOL    HW217313   2.874   2.022  10.346
 5661SOL     OW17314   2.452   3.349   9.801
 5661SOL    HW117315   2.494   3.291   9.731
 5661SOL    HW217316   2.408   3.428   9.757
 5662SOL     OW17317   3.571   2.247  10.691
 5662SOL    HW117318   3.644   2.316  10.695
 5662SOL    HW217319   3.599   2.172  10.632
 5663SOL     OW17320   2.117   3.210   9.600
 5663SOL    HW117321   2.021   3.211   9.573
 5663SOL    HW217322   2.129   3.263   9.684
 5664SOL     OW17323   1.967   2.875  11.036
 5664SOL    HW117324   1.890   2.842  11.090
 5664SOL    HW217325   2.052   2.845  11.078
 5665SOL     OW17326   2.534   2.065  10.799
 5665SOL    HW117327   2.624   2.049  10.759
 5665SOL    HW217328   2.542   2.070  10.898
 5666SOL     OW17329   3.302   2.718  10.708
 5666SOL    HW117330   3.245   2.770  10.645
 5666SOL    HW217331   3.398   2.730  10.684
 5667SOL     OW17332   1.934   2.028   9.628
 5667SOL    HW117333   1.917   2.111   9.574
 5667SOL    HW217334   2.024   1.991   9.606
 5668SOL     OW17335   3.045   3.197   9.429
 5668SOL    HW117336   2.946   3.186   9.431
 5668SOL    HW217337   3.079   3.212   9.522
 5669SOL     OW17338   2.475   2.704  10.741
 5669SOL    HW117339   2.531   2.785  10.724
 5669SOL    HW217340   2.534   2.624  10.744
 5670SOL     OW17341   3.355   3.629  10.269
 5670SOL    HW117342   3.388   3.693  10.200
 5670SOL    HW217343   3.421   3.623  10.344
 5671SOL     OW17344   2.578   2.427  11.018
 5671SOL    HW117345   2.597   2.492  11.092
 5671SOL    HW217346   2.638   2.347  11.027
 5672SOL     OW17347   3.312   3.082  10.943
 5672SOL    HW117348   3.303   3.072  11.042
 5672SOL    HW217349   3.408   3.075  10.917
 5673SOL     OW17350   2.252   3.603  10.870
 5673SOL    HW117351   2.161   3.644  10.868
 5673SOL    HW217352   2.245   3.509  10.902
 5674SOL     OW17353   3.536   2.745  10.564
 5674SOL    HW117354   3.509   2.656  10.527
 5674SOL    HW217355   3.537   2.813  10.491
 5675SOL     OW17356   3.087   2.187   9.759
 5675SOL    HW117357   3.152   2.113   9.748
 5675SOL    HW217358   3.107   2.237   9.843
 5676SOL     OW17359   2.456   2.607   9.962
 5676SOL    HW117360   2.506   2.692   9.943
 5676SOL    HW217361   2.368   2.609   9.914
 5677SOL     OW17362   3.639   2.204  10.952
 5677SOL    HW117363   3.622   2.235  10.858
 5677SOL    HW217364   3.555   2.167  10.990
 5678SOL     OW17365   3.592   2.796  10.827
 5678SOL    HW117366   3.630   2.887  10.842
 5678SOL    HW217367   3.584   2.779  10.728
 5679SOL     OW17368   2.721   3.236   9.326
 5679SOL    HW117369   2.675   3.251   9.414
 5679SOL    HW217370   2.765   3.321   9.296
 5680SOL     OW17371   2.523   3.652  10.263
 5680SOL    HW117372   2.477   3.740  10.250
 5680SOL    HW217373   2.622   3.664  10.256
 5681SOL     OW17374   2.721   2.818  10.171
 5681SOL    HW117375   2.775   2.749  10.219
 5681SOL    HW217376   2.689   2.887  10.237
 5682SOL     OW17377   2.945   2.846   9.397
 5682SOL    HW117378   2.922   2.899   9.315
 5682SOL    HW217379   3.026   2.790   9.378
 5683SOL     OW17380   3.723   3.431  10.161
 5683SOL    HW117381   3.652   3.419  10.091
 5683SOL    HW217382   3.724   3.352  10.221
 5684SOL     OW17383   2.083   3.176  11.154
 5684SOL    HW117384   2.018   3.103  11.133
 5684SOL    HW217385   2.087   3.190  11.252
 5685SOL     OW17386   1.941   3.102   9.963
 5685SOL    HW117387   1.940   3.055  10.051
 5685SOL    HW217388   2.023   3.074   9.912
 5686SOL     OW17389   2.534   3.253  10.934
 5686SOL    HW117390   2.456   3.203  10.972
 5686SOL    HW217391   2.531   3.348  10.965
 5687SOL     OW17392   3.686   2.054  10.537
 5687SOL    HW117393   3.682   1.964  10.581
 5687SOL    HW217394   3.689   2.043  10.438
 5688SOL     OW17395   3.567   3.349  10.414
 5688SOL    HW117396   3.474   3.324  10.387
 5688SOL    HW217397   3.593   3.299  10.496
 5689SOL     OW17398   2.674   3.448   9.997
 5689SOL    HW117399   2.706   3.458   9.903
 5689SOL    HW217400   2.595   3.386   9.999
 5690SOL     OW17401   3.286   2.076  10.422
 5690SOL    HW117402   3.338   2.011  10.477
 5690SOL    HW217403   3.237   2.139  10.483
 5691SOL     OW17404   2.863   1.896  10.464
 5691SOL    HW117405   2.800   1.824  10.433
 5691SOL    HW217406   2.956   1.860  10.464
 5692SOL     OW17407   2.632   3.192   9.611
 5692SOL    HW117408   2.586   3.105   9.628
 5692SOL    HW217409   2.723   3.189   9.652
 5693SOL     OW17410   2.480   3.429  10.594
 5693SOL    HW117411   2.475   3.511  10.651
 5693SOL    HW217412   2.569   3.426  10.549
 5694SOL     OW17413   3.214   1.914   9.478
 5694SOL    HW117414   3.249   1.873   9.394
 5694SOL    HW217415   3.124   1.876   9.498
 5695SOL     OW17416   3.162   2.315  10.001
 5695SOL    HW117417   3.103   2.395  10.005
 5695SOL    HW217418   3.177   2.280  10.094
 5696SOL     OW17419   3.455   2.083  10.192
 5696SOL    HW117420   3.371   2.082  10.246
 5696SOL    HW217421   3.457   2.166  10.136
 5697SOL     OW17422   1.901   2.939   9.610
 5697SOL    HW117423   2.000   2.928   9.601
 5697SOL    HW217424   1.861   2.853   9.642
 5698SOL     OW17425   2.737   3.508   9.647
 5698SOL    HW117426   2.660   3.473   9.593
 5698SOL    HW217427   2.705   3.579   9.709
 5699SOL     OW17428   2.092   2.490  11.285
 5699SOL    HW117429   1.999   2.488  11.322
 5699SOL    HW217430   2.093   2.451  11.193
 5700SOL     OW17431   1.881   2.230  11.819
 5700SOL    HW117432   1.799   2.273  11.858
 5700SOL    HW217433   1.853   2.157  11.756
 5701SOL     OW17434   3.417   3.373  11.875
 5701SOL    HW117435   3.360   3.357  11.956
 5701SOL    HW217436   3.358   3.383  11.795
 5702SOL     OW17437   2.997   2.565  11.889
 5702SOL    HW117438   3.054   2.643  11.864
 5702SOL    HW217439   2.937   2.591  11.965
 5703SOL     OW17440   3.617   2.469  11.403
 5703SOL    HW117441   3.605   2.456  11.304
 5703SOL    HW217442   3.587   2.388  11.452
 5704SOL     OW17443   2.547   2.874  11.837
 5704SOL    HW117444   2.616   2.858  11.907
 5704SOL    HW217445   2.474   2.931  11.875
 5705SOL     OW17446   3.465   2.309  11.909
 5705SOL    HW117447   3.391   2.355  11.859
 5705SOL    HW217448   3.516   2.377  11.962
 5706SOL     OW17449   2.093   3.575  11.655
 5706SOL    HW117450   2.127   3.652  11.709
 5706SOL    HW217451   2.137   3.575  11.565
 5707SOL     OW17452   2.092   3.296  11.710
 5707SOL    HW117453   2.066   3.392  11.710
 5707SOL    HW217454   2.021   3.242  11.755
 5708SOL     OW17455   2.102   2.953  12.058
 5708SOL    HW117456   2.116   2.869  12.110
 5708SOL    HW217457   2.047   3.017  12.113
 5709SOL     OW17458   2.468   2.826  11.295
 5709SOL    HW117459   2.475   2.910  11.241
 5709SOL    HW217460   2.514   2.839  11.383
 5710SOL     OW17461   1.984   2.505  11.735
 5710SOL    HW117462   1.939   2.417  11.752
 5710SOL    HW217463   1.983   2.559  11.819
 5711SOL     OW17464   3.704   3.629  11.531
 5711SOL    HW117465   3.758   3.600  11.611
 5711SOL    HW217466   3.734   3.719  11.502
 5712SOL     OW17467   1.889   3.458  11.289
 5712SOL    HW117468   1.870   3.362  11.310
 5712SOL    HW217469   1.856   3.516  11.364
 5713SOL     OW17470   3.551   2.784  11.784
 5713SOL    HW117471   3.646   2.755  11.792
 5713SOL    HW217472   3.543   2.849  11.709
 5714SOL     OW17473   3.503   2.970  11.604
 5714SOL    HW117474   3.589   2.972  11.552
 5714SOL    HW217475   3.517   3.017  11.692
 5715SOL     OW17476   2.475   3.227  11.898
 5715SOL    HW117477   2.426   3.140  11.907
 5715SOL    HW217478   2.452   3.270  11.811
 5716SOL     OW17479   2.671   1.866  11.674
 5716SOL    HW117480   2.711   1.957  11.665
 5716SOL    HW217481   2.571   1.874  11.680
 5717SOL     OW17482   3.387   2.861  11.362
 5717SOL    HW117483   3.324   2.785  11.375
 5717SOL    HW217484   3.435   2.879  11.448
 5718SOL     OW17485   3.529   3.576  11.744
 5718SOL    HW117486   3.488   3.553  11.656
 5718SOL    HW217487   3.511   3.502  11.809
 5719SOL     OW17488   2.460   2.591  11.442
 5719SOL    HW117489   2.484   2.660  11.374
 5719SOL    HW217490   2.382   2.624  11.496
 5720SOL     OW17491   3.143   2.207  12.116
 5720SOL    HW117492   3.057   2.157  12.103
 5720SOL    HW217493   3.205   2.153  12.172
 5721SOL     OW17494   3.438   3.524  11.479
 5721SOL    HW117495   3.527   3.570  11.482
 5721SOL    HW217496   3.417   3.500  11.384
 5722SOL     OW17497   2.903   2.563  11.601
 5722SOL    HW117498   2.929   2.559  11.697
 5722SOL    HW217499   2.818   2.512  11.587
 5723SOL     OW17500   1.938   2.673  11.961
 5723SOL    HW117501   2.037   2.661  11.970
 5723SOL    HW217502   1.914   2.768  11.982
 5724SOL     OW17503   2.727   2.210  11.367
 5724SOL    HW117504   2.786   2.273  11.318
 5724SOL    HW217505   2.746   2.116  11.338
 5725SOL     OW17506   3.224   3.006  11.717
 5725SOL    HW117507   3.307   2.977  11.669
 5725SOL    HW217508   3.175   3.073  11.661
 5726SOL     OW17509   2.870   3.318  11.649
 5726SOL    HW117510   2.824   3.390  11.597
 5726SOL    HW217511   2.866   3.338  11.747
 5727SOL     OW17512   2.213   3.663  12.025
 5727SOL    HW117513   2.263   3.577  12.031
 5727SOL    HW217514   2.278   3.740  12.022
 5728SOL     OW17515   3.657   2.928  12.045
 5728SOL    HW117516   3.595   2.913  11.969
 5728SOL    HW217517   3.605   2.939  12.130
 5729SOL     OW17518   2.183   2.805  11.414
 5729SOL    HW117519   2.265   2.844  11.372
 5729SOL    HW217520   2.156   2.723  11.365
 5730SOL     OW17521   3.320   2.597  11.900
 5730SOL    HW117522   3.315   2.532  11.975
 5730SOL    HW217523   3.400   2.656  11.913
 5731SOL     OW17524   2.973   3.638  11.409
 5731SOL    HW117525   2.913   3.576  11.459
 5731SOL    HW217526   3.004   3.594  11.324
 5732SOL     OW17527   3.494   3.239  11.253
 5732SOL    HW117528   3.462   3.333  11.243
 5732SOL    HW217529   3.418   3.176  11.241
 5733SOL     OW17530   2.326   3.605  11.495
 5733SOL    HW117531   2.359   3.644  11.581
 5733SOL    HW217532   2.402   3.598  11.430
 5734SOL     OW17533   3.262   1.969  11.598
 5734SOL    HW117534   3.238   1.932  11.508
 5734SOL    HW217535   3.361   1.985  11.602
 5735SOL     OW17536   2.802   3.560  12.076
 5735SOL    HW117537   2.882   3.503  12.097
 5735SOL    HW217538   2.753   3.520  11.999
 5736SOL     OW17539   2.244   2.562  11.652
 5736SOL    HW117540   2.289   2.472  11.649
 5736SOL    HW217541   2.150   2.551  11.685
 5737SOL     OW17542   2.476   1.984  11.289
 5737SOL    HW117543   2.574   1.962  11.296
 5737SOL    HW217544   2.445   1.967  11.196
 5738SOL     OW17545   2.401   1.926  11.684
 5738SOL    HW117546   2.320   1.927  11.742
 5738SOL    HW217547   2.404   2.009  11.629
 5739SOL     OW17548   3.296   3.050  11.213
 5739SOL    HW117549   3.328   2.974  11.270
 5739SOL    HW217550   3.204   3.077  11.243
 5740SOL     OW17551   2.159   1.897  11.343
 5740SOL    HW117552   2.208   1.981  11.322
 5740SOL    HW217553   2.221   1.832  11.388
 5741SOL     OW17554   2.797   2.098  11.652
 5741SOL    HW117555   2.749   2.139  11.574
 5741SOL    HW217556   2.896   2.096  11.633
 5742SOL     OW17557   2.321   3.014  11.913
 5742SOL    HW117558   2.250   2.987  11.978
 5742SOL    HW217559   2.295   2.986  11.820
 5743SOL     OW17560   3.133   3.659  11.763
 5743SOL    HW117561   3.177   3.723  11.699
 5743SOL    HW217562   3.083   3.711  11.833
 5744SOL     OW17563   2.894   2.411  11.188
 5744SOL    HW117564   2.853   2.493  11.149
 5744SOL    HW217565   2.958   2.437  11.261
 5745SOL     OW17566   2.728   2.316  11.814
 5745SOL    HW117567   2.696   2.388  11.752
 5745SOL    HW217568   2.752   2.235  11.761
 5746SOL     OW17569   2.879   1.901  11.925
 5746SOL    HW117570   2.807   1.906  11.856
 5746SOL    HW217571   2.855   1.832  11.994
 5747SOL     OW17572   3.719   2.695  11.549
 5747SOL    HW117573   3.761   2.631  11.613
 5747SOL    HW217574   3.681   2.644  11.471
 5748SOL     OW17575   2.350   3.247  11.346
 5748SOL    HW117576   2.263   3.232  11.393
 5748SOL    HW217577   2.333   3.273  11.251
 5749SOL     OW17578   3.526   3.142  11.829
 5749SOL    HW117579   3.625   3.150  11.843
 5749SOL    HW217580   3.481   3.226  11.860
 5750SOL     OW17581   3.252   2.437  11.250
 5750SOL    HW117582   3.198   2.416  11.331
 5750SOL    HW217583   3.343   2.396  11.259
 5751SOL     OW17584   2.567   2.912  11.540
 5751SOL    HW117585   2.553   2.919  11.639
 5751SOL    HW217586   2.651   2.861  11.522
 5752SOL     OW17587   2.229   2.962  11.673
 5752SOL    HW117588   2.222   3.045  11.617
 5752SOL    HW217589   2.233   2.882  11.613
 5753SOL     OW17590   3.114   3.210  11.560
 5753SOL    HW117591   3.164   3.287  11.600
 5753SOL    HW217592   3.019   3.212  11.592
 5754SOL     OW17593   3.444   2.501  11.644
 5754SOL    HW117594   3.413   2.562  11.717
 5754SOL    HW217595   3.494   2.553  11.575
 5755SOL     OW17596   3.071   2.387  11.447
 5755SOL    HW117597   3.084   2.303  11.501
 5755SOL    HW217598   3.042   2.461  11.507
 5756SOL     OW17599   3.484   2.229  11.546
 5756SOL    HW117600   3.486   2.153  11.610
 5756SOL    HW217601   3.436   2.306  11.586
 5757SOL     OW17602   3.402   2.136  11.297
 5757SOL    HW117603   3.341   2.061  11.320
 5757SOL    HW217604   3.424   2.188  11.380
 5758SOL     OW17605   3.165   2.700  11.214
 5758SOL    HW117606   3.199   2.607  11.229
 5758SOL    HW217607   3.183   2.727  11.119
 5759SOL     OW17608   1.870   3.188  11.372
 5759SOL    HW117609   1.777   3.209  11.341
 5759SOL    HW217610   1.880   3.089  11.385
 5760SOL     OW17611   2.677   2.434  11.497
 5760SOL    HW117612   2.684   2.345  11.451
 5760SOL    HW217613   2.583   2.468  11.489
 5761SOL     OW17614   3.164   2.717  11.481
 5761SOL    HW117615   3.078   2.686  11.523
 5761SOL    HW217616   3.160   2.703  11.382
 5762SOL     OW17617   3.588   1.997  11.695
 5762SOL    HW117618   3.661   1.980  11.628
 5762SOL    HW217619   3.557   1.910  11.733
 5763SOL     OW17620   3.250   3.435  11.649
 5763SOL    HW117621   3.317   3.447  11.575
 5763SOL    HW217622   3.210   3.524  11.672
 5764SOL     OW17623   3.142   2.789  11.844
 5764SOL    HW117624   3.202   2.708  11.846
 5764SOL    HW217625   3.182   2.858  11.784
 5765SOL     OW17626   2.534   3.478  11.326
 5765SOL    HW117627   2.543   3.488  11.227
 5765SOL    HW217628   2.494   3.389  11.347
 5766SOL     OW17629   3.703   2.037  12.135
 5766SOL    HW117630   3.742   1.952  12.099
 5766SOL    HW217631   3.605   2.039  12.116
 5767SOL     OW17632   3.056   3.474  11.203
 5767SOL    HW117633   3.062   3.381  11.240
 5767SOL    HW217634   2.997   3.474  11.123
 5768SOL     OW17635   2.778   2.772  11.463
 5768SOL    HW117636   2.841   2.810  11.395
 5768SOL    HW217637   2.818   2.689  11.502
 5769SOL     OW17638   3.366   3.469  11.216
 5769SOL    HW117639   3.274   3.506  11.223
 5769SOL    HW217640   3.404   3.489  11.126
 5770SOL     OW17641   2.901   2.960  11.868
 5770SOL    HW117642   2.831   2.913  11.922
 5770SOL    HW217643   2.960   2.892  11.825
 5771SOL     OW17644   2.452   3.349  11.663
 5771SOL    HW117645   2.494   3.291  11.593
 5771SOL    HW217646   2.408   3.428  11.619
 5772SOL     OW17647   2.117   3.210  11.462
 5772SOL    HW117648   2.021   3.211  11.435
 5772SOL    HW217649   2.129   3.263  11.546
 5773SOL     OW17650   1.937   2.207  11.205
 5773SOL    HW117651   1.845   2.179  11.176
 5773SOL    HW217652   1.968   2.284  11.149
 5774SOL     OW17653   1.934   2.028  11.490
 5774SOL    HW117654   1.917   2.111  11.436
 5774SOL    HW217655   2.024   1.991  11.468
 5775SOL     OW17656   3.045   3.197  11.291
 5775SOL    HW117657   2.946   3.186  11.293
 5775SOL    HW217658   3.079   3.212  11.384
 5776SOL     OW17659   3.087   2.187  11.621
 5776SOL    HW117660   3.152   2.113  11.610
 5776SOL    HW217661   3.107   2.237  11.705
 5777SOL     OW17662   2.456   2.607  11.824
 5777SOL    HW117663   2.506   2.692  11.805
 5777SOL    HW217664   2.368   2.609  11.776
 5778SOL     OW17665   2.721   3.236  11.188
 5778SOL    HW117666   2.675   3.251  11.276
 5778SOL    HW217667   2.765   3.321  11.158
 5779SOL     OW17668   2.523   3.652  12.125
 5779SOL    HW117669   2.477   3.740  12.112
 5779SOL    HW217670   2.622   3.664  12.118
 5780SOL     OW17671   2.721   2.818  12.033
 5780SOL    HW117672   2.775   2.749  12.081
 5780SOL    HW217673   2.689   2.887  12.099
 5781SOL     OW17674   2.945   2.846  11.259
 5781SOL    HW117675   2.922   2.899  11.177
 5781SOL    HW217676   3.026   2.790  11.240
 5782SOL     OW17677   1.941   3.102  11.825
 5782SOL    HW117678   1.940   3.055  11.913
 5782SOL    HW217679   2.023   3.074  11.774
 5783SOL     OW17680   3.567   3.349  12.276
 5783SOL    HW117681   3.474   3.324  12.249
 5783SOL    HW217682   3.593   3.299  12.358
 5784SOL     OW17683   2.674   3.448  11.859
 5784SOL    HW117684   2.706   3.458  11.765
 5784SOL    HW217685   2.595   3.386  11.861
 5785SOL     OW17686   2.632   3.192  11.473
 5785SOL    HW117687   2.586   3.105  11.490
 5785SOL    HW217688   2.723   3.189  11.514
 5786SOL     OW17689   3.214   1.914  11.340
 5786SOL    HW117690   3.249   1.873  11.256
 5786SOL    HW217691   3.124   1.876  11.360
 5787SOL     OW17692   3.162   2.315  11.863
 5787SOL    HW117693   3.103   2.395  11.867
 5787SOL    HW217694   3.177   2.280  11.956
 5788SOL     OW17695   1.901   2.939  11.472
 5788SOL    HW117696   2.000   2.928  11.463
 5788SOL    HW217697   1.861   2.853  11.504
 5789SOL     OW17698   2.737   3.508  11.509
 5789SOL    HW117699   2.660   3.473  11.455
 5789SOL    HW217700   2.705   3.579  11.571
 5790SOL     OW17701   2.087   3.999   0.996
 5790SOL    HW117702   2.122   3.982   1.088
 5790SOL    HW217703   1.999   3.954   0.984
 5791SOL     OW17704   1.881   4.092   0.647
 5791SOL    HW117705   1.799   4.135   0.686
 5791SOL    HW217706   1.853   4.019   0.584
 5792SOL     OW17707   3.617   4.331   0.231
 5792SOL    HW117708   3.605   4.318   0.132
 5792SOL    HW217709   3.587   4.250   0.280
 5793SOL     OW17710   2.300   4.116   1.499
 5793SOL    HW117711   2.382   4.060   1.508
 5793SOL    HW217712   2.219   4.058   1.503
 5794SOL     OW17713   3.465   4.171   0.737
 5794SOL    HW117714   3.391   4.217   0.687
 5794SOL    HW217715   3.516   4.239   0.790
 5795SOL     OW17716   3.456   3.838   1.480
 5795SOL    HW117717   3.438   3.905   1.408
 5795SOL    HW217718   3.453   3.884   1.569
 5796SOL     OW17719   1.984   4.367   0.563
 5796SOL    HW117720   1.939   4.279   0.580
 5796SOL    HW217721   1.983   4.421   0.647
 5797SOL     OW17722   2.671   3.728   0.502
 5797SOL    HW117723   2.711   3.819   0.493
 5797SOL    HW217724   2.571   3.736   0.508
 5798SOL     OW17725   2.179   3.975   1.801
 5798SOL    HW117726   2.250   4.046   1.807
 5798SOL    HW217727   2.091   4.014   1.829
 5799SOL     OW17728   3.143   4.069   0.944
 5799SOL    HW117729   3.057   4.019   0.931
 5799SOL    HW217730   3.205   4.015   1.000
 5800SOL     OW17731   3.256   4.193   1.674
 5800SOL    HW117732   3.236   4.236   1.762
 5800SOL    HW217733   3.334   4.131   1.683
 5801SOL     OW17734   2.853   4.134   1.242
 5801SOL    HW117735   2.776   4.168   1.296
 5801SOL    HW217736   2.819   4.083   1.163
 5802SOL     OW17737   1.938   4.535   0.789
 5802SOL    HW117738   2.037   4.523   0.798
 5802SOL    HW217739   1.914   4.630   0.810
 5803SOL     OW17740   2.727   4.072   0.195
 5803SOL    HW117741   2.786   4.135   0.146
 5803SOL    HW217742   2.746   3.978   0.166
 5804SOL     OW17743   3.581   4.309   1.831
 5804SOL    HW117744   3.555   4.398   1.795
 5804SOL    HW217745   3.579   4.241   1.758
 5805SOL     OW17746   2.412   3.920   0.885
 5805SOL    HW117747   2.407   3.915   0.985
 5805SOL    HW217748   2.414   4.016   0.856
 5806SOL     OW17749   2.064   4.009   1.498
 5806SOL    HW117750   1.984   4.069   1.485
 5806SOL    HW217751   2.054   3.960   1.584
 5807SOL     OW17752   3.262   3.831   0.426
 5807SOL    HW117753   3.238   3.794   0.336
 5807SOL    HW217754   3.361   3.847   0.430
 5808SOL     OW17755   3.409   3.946   1.729
 5808SOL    HW117756   3.404   3.983   1.821
 5808SOL    HW217757   3.337   3.877   1.717
 5809SOL     OW17758   2.643   3.988   1.749
 5809SOL    HW117759   2.710   3.927   1.792
 5809SOL    HW217760   2.570   4.007   1.814
 5810SOL     OW17761   3.213   4.314   1.433
 5810SOL    HW117762   3.241   4.271   1.518
 5810SOL    HW217763   3.238   4.410   1.434
 5811SOL     OW17764   2.401   3.788   0.512
 5811SOL    HW117765   2.320   3.789   0.570
 5811SOL    HW217766   2.404   3.871   0.457
 5812SOL     OW17767   2.159   3.759   0.171
 5812SOL    HW117768   2.208   3.843   0.150
 5812SOL    HW217769   2.221   3.694   0.216
 5813SOL     OW17770   2.797   3.960   0.480
 5813SOL    HW117771   2.749   4.001   0.402
 5813SOL    HW217772   2.896   3.958   0.461
 5814SOL     OW17773   1.940   4.280   1.386
 5814SOL    HW117774   2.032   4.279   1.345
 5814SOL    HW217775   1.934   4.354   1.453
 5815SOL     OW17776   2.423   3.946   1.147
 5815SOL    HW117777   2.461   3.862   1.184
 5815SOL    HW217778   2.335   3.965   1.191
 5816SOL     OW17779   2.879   3.763   0.753
 5816SOL    HW117780   2.807   3.768   0.684
 5816SOL    HW217781   2.855   3.694   0.822
 5817SOL     OW17782   3.328   4.314   0.992
 5817SOL    HW117783   3.298   4.219   0.999
 5817SOL    HW217784   3.401   4.330   1.058
 5818SOL     OW17785   2.389   3.980   0.328
 5818SOL    HW117786   2.416   3.921   0.253
 5818SOL    HW217787   2.389   4.075   0.297
 5819SOL     OW17788   2.777   3.813   1.402
 5819SOL    HW117789   2.802   3.793   1.307
 5819SOL    HW217790   2.849   3.869   1.444
 5820SOL     OW17791   3.136   4.110   1.262
 5820SOL    HW117792   3.157   4.184   1.326
 5820SOL    HW217793   3.047   4.127   1.219
 5821SOL     OW17794   2.428   4.261   0.865
 5821SOL    HW117795   2.440   4.327   0.791
 5821SOL    HW217796   2.474   4.295   0.948
 5822SOL     OW17797   2.875   3.829   1.770
 5822SOL    HW117798   2.881   3.914   1.718
 5822SOL    HW217799   2.907   3.753   1.713
 5823SOL     OW17800   2.366   3.774   1.740
 5823SOL    HW117801   2.324   3.717   1.670
 5823SOL    HW217802   2.300   3.843   1.772
 5824SOL     OW17803   2.169   3.937   1.231
 5824SOL    HW117804   2.146   3.974   1.321
 5824SOL    HW217805   2.139   3.842   1.225
 5825SOL     OW17806   2.594   4.358   1.064
 5825SOL    HW117807   2.653   4.332   0.988
 5825SOL    HW217808   2.566   4.454   1.053
 5826SOL     OW17809   2.169   3.787   0.618
 5826SOL    HW117810   2.158   3.881   0.651
 5826SOL    HW217811   2.164   3.724   0.695
 5827SOL     OW17812   3.484   4.091   0.374
 5827SOL    HW117813   3.486   4.015   0.438
 5827SOL    HW217814   3.436   4.168   0.414
 5828SOL     OW17815   3.402   3.998   0.125
 5828SOL    HW117816   3.341   3.923   0.148
 5828SOL    HW217817   3.424   4.050   0.208
 5829SOL     OW17818   2.201   4.233   1.006
 5829SOL    HW117819   2.149   4.150   0.989
 5829SOL    HW217820   2.278   4.238   0.942
 5830SOL     OW17821   3.000   4.104   1.678
 5830SOL    HW117822   2.955   4.167   1.742
 5830SOL    HW217823   3.093   4.135   1.661
 5831SOL     OW17824   3.022   3.931   1.477
 5831SOL    HW117825   3.022   3.995   1.554
 5831SOL    HW217826   3.050   3.979   1.394
 5832SOL     OW17827   1.902   4.268   1.114
 5832SOL    HW117828   1.987   4.235   1.073
 5832SOL    HW217829   1.915   4.283   1.212
 5833SOL     OW17830   2.051   4.244   1.722
 5833SOL    HW117831   2.110   4.204   1.652
 5833SOL    HW217832   1.993   4.315   1.681
 5834SOL     OW17833   2.677   4.296   0.325
 5834SOL    HW117834   2.684   4.207   0.279
 5834SOL    HW217835   2.583   4.330   0.317
 5835SOL     OW17836   3.519   4.328   1.206
 5835SOL    HW117837   3.481   4.259   1.268
 5835SOL    HW217838   3.601   4.292   1.162
 5836SOL     OW17839   2.533   4.188   1.269
 5836SOL    HW117840   2.499   4.099   1.239
 5836SOL    HW217841   2.559   4.242   1.189
 5837SOL     OW17842   2.765   3.810   0.133
 5837SOL    HW117843   2.816   3.811   0.047
 5837SOL    HW217844   2.821   3.768   0.204
 5838SOL     OW17845   3.588   3.859   0.523
 5838SOL    HW117846   3.661   3.842   0.456
 5838SOL    HW217847   3.557   3.772   0.561
 5839SOL     OW17848   3.703   3.899   0.963
 5839SOL    HW117849   3.742   3.814   0.927
 5839SOL    HW217850   3.605   3.901   0.944
 5840SOL     OW17851   2.125   4.050   0.720
 5840SOL    HW117852   2.046   4.101   0.686
 5840SOL    HW217853   2.116   4.035   0.818
 5841SOL     OW17854   2.876   3.960   0.971
 5841SOL    HW117855   2.868   3.924   0.878
 5841SOL    HW217856   2.874   3.884   1.036
 5842SOL     OW17857   3.571   4.109   1.381
 5842SOL    HW117858   3.644   4.178   1.385
 5842SOL    HW217859   3.599   4.034   1.322
 5843SOL     OW17860   2.534   3.927   1.489
 5843SOL    HW117861   2.624   3.911   1.449
 5843SOL    HW217862   2.542   3.932   1.588
 5844SOL     OW17863   1.937   4.069   0.033
 5844SOL    HW117864   1.845   4.041   0.004
 5844SOL    HW217865   1.968   4.146  -0.023
 5845SOL     OW17866   1.934   3.890   0.318
 5845SOL    HW117867   1.917   3.973   0.264
 5845SOL    HW217868   2.024   3.853   0.296
 5846SOL     OW17869   2.578   4.289   1.708
 5846SOL    HW117870   2.597   4.354   1.782
 5846SOL    HW217871   2.638   4.209   1.717
 5847SOL     OW17872   3.087   4.049   0.449
 5847SOL    HW117873   3.152   3.975   0.438
 5847SOL    HW217874   3.107   4.099   0.533
 5848SOL     OW17875   3.639   4.066   1.642
 5848SOL    HW117876   3.622   4.097   1.548
 5848SOL    HW217877   3.555   4.029   1.680
 5849SOL     OW17878   3.686   3.916   1.227
 5849SOL    HW117879   3.682   3.826   1.271
 5849SOL    HW217880   3.689   3.905   1.128
 5850SOL     OW17881   2.290   4.148   0.520
 5850SOL    HW117882   2.320   4.076   0.458
 5850SOL    HW217883   2.251   4.108   0.603
 5851SOL     OW17884   2.179   4.271   1.280
 5851SOL    HW117885   2.217   4.212   1.352
 5851SOL    HW217886   2.219   4.245   1.192
 5852SOL     OW17887   3.286   3.938   1.112
 5852SOL    HW117888   3.338   3.873   1.167
 5852SOL    HW217889   3.237   4.001   1.173
 5853SOL     OW17890   2.863   3.758   1.154
 5853SOL    HW117891   2.800   3.686   1.123
 5853SOL    HW217892   2.956   3.722   1.154
 5854SOL     OW17893   3.214   3.776   0.168
 5854SOL    HW117894   3.249   3.735   0.084
 5854SOL    HW217895   3.124   3.738   0.188
 5855SOL     OW17896   3.162   4.177   0.691
 5855SOL    HW117897   3.103   4.257   0.695
 5855SOL    HW217898   3.177   4.142   0.784
 5856SOL     OW17899   3.455   3.945   0.882
 5856SOL    HW117900   3.371   3.944   0.936
 5856SOL    HW217901   3.457   4.028   0.826
 5857SOL     OW17902   2.087   3.999   2.858
 5857SOL    HW117903   2.122   3.982   2.950
 5857SOL    HW217904   1.999   3.954   2.846
 5858SOL     OW17905   1.881   4.092   2.509
 5858SOL    HW117906   1.799   4.135   2.548
 5858SOL    HW217907   1.853   4.019   2.446
 5859SOL     OW17908   3.617   4.331   2.093
 5859SOL    HW117909   3.605   4.318   1.994
 5859SOL    HW217910   3.587   4.250   2.142
 5860SOL     OW17911   2.300   4.116   3.361
 5860SOL    HW117912   2.382   4.060   3.370
 5860SOL    HW217913   2.219   4.058   3.365
 5861SOL     OW17914   3.465   4.171   2.599
 5861SOL    HW117915   3.391   4.217   2.549
 5861SOL    HW217916   3.516   4.239   2.652
 5862SOL     OW17917   3.456   3.838   3.342
 5862SOL    HW117918   3.438   3.905   3.270
 5862SOL    HW217919   3.453   3.884   3.431
 5863SOL     OW17920   1.984   4.367   2.425
 5863SOL    HW117921   1.939   4.279   2.442
 5863SOL    HW217922   1.983   4.421   2.509
 5864SOL     OW17923   2.671   3.728   2.364
 5864SOL    HW117924   2.711   3.819   2.355
 5864SOL    HW217925   2.571   3.736   2.370
 5865SOL     OW17926   2.179   3.975   3.663
 5865SOL    HW117927   2.250   4.046   3.669
 5865SOL    HW217928   2.091   4.014   3.691
 5866SOL     OW17929   3.143   4.069   2.806
 5866SOL    HW117930   3.057   4.019   2.793
 5866SOL    HW217931   3.205   4.015   2.862
 5867SOL     OW17932   3.256   4.193   3.536
 5867SOL    HW117933   3.236   4.236   3.624
 5867SOL    HW217934   3.334   4.131   3.545
 5868SOL     OW17935   2.853   4.134   3.104
 5868SOL    HW117936   2.776   4.168   3.158
 5868SOL    HW217937   2.819   4.083   3.025
 5869SOL     OW17938   1.938   4.535   2.651
 5869SOL    HW117939   2.037   4.523   2.660
 5869SOL    HW217940   1.914   4.630   2.672
 5870SOL     OW17941   2.727   4.072   2.057
 5870SOL    HW117942   2.786   4.135   2.008
 5870SOL    HW217943   2.746   3.978   2.028
 5871SOL     OW17944   3.581   4.309   3.693
 5871SOL    HW117945   3.555   4.398   3.657
 5871SOL    HW217946   3.579   4.241   3.620
 5872SOL     OW17947   2.412   3.920   2.747
 5872SOL    HW117948   2.407   3.915   2.847
 5872SOL    HW217949   2.414   4.016   2.718
 5873SOL     OW17950   2.064   4.009   3.360
 5873SOL    HW117951   1.984   4.069   3.347
 5873SOL    HW217952   2.054   3.960   3.446
 5874SOL     OW17953   3.262   3.831   2.288
 5874SOL    HW117954   3.238   3.794   2.198
 5874SOL    HW217955   3.361   3.847   2.292
 5875SOL     OW17956   3.409   3.946   3.591
 5875SOL    HW117957   3.404   3.983   3.683
 5875SOL    HW217958   3.337   3.877   3.579
 5876SOL     OW17959   2.476   3.846   1.979
 5876SOL    HW117960   2.574   3.824   1.986
 5876SOL    HW217961   2.445   3.829   1.886
 5877SOL     OW17962   2.643   3.988   3.611
 5877SOL    HW117963   2.710   3.927   3.654
 5877SOL    HW217964   2.570   4.007   3.676
 5878SOL     OW17965   3.213   4.314   3.295
 5878SOL    HW117966   3.241   4.271   3.380
 5878SOL    HW217967   3.238   4.410   3.296
 5879SOL     OW17968   2.401   3.788   2.374
 5879SOL    HW117969   2.320   3.789   2.432
 5879SOL    HW217970   2.404   3.871   2.319
 5880SOL     OW17971   2.159   3.759   2.033
 5880SOL    HW117972   2.208   3.843   2.012
 5880SOL    HW217973   2.221   3.694   2.078
 5881SOL     OW17974   2.797   3.960   2.342
 5881SOL    HW117975   2.749   4.001   2.264
 5881SOL    HW217976   2.896   3.958   2.323
 5882SOL     OW17977   1.940   4.280   3.248
 5882SOL    HW117978   2.032   4.279   3.207
 5882SOL    HW217979   1.934   4.354   3.315
 5883SOL     OW17980   2.423   3.946   3.009
 5883SOL    HW117981   2.461   3.862   3.046
 5883SOL    HW217982   2.335   3.965   3.053
 5884SOL     OW17983   2.879   3.763   2.615
 5884SOL    HW117984   2.807   3.768   2.546
 5884SOL    HW217985   2.855   3.694   2.684
 5885SOL     OW17986   3.328   4.314   2.854
 5885SOL    HW117987   3.298   4.219   2.861
 5885SOL    HW217988   3.401   4.330   2.920
 5886SOL     OW17989   2.389   3.980   2.190
 5886SOL    HW117990   2.416   3.921   2.115
 5886SOL    HW217991   2.389   4.075   2.159
 5887SOL     OW17992   2.777   3.813   3.264
 5887SOL    HW117993   2.802   3.793   3.169
 5887SOL    HW217994   2.849   3.869   3.306
 5888SOL     OW17995   3.136   4.110   3.124
 5888SOL    HW117996   3.157   4.184   3.188
 5888SOL    HW217997   3.047   4.127   3.081
 5889SOL     OW17998   2.428   4.261   2.727
 5889SOL    HW117999   2.440   4.327   2.653
 5889SOL    HW218000   2.474   4.295   2.810
 5890SOL     OW18001   2.875   3.829   3.632
 5890SOL    HW118002   2.881   3.914   3.580
 5890SOL    HW218003   2.907   3.753   3.575
 5891SOL     OW18004   2.366   3.774   3.602
 5891SOL    HW118005   2.324   3.717   3.532
 5891SOL    HW218006   2.300   3.843   3.634
 5892SOL     OW18007   2.169   3.937   3.093
 5892SOL    HW118008   2.146   3.974   3.183
 5892SOL    HW218009   2.139   3.842   3.087
 5893SOL     OW18010   2.594   4.358   2.926
 5893SOL    HW118011   2.653   4.332   2.850
 5893SOL    HW218012   2.566   4.454   2.915
 5894SOL     OW18013   2.169   3.787   2.480
 5894SOL    HW118014   2.158   3.881   2.513
 5894SOL    HW218015   2.164   3.724   2.557
 5895SOL     OW18016   3.484   4.091   2.236
 5895SOL    HW118017   3.486   4.015   2.300
 5895SOL    HW218018   3.436   4.168   2.276
 5896SOL     OW18019   3.402   3.998   1.987
 5896SOL    HW118020   3.341   3.923   2.010
 5896SOL    HW218021   3.424   4.050   2.070
 5897SOL     OW18022   2.201   4.233   2.868
 5897SOL    HW118023   2.149   4.150   2.851
 5897SOL    HW218024   2.278   4.238   2.804
 5898SOL     OW18025   3.000   4.104   3.540
 5898SOL    HW118026   2.955   4.167   3.604
 5898SOL    HW218027   3.093   4.135   3.523
 5899SOL     OW18028   3.022   3.931   3.339
 5899SOL    HW118029   3.022   3.995   3.416
 5899SOL    HW218030   3.050   3.979   3.256
 5900SOL     OW18031   1.902   4.268   2.976
 5900SOL    HW118032   1.987   4.235   2.935
 5900SOL    HW218033   1.915   4.283   3.074
 5901SOL     OW18034   2.051   4.244   3.584
 5901SOL    HW118035   2.110   4.204   3.514
 5901SOL    HW218036   1.993   4.315   3.543
 5902SOL     OW18037   2.677   4.296   2.187
 5902SOL    HW118038   2.684   4.207   2.141
 5902SOL    HW218039   2.583   4.330   2.179
 5903SOL     OW18040   3.519   4.328   3.068
 5903SOL    HW118041   3.481   4.259   3.130
 5903SOL    HW218042   3.601   4.292   3.024
 5904SOL     OW18043   2.533   4.188   3.131
 5904SOL    HW118044   2.499   4.099   3.101
 5904SOL    HW218045   2.559   4.242   3.051
 5905SOL     OW18046   3.588   3.859   2.385
 5905SOL    HW118047   3.661   3.842   2.318
 5905SOL    HW218048   3.557   3.772   2.423
 5906SOL     OW18049   3.703   3.899   2.825
 5906SOL    HW118050   3.742   3.814   2.789
 5906SOL    HW218051   3.605   3.901   2.806
 5907SOL     OW18052   2.125   4.050   2.582
 5907SOL    HW118053   2.046   4.101   2.548
 5907SOL    HW218054   2.116   4.035   2.680
 5908SOL     OW18055   2.876   3.960   2.833
 5908SOL    HW118056   2.868   3.924   2.740
 5908SOL    HW218057   2.874   3.884   2.898
 5909SOL     OW18058   3.571   4.109   3.243
 5909SOL    HW118059   3.644   4.178   3.247
 5909SOL    HW218060   3.599   4.034   3.184
 5910SOL     OW18061   2.534   3.927   3.351
 5910SOL    HW118062   2.624   3.911   3.311
 5910SOL    HW218063   2.542   3.932   3.450
 5911SOL     OW18064   1.937   4.069   1.895
 5911SOL    HW118065   1.845   4.041   1.866
 5911SOL    HW218066   1.968   4.146   1.839
 5912SOL     OW18067   1.934   3.890   2.180
 5912SOL    HW118068   1.917   3.973   2.126
 5912SOL    HW218069   2.024   3.853   2.158
 5913SOL     OW18070   2.578   4.289   3.570
 5913SOL    HW118071   2.597   4.354   3.644
 5913SOL    HW218072   2.638   4.209   3.579
 5914SOL     OW18073   3.087   4.049   2.311
 5914SOL    HW118074   3.152   3.975   2.300
 5914SOL    HW218075   3.107   4.099   2.395
 5915SOL     OW18076   3.639   4.066   3.504
 5915SOL    HW118077   3.622   4.097   3.410
 5915SOL    HW218078   3.555   4.029   3.542
 5916SOL     OW18079   3.686   3.916   3.089
 5916SOL    HW118080   3.682   3.826   3.133
 5916SOL    HW218081   3.689   3.905   2.990
 5917SOL     OW18082   2.290   4.148   2.382
 5917SOL    HW118083   2.320   4.076   2.320
 5917SOL    HW218084   2.251   4.108   2.465
 5918SOL     OW18085   2.179   4.271   3.142
 5918SOL    HW118086   2.217   4.212   3.214
 5918SOL    HW218087   2.219   4.245   3.054
 5919SOL     OW18088   3.286   3.938   2.974
 5919SOL    HW118089   3.338   3.873   3.029
 5919SOL    HW218090   3.237   4.001   3.035
 5920SOL     OW18091   2.863   3.758   3.016
 5920SOL    HW118092   2.800   3.686   2.985
 5920SOL    HW218093   2.956   3.722   3.016
 5921SOL     OW18094   3.214   3.776   2.030
 5921SOL    HW118095   3.249   3.735   1.946
 5921SOL    HW218096   3.124   3.738   2.050
 5922SOL     OW18097   3.162   4.177   2.553
 5922SOL    HW118098   3.103   4.257   2.557
 5922SOL    HW218099   3.177   4.142   2.646
 5923SOL     OW18100   3.455   3.945   2.744
 5923SOL    HW118101   3.371   3.944   2.798
 5923SOL    HW218102   3.457   4.028   2.688
 5924SOL     OW18103   2.087   3.999   4.720
 5924SOL    HW118104   2.122   3.982   4.812
 5924SOL    HW218105   1.999   3.954   4.708
 5925SOL     OW18106   1.881   4.092   4.371
 5925SOL    HW118107   1.799   4.135   4.410
 5925SOL    HW218108   1.853   4.019   4.308
 5926SOL     OW18109   3.617   4.331   3.955
 5926SOL    HW118110   3.605   4.318   3.856
 5926SOL    HW218111   3.587   4.250   4.004
 5927SOL     OW18112   2.300   4.116   5.223
 5927SOL    HW118113   2.382   4.060   5.232
 5927SOL    HW218114   2.219   4.058   5.227
 5928SOL     OW18115   3.465   4.171   4.461
 5928SOL    HW118116   3.391   4.217   4.411
 5928SOL    HW218117   3.516   4.239   4.514
 5929SOL     OW18118   3.456   3.838   5.204
 5929SOL    HW118119   3.438   3.905   5.132
 5929SOL    HW218120   3.453   3.884   5.293
 5930SOL     OW18121   1.984   4.367   4.287
 5930SOL    HW118122   1.939   4.279   4.304
 5930SOL    HW218123   1.983   4.421   4.371
 5931SOL     OW18124   2.671   3.728   4.226
 5931SOL    HW118125   2.711   3.819   4.217
 5931SOL    HW218126   2.571   3.736   4.232
 5932SOL     OW18127   2.179   3.975   5.525
 5932SOL    HW118128   2.250   4.046   5.531
 5932SOL    HW218129   2.091   4.014   5.553
 5933SOL     OW18130   3.143   4.069   4.668
 5933SOL    HW118131   3.057   4.019   4.655
 5933SOL    HW218132   3.205   4.015   4.724
 5934SOL     OW18133   3.256   4.193   5.398
 5934SOL    HW118134   3.236   4.236   5.486
 5934SOL    HW218135   3.334   4.131   5.407
 5935SOL     OW18136   2.853   4.134   4.966
 5935SOL    HW118137   2.776   4.168   5.020
 5935SOL    HW218138   2.819   4.083   4.887
 5936SOL     OW18139   1.938   4.535   4.513
 5936SOL    HW118140   2.037   4.523   4.522
 5936SOL    HW218141   1.914   4.630   4.534
 5937SOL     OW18142   2.727   4.072   3.919
 5937SOL    HW118143   2.786   4.135   3.870
 5937SOL    HW218144   2.746   3.978   3.890
 5938SOL     OW18145   3.581   4.309   5.555
 5938SOL    HW118146   3.555   4.398   5.519
 5938SOL    HW218147   3.579   4.241   5.482
 5939SOL     OW18148   2.412   3.920   4.609
 5939SOL    HW118149   2.407   3.915   4.709
 5939SOL    HW218150   2.414   4.016   4.580
 5940SOL     OW18151   2.064   4.009   5.222
 5940SOL    HW118152   1.984   4.069   5.209
 5940SOL    HW218153   2.054   3.960   5.308
 5941SOL     OW18154   3.262   3.831   4.150
 5941SOL    HW118155   3.238   3.794   4.060
 5941SOL    HW218156   3.361   3.847   4.154
 5942SOL     OW18157   3.409   3.946   5.453
 5942SOL    HW118158   3.404   3.983   5.545
 5942SOL    HW218159   3.337   3.877   5.441
 5943SOL     OW18160   2.476   3.846   3.841
 5943SOL    HW118161   2.574   3.824   3.848
 5943SOL    HW218162   2.445   3.829   3.748
 5944SOL     OW18163   2.643   3.988   5.473
 5944SOL    HW118164   2.710   3.927   5.516
 5944SOL    HW218165   2.570   4.007   5.538
 5945SOL     OW18166   3.213   4.314   5.157
 5945SOL    HW118167   3.241   4.271   5.242
 5945SOL    HW218168   3.238   4.410   5.158
 5946SOL     OW18169   2.401   3.788   4.236
 5946SOL    HW118170   2.320   3.789   4.294
 5946SOL    HW218171   2.404   3.871   4.181
 5947SOL     OW18172   2.159   3.759   3.895
 5947SOL    HW118173   2.208   3.843   3.874
 5947SOL    HW218174   2.221   3.694   3.940
 5948SOL     OW18175   2.797   3.960   4.204
 5948SOL    HW118176   2.749   4.001   4.126
 5948SOL    HW218177   2.896   3.958   4.185
 5949SOL     OW18178   1.940   4.280   5.110
 5949SOL    HW118179   2.032   4.279   5.069
 5949SOL    HW218180   1.934   4.354   5.177
 5950SOL     OW18181   2.423   3.946   4.871
 5950SOL    HW118182   2.461   3.862   4.908
 5950SOL    HW218183   2.335   3.965   4.915
 5951SOL     OW18184   2.879   3.763   4.477
 5951SOL    HW118185   2.807   3.768   4.408
 5951SOL    HW218186   2.855   3.694   4.546
 5952SOL     OW18187   3.328   4.314   4.716
 5952SOL    HW118188   3.298   4.219   4.723
 5952SOL    HW218189   3.401   4.330   4.782
 5953SOL     OW18190   2.389   3.980   4.052
 5953SOL    HW118191   2.416   3.921   3.977
 5953SOL    HW218192   2.389   4.075   4.021
 5954SOL     OW18193   2.777   3.813   5.126
 5954SOL    HW118194   2.802   3.793   5.031
 5954SOL    HW218195   2.849   3.869   5.168
 5955SOL     OW18196   3.136   4.110   4.986
 5955SOL    HW118197   3.157   4.184   5.050
 5955SOL    HW218198   3.047   4.127   4.943
 5956SOL     OW18199   2.428   4.261   4.589
 5956SOL    HW118200   2.440   4.327   4.515
 5956SOL    HW218201   2.474   4.295   4.672
 5957SOL     OW18202   2.875   3.829   5.494
 5957SOL    HW118203   2.881   3.914   5.442
 5957SOL    HW218204   2.907   3.753   5.437
 5958SOL     OW18205   2.366   3.774   5.464
 5958SOL    HW118206   2.324   3.717   5.394
 5958SOL    HW218207   2.300   3.843   5.496
 5959SOL     OW18208   2.169   3.937   4.955
 5959SOL    HW118209   2.146   3.974   5.045
 5959SOL    HW218210   2.139   3.842   4.949
 5960SOL     OW18211   2.594   4.358   4.788
 5960SOL    HW118212   2.653   4.332   4.712
 5960SOL    HW218213   2.566   4.454   4.777
 5961SOL     OW18214   2.169   3.787   4.342
 5961SOL    HW118215   2.158   3.881   4.375
 5961SOL    HW218216   2.164   3.724   4.419
 5962SOL     OW18217   3.484   4.091   4.098
 5962SOL    HW118218   3.486   4.015   4.162
 5962SOL    HW218219   3.436   4.168   4.138
 5963SOL     OW18220   3.402   3.998   3.849
 5963SOL    HW118221   3.341   3.923   3.872
 5963SOL    HW218222   3.424   4.050   3.932
 5964SOL     OW18223   2.201   4.233   4.730
 5964SOL    HW118224   2.149   4.150   4.713
 5964SOL    HW218225   2.278   4.238   4.666
 5965SOL     OW18226   3.000   4.104   5.402
 5965SOL    HW118227   2.955   4.167   5.466
 5965SOL    HW218228   3.093   4.135   5.385
 5966SOL     OW18229   3.022   3.931   5.201
 5966SOL    HW118230   3.022   3.995   5.278
 5966SOL    HW218231   3.050   3.979   5.118
 5967SOL     OW18232   1.902   4.268   4.838
 5967SOL    HW118233   1.987   4.235   4.797
 5967SOL    HW218234   1.915   4.283   4.936
 5968SOL     OW18235   2.051   4.244   5.446
 5968SOL    HW118236   2.110   4.204   5.376
 5968SOL    HW218237   1.993   4.315   5.405
 5969SOL     OW18238   2.677   4.296   4.049
 5969SOL    HW118239   2.684   4.207   4.003
 5969SOL    HW218240   2.583   4.330   4.041
 5970SOL     OW18241   3.519   4.328   4.930
 5970SOL    HW118242   3.481   4.259   4.992
 5970SOL    HW218243   3.601   4.292   4.886
 5971SOL     OW18244   2.533   4.188   4.993
 5971SOL    HW118245   2.499   4.099   4.963
 5971SOL    HW218246   2.559   4.242   4.913
 5972SOL     OW18247   3.588   3.859   4.247
 5972SOL    HW118248   3.661   3.842   4.180
 5972SOL    HW218249   3.557   3.772   4.285
 5973SOL     OW18250   3.703   3.899   4.687
 5973SOL    HW118251   3.742   3.814   4.651
 5973SOL    HW218252   3.605   3.901   4.668
 5974SOL     OW18253   2.125   4.050   4.444
 5974SOL    HW118254   2.046   4.101   4.410
 5974SOL    HW218255   2.116   4.035   4.542
 5975SOL     OW18256   2.876   3.960   4.695
 5975SOL    HW118257   2.868   3.924   4.602
 5975SOL    HW218258   2.874   3.884   4.760
 5976SOL     OW18259   3.571   4.109   5.105
 5976SOL    HW118260   3.644   4.178   5.109
 5976SOL    HW218261   3.599   4.034   5.046
 5977SOL     OW18262   2.534   3.927   5.213
 5977SOL    HW118263   2.624   3.911   5.173
 5977SOL    HW218264   2.542   3.932   5.312
 5978SOL     OW18265   1.937   4.069   3.757
 5978SOL    HW118266   1.845   4.041   3.728
 5978SOL    HW218267   1.968   4.146   3.701
 5979SOL     OW18268   1.934   3.890   4.042
 5979SOL    HW118269   1.917   3.973   3.988
 5979SOL    HW218270   2.024   3.853   4.020
 5980SOL     OW18271   2.578   4.289   5.432
 5980SOL    HW118272   2.597   4.354   5.506
 5980SOL    HW218273   2.638   4.209   5.441
 5981SOL     OW18274   3.087   4.049   4.173
 5981SOL    HW118275   3.152   3.975   4.162
 5981SOL    HW218276   3.107   4.099   4.257
 5982SOL     OW18277   3.639   4.066   5.366
 5982SOL    HW118278   3.622   4.097   5.272
 5982SOL    HW218279   3.555   4.029   5.404
 5983SOL     OW18280   3.686   3.916   4.951
 5983SOL    HW118281   3.682   3.826   4.995
 5983SOL    HW218282   3.689   3.905   4.852
 5984SOL     OW18283   2.290   4.148   4.244
 5984SOL    HW118284   2.320   4.076   4.182
 5984SOL    HW218285   2.251   4.108   4.327
 5985SOL     OW18286   2.179   4.271   5.004
 5985SOL    HW118287   2.217   4.212   5.076
 5985SOL    HW218288   2.219   4.245   4.916
 5986SOL     OW18289   3.286   3.938   4.836
 5986SOL    HW118290   3.338   3.873   4.891
 5986SOL    HW218291   3.237   4.001   4.897
 5987SOL     OW18292   2.863   3.758   4.878
 5987SOL    HW118293   2.800   3.686   4.847
 5987SOL    HW218294   2.956   3.722   4.878
 5988SOL     OW18295   3.214   3.776   3.892
 5988SOL    HW118296   3.249   3.735   3.808
 5988SOL    HW218297   3.124   3.738   3.912
 5989SOL     OW18298   3.162   4.177   4.415
 5989SOL    HW118299   3.103   4.257   4.419
 5989SOL    HW218300   3.177   4.142   4.508
 5990SOL     OW18301   3.455   3.945   4.606
 5990SOL    HW118302   3.371   3.944   4.660
 5990SOL    HW218303   3.457   4.028   4.550
 5991SOL     OW18304   2.087   3.999   6.582
 5991SOL    HW118305   2.122   3.982   6.674
 5991SOL    HW218306   1.999   3.954   6.570
 5992SOL     OW18307   1.881   4.092   6.233
 5992SOL    HW118308   1.799   4.135   6.272
 5992SOL    HW218309   1.853   4.019   6.170
 5993SOL     OW18310   3.617   4.331   5.817
 5993SOL    HW118311   3.605   4.318   5.718
 5993SOL    HW218312   3.587   4.250   5.866
 5994SOL     OW18313   2.300   4.116   7.085
 5994SOL    HW118314   2.382   4.060   7.094
 5994SOL    HW218315   2.219   4.058   7.089
 5995SOL     OW18316   3.465   4.171   6.323
 5995SOL    HW118317   3.391   4.217   6.273
 5995SOL    HW218318   3.516   4.239   6.376
 5996SOL     OW18319   3.456   3.838   7.066
 5996SOL    HW118320   3.438   3.905   6.994
 5996SOL    HW218321   3.453   3.884   7.155
 5997SOL     OW18322   1.984   4.367   6.149
 5997SOL    HW118323   1.939   4.279   6.166
 5997SOL    HW218324   1.983   4.421   6.233
 5998SOL     OW18325   2.671   3.728   6.088
 5998SOL    HW118326   2.711   3.819   6.079
 5998SOL    HW218327   2.571   3.736   6.094
 5999SOL     OW18328   2.179   3.975   7.387
 5999SOL    HW118329   2.250   4.046   7.393
 5999SOL    HW218330   2.091   4.014   7.415
 6000SOL     OW18331   3.143   4.069   6.530
 6000SOL    HW118332   3.057   4.019   6.517
 6000SOL    HW218333   3.205   4.015   6.586
 6001SOL     OW18334   3.256   4.193   7.260
 6001SOL    HW118335   3.236   4.236   7.348
 6001SOL    HW218336   3.334   4.131   7.269
 6002SOL     OW18337   2.853   4.134   6.828
 6002SOL    HW118338   2.776   4.168   6.882
 6002SOL    HW218339   2.819   4.083   6.749
 6003SOL     OW18340   1.938   4.535   6.375
 6003SOL    HW118341   2.037   4.523   6.384
 6003SOL    HW218342   1.914   4.630   6.396
 6004SOL     OW18343   2.727   4.072   5.781
 6004SOL    HW118344   2.786   4.135   5.732
 6004SOL    HW218345   2.746   3.978   5.752
 6005SOL     OW18346   3.581   4.309   7.417
 6005SOL    HW118347   3.555   4.398   7.381
 6005SOL    HW218348   3.579   4.241   7.344
 6006SOL     OW18349   2.412   3.920   6.471
 6006SOL    HW118350   2.407   3.915   6.571
 6006SOL    HW218351   2.414   4.016   6.442
 6007SOL     OW18352   2.064   4.009   7.084
 6007SOL    HW118353   1.984   4.069   7.071
 6007SOL    HW218354   2.054   3.960   7.170
 6008SOL     OW18355   3.262   3.831   6.012
 6008SOL    HW118356   3.238   3.794   5.922
 6008SOL    HW218357   3.361   3.847   6.016
 6009SOL     OW18358   3.409   3.946   7.315
 6009SOL    HW118359   3.404   3.983   7.407
 6009SOL    HW218360   3.337   3.877   7.303
 6010SOL     OW18361   2.476   3.846   5.703
 6010SOL    HW118362   2.574   3.824   5.710
 6010SOL    HW218363   2.445   3.829   5.610
 6011SOL     OW18364   2.643   3.988   7.335
 6011SOL    HW118365   2.710   3.927   7.378
 6011SOL    HW218366   2.570   4.007   7.400
 6012SOL     OW18367   3.213   4.314   7.019
 6012SOL    HW118368   3.241   4.271   7.104
 6012SOL    HW218369   3.238   4.410   7.020
 6013SOL     OW18370   2.401   3.788   6.098
 6013SOL    HW118371   2.320   3.789   6.156
 6013SOL    HW218372   2.404   3.871   6.043
 6014SOL     OW18373   2.159   3.759   5.757
 6014SOL    HW118374   2.208   3.843   5.736
 6014SOL    HW218375   2.221   3.694   5.802
 6015SOL     OW18376   2.797   3.960   6.066
 6015SOL    HW118377   2.749   4.001   5.988
 6015SOL    HW218378   2.896   3.958   6.047
 6016SOL     OW18379   1.940   4.280   6.972
 6016SOL    HW118380   2.032   4.279   6.931
 6016SOL    HW218381   1.934   4.354   7.039
 6017SOL     OW18382   2.423   3.946   6.733
 6017SOL    HW118383   2.461   3.862   6.770
 6017SOL    HW218384   2.335   3.965   6.777
 6018SOL     OW18385   2.879   3.763   6.339
 6018SOL    HW118386   2.807   3.768   6.270
 6018SOL    HW218387   2.855   3.694   6.408
 6019SOL     OW18388   3.328   4.314   6.578
 6019SOL    HW118389   3.298   4.219   6.585
 6019SOL    HW218390   3.401   4.330   6.644
 6020SOL     OW18391   2.389   3.980   5.914
 6020SOL    HW118392   2.416   3.921   5.839
 6020SOL    HW218393   2.389   4.075   5.883
 6021SOL     OW18394   2.777   3.813   6.988
 6021SOL    HW118395   2.802   3.793   6.893
 6021SOL    HW218396   2.849   3.869   7.030
 6022SOL     OW18397   3.136   4.110   6.848
 6022SOL    HW118398   3.157   4.184   6.912
 6022SOL    HW218399   3.047   4.127   6.805
 6023SOL     OW18400   2.428   4.261   6.451
 6023SOL    HW118401   2.440   4.327   6.377
 6023SOL    HW218402   2.474   4.295   6.534
 6024SOL     OW18403   2.875   3.829   7.356
 6024SOL    HW118404   2.881   3.914   7.304
 6024SOL    HW218405   2.907   3.753   7.299
 6025SOL     OW18406   2.366   3.774   7.326
 6025SOL    HW118407   2.324   3.717   7.256
 6025SOL    HW218408   2.300   3.843   7.358
 6026SOL     OW18409   2.169   3.937   6.817
 6026SOL    HW118410   2.146   3.974   6.907
 6026SOL    HW218411   2.139   3.842   6.811
 6027SOL     OW18412   2.594   4.358   6.650
 6027SOL    HW118413   2.653   4.332   6.574
 6027SOL    HW218414   2.566   4.454   6.639
 6028SOL     OW18415   2.169   3.787   6.204
 6028SOL    HW118416   2.158   3.881   6.237
 6028SOL    HW218417   2.164   3.724   6.281
 6029SOL     OW18418   3.484   4.091   5.960
 6029SOL    HW118419   3.486   4.015   6.024
 6029SOL    HW218420   3.436   4.168   6.000
 6030SOL     OW18421   3.402   3.998   5.711
 6030SOL    HW118422   3.341   3.923   5.734
 6030SOL    HW218423   3.424   4.050   5.794
 6031SOL     OW18424   2.201   4.233   6.592
 6031SOL    HW118425   2.149   4.150   6.575
 6031SOL    HW218426   2.278   4.238   6.528
 6032SOL     OW18427   3.000   4.104   7.264
 6032SOL    HW118428   2.955   4.167   7.328
 6032SOL    HW218429   3.093   4.135   7.247
 6033SOL     OW18430   3.022   3.931   7.063
 6033SOL    HW118431   3.022   3.995   7.140
 6033SOL    HW218432   3.050   3.979   6.980
 6034SOL     OW18433   1.902   4.268   6.700
 6034SOL    HW118434   1.987   4.235   6.659
 6034SOL    HW218435   1.915   4.283   6.798
 6035SOL     OW18436   2.051   4.244   7.308
 6035SOL    HW118437   2.110   4.204   7.238
 6035SOL    HW218438   1.993   4.315   7.267
 6036SOL     OW18439   2.677   4.296   5.911
 6036SOL    HW118440   2.684   4.207   5.865
 6036SOL    HW218441   2.583   4.330   5.903
 6037SOL     OW18442   3.519   4.328   6.792
 6037SOL    HW118443   3.481   4.259   6.854
 6037SOL    HW218444   3.601   4.292   6.748
 6038SOL     OW18445   2.533   4.188   6.855
 6038SOL    HW118446   2.499   4.099   6.825
 6038SOL    HW218447   2.559   4.242   6.775
 6039SOL     OW18448   3.588   3.859   6.109
 6039SOL    HW118449   3.661   3.842   6.042
 6039SOL    HW218450   3.557   3.772   6.147
 6040SOL     OW18451   3.703   3.899   6.549
 6040SOL    HW118452   3.742   3.814   6.513
 6040SOL    HW218453   3.605   3.901   6.530
 6041SOL     OW18454   2.125   4.050   6.306
 6041SOL    HW118455   2.046   4.101   6.272
 6041SOL    HW218456   2.116   4.035   6.404
 6042SOL     OW18457   2.876   3.960   6.557
 6042SOL    HW118458   2.868   3.924   6.464
 6042SOL    HW218459   2.874   3.884   6.622
 6043SOL     OW18460   3.571   4.109   6.967
 6043SOL    HW118461   3.644   4.178   6.971
 6043SOL    HW218462   3.599   4.034   6.908
 6044SOL     OW18463   2.534   3.927   7.075
 6044SOL    HW118464   2.624   3.911   7.035
 6044SOL    HW218465   2.542   3.932   7.174
 6045SOL     OW18466   1.937   4.069   5.619
 6045SOL    HW118467   1.845   4.041   5.590
 6045SOL    HW218468   1.968   4.146   5.563
 6046SOL     OW18469   1.934   3.890   5.904
 6046SOL    HW118470   1.917   3.973   5.850
 6046SOL    HW218471   2.024   3.853   5.882
 6047SOL     OW18472   2.578   4.289   7.294
 6047SOL    HW118473   2.597   4.354   7.368
 6047SOL    HW218474   2.638   4.209   7.303
 6048SOL     OW18475   3.087   4.049   6.035
 6048SOL    HW118476   3.152   3.975   6.024
 6048SOL    HW218477   3.107   4.099   6.119
 6049SOL     OW18478   3.639   4.066   7.228
 6049SOL    HW118479   3.622   4.097   7.134
 6049SOL    HW218480   3.555   4.029   7.266
 6050SOL     OW18481   3.686   3.916   6.813
 6050SOL    HW118482   3.682   3.826   6.857
 6050SOL    HW218483   3.689   3.905   6.714
 6051SOL     OW18484   2.290   4.148   6.106
 6051SOL    HW118485   2.320   4.076   6.044
 6051SOL    HW218486   2.251   4.108   6.189
 6052SOL     OW18487   2.179   4.271   6.866
 6052SOL    HW118488   2.217   4.212   6.938
 6052SOL    HW218489   2.219   4.245   6.778
 6053SOL     OW18490   3.286   3.938   6.698
 6053SOL    HW118491   3.338   3.873   6.753
 6053SOL    HW218492   3.237   4.001   6.759
 6054SOL     OW18493   2.863   3.758   6.740
 6054SOL    HW118494   2.800   3.686   6.709
 6054SOL    HW218495   2.956   3.722   6.740
 6055SOL     OW18496   3.214   3.776   5.754
 6055SOL    HW118497   3.249   3.735   5.670
 6055SOL    HW218498   3.124   3.738   5.774
 6056SOL     OW18499   3.162   4.177   6.277
 6056SOL    HW118500   3.103   4.257   6.281
 6056SOL    HW218501   3.177   4.142   6.370
 6057SOL     OW18502   3.455   3.945   6.468
 6057SOL    HW118503   3.371   3.944   6.522
 6057SOL    HW218504   3.457   4.028   6.412
 6058SOL     OW18505   2.087   3.999   8.444
 6058SOL    HW118506   2.122   3.982   8.536
 6058SOL    HW218507   1.999   3.954   8.432
 6059SOL     OW18508   1.881   4.092   8.095
 6059SOL    HW118509   1.799   4.135   8.134
 6059SOL    HW218510   1.853   4.019   8.032
 6060SOL     OW18511   3.617   4.331   7.679
 6060SOL    HW118512   3.605   4.318   7.580
 6060SOL    HW218513   3.587   4.250   7.728
 6061SOL     OW18514   2.300   4.116   8.947
 6061SOL    HW118515   2.382   4.060   8.956
 6061SOL    HW218516   2.219   4.058   8.951
 6062SOL     OW18517   3.465   4.171   8.185
 6062SOL    HW118518   3.391   4.217   8.135
 6062SOL    HW218519   3.516   4.239   8.238
 6063SOL     OW18520   3.456   3.838   8.928
 6063SOL    HW118521   3.438   3.905   8.856
 6063SOL    HW218522   3.453   3.884   9.017
 6064SOL     OW18523   1.984   4.367   8.011
 6064SOL    HW118524   1.939   4.279   8.028
 6064SOL    HW218525   1.983   4.421   8.095
 6065SOL     OW18526   2.671   3.728   7.950
 6065SOL    HW118527   2.711   3.819   7.941
 6065SOL    HW218528   2.571   3.736   7.956
 6066SOL     OW18529   2.179   3.975   9.249
 6066SOL    HW118530   2.250   4.046   9.255
 6066SOL    HW218531   2.091   4.014   9.277
 6067SOL     OW18532   3.143   4.069   8.392
 6067SOL    HW118533   3.057   4.019   8.379
 6067SOL    HW218534   3.205   4.015   8.448
 6068SOL     OW18535   3.256   4.193   9.122
 6068SOL    HW118536   3.236   4.236   9.210
 6068SOL    HW218537   3.334   4.131   9.131
 6069SOL     OW18538   2.853   4.134   8.690
 6069SOL    HW118539   2.776   4.168   8.744
 6069SOL    HW218540   2.819   4.083   8.611
 6070SOL     OW18541   1.938   4.535   8.237
 6070SOL    HW118542   2.037   4.523   8.246
 6070SOL    HW218543   1.914   4.630   8.258
 6071SOL     OW18544   2.727   4.072   7.643
 6071SOL    HW118545   2.786   4.135   7.594
 6071SOL    HW218546   2.746   3.978   7.614
 6072SOL     OW18547   3.581   4.309   9.279
 6072SOL    HW118548   3.555   4.398   9.243
 6072SOL    HW218549   3.579   4.241   9.206
 6073SOL     OW18550   2.412   3.920   8.333
 6073SOL    HW118551   2.407   3.915   8.433
 6073SOL    HW218552   2.414   4.016   8.304
 6074SOL     OW18553   2.064   4.009   8.946
 6074SOL    HW118554   1.984   4.069   8.933
 6074SOL    HW218555   2.054   3.960   9.032
 6075SOL     OW18556   3.262   3.831   7.874
 6075SOL    HW118557   3.238   3.794   7.784
 6075SOL    HW218558   3.361   3.847   7.878
 6076SOL     OW18559   3.409   3.946   9.177
 6076SOL    HW118560   3.404   3.983   9.269
 6076SOL    HW218561   3.337   3.877   9.165
 6077SOL     OW18562   2.476   3.846   7.565
 6077SOL    HW118563   2.574   3.824   7.572
 6077SOL    HW218564   2.445   3.829   7.472
 6078SOL     OW18565   2.643   3.988   9.197
 6078SOL    HW118566   2.710   3.927   9.240
 6078SOL    HW218567   2.570   4.007   9.262
 6079SOL     OW18568   3.213   4.314   8.881
 6079SOL    HW118569   3.241   4.271   8.966
 6079SOL    HW218570   3.238   4.410   8.882
 6080SOL     OW18571   2.401   3.788   7.960
 6080SOL    HW118572   2.320   3.789   8.018
 6080SOL    HW218573   2.404   3.871   7.905
 6081SOL     OW18574   2.159   3.759   7.619
 6081SOL    HW118575   2.208   3.843   7.598
 6081SOL    HW218576   2.221   3.694   7.664
 6082SOL     OW18577   2.797   3.960   7.928
 6082SOL    HW118578   2.749   4.001   7.850
 6082SOL    HW218579   2.896   3.958   7.909
 6083SOL     OW18580   1.940   4.280   8.834
 6083SOL    HW118581   2.032   4.279   8.793
 6083SOL    HW218582   1.934   4.354   8.901
 6084SOL     OW18583   2.423   3.946   8.595
 6084SOL    HW118584   2.461   3.862   8.632
 6084SOL    HW218585   2.335   3.965   8.639
 6085SOL     OW18586   2.879   3.763   8.201
 6085SOL    HW118587   2.807   3.768   8.132
 6085SOL    HW218588   2.855   3.694   8.270
 6086SOL     OW18589   3.328   4.314   8.440
 6086SOL    HW118590   3.298   4.219   8.447
 6086SOL    HW218591   3.401   4.330   8.506
 6087SOL     OW18592   2.389   3.980   7.776
 6087SOL    HW118593   2.416   3.921   7.701
 6087SOL    HW218594   2.389   4.075   7.745
 6088SOL     OW18595   2.777   3.813   8.850
 6088SOL    HW118596   2.802   3.793   8.755
 6088SOL    HW218597   2.849   3.869   8.892
 6089SOL     OW18598   3.136   4.110   8.710
 6089SOL    HW118599   3.157   4.184   8.774
 6089SOL    HW218600   3.047   4.127   8.667
 6090SOL     OW18601   2.428   4.261   8.313
 6090SOL    HW118602   2.440   4.327   8.239
 6090SOL    HW218603   2.474   4.295   8.396
 6091SOL     OW18604   2.875   3.829   9.218
 6091SOL    HW118605   2.881   3.914   9.166
 6091SOL    HW218606   2.907   3.753   9.161
 6092SOL     OW18607   2.366   3.774   9.188
 6092SOL    HW118608   2.324   3.717   9.118
 6092SOL    HW218609   2.300   3.843   9.220
 6093SOL     OW18610   2.169   3.937   8.679
 6093SOL    HW118611   2.146   3.974   8.769
 6093SOL    HW218612   2.139   3.842   8.673
 6094SOL     OW18613   2.594   4.358   8.512
 6094SOL    HW118614   2.653   4.332   8.436
 6094SOL    HW218615   2.566   4.454   8.501
 6095SOL     OW18616   2.169   3.787   8.066
 6095SOL    HW118617   2.158   3.881   8.099
 6095SOL    HW218618   2.164   3.724   8.143
 6096SOL     OW18619   3.484   4.091   7.822
 6096SOL    HW118620   3.486   4.015   7.886
 6096SOL    HW218621   3.436   4.168   7.862
 6097SOL     OW18622   3.402   3.998   7.573
 6097SOL    HW118623   3.341   3.923   7.596
 6097SOL    HW218624   3.424   4.050   7.656
 6098SOL     OW18625   2.201   4.233   8.454
 6098SOL    HW118626   2.149   4.150   8.437
 6098SOL    HW218627   2.278   4.238   8.390
 6099SOL     OW18628   3.000   4.104   9.126
 6099SOL    HW118629   2.955   4.167   9.190
 6099SOL    HW218630   3.093   4.135   9.109
 6100SOL     OW18631   3.022   3.931   8.925
 6100SOL    HW118632   3.022   3.995   9.002
 6100SOL    HW218633   3.050   3.979   8.842
 6101SOL     OW18634   1.902   4.268   8.562
 6101SOL    HW118635   1.987   4.235   8.521
 6101SOL    HW218636   1.915   4.283   8.660
 6102SOL     OW18637   2.051   4.244   9.170
 6102SOL    HW118638   2.110   4.204   9.100
 6102SOL    HW218639   1.993   4.315   9.129
 6103SOL     OW18640   2.677   4.296   7.773
 6103SOL    HW118641   2.684   4.207   7.727
 6103SOL    HW218642   2.583   4.330   7.765
 6104SOL     OW18643   3.519   4.328   8.654
 6104SOL    HW118644   3.481   4.259   8.716
 6104SOL    HW218645   3.601   4.292   8.610
 6105SOL     OW18646   2.533   4.188   8.717
 6105SOL    HW118647   2.499   4.099   8.687
 6105SOL    HW218648   2.559   4.242   8.637
 6106SOL     OW18649   3.588   3.859   7.971
 6106SOL    HW118650   3.661   3.842   7.904
 6106SOL    HW218651   3.557   3.772   8.009
 6107SOL     OW18652   3.703   3.899   8.411
 6107SOL    HW118653   3.742   3.814   8.375
 6107SOL    HW218654   3.605   3.901   8.392
 6108SOL     OW18655   2.125   4.050   8.168
 6108SOL    HW118656   2.046   4.101   8.134
 6108SOL    HW218657   2.116   4.035   8.266
 6109SOL     OW18658   2.876   3.960   8.419
 6109SOL    HW118659   2.868   3.924   8.326
 6109SOL    HW218660   2.874   3.884   8.484
 6110SOL     OW18661   3.571   4.109   8.829
 6110SOL    HW118662   3.644   4.178   8.833
 6110SOL    HW218663   3.599   4.034   8.770
 6111SOL     OW18664   2.534   3.927   8.937
 6111SOL    HW118665   2.624   3.911   8.897
 6111SOL    HW218666   2.542   3.932   9.036
 6112SOL     OW18667   1.937   4.069   7.481
 6112SOL    HW118668   1.845   4.041   7.452
 6112SOL    HW218669   1.968   4.146   7.425
 6113SOL     OW18670   1.934   3.890   7.766
 6113SOL    HW118671   1.917   3.973   7.712
 6113SOL    HW218672   2.024   3.853   7.744
 6114SOL     OW18673   2.578   4.289   9.156
 6114SOL    HW118674   2.597   4.354   9.230
 6114SOL    HW218675   2.638   4.209   9.165
 6115SOL     OW18676   3.087   4.049   7.897
 6115SOL    HW118677   3.152   3.975   7.886
 6115SOL    HW218678   3.107   4.099   7.981
 6116SOL     OW18679   3.639   4.066   9.090
 6116SOL    HW118680   3.622   4.097   8.996
 6116SOL    HW218681   3.555   4.029   9.128
 6117SOL     OW18682   3.686   3.916   8.675
 6117SOL    HW118683   3.682   3.826   8.719
 6117SOL    HW218684   3.689   3.905   8.576
 6118SOL     OW18685   2.290   4.148   7.968
 6118SOL    HW118686   2.320   4.076   7.906
 6118SOL    HW218687   2.251   4.108   8.051
 6119SOL     OW18688   2.179   4.271   8.728
 6119SOL    HW118689   2.217   4.212   8.800
 6119SOL    HW218690   2.219   4.245   8.640
 6120SOL     OW18691   3.286   3.938   8.560
 6120SOL    HW118692   3.338   3.873   8.615
 6120SOL    HW218693   3.237   4.001   8.621
 6121SOL     OW18694   2.863   3.758   8.602
 6121SOL    HW118695   2.800   3.686   8.571
 6121SOL    HW218696   2.956   3.722   8.602
 6122SOL     OW18697   3.214   3.776   7.616
 6122SOL    HW118698   3.249   3.735   7.532
 6122SOL    HW218699   3.124   3.738   7.636
 6123SOL     OW18700   3.162   4.177   8.139
 6123SOL    HW118701   3.103   4.257   8.143
 6123SOL    HW218702   3.177   4.142   8.232
 6124SOL     OW18703   3.455   3.945   8.330
 6124SOL    HW118704   3.371   3.944   8.384
 6124SOL    HW218705   3.457   4.028   8.274
 6125SOL     OW18706   2.087   3.999  10.306
 6125SOL    HW118707   2.122   3.982  10.398
 6125SOL    HW218708   1.999   3.954  10.294
 6126SOL     OW18709   1.881   4.092   9.957
 6126SOL    HW118710   1.799   4.135   9.996
 6126SOL    HW218711   1.853   4.019   9.894
 6127SOL     OW18712   3.617   4.331   9.541
 6127SOL    HW118713   3.605   4.318   9.442
 6127SOL    HW218714   3.587   4.250   9.590
 6128SOL     OW18715   2.300   4.116  10.809
 6128SOL    HW118716   2.382   4.060  10.818
 6128SOL    HW218717   2.219   4.058  10.813
 6129SOL     OW18718   3.465   4.171  10.047
 6129SOL    HW118719   3.391   4.217   9.997
 6129SOL    HW218720   3.516   4.239  10.100
 6130SOL     OW18721   3.456   3.838  10.790
 6130SOL    HW118722   3.438   3.905  10.718
 6130SOL    HW218723   3.453   3.884  10.879
 6131SOL     OW18724   1.984   4.367   9.873
 6131SOL    HW118725   1.939   4.279   9.890
 6131SOL    HW218726   1.983   4.421   9.957
 6132SOL     OW18727   2.671   3.728   9.812
 6132SOL    HW118728   2.711   3.819   9.803
 6132SOL    HW218729   2.571   3.736   9.818
 6133SOL     OW18730   2.179   3.975  11.111
 6133SOL    HW118731   2.250   4.046  11.117
 6133SOL    HW218732   2.091   4.014  11.139
 6134SOL     OW18733   3.143   4.069  10.254
 6134SOL    HW118734   3.057   4.019  10.241
 6134SOL    HW218735   3.205   4.015  10.310
 6135SOL     OW18736   3.256   4.193  10.984
 6135SOL    HW118737   3.236   4.236  11.072
 6135SOL    HW218738   3.334   4.131  10.993
 6136SOL     OW18739   2.853   4.134  10.552
 6136SOL    HW118740   2.776   4.168  10.606
 6136SOL    HW218741   2.819   4.083  10.473
 6137SOL     OW18742   1.938   4.535  10.099
 6137SOL    HW118743   2.037   4.523  10.108
 6137SOL    HW218744   1.914   4.630  10.120
 6138SOL     OW18745   2.727   4.072   9.505
 6138SOL    HW118746   2.786   4.135   9.456
 6138SOL    HW218747   2.746   3.978   9.476
 6139SOL     OW18748   3.581   4.309  11.141
 6139SOL    HW118749   3.555   4.398  11.105
 6139SOL    HW218750   3.579   4.241  11.068
 6140SOL     OW18751   2.412   3.920  10.195
 6140SOL    HW118752   2.407   3.915  10.295
 6140SOL    HW218753   2.414   4.016  10.166
 6141SOL     OW18754   2.064   4.009  10.808
 6141SOL    HW118755   1.984   4.069  10.795
 6141SOL    HW218756   2.054   3.960  10.894
 6142SOL     OW18757   3.262   3.831   9.736
 6142SOL    HW118758   3.238   3.794   9.646
 6142SOL    HW218759   3.361   3.847   9.740
 6143SOL     OW18760   3.409   3.946  11.039
 6143SOL    HW118761   3.404   3.983  11.131
 6143SOL    HW218762   3.337   3.877  11.027
 6144SOL     OW18763   2.476   3.846   9.427
 6144SOL    HW118764   2.574   3.824   9.434
 6144SOL    HW218765   2.445   3.829   9.334
 6145SOL     OW18766   2.643   3.988  11.059
 6145SOL    HW118767   2.710   3.927  11.102
 6145SOL    HW218768   2.570   4.007  11.124
 6146SOL     OW18769   3.213   4.314  10.743
 6146SOL    HW118770   3.241   4.271  10.828
 6146SOL    HW218771   3.238   4.410  10.744
 6147SOL     OW18772   2.401   3.788   9.822
 6147SOL    HW118773   2.320   3.789   9.880
 6147SOL    HW218774   2.404   3.871   9.767
 6148SOL     OW18775   2.159   3.759   9.481
 6148SOL    HW118776   2.208   3.843   9.460
 6148SOL    HW218777   2.221   3.694   9.526
 6149SOL     OW18778   2.797   3.960   9.790
 6149SOL    HW118779   2.749   4.001   9.712
 6149SOL    HW218780   2.896   3.958   9.771
 6150SOL     OW18781   1.940   4.280  10.696
 6150SOL    HW118782   2.032   4.279  10.655
 6150SOL    HW218783   1.934   4.354  10.763
 6151SOL     OW18784   2.423   3.946  10.457
 6151SOL    HW118785   2.461   3.862  10.494
 6151SOL    HW218786   2.335   3.965  10.501
 6152SOL     OW18787   2.879   3.763  10.063
 6152SOL    HW118788   2.807   3.768   9.994
 6152SOL    HW218789   2.855   3.694  10.132
 6153SOL     OW18790   3.328   4.314  10.302
 6153SOL    HW118791   3.298   4.219  10.309
 6153SOL    HW218792   3.401   4.330  10.368
 6154SOL     OW18793   2.389   3.980   9.638
 6154SOL    HW118794   2.416   3.921   9.563
 6154SOL    HW218795   2.389   4.075   9.607
 6155SOL     OW18796   2.777   3.813  10.712
 6155SOL    HW118797   2.802   3.793  10.617
 6155SOL    HW218798   2.849   3.869  10.754
 6156SOL     OW18799   3.136   4.110  10.572
 6156SOL    HW118800   3.157   4.184  10.636
 6156SOL    HW218801   3.047   4.127  10.529
 6157SOL     OW18802   2.428   4.261  10.175
 6157SOL    HW118803   2.440   4.327  10.101
 6157SOL    HW218804   2.474   4.295  10.258
 6158SOL     OW18805   2.875   3.829  11.080
 6158SOL    HW118806   2.881   3.914  11.028
 6158SOL    HW218807   2.907   3.753  11.023
 6159SOL     OW18808   2.366   3.774  11.050
 6159SOL    HW118809   2.324   3.717  10.980
 6159SOL    HW218810   2.300   3.843  11.082
 6160SOL     OW18811   2.169   3.937  10.541
 6160SOL    HW118812   2.146   3.974  10.631
 6160SOL    HW218813   2.139   3.842  10.535
 6161SOL     OW18814   2.594   4.358  10.374
 6161SOL    HW118815   2.653   4.332  10.298
 6161SOL    HW218816   2.566   4.454  10.363
 6162SOL     OW18817   2.169   3.787   9.928
 6162SOL    HW118818   2.158   3.881   9.961
 6162SOL    HW218819   2.164   3.724  10.005
 6163SOL     OW18820   3.484   4.091   9.684
 6163SOL    HW118821   3.486   4.015   9.748
 6163SOL    HW218822   3.436   4.168   9.724
 6164SOL     OW18823   3.402   3.998   9.435
 6164SOL    HW118824   3.341   3.923   9.458
 6164SOL    HW218825   3.424   4.050   9.518
 6165SOL     OW18826   2.201   4.233  10.316
 6165SOL    HW118827   2.149   4.150  10.299
 6165SOL    HW218828   2.278   4.238  10.252
 6166SOL     OW18829   3.000   4.104  10.988
 6166SOL    HW118830   2.955   4.167  11.052
 6166SOL    HW218831   3.093   4.135  10.971
 6167SOL     OW18832   3.022   3.931  10.787
 6167SOL    HW118833   3.022   3.995  10.864
 6167SOL    HW218834   3.050   3.979  10.704
 6168SOL     OW18835   1.902   4.268  10.424
 6168SOL    HW118836   1.987   4.235  10.383
 6168SOL    HW218837   1.915   4.283  10.522
 6169SOL     OW18838   2.051   4.244  11.032
 6169SOL    HW118839   2.110   4.204  10.962
 6169SOL    HW218840   1.993   4.315  10.991
 6170SOL     OW18841   2.677   4.296   9.635
 6170SOL    HW118842   2.684   4.207   9.589
 6170SOL    HW218843   2.583   4.330   9.627
 6171SOL     OW18844   3.519   4.328  10.516
 6171SOL    HW118845   3.481   4.259  10.578
 6171SOL    HW218846   3.601   4.292  10.472
 6172SOL     OW18847   2.533   4.188  10.579
 6172SOL    HW118848   2.499   4.099  10.549
 6172SOL    HW218849   2.559   4.242  10.499
 6173SOL     OW18850   3.588   3.859   9.833
 6173SOL    HW118851   3.661   3.842   9.766
 6173SOL    HW218852   3.557   3.772   9.871
 6174SOL     OW18853   3.703   3.899  10.273
 6174SOL    HW118854   3.742   3.814  10.237
 6174SOL    HW218855   3.605   3.901  10.254
 6175SOL     OW18856   2.125   4.050  10.030
 6175SOL    HW118857   2.046   4.101   9.996
 6175SOL    HW218858   2.116   4.035  10.128
 6176SOL     OW18859   2.876   3.960  10.281
 6176SOL    HW118860   2.868   3.924  10.188
 6176SOL    HW218861   2.874   3.884  10.346
 6177SOL     OW18862   3.571   4.109  10.691
 6177SOL    HW118863   3.644   4.178  10.695
 6177SOL    HW218864   3.599   4.034  10.632
 6178SOL     OW18865   2.534   3.927  10.799
 6178SOL    HW118866   2.624   3.911  10.759
 6178SOL    HW218867   2.542   3.932  10.898
 6179SOL     OW18868   1.937   4.069   9.343
 6179SOL    HW118869   1.845   4.041   9.314
 6179SOL    HW218870   1.968   4.146   9.287
 6180SOL     OW18871   1.934   3.890   9.628
 6180SOL    HW118872   1.917   3.973   9.574
 6180SOL    HW218873   2.024   3.853   9.606
 6181SOL     OW18874   2.578   4.289  11.018
 6181SOL    HW118875   2.597   4.354  11.092
 6181SOL    HW218876   2.638   4.209  11.027
 6182SOL     OW18877   3.087   4.049   9.759
 6182SOL    HW118878   3.152   3.975   9.748
 6182SOL    HW218879   3.107   4.099   9.843
 6183SOL     OW18880   3.639   4.066  10.952
 6183SOL    HW118881   3.622   4.097  10.858
 6183SOL    HW218882   3.555   4.029  10.990
 6184SOL     OW18883   3.686   3.916  10.537
 6184SOL    HW118884   3.682   3.826  10.581
 6184SOL    HW218885   3.689   3.905  10.438
 6185SOL     OW18886   2.290   4.148   9.830
 6185SOL    HW118887   2.320   4.076   9.768
 6185SOL    HW218888   2.251   4.108   9.913
 6186SOL     OW18889   2.179   4.271  10.590
 6186SOL    HW118890   2.217   4.212  10.662
 6186SOL    HW218891   2.219   4.245  10.502
 6187SOL     OW18892   3.286   3.938  10.422
 6187SOL    HW118893   3.338   3.873  10.477
 6187SOL    HW218894   3.237   4.001  10.483
 6188SOL     OW18895   2.863   3.758  10.464
 6188SOL    HW118896   2.800   3.686  10.433
 6188SOL    HW218897   2.956   3.722  10.464
 6189SOL     OW18898   3.214   3.776   9.478
 6189SOL    HW118899   3.249   3.735   9.394
 6189SOL    HW218900   3.124   3.738   9.498
 6190SOL     OW18901   3.162   4.177  10.001
 6190SOL    HW118902   3.103   4.257  10.005
 6190SOL    HW218903   3.177   4.142  10.094
 6191SOL     OW18904   3.455   3.945  10.192
 6191SOL    HW118905   3.371   3.944  10.246
 6191SOL    HW218906   3.457   4.028  10.136
 6192SOL     OW18907   2.087   3.999  12.168
 6192SOL    HW118908   2.122   3.982  12.260
 6192SOL    HW218909   1.999   3.954  12.156
 6193SOL     OW18910   1.881   4.092  11.819
 6193SOL    HW118911   1.799   4.135  11.858
 6193SOL    HW218912   1.853   4.019  11.756
 6194SOL     OW18913   3.617   4.331  11.403
 6194SOL    HW118914   3.605   4.318  11.304
 6194SOL    HW218915   3.587   4.250  11.452
 6195SOL     OW18916   3.465   4.171  11.909
 6195SOL    HW118917   3.391   4.217  11.859
 6195SOL    HW218918   3.516   4.239  11.962
 6196SOL     OW18919   1.984   4.367  11.735
 6196SOL    HW118920   1.939   4.279  11.752
 6196SOL    HW218921   1.983   4.421  11.819
 6197SOL     OW18922   2.671   3.728  11.674
 6197SOL    HW118923   2.711   3.819  11.665
 6197SOL    HW218924   2.571   3.736  11.680
 6198SOL     OW18925   3.143   4.069  12.116
 6198SOL    HW118926   3.057   4.019  12.103
 6198SOL    HW218927   3.205   4.015  12.172
 6199SOL     OW18928   2.727   4.072  11.367
 6199SOL    HW118929   2.786   4.135  11.318
 6199SOL    HW218930   2.746   3.978  11.338
 6200SOL     OW18931   3.320   4.459  11.900
 6200SOL    HW118932   3.315   4.394  11.975
 6200SOL    HW218933   3.400   4.518  11.913
 6201SOL     OW18934   3.262   3.831  11.598
 6201SOL    HW118935   3.238   3.794  11.508
 6201SOL    HW218936   3.361   3.847  11.602
 6202SOL     OW18937   2.476   3.846  11.289
 6202SOL    HW118938   2.574   3.824  11.296
 6202SOL    HW218939   2.445   3.829  11.196
 6203SOL     OW18940   2.401   3.788  11.684
 6203SOL    HW118941   2.320   3.789  11.742
 6203SOL    HW218942   2.404   3.871  11.629
 6204SOL     OW18943   2.159   3.759  11.343
 6204SOL    HW118944   2.208   3.843  11.322
 6204SOL    HW218945   2.221   3.694  11.388
 6205SOL     OW18946   2.797   3.960  11.652
 6205SOL    HW118947   2.749   4.001  11.574
 6205SOL    HW218948   2.896   3.958  11.633
 6206SOL     OW18949   2.879   3.763  11.925
 6206SOL    HW118950   2.807   3.768  11.856
 6206SOL    HW218951   2.855   3.694  11.994
 6207SOL     OW18952   2.389   3.980  11.500
 6207SOL    HW118953   2.416   3.921  11.425
 6207SOL    HW218954   2.389   4.075  11.469
 6208SOL     OW18955   2.428   4.261  12.037
 6208SOL    HW118956   2.440   4.327  11.963
 6208SOL    HW218957   2.474   4.295  12.120
 6209SOL     OW18958   2.169   3.787  11.790
 6209SOL    HW118959   2.158   3.881  11.823
 6209SOL    HW218960   2.164   3.724  11.867
 6210SOL     OW18961   3.484   4.091  11.546
 6210SOL    HW118962   3.486   4.015  11.610
 6210SOL    HW218963   3.436   4.168  11.586
 6211SOL     OW18964   3.402   3.998  11.297
 6211SOL    HW118965   3.341   3.923  11.320
 6211SOL    HW218966   3.424   4.050  11.380
 6212SOL     OW18967   2.677   4.296  11.497
 6212SOL    HW118968   2.684   4.207  11.451
 6212SOL    HW218969   2.583   4.330  11.489
 6213SOL     OW18970   3.588   3.859  11.695
 6213SOL    HW118971   3.661   3.842  11.628
 6213SOL    HW218972   3.557   3.772  11.733
 6214SOL     OW18973   3.703   3.899  12.135
 6214SOL    HW118974   3.742   3.814  12.099
 6214SOL    HW218975   3.605   3.901  12.116
 6215SOL     OW18976   2.125   4.050  11.892
 6215SOL    HW118977   2.046   4.101  11.858
 6215SOL    HW218978   2.116   4.035  11.990
 6216SOL     OW18979   1.937   4.069  11.205
 6216SOL    HW118980   1.845   4.041  11.176
 6216SOL    HW218981   1.968   4.146  11.149
 6217SOL     OW18982   1.934   3.890  11.490
 6217SOL    HW118983   1.917   3.973  11.436
 6217SOL    HW218984   2.024   3.853  11.468
 6218SOL     OW18985   3.087   4.049  11.621
 6218SOL    HW118986   3.152   3.975  11.610
 6218SOL    HW218987   3.107   4.099  11.705
 6219SOL     OW18988   2.290   4.148  11.692
 6219SOL    HW118989   2.320   4.076  11.630
 6219SOL    HW218990   2.251   4.108  11.775
 6220SOL     OW18991   3.214   3.776  11.340
 6220SOL    HW118992   3.249   3.735  11.256
 6220SOL    HW218993   3.124   3.738  11.360
 6221SOL     OW18994   3.162   4.177  11.863
 6221SOL    HW118995   3.103   4.257  11.867
 6221SOL    HW218996   3.177   4.142  11.956
 6222SOL     OW18997   3.954   0.628   0.113
 6222SOL    HW118998   3.861   0.626   0.150
 6222SOL    HW218999   3.955   0.589   0.021
 6223SOL     OW19000   3.949   0.275   0.996
 6223SOL    HW119001   3.984   0.258   1.088
 6223SOL    HW219002   3.861   0.230   0.984
 6224SOL     OW19003   3.743   0.368   0.647
 6224SOL    HW119004   3.661   0.411   0.686
 6224SOL    HW219005   3.715   0.295   0.584
 6225SOL     OW19006   4.409   1.012   0.665
 6225SOL    HW119007   4.478   0.996   0.735
 6225SOL    HW219008   4.336   1.069   0.703
 6226SOL     OW19009   4.059   1.435   1.061
 6226SOL    HW119010   3.981   1.404   1.008
 6226SOL    HW219011   4.117   1.493   1.004
 6227SOL     OW19012   4.162   0.392   1.499
 6227SOL    HW119013   4.244   0.336   1.508
 6227SOL    HW219014   4.081   0.334   1.503
 6228SOL     OW19015   3.955   1.713   0.483
 6228SOL    HW119016   3.989   1.790   0.537
 6228SOL    HW219017   3.999   1.713   0.393
 6229SOL     OW19018   3.954   1.434   0.538
 6229SOL    HW119019   3.928   1.530   0.538
 6229SOL    HW219020   3.883   1.380   0.583
 6230SOL     OW19021   3.964   1.091   0.886
 6230SOL    HW119022   3.978   1.007   0.938
 6230SOL    HW219023   3.909   1.155   0.941
 6231SOL     OW19024   3.846   0.643   0.563
 6231SOL    HW119025   3.801   0.555   0.580
 6231SOL    HW219026   3.845   0.697   0.647
 6232SOL     OW19027   3.751   1.596   0.117
 6232SOL    HW119028   3.732   1.500   0.138
 6232SOL    HW219029   3.718   1.654   0.192
 6233SOL     OW19030   3.837   0.737   1.597
 6233SOL    HW119031   3.925   0.724   1.642
 6233SOL    HW219032   3.824   0.834   1.575
 6234SOL     OW19033   3.921   0.976   1.264
 6234SOL    HW119034   4.010   0.931   1.250
 6234SOL    HW219035   3.848   0.911   1.245
 6235SOL     OW19036   4.041   0.251   1.801
 6235SOL    HW119037   4.112   0.322   1.807
 6235SOL    HW219038   3.953   0.290   1.829
 6236SOL     OW19039   4.322   0.729   0.270
 6236SOL    HW119040   4.346   0.798   0.202
 6236SOL    HW219041   4.244   0.762   0.324
 6237SOL     OW19042   3.800   0.811   0.789
 6237SOL    HW119043   3.899   0.799   0.798
 6237SOL    HW219044   3.776   0.906   0.810
 6238SOL     OW19045   3.854   1.821   1.571
 6238SOL    HW119046   3.844   1.806   1.670
 6238SOL    HW219047   3.768   1.857   1.535
 6239SOL     OW19048   4.075   1.801   0.853
 6239SOL    HW119049   4.125   1.715   0.859
 6239SOL    HW219050   4.140   1.878   0.850
 6240SOL     OW19051   4.045   0.943   0.242
 6240SOL    HW119052   4.127   0.982   0.200
 6240SOL    HW219053   4.018   0.861   0.193
 6241SOL     OW19054   4.185   1.266   1.727
 6241SOL    HW119055   4.135   1.267   1.641
 6241SOL    HW219056   4.122   1.248   1.803
 6242SOL     OW19057   3.926   0.285   1.498
 6242SOL    HW119058   3.846   0.345   1.485
 6242SOL    HW219059   3.916   0.236   1.584
 6243SOL     OW19060   3.973   1.785   1.241
 6243SOL    HW119061   4.030   1.720   1.291
 6243SOL    HW219062   3.957   1.752   1.148
 6244SOL     OW19063   4.106   0.700   0.480
 6244SOL    HW119064   4.151   0.610   0.477
 6244SOL    HW219065   4.012   0.689   0.513
 6245SOL     OW19066   4.263   0.064   0.512
 6245SOL    HW119067   4.182   0.065   0.570
 6245SOL    HW219068   4.266   0.147   0.457
 6246SOL     OW19069   4.021   0.035   0.171
 6246SOL    HW119070   4.070   0.119   0.150
 6246SOL    HW219071   4.083  -0.030   0.216
 6247SOL     OW19072   4.183   1.152   0.741
 6247SOL    HW119073   4.112   1.125   0.806
 6247SOL    HW219074   4.157   1.124   0.648
 6248SOL     OW19075   3.802   0.556   1.386
 6248SOL    HW119076   3.894   0.555   1.345
 6248SOL    HW219077   3.796   0.630   1.453
 6249SOL     OW19078   4.285   0.222   1.147
 6249SOL    HW119079   4.323   0.138   1.184
 6249SOL    HW219080   4.197   0.241   1.191
 6250SOL     OW19081   4.134   0.813   1.251
 6250SOL    HW119082   4.220   0.825   1.301
 6250SOL    HW219083   4.092   0.726   1.278
 6251SOL     OW19084   3.788   1.564   1.331
 6251SOL    HW119085   3.742   1.646   1.297
 6251SOL    HW219086   3.886   1.583   1.340
 6252SOL     OW19087   4.091   1.100   0.501
 6252SOL    HW119088   4.084   1.183   0.445
 6252SOL    HW219089   4.095   1.020   0.441
 6253SOL     OW19090   4.290   0.537   0.865
 6253SOL    HW119091   4.302   0.603   0.791
 6253SOL    HW219092   4.336   0.571   0.948
 6254SOL     OW19093   4.078   1.510   1.329
 6254SOL    HW119094   4.057   1.466   1.242
 6254SOL    HW219095   4.175   1.536   1.332
 6255SOL     OW19096   4.126   0.751   1.598
 6255SOL    HW119097   4.194   0.806   1.551
 6255SOL    HW219098   4.166   0.663   1.625
 6256SOL     OW19099   4.228   0.050   1.740
 6256SOL    HW119100   4.186  -0.007   1.670
 6256SOL    HW219101   4.162   0.119   1.772
 6257SOL     OW19102   4.297   0.870   1.029
 6257SOL    HW119103   4.341   0.959   1.020
 6257SOL    HW219104   4.234   0.870   1.106
 6258SOL     OW19105   4.031   0.213   1.231
 6258SOL    HW119106   4.008   0.250   1.321
 6258SOL    HW219107   4.001   0.118   1.225
 6259SOL     OW19108   3.761   1.310   1.282
 6259SOL    HW119109   3.814   1.261   1.350
 6259SOL    HW219110   3.783   1.408   1.287
 6260SOL     OW19111   4.031   0.063   0.618
 6260SOL    HW119112   4.020   0.157   0.651
 6260SOL    HW219113   4.026   0.000   0.695
 6261SOL     OW19114   4.074   0.898   1.804
 6261SOL    HW119115   4.150   0.942   1.852
 6261SOL    HW219116   4.109   0.851   1.722
 6262SOL     OW19117   4.043   0.810   0.949
 6262SOL    HW119118   4.136   0.846   0.954
 6262SOL    HW219119   4.037   0.725   1.001
 6263SOL     OW19120   4.063   0.509   1.006
 6263SOL    HW119121   4.011   0.426   0.989
 6263SOL    HW219122   4.140   0.514   0.942
 6264SOL     OW19123   3.732   1.326   0.200
 6264SOL    HW119124   3.639   1.347   0.169
 6264SOL    HW219125   3.742   1.227   0.213
 6265SOL     OW19126   3.812   1.801   0.927
 6265SOL    HW119127   3.770   1.715   0.900
 6265SOL    HW219128   3.906   1.804   0.893
 6266SOL     OW19129   3.764   0.544   1.114
 6266SOL    HW119130   3.849   0.511   1.073
 6266SOL    HW219131   3.777   0.559   1.212
 6267SOL     OW19132   3.913   0.520   1.722
 6267SOL    HW119133   3.972   0.480   1.652
 6267SOL    HW219134   3.855   0.591   1.681
 6268SOL     OW19135   4.539   0.572   0.325
 6268SOL    HW119136   4.546   0.483   0.279
 6268SOL    HW219137   4.445   0.606   0.317
 6269SOL     OW19138   3.976   1.564   1.744
 6269SOL    HW119139   3.946   1.621   1.820
 6269SOL    HW219140   3.969   1.467   1.770
 6270SOL     OW19141   4.197   0.500   0.191
 6270SOL    HW119142   4.258   0.580   0.195
 6270SOL    HW219143   4.102   0.531   0.198
 6271SOL     OW19144   3.883   1.137   1.466
 6271SOL    HW119145   3.905   1.076   1.542
 6271SOL    HW219146   3.893   1.088   1.380
 6272SOL     OW19147   3.807   1.258   1.022
 6272SOL    HW119148   3.802   1.257   1.122
 6272SOL    HW219149   3.724   1.217   0.984
 6273SOL     OW19150   3.854   1.794   1.851
 6273SOL    HW119151   3.813   1.720   1.904
 6273SOL    HW219152   3.918   1.845   1.909
 6274SOL     OW19153   3.987   0.326   0.720
 6274SOL    HW119154   3.908   0.377   0.686
 6274SOL    HW219155   3.978   0.311   0.818
 6275SOL     OW19156   4.096   1.288   1.490
 6275SOL    HW119157   4.083   1.381   1.456
 6275SOL    HW219158   4.012   1.236   1.477
 6276SOL     OW19159   4.314   1.487   0.491
 6276SOL    HW119160   4.356   1.429   0.421
 6276SOL    HW219161   4.270   1.566   0.447
 6277SOL     OW19162   3.979   1.348   0.290
 6277SOL    HW119163   3.883   1.349   0.263
 6277SOL    HW219164   3.991   1.401   0.374
 6278SOL     OW19165   3.829   1.013   1.726
 6278SOL    HW119166   3.752   0.980   1.780
 6278SOL    HW219167   3.914   0.983   1.768
 6279SOL     OW19168   3.799   0.345   0.033
 6279SOL    HW119169   3.707   0.317   0.004
 6279SOL    HW219170   3.830   0.422  -0.023
 6280SOL     OW19171   3.796   0.166   0.318
 6280SOL    HW119172   3.779   0.249   0.264
 6280SOL    HW219173   3.886   0.129   0.296
 6281SOL     OW19174   4.114   1.741   1.560
 6281SOL    HW119175   4.023   1.782   1.558
 6281SOL    HW219176   4.107   1.647   1.592
 6282SOL     OW19177   4.583   1.374   0.016
 6282SOL    HW119178   4.537   1.389   0.104
 6282SOL    HW219179   4.627   1.459  -0.014
 6283SOL     OW19180   3.945   1.314   1.844
 6283SOL    HW119181   3.880   1.241   1.823
 6283SOL    HW219182   3.949   1.328   1.942
 6284SOL     OW19183   3.803   1.240   0.653
 6284SOL    HW119184   3.802   1.193   0.741
 6284SOL    HW219185   3.885   1.212   0.602
 6285SOL     OW19186   4.396   1.391   1.624
 6285SOL    HW119187   4.318   1.341   1.662
 6285SOL    HW219188   4.393   1.486   1.655
 6286SOL     OW19189   4.152   0.424   0.520
 6286SOL    HW119190   4.182   0.352   0.458
 6286SOL    HW219191   4.113   0.384   0.603
 6287SOL     OW19192   4.041   0.547   1.280
 6287SOL    HW119193   4.079   0.488   1.352
 6287SOL    HW219194   4.081   0.521   1.192
 6288SOL     OW19195   3.763   1.077   0.300
 6288SOL    HW119196   3.862   1.066   0.291
 6288SOL    HW219197   3.723   0.991   0.332
 6289SOL     OW19198   3.954   0.628   1.975
 6289SOL    HW119199   3.861   0.626   2.012
 6289SOL    HW219200   3.955   0.589   1.883
 6290SOL     OW19201   3.949   0.275   2.858
 6290SOL    HW119202   3.984   0.258   2.950
 6290SOL    HW219203   3.861   0.230   2.846
 6291SOL     OW19204   3.743   0.368   2.509
 6291SOL    HW119205   3.661   0.411   2.548
 6291SOL    HW219206   3.715   0.295   2.446
 6292SOL     OW19207   4.409   1.012   2.527
 6292SOL    HW119208   4.478   0.996   2.597
 6292SOL    HW219209   4.336   1.069   2.565
 6293SOL     OW19210   4.059   1.435   2.923
 6293SOL    HW119211   3.981   1.404   2.870
 6293SOL    HW219212   4.117   1.493   2.866
 6294SOL     OW19213   4.162   0.392   3.361
 6294SOL    HW119214   4.244   0.336   3.370
 6294SOL    HW219215   4.081   0.334   3.365
 6295SOL     OW19216   3.955   1.713   2.345
 6295SOL    HW119217   3.989   1.790   2.399
 6295SOL    HW219218   3.999   1.713   2.255
 6296SOL     OW19219   3.954   1.434   2.400
 6296SOL    HW119220   3.928   1.530   2.400
 6296SOL    HW219221   3.883   1.380   2.445
 6297SOL     OW19222   3.964   1.091   2.748
 6297SOL    HW119223   3.978   1.007   2.800
 6297SOL    HW219224   3.909   1.155   2.803
 6298SOL     OW19225   3.846   0.643   2.425
 6298SOL    HW119226   3.801   0.555   2.442
 6298SOL    HW219227   3.845   0.697   2.509
 6299SOL     OW19228   3.751   1.596   1.979
 6299SOL    HW119229   3.732   1.500   2.000
 6299SOL    HW219230   3.718   1.654   2.054
 6300SOL     OW19231   3.837   0.737   3.459
 6300SOL    HW119232   3.925   0.724   3.504
 6300SOL    HW219233   3.824   0.834   3.437
 6301SOL     OW19234   3.921   0.976   3.126
 6301SOL    HW119235   4.010   0.931   3.112
 6301SOL    HW219236   3.848   0.911   3.107
 6302SOL     OW19237   4.041   0.251   3.663
 6302SOL    HW119238   4.112   0.322   3.669
 6302SOL    HW219239   3.953   0.290   3.691
 6303SOL     OW19240   4.322   0.729   2.132
 6303SOL    HW119241   4.346   0.798   2.064
 6303SOL    HW219242   4.244   0.762   2.186
 6304SOL     OW19243   3.800   0.811   2.651
 6304SOL    HW119244   3.899   0.799   2.660
 6304SOL    HW219245   3.776   0.906   2.672
 6305SOL     OW19246   3.854   1.821   3.433
 6305SOL    HW119247   3.844   1.806   3.532
 6305SOL    HW219248   3.768   1.857   3.397
 6306SOL     OW19249   4.589   0.348   2.057
 6306SOL    HW119250   4.648   0.411   2.008
 6306SOL    HW219251   4.608   0.254   2.028
 6307SOL     OW19252   4.075   1.801   2.715
 6307SOL    HW119253   4.125   1.715   2.721
 6307SOL    HW219254   4.140   1.878   2.712
 6308SOL     OW19255   4.045   0.943   2.104
 6308SOL    HW119256   4.127   0.982   2.062
 6308SOL    HW219257   4.018   0.861   2.055
 6309SOL     OW19258   4.185   1.266   3.589
 6309SOL    HW119259   4.135   1.267   3.503
 6309SOL    HW219260   4.122   1.248   3.665
 6310SOL     OW19261   3.926   0.285   3.360
 6310SOL    HW119262   3.846   0.345   3.347
 6310SOL    HW219263   3.916   0.236   3.446
 6311SOL     OW19264   3.973   1.785   3.103
 6311SOL    HW119265   4.030   1.720   3.153
 6311SOL    HW219266   3.957   1.752   3.010
 6312SOL     OW19267   4.106   0.700   2.342
 6312SOL    HW119268   4.151   0.610   2.339
 6312SOL    HW219269   4.012   0.689   2.375
 6313SOL     OW19270   4.338   0.122   1.979
 6313SOL    HW119271   4.436   0.100   1.986
 6313SOL    HW219272   4.307   0.105   1.886
 6314SOL     OW19273   4.263   0.064   2.374
 6314SOL    HW119274   4.182   0.065   2.432
 6314SOL    HW219275   4.266   0.147   2.319
 6315SOL     OW19276   4.021   0.035   2.033
 6315SOL    HW119277   4.070   0.119   2.012
 6315SOL    HW219278   4.083  -0.030   2.078
 6316SOL     OW19279   4.183   1.152   2.603
 6316SOL    HW119280   4.112   1.125   2.668
 6316SOL    HW219281   4.157   1.124   2.510
 6317SOL     OW19282   3.802   0.556   3.248
 6317SOL    HW119283   3.894   0.555   3.207
 6317SOL    HW219284   3.796   0.630   3.315
 6318SOL     OW19285   4.285   0.222   3.009
 6318SOL    HW119286   4.323   0.138   3.046
 6318SOL    HW219287   4.197   0.241   3.053
 6319SOL     OW19288   4.134   0.813   3.113
 6319SOL    HW119289   4.220   0.825   3.163
 6319SOL    HW219290   4.092   0.726   3.140
 6320SOL     OW19291   3.788   1.564   3.193
 6320SOL    HW119292   3.742   1.646   3.159
 6320SOL    HW219293   3.886   1.583   3.202
 6321SOL     OW19294   4.091   1.100   2.363
 6321SOL    HW119295   4.084   1.183   2.307
 6321SOL    HW219296   4.095   1.020   2.303
 6322SOL     OW19297   4.290   0.537   2.727
 6322SOL    HW119298   4.302   0.603   2.653
 6322SOL    HW219299   4.336   0.571   2.810
 6323SOL     OW19300   4.078   1.510   3.191
 6323SOL    HW119301   4.057   1.466   3.104
 6323SOL    HW219302   4.175   1.536   3.194
 6324SOL     OW19303   4.126   0.751   3.460
 6324SOL    HW119304   4.194   0.806   3.413
 6324SOL    HW219305   4.166   0.663   3.487
 6325SOL     OW19306   4.228   0.050   3.602
 6325SOL    HW119307   4.186  -0.007   3.532
 6325SOL    HW219308   4.162   0.119   3.634
 6326SOL     OW19309   4.297   0.870   2.891
 6326SOL    HW119310   4.341   0.959   2.882
 6326SOL    HW219311   4.234   0.870   2.968
 6327SOL     OW19312   4.031   0.213   3.093
 6327SOL    HW119313   4.008   0.250   3.183
 6327SOL    HW219314   4.001   0.118   3.087
 6328SOL     OW19315   3.761   1.310   3.144
 6328SOL    HW119316   3.814   1.261   3.212
 6328SOL    HW219317   3.783   1.408   3.149
 6329SOL     OW19318   4.031   0.063   2.480
 6329SOL    HW119319   4.020   0.157   2.513
 6329SOL    HW219320   4.026   0.000   2.557
 6330SOL     OW19321   4.074   0.898   3.666
 6330SOL    HW119322   4.150   0.942   3.714
 6330SOL    HW219323   4.109   0.851   3.584
 6331SOL     OW19324   4.043   0.810   2.811
 6331SOL    HW119325   4.136   0.846   2.816
 6331SOL    HW219326   4.037   0.725   2.863
 6332SOL     OW19327   4.063   0.509   2.868
 6332SOL    HW119328   4.011   0.426   2.851
 6332SOL    HW219329   4.140   0.514   2.804
 6333SOL     OW19330   3.732   1.326   2.062
 6333SOL    HW119331   3.639   1.347   2.031
 6333SOL    HW219332   3.742   1.227   2.075
 6334SOL     OW19333   3.812   1.801   2.789
 6334SOL    HW119334   3.770   1.715   2.762
 6334SOL    HW219335   3.906   1.804   2.755
 6335SOL     OW19336   3.764   0.544   2.976
 6335SOL    HW119337   3.849   0.511   2.935
 6335SOL    HW219338   3.777   0.559   3.074
 6336SOL     OW19339   3.913   0.520   3.584
 6336SOL    HW119340   3.972   0.480   3.514
 6336SOL    HW219341   3.855   0.591   3.543
 6337SOL     OW19342   4.539   0.572   2.187
 6337SOL    HW119343   4.546   0.483   2.141
 6337SOL    HW219344   4.445   0.606   2.179
 6338SOL     OW19345   3.976   1.564   3.606
 6338SOL    HW119346   3.946   1.621   3.682
 6338SOL    HW219347   3.969   1.467   3.632
 6339SOL     OW19348   4.197   0.500   2.053
 6339SOL    HW119349   4.258   0.580   2.057
 6339SOL    HW219350   4.102   0.531   2.060
 6340SOL     OW19351   3.883   1.137   3.328
 6340SOL    HW119352   3.905   1.076   3.404
 6340SOL    HW219353   3.893   1.088   3.242
 6341SOL     OW19354   3.807   1.258   2.884
 6341SOL    HW119355   3.802   1.257   2.984
 6341SOL    HW219356   3.724   1.217   2.846
 6342SOL     OW19357   3.854   1.794   3.713
 6342SOL    HW119358   3.813   1.720   3.766
 6342SOL    HW219359   3.918   1.845   3.771
 6343SOL     OW19360   3.987   0.326   2.582
 6343SOL    HW119361   3.908   0.377   2.548
 6343SOL    HW219362   3.978   0.311   2.680
 6344SOL     OW19363   4.096   1.288   3.352
 6344SOL    HW119364   4.083   1.381   3.318
 6344SOL    HW219365   4.012   1.236   3.339
 6345SOL     OW19366   4.314   1.487   2.353
 6345SOL    HW119367   4.356   1.429   2.283
 6345SOL    HW219368   4.270   1.566   2.309
 6346SOL     OW19369   3.979   1.348   2.152
 6346SOL    HW119370   3.883   1.349   2.125
 6346SOL    HW219371   3.991   1.401   2.236
 6347SOL     OW19372   3.829   1.013   3.588
 6347SOL    HW119373   3.752   0.980   3.642
 6347SOL    HW219374   3.914   0.983   3.630
 6348SOL     OW19375   3.799   0.345   1.895
 6348SOL    HW119376   3.707   0.317   1.866
 6348SOL    HW219377   3.830   0.422   1.839
 6349SOL     OW19378   3.796   0.166   2.180
 6349SOL    HW119379   3.779   0.249   2.126
 6349SOL    HW219380   3.886   0.129   2.158
 6350SOL     OW19381   4.114   1.741   3.422
 6350SOL    HW119382   4.023   1.782   3.420
 6350SOL    HW219383   4.107   1.647   3.454
 6351SOL     OW19384   3.945   1.314   3.706
 6351SOL    HW119385   3.880   1.241   3.685
 6351SOL    HW219386   3.949   1.328   3.804
 6352SOL     OW19387   3.803   1.240   2.515
 6352SOL    HW119388   3.802   1.193   2.603
 6352SOL    HW219389   3.885   1.212   2.464
 6353SOL     OW19390   4.396   1.391   3.486
 6353SOL    HW119391   4.318   1.341   3.524
 6353SOL    HW219392   4.393   1.486   3.517
 6354SOL     OW19393   4.152   0.424   2.382
 6354SOL    HW119394   4.182   0.352   2.320
 6354SOL    HW219395   4.113   0.384   2.465
 6355SOL     OW19396   4.041   0.547   3.142
 6355SOL    HW119397   4.079   0.488   3.214
 6355SOL    HW219398   4.081   0.521   3.054
 6356SOL     OW19399   3.763   1.077   2.162
 6356SOL    HW119400   3.862   1.066   2.153
 6356SOL    HW219401   3.723   0.991   2.194
 6357SOL     OW19402   3.954   0.628   3.837
 6357SOL    HW119403   3.861   0.626   3.874
 6357SOL    HW219404   3.955   0.589   3.745
 6358SOL     OW19405   3.949   0.275   4.720
 6358SOL    HW119406   3.984   0.258   4.812
 6358SOL    HW219407   3.861   0.230   4.708
 6359SOL     OW19408   3.743   0.368   4.371
 6359SOL    HW119409   3.661   0.411   4.410
 6359SOL    HW219410   3.715   0.295   4.308
 6360SOL     OW19411   4.409   1.012   4.389
 6360SOL    HW119412   4.478   0.996   4.459
 6360SOL    HW219413   4.336   1.069   4.427
 6361SOL     OW19414   4.059   1.435   4.785
 6361SOL    HW119415   3.981   1.404   4.732
 6361SOL    HW219416   4.117   1.493   4.728
 6362SOL     OW19417   4.162   0.392   5.223
 6362SOL    HW119418   4.244   0.336   5.232
 6362SOL    HW219419   4.081   0.334   5.227
 6363SOL     OW19420   3.955   1.713   4.207
 6363SOL    HW119421   3.989   1.790   4.261
 6363SOL    HW219422   3.999   1.713   4.117
 6364SOL     OW19423   3.954   1.434   4.262
 6364SOL    HW119424   3.928   1.530   4.262
 6364SOL    HW219425   3.883   1.380   4.307
 6365SOL     OW19426   3.964   1.091   4.610
 6365SOL    HW119427   3.978   1.007   4.662
 6365SOL    HW219428   3.909   1.155   4.665
 6366SOL     OW19429   3.846   0.643   4.287
 6366SOL    HW119430   3.801   0.555   4.304
 6366SOL    HW219431   3.845   0.697   4.371
 6367SOL     OW19432   3.751   1.596   3.841
 6367SOL    HW119433   3.732   1.500   3.862
 6367SOL    HW219434   3.718   1.654   3.916
 6368SOL     OW19435   3.837   0.737   5.321
 6368SOL    HW119436   3.925   0.724   5.366
 6368SOL    HW219437   3.824   0.834   5.299
 6369SOL     OW19438   3.921   0.976   4.988
 6369SOL    HW119439   4.010   0.931   4.974
 6369SOL    HW219440   3.848   0.911   4.969
 6370SOL     OW19441   4.041   0.251   5.525
 6370SOL    HW119442   4.112   0.322   5.531
 6370SOL    HW219443   3.953   0.290   5.553
 6371SOL     OW19444   4.322   0.729   3.994
 6371SOL    HW119445   4.346   0.798   3.926
 6371SOL    HW219446   4.244   0.762   4.048
 6372SOL     OW19447   3.800   0.811   4.513
 6372SOL    HW119448   3.899   0.799   4.522
 6372SOL    HW219449   3.776   0.906   4.534
 6373SOL     OW19450   3.854   1.821   5.295
 6373SOL    HW119451   3.844   1.806   5.394
 6373SOL    HW219452   3.768   1.857   5.259
 6374SOL     OW19453   4.589   0.348   3.919
 6374SOL    HW119454   4.648   0.411   3.870
 6374SOL    HW219455   4.608   0.254   3.890
 6375SOL     OW19456   4.075   1.801   4.577
 6375SOL    HW119457   4.125   1.715   4.583
 6375SOL    HW219458   4.140   1.878   4.574
 6376SOL     OW19459   4.045   0.943   3.966
 6376SOL    HW119460   4.127   0.982   3.924
 6376SOL    HW219461   4.018   0.861   3.917
 6377SOL     OW19462   4.185   1.266   5.451
 6377SOL    HW119463   4.135   1.267   5.365
 6377SOL    HW219464   4.122   1.248   5.527
 6378SOL     OW19465   3.926   0.285   5.222
 6378SOL    HW119466   3.846   0.345   5.209
 6378SOL    HW219467   3.916   0.236   5.308
 6379SOL     OW19468   3.973   1.785   4.965
 6379SOL    HW119469   4.030   1.720   5.015
 6379SOL    HW219470   3.957   1.752   4.872
 6380SOL     OW19471   4.106   0.700   4.204
 6380SOL    HW119472   4.151   0.610   4.201
 6380SOL    HW219473   4.012   0.689   4.237
 6381SOL     OW19474   4.338   0.122   3.841
 6381SOL    HW119475   4.436   0.100   3.848
 6381SOL    HW219476   4.307   0.105   3.748
 6382SOL     OW19477   4.263   0.064   4.236
 6382SOL    HW119478   4.182   0.065   4.294
 6382SOL    HW219479   4.266   0.147   4.181
 6383SOL     OW19480   4.021   0.035   3.895
 6383SOL    HW119481   4.070   0.119   3.874
 6383SOL    HW219482   4.083  -0.030   3.940
 6384SOL     OW19483   4.183   1.152   4.465
 6384SOL    HW119484   4.112   1.125   4.530
 6384SOL    HW219485   4.157   1.124   4.372
 6385SOL     OW19486   3.802   0.556   5.110
 6385SOL    HW119487   3.894   0.555   5.069
 6385SOL    HW219488   3.796   0.630   5.177
 6386SOL     OW19489   4.285   0.222   4.871
 6386SOL    HW119490   4.323   0.138   4.908
 6386SOL    HW219491   4.197   0.241   4.915
 6387SOL     OW19492   4.134   0.813   4.975
 6387SOL    HW119493   4.220   0.825   5.025
 6387SOL    HW219494   4.092   0.726   5.002
 6388SOL     OW19495   3.788   1.564   5.055
 6388SOL    HW119496   3.742   1.646   5.021
 6388SOL    HW219497   3.886   1.583   5.064
 6389SOL     OW19498   4.091   1.100   4.225
 6389SOL    HW119499   4.084   1.183   4.169
 6389SOL    HW219500   4.095   1.020   4.165
 6390SOL     OW19501   4.290   0.537   4.589
 6390SOL    HW119502   4.302   0.603   4.515
 6390SOL    HW219503   4.336   0.571   4.672
 6391SOL     OW19504   4.078   1.510   5.053
 6391SOL    HW119505   4.057   1.466   4.966
 6391SOL    HW219506   4.175   1.536   5.056
 6392SOL     OW19507   4.126   0.751   5.322
 6392SOL    HW119508   4.194   0.806   5.275
 6392SOL    HW219509   4.166   0.663   5.349
 6393SOL     OW19510   4.228   0.050   5.464
 6393SOL    HW119511   4.186  -0.007   5.394
 6393SOL    HW219512   4.162   0.119   5.496
 6394SOL     OW19513   4.297   0.870   4.753
 6394SOL    HW119514   4.341   0.959   4.744
 6394SOL    HW219515   4.234   0.870   4.830
 6395SOL     OW19516   4.031   0.213   4.955
 6395SOL    HW119517   4.008   0.250   5.045
 6395SOL    HW219518   4.001   0.118   4.949
 6396SOL     OW19519   3.761   1.310   5.006
 6396SOL    HW119520   3.814   1.261   5.074
 6396SOL    HW219521   3.783   1.408   5.011
 6397SOL     OW19522   4.031   0.063   4.342
 6397SOL    HW119523   4.020   0.157   4.375
 6397SOL    HW219524   4.026   0.000   4.419
 6398SOL     OW19525   4.074   0.898   5.528
 6398SOL    HW119526   4.150   0.942   5.576
 6398SOL    HW219527   4.109   0.851   5.446
 6399SOL     OW19528   4.043   0.810   4.673
 6399SOL    HW119529   4.136   0.846   4.678
 6399SOL    HW219530   4.037   0.725   4.725
 6400SOL     OW19531   4.063   0.509   4.730
 6400SOL    HW119532   4.011   0.426   4.713
 6400SOL    HW219533   4.140   0.514   4.666
 6401SOL     OW19534   3.732   1.326   3.924
 6401SOL    HW119535   3.639   1.347   3.893
 6401SOL    HW219536   3.742   1.227   3.937
 6402SOL     OW19537   3.812   1.801   4.651
 6402SOL    HW119538   3.770   1.715   4.624
 6402SOL    HW219539   3.906   1.804   4.617
 6403SOL     OW19540   3.764   0.544   4.838
 6403SOL    HW119541   3.849   0.511   4.797
 6403SOL    HW219542   3.777   0.559   4.936
 6404SOL     OW19543   3.913   0.520   5.446
 6404SOL    HW119544   3.972   0.480   5.376
 6404SOL    HW219545   3.855   0.591   5.405
 6405SOL     OW19546   4.539   0.572   4.049
 6405SOL    HW119547   4.546   0.483   4.003
 6405SOL    HW219548   4.445   0.606   4.041
 6406SOL     OW19549   3.976   1.564   5.468
 6406SOL    HW119550   3.946   1.621   5.544
 6406SOL    HW219551   3.969   1.467   5.494
 6407SOL     OW19552   4.197   0.500   3.915
 6407SOL    HW119553   4.258   0.580   3.919
 6407SOL    HW219554   4.102   0.531   3.922
 6408SOL     OW19555   3.883   1.137   5.190
 6408SOL    HW119556   3.905   1.076   5.266
 6408SOL    HW219557   3.893   1.088   5.104
 6409SOL     OW19558   3.807   1.258   4.746
 6409SOL    HW119559   3.802   1.257   4.846
 6409SOL    HW219560   3.724   1.217   4.708
 6410SOL     OW19561   3.854   1.794   5.575
 6410SOL    HW119562   3.813   1.720   5.628
 6410SOL    HW219563   3.918   1.845   5.633
 6411SOL     OW19564   3.987   0.326   4.444
 6411SOL    HW119565   3.908   0.377   4.410
 6411SOL    HW219566   3.978   0.311   4.542
 6412SOL     OW19567   4.096   1.288   5.214
 6412SOL    HW119568   4.083   1.381   5.180
 6412SOL    HW219569   4.012   1.236   5.201
 6413SOL     OW19570   4.314   1.487   4.215
 6413SOL    HW119571   4.356   1.429   4.145
 6413SOL    HW219572   4.270   1.566   4.171
 6414SOL     OW19573   3.979   1.348   4.014
 6414SOL    HW119574   3.883   1.349   3.987
 6414SOL    HW219575   3.991   1.401   4.098
 6415SOL     OW19576   3.829   1.013   5.450
 6415SOL    HW119577   3.752   0.980   5.504
 6415SOL    HW219578   3.914   0.983   5.492
 6416SOL     OW19579   3.799   0.345   3.757
 6416SOL    HW119580   3.707   0.317   3.728
 6416SOL    HW219581   3.830   0.422   3.701
 6417SOL     OW19582   3.796   0.166   4.042
 6417SOL    HW119583   3.779   0.249   3.988
 6417SOL    HW219584   3.886   0.129   4.020
 6418SOL     OW19585   4.114   1.741   5.284
 6418SOL    HW119586   4.023   1.782   5.282
 6418SOL    HW219587   4.107   1.647   5.316
 6419SOL     OW19588   3.945   1.314   5.568
 6419SOL    HW119589   3.880   1.241   5.547
 6419SOL    HW219590   3.949   1.328   5.666
 6420SOL     OW19591   3.803   1.240   4.377
 6420SOL    HW119592   3.802   1.193   4.465
 6420SOL    HW219593   3.885   1.212   4.326
 6421SOL     OW19594   4.396   1.391   5.348
 6421SOL    HW119595   4.318   1.341   5.386
 6421SOL    HW219596   4.393   1.486   5.379
 6422SOL     OW19597   4.152   0.424   4.244
 6422SOL    HW119598   4.182   0.352   4.182
 6422SOL    HW219599   4.113   0.384   4.327
 6423SOL     OW19600   4.041   0.547   5.004
 6423SOL    HW119601   4.079   0.488   5.076
 6423SOL    HW219602   4.081   0.521   4.916
 6424SOL     OW19603   3.763   1.077   4.024
 6424SOL    HW119604   3.862   1.066   4.015
 6424SOL    HW219605   3.723   0.991   4.056
 6425SOL     OW19606   3.954   0.628   5.699
 6425SOL    HW119607   3.861   0.626   5.736
 6425SOL    HW219608   3.955   0.589   5.607
 6426SOL     OW19609   3.949   0.275   6.582
 6426SOL    HW119610   3.984   0.258   6.674
 6426SOL    HW219611   3.861   0.230   6.570
 6427SOL     OW19612   3.743   0.368   6.233
 6427SOL    HW119613   3.661   0.411   6.272
 6427SOL    HW219614   3.715   0.295   6.170
 6428SOL     OW19615   4.409   1.012   6.251
 6428SOL    HW119616   4.478   0.996   6.321
 6428SOL    HW219617   4.336   1.069   6.289
 6429SOL     OW19618   4.059   1.435   6.647
 6429SOL    HW119619   3.981   1.404   6.594
 6429SOL    HW219620   4.117   1.493   6.590
 6430SOL     OW19621   4.162   0.392   7.085
 6430SOL    HW119622   4.244   0.336   7.094
 6430SOL    HW219623   4.081   0.334   7.089
 6431SOL     OW19624   3.955   1.713   6.069
 6431SOL    HW119625   3.989   1.790   6.123
 6431SOL    HW219626   3.999   1.713   5.979
 6432SOL     OW19627   3.954   1.434   6.124
 6432SOL    HW119628   3.928   1.530   6.124
 6432SOL    HW219629   3.883   1.380   6.169
 6433SOL     OW19630   3.964   1.091   6.472
 6433SOL    HW119631   3.978   1.007   6.524
 6433SOL    HW219632   3.909   1.155   6.527
 6434SOL     OW19633   3.846   0.643   6.149
 6434SOL    HW119634   3.801   0.555   6.166
 6434SOL    HW219635   3.845   0.697   6.233
 6435SOL     OW19636   3.751   1.596   5.703
 6435SOL    HW119637   3.732   1.500   5.724
 6435SOL    HW219638   3.718   1.654   5.778
 6436SOL     OW19639   3.837   0.737   7.183
 6436SOL    HW119640   3.925   0.724   7.228
 6436SOL    HW219641   3.824   0.834   7.161
 6437SOL     OW19642   3.921   0.976   6.850
 6437SOL    HW119643   4.010   0.931   6.836
 6437SOL    HW219644   3.848   0.911   6.831
 6438SOL     OW19645   4.041   0.251   7.387
 6438SOL    HW119646   4.112   0.322   7.393
 6438SOL    HW219647   3.953   0.290   7.415
 6439SOL     OW19648   4.322   0.729   5.856
 6439SOL    HW119649   4.346   0.798   5.788
 6439SOL    HW219650   4.244   0.762   5.910
 6440SOL     OW19651   3.800   0.811   6.375
 6440SOL    HW119652   3.899   0.799   6.384
 6440SOL    HW219653   3.776   0.906   6.396
 6441SOL     OW19654   3.854   1.821   7.157
 6441SOL    HW119655   3.844   1.806   7.256
 6441SOL    HW219656   3.768   1.857   7.121
 6442SOL     OW19657   4.589   0.348   5.781
 6442SOL    HW119658   4.648   0.411   5.732
 6442SOL    HW219659   4.608   0.254   5.752
 6443SOL     OW19660   4.075   1.801   6.439
 6443SOL    HW119661   4.125   1.715   6.445
 6443SOL    HW219662   4.140   1.878   6.436
 6444SOL     OW19663   4.045   0.943   5.828
 6444SOL    HW119664   4.127   0.982   5.786
 6444SOL    HW219665   4.018   0.861   5.779
 6445SOL     OW19666   4.185   1.266   7.313
 6445SOL    HW119667   4.135   1.267   7.227
 6445SOL    HW219668   4.122   1.248   7.389
 6446SOL     OW19669   3.926   0.285   7.084
 6446SOL    HW119670   3.846   0.345   7.071
 6446SOL    HW219671   3.916   0.236   7.170
 6447SOL     OW19672   3.973   1.785   6.827
 6447SOL    HW119673   4.030   1.720   6.877
 6447SOL    HW219674   3.957   1.752   6.734
 6448SOL     OW19675   4.106   0.700   6.066
 6448SOL    HW119676   4.151   0.610   6.063
 6448SOL    HW219677   4.012   0.689   6.099
 6449SOL     OW19678   4.338   0.122   5.703
 6449SOL    HW119679   4.436   0.100   5.710
 6449SOL    HW219680   4.307   0.105   5.610
 6450SOL     OW19681   4.263   0.064   6.098
 6450SOL    HW119682   4.182   0.065   6.156
 6450SOL    HW219683   4.266   0.147   6.043
 6451SOL     OW19684   4.021   0.035   5.757
 6451SOL    HW119685   4.070   0.119   5.736
 6451SOL    HW219686   4.083  -0.030   5.802
 6452SOL     OW19687   4.183   1.152   6.327
 6452SOL    HW119688   4.112   1.125   6.392
 6452SOL    HW219689   4.157   1.124   6.234
 6453SOL     OW19690   3.802   0.556   6.972
 6453SOL    HW119691   3.894   0.555   6.931
 6453SOL    HW219692   3.796   0.630   7.039
 6454SOL     OW19693   4.285   0.222   6.733
 6454SOL    HW119694   4.323   0.138   6.770
 6454SOL    HW219695   4.197   0.241   6.777
 6455SOL     OW19696   4.134   0.813   6.837
 6455SOL    HW119697   4.220   0.825   6.887
 6455SOL    HW219698   4.092   0.726   6.864
 6456SOL     OW19699   3.788   1.564   6.917
 6456SOL    HW119700   3.742   1.646   6.883
 6456SOL    HW219701   3.886   1.583   6.926
 6457SOL     OW19702   4.091   1.100   6.087
 6457SOL    HW119703   4.084   1.183   6.031
 6457SOL    HW219704   4.095   1.020   6.027
 6458SOL     OW19705   4.290   0.537   6.451
 6458SOL    HW119706   4.302   0.603   6.377
 6458SOL    HW219707   4.336   0.571   6.534
 6459SOL     OW19708   4.078   1.510   6.915
 6459SOL    HW119709   4.057   1.466   6.828
 6459SOL    HW219710   4.175   1.536   6.918
 6460SOL     OW19711   4.126   0.751   7.184
 6460SOL    HW119712   4.194   0.806   7.137
 6460SOL    HW219713   4.166   0.663   7.211
 6461SOL     OW19714   4.228   0.050   7.326
 6461SOL    HW119715   4.186  -0.007   7.256
 6461SOL    HW219716   4.162   0.119   7.358
 6462SOL     OW19717   4.297   0.870   6.615
 6462SOL    HW119718   4.341   0.959   6.606
 6462SOL    HW219719   4.234   0.870   6.692
 6463SOL     OW19720   4.031   0.213   6.817
 6463SOL    HW119721   4.008   0.250   6.907
 6463SOL    HW219722   4.001   0.118   6.811
 6464SOL     OW19723   3.761   1.310   6.868
 6464SOL    HW119724   3.814   1.261   6.936
 6464SOL    HW219725   3.783   1.408   6.873
 6465SOL     OW19726   4.031   0.063   6.204
 6465SOL    HW119727   4.020   0.157   6.237
 6465SOL    HW219728   4.026   0.000   6.281
 6466SOL     OW19729   4.074   0.898   7.390
 6466SOL    HW119730   4.150   0.942   7.438
 6466SOL    HW219731   4.109   0.851   7.308
 6467SOL     OW19732   4.043   0.810   6.535
 6467SOL    HW119733   4.136   0.846   6.540
 6467SOL    HW219734   4.037   0.725   6.587
 6468SOL     OW19735   4.063   0.509   6.592
 6468SOL    HW119736   4.011   0.426   6.575
 6468SOL    HW219737   4.140   0.514   6.528
 6469SOL     OW19738   3.732   1.326   5.786
 6469SOL    HW119739   3.639   1.347   5.755
 6469SOL    HW219740   3.742   1.227   5.799
 6470SOL     OW19741   3.812   1.801   6.513
 6470SOL    HW119742   3.770   1.715   6.486
 6470SOL    HW219743   3.906   1.804   6.479
 6471SOL     OW19744   3.764   0.544   6.700
 6471SOL    HW119745   3.849   0.511   6.659
 6471SOL    HW219746   3.777   0.559   6.798
 6472SOL     OW19747   3.913   0.520   7.308
 6472SOL    HW119748   3.972   0.480   7.238
 6472SOL    HW219749   3.855   0.591   7.267
 6473SOL     OW19750   4.539   0.572   5.911
 6473SOL    HW119751   4.546   0.483   5.865
 6473SOL    HW219752   4.445   0.606   5.903
 6474SOL     OW19753   3.976   1.564   7.330
 6474SOL    HW119754   3.946   1.621   7.406
 6474SOL    HW219755   3.969   1.467   7.356
 6475SOL     OW19756   4.197   0.500   5.777
 6475SOL    HW119757   4.258   0.580   5.781
 6475SOL    HW219758   4.102   0.531   5.784
 6476SOL     OW19759   3.883   1.137   7.052
 6476SOL    HW119760   3.905   1.076   7.128
 6476SOL    HW219761   3.893   1.088   6.966
 6477SOL     OW19762   3.807   1.258   6.608
 6477SOL    HW119763   3.802   1.257   6.708
 6477SOL    HW219764   3.724   1.217   6.570
 6478SOL     OW19765   3.854   1.794   7.437
 6478SOL    HW119766   3.813   1.720   7.490
 6478SOL    HW219767   3.918   1.845   7.495
 6479SOL     OW19768   3.987   0.326   6.306
 6479SOL    HW119769   3.908   0.377   6.272
 6479SOL    HW219770   3.978   0.311   6.404
 6480SOL     OW19771   4.096   1.288   7.076
 6480SOL    HW119772   4.083   1.381   7.042
 6480SOL    HW219773   4.012   1.236   7.063
 6481SOL     OW19774   4.314   1.487   6.077
 6481SOL    HW119775   4.356   1.429   6.007
 6481SOL    HW219776   4.270   1.566   6.033
 6482SOL     OW19777   3.979   1.348   5.876
 6482SOL    HW119778   3.883   1.349   5.849
 6482SOL    HW219779   3.991   1.401   5.960
 6483SOL     OW19780   3.829   1.013   7.312
 6483SOL    HW119781   3.752   0.980   7.366
 6483SOL    HW219782   3.914   0.983   7.354
 6484SOL     OW19783   3.799   0.345   5.619
 6484SOL    HW119784   3.707   0.317   5.590
 6484SOL    HW219785   3.830   0.422   5.563
 6485SOL     OW19786   3.796   0.166   5.904
 6485SOL    HW119787   3.779   0.249   5.850
 6485SOL    HW219788   3.886   0.129   5.882
 6486SOL     OW19789   4.114   1.741   7.146
 6486SOL    HW119790   4.023   1.782   7.144
 6486SOL    HW219791   4.107   1.647   7.178
 6487SOL     OW19792   3.945   1.314   7.430
 6487SOL    HW119793   3.880   1.241   7.409
 6487SOL    HW219794   3.949   1.328   7.528
 6488SOL     OW19795   3.803   1.240   6.239
 6488SOL    HW119796   3.802   1.193   6.327
 6488SOL    HW219797   3.885   1.212   6.188
 6489SOL     OW19798   4.396   1.391   7.210
 6489SOL    HW119799   4.318   1.341   7.248
 6489SOL    HW219800   4.393   1.486   7.241
 6490SOL     OW19801   4.152   0.424   6.106
 6490SOL    HW119802   4.182   0.352   6.044
 6490SOL    HW219803   4.113   0.384   6.189
 6491SOL     OW19804   4.041   0.547   6.866
 6491SOL    HW119805   4.079   0.488   6.938
 6491SOL    HW219806   4.081   0.521   6.778
 6492SOL     OW19807   3.763   1.077   5.886
 6492SOL    HW119808   3.862   1.066   5.877
 6492SOL    HW219809   3.723   0.991   5.918
 6493SOL     OW19810   3.954   0.628   7.561
 6493SOL    HW119811   3.861   0.626   7.598
 6493SOL    HW219812   3.955   0.589   7.469
 6494SOL     OW19813   3.949   0.275   8.444
 6494SOL    HW119814   3.984   0.258   8.536
 6494SOL    HW219815   3.861   0.230   8.432
 6495SOL     OW19816   3.743   0.368   8.095
 6495SOL    HW119817   3.661   0.411   8.134
 6495SOL    HW219818   3.715   0.295   8.032
 6496SOL     OW19819   4.409   1.012   8.113
 6496SOL    HW119820   4.478   0.996   8.183
 6496SOL    HW219821   4.336   1.069   8.151
 6497SOL     OW19822   4.059   1.435   8.509
 6497SOL    HW119823   3.981   1.404   8.456
 6497SOL    HW219824   4.117   1.493   8.452
 6498SOL     OW19825   4.162   0.392   8.947
 6498SOL    HW119826   4.244   0.336   8.956
 6498SOL    HW219827   4.081   0.334   8.951
 6499SOL     OW19828   3.955   1.713   7.931
 6499SOL    HW119829   3.989   1.790   7.985
 6499SOL    HW219830   3.999   1.713   7.841
 6500SOL     OW19831   3.954   1.434   7.986
 6500SOL    HW119832   3.928   1.530   7.986
 6500SOL    HW219833   3.883   1.380   8.031
 6501SOL     OW19834   3.964   1.091   8.334
 6501SOL    HW119835   3.978   1.007   8.386
 6501SOL    HW219836   3.909   1.155   8.389
 6502SOL     OW19837   3.846   0.643   8.011
 6502SOL    HW119838   3.801   0.555   8.028
 6502SOL    HW219839   3.845   0.697   8.095
 6503SOL     OW19840   3.751   1.596   7.565
 6503SOL    HW119841   3.732   1.500   7.586
 6503SOL    HW219842   3.718   1.654   7.640
 6504SOL     OW19843   3.837   0.737   9.045
 6504SOL    HW119844   3.925   0.724   9.090
 6504SOL    HW219845   3.824   0.834   9.023
 6505SOL     OW19846   3.921   0.976   8.712
 6505SOL    HW119847   4.010   0.931   8.698
 6505SOL    HW219848   3.848   0.911   8.693
 6506SOL     OW19849   4.041   0.251   9.249
 6506SOL    HW119850   4.112   0.322   9.255
 6506SOL    HW219851   3.953   0.290   9.277
 6507SOL     OW19852   4.322   0.729   7.718
 6507SOL    HW119853   4.346   0.798   7.650
 6507SOL    HW219854   4.244   0.762   7.772
 6508SOL     OW19855   3.800   0.811   8.237
 6508SOL    HW119856   3.899   0.799   8.246
 6508SOL    HW219857   3.776   0.906   8.258
 6509SOL     OW19858   3.854   1.821   9.019
 6509SOL    HW119859   3.844   1.806   9.118
 6509SOL    HW219860   3.768   1.857   8.983
 6510SOL     OW19861   4.589   0.348   7.643
 6510SOL    HW119862   4.648   0.411   7.594
 6510SOL    HW219863   4.608   0.254   7.614
 6511SOL     OW19864   4.075   1.801   8.301
 6511SOL    HW119865   4.125   1.715   8.307
 6511SOL    HW219866   4.140   1.878   8.298
 6512SOL     OW19867   4.045   0.943   7.690
 6512SOL    HW119868   4.127   0.982   7.648
 6512SOL    HW219869   4.018   0.861   7.641
 6513SOL     OW19870   4.185   1.266   9.175
 6513SOL    HW119871   4.135   1.267   9.089
 6513SOL    HW219872   4.122   1.248   9.251
 6514SOL     OW19873   3.926   0.285   8.946
 6514SOL    HW119874   3.846   0.345   8.933
 6514SOL    HW219875   3.916   0.236   9.032
 6515SOL     OW19876   3.973   1.785   8.689
 6515SOL    HW119877   4.030   1.720   8.739
 6515SOL    HW219878   3.957   1.752   8.596
 6516SOL     OW19879   4.106   0.700   7.928
 6516SOL    HW119880   4.151   0.610   7.925
 6516SOL    HW219881   4.012   0.689   7.961
 6517SOL     OW19882   4.338   0.122   7.565
 6517SOL    HW119883   4.436   0.100   7.572
 6517SOL    HW219884   4.307   0.105   7.472
 6518SOL     OW19885   4.263   0.064   7.960
 6518SOL    HW119886   4.182   0.065   8.018
 6518SOL    HW219887   4.266   0.147   7.905
 6519SOL     OW19888   4.021   0.035   7.619
 6519SOL    HW119889   4.070   0.119   7.598
 6519SOL    HW219890   4.083  -0.030   7.664
 6520SOL     OW19891   4.183   1.152   8.189
 6520SOL    HW119892   4.112   1.125   8.254
 6520SOL    HW219893   4.157   1.124   8.096
 6521SOL     OW19894   3.802   0.556   8.834
 6521SOL    HW119895   3.894   0.555   8.793
 6521SOL    HW219896   3.796   0.630   8.901
 6522SOL     OW19897   4.285   0.222   8.595
 6522SOL    HW119898   4.323   0.138   8.632
 6522SOL    HW219899   4.197   0.241   8.639
 6523SOL     OW19900   4.134   0.813   8.699
 6523SOL    HW119901   4.220   0.825   8.749
 6523SOL    HW219902   4.092   0.726   8.726
 6524SOL     OW19903   3.788   1.564   8.779
 6524SOL    HW119904   3.742   1.646   8.745
 6524SOL    HW219905   3.886   1.583   8.788
 6525SOL     OW19906   4.091   1.100   7.949
 6525SOL    HW119907   4.084   1.183   7.893
 6525SOL    HW219908   4.095   1.020   7.889
 6526SOL     OW19909   4.290   0.537   8.313
 6526SOL    HW119910   4.302   0.603   8.239
 6526SOL    HW219911   4.336   0.571   8.396
 6527SOL     OW19912   4.078   1.510   8.777
 6527SOL    HW119913   4.057   1.466   8.690
 6527SOL    HW219914   4.175   1.536   8.780
 6528SOL     OW19915   4.126   0.751   9.046
 6528SOL    HW119916   4.194   0.806   8.999
 6528SOL    HW219917   4.166   0.663   9.073
 6529SOL     OW19918   4.228   0.050   9.188
 6529SOL    HW119919   4.186  -0.007   9.118
 6529SOL    HW219920   4.162   0.119   9.220
 6530SOL     OW19921   4.297   0.870   8.477
 6530SOL    HW119922   4.341   0.959   8.468
 6530SOL    HW219923   4.234   0.870   8.554
 6531SOL     OW19924   4.031   0.213   8.679
 6531SOL    HW119925   4.008   0.250   8.769
 6531SOL    HW219926   4.001   0.118   8.673
 6532SOL     OW19927   3.761   1.310   8.730
 6532SOL    HW119928   3.814   1.261   8.798
 6532SOL    HW219929   3.783   1.408   8.735
 6533SOL     OW19930   4.031   0.063   8.066
 6533SOL    HW119931   4.020   0.157   8.099
 6533SOL    HW219932   4.026   0.000   8.143
 6534SOL     OW19933   4.074   0.898   9.252
 6534SOL    HW119934   4.150   0.942   9.300
 6534SOL    HW219935   4.109   0.851   9.170
 6535SOL     OW19936   4.043   0.810   8.397
 6535SOL    HW119937   4.136   0.846   8.402
 6535SOL    HW219938   4.037   0.725   8.449
 6536SOL     OW19939   4.063   0.509   8.454
 6536SOL    HW119940   4.011   0.426   8.437
 6536SOL    HW219941   4.140   0.514   8.390
 6537SOL     OW19942   3.732   1.326   7.648
 6537SOL    HW119943   3.639   1.347   7.617
 6537SOL    HW219944   3.742   1.227   7.661
 6538SOL     OW19945   3.812   1.801   8.375
 6538SOL    HW119946   3.770   1.715   8.348
 6538SOL    HW219947   3.906   1.804   8.341
 6539SOL     OW19948   3.764   0.544   8.562
 6539SOL    HW119949   3.849   0.511   8.521
 6539SOL    HW219950   3.777   0.559   8.660
 6540SOL     OW19951   3.913   0.520   9.170
 6540SOL    HW119952   3.972   0.480   9.100
 6540SOL    HW219953   3.855   0.591   9.129
 6541SOL     OW19954   4.539   0.572   7.773
 6541SOL    HW119955   4.546   0.483   7.727
 6541SOL    HW219956   4.445   0.606   7.765
 6542SOL     OW19957   3.976   1.564   9.192
 6542SOL    HW119958   3.946   1.621   9.268
 6542SOL    HW219959   3.969   1.467   9.218
 6543SOL     OW19960   4.197   0.500   7.639
 6543SOL    HW119961   4.258   0.580   7.643
 6543SOL    HW219962   4.102   0.531   7.646
 6544SOL     OW19963   3.883   1.137   8.914
 6544SOL    HW119964   3.905   1.076   8.990
 6544SOL    HW219965   3.893   1.088   8.828
 6545SOL     OW19966   3.807   1.258   8.470
 6545SOL    HW119967   3.802   1.257   8.570
 6545SOL    HW219968   3.724   1.217   8.432
 6546SOL     OW19969   3.854   1.794   9.299
 6546SOL    HW119970   3.813   1.720   9.352
 6546SOL    HW219971   3.918   1.845   9.357
 6547SOL     OW19972   3.987   0.326   8.168
 6547SOL    HW119973   3.908   0.377   8.134
 6547SOL    HW219974   3.978   0.311   8.266
 6548SOL     OW19975   4.096   1.288   8.938
 6548SOL    HW119976   4.083   1.381   8.904
 6548SOL    HW219977   4.012   1.236   8.925
 6549SOL     OW19978   4.314   1.487   7.939
 6549SOL    HW119979   4.356   1.429   7.869
 6549SOL    HW219980   4.270   1.566   7.895
 6550SOL     OW19981   3.979   1.348   7.738
 6550SOL    HW119982   3.883   1.349   7.711
 6550SOL    HW219983   3.991   1.401   7.822
 6551SOL     OW19984   3.829   1.013   9.174
 6551SOL    HW119985   3.752   0.980   9.228
 6551SOL    HW219986   3.914   0.983   9.216
 6552SOL     OW19987   3.799   0.345   7.481
 6552SOL    HW119988   3.707   0.317   7.452
 6552SOL    HW219989   3.830   0.422   7.425
 6553SOL     OW19990   3.796   0.166   7.766
 6553SOL    HW119991   3.779   0.249   7.712
 6553SOL    HW219992   3.886   0.129   7.744
 6554SOL     OW19993   4.114   1.741   9.008
 6554SOL    HW119994   4.023   1.782   9.006
 6554SOL    HW219995   4.107   1.647   9.040
 6555SOL     OW19996   3.945   1.314   9.292
 6555SOL    HW119997   3.880   1.241   9.271
 6555SOL    HW219998   3.949   1.328   9.390
 6556SOL     OW19999   3.803   1.240   8.101
 6556SOL    HW120000   3.802   1.193   8.189
 6556SOL    HW220001   3.885   1.212   8.050
 6557SOL     OW20002   4.396   1.391   9.072
 6557SOL    HW120003   4.318   1.341   9.110
 6557SOL    HW220004   4.393   1.486   9.103
 6558SOL     OW20005   4.152   0.424   7.968
 6558SOL    HW120006   4.182   0.352   7.906
 6558SOL    HW220007   4.113   0.384   8.051
 6559SOL     OW20008   4.041   0.547   8.728
 6559SOL    HW120009   4.079   0.488   8.800
 6559SOL    HW220010   4.081   0.521   8.640
 6560SOL     OW20011   3.763   1.077   7.748
 6560SOL    HW120012   3.862   1.066   7.739
 6560SOL    HW220013   3.723   0.991   7.780
 6561SOL     OW20014   3.954   0.628   9.423
 6561SOL    HW120015   3.861   0.626   9.460
 6561SOL    HW220016   3.955   0.589   9.331
 6562SOL     OW20017   3.949   0.275  10.306
 6562SOL    HW120018   3.984   0.258  10.398
 6562SOL    HW220019   3.861   0.230  10.294
 6563SOL     OW20020   3.743   0.368   9.957
 6563SOL    HW120021   3.661   0.411   9.996
 6563SOL    HW220022   3.715   0.295   9.894
 6564SOL     OW20023   4.409   1.012   9.975
 6564SOL    HW120024   4.478   0.996  10.045
 6564SOL    HW220025   4.336   1.069  10.013
 6565SOL     OW20026   4.059   1.435  10.371
 6565SOL    HW120027   3.981   1.404  10.318
 6565SOL    HW220028   4.117   1.493  10.314
 6566SOL     OW20029   4.162   0.392  10.809
 6566SOL    HW120030   4.244   0.336  10.818
 6566SOL    HW220031   4.081   0.334  10.813
 6567SOL     OW20032   3.955   1.713   9.793
 6567SOL    HW120033   3.989   1.790   9.847
 6567SOL    HW220034   3.999   1.713   9.703
 6568SOL     OW20035   3.954   1.434   9.848
 6568SOL    HW120036   3.928   1.530   9.848
 6568SOL    HW220037   3.883   1.380   9.893
 6569SOL     OW20038   3.964   1.091  10.196
 6569SOL    HW120039   3.978   1.007  10.248
 6569SOL    HW220040   3.909   1.155  10.251
 6570SOL     OW20041   3.846   0.643   9.873
 6570SOL    HW120042   3.801   0.555   9.890
 6570SOL    HW220043   3.845   0.697   9.957
 6571SOL     OW20044   3.751   1.596   9.427
 6571SOL    HW120045   3.732   1.500   9.448
 6571SOL    HW220046   3.718   1.654   9.502
 6572SOL     OW20047   3.837   0.737  10.907
 6572SOL    HW120048   3.925   0.724  10.952
 6572SOL    HW220049   3.824   0.834  10.885
 6573SOL     OW20050   3.921   0.976  10.574
 6573SOL    HW120051   4.010   0.931  10.560
 6573SOL    HW220052   3.848   0.911  10.555
 6574SOL     OW20053   4.041   0.251  11.111
 6574SOL    HW120054   4.112   0.322  11.117
 6574SOL    HW220055   3.953   0.290  11.139
 6575SOL     OW20056   4.322   0.729   9.580
 6575SOL    HW120057   4.346   0.798   9.512
 6575SOL    HW220058   4.244   0.762   9.634
 6576SOL     OW20059   3.800   0.811  10.099
 6576SOL    HW120060   3.899   0.799  10.108
 6576SOL    HW220061   3.776   0.906  10.120
 6577SOL     OW20062   3.854   1.821  10.881
 6577SOL    HW120063   3.844   1.806  10.980
 6577SOL    HW220064   3.768   1.857  10.845
 6578SOL     OW20065   4.589   0.348   9.505
 6578SOL    HW120066   4.648   0.411   9.456
 6578SOL    HW220067   4.608   0.254   9.476
 6579SOL     OW20068   4.075   1.801  10.163
 6579SOL    HW120069   4.125   1.715  10.169
 6579SOL    HW220070   4.140   1.878  10.160
 6580SOL     OW20071   4.045   0.943   9.552
 6580SOL    HW120072   4.127   0.982   9.510
 6580SOL    HW220073   4.018   0.861   9.503
 6581SOL     OW20074   4.185   1.266  11.037
 6581SOL    HW120075   4.135   1.267  10.951
 6581SOL    HW220076   4.122   1.248  11.113
 6582SOL     OW20077   3.926   0.285  10.808
 6582SOL    HW120078   3.846   0.345  10.795
 6582SOL    HW220079   3.916   0.236  10.894
 6583SOL     OW20080   3.973   1.785  10.551
 6583SOL    HW120081   4.030   1.720  10.601
 6583SOL    HW220082   3.957   1.752  10.458
 6584SOL     OW20083   4.106   0.700   9.790
 6584SOL    HW120084   4.151   0.610   9.787
 6584SOL    HW220085   4.012   0.689   9.823
 6585SOL     OW20086   4.338   0.122   9.427
 6585SOL    HW120087   4.436   0.100   9.434
 6585SOL    HW220088   4.307   0.105   9.334
 6586SOL     OW20089   4.263   0.064   9.822
 6586SOL    HW120090   4.182   0.065   9.880
 6586SOL    HW220091   4.266   0.147   9.767
 6587SOL     OW20092   4.021   0.035   9.481
 6587SOL    HW120093   4.070   0.119   9.460
 6587SOL    HW220094   4.083  -0.030   9.526
 6588SOL     OW20095   4.183   1.152  10.051
 6588SOL    HW120096   4.112   1.125  10.116
 6588SOL    HW220097   4.157   1.124   9.958
 6589SOL     OW20098   3.802   0.556  10.696
 6589SOL    HW120099   3.894   0.555  10.655
 6589SOL    HW220100   3.796   0.630  10.763
 6590SOL     OW20101   4.285   0.222  10.457
 6590SOL    HW120102   4.323   0.138  10.494
 6590SOL    HW220103   4.197   0.241  10.501
 6591SOL     OW20104   4.134   0.813  10.561
 6591SOL    HW120105   4.220   0.825  10.611
 6591SOL    HW220106   4.092   0.726  10.588
 6592SOL     OW20107   3.788   1.564  10.641
 6592SOL    HW120108   3.742   1.646  10.607
 6592SOL    HW220109   3.886   1.583  10.650
 6593SOL     OW20110   4.091   1.100   9.811
 6593SOL    HW120111   4.084   1.183   9.755
 6593SOL    HW220112   4.095   1.020   9.751
 6594SOL     OW20113   4.290   0.537  10.175
 6594SOL    HW120114   4.302   0.603  10.101
 6594SOL    HW220115   4.336   0.571  10.258
 6595SOL     OW20116   4.078   1.510  10.639
 6595SOL    HW120117   4.057   1.466  10.552
 6595SOL    HW220118   4.175   1.536  10.642
 6596SOL     OW20119   4.126   0.751  10.908
 6596SOL    HW120120   4.194   0.806  10.861
 6596SOL    HW220121   4.166   0.663  10.935
 6597SOL     OW20122   4.228   0.050  11.050
 6597SOL    HW120123   4.186  -0.007  10.980
 6597SOL    HW220124   4.162   0.119  11.082
 6598SOL     OW20125   4.297   0.870  10.339
 6598SOL    HW120126   4.341   0.959  10.330
 6598SOL    HW220127   4.234   0.870  10.416
 6599SOL     OW20128   4.031   0.213  10.541
 6599SOL    HW120129   4.008   0.250  10.631
 6599SOL    HW220130   4.001   0.118  10.535
 6600SOL     OW20131   3.761   1.310  10.592
 6600SOL    HW120132   3.814   1.261  10.660
 6600SOL    HW220133   3.783   1.408  10.597
 6601SOL     OW20134   4.031   0.063   9.928
 6601SOL    HW120135   4.020   0.157   9.961
 6601SOL    HW220136   4.026   0.000  10.005
 6602SOL     OW20137   4.074   0.898  11.114
 6602SOL    HW120138   4.150   0.942  11.162
 6602SOL    HW220139   4.109   0.851  11.032
 6603SOL     OW20140   4.043   0.810  10.259
 6603SOL    HW120141   4.136   0.846  10.264
 6603SOL    HW220142   4.037   0.725  10.311
 6604SOL     OW20143   4.063   0.509  10.316
 6604SOL    HW120144   4.011   0.426  10.299
 6604SOL    HW220145   4.140   0.514  10.252
 6605SOL     OW20146   3.732   1.326   9.510
 6605SOL    HW120147   3.639   1.347   9.479
 6605SOL    HW220148   3.742   1.227   9.523
 6606SOL     OW20149   3.812   1.801  10.237
 6606SOL    HW120150   3.770   1.715  10.210
 6606SOL    HW220151   3.906   1.804  10.203
 6607SOL     OW20152   3.764   0.544  10.424
 6607SOL    HW120153   3.849   0.511  10.383
 6607SOL    HW220154   3.777   0.559  10.522
 6608SOL     OW20155   3.913   0.520  11.032
 6608SOL    HW120156   3.972   0.480  10.962
 6608SOL    HW220157   3.855   0.591  10.991
 6609SOL     OW20158   4.539   0.572   9.635
 6609SOL    HW120159   4.546   0.483   9.589
 6609SOL    HW220160   4.445   0.606   9.627
 6610SOL     OW20161   3.976   1.564  11.054
 6610SOL    HW120162   3.946   1.621  11.130
 6610SOL    HW220163   3.969   1.467  11.080
 6611SOL     OW20164   4.197   0.500   9.501
 6611SOL    HW120165   4.258   0.580   9.505
 6611SOL    HW220166   4.102   0.531   9.508
 6612SOL     OW20167   3.883   1.137  10.776
 6612SOL    HW120168   3.905   1.076  10.852
 6612SOL    HW220169   3.893   1.088  10.690
 6613SOL     OW20170   3.807   1.258  10.332
 6613SOL    HW120171   3.802   1.257  10.432
 6613SOL    HW220172   3.724   1.217  10.294
 6614SOL     OW20173   3.854   1.794  11.161
 6614SOL    HW120174   3.813   1.720  11.214
 6614SOL    HW220175   3.918   1.845  11.219
 6615SOL     OW20176   3.987   0.326  10.030
 6615SOL    HW120177   3.908   0.377   9.996
 6615SOL    HW220178   3.978   0.311  10.128
 6616SOL     OW20179   4.096   1.288  10.800
 6616SOL    HW120180   4.083   1.381  10.766
 6616SOL    HW220181   4.012   1.236  10.787
 6617SOL     OW20182   4.314   1.487   9.801
 6617SOL    HW120183   4.356   1.429   9.731
 6617SOL    HW220184   4.270   1.566   9.757
 6618SOL     OW20185   3.979   1.348   9.600
 6618SOL    HW120186   3.883   1.349   9.573
 6618SOL    HW220187   3.991   1.401   9.684
 6619SOL     OW20188   3.829   1.013  11.036
 6619SOL    HW120189   3.752   0.980  11.090
 6619SOL    HW220190   3.914   0.983  11.078
 6620SOL     OW20191   3.799   0.345   9.343
 6620SOL    HW120192   3.707   0.317   9.314
 6620SOL    HW220193   3.830   0.422   9.287
 6621SOL     OW20194   3.796   0.166   9.628
 6621SOL    HW120195   3.779   0.249   9.574
 6621SOL    HW220196   3.886   0.129   9.606
 6622SOL     OW20197   4.114   1.741  10.870
 6622SOL    HW120198   4.023   1.782  10.868
 6622SOL    HW220199   4.107   1.647  10.902
 6623SOL     OW20200   3.945   1.314  11.154
 6623SOL    HW120201   3.880   1.241  11.133
 6623SOL    HW220202   3.949   1.328  11.252
 6624SOL     OW20203   3.803   1.240   9.963
 6624SOL    HW120204   3.802   1.193  10.051
 6624SOL    HW220205   3.885   1.212   9.912
 6625SOL     OW20206   4.396   1.391  10.934
 6625SOL    HW120207   4.318   1.341  10.972
 6625SOL    HW220208   4.393   1.486  10.965
 6626SOL     OW20209   4.152   0.424   9.830
 6626SOL    HW120210   4.182   0.352   9.768
 6626SOL    HW220211   4.113   0.384   9.913
 6627SOL     OW20212   4.041   0.547  10.590
 6627SOL    HW120213   4.079   0.488  10.662
 6627SOL    HW220214   4.081   0.521  10.502
 6628SOL     OW20215   3.763   1.077   9.610
 6628SOL    HW120216   3.862   1.066   9.601
 6628SOL    HW220217   3.723   0.991   9.642
 6629SOL     OW20218   3.954   0.628  11.285
 6629SOL    HW120219   3.861   0.626  11.322
 6629SOL    HW220220   3.955   0.589  11.193
 6630SOL     OW20221   3.949   0.275  12.168
 6630SOL    HW120222   3.984   0.258  12.260
 6630SOL    HW220223   3.861   0.230  12.156
 6631SOL     OW20224   3.743   0.368  11.819
 6631SOL    HW120225   3.661   0.411  11.858
 6631SOL    HW220226   3.715   0.295  11.756
 6632SOL     OW20227   4.409   1.012  11.837
 6632SOL    HW120228   4.478   0.996  11.907
 6632SOL    HW220229   4.336   1.069  11.875
 6633SOL     OW20230   3.955   1.713  11.655
 6633SOL    HW120231   3.989   1.790  11.709
 6633SOL    HW220232   3.999   1.713  11.565
 6634SOL     OW20233   3.954   1.434  11.710
 6634SOL    HW120234   3.928   1.530  11.710
 6634SOL    HW220235   3.883   1.380  11.755
 6635SOL     OW20236   3.964   1.091  12.058
 6635SOL    HW120237   3.978   1.007  12.110
 6635SOL    HW220238   3.909   1.155  12.113
 6636SOL     OW20239   3.846   0.643  11.735
 6636SOL    HW120240   3.801   0.555  11.752
 6636SOL    HW220241   3.845   0.697  11.819
 6637SOL     OW20242   3.751   1.596  11.289
 6637SOL    HW120243   3.732   1.500  11.310
 6637SOL    HW220244   3.718   1.654  11.364
 6638SOL     OW20245   4.322   0.729  11.442
 6638SOL    HW120246   4.346   0.798  11.374
 6638SOL    HW220247   4.244   0.762  11.496
 6639SOL     OW20248   3.800   0.811  11.961
 6639SOL    HW120249   3.899   0.799  11.970
 6639SOL    HW220250   3.776   0.906  11.982
 6640SOL     OW20251   4.589   0.348  11.367
 6640SOL    HW120252   4.648   0.411  11.318
 6640SOL    HW220253   4.608   0.254  11.338
 6641SOL     OW20254   4.075   1.801  12.025
 6641SOL    HW120255   4.125   1.715  12.031
 6641SOL    HW220256   4.140   1.878  12.022
 6642SOL     OW20257   4.045   0.943  11.414
 6642SOL    HW120258   4.127   0.982  11.372
 6642SOL    HW220259   4.018   0.861  11.365
 6643SOL     OW20260   4.106   0.700  11.652
 6643SOL    HW120261   4.151   0.610  11.649
 6643SOL    HW220262   4.012   0.689  11.685
 6644SOL     OW20263   4.338   0.122  11.289
 6644SOL    HW120264   4.436   0.100  11.296
 6644SOL    HW220265   4.307   0.105  11.196
 6645SOL     OW20266   4.263   0.064  11.684
 6645SOL    HW120267   4.182   0.065  11.742
 6645SOL    HW220268   4.266   0.147  11.629
 6646SOL     OW20269   4.021   0.035  11.343
 6646SOL    HW120270   4.070   0.119  11.322
 6646SOL    HW220271   4.083  -0.030  11.388
 6647SOL     OW20272   4.183   1.152  11.913
 6647SOL    HW120273   4.112   1.125  11.978
 6647SOL    HW220274   4.157   1.124  11.820
 6648SOL     OW20275   4.091   1.100  11.673
 6648SOL    HW120276   4.084   1.183  11.617
 6648SOL    HW220277   4.095   1.020  11.613
 6649SOL     OW20278   4.031   0.063  11.790
 6649SOL    HW120279   4.020   0.157  11.823
 6649SOL    HW220280   4.026   0.000  11.867
 6650SOL     OW20281   3.732   1.326  11.372
 6650SOL    HW120282   3.639   1.347  11.341
 6650SOL    HW220283   3.742   1.227  11.385
 6651SOL     OW20284   4.539   0.572  11.497
 6651SOL    HW120285   4.546   0.483  11.451
 6651SOL    HW220286   4.445   0.606  11.489
 6652SOL     OW20287   4.197   0.500  11.363
 6652SOL    HW120288   4.258   0.580  11.367
 6652SOL    HW220289   4.102   0.531  11.370
 6653SOL     OW20290   3.987   0.326  11.892
 6653SOL    HW120291   3.908   0.377  11.858
 6653SOL    HW220292   3.978   0.311  11.990
 6654SOL     OW20293   4.314   1.487  11.663
 6654SOL    HW120294   4.356   1.429  11.593
 6654SOL    HW220295   4.270   1.566  11.619
 6655SOL     OW20296   3.979   1.348  11.462
 6655SOL    HW120297   3.883   1.349  11.435
 6655SOL    HW220298   3.991   1.401  11.546
 6656SOL     OW20299   3.799   0.345  11.205
 6656SOL    HW120300   3.707   0.317  11.176
 6656SOL    HW220301   3.830   0.422  11.149
 6657SOL     OW20302   3.796   0.166  11.490
 6657SOL    HW120303   3.779   0.249  11.436
 6657SOL    HW220304   3.886   0.129  11.468
 6658SOL     OW20305   4.385   1.790  12.125
 6658SOL    HW120306   4.339   1.878  12.112
 6658SOL    HW220307   4.484   1.802  12.118
 6659SOL     OW20308   3.803   1.240  11.825
 6659SOL    HW120309   3.802   1.193  11.913
 6659SOL    HW220310   3.885   1.212  11.774
 6660SOL     OW20311   4.152   0.424  11.692
 6660SOL    HW120312   4.182   0.352  11.630
 6660SOL    HW220313   4.113   0.384  11.775
 6661SOL     OW20314   3.763   1.077  11.472
 6661SOL    HW120315   3.862   1.066  11.463
 6661SOL    HW220316   3.723   0.991  11.504
 6662SOL     OW20317   3.954   2.490   0.113
 6662SOL    HW120318   3.861   2.488   0.150
 6662SOL    HW220319   3.955   2.451   0.021
 6663SOL     OW20320   3.949   2.137   0.996
 6663SOL    HW120321   3.984   2.120   1.088
 6663SOL    HW220322   3.861   2.092   0.984
 6664SOL     OW20323   3.743   2.230   0.647
 6664SOL    HW120324   3.661   2.273   0.686
 6664SOL    HW220325   3.715   2.157   0.584
 6665SOL     OW20326   4.409   2.874   0.665
 6665SOL    HW120327   4.478   2.858   0.735
 6665SOL    HW220328   4.336   2.931   0.703
 6666SOL     OW20329   4.059   3.297   1.061
 6666SOL    HW120330   3.981   3.266   1.008
 6666SOL    HW220331   4.117   3.355   1.004
 6667SOL     OW20332   4.162   2.254   1.499
 6667SOL    HW120333   4.244   2.198   1.508
 6667SOL    HW220334   4.081   2.196   1.503
 6668SOL     OW20335   3.955   3.575   0.483
 6668SOL    HW120336   3.989   3.652   0.537
 6668SOL    HW220337   3.999   3.575   0.393
 6669SOL     OW20338   3.954   3.296   0.538
 6669SOL    HW120339   3.928   3.392   0.538
 6669SOL    HW220340   3.883   3.242   0.583
 6670SOL     OW20341   3.964   2.953   0.886
 6670SOL    HW120342   3.978   2.869   0.938
 6670SOL    HW220343   3.909   3.017   0.941
 6671SOL     OW20344   3.846   2.505   0.563
 6671SOL    HW120345   3.801   2.417   0.580
 6671SOL    HW220346   3.845   2.559   0.647
 6672SOL     OW20347   3.751   3.458   0.117
 6672SOL    HW120348   3.732   3.362   0.138
 6672SOL    HW220349   3.718   3.516   0.192
 6673SOL     OW20350   3.837   2.599   1.597
 6673SOL    HW120351   3.925   2.586   1.642
 6673SOL    HW220352   3.824   2.696   1.575
 6674SOL     OW20353   3.921   2.838   1.264
 6674SOL    HW120354   4.010   2.793   1.250
 6674SOL    HW220355   3.848   2.773   1.245
 6675SOL     OW20356   4.041   2.113   1.801
 6675SOL    HW120357   4.112   2.184   1.807
 6675SOL    HW220358   3.953   2.152   1.829
 6676SOL     OW20359   4.322   2.591   0.270
 6676SOL    HW120360   4.346   2.660   0.202
 6676SOL    HW220361   4.244   2.624   0.324
 6677SOL     OW20362   3.800   2.673   0.789
 6677SOL    HW120363   3.899   2.661   0.798
 6677SOL    HW220364   3.776   2.768   0.810
 6678SOL     OW20365   3.854   3.683   1.571
 6678SOL    HW120366   3.844   3.668   1.670
 6678SOL    HW220367   3.768   3.719   1.535
 6679SOL     OW20368   4.274   2.058   0.885
 6679SOL    HW120369   4.269   2.053   0.985
 6679SOL    HW220370   4.276   2.154   0.856
 6680SOL     OW20371   4.075   3.663   0.853
 6680SOL    HW120372   4.125   3.577   0.859
 6680SOL    HW220373   4.140   3.740   0.850
 6681SOL     OW20374   4.045   2.805   0.242
 6681SOL    HW120375   4.127   2.844   0.200
 6681SOL    HW220376   4.018   2.723   0.193
 6682SOL     OW20377   4.185   3.128   1.727
 6682SOL    HW120378   4.135   3.129   1.641
 6682SOL    HW220379   4.122   3.110   1.803
 6683SOL     OW20380   3.926   2.147   1.498
 6683SOL    HW120381   3.846   2.207   1.485
 6683SOL    HW220382   3.916   2.098   1.584
 6684SOL     OW20383   3.973   3.647   1.241
 6684SOL    HW120384   4.030   3.582   1.291
 6684SOL    HW220385   3.957   3.614   1.148
 6685SOL     OW20386   4.106   2.562   0.480
 6685SOL    HW120387   4.151   2.472   0.477
 6685SOL    HW220388   4.012   2.551   0.513
 6686SOL     OW20389   4.263   1.926   0.512
 6686SOL    HW120390   4.182   1.927   0.570
 6686SOL    HW220391   4.266   2.009   0.457
 6687SOL     OW20392   4.021   1.897   0.171
 6687SOL    HW120393   4.070   1.981   0.150
 6687SOL    HW220394   4.083   1.832   0.216
 6688SOL     OW20395   4.183   3.014   0.741
 6688SOL    HW120396   4.112   2.987   0.806
 6688SOL    HW220397   4.157   2.986   0.648
 6689SOL     OW20398   3.802   2.418   1.386
 6689SOL    HW120399   3.894   2.417   1.345
 6689SOL    HW220400   3.796   2.492   1.453
 6690SOL     OW20401   4.285   2.084   1.147
 6690SOL    HW120402   4.323   2.000   1.184
 6690SOL    HW220403   4.197   2.103   1.191
 6691SOL     OW20404   4.134   2.675   1.251
 6691SOL    HW120405   4.220   2.687   1.301
 6691SOL    HW220406   4.092   2.588   1.278
 6692SOL     OW20407   3.788   3.426   1.331
 6692SOL    HW120408   3.742   3.508   1.297
 6692SOL    HW220409   3.886   3.445   1.340
 6693SOL     OW20410   4.091   2.962   0.501
 6693SOL    HW120411   4.084   3.045   0.445
 6693SOL    HW220412   4.095   2.882   0.441
 6694SOL     OW20413   4.290   2.399   0.865
 6694SOL    HW120414   4.302   2.465   0.791
 6694SOL    HW220415   4.336   2.433   0.948
 6695SOL     OW20416   4.078   3.372   1.329
 6695SOL    HW120417   4.057   3.328   1.242
 6695SOL    HW220418   4.175   3.398   1.332
 6696SOL     OW20419   4.126   2.613   1.598
 6696SOL    HW120420   4.194   2.668   1.551
 6696SOL    HW220421   4.166   2.525   1.625
 6697SOL     OW20422   4.228   1.912   1.740
 6697SOL    HW120423   4.186   1.855   1.670
 6697SOL    HW220424   4.162   1.981   1.772
 6698SOL     OW20425   4.297   2.732   1.029
 6698SOL    HW120426   4.341   2.821   1.020
 6698SOL    HW220427   4.234   2.732   1.106
 6699SOL     OW20428   4.031   2.075   1.231
 6699SOL    HW120429   4.008   2.112   1.321
 6699SOL    HW220430   4.001   1.980   1.225
 6700SOL     OW20431   3.761   3.172   1.282
 6700SOL    HW120432   3.814   3.123   1.350
 6700SOL    HW220433   3.783   3.270   1.287
 6701SOL     OW20434   4.031   1.925   0.618
 6701SOL    HW120435   4.020   2.019   0.651
 6701SOL    HW220436   4.026   1.862   0.695
 6702SOL     OW20437   4.074   2.760   1.804
 6702SOL    HW120438   4.150   2.804   1.852
 6702SOL    HW220439   4.109   2.713   1.722
 6703SOL     OW20440   4.043   2.672   0.949
 6703SOL    HW120441   4.136   2.708   0.954
 6703SOL    HW220442   4.037   2.587   1.001
 6704SOL     OW20443   4.063   2.371   1.006
 6704SOL    HW120444   4.011   2.288   0.989
 6704SOL    HW220445   4.140   2.376   0.942
 6705SOL     OW20446   3.732   3.188   0.200
 6705SOL    HW120447   3.639   3.209   0.169
 6705SOL    HW220448   3.742   3.089   0.213
 6706SOL     OW20449   3.812   3.663   0.927
 6706SOL    HW120450   3.770   3.577   0.900
 6706SOL    HW220451   3.906   3.666   0.893
 6707SOL     OW20452   3.764   2.406   1.114
 6707SOL    HW120453   3.849   2.373   1.073
 6707SOL    HW220454   3.777   2.421   1.212
 6708SOL     OW20455   3.913   2.382   1.722
 6708SOL    HW120456   3.972   2.342   1.652
 6708SOL    HW220457   3.855   2.453   1.681
 6709SOL     OW20458   4.539   2.434   0.325
 6709SOL    HW120459   4.546   2.345   0.279
 6709SOL    HW220460   4.445   2.468   0.317
 6710SOL     OW20461   3.976   3.426   1.744
 6710SOL    HW120462   3.946   3.483   1.820
 6710SOL    HW220463   3.969   3.329   1.770
 6711SOL     OW20464   4.197   2.362   0.191
 6711SOL    HW120465   4.258   2.442   0.195
 6711SOL    HW220466   4.102   2.393   0.198
 6712SOL     OW20467   3.883   2.999   1.466
 6712SOL    HW120468   3.905   2.938   1.542
 6712SOL    HW220469   3.893   2.950   1.380
 6713SOL     OW20470   3.807   3.120   1.022
 6713SOL    HW120471   3.802   3.119   1.122
 6713SOL    HW220472   3.724   3.079   0.984
 6714SOL     OW20473   3.854   3.656   1.851
 6714SOL    HW120474   3.813   3.582   1.904
 6714SOL    HW220475   3.918   3.707   1.909
 6715SOL     OW20476   3.987   2.188   0.720
 6715SOL    HW120477   3.908   2.239   0.686
 6715SOL    HW220478   3.978   2.173   0.818
 6716SOL     OW20479   4.096   3.150   1.490
 6716SOL    HW120480   4.083   3.243   1.456
 6716SOL    HW220481   4.012   3.098   1.477
 6717SOL     OW20482   4.314   3.349   0.491
 6717SOL    HW120483   4.356   3.291   0.421
 6717SOL    HW220484   4.270   3.428   0.447
 6718SOL     OW20485   3.979   3.210   0.290
 6718SOL    HW120486   3.883   3.211   0.263
 6718SOL    HW220487   3.991   3.263   0.374
 6719SOL     OW20488   3.829   2.875   1.726
 6719SOL    HW120489   3.752   2.842   1.780
 6719SOL    HW220490   3.914   2.845   1.768
 6720SOL     OW20491   3.799   2.207   0.033
 6720SOL    HW120492   3.707   2.179   0.004
 6720SOL    HW220493   3.830   2.284  -0.023
 6721SOL     OW20494   3.796   2.028   0.318
 6721SOL    HW120495   3.779   2.111   0.264
 6721SOL    HW220496   3.886   1.991   0.296
 6722SOL     OW20497   4.114   3.603   1.560
 6722SOL    HW120498   4.023   3.644   1.558
 6722SOL    HW220499   4.107   3.509   1.592
 6723SOL     OW20500   4.583   3.236   0.016
 6723SOL    HW120501   4.537   3.251   0.104
 6723SOL    HW220502   4.627   3.321  -0.014
 6724SOL     OW20503   3.945   3.176   1.844
 6724SOL    HW120504   3.880   3.103   1.823
 6724SOL    HW220505   3.949   3.190   1.942
 6725SOL     OW20506   3.803   3.102   0.653
 6725SOL    HW120507   3.802   3.055   0.741
 6725SOL    HW220508   3.885   3.074   0.602
 6726SOL     OW20509   4.396   3.253   1.624
 6726SOL    HW120510   4.318   3.203   1.662
 6726SOL    HW220511   4.393   3.348   1.655
 6727SOL     OW20512   4.152   2.286   0.520
 6727SOL    HW120513   4.182   2.214   0.458
 6727SOL    HW220514   4.113   2.246   0.603
 6728SOL     OW20515   4.041   2.409   1.280
 6728SOL    HW120516   4.079   2.350   1.352
 6728SOL    HW220517   4.081   2.383   1.192
 6729SOL     OW20518   3.763   2.939   0.300
 6729SOL    HW120519   3.862   2.928   0.291
 6729SOL    HW220520   3.723   2.853   0.332
 6730SOL     OW20521   3.954   2.490   1.975
 6730SOL    HW120522   3.861   2.488   2.012
 6730SOL    HW220523   3.955   2.451   1.883
 6731SOL     OW20524   3.949   2.137   2.858
 6731SOL    HW120525   3.984   2.120   2.950
 6731SOL    HW220526   3.861   2.092   2.846
 6732SOL     OW20527   3.743   2.230   2.509
 6732SOL    HW120528   3.661   2.273   2.548
 6732SOL    HW220529   3.715   2.157   2.446
 6733SOL     OW20530   4.409   2.874   2.527
 6733SOL    HW120531   4.478   2.858   2.597
 6733SOL    HW220532   4.336   2.931   2.565
 6734SOL     OW20533   4.059   3.297   2.923
 6734SOL    HW120534   3.981   3.266   2.870
 6734SOL    HW220535   4.117   3.355   2.866
 6735SOL     OW20536   4.162   2.254   3.361
 6735SOL    HW120537   4.244   2.198   3.370
 6735SOL    HW220538   4.081   2.196   3.365
 6736SOL     OW20539   3.955   3.575   2.345
 6736SOL    HW120540   3.989   3.652   2.399
 6736SOL    HW220541   3.999   3.575   2.255
 6737SOL     OW20542   3.954   3.296   2.400
 6737SOL    HW120543   3.928   3.392   2.400
 6737SOL    HW220544   3.883   3.242   2.445
 6738SOL     OW20545   3.964   2.953   2.748
 6738SOL    HW120546   3.978   2.869   2.800
 6738SOL    HW220547   3.909   3.017   2.803
 6739SOL     OW20548   3.846   2.505   2.425
 6739SOL    HW120549   3.801   2.417   2.442
 6739SOL    HW220550   3.845   2.559   2.509
 6740SOL     OW20551   3.751   3.458   1.979
 6740SOL    HW120552   3.732   3.362   2.000
 6740SOL    HW220553   3.718   3.516   2.054
 6741SOL     OW20554   3.837   2.599   3.459
 6741SOL    HW120555   3.925   2.586   3.504
 6741SOL    HW220556   3.824   2.696   3.437
 6742SOL     OW20557   3.921   2.838   3.126
 6742SOL    HW120558   4.010   2.793   3.112
 6742SOL    HW220559   3.848   2.773   3.107
 6743SOL     OW20560   4.041   2.113   3.663
 6743SOL    HW120561   4.112   2.184   3.669
 6743SOL    HW220562   3.953   2.152   3.691
 6744SOL     OW20563   4.322   2.591   2.132
 6744SOL    HW120564   4.346   2.660   2.064
 6744SOL    HW220565   4.244   2.624   2.186
 6745SOL     OW20566   3.800   2.673   2.651
 6745SOL    HW120567   3.899   2.661   2.660
 6745SOL    HW220568   3.776   2.768   2.672
 6746SOL     OW20569   3.854   3.683   3.433
 6746SOL    HW120570   3.844   3.668   3.532
 6746SOL    HW220571   3.768   3.719   3.397
 6747SOL     OW20572   4.589   2.210   2.057
 6747SOL    HW120573   4.648   2.273   2.008
 6747SOL    HW220574   4.608   2.116   2.028
 6748SOL     OW20575   4.274   2.058   2.747
 6748SOL    HW120576   4.269   2.053   2.847
 6748SOL    HW220577   4.276   2.154   2.718
 6749SOL     OW20578   4.075   3.663   2.715
 6749SOL    HW120579   4.125   3.577   2.721
 6749SOL    HW220580   4.140   3.740   2.712
 6750SOL     OW20581   4.045   2.805   2.104
 6750SOL    HW120582   4.127   2.844   2.062
 6750SOL    HW220583   4.018   2.723   2.055
 6751SOL     OW20584   4.185   3.128   3.589
 6751SOL    HW120585   4.135   3.129   3.503
 6751SOL    HW220586   4.122   3.110   3.665
 6752SOL     OW20587   3.926   2.147   3.360
 6752SOL    HW120588   3.846   2.207   3.347
 6752SOL    HW220589   3.916   2.098   3.446
 6753SOL     OW20590   3.973   3.647   3.103
 6753SOL    HW120591   4.030   3.582   3.153
 6753SOL    HW220592   3.957   3.614   3.010
 6754SOL     OW20593   4.106   2.562   2.342
 6754SOL    HW120594   4.151   2.472   2.339
 6754SOL    HW220595   4.012   2.551   2.375
 6755SOL     OW20596   4.338   1.984   1.979
 6755SOL    HW120597   4.436   1.962   1.986
 6755SOL    HW220598   4.307   1.967   1.886
 6756SOL     OW20599   4.263   1.926   2.374
 6756SOL    HW120600   4.182   1.927   2.432
 6756SOL    HW220601   4.266   2.009   2.319
 6757SOL     OW20602   4.021   1.897   2.033
 6757SOL    HW120603   4.070   1.981   2.012
 6757SOL    HW220604   4.083   1.832   2.078
 6758SOL     OW20605   4.183   3.014   2.603
 6758SOL    HW120606   4.112   2.987   2.668
 6758SOL    HW220607   4.157   2.986   2.510
 6759SOL     OW20608   3.802   2.418   3.248
 6759SOL    HW120609   3.894   2.417   3.207
 6759SOL    HW220610   3.796   2.492   3.315
 6760SOL     OW20611   4.285   2.084   3.009
 6760SOL    HW120612   4.323   2.000   3.046
 6760SOL    HW220613   4.197   2.103   3.053
 6761SOL     OW20614   4.134   2.675   3.113
 6761SOL    HW120615   4.220   2.687   3.163
 6761SOL    HW220616   4.092   2.588   3.140
 6762SOL     OW20617   3.788   3.426   3.193
 6762SOL    HW120618   3.742   3.508   3.159
 6762SOL    HW220619   3.886   3.445   3.202
 6763SOL     OW20620   4.091   2.962   2.363
 6763SOL    HW120621   4.084   3.045   2.307
 6763SOL    HW220622   4.095   2.882   2.303
 6764SOL     OW20623   4.290   2.399   2.727
 6764SOL    HW120624   4.302   2.465   2.653
 6764SOL    HW220625   4.336   2.433   2.810
 6765SOL     OW20626   4.078   3.372   3.191
 6765SOL    HW120627   4.057   3.328   3.104
 6765SOL    HW220628   4.175   3.398   3.194
 6766SOL     OW20629   4.126   2.613   3.460
 6766SOL    HW120630   4.194   2.668   3.413
 6766SOL    HW220631   4.166   2.525   3.487
 6767SOL     OW20632   4.228   1.912   3.602
 6767SOL    HW120633   4.186   1.855   3.532
 6767SOL    HW220634   4.162   1.981   3.634
 6768SOL     OW20635   4.297   2.732   2.891
 6768SOL    HW120636   4.341   2.821   2.882
 6768SOL    HW220637   4.234   2.732   2.968
 6769SOL     OW20638   4.031   2.075   3.093
 6769SOL    HW120639   4.008   2.112   3.183
 6769SOL    HW220640   4.001   1.980   3.087
 6770SOL     OW20641   3.761   3.172   3.144
 6770SOL    HW120642   3.814   3.123   3.212
 6770SOL    HW220643   3.783   3.270   3.149
 6771SOL     OW20644   4.031   1.925   2.480
 6771SOL    HW120645   4.020   2.019   2.513
 6771SOL    HW220646   4.026   1.862   2.557
 6772SOL     OW20647   4.074   2.760   3.666
 6772SOL    HW120648   4.150   2.804   3.714
 6772SOL    HW220649   4.109   2.713   3.584
 6773SOL     OW20650   4.043   2.672   2.811
 6773SOL    HW120651   4.136   2.708   2.816
 6773SOL    HW220652   4.037   2.587   2.863
 6774SOL     OW20653   4.063   2.371   2.868
 6774SOL    HW120654   4.011   2.288   2.851
 6774SOL    HW220655   4.140   2.376   2.804
 6775SOL     OW20656   3.732   3.188   2.062
 6775SOL    HW120657   3.639   3.209   2.031
 6775SOL    HW220658   3.742   3.089   2.075
 6776SOL     OW20659   3.812   3.663   2.789
 6776SOL    HW120660   3.770   3.577   2.762
 6776SOL    HW220661   3.906   3.666   2.755
 6777SOL     OW20662   3.764   2.406   2.976
 6777SOL    HW120663   3.849   2.373   2.935
 6777SOL    HW220664   3.777   2.421   3.074
 6778SOL     OW20665   3.913   2.382   3.584
 6778SOL    HW120666   3.972   2.342   3.514
 6778SOL    HW220667   3.855   2.453   3.543
 6779SOL     OW20668   4.539   2.434   2.187
 6779SOL    HW120669   4.546   2.345   2.141
 6779SOL    HW220670   4.445   2.468   2.179
 6780SOL     OW20671   3.976   3.426   3.606
 6780SOL    HW120672   3.946   3.483   3.682
 6780SOL    HW220673   3.969   3.329   3.632
 6781SOL     OW20674   4.197   2.362   2.053
 6781SOL    HW120675   4.258   2.442   2.057
 6781SOL    HW220676   4.102   2.393   2.060
 6782SOL     OW20677   3.883   2.999   3.328
 6782SOL    HW120678   3.905   2.938   3.404
 6782SOL    HW220679   3.893   2.950   3.242
 6783SOL     OW20680   3.807   3.120   2.884
 6783SOL    HW120681   3.802   3.119   2.984
 6783SOL    HW220682   3.724   3.079   2.846
 6784SOL     OW20683   3.854   3.656   3.713
 6784SOL    HW120684   3.813   3.582   3.766
 6784SOL    HW220685   3.918   3.707   3.771
 6785SOL     OW20686   3.987   2.188   2.582
 6785SOL    HW120687   3.908   2.239   2.548
 6785SOL    HW220688   3.978   2.173   2.680
 6786SOL     OW20689   4.096   3.150   3.352
 6786SOL    HW120690   4.083   3.243   3.318
 6786SOL    HW220691   4.012   3.098   3.339
 6787SOL     OW20692   4.314   3.349   2.353
 6787SOL    HW120693   4.356   3.291   2.283
 6787SOL    HW220694   4.270   3.428   2.309
 6788SOL     OW20695   3.979   3.210   2.152
 6788SOL    HW120696   3.883   3.211   2.125
 6788SOL    HW220697   3.991   3.263   2.236
 6789SOL     OW20698   3.829   2.875   3.588
 6789SOL    HW120699   3.752   2.842   3.642
 6789SOL    HW220700   3.914   2.845   3.630
 6790SOL     OW20701   3.799   2.207   1.895
 6790SOL    HW120702   3.707   2.179   1.866
 6790SOL    HW220703   3.830   2.284   1.839
 6791SOL     OW20704   3.796   2.028   2.180
 6791SOL    HW120705   3.779   2.111   2.126
 6791SOL    HW220706   3.886   1.991   2.158
 6792SOL     OW20707   4.114   3.603   3.422
 6792SOL    HW120708   4.023   3.644   3.420
 6792SOL    HW220709   4.107   3.509   3.454
 6793SOL     OW20710   3.945   3.176   3.706
 6793SOL    HW120711   3.880   3.103   3.685
 6793SOL    HW220712   3.949   3.190   3.804
 6794SOL     OW20713   3.803   3.102   2.515
 6794SOL    HW120714   3.802   3.055   2.603
 6794SOL    HW220715   3.885   3.074   2.464
 6795SOL     OW20716   4.396   3.253   3.486
 6795SOL    HW120717   4.318   3.203   3.524
 6795SOL    HW220718   4.393   3.348   3.517
 6796SOL     OW20719   4.152   2.286   2.382
 6796SOL    HW120720   4.182   2.214   2.320
 6796SOL    HW220721   4.113   2.246   2.465
 6797SOL     OW20722   4.041   2.409   3.142
 6797SOL    HW120723   4.079   2.350   3.214
 6797SOL    HW220724   4.081   2.383   3.054
 6798SOL     OW20725   3.763   2.939   2.162
 6798SOL    HW120726   3.862   2.928   2.153
 6798SOL    HW220727   3.723   2.853   2.194
 6799SOL     OW20728   3.954   2.490   3.837
 6799SOL    HW120729   3.861   2.488   3.874
 6799SOL    HW220730   3.955   2.451   3.745
 6800SOL     OW20731   3.949   2.137   4.720
 6800SOL    HW120732   3.984   2.120   4.812
 6800SOL    HW220733   3.861   2.092   4.708
 6801SOL     OW20734   3.743   2.230   4.371
 6801SOL    HW120735   3.661   2.273   4.410
 6801SOL    HW220736   3.715   2.157   4.308
 6802SOL     OW20737   4.409   2.874   4.389
 6802SOL    HW120738   4.478   2.858   4.459
 6802SOL    HW220739   4.336   2.931   4.427
 6803SOL     OW20740   4.059   3.297   4.785
 6803SOL    HW120741   3.981   3.266   4.732
 6803SOL    HW220742   4.117   3.355   4.728
 6804SOL     OW20743   4.162   2.254   5.223
 6804SOL    HW120744   4.244   2.198   5.232
 6804SOL    HW220745   4.081   2.196   5.227
 6805SOL     OW20746   3.955   3.575   4.207
 6805SOL    HW120747   3.989   3.652   4.261
 6805SOL    HW220748   3.999   3.575   4.117
 6806SOL     OW20749   3.954   3.296   4.262
 6806SOL    HW120750   3.928   3.392   4.262
 6806SOL    HW220751   3.883   3.242   4.307
 6807SOL     OW20752   3.964   2.953   4.610
 6807SOL    HW120753   3.978   2.869   4.662
 6807SOL    HW220754   3.909   3.017   4.665
 6808SOL     OW20755   3.846   2.505   4.287
 6808SOL    HW120756   3.801   2.417   4.304
 6808SOL    HW220757   3.845   2.559   4.371
 6809SOL     OW20758   3.751   3.458   3.841
 6809SOL    HW120759   3.732   3.362   3.862
 6809SOL    HW220760   3.718   3.516   3.916
 6810SOL     OW20761   3.837   2.599   5.321
 6810SOL    HW120762   3.925   2.586   5.366
 6810SOL    HW220763   3.824   2.696   5.299
 6811SOL     OW20764   3.921   2.838   4.988
 6811SOL    HW120765   4.010   2.793   4.974
 6811SOL    HW220766   3.848   2.773   4.969
 6812SOL     OW20767   4.041   2.113   5.525
 6812SOL    HW120768   4.112   2.184   5.531
 6812SOL    HW220769   3.953   2.152   5.553
 6813SOL     OW20770   4.322   2.591   3.994
 6813SOL    HW120771   4.346   2.660   3.926
 6813SOL    HW220772   4.244   2.624   4.048
 6814SOL     OW20773   3.800   2.673   4.513
 6814SOL    HW120774   3.899   2.661   4.522
 6814SOL    HW220775   3.776   2.768   4.534
 6815SOL     OW20776   3.854   3.683   5.295
 6815SOL    HW120777   3.844   3.668   5.394
 6815SOL    HW220778   3.768   3.719   5.259
 6816SOL     OW20779   4.589   2.210   3.919
 6816SOL    HW120780   4.648   2.273   3.870
 6816SOL    HW220781   4.608   2.116   3.890
 6817SOL     OW20782   4.274   2.058   4.609
 6817SOL    HW120783   4.269   2.053   4.709
 6817SOL    HW220784   4.276   2.154   4.580
 6818SOL     OW20785   4.075   3.663   4.577
 6818SOL    HW120786   4.125   3.577   4.583
 6818SOL    HW220787   4.140   3.740   4.574
 6819SOL     OW20788   4.045   2.805   3.966
 6819SOL    HW120789   4.127   2.844   3.924
 6819SOL    HW220790   4.018   2.723   3.917
 6820SOL     OW20791   4.185   3.128   5.451
 6820SOL    HW120792   4.135   3.129   5.365
 6820SOL    HW220793   4.122   3.110   5.527
 6821SOL     OW20794   3.926   2.147   5.222
 6821SOL    HW120795   3.846   2.207   5.209
 6821SOL    HW220796   3.916   2.098   5.308
 6822SOL     OW20797   3.973   3.647   4.965
 6822SOL    HW120798   4.030   3.582   5.015
 6822SOL    HW220799   3.957   3.614   4.872
 6823SOL     OW20800   4.106   2.562   4.204
 6823SOL    HW120801   4.151   2.472   4.201
 6823SOL    HW220802   4.012   2.551   4.237
 6824SOL     OW20803   4.338   1.984   3.841
 6824SOL    HW120804   4.436   1.962   3.848
 6824SOL    HW220805   4.307   1.967   3.748
 6825SOL     OW20806   4.263   1.926   4.236
 6825SOL    HW120807   4.182   1.927   4.294
 6825SOL    HW220808   4.266   2.009   4.181
 6826SOL     OW20809   4.021   1.897   3.895
 6826SOL    HW120810   4.070   1.981   3.874
 6826SOL    HW220811   4.083   1.832   3.940
 6827SOL     OW20812   4.183   3.014   4.465
 6827SOL    HW120813   4.112   2.987   4.530
 6827SOL    HW220814   4.157   2.986   4.372
 6828SOL     OW20815   3.802   2.418   5.110
 6828SOL    HW120816   3.894   2.417   5.069
 6828SOL    HW220817   3.796   2.492   5.177
 6829SOL     OW20818   4.285   2.084   4.871
 6829SOL    HW120819   4.323   2.000   4.908
 6829SOL    HW220820   4.197   2.103   4.915
 6830SOL     OW20821   4.134   2.675   4.975
 6830SOL    HW120822   4.220   2.687   5.025
 6830SOL    HW220823   4.092   2.588   5.002
 6831SOL     OW20824   3.788   3.426   5.055
 6831SOL    HW120825   3.742   3.508   5.021
 6831SOL    HW220826   3.886   3.445   5.064
 6832SOL     OW20827   4.091   2.962   4.225
 6832SOL    HW120828   4.084   3.045   4.169
 6832SOL    HW220829   4.095   2.882   4.165
 6833SOL     OW20830   4.290   2.399   4.589
 6833SOL    HW120831   4.302   2.465   4.515
 6833SOL    HW220832   4.336   2.433   4.672
 6834SOL     OW20833   4.078   3.372   5.053
 6834SOL    HW120834   4.057   3.328   4.966
 6834SOL    HW220835   4.175   3.398   5.056
 6835SOL     OW20836   4.126   2.613   5.322
 6835SOL    HW120837   4.194   2.668   5.275
 6835SOL    HW220838   4.166   2.525   5.349
 6836SOL     OW20839   4.228   1.912   5.464
 6836SOL    HW120840   4.186   1.855   5.394
 6836SOL    HW220841   4.162   1.981   5.496
 6837SOL     OW20842   4.297   2.732   4.753
 6837SOL    HW120843   4.341   2.821   4.744
 6837SOL    HW220844   4.234   2.732   4.830
 6838SOL     OW20845   4.031   2.075   4.955
 6838SOL    HW120846   4.008   2.112   5.045
 6838SOL    HW220847   4.001   1.980   4.949
 6839SOL     OW20848   3.761   3.172   5.006
 6839SOL    HW120849   3.814   3.123   5.074
 6839SOL    HW220850   3.783   3.270   5.011
 6840SOL     OW20851   4.031   1.925   4.342
 6840SOL    HW120852   4.020   2.019   4.375
 6840SOL    HW220853   4.026   1.862   4.419
 6841SOL     OW20854   4.074   2.760   5.528
 6841SOL    HW120855   4.150   2.804   5.576
 6841SOL    HW220856   4.109   2.713   5.446
 6842SOL     OW20857   4.043   2.672   4.673
 6842SOL    HW120858   4.136   2.708   4.678
 6842SOL    HW220859   4.037   2.587   4.725
 6843SOL     OW20860   4.063   2.371   4.730
 6843SOL    HW120861   4.011   2.288   4.713
 6843SOL    HW220862   4.140   2.376   4.666
 6844SOL     OW20863   3.732   3.188   3.924
 6844SOL    HW120864   3.639   3.209   3.893
 6844SOL    HW220865   3.742   3.089   3.937
 6845SOL     OW20866   3.812   3.663   4.651
 6845SOL    HW120867   3.770   3.577   4.624
 6845SOL    HW220868   3.906   3.666   4.617
 6846SOL     OW20869   3.764   2.406   4.838
 6846SOL    HW120870   3.849   2.373   4.797
 6846SOL    HW220871   3.777   2.421   4.936
 6847SOL     OW20872   3.913   2.382   5.446
 6847SOL    HW120873   3.972   2.342   5.376
 6847SOL    HW220874   3.855   2.453   5.405
 6848SOL     OW20875   4.539   2.434   4.049
 6848SOL    HW120876   4.546   2.345   4.003
 6848SOL    HW220877   4.445   2.468   4.041
 6849SOL     OW20878   3.976   3.426   5.468
 6849SOL    HW120879   3.946   3.483   5.544
 6849SOL    HW220880   3.969   3.329   5.494
 6850SOL     OW20881   4.197   2.362   3.915
 6850SOL    HW120882   4.258   2.442   3.919
 6850SOL    HW220883   4.102   2.393   3.922
 6851SOL     OW20884   3.883   2.999   5.190
 6851SOL    HW120885   3.905   2.938   5.266
 6851SOL    HW220886   3.893   2.950   5.104
 6852SOL     OW20887   3.807   3.120   4.746
 6852SOL    HW120888   3.802   3.119   4.846
 6852SOL    HW220889   3.724   3.079   4.708
 6853SOL     OW20890   3.854   3.656   5.575
 6853SOL    HW120891   3.813   3.582   5.628
 6853SOL    HW220892   3.918   3.707   5.633
 6854SOL     OW20893   3.987   2.188   4.444
 6854SOL    HW120894   3.908   2.239   4.410
 6854SOL    HW220895   3.978   2.173   4.542
 6855SOL     OW20896   4.096   3.150   5.214
 6855SOL    HW120897   4.083   3.243   5.180
 6855SOL    HW220898   4.012   3.098   5.201
 6856SOL     OW20899   4.314   3.349   4.215
 6856SOL    HW120900   4.356   3.291   4.145
 6856SOL    HW220901   4.270   3.428   4.171
 6857SOL     OW20902   3.979   3.210   4.014
 6857SOL    HW120903   3.883   3.211   3.987
 6857SOL    HW220904   3.991   3.263   4.098
 6858SOL     OW20905   3.829   2.875   5.450
 6858SOL    HW120906   3.752   2.842   5.504
 6858SOL    HW220907   3.914   2.845   5.492
 6859SOL     OW20908   3.799   2.207   3.757
 6859SOL    HW120909   3.707   2.179   3.728
 6859SOL    HW220910   3.830   2.284   3.701
 6860SOL     OW20911   3.796   2.028   4.042
 6860SOL    HW120912   3.779   2.111   3.988
 6860SOL    HW220913   3.886   1.991   4.020
 6861SOL     OW20914   4.114   3.603   5.284
 6861SOL    HW120915   4.023   3.644   5.282
 6861SOL    HW220916   4.107   3.509   5.316
 6862SOL     OW20917   3.945   3.176   5.568
 6862SOL    HW120918   3.880   3.103   5.547
 6862SOL    HW220919   3.949   3.190   5.666
 6863SOL     OW20920   3.803   3.102   4.377
 6863SOL    HW120921   3.802   3.055   4.465
 6863SOL    HW220922   3.885   3.074   4.326
 6864SOL     OW20923   4.396   3.253   5.348
 6864SOL    HW120924   4.318   3.203   5.386
 6864SOL    HW220925   4.393   3.348   5.379
 6865SOL     OW20926   4.152   2.286   4.244
 6865SOL    HW120927   4.182   2.214   4.182
 6865SOL    HW220928   4.113   2.246   4.327
 6866SOL     OW20929   4.041   2.409   5.004
 6866SOL    HW120930   4.079   2.350   5.076
 6866SOL    HW220931   4.081   2.383   4.916
 6867SOL     OW20932   3.763   2.939   4.024
 6867SOL    HW120933   3.862   2.928   4.015
 6867SOL    HW220934   3.723   2.853   4.056
 6868SOL     OW20935   3.954   2.490   5.699
 6868SOL    HW120936   3.861   2.488   5.736
 6868SOL    HW220937   3.955   2.451   5.607
 6869SOL     OW20938   3.949   2.137   6.582
 6869SOL    HW120939   3.984   2.120   6.674
 6869SOL    HW220940   3.861   2.092   6.570
 6870SOL     OW20941   3.743   2.230   6.233
 6870SOL    HW120942   3.661   2.273   6.272
 6870SOL    HW220943   3.715   2.157   6.170
 6871SOL     OW20944   4.409   2.874   6.251
 6871SOL    HW120945   4.478   2.858   6.321
 6871SOL    HW220946   4.336   2.931   6.289
 6872SOL     OW20947   4.059   3.297   6.647
 6872SOL    HW120948   3.981   3.266   6.594
 6872SOL    HW220949   4.117   3.355   6.590
 6873SOL     OW20950   4.162   2.254   7.085
 6873SOL    HW120951   4.244   2.198   7.094
 6873SOL    HW220952   4.081   2.196   7.089
 6874SOL     OW20953   3.955   3.575   6.069
 6874SOL    HW120954   3.989   3.652   6.123
 6874SOL    HW220955   3.999   3.575   5.979
 6875SOL     OW20956   3.954   3.296   6.124
 6875SOL    HW120957   3.928   3.392   6.124
 6875SOL    HW220958   3.883   3.242   6.169
 6876SOL     OW20959   3.964   2.953   6.472
 6876SOL    HW120960   3.978   2.869   6.524
 6876SOL    HW220961   3.909   3.017   6.527
 6877SOL     OW20962   3.846   2.505   6.149
 6877SOL    HW120963   3.801   2.417   6.166
 6877SOL    HW220964   3.845   2.559   6.233
 6878SOL     OW20965   3.751   3.458   5.703
 6878SOL    HW120966   3.732   3.362   5.724
 6878SOL    HW220967   3.718   3.516   5.778
 6879SOL     OW20968   3.837   2.599   7.183
 6879SOL    HW120969   3.925   2.586   7.228
 6879SOL    HW220970   3.824   2.696   7.161
 6880SOL     OW20971   3.921   2.838   6.850
 6880SOL    HW120972   4.010   2.793   6.836
 6880SOL    HW220973   3.848   2.773   6.831
 6881SOL     OW20974   4.041   2.113   7.387
 6881SOL    HW120975   4.112   2.184   7.393
 6881SOL    HW220976   3.953   2.152   7.415
 6882SOL     OW20977   4.322   2.591   5.856
 6882SOL    HW120978   4.346   2.660   5.788
 6882SOL    HW220979   4.244   2.624   5.910
 6883SOL     OW20980   3.800   2.673   6.375
 6883SOL    HW120981   3.899   2.661   6.384
 6883SOL    HW220982   3.776   2.768   6.396
 6884SOL     OW20983   3.854   3.683   7.157
 6884SOL    HW120984   3.844   3.668   7.256
 6884SOL    HW220985   3.768   3.719   7.121
 6885SOL     OW20986   4.589   2.210   5.781
 6885SOL    HW120987   4.648   2.273   5.732
 6885SOL    HW220988   4.608   2.116   5.752
 6886SOL     OW20989   4.274   2.058   6.471
 6886SOL    HW120990   4.269   2.053   6.571
 6886SOL    HW220991   4.276   2.154   6.442
 6887SOL     OW20992   4.075   3.663   6.439
 6887SOL    HW120993   4.125   3.577   6.445
 6887SOL    HW220994   4.140   3.740   6.436
 6888SOL     OW20995   4.045   2.805   5.828
 6888SOL    HW120996   4.127   2.844   5.786
 6888SOL    HW220997   4.018   2.723   5.779
 6889SOL     OW20998   4.185   3.128   7.313
 6889SOL    HW120999   4.135   3.129   7.227
 6889SOL    HW221000   4.122   3.110   7.389
 6890SOL     OW21001   3.926   2.147   7.084
 6890SOL    HW121002   3.846   2.207   7.071
 6890SOL    HW221003   3.916   2.098   7.170
 6891SOL     OW21004   3.973   3.647   6.827
 6891SOL    HW121005   4.030   3.582   6.877
 6891SOL    HW221006   3.957   3.614   6.734
 6892SOL     OW21007   4.106   2.562   6.066
 6892SOL    HW121008   4.151   2.472   6.063
 6892SOL    HW221009   4.012   2.551   6.099
 6893SOL     OW21010   4.338   1.984   5.703
 6893SOL    HW121011   4.436   1.962   5.710
 6893SOL    HW221012   4.307   1.967   5.610
 6894SOL     OW21013   4.263   1.926   6.098
 6894SOL    HW121014   4.182   1.927   6.156
 6894SOL    HW221015   4.266   2.009   6.043
 6895SOL     OW21016   4.021   1.897   5.757
 6895SOL    HW121017   4.070   1.981   5.736
 6895SOL    HW221018   4.083   1.832   5.802
 6896SOL     OW21019   4.183   3.014   6.327
 6896SOL    HW121020   4.112   2.987   6.392
 6896SOL    HW221021   4.157   2.986   6.234
 6897SOL     OW21022   3.802   2.418   6.972
 6897SOL    HW121023   3.894   2.417   6.931
 6897SOL    HW221024   3.796   2.492   7.039
 6898SOL     OW21025   4.285   2.084   6.733
 6898SOL    HW121026   4.323   2.000   6.770
 6898SOL    HW221027   4.197   2.103   6.777
 6899SOL     OW21028   4.134   2.675   6.837
 6899SOL    HW121029   4.220   2.687   6.887
 6899SOL    HW221030   4.092   2.588   6.864
 6900SOL     OW21031   3.788   3.426   6.917
 6900SOL    HW121032   3.742   3.508   6.883
 6900SOL    HW221033   3.886   3.445   6.926
 6901SOL     OW21034   4.091   2.962   6.087
 6901SOL    HW121035   4.084   3.045   6.031
 6901SOL    HW221036   4.095   2.882   6.027
 6902SOL     OW21037   4.290   2.399   6.451
 6902SOL    HW121038   4.302   2.465   6.377
 6902SOL    HW221039   4.336   2.433   6.534
 6903SOL     OW21040   4.078   3.372   6.915
 6903SOL    HW121041   4.057   3.328   6.828
 6903SOL    HW221042   4.175   3.398   6.918
 6904SOL     OW21043   4.126   2.613   7.184
 6904SOL    HW121044   4.194   2.668   7.137
 6904SOL    HW221045   4.166   2.525   7.211
 6905SOL     OW21046   4.228   1.912   7.326
 6905SOL    HW121047   4.186   1.855   7.256
 6905SOL    HW221048   4.162   1.981   7.358
 6906SOL     OW21049   4.297   2.732   6.615
 6906SOL    HW121050   4.341   2.821   6.606
 6906SOL    HW221051   4.234   2.732   6.692
 6907SOL     OW21052   4.031   2.075   6.817
 6907SOL    HW121053   4.008   2.112   6.907
 6907SOL    HW221054   4.001   1.980   6.811
 6908SOL     OW21055   3.761   3.172   6.868
 6908SOL    HW121056   3.814   3.123   6.936
 6908SOL    HW221057   3.783   3.270   6.873
 6909SOL     OW21058   4.031   1.925   6.204
 6909SOL    HW121059   4.020   2.019   6.237
 6909SOL    HW221060   4.026   1.862   6.281
 6910SOL     OW21061   4.074   2.760   7.390
 6910SOL    HW121062   4.150   2.804   7.438
 6910SOL    HW221063   4.109   2.713   7.308
 6911SOL     OW21064   4.043   2.672   6.535
 6911SOL    HW121065   4.136   2.708   6.540
 6911SOL    HW221066   4.037   2.587   6.587
 6912SOL     OW21067   4.063   2.371   6.592
 6912SOL    HW121068   4.011   2.288   6.575
 6912SOL    HW221069   4.140   2.376   6.528
 6913SOL     OW21070   3.732   3.188   5.786
 6913SOL    HW121071   3.639   3.209   5.755
 6913SOL    HW221072   3.742   3.089   5.799
 6914SOL     OW21073   3.812   3.663   6.513
 6914SOL    HW121074   3.770   3.577   6.486
 6914SOL    HW221075   3.906   3.666   6.479
 6915SOL     OW21076   3.764   2.406   6.700
 6915SOL    HW121077   3.849   2.373   6.659
 6915SOL    HW221078   3.777   2.421   6.798
 6916SOL     OW21079   3.913   2.382   7.308
 6916SOL    HW121080   3.972   2.342   7.238
 6916SOL    HW221081   3.855   2.453   7.267
 6917SOL     OW21082   4.539   2.434   5.911
 6917SOL    HW121083   4.546   2.345   5.865
 6917SOL    HW221084   4.445   2.468   5.903
 6918SOL     OW21085   3.976   3.426   7.330
 6918SOL    HW121086   3.946   3.483   7.406
 6918SOL    HW221087   3.969   3.329   7.356
 6919SOL     OW21088   4.197   2.362   5.777
 6919SOL    HW121089   4.258   2.442   5.781
 6919SOL    HW221090   4.102   2.393   5.784
 6920SOL     OW21091   3.883   2.999   7.052
 6920SOL    HW121092   3.905   2.938   7.128
 6920SOL    HW221093   3.893   2.950   6.966
 6921SOL     OW21094   3.807   3.120   6.608
 6921SOL    HW121095   3.802   3.119   6.708
 6921SOL    HW221096   3.724   3.079   6.570
 6922SOL     OW21097   3.854   3.656   7.437
 6922SOL    HW121098   3.813   3.582   7.490
 6922SOL    HW221099   3.918   3.707   7.495
 6923SOL     OW21100   3.987   2.188   6.306
 6923SOL    HW121101   3.908   2.239   6.272
 6923SOL    HW221102   3.978   2.173   6.404
 6924SOL     OW21103   4.096   3.150   7.076
 6924SOL    HW121104   4.083   3.243   7.042
 6924SOL    HW221105   4.012   3.098   7.063
 6925SOL     OW21106   4.314   3.349   6.077
 6925SOL    HW121107   4.356   3.291   6.007
 6925SOL    HW221108   4.270   3.428   6.033
 6926SOL     OW21109   3.979   3.210   5.876
 6926SOL    HW121110   3.883   3.211   5.849
 6926SOL    HW221111   3.991   3.263   5.960
 6927SOL     OW21112   3.829   2.875   7.312
 6927SOL    HW121113   3.752   2.842   7.366
 6927SOL    HW221114   3.914   2.845   7.354
 6928SOL     OW21115   3.799   2.207   5.619
 6928SOL    HW121116   3.707   2.179   5.590
 6928SOL    HW221117   3.830   2.284   5.563
 6929SOL     OW21118   3.796   2.028   5.904
 6929SOL    HW121119   3.779   2.111   5.850
 6929SOL    HW221120   3.886   1.991   5.882
 6930SOL     OW21121   4.114   3.603   7.146
 6930SOL    HW121122   4.023   3.644   7.144
 6930SOL    HW221123   4.107   3.509   7.178
 6931SOL     OW21124   3.945   3.176   7.430
 6931SOL    HW121125   3.880   3.103   7.409
 6931SOL    HW221126   3.949   3.190   7.528
 6932SOL     OW21127   3.803   3.102   6.239
 6932SOL    HW121128   3.802   3.055   6.327
 6932SOL    HW221129   3.885   3.074   6.188
 6933SOL     OW21130   4.396   3.253   7.210
 6933SOL    HW121131   4.318   3.203   7.248
 6933SOL    HW221132   4.393   3.348   7.241
 6934SOL     OW21133   4.152   2.286   6.106
 6934SOL    HW121134   4.182   2.214   6.044
 6934SOL    HW221135   4.113   2.246   6.189
 6935SOL     OW21136   4.041   2.409   6.866
 6935SOL    HW121137   4.079   2.350   6.938
 6935SOL    HW221138   4.081   2.383   6.778
 6936SOL     OW21139   3.763   2.939   5.886
 6936SOL    HW121140   3.862   2.928   5.877
 6936SOL    HW221141   3.723   2.853   5.918
 6937SOL     OW21142   3.954   2.490   7.561
 6937SOL    HW121143   3.861   2.488   7.598
 6937SOL    HW221144   3.955   2.451   7.469
 6938SOL     OW21145   3.949   2.137   8.444
 6938SOL    HW121146   3.984   2.120   8.536
 6938SOL    HW221147   3.861   2.092   8.432
 6939SOL     OW21148   3.743   2.230   8.095
 6939SOL    HW121149   3.661   2.273   8.134
 6939SOL    HW221150   3.715   2.157   8.032
 6940SOL     OW21151   4.409   2.874   8.113
 6940SOL    HW121152   4.478   2.858   8.183
 6940SOL    HW221153   4.336   2.931   8.151
 6941SOL     OW21154   4.059   3.297   8.509
 6941SOL    HW121155   3.981   3.266   8.456
 6941SOL    HW221156   4.117   3.355   8.452
 6942SOL     OW21157   4.162   2.254   8.947
 6942SOL    HW121158   4.244   2.198   8.956
 6942SOL    HW221159   4.081   2.196   8.951
 6943SOL     OW21160   3.955   3.575   7.931
 6943SOL    HW121161   3.989   3.652   7.985
 6943SOL    HW221162   3.999   3.575   7.841
 6944SOL     OW21163   3.954   3.296   7.986
 6944SOL    HW121164   3.928   3.392   7.986
 6944SOL    HW221165   3.883   3.242   8.031
 6945SOL     OW21166   3.964   2.953   8.334
 6945SOL    HW121167   3.978   2.869   8.386
 6945SOL    HW221168   3.909   3.017   8.389
 6946SOL     OW21169   3.846   2.505   8.011
 6946SOL    HW121170   3.801   2.417   8.028
 6946SOL    HW221171   3.845   2.559   8.095
 6947SOL     OW21172   3.751   3.458   7.565
 6947SOL    HW121173   3.732   3.362   7.586
 6947SOL    HW221174   3.718   3.516   7.640
 6948SOL     OW21175   3.837   2.599   9.045
 6948SOL    HW121176   3.925   2.586   9.090
 6948SOL    HW221177   3.824   2.696   9.023
 6949SOL     OW21178   3.921   2.838   8.712
 6949SOL    HW121179   4.010   2.793   8.698
 6949SOL    HW221180   3.848   2.773   8.693
 6950SOL     OW21181   4.041   2.113   9.249
 6950SOL    HW121182   4.112   2.184   9.255
 6950SOL    HW221183   3.953   2.152   9.277
 6951SOL     OW21184   4.322   2.591   7.718
 6951SOL    HW121185   4.346   2.660   7.650
 6951SOL    HW221186   4.244   2.624   7.772
 6952SOL     OW21187   3.800   2.673   8.237
 6952SOL    HW121188   3.899   2.661   8.246
 6952SOL    HW221189   3.776   2.768   8.258
 6953SOL     OW21190   3.854   3.683   9.019
 6953SOL    HW121191   3.844   3.668   9.118
 6953SOL    HW221192   3.768   3.719   8.983
 6954SOL     OW21193   4.589   2.210   7.643
 6954SOL    HW121194   4.648   2.273   7.594
 6954SOL    HW221195   4.608   2.116   7.614
 6955SOL     OW21196   4.274   2.058   8.333
 6955SOL    HW121197   4.269   2.053   8.433
 6955SOL    HW221198   4.276   2.154   8.304
 6956SOL     OW21199   4.075   3.663   8.301
 6956SOL    HW121200   4.125   3.577   8.307
 6956SOL    HW221201   4.140   3.740   8.298
 6957SOL     OW21202   4.045   2.805   7.690
 6957SOL    HW121203   4.127   2.844   7.648
 6957SOL    HW221204   4.018   2.723   7.641
 6958SOL     OW21205   4.185   3.128   9.175
 6958SOL    HW121206   4.135   3.129   9.089
 6958SOL    HW221207   4.122   3.110   9.251
 6959SOL     OW21208   3.926   2.147   8.946
 6959SOL    HW121209   3.846   2.207   8.933
 6959SOL    HW221210   3.916   2.098   9.032
 6960SOL     OW21211   3.973   3.647   8.689
 6960SOL    HW121212   4.030   3.582   8.739
 6960SOL    HW221213   3.957   3.614   8.596
 6961SOL     OW21214   4.106   2.562   7.928
 6961SOL    HW121215   4.151   2.472   7.925
 6961SOL    HW221216   4.012   2.551   7.961
 6962SOL     OW21217   4.338   1.984   7.565
 6962SOL    HW121218   4.436   1.962   7.572
 6962SOL    HW221219   4.307   1.967   7.472
 6963SOL     OW21220   4.263   1.926   7.960
 6963SOL    HW121221   4.182   1.927   8.018
 6963SOL    HW221222   4.266   2.009   7.905
 6964SOL     OW21223   4.021   1.897   7.619
 6964SOL    HW121224   4.070   1.981   7.598
 6964SOL    HW221225   4.083   1.832   7.664
 6965SOL     OW21226   4.183   3.014   8.189
 6965SOL    HW121227   4.112   2.987   8.254
 6965SOL    HW221228   4.157   2.986   8.096
 6966SOL     OW21229   3.802   2.418   8.834
 6966SOL    HW121230   3.894   2.417   8.793
 6966SOL    HW221231   3.796   2.492   8.901
 6967SOL     OW21232   4.285   2.084   8.595
 6967SOL    HW121233   4.323   2.000   8.632
 6967SOL    HW221234   4.197   2.103   8.639
 6968SOL     OW21235   4.134   2.675   8.699
 6968SOL    HW121236   4.220   2.687   8.749
 6968SOL    HW221237   4.092   2.588   8.726
 6969SOL     OW21238   3.788   3.426   8.779
 6969SOL    HW121239   3.742   3.508   8.745
 6969SOL    HW221240   3.886   3.445   8.788
 6970SOL     OW21241   4.091   2.962   7.949
 6970SOL    HW121242   4.084   3.045   7.893
 6970SOL    HW221243   4.095   2.882   7.889
 6971SOL     OW21244   4.290   2.399   8.313
 6971SOL    HW121245   4.302   2.465   8.239
 6971SOL    HW221246   4.336   2.433   8.396
 6972SOL     OW21247   4.078   3.372   8.777
 6972SOL    HW121248   4.057   3.328   8.690
 6972SOL    HW221249   4.175   3.398   8.780
 6973SOL     OW21250   4.126   2.613   9.046
 6973SOL    HW121251   4.194   2.668   8.999
 6973SOL    HW221252   4.166   2.525   9.073
 6974SOL     OW21253   4.228   1.912   9.188
 6974SOL    HW121254   4.186   1.855   9.118
 6974SOL    HW221255   4.162   1.981   9.220
 6975SOL     OW21256   4.297   2.732   8.477
 6975SOL    HW121257   4.341   2.821   8.468
 6975SOL    HW221258   4.234   2.732   8.554
 6976SOL     OW21259   4.031   2.075   8.679
 6976SOL    HW121260   4.008   2.112   8.769
 6976SOL    HW221261   4.001   1.980   8.673
 6977SOL     OW21262   3.761   3.172   8.730
 6977SOL    HW121263   3.814   3.123   8.798
 6977SOL    HW221264   3.783   3.270   8.735
 6978SOL     OW21265   4.031   1.925   8.066
 6978SOL    HW121266   4.020   2.019   8.099
 6978SOL    HW221267   4.026   1.862   8.143
 6979SOL     OW21268   4.074   2.760   9.252
 6979SOL    HW121269   4.150   2.804   9.300
 6979SOL    HW221270   4.109   2.713   9.170
 6980SOL     OW21271   4.043   2.672   8.397
 6980SOL    HW121272   4.136   2.708   8.402
 6980SOL    HW221273   4.037   2.587   8.449
 6981SOL     OW21274   4.063   2.371   8.454
 6981SOL    HW121275   4.011   2.288   8.437
 6981SOL    HW221276   4.140   2.376   8.390
 6982SOL     OW21277   3.732   3.188   7.648
 6982SOL    HW121278   3.639   3.209   7.617
 6982SOL    HW221279   3.742   3.089   7.661
 6983SOL     OW21280   3.812   3.663   8.375
 6983SOL    HW121281   3.770   3.577   8.348
 6983SOL    HW221282   3.906   3.666   8.341
 6984SOL     OW21283   3.764   2.406   8.562
 6984SOL    HW121284   3.849   2.373   8.521
 6984SOL    HW221285   3.777   2.421   8.660
 6985SOL     OW21286   3.913   2.382   9.170
 6985SOL    HW121287   3.972   2.342   9.100
 6985SOL    HW221288   3.855   2.453   9.129
 6986SOL     OW21289   4.539   2.434   7.773
 6986SOL    HW121290   4.546   2.345   7.727
 6986SOL    HW221291   4.445   2.468   7.765
 6987SOL     OW21292   3.976   3.426   9.192
 6987SOL    HW121293   3.946   3.483   9.268
 6987SOL    HW221294   3.969   3.329   9.218
 6988SOL     OW21295   4.197   2.362   7.639
 6988SOL    HW121296   4.258   2.442   7.643
 6988SOL    HW221297   4.102   2.393   7.646
 6989SOL     OW21298   3.883   2.999   8.914
 6989SOL    HW121299   3.905   2.938   8.990
 6989SOL    HW221300   3.893   2.950   8.828
 6990SOL     OW21301   3.807   3.120   8.470
 6990SOL    HW121302   3.802   3.119   8.570
 6990SOL    HW221303   3.724   3.079   8.432
 6991SOL     OW21304   3.854   3.656   9.299
 6991SOL    HW121305   3.813   3.582   9.352
 6991SOL    HW221306   3.918   3.707   9.357
 6992SOL     OW21307   3.987   2.188   8.168
 6992SOL    HW121308   3.908   2.239   8.134
 6992SOL    HW221309   3.978   2.173   8.266
 6993SOL     OW21310   4.096   3.150   8.938
 6993SOL    HW121311   4.083   3.243   8.904
 6993SOL    HW221312   4.012   3.098   8.925
 6994SOL     OW21313   4.314   3.349   7.939
 6994SOL    HW121314   4.356   3.291   7.869
 6994SOL    HW221315   4.270   3.428   7.895
 6995SOL     OW21316   3.979   3.210   7.738
 6995SOL    HW121317   3.883   3.211   7.711
 6995SOL    HW221318   3.991   3.263   7.822
 6996SOL     OW21319   3.829   2.875   9.174
 6996SOL    HW121320   3.752   2.842   9.228
 6996SOL    HW221321   3.914   2.845   9.216
 6997SOL     OW21322   3.799   2.207   7.481
 6997SOL    HW121323   3.707   2.179   7.452
 6997SOL    HW221324   3.830   2.284   7.425
 6998SOL     OW21325   3.796   2.028   7.766
 6998SOL    HW121326   3.779   2.111   7.712
 6998SOL    HW221327   3.886   1.991   7.744
 6999SOL     OW21328   4.114   3.603   9.008
 6999SOL    HW121329   4.023   3.644   9.006
 6999SOL    HW221330   4.107   3.509   9.040
 7000SOL     OW21331   3.945   3.176   9.292
 7000SOL    HW121332   3.880   3.103   9.271
 7000SOL    HW221333   3.949   3.190   9.390
 7001SOL     OW21334   3.803   3.102   8.101
 7001SOL    HW121335   3.802   3.055   8.189
 7001SOL    HW221336   3.885   3.074   8.050
 7002SOL     OW21337   4.396   3.253   9.072
 7002SOL    HW121338   4.318   3.203   9.110
 7002SOL    HW221339   4.393   3.348   9.103
 7003SOL     OW21340   4.152   2.286   7.968
 7003SOL    HW121341   4.182   2.214   7.906
 7003SOL    HW221342   4.113   2.246   8.051
 7004SOL     OW21343   4.041   2.409   8.728
 7004SOL    HW121344   4.079   2.350   8.800
 7004SOL    HW221345   4.081   2.383   8.640
 7005SOL     OW21346   3.763   2.939   7.748
 7005SOL    HW121347   3.862   2.928   7.739
 7005SOL    HW221348   3.723   2.853   7.780
 7006SOL     OW21349   3.954   2.490   9.423
 7006SOL    HW121350   3.861   2.488   9.460
 7006SOL    HW221351   3.955   2.451   9.331
 7007SOL     OW21352   3.949   2.137  10.306
 7007SOL    HW121353   3.984   2.120  10.398
 7007SOL    HW221354   3.861   2.092  10.294
 7008SOL     OW21355   3.743   2.230   9.957
 7008SOL    HW121356   3.661   2.273   9.996
 7008SOL    HW221357   3.715   2.157   9.894
 7009SOL     OW21358   4.409   2.874   9.975
 7009SOL    HW121359   4.478   2.858  10.045
 7009SOL    HW221360   4.336   2.931  10.013
 7010SOL     OW21361   4.059   3.297  10.371
 7010SOL    HW121362   3.981   3.266  10.318
 7010SOL    HW221363   4.117   3.355  10.314
 7011SOL     OW21364   4.162   2.254  10.809
 7011SOL    HW121365   4.244   2.198  10.818
 7011SOL    HW221366   4.081   2.196  10.813
 7012SOL     OW21367   3.955   3.575   9.793
 7012SOL    HW121368   3.989   3.652   9.847
 7012SOL    HW221369   3.999   3.575   9.703
 7013SOL     OW21370   3.954   3.296   9.848
 7013SOL    HW121371   3.928   3.392   9.848
 7013SOL    HW221372   3.883   3.242   9.893
 7014SOL     OW21373   3.964   2.953  10.196
 7014SOL    HW121374   3.978   2.869  10.248
 7014SOL    HW221375   3.909   3.017  10.251
 7015SOL     OW21376   3.846   2.505   9.873
 7015SOL    HW121377   3.801   2.417   9.890
 7015SOL    HW221378   3.845   2.559   9.957
 7016SOL     OW21379   3.751   3.458   9.427
 7016SOL    HW121380   3.732   3.362   9.448
 7016SOL    HW221381   3.718   3.516   9.502
 7017SOL     OW21382   3.837   2.599  10.907
 7017SOL    HW121383   3.925   2.586  10.952
 7017SOL    HW221384   3.824   2.696  10.885
 7018SOL     OW21385   3.921   2.838  10.574
 7018SOL    HW121386   4.010   2.793  10.560
 7018SOL    HW221387   3.848   2.773  10.555
 7019SOL     OW21388   4.041   2.113  11.111
 7019SOL    HW121389   4.112   2.184  11.117
 7019SOL    HW221390   3.953   2.152  11.139
 7020SOL     OW21391   4.322   2.591   9.580
 7020SOL    HW121392   4.346   2.660   9.512
 7020SOL    HW221393   4.244   2.624   9.634
 7021SOL     OW21394   3.800   2.673  10.099
 7021SOL    HW121395   3.899   2.661  10.108
 7021SOL    HW221396   3.776   2.768  10.120
 7022SOL     OW21397   3.854   3.683  10.881
 7022SOL    HW121398   3.844   3.668  10.980
 7022SOL    HW221399   3.768   3.719  10.845
 7023SOL     OW21400   4.589   2.210   9.505
 7023SOL    HW121401   4.648   2.273   9.456
 7023SOL    HW221402   4.608   2.116   9.476
 7024SOL     OW21403   4.274   2.058  10.195
 7024SOL    HW121404   4.269   2.053  10.295
 7024SOL    HW221405   4.276   2.154  10.166
 7025SOL     OW21406   4.075   3.663  10.163
 7025SOL    HW121407   4.125   3.577  10.169
 7025SOL    HW221408   4.140   3.740  10.160
 7026SOL     OW21409   4.045   2.805   9.552
 7026SOL    HW121410   4.127   2.844   9.510
 7026SOL    HW221411   4.018   2.723   9.503
 7027SOL     OW21412   4.185   3.128  11.037
 7027SOL    HW121413   4.135   3.129  10.951
 7027SOL    HW221414   4.122   3.110  11.113
 7028SOL     OW21415   3.926   2.147  10.808
 7028SOL    HW121416   3.846   2.207  10.795
 7028SOL    HW221417   3.916   2.098  10.894
 7029SOL     OW21418   3.973   3.647  10.551
 7029SOL    HW121419   4.030   3.582  10.601
 7029SOL    HW221420   3.957   3.614  10.458
 7030SOL     OW21421   4.106   2.562   9.790
 7030SOL    HW121422   4.151   2.472   9.787
 7030SOL    HW221423   4.012   2.551   9.823
 7031SOL     OW21424   4.338   1.984   9.427
 7031SOL    HW121425   4.436   1.962   9.434
 7031SOL    HW221426   4.307   1.967   9.334
 7032SOL     OW21427   4.263   1.926   9.822
 7032SOL    HW121428   4.182   1.927   9.880
 7032SOL    HW221429   4.266   2.009   9.767
 7033SOL     OW21430   4.021   1.897   9.481
 7033SOL    HW121431   4.070   1.981   9.460
 7033SOL    HW221432   4.083   1.832   9.526
 7034SOL     OW21433   4.183   3.014  10.051
 7034SOL    HW121434   4.112   2.987  10.116
 7034SOL    HW221435   4.157   2.986   9.958
 7035SOL     OW21436   3.802   2.418  10.696
 7035SOL    HW121437   3.894   2.417  10.655
 7035SOL    HW221438   3.796   2.492  10.763
 7036SOL     OW21439   4.285   2.084  10.457
 7036SOL    HW121440   4.323   2.000  10.494
 7036SOL    HW221441   4.197   2.103  10.501
 7037SOL     OW21442   4.134   2.675  10.561
 7037SOL    HW121443   4.220   2.687  10.611
 7037SOL    HW221444   4.092   2.588  10.588
 7038SOL     OW21445   3.788   3.426  10.641
 7038SOL    HW121446   3.742   3.508  10.607
 7038SOL    HW221447   3.886   3.445  10.650
 7039SOL     OW21448   4.091   2.962   9.811
 7039SOL    HW121449   4.084   3.045   9.755
 7039SOL    HW221450   4.095   2.882   9.751
 7040SOL     OW21451   4.290   2.399  10.175
 7040SOL    HW121452   4.302   2.465  10.101
 7040SOL    HW221453   4.336   2.433  10.258
 7041SOL     OW21454   4.078   3.372  10.639
 7041SOL    HW121455   4.057   3.328  10.552
 7041SOL    HW221456   4.175   3.398  10.642
 7042SOL     OW21457   4.126   2.613  10.908
 7042SOL    HW121458   4.194   2.668  10.861
 7042SOL    HW221459   4.166   2.525  10.935
 7043SOL     OW21460   4.228   1.912  11.050
 7043SOL    HW121461   4.186   1.855  10.980
 7043SOL    HW221462   4.162   1.981  11.082
 7044SOL     OW21463   4.297   2.732  10.339
 7044SOL    HW121464   4.341   2.821  10.330
 7044SOL    HW221465   4.234   2.732  10.416
 7045SOL     OW21466   4.031   2.075  10.541
 7045SOL    HW121467   4.008   2.112  10.631
 7045SOL    HW221468   4.001   1.980  10.535
 7046SOL     OW21469   3.761   3.172  10.592
 7046SOL    HW121470   3.814   3.123  10.660
 7046SOL    HW221471   3.783   3.270  10.597
 7047SOL     OW21472   4.031   1.925   9.928
 7047SOL    HW121473   4.020   2.019   9.961
 7047SOL    HW221474   4.026   1.862  10.005
 7048SOL     OW21475   4.074   2.760  11.114
 7048SOL    HW121476   4.150   2.804  11.162
 7048SOL    HW221477   4.109   2.713  11.032
 7049SOL     OW21478   4.043   2.672  10.259
 7049SOL    HW121479   4.136   2.708  10.264
 7049SOL    HW221480   4.037   2.587  10.311
 7050SOL     OW21481   4.063   2.371  10.316
 7050SOL    HW121482   4.011   2.288  10.299
 7050SOL    HW221483   4.140   2.376  10.252
 7051SOL     OW21484   3.732   3.188   9.510
 7051SOL    HW121485   3.639   3.209   9.479
 7051SOL    HW221486   3.742   3.089   9.523
 7052SOL     OW21487   3.812   3.663  10.237
 7052SOL    HW121488   3.770   3.577  10.210
 7052SOL    HW221489   3.906   3.666  10.203
 7053SOL     OW21490   3.764   2.406  10.424
 7053SOL    HW121491   3.849   2.373  10.383
 7053SOL    HW221492   3.777   2.421  10.522
 7054SOL     OW21493   3.913   2.382  11.032
 7054SOL    HW121494   3.972   2.342  10.962
 7054SOL    HW221495   3.855   2.453  10.991
 7055SOL     OW21496   4.539   2.434   9.635
 7055SOL    HW121497   4.546   2.345   9.589
 7055SOL    HW221498   4.445   2.468   9.627
 7056SOL     OW21499   3.976   3.426  11.054
 7056SOL    HW121500   3.946   3.483  11.130
 7056SOL    HW221501   3.969   3.329  11.080
 7057SOL     OW21502   4.197   2.362   9.501
 7057SOL    HW121503   4.258   2.442   9.505
 7057SOL    HW221504   4.102   2.393   9.508
 7058SOL     OW21505   3.883   2.999  10.776
 7058SOL    HW121506   3.905   2.938  10.852
 7058SOL    HW221507   3.893   2.950  10.690
 7059SOL     OW21508   3.807   3.120  10.332
 7059SOL    HW121509   3.802   3.119  10.432
 7059SOL    HW221510   3.724   3.079  10.294
 7060SOL     OW21511   3.854   3.656  11.161
 7060SOL    HW121512   3.813   3.582  11.214
 7060SOL    HW221513   3.918   3.707  11.219
 7061SOL     OW21514   3.987   2.188  10.030
 7061SOL    HW121515   3.908   2.239   9.996
 7061SOL    HW221516   3.978   2.173  10.128
 7062SOL     OW21517   4.096   3.150  10.800
 7062SOL    HW121518   4.083   3.243  10.766
 7062SOL    HW221519   4.012   3.098  10.787
 7063SOL     OW21520   4.314   3.349   9.801
 7063SOL    HW121521   4.356   3.291   9.731
 7063SOL    HW221522   4.270   3.428   9.757
 7064SOL     OW21523   3.979   3.210   9.600
 7064SOL    HW121524   3.883   3.211   9.573
 7064SOL    HW221525   3.991   3.263   9.684
 7065SOL     OW21526   3.829   2.875  11.036
 7065SOL    HW121527   3.752   2.842  11.090
 7065SOL    HW221528   3.914   2.845  11.078
 7066SOL     OW21529   3.799   2.207   9.343
 7066SOL    HW121530   3.707   2.179   9.314
 7066SOL    HW221531   3.830   2.284   9.287
 7067SOL     OW21532   3.796   2.028   9.628
 7067SOL    HW121533   3.779   2.111   9.574
 7067SOL    HW221534   3.886   1.991   9.606
 7068SOL     OW21535   4.114   3.603  10.870
 7068SOL    HW121536   4.023   3.644  10.868
 7068SOL    HW221537   4.107   3.509  10.902
 7069SOL     OW21538   3.945   3.176  11.154
 7069SOL    HW121539   3.880   3.103  11.133
 7069SOL    HW221540   3.949   3.190  11.252
 7070SOL     OW21541   3.803   3.102   9.963
 7070SOL    HW121542   3.802   3.055  10.051
 7070SOL    HW221543   3.885   3.074   9.912
 7071SOL     OW21544   4.396   3.253  10.934
 7071SOL    HW121545   4.318   3.203  10.972
 7071SOL    HW221546   4.393   3.348  10.965
 7072SOL     OW21547   4.152   2.286   9.830
 7072SOL    HW121548   4.182   2.214   9.768
 7072SOL    HW221549   4.113   2.246   9.913
 7073SOL     OW21550   4.041   2.409  10.590
 7073SOL    HW121551   4.079   2.350  10.662
 7073SOL    HW221552   4.081   2.383  10.502
 7074SOL     OW21553   3.763   2.939   9.610
 7074SOL    HW121554   3.862   2.928   9.601
 7074SOL    HW221555   3.723   2.853   9.642
 7075SOL     OW21556   3.954   2.490  11.285
 7075SOL    HW121557   3.861   2.488  11.322
 7075SOL    HW221558   3.955   2.451  11.193
 7076SOL     OW21559   3.949   2.137  12.168
 7076SOL    HW121560   3.984   2.120  12.260
 7076SOL    HW221561   3.861   2.092  12.156
 7077SOL     OW21562   3.743   2.230  11.819
 7077SOL    HW121563   3.661   2.273  11.858
 7077SOL    HW221564   3.715   2.157  11.756
 7078SOL     OW21565   4.409   2.874  11.837
 7078SOL    HW121566   4.478   2.858  11.907
 7078SOL    HW221567   4.336   2.931  11.875
 7079SOL     OW21568   3.955   3.575  11.655
 7079SOL    HW121569   3.989   3.652  11.709
 7079SOL    HW221570   3.999   3.575  11.565
 7080SOL     OW21571   3.954   3.296  11.710
 7080SOL    HW121572   3.928   3.392  11.710
 7080SOL    HW221573   3.883   3.242  11.755
 7081SOL     OW21574   3.964   2.953  12.058
 7081SOL    HW121575   3.978   2.869  12.110
 7081SOL    HW221576   3.909   3.017  12.113
 7082SOL     OW21577   3.846   2.505  11.735
 7082SOL    HW121578   3.801   2.417  11.752
 7082SOL    HW221579   3.845   2.559  11.819
 7083SOL     OW21580   3.751   3.458  11.289
 7083SOL    HW121581   3.732   3.362  11.310
 7083SOL    HW221582   3.718   3.516  11.364
 7084SOL     OW21583   4.322   2.591  11.442
 7084SOL    HW121584   4.346   2.660  11.374
 7084SOL    HW221585   4.244   2.624  11.496
 7085SOL     OW21586   3.800   2.673  11.961
 7085SOL    HW121587   3.899   2.661  11.970
 7085SOL    HW221588   3.776   2.768  11.982
 7086SOL     OW21589   4.589   2.210  11.367
 7086SOL    HW121590   4.648   2.273  11.318
 7086SOL    HW221591   4.608   2.116  11.338
 7087SOL     OW21592   4.075   3.663  12.025
 7087SOL    HW121593   4.125   3.577  12.031
 7087SOL    HW221594   4.140   3.740  12.022
 7088SOL     OW21595   4.045   2.805  11.414
 7088SOL    HW121596   4.127   2.844  11.372
 7088SOL    HW221597   4.018   2.723  11.365
 7089SOL     OW21598   4.106   2.562  11.652
 7089SOL    HW121599   4.151   2.472  11.649
 7089SOL    HW221600   4.012   2.551  11.685
 7090SOL     OW21601   4.338   1.984  11.289
 7090SOL    HW121602   4.436   1.962  11.296
 7090SOL    HW221603   4.307   1.967  11.196
 7091SOL     OW21604   4.263   1.926  11.684
 7091SOL    HW121605   4.182   1.927  11.742
 7091SOL    HW221606   4.266   2.009  11.629
 7092SOL     OW21607   4.021   1.897  11.343
 7092SOL    HW121608   4.070   1.981  11.322
 7092SOL    HW221609   4.083   1.832  11.388
 7093SOL     OW21610   4.183   3.014  11.913
 7093SOL    HW121611   4.112   2.987  11.978
 7093SOL    HW221612   4.157   2.986  11.820
 7094SOL     OW21613   4.091   2.962  11.673
 7094SOL    HW121614   4.084   3.045  11.617
 7094SOL    HW221615   4.095   2.882  11.613
 7095SOL     OW21616   4.031   1.925  11.790
 7095SOL    HW121617   4.020   2.019  11.823
 7095SOL    HW221618   4.026   1.862  11.867
 7096SOL     OW21619   3.732   3.188  11.372
 7096SOL    HW121620   3.639   3.209  11.341
 7096SOL    HW221621   3.742   3.089  11.385
 7097SOL     OW21622   4.539   2.434  11.497
 7097SOL    HW121623   4.546   2.345  11.451
 7097SOL    HW221624   4.445   2.468  11.489
 7098SOL     OW21625   4.197   2.362  11.363
 7098SOL    HW121626   4.258   2.442  11.367
 7098SOL    HW221627   4.102   2.393  11.370
 7099SOL     OW21628   3.987   2.188  11.892
 7099SOL    HW121629   3.908   2.239  11.858
 7099SOL    HW221630   3.978   2.173  11.990
 7100SOL     OW21631   4.314   3.349  11.663
 7100SOL    HW121632   4.356   3.291  11.593
 7100SOL    HW221633   4.270   3.428  11.619
 7101SOL     OW21634   3.979   3.210  11.462
 7101SOL    HW121635   3.883   3.211  11.435
 7101SOL    HW221636   3.991   3.263  11.546
 7102SOL     OW21637   3.799   2.207  11.205
 7102SOL    HW121638   3.707   2.179  11.176
 7102SOL    HW221639   3.830   2.284  11.149
 7103SOL     OW21640   3.796   2.028  11.490
 7103SOL    HW121641   3.779   2.111  11.436
 7103SOL    HW221642   3.886   1.991  11.468
 7104SOL     OW21643   4.385   3.652  12.125
 7104SOL    HW121644   4.339   3.740  12.112
 7104SOL    HW221645   4.484   3.664  12.118
 7105SOL     OW21646   3.803   3.102  11.825
 7105SOL    HW121647   3.802   3.055  11.913
 7105SOL    HW221648   3.885   3.074  11.774
 7106SOL     OW21649   4.152   2.286  11.692
 7106SOL    HW121650   4.182   2.214  11.630
 7106SOL    HW221651   4.113   2.246  11.775
 7107SOL     OW21652   3.763   2.939  11.472
 7107SOL    HW121653   3.862   2.928  11.463
 7107SOL    HW221654   3.723   2.853  11.504
 7108SOL     OW21655   3.949   3.999   0.996
 7108SOL    HW121656   3.984   3.982   1.088
 7108SOL    HW221657   3.861   3.954   0.984
 7109SOL     OW21658   3.743   4.092   0.647
 7109SOL    HW121659   3.661   4.135   0.686
 7109SOL    HW221660   3.715   4.019   0.584
 7110SOL     OW21661   4.162   4.116   1.499
 7110SOL    HW121662   4.244   4.060   1.508
 7110SOL    HW221663   4.081   4.058   1.503
 7111SOL     OW21664   3.846   4.367   0.563
 7111SOL    HW121665   3.801   4.279   0.580
 7111SOL    HW221666   3.845   4.421   0.647
 7112SOL     OW21667   4.041   3.975   1.801
 7112SOL    HW121668   4.112   4.046   1.807
 7112SOL    HW221669   3.953   4.014   1.829
 7113SOL     OW21670   3.800   4.535   0.789
 7113SOL    HW121671   3.899   4.523   0.798
 7113SOL    HW221672   3.776   4.630   0.810
 7114SOL     OW21673   4.274   3.920   0.885
 7114SOL    HW121674   4.269   3.915   0.985
 7114SOL    HW221675   4.276   4.016   0.856
 7115SOL     OW21676   3.926   4.009   1.498
 7115SOL    HW121677   3.846   4.069   1.485
 7115SOL    HW221678   3.916   3.960   1.584
 7116SOL     OW21679   4.263   3.788   0.512
 7116SOL    HW121680   4.182   3.789   0.570
 7116SOL    HW221681   4.266   3.871   0.457
 7117SOL     OW21682   4.021   3.759   0.171
 7117SOL    HW121683   4.070   3.843   0.150
 7117SOL    HW221684   4.083   3.694   0.216
 7118SOL     OW21685   3.802   4.280   1.386
 7118SOL    HW121686   3.894   4.279   1.345
 7118SOL    HW221687   3.796   4.354   1.453
 7119SOL     OW21688   4.285   3.946   1.147
 7119SOL    HW121689   4.323   3.862   1.184
 7119SOL    HW221690   4.197   3.965   1.191
 7120SOL     OW21691   4.290   4.261   0.865
 7120SOL    HW121692   4.302   4.327   0.791
 7120SOL    HW221693   4.336   4.295   0.948
 7121SOL     OW21694   4.228   3.774   1.740
 7121SOL    HW121695   4.186   3.717   1.670
 7121SOL    HW221696   4.162   3.843   1.772
 7122SOL     OW21697   4.031   3.937   1.231
 7122SOL    HW121698   4.008   3.974   1.321
 7122SOL    HW221699   4.001   3.842   1.225
 7123SOL     OW21700   4.031   3.787   0.618
 7123SOL    HW121701   4.020   3.881   0.651
 7123SOL    HW221702   4.026   3.724   0.695
 7124SOL     OW21703   4.063   4.233   1.006
 7124SOL    HW121704   4.011   4.150   0.989
 7124SOL    HW221705   4.140   4.238   0.942
 7125SOL     OW21706   3.764   4.268   1.114
 7125SOL    HW121707   3.849   4.235   1.073
 7125SOL    HW221708   3.777   4.283   1.212
 7126SOL     OW21709   3.913   4.244   1.722
 7126SOL    HW121710   3.972   4.204   1.652
 7126SOL    HW221711   3.855   4.315   1.681
 7127SOL     OW21712   3.987   4.050   0.720
 7127SOL    HW121713   3.908   4.101   0.686
 7127SOL    HW221714   3.978   4.035   0.818
 7128SOL     OW21715   3.799   4.069   0.033
 7128SOL    HW121716   3.707   4.041   0.004
 7128SOL    HW221717   3.830   4.146  -0.023
 7129SOL     OW21718   3.796   3.890   0.318
 7129SOL    HW121719   3.779   3.973   0.264
 7129SOL    HW221720   3.886   3.853   0.296
 7130SOL     OW21721   4.152   4.148   0.520
 7130SOL    HW121722   4.182   4.076   0.458
 7130SOL    HW221723   4.113   4.108   0.603
 7131SOL     OW21724   4.041   4.271   1.280
 7131SOL    HW121725   4.079   4.212   1.352
 7131SOL    HW221726   4.081   4.245   1.192
 7132SOL     OW21727   3.949   3.999   2.858
 7132SOL    HW121728   3.984   3.982   2.950
 7132SOL    HW221729   3.861   3.954   2.846
 7133SOL     OW21730   3.743   4.092   2.509
 7133SOL    HW121731   3.661   4.135   2.548
 7133SOL    HW221732   3.715   4.019   2.446
 7134SOL     OW21733   4.162   4.116   3.361
 7134SOL    HW121734   4.244   4.060   3.370
 7134SOL    HW221735   4.081   4.058   3.365
 7135SOL     OW21736   3.846   4.367   2.425
 7135SOL    HW121737   3.801   4.279   2.442
 7135SOL    HW221738   3.845   4.421   2.509
 7136SOL     OW21739   4.041   3.975   3.663
 7136SOL    HW121740   4.112   4.046   3.669
 7136SOL    HW221741   3.953   4.014   3.691
 7137SOL     OW21742   3.800   4.535   2.651
 7137SOL    HW121743   3.899   4.523   2.660
 7137SOL    HW221744   3.776   4.630   2.672
 7138SOL     OW21745   4.589   4.072   2.057
 7138SOL    HW121746   4.648   4.135   2.008
 7138SOL    HW221747   4.608   3.978   2.028
 7139SOL     OW21748   4.274   3.920   2.747
 7139SOL    HW121749   4.269   3.915   2.847
 7139SOL    HW221750   4.276   4.016   2.718
 7140SOL     OW21751   3.926   4.009   3.360
 7140SOL    HW121752   3.846   4.069   3.347
 7140SOL    HW221753   3.916   3.960   3.446
 7141SOL     OW21754   4.338   3.846   1.979
 7141SOL    HW121755   4.436   3.824   1.986
 7141SOL    HW221756   4.307   3.829   1.886
 7142SOL     OW21757   4.263   3.788   2.374
 7142SOL    HW121758   4.182   3.789   2.432
 7142SOL    HW221759   4.266   3.871   2.319
 7143SOL     OW21760   4.021   3.759   2.033
 7143SOL    HW121761   4.070   3.843   2.012
 7143SOL    HW221762   4.083   3.694   2.078
 7144SOL     OW21763   3.802   4.280   3.248
 7144SOL    HW121764   3.894   4.279   3.207
 7144SOL    HW221765   3.796   4.354   3.315
 7145SOL     OW21766   4.285   3.946   3.009
 7145SOL    HW121767   4.323   3.862   3.046
 7145SOL    HW221768   4.197   3.965   3.053
 7146SOL     OW21769   4.290   4.261   2.727
 7146SOL    HW121770   4.302   4.327   2.653
 7146SOL    HW221771   4.336   4.295   2.810
 7147SOL     OW21772   4.228   3.774   3.602
 7147SOL    HW121773   4.186   3.717   3.532
 7147SOL    HW221774   4.162   3.843   3.634
 7148SOL     OW21775   4.031   3.937   3.093
 7148SOL    HW121776   4.008   3.974   3.183
 7148SOL    HW221777   4.001   3.842   3.087
 7149SOL     OW21778   4.031   3.787   2.480
 7149SOL    HW121779   4.020   3.881   2.513
 7149SOL    HW221780   4.026   3.724   2.557
 7150SOL     OW21781   4.063   4.233   2.868
 7150SOL    HW121782   4.011   4.150   2.851
 7150SOL    HW221783   4.140   4.238   2.804
 7151SOL     OW21784   3.764   4.268   2.976
 7151SOL    HW121785   3.849   4.235   2.935
 7151SOL    HW221786   3.777   4.283   3.074
 7152SOL     OW21787   3.913   4.244   3.584
 7152SOL    HW121788   3.972   4.204   3.514
 7152SOL    HW221789   3.855   4.315   3.543
 7153SOL     OW21790   4.539   4.296   2.187
 7153SOL    HW121791   4.546   4.207   2.141
 7153SOL    HW221792   4.445   4.330   2.179
 7154SOL     OW21793   3.987   4.050   2.582
 7154SOL    HW121794   3.908   4.101   2.548
 7154SOL    HW221795   3.978   4.035   2.680
 7155SOL     OW21796   3.799   4.069   1.895
 7155SOL    HW121797   3.707   4.041   1.866
 7155SOL    HW221798   3.830   4.146   1.839
 7156SOL     OW21799   3.796   3.890   2.180
 7156SOL    HW121800   3.779   3.973   2.126
 7156SOL    HW221801   3.886   3.853   2.158
 7157SOL     OW21802   4.152   4.148   2.382
 7157SOL    HW121803   4.182   4.076   2.320
 7157SOL    HW221804   4.113   4.108   2.465
 7158SOL     OW21805   4.041   4.271   3.142
 7158SOL    HW121806   4.079   4.212   3.214
 7158SOL    HW221807   4.081   4.245   3.054
 7159SOL     OW21808   3.949   3.999   4.720
 7159SOL    HW121809   3.984   3.982   4.812
 7159SOL    HW221810   3.861   3.954   4.708
 7160SOL     OW21811   3.743   4.092   4.371
 7160SOL    HW121812   3.661   4.135   4.410
 7160SOL    HW221813   3.715   4.019   4.308
 7161SOL     OW21814   4.162   4.116   5.223
 7161SOL    HW121815   4.244   4.060   5.232
 7161SOL    HW221816   4.081   4.058   5.227
 7162SOL     OW21817   3.846   4.367   4.287
 7162SOL    HW121818   3.801   4.279   4.304
 7162SOL    HW221819   3.845   4.421   4.371
 7163SOL     OW21820   4.041   3.975   5.525
 7163SOL    HW121821   4.112   4.046   5.531
 7163SOL    HW221822   3.953   4.014   5.553
 7164SOL     OW21823   3.800   4.535   4.513
 7164SOL    HW121824   3.899   4.523   4.522
 7164SOL    HW221825   3.776   4.630   4.534
 7165SOL     OW21826   4.589   4.072   3.919
 7165SOL    HW121827   4.648   4.135   3.870
 7165SOL    HW221828   4.608   3.978   3.890
 7166SOL     OW21829   4.274   3.920   4.609
 7166SOL    HW121830   4.269   3.915   4.709
 7166SOL    HW221831   4.276   4.016   4.580
 7167SOL     OW21832   3.926   4.009   5.222
 7167SOL    HW121833   3.846   4.069   5.209
 7167SOL    HW221834   3.916   3.960   5.308
 7168SOL     OW21835   4.338   3.846   3.841
 7168SOL    HW121836   4.436   3.824   3.848
 7168SOL    HW221837   4.307   3.829   3.748
 7169SOL     OW21838   4.263   3.788   4.236
 7169SOL    HW121839   4.182   3.789   4.294
 7169SOL    HW221840   4.266   3.871   4.181
 7170SOL     OW21841   4.021   3.759   3.895
 7170SOL    HW121842   4.070   3.843   3.874
 7170SOL    HW221843   4.083   3.694   3.940
 7171SOL     OW21844   3.802   4.280   5.110
 7171SOL    HW121845   3.894   4.279   5.069
 7171SOL    HW221846   3.796   4.354   5.177
 7172SOL     OW21847   4.285   3.946   4.871
 7172SOL    HW121848   4.323   3.862   4.908
 7172SOL    HW221849   4.197   3.965   4.915
 7173SOL     OW21850   4.290   4.261   4.589
 7173SOL    HW121851   4.302   4.327   4.515
 7173SOL    HW221852   4.336   4.295   4.672
 7174SOL     OW21853   4.228   3.774   5.464
 7174SOL    HW121854   4.186   3.717   5.394
 7174SOL    HW221855   4.162   3.843   5.496
 7175SOL     OW21856   4.031   3.937   4.955
 7175SOL    HW121857   4.008   3.974   5.045
 7175SOL    HW221858   4.001   3.842   4.949
 7176SOL     OW21859   4.031   3.787   4.342
 7176SOL    HW121860   4.020   3.881   4.375
 7176SOL    HW221861   4.026   3.724   4.419
 7177SOL     OW21862   4.063   4.233   4.730
 7177SOL    HW121863   4.011   4.150   4.713
 7177SOL    HW221864   4.140   4.238   4.666
 7178SOL     OW21865   3.764   4.268   4.838
 7178SOL    HW121866   3.849   4.235   4.797
 7178SOL    HW221867   3.777   4.283   4.936
 7179SOL     OW21868   3.913   4.244   5.446
 7179SOL    HW121869   3.972   4.204   5.376
 7179SOL    HW221870   3.855   4.315   5.405
 7180SOL     OW21871   4.539   4.296   4.049
 7180SOL    HW121872   4.546   4.207   4.003
 7180SOL    HW221873   4.445   4.330   4.041
 7181SOL     OW21874   3.987   4.050   4.444
 7181SOL    HW121875   3.908   4.101   4.410
 7181SOL    HW221876   3.978   4.035   4.542
 7182SOL     OW21877   3.799   4.069   3.757
 7182SOL    HW121878   3.707   4.041   3.728
 7182SOL    HW221879   3.830   4.146   3.701
 7183SOL     OW21880   3.796   3.890   4.042
 7183SOL    HW121881   3.779   3.973   3.988
 7183SOL    HW221882   3.886   3.853   4.020
 7184SOL     OW21883   4.152   4.148   4.244
 7184SOL    HW121884   4.182   4.076   4.182
 7184SOL    HW221885   4.113   4.108   4.327
 7185SOL     OW21886   4.041   4.271   5.004
 7185SOL    HW121887   4.079   4.212   5.076
 7185SOL    HW221888   4.081   4.245   4.916
 7186SOL     OW21889   3.949   3.999   6.582
 7186SOL    HW121890   3.984   3.982   6.674
 7186SOL    HW221891   3.861   3.954   6.570
 7187SOL     OW21892   3.743   4.092   6.233
 7187SOL    HW121893   3.661   4.135   6.272
 7187SOL    HW221894   3.715   4.019   6.170
 7188SOL     OW21895   4.162   4.116   7.085
 7188SOL    HW121896   4.244   4.060   7.094
 7188SOL    HW221897   4.081   4.058   7.089
 7189SOL     OW21898   3.846   4.367   6.149
 7189SOL    HW121899   3.801   4.279   6.166
 7189SOL    HW221900   3.845   4.421   6.233
 7190SOL     OW21901   4.041   3.975   7.387
 7190SOL    HW121902   4.112   4.046   7.393
 7190SOL    HW221903   3.953   4.014   7.415
 7191SOL     OW21904   3.800   4.535   6.375
 7191SOL    HW121905   3.899   4.523   6.384
 7191SOL    HW221906   3.776   4.630   6.396
 7192SOL     OW21907   4.589   4.072   5.781
 7192SOL    HW121908   4.648   4.135   5.732
 7192SOL    HW221909   4.608   3.978   5.752
 7193SOL     OW21910   4.274   3.920   6.471
 7193SOL    HW121911   4.269   3.915   6.571
 7193SOL    HW221912   4.276   4.016   6.442
 7194SOL     OW21913   3.926   4.009   7.084
 7194SOL    HW121914   3.846   4.069   7.071
 7194SOL    HW221915   3.916   3.960   7.170
 7195SOL     OW21916   4.338   3.846   5.703
 7195SOL    HW121917   4.436   3.824   5.710
 7195SOL    HW221918   4.307   3.829   5.610
 7196SOL     OW21919   4.263   3.788   6.098
 7196SOL    HW121920   4.182   3.789   6.156
 7196SOL    HW221921   4.266   3.871   6.043
 7197SOL     OW21922   4.021   3.759   5.757
 7197SOL    HW121923   4.070   3.843   5.736
 7197SOL    HW221924   4.083   3.694   5.802
 7198SOL     OW21925   3.802   4.280   6.972
 7198SOL    HW121926   3.894   4.279   6.931
 7198SOL    HW221927   3.796   4.354   7.039
 7199SOL     OW21928   4.285   3.946   6.733
 7199SOL    HW121929   4.323   3.862   6.770
 7199SOL    HW221930   4.197   3.965   6.777
 7200SOL     OW21931   4.290   4.261   6.451
 7200SOL    HW121932   4.302   4.327   6.377
 7200SOL    HW221933   4.336   4.295   6.534
 7201SOL     OW21934   4.228   3.774   7.326
 7201SOL    HW121935   4.186   3.717   7.256
 7201SOL    HW221936   4.162   3.843   7.358
 7202SOL     OW21937   4.031   3.937   6.817
 7202SOL    HW121938   4.008   3.974   6.907
 7202SOL    HW221939   4.001   3.842   6.811
 7203SOL     OW21940   4.031   3.787   6.204
 7203SOL    HW121941   4.020   3.881   6.237
 7203SOL    HW221942   4.026   3.724   6.281
 7204SOL     OW21943   4.063   4.233   6.592
 7204SOL    HW121944   4.011   4.150   6.575
 7204SOL    HW221945   4.140   4.238   6.528
 7205SOL     OW21946   3.764   4.268   6.700
 7205SOL    HW121947   3.849   4.235   6.659
 7205SOL    HW221948   3.777   4.283   6.798
 7206SOL     OW21949   3.913   4.244   7.308
 7206SOL    HW121950   3.972   4.204   7.238
 7206SOL    HW221951   3.855   4.315   7.267
 7207SOL     OW21952   4.539   4.296   5.911
 7207SOL    HW121953   4.546   4.207   5.865
 7207SOL    HW221954   4.445   4.330   5.903
 7208SOL     OW21955   3.987   4.050   6.306
 7208SOL    HW121956   3.908   4.101   6.272
 7208SOL    HW221957   3.978   4.035   6.404
 7209SOL     OW21958   3.799   4.069   5.619
 7209SOL    HW121959   3.707   4.041   5.590
 7209SOL    HW221960   3.830   4.146   5.563
 7210SOL     OW21961   3.796   3.890   5.904
 7210SOL    HW121962   3.779   3.973   5.850
 7210SOL    HW221963   3.886   3.853   5.882
 7211SOL     OW21964   4.152   4.148   6.106
 7211SOL    HW121965   4.182   4.076   6.044
 7211SOL    HW221966   4.113   4.108   6.189
 7212SOL     OW21967   4.041   4.271   6.866
 7212SOL    HW121968   4.079   4.212   6.938
 7212SOL    HW221969   4.081   4.245   6.778
 7213SOL     OW21970   3.949   3.999   8.444
 7213SOL    HW121971   3.984   3.982   8.536
 7213SOL    HW221972   3.861   3.954   8.432
 7214SOL     OW21973   3.743   4.092   8.095
 7214SOL    HW121974   3.661   4.135   8.134
 7214SOL    HW221975   3.715   4.019   8.032
 7215SOL     OW21976   4.162   4.116   8.947
 7215SOL    HW121977   4.244   4.060   8.956
 7215SOL    HW221978   4.081   4.058   8.951
 7216SOL     OW21979   3.846   4.367   8.011
 7216SOL    HW121980   3.801   4.279   8.028
 7216SOL    HW221981   3.845   4.421   8.095
 7217SOL     OW21982   4.041   3.975   9.249
 7217SOL    HW121983   4.112   4.046   9.255
 7217SOL    HW221984   3.953   4.014   9.277
 7218SOL     OW21985   3.800   4.535   8.237
 7218SOL    HW121986   3.899   4.523   8.246
 7218SOL    HW221987   3.776   4.630   8.258
 7219SOL     OW21988   4.589   4.072   7.643
 7219SOL    HW121989   4.648   4.135   7.594
 7219SOL    HW221990   4.608   3.978   7.614
 7220SOL     OW21991   4.274   3.920   8.333
 7220SOL    HW121992   4.269   3.915   8.433
 7220SOL    HW221993   4.276   4.016   8.304
 7221SOL     OW21994   3.926   4.009   8.946
 7221SOL    HW121995   3.846   4.069   8.933
 7221SOL    HW221996   3.916   3.960   9.032
 7222SOL     OW21997   4.338   3.846   7.565
 7222SOL    HW121998   4.436   3.824   7.572
 7222SOL    HW221999   4.307   3.829   7.472
 7223SOL     OW22000   4.263   3.788   7.960
 7223SOL    HW122001   4.182   3.789   8.018
 7223SOL    HW222002   4.266   3.871   7.905
 7224SOL     OW22003   4.021   3.759   7.619
 7224SOL    HW122004   4.070   3.843   7.598
 7224SOL    HW222005   4.083   3.694   7.664
 7225SOL     OW22006   3.802   4.280   8.834
 7225SOL    HW122007   3.894   4.279   8.793
 7225SOL    HW222008   3.796   4.354   8.901
 7226SOL     OW22009   4.285   3.946   8.595
 7226SOL    HW122010   4.323   3.862   8.632
 7226SOL    HW222011   4.197   3.965   8.639
 7227SOL     OW22012   4.290   4.261   8.313
 7227SOL    HW122013   4.302   4.327   8.239
 7227SOL    HW222014   4.336   4.295   8.396
 7228SOL     OW22015   4.228   3.774   9.188
 7228SOL    HW122016   4.186   3.717   9.118
 7228SOL    HW222017   4.162   3.843   9.220
 7229SOL     OW22018   4.031   3.937   8.679
 7229SOL    HW122019   4.008   3.974   8.769
 7229SOL    HW222020   4.001   3.842   8.673
 7230SOL     OW22021   4.031   3.787   8.066
 7230SOL    HW122022   4.020   3.881   8.099
 7230SOL    HW222023   4.026   3.724   8.143
 7231SOL     OW22024   4.063   4.233   8.454
 7231SOL    HW122025   4.011   4.150   8.437
 7231SOL    HW222026   4.140   4.238   8.390
 7232SOL     OW22027   3.764   4.268   8.562
 7232SOL    HW122028   3.849   4.235   8.521
 7232SOL    HW222029   3.777   4.283   8.660
 7233SOL     OW22030   3.913   4.244   9.170
 7233SOL    HW122031   3.972   4.204   9.100
 7233SOL    HW222032   3.855   4.315   9.129
 7234SOL     OW22033   4.539   4.296   7.773
 7234SOL    HW122034   4.546   4.207   7.727
 7234SOL    HW222035   4.445   4.330   7.765
 7235SOL     OW22036   3.987   4.050   8.168
 7235SOL    HW122037   3.908   4.101   8.134
 7235SOL    HW222038   3.978   4.035   8.266
 7236SOL     OW22039   3.799   4.069   7.481
 7236SOL    HW122040   3.707   4.041   7.452
 7236SOL    HW222041   3.830   4.146   7.425
 7237SOL     OW22042   3.796   3.890   7.766
 7237SOL    HW122043   3.779   3.973   7.712
 7237SOL    HW222044   3.886   3.853   7.744
 7238SOL     OW22045   4.152   4.148   7.968
 7238SOL    HW122046   4.182   4.076   7.906
 7238SOL    HW222047   4.113   4.108   8.051
 7239SOL     OW22048   4.041   4.271   8.728
 7239SOL    HW122049   4.079   4.212   8.800
 7239SOL    HW222050   4.081   4.245   8.640
 7240SOL     OW22051   3.949   3.999  10.306
 7240SOL    HW122052   3.984   3.982  10.398
 7240SOL    HW222053   3.861   3.954  10.294
 7241SOL     OW22054   3.743   4.092   9.957
 7241SOL    HW122055   3.661   4.135   9.996
 7241SOL    HW222056   3.715   4.019   9.894
 7242SOL     OW22057   4.162   4.116  10.809
 7242SOL    HW122058   4.244   4.060  10.818
 7242SOL    HW222059   4.081   4.058  10.813
 7243SOL     OW22060   3.846   4.367   9.873
 7243SOL    HW122061   3.801   4.279   9.890
 7243SOL    HW222062   3.845   4.421   9.957
 7244SOL     OW22063   4.041   3.975  11.111
 7244SOL    HW122064   4.112   4.046  11.117
 7244SOL    HW222065   3.953   4.014  11.139
 7245SOL     OW22066   3.800   4.535  10.099
 7245SOL    HW122067   3.899   4.523  10.108
 7245SOL    HW222068   3.776   4.630  10.120
 7246SOL     OW22069   4.589   4.072   9.505
 7246SOL    HW122070   4.648   4.135   9.456
 7246SOL    HW222071   4.608   3.978   9.476
 7247SOL     OW22072   4.274   3.920  10.195
 7247SOL    HW122073   4.269   3.915  10.295
 7247SOL    HW222074   4.276   4.016  10.166
 7248SOL     OW22075   3.926   4.009  10.808
 7248SOL    HW122076   3.846   4.069  10.795
 7248SOL    HW222077   3.916   3.960  10.894
 7249SOL     OW22078   4.338   3.846   9.427
 7249SOL    HW122079   4.436   3.824   9.434
 7249SOL    HW222080   4.307   3.829   9.334
 7250SOL     OW22081   4.263   3.788   9.822
 7250SOL    HW122082   4.182   3.789   9.880
 7250SOL    HW222083   4.266   3.871   9.767
 7251SOL     OW22084   4.021   3.759   9.481
 7251SOL    HW122085   4.070   3.843   9.460
 7251SOL    HW222086   4.083   3.694   9.526
 7252SOL     OW22087   3.802   4.280  10.696
 7252SOL    HW122088   3.894   4.279  10.655
 7252SOL    HW222089   3.796   4.354  10.763
 7253SOL     OW22090   4.285   3.946  10.457
 7253SOL    HW122091   4.323   3.862  10.494
 7253SOL    HW222092   4.197   3.965  10.501
 7254SOL     OW22093   4.290   4.261  10.175
 7254SOL    HW122094   4.302   4.327  10.101
 7254SOL    HW222095   4.336   4.295  10.258
 7255SOL     OW22096   4.228   3.774  11.050
 7255SOL    HW122097   4.186   3.717  10.980
 7255SOL    HW222098   4.162   3.843  11.082
 7256SOL     OW22099   4.031   3.937  10.541
 7256SOL    HW122100   4.008   3.974  10.631
 7256SOL    HW222101   4.001   3.842  10.535
 7257SOL     OW22102   4.031   3.787   9.928
 7257SOL    HW122103   4.020   3.881   9.961
 7257SOL    HW222104   4.026   3.724  10.005
 7258SOL     OW22105   4.063   4.233  10.316
 7258SOL    HW122106   4.011   4.150  10.299
 7258SOL    HW222107   4.140   4.238  10.252
 7259SOL     OW22108   3.764   4.268  10.424
 7259SOL    HW122109   3.849   4.235  10.383
 7259SOL    HW222110   3.777   4.283  10.522
 7260SOL     OW22111   3.913   4.244  11.032
 7260SOL    HW122112   3.972   4.204  10.962
 7260SOL    HW222113   3.855   4.315  10.991
 7261SOL     OW22114   4.539   4.296   9.635
 7261SOL    HW122115   4.546   4.207   9.589
 7261SOL    HW222116   4.445   4.330   9.627
 7262SOL     OW22117   3.987   4.050  10.030
 7262SOL    HW122118   3.908   4.101   9.996
 7262SOL    HW222119   3.978   4.035  10.128
 7263SOL     OW22120   3.799   4.069   9.343
 7263SOL    HW122121   3.707   4.041   9.314
 7263SOL    HW222122   3.830   4.146   9.287
 7264SOL     OW22123   3.796   3.890   9.628
 7264SOL    HW122124   3.779   3.973   9.574
 7264SOL    HW222125   3.886   3.853   9.606
 7265SOL     OW22126   4.152   4.148   9.830
 7265SOL    HW122127   4.182   4.076   9.768
 7265SOL    HW222128   4.113   4.108   9.913
 7266SOL     OW22129   4.041   4.271  10.590
 7266SOL    HW122130   4.079   4.212  10.662
 7266SOL    HW222131   4.081   4.245  10.502
 7267SOL     OW22132   3.949   3.999  12.168
 7267SOL    HW122133   3.984   3.982  12.260
 7267SOL    HW222134   3.861   3.954  12.156
 7268SOL     OW22135   3.743   4.092  11.819
 7268SOL    HW122136   3.661   4.135  11.858
 7268SOL    HW222137   3.715   4.019  11.756
 7269SOL     OW22138   3.846   4.367  11.735
 7269SOL    HW122139   3.801   4.279  11.752
 7269SOL    HW222140   3.845   4.421  11.819
 7270SOL     OW22141   4.589   4.072  11.367
 7270SOL    HW122142   4.648   4.135  11.318
 7270SOL    HW222143   4.608   3.978  11.338
 7271SOL     OW22144   4.338   3.846  11.289
 7271SOL    HW122145   4.436   3.824  11.296
 7271SOL    HW222146   4.307   3.829  11.196
 7272SOL     OW22147   4.263   3.788  11.684
 7272SOL    HW122148   4.182   3.789  11.742
 7272SOL    HW222149   4.266   3.871  11.629
 7273SOL     OW22150   4.021   3.759  11.343
 7273SOL    HW122151   4.070   3.843  11.322
 7273SOL    HW222152   4.083   3.694  11.388
 7274SOL     OW22153   4.290   4.261  12.037
 7274SOL    HW122154   4.302   4.327  11.963
 7274SOL    HW222155   4.336   4.295  12.120
 7275SOL     OW22156   4.031   3.787  11.790
 7275SOL    HW122157   4.020   3.881  11.823
 7275SOL    HW222158   4.026   3.724  11.867
 7276SOL     OW22159   4.539   4.296  11.497
 7276SOL    HW122160   4.546   4.207  11.451
 7276SOL    HW222161   4.445   4.330  11.489
 7277SOL     OW22162   3.987   4.050  11.892
 7277SOL    HW122163   3.908   4.101  11.858
 7277SOL    HW222164   3.978   4.035  11.990
 7278SOL     OW22165   3.799   4.069  11.205
 7278SOL    HW122166   3.707   4.041  11.176
 7278SOL    HW222167   3.830   4.146  11.149
 7279SOL     OW22168   3.796   3.890  11.490
 7279SOL    HW122169   3.779   3.973  11.436
 7279SOL    HW222170   3.886   3.853  11.468
 7280SOL     OW22171   4.152   4.148  11.692
 7280SOL    HW122172   4.182   4.076  11.630
 7280SOL    HW222173   4.113   4.108  11.775
   4.33000   4.33000  12.03556
