Built with Packmol
22167
    1LIG      O    1   1.977   2.120   0.066
    1LIG      C    2   2.042   2.170   0.217
    1LIG     C1    3   1.971   2.117   0.377
    1LIG     O1    4   2.035   2.167   0.530
    1LIG     C2    5   1.970   2.118   0.681
    1LIG     C3    6   2.041   2.173   0.838
    1LIG     O2    7   1.977   2.125   0.990
    1LIG     C4    8   2.040   2.175   1.142
    1LIG     C5    9   1.968   2.120   1.300
    1LIG     O3   10   2.031   2.170   1.452
    1LIG     C6   11   1.966   2.121   1.603
    1LIG     C7   12   2.038   2.177   1.760
    1LIG     O4   13   1.974   2.129   1.913
    1LIG     C8   14   2.038   2.179   2.065
    1LIG     C9   15   1.965   2.123   2.221
    1LIG     O5   16   2.029   2.173   2.373
    1LIG    C10   17   1.965   2.124   2.525
    1LIG    C11   18   2.037   2.180   2.682
    1LIG     O6   19   1.973   2.131   2.833
    1LIG    C12   20   2.036   2.180   2.985
    1LIG    C13   21   1.963   2.125   3.142
    1LIG     O7   22   2.027   2.174   3.294
    1LIG    C14   23   1.963   2.125   3.446
    1LIG    C15   24   2.035   2.180   3.604
    1LIG     O8   25   1.971   2.131   3.757
    1LIG    C16   26   2.035   2.181   3.908
    1LIG    C17   27   1.964   2.126   4.066
    1LIG     O9   28   2.027   2.175   4.219
    1LIG    C18   29   1.962   2.126   4.369
    1LIG    C19   30   2.034   2.181   4.526
    1LIG    O10   31   1.971   2.132   4.678
    1LIG    C20   32   2.035   2.182   4.830
    1LIG    C21   33   1.962   2.126   4.986
    1LIG    O11   34   2.026   2.175   5.138
    1LIG    C22   35   1.962   2.126   5.290
    1LIG    C23   36   2.034   2.182   5.447
    1LIG    O12   37   1.970   2.133   5.598
    1LIG    C24   38   2.034   2.182   5.751
    1LIG    C25   39   1.962   2.127   5.909
    1LIG    O13   40   2.025   2.176   6.061
    1LIG    C26   41   1.961   2.127   6.212
    1LIG    C27   42   2.033   2.182   6.369
    1LIG    O14   43   1.969   2.133   6.521
    1LIG    C28   44   2.034   2.182   6.673
    1LIG    C29   45   1.962   2.126   6.831
    1LIG    O15   46   2.026   2.175   6.983
    1LIG    C30   47   1.962   2.126   7.134
    1LIG    C31   48   2.034   2.181   7.291
    1LIG    O16   49   1.970   2.132   7.442
    1LIG    C32   50   2.034   2.181   7.594
    1LIG    C33   51   1.962   2.126   7.752
    1LIG    O17   52   2.026   2.175   7.904
    1LIG    C34   53   1.962   2.125   8.056
    1LIG    C35   54   2.034   2.180   8.213
    1LIG    O18   55   1.970   2.131   8.365
    1LIG    C36   56   2.034   2.180   8.516
    1LIG    C37   57   1.963   2.125   8.674
    1LIG    O19   58   2.027   2.174   8.827
    1LIG    C38   59   1.963   2.124   8.978
    1LIG    C39   60   2.034   2.179   9.136
    1LIG    O20   61   1.971   2.130   9.288
    1LIG    C40   62   2.035   2.179   9.439
    1LIG    C41   63   1.964   2.124   9.597
    1LIG    O21   64   2.027   2.173   9.749
    1LIG    C42   65   1.963   2.123   9.900
    1LIG    C43   66   2.035   2.178  10.057
    1LIG    O22   67   1.972   2.129  10.209
    1LIG    C44   68   2.036   2.178  10.361
    1LIG    C45   69   1.964   2.122  10.518
    1LIG    O23   70   2.028   2.171  10.670
    1LIG    C46   71   1.964   2.122  10.822
    1LIG    C47   72   2.037   2.178  10.979
    1LIG    O24   73   1.973   2.128  11.130
    1LIG    C48   74   2.036   2.177  11.282
    1LIG    C49   75   1.964   2.121  11.439
    1LIG    O25   76   2.028   2.170  11.591
    1LIG    C50   77   1.965   2.121  11.743
    1LIG    C51   78   2.037   2.177  11.900
    1LIG    O26   79   1.974   2.127  12.051
    1LIG    C52   80   2.037   2.176  12.204
    1LIG    C53   81   1.965   2.119  12.360
    1LIG    O27   82   2.029   2.169  12.512
    1LIG    C54   83   1.966   2.119  12.664
    1LIG    C55   84   2.038   2.175  12.822
    1LIG    O28   85   1.974   2.125  12.974
    1LIG    C56   86   2.038   2.174  13.127
    1LIG    C57   87   1.967   2.118  13.285
    1LIG    O29   88   2.031   2.167  13.438
    1LIG    C58   89   1.967   2.117  13.589
    1LIG    C59   90   2.038   2.172  13.747
    1LIG      H   91   2.039   2.280   0.214
    1LIG     H1   92   2.147   2.139   0.215
    1LIG     H2   93   1.974   2.008   0.377
    1LIG     H3   94   1.866   2.148   0.375
    1LIG     H4   95   1.973   2.008   0.683
    1LIG     H5   96   1.865   2.149   0.682
    1LIG     H6   97   2.039   2.283   0.836
    1LIG     H7   98   2.147   2.142   0.837
    1LIG     H8   99   2.038   2.284   1.143
    1LIG     H9  100   2.145   2.144   1.145
    1LIG    H10  101   1.971   2.011   1.299
    1LIG    H11  102   1.863   2.151   1.297
    1LIG    H12  103   1.969   2.012   1.606
    1LIG    H13  104   1.861   2.152   1.604
    1LIG    H14  105   2.035   2.287   1.758
    1LIG    H15  106   2.143   2.146   1.759
    1LIG    H16  107   2.035   2.288   2.066
    1LIG    H17  108   2.143   2.148   2.067
    1LIG    H18  109   1.968   2.014   2.219
    1LIG    H19  110   1.860   2.154   2.219
    1LIG    H20  111   1.967   2.014   2.527
    1LIG    H21  112   1.859   2.155   2.527
    1LIG    H22  113   2.034   2.289   2.679
    1LIG    H23  114   2.142   2.149   2.680
    1LIG    H24  115   2.033   2.289   2.987
    1LIG    H25  116   2.141   2.149   2.988
    1LIG    H26  117   1.966   2.015   3.141
    1LIG    H27  118   1.858   2.156   3.140
    1LIG    H28  119   1.966   2.015   3.448
    1LIG    H29  120   1.858   2.156   3.448
    1LIG    H30  121   2.032   2.290   3.602
    1LIG    H31  122   2.140   2.149   3.603
    1LIG    H32  123   2.032   2.291   3.909
    1LIG    H33  124   2.140   2.150   3.910
    1LIG    H34  125   1.966   2.017   4.064
    1LIG    H35  126   1.858   2.157   4.064
    1LIG    H36  127   1.965   2.016   4.371
    1LIG    H37  128   1.857   2.157   4.371
    1LIG    H38  129   2.031   2.291   4.524
    1LIG    H39  130   2.139   2.150   4.524
    1LIG    H40  131   2.032   2.291   4.832
    1LIG    H41  132   2.140   2.151   4.832
    1LIG    H42  133   1.965   2.017   4.985
    1LIG    H43  134   1.857   2.157   4.984
    1LIG    H44  135   1.965   2.017   5.292
    1LIG    H45  136   1.857   2.157   5.292
    1LIG    H46  137   2.031   2.292   5.445
    1LIG    H47  138   2.140   2.151   5.445
    1LIG    H48  139   2.031   2.291   5.753
    1LIG    H49  140   2.139   2.151   5.753
    1LIG    H50  141   1.965   2.017   5.907
    1LIG    H51  142   1.857   2.158   5.907
    1LIG    H52  143   1.964   2.017   6.214
    1LIG    H53  144   1.856   2.158   6.214
    1LIG    H54  145   2.030   2.292   6.368
    1LIG    H55  146   2.138   2.151   6.367
    1LIG    H56  147   2.031   2.291   6.675
    1LIG    H57  148   2.139   2.151   6.675
    1LIG    H58  149   1.965   2.017   6.829
    1LIG    H59  150   1.857   2.157   6.830
    1LIG    H60  151   1.965   2.016   7.136
    1LIG    H61  152   1.857   2.157   7.136
    1LIG    H62  153   2.031   2.291   7.289
    1LIG    H63  154   2.139   2.150   7.289
    1LIG    H64  155   2.031   2.290   7.596
    1LIG    H65  156   2.139   2.150   7.596
    1LIG    H66  157   1.965   2.016   7.750
    1LIG    H67  158   1.857   2.157   7.751
    1LIG    H68  159   1.965   2.016   8.057
    1LIG    H69  160   1.857   2.156   8.057
    1LIG    H70  161   2.031   2.290   8.212
    1LIG    H71  162   2.139   2.150   8.211
    1LIG    H72  163   2.031   2.290   8.518
    1LIG    H73  164   2.140   2.150   8.518
    1LIG    H74  165   1.966   2.016   8.673
    1LIG    H75  166   1.858   2.156   8.673
    1LIG    H76  167   1.966   2.015   8.979
    1LIG    H77  168   1.858   2.155   8.979
    1LIG    H78  169   2.031   2.288   9.134
    1LIG    H79  170   2.140   2.148   9.134
    1LIG    H80  171   2.032   2.289   9.441
    1LIG    H81  172   2.140   2.149   9.440
    1LIG    H82  173   1.967   2.014   9.595
    1LIG    H83  174   1.858   2.154   9.595
    1LIG    H84  175   1.967   2.013   9.902
    1LIG    H85  176   1.858   2.153   9.902
    1LIG    H86  177   2.032   2.288  10.055
    1LIG    H87  178   2.141   2.148  10.055
    1LIG    H88  179   2.033   2.288  10.363
    1LIG    H89  180   2.141   2.148  10.363
    1LIG    H90  181   1.967   2.013  10.516
    1LIG    H91  182   1.859   2.153  10.516
    1LIG    H92  183   1.968   2.012  10.824
    1LIG    H93  184   1.859   2.152  10.824
    1LIG    H94  185   2.033   2.287  10.977
    1LIG    H95  186   2.142   2.147  10.977
    1LIG    H96  187   2.033   2.286  11.285
    1LIG    H97  188   2.141   2.146  11.284
    1LIG    H98  189   1.968   2.011  11.437
    1LIG    H99  190   1.859   2.151  11.438
    1LIG   H100  191   1.968   2.011  11.745
    1LIG   H101  192   1.860   2.151  11.746
    1LIG   H102  193   2.034   2.286  11.898
    1LIG   H103  194   2.142   2.146  11.898
    1LIG   H104  195   2.034   2.285  12.206
    1LIG   H105  196   2.142   2.145  12.206
    1LIG   H106  197   1.969   2.010  12.358
    1LIG   H107  198   1.860   2.150  12.359
    1LIG   H108  199   1.970   2.010  12.666
    1LIG   H109  200   1.861   2.150  12.666
    1LIG   H110  201   2.034   2.284  12.821
    1LIG   H111  202   2.143   2.144  12.820
    1LIG   H112  203   2.035   2.284  13.128
    1LIG   H113  204   2.144   2.144  13.128
    1LIG   H114  205   1.971   2.009  13.283
    1LIG   H115  206   1.862   2.149  13.284
    1LIG   H116  207   1.971   2.007  13.589
    1LIG   H117  208   1.862   2.149  13.590
    1LIG   H118  209   2.143   2.142  13.747
    1LIG   H119  210   1.991   2.135  13.866
    1LIG      O  211   1.977   1.820   0.066
    1LIG      C  212   2.042   1.870   0.217
    1LIG     C1  213   1.971   1.817   0.377
    1LIG     O1  214   2.035   1.867   0.530
    1LIG     C2  215   1.970   1.818   0.681
    1LIG     C3  216   2.041   1.873   0.838
    1LIG     O2  217   1.977   1.825   0.990
    1LIG     C4  218   2.040   1.875   1.142
    1LIG     C5  219   1.968   1.820   1.300
    1LIG     O3  220   2.031   1.870   1.452
    1LIG     C6  221   1.966   1.821   1.603
    1LIG     C7  222   2.038   1.877   1.760
    1LIG     O4  223   1.974   1.829   1.913
    1LIG     C8  224   2.038   1.879   2.065
    1LIG     C9  225   1.965   1.823   2.221
    1LIG     O5  226   2.029   1.873   2.373
    1LIG    C10  227   1.965   1.824   2.525
    1LIG    C11  228   2.037   1.880   2.682
    1LIG     O6  229   1.973   1.831   2.833
    1LIG    C12  230   2.036   1.880   2.985
    1LIG    C13  231   1.963   1.825   3.142
    1LIG     O7  232   2.027   1.874   3.294
    1LIG    C14  233   1.963   1.825   3.446
    1LIG    C15  234   2.035   1.880   3.604
    1LIG     O8  235   1.971   1.831   3.757
    1LIG    C16  236   2.035   1.881   3.908
    1LIG    C17  237   1.964   1.826   4.066
    1LIG     O9  238   2.027   1.875   4.219
    1LIG    C18  239   1.962   1.826   4.369
    1LIG    C19  240   2.034   1.881   4.526
    1LIG    O10  241   1.971   1.832   4.678
    1LIG    C20  242   2.035   1.882   4.830
    1LIG    C21  243   1.962   1.826   4.986
    1LIG    O11  244   2.026   1.875   5.138
    1LIG    C22  245   1.962   1.826   5.290
    1LIG    C23  246   2.034   1.882   5.447
    1LIG    O12  247   1.970   1.833   5.598
    1LIG    C24  248   2.034   1.882   5.751
    1LIG    C25  249   1.962   1.827   5.909
    1LIG    O13  250   2.025   1.876   6.061
    1LIG    C26  251   1.961   1.827   6.212
    1LIG    C27  252   2.033   1.882   6.369
    1LIG    O14  253   1.969   1.833   6.521
    1LIG    C28  254   2.034   1.882   6.673
    1LIG    C29  255   1.962   1.826   6.831
    1LIG    O15  256   2.026   1.875   6.983
    1LIG    C30  257   1.962   1.826   7.134
    1LIG    C31  258   2.034   1.881   7.291
    1LIG    O16  259   1.970   1.832   7.442
    1LIG    C32  260   2.034   1.881   7.594
    1LIG    C33  261   1.962   1.826   7.752
    1LIG    O17  262   2.026   1.875   7.904
    1LIG    C34  263   1.962   1.825   8.056
    1LIG    C35  264   2.034   1.880   8.213
    1LIG    O18  265   1.970   1.831   8.365
    1LIG    C36  266   2.034   1.880   8.516
    1LIG    C37  267   1.963   1.825   8.674
    1LIG    O19  268   2.027   1.874   8.827
    1LIG    C38  269   1.963   1.824   8.978
    1LIG    C39  270   2.034   1.879   9.136
    1LIG    O20  271   1.971   1.830   9.288
    1LIG    C40  272   2.035   1.879   9.439
    1LIG    C41  273   1.964   1.824   9.597
    1LIG    O21  274   2.027   1.873   9.749
    1LIG    C42  275   1.963   1.823   9.900
    1LIG    C43  276   2.035   1.878  10.057
    1LIG    O22  277   1.972   1.829  10.209
    1LIG    C44  278   2.036   1.878  10.361
    1LIG    C45  279   1.964   1.822  10.518
    1LIG    O23  280   2.028   1.871  10.670
    1LIG    C46  281   1.964   1.822  10.822
    1LIG    C47  282   2.037   1.878  10.979
    1LIG    O24  283   1.973   1.828  11.130
    1LIG    C48  284   2.036   1.877  11.282
    1LIG    C49  285   1.964   1.821  11.439
    1LIG    O25  286   2.028   1.870  11.591
    1LIG    C50  287   1.965   1.821  11.743
    1LIG    C51  288   2.037   1.877  11.900
    1LIG    O26  289   1.974   1.827  12.051
    1LIG    C52  290   2.037   1.876  12.204
    1LIG    C53  291   1.965   1.819  12.360
    1LIG    O27  292   2.029   1.869  12.512
    1LIG    C54  293   1.966   1.819  12.664
    1LIG    C55  294   2.038   1.875  12.822
    1LIG    O28  295   1.974   1.825  12.974
    1LIG    C56  296   2.038   1.874  13.127
    1LIG    C57  297   1.967   1.818  13.285
    1LIG    O29  298   2.031   1.867  13.438
    1LIG    C58  299   1.967   1.817  13.589
    1LIG    C59  300   2.038   1.872  13.747
    1LIG      H  301   2.039   1.980   0.214
    1LIG     H1  302   2.147   1.839   0.215
    1LIG     H2  303   1.974   1.708   0.377
    1LIG     H3  304   1.866   1.848   0.375
    1LIG     H4  305   1.973   1.708   0.683
    1LIG     H5  306   1.865   1.849   0.682
    1LIG     H6  307   2.039   1.983   0.836
    1LIG     H7  308   2.147   1.842   0.837
    1LIG     H8  309   2.038   1.984   1.143
    1LIG     H9  310   2.145   1.844   1.145
    1LIG    H10  311   1.971   1.711   1.299
    1LIG    H11  312   1.863   1.851   1.297
    1LIG    H12  313   1.969   1.712   1.606
    1LIG    H13  314   1.861   1.852   1.604
    1LIG    H14  315   2.035   1.987   1.758
    1LIG    H15  316   2.143   1.846   1.759
    1LIG    H16  317   2.035   1.988   2.066
    1LIG    H17  318   2.143   1.848   2.067
    1LIG    H18  319   1.968   1.714   2.219
    1LIG    H19  320   1.860   1.854   2.219
    1LIG    H20  321   1.967   1.714   2.527
    1LIG    H21  322   1.859   1.855   2.527
    1LIG    H22  323   2.034   1.989   2.679
    1LIG    H23  324   2.142   1.849   2.680
    1LIG    H24  325   2.033   1.989   2.987
    1LIG    H25  326   2.141   1.849   2.988
    1LIG    H26  327   1.966   1.715   3.141
    1LIG    H27  328   1.858   1.856   3.140
    1LIG    H28  329   1.966   1.715   3.448
    1LIG    H29  330   1.858   1.856   3.448
    1LIG    H30  331   2.032   1.990   3.602
    1LIG    H31  332   2.140   1.849   3.603
    1LIG    H32  333   2.032   1.991   3.909
    1LIG    H33  334   2.140   1.850   3.910
    1LIG    H34  335   1.966   1.717   4.064
    1LIG    H35  336   1.858   1.857   4.064
    1LIG    H36  337   1.965   1.716   4.371
    1LIG    H37  338   1.857   1.857   4.371
    1LIG    H38  339   2.031   1.991   4.524
    1LIG    H39  340   2.139   1.850   4.524
    1LIG    H40  341   2.032   1.991   4.832
    1LIG    H41  342   2.140   1.851   4.832
    1LIG    H42  343   1.965   1.717   4.985
    1LIG    H43  344   1.857   1.857   4.984
    1LIG    H44  345   1.965   1.717   5.292
    1LIG    H45  346   1.857   1.857   5.292
    1LIG    H46  347   2.031   1.992   5.445
    1LIG    H47  348   2.140   1.851   5.445
    1LIG    H48  349   2.031   1.991   5.753
    1LIG    H49  350   2.139   1.851   5.753
    1LIG    H50  351   1.965   1.717   5.907
    1LIG    H51  352   1.857   1.858   5.907
    1LIG    H52  353   1.964   1.717   6.214
    1LIG    H53  354   1.856   1.858   6.214
    1LIG    H54  355   2.030   1.992   6.368
    1LIG    H55  356   2.138   1.851   6.367
    1LIG    H56  357   2.031   1.991   6.675
    1LIG    H57  358   2.139   1.851   6.675
    1LIG    H58  359   1.965   1.717   6.829
    1LIG    H59  360   1.857   1.857   6.830
    1LIG    H60  361   1.965   1.716   7.136
    1LIG    H61  362   1.857   1.857   7.136
    1LIG    H62  363   2.031   1.991   7.289
    1LIG    H63  364   2.139   1.850   7.289
    1LIG    H64  365   2.031   1.990   7.596
    1LIG    H65  366   2.139   1.850   7.596
    1LIG    H66  367   1.965   1.716   7.750
    1LIG    H67  368   1.857   1.857   7.751
    1LIG    H68  369   1.965   1.716   8.057
    1LIG    H69  370   1.857   1.856   8.057
    1LIG    H70  371   2.031   1.990   8.212
    1LIG    H71  372   2.139   1.850   8.211
    1LIG    H72  373   2.031   1.990   8.518
    1LIG    H73  374   2.140   1.850   8.518
    1LIG    H74  375   1.966   1.716   8.673
    1LIG    H75  376   1.858   1.856   8.673
    1LIG    H76  377   1.966   1.715   8.979
    1LIG    H77  378   1.858   1.855   8.979
    1LIG    H78  379   2.031   1.988   9.134
    1LIG    H79  380   2.140   1.848   9.134
    1LIG    H80  381   2.032   1.989   9.441
    1LIG    H81  382   2.140   1.849   9.440
    1LIG    H82  383   1.967   1.714   9.595
    1LIG    H83  384   1.858   1.854   9.595
    1LIG    H84  385   1.967   1.713   9.902
    1LIG    H85  386   1.858   1.853   9.902
    1LIG    H86  387   2.032   1.988  10.055
    1LIG    H87  388   2.141   1.848  10.055
    1LIG    H88  389   2.033   1.988  10.363
    1LIG    H89  390   2.141   1.848  10.363
    1LIG    H90  391   1.967   1.713  10.516
    1LIG    H91  392   1.859   1.853  10.516
    1LIG    H92  393   1.968   1.712  10.824
    1LIG    H93  394   1.859   1.852  10.824
    1LIG    H94  395   2.033   1.987  10.977
    1LIG    H95  396   2.142   1.847  10.977
    1LIG    H96  397   2.033   1.986  11.285
    1LIG    H97  398   2.141   1.846  11.284
    1LIG    H98  399   1.968   1.711  11.437
    1LIG    H99  400   1.859   1.851  11.438
    1LIG   H100  401   1.968   1.711  11.745
    1LIG   H101  402   1.860   1.851  11.746
    1LIG   H102  403   2.034   1.986  11.898
    1LIG   H103  404   2.142   1.846  11.898
    1LIG   H104  405   2.034   1.985  12.206
    1LIG   H105  406   2.142   1.845  12.206
    1LIG   H106  407   1.969   1.710  12.358
    1LIG   H107  408   1.860   1.850  12.359
    1LIG   H108  409   1.970   1.710  12.666
    1LIG   H109  410   1.861   1.850  12.666
    1LIG   H110  411   2.034   1.984  12.821
    1LIG   H111  412   2.143   1.844  12.820
    1LIG   H112  413   2.035   1.984  13.128
    1LIG   H113  414   2.144   1.844  13.128
    1LIG   H114  415   1.971   1.709  13.283
    1LIG   H115  416   1.862   1.849  13.284
    1LIG   H116  417   1.971   1.707  13.589
    1LIG   H117  418   1.862   1.849  13.590
    1LIG   H118  419   2.143   1.842  13.747
    1LIG   H119  420   1.991   1.835  13.866
    1MOL     C1  421   1.479   1.547   6.846
    1MOL     H1  422   1.457   1.440   6.836
    1MOL     O1  423   1.433   1.580   6.976
    1MOL     C2  424   1.453   1.718   7.012
    1MOL     H2  425   1.559   1.745   6.998
    1MOL     C3  426   1.422   1.731   7.160
    1MOL     H3  427   1.455   1.830   7.195
    1MOL     H4  428   1.478   1.654   7.215
    1MOL     O2  429   1.282   1.716   7.182
    1MOL     C4  430   1.247   1.733   7.318
    1MOL     C5  431   1.397   1.628   6.743
    1MOL     H5  432   1.294   1.592   6.751
    1MOL     O3  433   1.443   1.613   6.610
    1MOL     C6  434   1.413   1.489   6.550
    1MOL     C7  435   1.396   1.779   6.773
    1MOL     H6  436   1.494   1.821   6.749
    1MOL     O4  437   1.294   1.839   6.695
    1MOL     C8  438   1.341   1.930   6.597
    1MOL     C9  439   1.366   1.807   6.921
    1MOL     H7  440   1.261   1.783   6.940
    1MOL     O5  441   1.391   1.946   6.943
    1MOL    C10  442   1.305   2.015   7.032
    1MOL     H8  443   1.227   1.948   7.067
    1MOL     O6  444   1.374   2.055   7.149
    1MOL    C11  445   1.485   2.143   7.125
    1MOL     H9  446   1.555   2.095   7.055
    1MOL    C12  447   1.558   2.162   7.257
    1MOL    H10  448   1.654   2.210   7.238
    1MOL    H11  449   1.576   2.063   7.302
    1MOL     O7  450   1.480   2.242   7.344
    1MOL    C13  451   1.546   2.270   7.465
    1MOL    C14  452   1.245   2.139   6.963
    1MOL    H12  453   1.170   2.180   7.032
    1MOL     O8  454   1.185   2.111   6.838
    1MOL    C15  455   1.061   2.044   6.845
    1MOL    C16  456   1.349   2.249   6.938
    1MOL    H13  457   1.415   2.216   6.857
    1MOL     O9  458   1.283   2.369   6.904
    1MOL    C17  459   1.297   2.409   6.769
    1MOL    C18  460   1.435   2.275   7.062
    1MOL    H14  461   1.374   2.327   7.136
    1MOL    O10  462   1.544   2.357   7.021
    1MOL    C19  463   1.585   2.462   7.106
    1MOL    H15  464   1.518   2.469   7.192
    1MOL    O11  465   1.713   2.436   7.163
    1MOL    C20  466   1.818   2.422   7.068
    1MOL    H16  467   1.792   2.343   6.995
    1MOL    C21  468   1.941   2.373   7.143
    1MOL    H17  469   2.017   2.341   7.070
    1MOL    H18  470   1.912   2.286   7.203
    1MOL    O12  471   1.991   2.476   7.227
    1MOL    C22  472   2.092   2.430   7.314
    1MOL    C23  473   1.591   2.595   7.028
    1MOL    H19  474   1.613   2.674   7.102
    1MOL    O13  475   1.472   2.625   6.959
    1MOL    C24  476   1.364   2.666   7.042
    1MOL    C25  477   1.705   2.595   6.926
    1MOL    H20  478   1.682   2.523   6.846
    1MOL    O14  479   1.719   2.726   6.871
    1MOL    C26  480   1.663   2.742   6.741
    1MOL    C27  481   1.838   2.554   6.991
    1MOL    H21  482   1.872   2.631   7.061
    1MOL    O15  483   1.938   2.530   6.891
    1MOL    C28  484   2.010   2.644   6.848
    1MOL    H22  485   1.944   2.730   6.844
    1MOL    O16  486   2.113   2.681   6.938
    1MOL    C29  487   2.213   2.581   6.961
    1MOL    H23  488   2.167   2.491   7.004
    1MOL    C30  489   2.307   2.639   7.066
    1MOL    H24  490   2.371   2.559   7.107
    1MOL    H25  491   2.245   2.680   7.147
    1MOL    O17  492   2.388   2.740   7.008
    1MOL    C31  493   2.472   2.802   7.103
    1MOL    C32  494   2.070   2.614   6.710
    1MOL    H26  495   2.119   2.706   6.676
    1MOL    O18  496   1.966   2.577   6.621
    1MOL    C33  497   1.980   2.629   6.490
    1MOL    C34  498   2.178   2.505   6.721
    1MOL    H27  499   2.129   2.411   6.749
    1MOL    O19  500   2.241   2.492   6.594
    1MOL    C35  501   2.256   2.358   6.548
    1MOL    C36  502   2.282   2.542   6.828
    1MOL    H28  503   2.339   2.628   6.791
    1MOL    O20  504   2.369   2.429   6.844
    1MOL    C37  505   2.503   2.455   6.879
    1MOL    H29  506   2.521   2.563   6.881
    1MOL    O21  507   2.532   2.412   7.011
    1MOL    C38  508   2.515   2.271   7.032
    1MOL    H30  509   2.413   2.243   7.003
    1MOL    C39  510   2.528   2.246   7.182
    1MOL    H31  511   2.495   2.144   7.204
    1MOL    H32  512   2.463   2.317   7.236
    1MOL    O22  513   2.663   2.263   7.221
    1MOL    C40  514   2.684   2.230   7.357
    1MOL    C41  515   2.600   2.385   6.781
    1MOL    H33  516   2.701   2.423   6.804
    1MOL    O23  517   2.569   2.410   6.645
    1MOL    C42  518   2.601   2.540   6.598
    1MOL    C43  519   2.604   2.233   6.799
    1MOL    H34  520   2.511   2.190   6.759
    1MOL    O24  521   2.716   2.182   6.729
    1MOL    C44  522   2.685   2.102   6.616
    1MOL    C45  523   2.616   2.194   6.946
    1MOL    H35  524   2.717   2.219   6.981
    1MOL    O25  525   2.595   2.052   6.954
    1MOL    C46  526   2.677   1.979   7.044
    1MOL    H36  527   2.752   2.045   7.088
    1MOL    O26  528   2.603   1.930   7.154
    1MOL    C47  529   2.497   1.840   7.121
    1MOL    H37  530   2.428   1.888   7.050
    1MOL    C48  531   2.419   1.811   7.249
    1MOL    H38  532   2.324   1.763   7.224
    1MOL    H39  533   2.397   1.908   7.298
    1MOL    O27  534   2.496   1.729   7.334
    1MOL    C49  535   2.423   1.689   7.449
    1MOL    C50  536   2.743   1.860   6.971
    1MOL    H40  537   2.816   1.817   7.041
    1MOL    O28  538   2.809   1.897   6.851
    1MOL    C51  539   2.931   1.967   6.869
    1MOL    C52  540   2.643   1.750   6.935
    1MOL    H41  541   2.578   1.786   6.854
    1MOL    O29  542   2.714   1.634   6.894
    1MOL    C53  543   2.709   1.608   6.755
    1MOL    C54  544   2.556   1.714   7.055
    1MOL    H42  545   2.618   1.663   7.130
    1MOL    O30  546   2.453   1.625   7.010
    1MOL    C55  547   2.429   1.508   7.084
    1MOL    H43  548   2.509   1.493   7.157
    1MOL    O31  549   2.311   1.515   7.161
    1MOL    C56  550   2.189   1.534   7.087
    1MOL    H44  551   2.193   1.629   7.032
    1MOL    C57  552   2.078   1.539   7.190
    1MOL    H45  553   2.093   1.457   7.263
    1MOL    H46  554   1.981   1.523   7.142
    1MOL    O32  555   2.081   1.665   7.256
    1MOL    C58  556   1.980   1.676   7.354
    1MOL    C59  557   2.419   1.386   6.989
    1MOL    H47  558   2.408   1.297   7.054
    1MOL    O33  559   2.531   1.369   6.905
    1MOL    C60  560   2.648   1.322   6.970
    1MOL    C61  561   2.294   1.394   6.901
    1MOL    H48  562   2.305   1.478   6.831
    1MOL    O34  563   2.274   1.272   6.831
    1MOL    C62  564   2.326   1.269   6.699
    1MOL    C63  565   2.168   1.419   6.986
    1MOL    H49  566   2.145   1.327   7.041
    1MOL    O35  567   2.058   1.454   6.901
    1MOL    C64  568   1.975   1.347   6.862
    1MOL    H50  569   2.032   1.254   6.863
    1MOL    O36  570   1.869   1.326   6.954
    1MOL    C65  571   1.774   1.432   6.966
    1MOL    H51  572   1.824   1.525   6.995
    1MOL    C66  573   1.679   1.391   7.078
    1MOL    H52  574   1.654   1.284   7.065
    1MOL    H53  575   1.587   1.449   7.075
    1MOL    O37  576   1.746   1.411   7.202
    1MOL    C67  577   1.673   1.359   7.311
    1MOL    C68  578   1.917   1.371   6.722
    1MOL    H54  579   1.867   1.278   6.694
    1MOL    O38  580   2.022   1.400   6.630
    1MOL    C69  581   2.010   1.332   6.506
    1MOL    C70  582   1.812   1.483   6.723
    1MOL    H55  583   1.862   1.578   6.746
    1MOL    O39  584   1.752   1.489   6.594
    1MOL    C71  585   1.759   1.616   6.532
    1MOL    C72  586   1.705   1.456   6.830
    1MOL    H56  587   1.648   1.367   6.801
    1MOL    O40  588   1.617   1.570   6.831
    1MOL    H57  589   1.138   1.719   7.324
    1MOL    H58  590   1.296   1.658   7.382
    1MOL    H59  591   1.273   1.833   7.354
    1MOL    H60  592   1.731   1.380   7.401
    1MOL    H61  593   1.574   1.407   7.321
    1MOL    H62  594   1.658   1.251   7.303
    1MOL    H63  595   1.985   1.778   7.394
    1MOL    H64  596   1.880   1.658   7.311
    1MOL    H65  597   1.996   1.605   7.436
    1MOL    H66  598   2.488   1.622   7.506
    1MOL    H67  599   2.397   1.775   7.512
    1MOL    H68  600   2.332   1.635   7.421
    1MOL    H69  601   2.790   2.246   7.379
    1MOL    H70  602   2.624   2.294   7.424
    1MOL    H71  603   2.658   2.125   7.377
    1MOL    H72  604   2.530   2.878   7.050
    1MOL    H73  605   2.414   2.851   7.183
    1MOL    H74  606   2.541   2.730   7.150
    1MOL    H75  607   2.124   2.516   7.374
    1MOL    H76  608   2.054   2.351   7.381
    1MOL    H77  609   2.179   2.390   7.260
    1MOL    H78  610   1.479   2.332   7.525
    1MOL    H79  611   1.569   2.178   7.521
    1MOL    H80  612   1.640   2.325   7.448
    1MOL    H81  613   1.239   2.501   6.757
    1MOL    H82  614   1.402   2.431   6.745
    1MOL    H83  615   1.258   2.333   6.700
    1MOL    H84  616   1.020   2.043   6.744
    1MOL    H85  617   1.071   1.940   6.879
    1MOL    H86  618   0.990   2.096   6.911
    1MOL    H87  619   1.252   1.968   6.544
    1MOL    H88  620   1.392   2.016   6.643
    1MOL    H89  621   1.407   1.881   6.524
    1MOL    H90  622   1.434   1.499   6.444
    1MOL    H91  623   1.475   1.407   6.590
    1MOL    H92  624   1.307   1.463   6.563
    1MOL    H93  625   1.712   1.606   6.433
    1MOL    H94  626   1.703   1.692   6.589
    1MOL    H95  627   1.863   1.648   6.518
    1MOL    H96  628   2.095   1.365   6.445
    1MOL    H97  629   2.016   1.223   6.519
    1MOL    H98  630   1.917   1.357   6.455
    1MOL    H99  631   2.297   1.173   6.657
    1MOL   H100  632   2.283   1.349   6.638
    1MOL   H101  633   2.435   1.278   6.699
    1MOL   H102  634   2.718   1.294   6.892
    1MOL   H103  635   2.695   1.400   7.032
    1MOL   H104  636   2.626   1.234   7.032
    1MOL   H105  637   2.772   1.519   6.738
    1MOL   H106  638   2.607   1.585   6.722
    1MOL   H107  639   2.750   1.692   6.697
    1MOL   H108  640   2.979   1.973   6.771
    1MOL   H109  641   2.916   2.069   6.907
    1MOL   H110  642   2.998   1.912   6.938
    1MOL   H111  643   2.780   2.072   6.572
    1MOL   H112  644   2.630   2.012   6.645
    1MOL   H113  645   2.627   2.159   6.542
    1MOL   H114  646   2.586   2.539   6.490
    1MOL   H115  647   2.535   2.616   6.641
    1MOL   H116  648   2.706   2.565   6.620
    1MOL   H117  649   2.303   2.364   6.450
    1MOL   H118  650   2.319   2.299   6.615
    1MOL   H119  651   2.158   2.309   6.537
    1MOL   H120  652   1.894   2.593   6.433
    1MOL   H121  653   1.979   2.740   6.490
    1MOL   H122  654   2.073   2.595   6.442
    1MOL   H123  655   1.679   2.847   6.713
    1MOL   H124  656   1.713   2.677   6.668
    1MOL   H125  657   1.555   2.721   6.742
    1MOL   H126  658   1.286   2.702   6.975
    1MOL   H127  659   1.323   2.583   7.101
    1MOL   H128  660   1.394   2.748   7.109
    2SOL     OW  661   0.230   0.628   0.113
    2SOL    HW1  662   0.137   0.626   0.150
    2SOL    HW2  663   0.231   0.589   0.021
    3SOL     OW  664   0.225   0.275   0.996
    3SOL    HW1  665   0.260   0.258   1.088
    3SOL    HW2  666   0.137   0.230   0.984
    4SOL     OW  667   0.019   0.368   0.647
    4SOL    HW1  668  -0.063   0.411   0.686
    4SOL    HW2  669  -0.009   0.295   0.584
    5SOL     OW  670   0.569   1.275   1.165
    5SOL    HW1  671   0.476   1.268   1.128
    5SOL    HW2  672   0.580   1.364   1.209
    6SOL     OW  673   1.555   1.511   0.703
    6SOL    HW1  674   1.498   1.495   0.784
    6SOL    HW2  675   1.496   1.521   0.623
    7SOL     OW  676   1.135   0.703   0.717
    7SOL    HW1  677   1.192   0.781   0.692
    7SOL    HW2  678   1.075   0.729   0.793
    8SOL     OW  679   1.755   0.607   0.231
    8SOL    HW1  680   1.743   0.594   0.132
    8SOL    HW2  681   1.725   0.526   0.280
    9SOL     OW  682   0.768   1.144   1.023
    9SOL    HW1  683   0.690   1.161   1.083
    9SOL    HW2  684   0.802   1.231   0.987
   10SOL     OW  685   0.850   0.798   1.823
   10SOL    HW1  686   0.846   0.874   1.888
   10SOL    HW2  687   0.872   0.834   1.732
   11SOL     OW  688   0.685   1.012   0.665
   11SOL    HW1  689   0.754   0.996   0.735
   11SOL    HW2  690   0.612   1.069   0.703
   12SOL     OW  691   0.686   1.161   1.803
   12SOL    HW1  692   0.746   1.240   1.817
   12SOL    HW2  693   0.600   1.192   1.762
   13SOL     OW  694   0.335   1.435   1.061
   13SOL    HW1  695   0.257   1.404   1.008
   13SOL    HW2  696   0.393   1.493   1.004
   14SOL     OW  697   1.460   1.505   1.339
   14SOL    HW1  698   1.484   1.599   1.365
   14SOL    HW2  699   1.444   1.451   1.421
   15SOL     OW  700   0.438   0.392   1.499
   15SOL    HW1  701   0.520   0.336   1.508
   15SOL    HW2  702   0.357   0.334   1.503
   16SOL     OW  703   1.603   0.447   0.737
   16SOL    HW1  704   1.529   0.493   0.687
   16SOL    HW2  705   1.654   0.515   0.790
   17SOL     OW  706   0.231   1.713   0.483
   17SOL    HW1  707   0.265   1.790   0.537
   17SOL    HW2  708   0.275   1.713   0.393
   18SOL     OW  709   1.127   1.341   1.690
   18SOL    HW1  710   1.174   1.341   1.778
   18SOL    HW2  711   1.079   1.254   1.679
   19SOL     OW  712   0.230   1.434   0.538
   19SOL    HW1  713   0.204   1.530   0.538
   19SOL    HW2  714   0.159   1.380   0.583
   20SOL     OW  715   0.240   1.091   0.886
   20SOL    HW1  716   0.254   1.007   0.938
   20SOL    HW2  717   0.185   1.155   0.941
   21SOL     OW  718   0.620   1.786   1.439
   21SOL    HW1  719   0.528   1.769   1.474
   21SOL    HW2  720   0.648   1.878   1.465
   22SOL     OW  721   0.606   0.964   0.123
   22SOL    HW1  722   0.613   1.048   0.069
   22SOL    HW2  723   0.652   0.977   0.211
   23SOL     OW  724   1.594   0.114   1.480
   23SOL    HW1  725   1.576   0.181   1.408
   23SOL    HW2  726   1.591   0.160   1.569
   24SOL     OW  727   0.122   0.643   0.563
   24SOL    HW1  728   0.077   0.555   0.580
   24SOL    HW2  729   0.121   0.697   0.647
   25SOL     OW  730   0.027   1.596   0.117
   25SOL    HW1  731   0.008   1.500   0.138
   25SOL    HW2  732  -0.006   1.654   0.192
   26SOL     OW  733   1.689   0.922   0.612
   26SOL    HW1  734   1.784   0.893   0.620
   26SOL    HW2  735   1.681   0.987   0.537
   27SOL     OW  736   1.641   1.108   0.432
   27SOL    HW1  737   1.727   1.110   0.380
   27SOL    HW2  738   1.655   1.155   0.520
   28SOL     OW  739   0.113   0.737   1.597
   28SOL    HW1  740   0.201   0.724   1.642
   28SOL    HW2  741   0.100   0.834   1.575
   29SOL     OW  742   0.613   1.365   0.726
   29SOL    HW1  743   0.564   1.278   0.735
   29SOL    HW2  744   0.590   1.408   0.639
   30SOL     OW  745   1.293   1.228   1.423
   30SOL    HW1  746   1.330   1.155   1.365
   30SOL    HW2  747   1.345   1.233   1.508
   31SOL     OW  748   0.809   0.004   0.502
   31SOL    HW1  749   0.849   0.095   0.493
   31SOL    HW2  750   0.709   0.012   0.508
   32SOL     OW  751   0.197   0.976   1.264
   32SOL    HW1  752   0.286   0.931   1.250
   32SOL    HW2  753   0.124   0.911   1.245
   33SOL     OW  754   1.525   0.999   0.190
   33SOL    HW1  755   1.462   0.923   0.203
   33SOL    HW2  756   1.573   1.017   0.276
   34SOL     OW  757   1.187   1.792   1.616
   34SOL    HW1  758   1.211   1.852   1.540
   34SOL    HW2  759   1.194   1.697   1.586
   35SOL     OW  760   0.317   0.251   1.801
   35SOL    HW1  761   0.388   0.322   1.807
   35SOL    HW2  762   0.229   0.290   1.829
   36SOL     OW  763   1.466   1.417   0.953
   36SOL    HW1  764   1.407   1.423   1.033
   36SOL    HW2  765   1.451   1.329   0.907
   37SOL     OW  766   1.667   1.714   0.572
   37SOL    HW1  767   1.626   1.691   0.484
   37SOL    HW2  768   1.649   1.640   0.637
   38SOL     OW  769   0.598   0.729   0.270
   38SOL    HW1  770   0.622   0.798   0.202
   38SOL    HW2  771   0.520   0.762   0.324
   39SOL     OW  772   1.281   0.345   0.944
   39SOL    HW1  773   1.195   0.295   0.931
   39SOL    HW2  774   1.343   0.291   1.000
   40SOL     OW  775   1.576   1.662   0.307
   40SOL    HW1  776   1.665   1.708   0.310
   40SOL    HW2  777   1.555   1.638   0.212
   41SOL     OW  778   0.807   0.605   1.465
   41SOL    HW1  779   0.760   0.602   1.554
   41SOL    HW2  780   0.756   0.550   1.399
   42SOL     OW  781   1.394   0.469   1.674
   42SOL    HW1  782   1.374   0.512   1.762
   42SOL    HW2  783   1.472   0.407   1.683
   43SOL     OW  784   0.973   0.890   1.572
   43SOL    HW1  785   1.019   0.806   1.543
   43SOL    HW2  786   0.917   0.924   1.497
   44SOL     OW  787   0.991   0.410   1.242
   44SOL    HW1  788   0.914   0.444   1.296
   44SOL    HW2  789   0.957   0.359   1.163
   45SOL     OW  790   1.041   0.701   0.429
   45SOL    HW1  791   1.067   0.697   0.525
   45SOL    HW2  792   0.956   0.650   0.415
   46SOL     OW  793   0.076   0.811   0.789
   46SOL    HW1  794   0.175   0.799   0.798
   46SOL    HW2  795   0.052   0.906   0.810
   47SOL     OW  796   0.130   1.821   1.571
   47SOL    HW1  797   0.120   1.806   1.670
   47SOL    HW2  798   0.044   1.857   1.535
   48SOL     OW  799   0.865   0.348   0.195
   48SOL    HW1  800   0.924   0.411   0.146
   48SOL    HW2  801   0.884   0.254   0.166
   49SOL     OW  802   1.719   0.585   1.831
   49SOL    HW1  803   1.693   0.674   1.795
   49SOL    HW2  804   1.717   0.517   1.758
   50SOL     OW  805   1.362   1.144   0.545
   50SOL    HW1  806   1.445   1.115   0.497
   50SOL    HW2  807   1.313   1.211   0.489
   51SOL     OW  808   0.550   0.196   0.885
   51SOL    HW1  809   0.545   0.191   0.985
   51SOL    HW2  810   0.552   0.292   0.856
   52SOL     OW  811   1.008   1.456   0.477
   52SOL    HW1  812   0.962   1.528   0.425
   52SOL    HW2  813   1.004   1.476   0.575
   53SOL     OW  814   0.351   1.801   0.853
   53SOL    HW1  815   0.401   1.715   0.859
   53SOL    HW2  816   0.416   1.878   0.850
   54SOL     OW  817   1.795   1.066   0.873
   54SOL    HW1  818   1.733   1.051   0.797
   54SOL    HW2  819   1.743   1.077   0.958
   55SOL     OW  820   1.227   1.550   1.506
   55SOL    HW1  821   1.233   1.473   1.570
   55SOL    HW2  822   1.175   1.524   1.426
   56SOL     OW  823   0.321   0.943   0.242
   56SOL    HW1  824   0.403   0.982   0.200
   56SOL    HW2  825   0.294   0.861   0.193
   57SOL     OW  826   1.458   0.735   0.728
   57SOL    HW1  827   1.453   0.670   0.803
   57SOL    HW2  828   1.538   0.794   0.741
   58SOL     OW  829   0.461   1.266   1.727
   58SOL    HW1  830   0.411   1.267   1.641
   58SOL    HW2  831   0.398   1.248   1.803
   59SOL     OW  832   1.111   1.776   0.237
   59SOL    HW1  833   1.051   1.714   0.287
   59SOL    HW2  834   1.142   1.732   0.152
   60SOL     OW  835   0.202   0.285   1.498
   60SOL    HW1  836   0.122   0.345   1.485
   60SOL    HW2  837   0.192   0.236   1.584
   61SOL     OW  838   1.632   1.377   0.081
   61SOL    HW1  839   1.600   1.471   0.071
   61SOL    HW2  840   1.556   1.314   0.069
   62SOL     OW  841   0.464   1.743   0.323
   62SOL    HW1  842   0.497   1.782   0.409
   62SOL    HW2  843   0.540   1.736   0.258
   63SOL     OW  844   1.400   0.107   0.426
   63SOL    HW1  845   1.376   0.070   0.336
   63SOL    HW2  846   1.499   0.123   0.430
   64SOL     OW  847   0.249   1.785   1.241
   64SOL    HW1  848   0.306   1.720   1.291
   64SOL    HW2  849   0.233   1.752   1.148
   65SOL     OW  850   0.940   1.698   0.904
   65SOL    HW1  851   1.020   1.641   0.925
   65SOL    HW2  852   0.891   1.658   0.827
   66SOL     OW  853   0.382   0.700   0.480
   66SOL    HW1  854   0.427   0.610   0.477
   66SOL    HW2  855   0.288   0.689   0.513
   67SOL     OW  856   1.547   0.222   1.729
   67SOL    HW1  857   1.542   0.259   1.821
   67SOL    HW2  858   1.475   0.153   1.717
   68SOL     OW  859   0.614   0.122   0.117
   68SOL    HW1  860   0.712   0.100   0.124
   68SOL    HW2  861   0.583   0.105   0.024
   69SOL     OW  862   0.781   0.264   1.749
   69SOL    HW1  863   0.848   0.203   1.792
   69SOL    HW2  864   0.708   0.283   1.814
   70SOL     OW  865   0.888   1.514   1.195
   70SOL    HW1  866   0.865   1.489   1.101
   70SOL    HW2  867   0.949   1.445   1.234
   71SOL     OW  868   1.351   0.590   1.433
   71SOL    HW1  869   1.379   0.547   1.518
   71SOL    HW2  870   1.376   0.686   1.434
   72SOL     OW  871   0.803   1.402   0.924
   72SOL    HW1  872   0.893   1.416   0.882
   72SOL    HW2  873   0.732   1.404   0.853
   73SOL     OW  874   0.922   0.503   0.899
   73SOL    HW1  875   0.897   0.494   0.803
   73SOL    HW2  876   0.970   0.421   0.930
   74SOL     OW  877   0.539   0.064   0.512
   74SOL    HW1  878   0.458   0.065   0.570
   74SOL    HW2  879   0.542   0.147   0.457
   75SOL     OW  880   1.434   1.188   0.041
   75SOL    HW1  881   1.466   1.112   0.098
   75SOL    HW2  882   1.342   1.215   0.071
   76SOL     OW  883   0.297   0.035   0.171
   76SOL    HW1  884   0.346   0.119   0.150
   76SOL    HW2  885   0.359  -0.030   0.216
   77SOL     OW  886   0.935   0.236   0.480
   77SOL    HW1  887   0.887   0.277   0.402
   77SOL    HW2  888   1.034   0.234   0.461
   78SOL     OW  889   1.076   0.683   1.464
   78SOL    HW1  890   0.996   0.622   1.467
   78SOL    HW2  891   1.157   0.630   1.440
   79SOL     OW  892   1.227   1.570   0.793
   79SOL    HW1  893   1.248   1.644   0.728
   79SOL    HW2  894   1.295   1.570   0.866
   80SOL     OW  895   0.459   1.152   0.741
   80SOL    HW1  896   0.388   1.125   0.806
   80SOL    HW2  897   0.433   1.124   0.648
   81SOL     OW  898   1.271   1.797   0.591
   81SOL    HW1  899   1.315   1.861   0.527
   81SOL    HW2  900   1.221   1.849   0.661
   82SOL     OW  901   1.032   0.549   0.016
   82SOL    HW1  902   0.991   0.631  -0.023
   82SOL    HW2  903   1.096   0.575   0.089
   83SOL     OW  904   0.078   0.556   1.386
   83SOL    HW1  905   0.170   0.555   1.345
   83SOL    HW2  906   0.072   0.630   1.453
   84SOL     OW  907   0.561   0.222   1.147
   84SOL    HW1  908   0.599   0.138   1.184
   84SOL    HW2  909   0.473   0.241   1.191
   85SOL     OW  910   0.866   0.454   0.642
   85SOL    HW1  911   0.834   0.526   0.580
   85SOL    HW2  912   0.890   0.373   0.589
   86SOL     OW  913   1.017   0.039   0.753
   86SOL    HW1  914   0.945   0.044   0.684
   86SOL    HW2  915   0.993  -0.030   0.822
   87SOL     OW  916   1.429   1.173   0.867
   87SOL    HW1  917   1.374   1.089   0.860
   87SOL    HW2  918   1.455   1.202   0.775
   88SOL     OW  919   1.466   0.590   0.992
   88SOL    HW1  920   1.436   0.495   0.999
   88SOL    HW2  921   1.539   0.606   1.058
   89SOL     OW  922   1.857   0.833   0.377
   89SOL    HW1  923   1.899   0.769   0.441
   89SOL    HW2  924   1.819   0.782   0.299
   90SOL     OW  925   0.488   1.385   0.174
   90SOL    HW1  926   0.401   1.370   0.221
   90SOL    HW2  927   0.471   1.411   0.079
   91SOL     OW  928   1.664   1.280   0.657
   91SOL    HW1  929   1.763   1.288   0.671
   91SOL    HW2  930   1.619   1.364   0.688
   92SOL     OW  931   1.390   0.575   0.078
   92SOL    HW1  932   1.336   0.554   0.159
   92SOL    HW2  933   1.481   0.534   0.087
   93SOL     OW  934   0.527   0.256   0.328
   93SOL    HW1  935   0.554   0.197   0.253
   93SOL    HW2  936   0.527   0.351   0.297
   94SOL     OW  937   1.754   1.223   1.588
   94SOL    HW1  938   1.845   1.184   1.575
   94SOL    HW2  939   1.762   1.319   1.612
   95SOL     OW  940   1.064   1.347   1.340
   95SOL    HW1  941   0.984   1.324   1.395
   95SOL    HW2  942   1.147   1.321   1.389
   96SOL     OW  943   1.592   1.629   1.625
   96SOL    HW1  944   1.619   1.663   1.535
   96SOL    HW2  945   1.671   1.591   1.671
   97SOL     OW  946   1.111   1.195   1.100
   97SOL    HW1  947   1.071   1.239   1.181
   97SOL    HW2  948   1.070   1.232   1.017
   98SOL     OW  949   1.638   1.099   1.079
   98SOL    HW1  950   1.643   1.180   1.138
   98SOL    HW2  951   1.552   1.101   1.028
   99SOL     OW  952   0.915   0.089   1.402
   99SOL    HW1  953   0.940   0.069   1.307
   99SOL    HW2  954   0.987   0.145   1.444
  100SOL     OW  955   0.980   1.116   1.719
  100SOL    HW1  956   0.881   1.122   1.729
  100SOL    HW2  957   1.003   1.036   1.663
  101SOL     OW  958   0.705   1.050   0.368
  101SOL    HW1  959   0.691   1.057   0.467
  101SOL    HW2  960   0.789   0.999   0.350
  102SOL     OW  961   0.410   0.813   1.251
  102SOL    HW1  962   0.496   0.825   1.301
  102SOL    HW2  963   0.368   0.726   1.278
  103SOL     OW  964   1.274   0.386   1.262
  103SOL    HW1  965   1.295   0.460   1.326
  103SOL    HW2  966   1.185   0.403   1.219
  104SOL     OW  967   0.064   1.564   1.331
  104SOL    HW1  968   0.018   1.646   1.297
  104SOL    HW2  969   0.162   1.583   1.340
  105SOL     OW  970   0.367   1.100   0.501
  105SOL    HW1  971   0.360   1.183   0.445
  105SOL    HW2  972   0.371   1.020   0.441
  106SOL     OW  973   0.566   0.537   0.865
  106SOL    HW1  974   0.578   0.603   0.791
  106SOL    HW2  975   0.612   0.571   0.948
  107SOL     OW  976   1.252   1.348   0.388
  107SOL    HW1  977   1.302   1.425   0.428
  107SOL    HW2  978   1.157   1.350   0.420
  108SOL     OW  979   1.272   1.445   1.142
  108SOL    HW1  980   1.319   1.458   1.229
  108SOL    HW2  981   1.206   1.371   1.151
  109SOL     OW  982   1.582   0.639   0.472
  109SOL    HW1  983   1.551   0.700   0.545
  109SOL    HW2  984   1.632   0.691   0.403
  110SOL     OW  985   0.354   1.510   1.329
  110SOL    HW1  986   0.333   1.466   1.242
  110SOL    HW2  987   0.451   1.536   1.332
  111SOL     OW  988   0.402   0.751   1.598
  111SOL    HW1  989   0.470   0.806   1.551
  111SOL    HW2  990   0.442   0.663   1.625
  112SOL     OW  991   1.587   0.779   1.670
  112SOL    HW1  992   1.495   0.817   1.665
  112SOL    HW2  993   1.647   0.826   1.605
  113SOL     OW  994   1.013   0.105   1.770
  113SOL    HW1  995   1.019   0.190   1.718
  113SOL    HW2  996   1.045   0.029   1.713
  114SOL     OW  997   0.504   0.050   1.740
  114SOL    HW1  998   0.462  -0.007   1.670
  114SOL    HW2  999   0.438   0.119   1.772
  115SOL     OW 1000   0.573   0.870   1.029
  115SOL    HW1 1001   0.617   0.959   1.020
  115SOL    HW2 1002   0.510   0.870   1.106
  116SOL     OW 1003   1.360   0.862   1.045
  116SOL    HW1 1004   1.285   0.862   0.979
  116SOL    HW2 1005   1.397   0.770   1.054
  117SOL     OW 1006   1.209   0.525   0.275
  117SOL    HW1 1007   1.222   0.441   0.329
  117SOL    HW2 1008   1.180   0.599   0.335
  118SOL     OW 1009   0.307   0.213   1.231
  118SOL    HW1 1010   0.284   0.250   1.321
  118SOL    HW2 1011   0.277   0.118   1.225
  119SOL     OW 1012   0.037   1.310   1.282
  119SOL    HW1 1013   0.090   1.261   1.350
  119SOL    HW2 1014   0.059   1.408   1.287
  120SOL     OW 1015   0.732   0.634   1.064
  120SOL    HW1 1016   0.791   0.608   0.988
  120SOL    HW2 1017   0.704   0.730   1.053
  121SOL     OW 1018   1.728   0.935   1.854
  121SOL    HW1 1019   1.682   0.928   1.765
  121SOL    HW2 1020   1.666   0.979   1.920
  122SOL     OW 1021   0.307   0.063   0.618
  122SOL    HW1 1022   0.296   0.157   0.651
  122SOL    HW2 1023   0.302   0.000   0.695
  123SOL     OW 1024   1.622   0.367   0.374
  123SOL    HW1 1025   1.624   0.291   0.438
  123SOL    HW2 1026   1.574   0.444   0.414
  124SOL     OW 1027   1.023   0.766   0.966
  124SOL    HW1 1028   1.038   0.787   1.062
  124SOL    HW2 1029   0.993   0.671   0.957
  125SOL     OW 1030   0.980   1.573   1.700
  125SOL    HW1 1031   0.960   1.617   1.612
  125SOL    HW2 1032   1.019   1.482   1.684
  126SOL     OW 1033   1.859   1.518   1.605
  126SOL    HW1 1034   1.873   1.545   1.510
  126SOL    HW2 1035   1.942   1.540   1.658
  127SOL     OW 1036   0.350   0.898   1.804
  127SOL    HW1 1037   0.426   0.942   1.852
  127SOL    HW2 1038   0.385   0.851   1.722
  128SOL     OW 1039   1.540   0.274   0.125
  128SOL    HW1 1040   1.479   0.199   0.148
  128SOL    HW2 1041   1.562   0.326   0.208
  129SOL     OW 1042   1.303   0.838   0.042
  129SOL    HW1 1043   1.337   0.745   0.057
  129SOL    HW2 1044   1.321   0.865  -0.053
  130SOL     OW 1045   1.068   1.333   0.849
  130SOL    HW1 1046   1.075   1.249   0.794
  130SOL    HW2 1047   1.130   1.402   0.813
  131SOL     OW 1048   0.319   0.810   0.949
  131SOL    HW1 1049   0.412   0.846   0.954
  131SOL    HW2 1050   0.313   0.725   1.001
  132SOL     OW 1051   0.339   0.509   1.006
  132SOL    HW1 1052   0.287   0.426   0.989
  132SOL    HW2 1053   0.416   0.514   0.942
  133SOL     OW 1054   1.138   0.380   1.678
  133SOL    HW1 1055   1.093   0.443   1.742
  133SOL    HW2 1056   1.231   0.411   1.661
  134SOL     OW 1057   1.160   0.207   1.477
  134SOL    HW1 1058   1.160   0.271   1.554
  134SOL    HW2 1059   1.188   0.255   1.394
  135SOL     OW 1060   0.008   1.326   0.200
  135SOL    HW1 1061  -0.085   1.347   0.169
  135SOL    HW2 1062   0.018   1.227   0.213
  136SOL     OW 1063   0.088   1.801   0.927
  136SOL    HW1 1064   0.046   1.715   0.900
  136SOL    HW2 1065   0.182   1.804   0.893
  137SOL     OW 1066   0.504   1.568   0.910
  137SOL    HW1 1067   0.570   1.642   0.919
  137SOL    HW2 1068   0.548   1.489   0.868
  138SOL     OW 1069   1.002   0.796   1.238
  138SOL    HW1 1070   1.043   0.764   1.324
  138SOL    HW2 1071   0.906   0.769   1.235
  139SOL     OW 1072   0.040   0.544   1.114
  139SOL    HW1 1073   0.125   0.511   1.073
  139SOL    HW2 1074   0.053   0.559   1.212
  140SOL     OW 1075   0.189   0.520   1.722
  140SOL    HW1 1076   0.248   0.480   1.652
  140SOL    HW2 1077   0.131   0.591   1.681
  141SOL     OW 1078   1.369   0.950   1.660
  141SOL    HW1 1079   1.408   1.039   1.680
  141SOL    HW2 1080   1.379   0.930   1.563
  142SOL     OW 1081   0.815   0.572   0.325
  142SOL    HW1 1082   0.822   0.483   0.279
  142SOL    HW2 1083   0.721   0.606   0.317
  143SOL     OW 1084   1.657   0.604   1.206
  143SOL    HW1 1085   1.619   0.535   1.268
  143SOL    HW2 1086   1.739   0.568   1.162
  144SOL     OW 1087   0.252   1.564   1.744
  144SOL    HW1 1088   0.222   1.621   1.820
  144SOL    HW2 1089   0.245   1.467   1.770
  145SOL     OW 1090   0.671   0.464   1.269
  145SOL    HW1 1091   0.637   0.375   1.239
  145SOL    HW2 1092   0.697   0.518   1.189
  146SOL     OW 1093   0.930   1.678   1.465
  146SOL    HW1 1094   0.906   1.660   1.370
  146SOL    HW2 1095   0.960   1.772   1.475
  147SOL     OW 1096   0.473   0.500   0.191
  147SOL    HW1 1097   0.534   0.580   0.195
  147SOL    HW2 1098   0.378   0.531   0.198
  148SOL     OW 1099   0.159   1.137   1.466
  148SOL    HW1 1100   0.181   1.076   1.542
  148SOL    HW2 1101   0.169   1.088   1.380
  149SOL     OW 1102   1.347   1.059   1.234
  149SOL    HW1 1103   1.371   0.996   1.160
  149SOL    HW2 1104   1.257   1.099   1.216
  150SOL     OW 1105   1.302   0.855   0.309
  150SOL    HW1 1106   1.216   0.824   0.351
  150SOL    HW2 1107   1.298   0.841   0.210
  151SOL     OW 1108   1.759   1.747   1.154
  151SOL    HW1 1109   1.820   1.777   1.081
  151SOL    HW2 1110   1.721   1.658   1.132
  152SOL     OW 1111   1.252   1.731   1.128
  152SOL    HW1 1112   1.336   1.736   1.074
  152SOL    HW2 1113   1.229   1.635   1.146
  153SOL     OW 1114   0.083   1.258   1.022
  153SOL    HW1 1115   0.078   1.257   1.122
  153SOL    HW2 1116   0.000   1.217   0.984
  154SOL     OW 1117   0.688   1.662   1.716
  154SOL    HW1 1118   0.632   1.743   1.725
  154SOL    HW2 1119   0.740   1.666   1.630
  155SOL     OW 1120   0.903   0.086   0.133
  155SOL    HW1 1121   0.954   0.087   0.047
  155SOL    HW2 1122   0.959   0.044   0.204
  156SOL     OW 1123   1.726   0.135   0.523
  156SOL    HW1 1124   1.799   0.118   0.456
  156SOL    HW2 1125   1.695   0.048   0.561
  157SOL     OW 1126   1.388   1.573   0.477
  157SOL    HW1 1127   1.455   1.585   0.403
  157SOL    HW2 1128   1.348   1.662   0.500
  158SOL     OW 1129   0.130   1.794   1.851
  158SOL    HW1 1130   0.089   1.720   1.904
  158SOL    HW2 1131   0.194   1.845   1.909
  159SOL     OW 1132   1.280   0.927   0.672
  159SOL    HW1 1133   1.340   0.846   0.674
  159SOL    HW2 1134   1.320   0.996   0.612
  160SOL     OW 1135   0.830   1.273   1.422
  160SOL    HW1 1136   0.825   1.306   1.517
  160SOL    HW2 1137   0.744   1.292   1.376
  161SOL     OW 1138   0.672   1.616   0.154
  161SOL    HW1 1139   0.681   1.626   0.055
  161SOL    HW2 1140   0.632   1.527   0.175
  162SOL     OW 1141   1.650   1.720   1.394
  162SOL    HW1 1142   1.703   1.730   1.310
  162SOL    HW2 1143   1.623   1.810   1.428
  163SOL     OW 1144   1.841   0.175   0.963
  163SOL    HW1 1145   1.880   0.090   0.927
  163SOL    HW2 1146   1.743   0.177   0.944
  164SOL     OW 1147   0.263   0.326   0.720
  164SOL    HW1 1148   0.184   0.377   0.686
  164SOL    HW2 1149   0.254   0.311   0.818
  165SOL     OW 1150   1.194   1.612   0.031
  165SOL    HW1 1151   1.200   1.519   0.068
  165SOL    HW2 1152   1.135   1.612  -0.049
  166SOL     OW 1153   0.822   1.002   1.372
  166SOL    HW1 1154   0.862   1.001   1.280
  166SOL    HW2 1155   0.832   1.094   1.412
  167SOL     OW 1156   0.916   0.910   0.291
  167SOL    HW1 1157   0.979   0.948   0.223
  167SOL    HW2 1158   0.956   0.827   0.330
  168SOL     OW 1159   1.504   1.607   0.044
  168SOL    HW1 1160   1.412   1.644   0.051
  168SOL    HW2 1161   1.542   1.627  -0.046
  169SOL     OW 1162   0.372   1.288   1.490
  169SOL    HW1 1163   0.359   1.381   1.456
  169SOL    HW2 1164   0.288   1.236   1.477
  170SOL     OW 1165   1.614   1.292   1.289
  170SOL    HW1 1166   1.674   1.295   1.369
  170SOL    HW2 1167   1.539   1.356   1.302
  171SOL     OW 1168   1.039   1.098   0.696
  171SOL    HW1 1169   0.969   1.051   0.750
  171SOL    HW2 1170   1.098   1.030   0.653
  172SOL     OW 1171   1.014   0.236   0.971
  172SOL    HW1 1172   1.006   0.200   0.878
  172SOL    HW2 1173   1.012   0.160   1.036
  173SOL     OW 1174   0.590   1.487   0.491
  173SOL    HW1 1175   0.632   1.429   0.421
  173SOL    HW2 1176   0.546   1.566   0.447
  174SOL     OW 1177   1.709   0.385   1.381
  174SOL    HW1 1178   1.782   0.454   1.385
  174SOL    HW2 1179   1.737   0.310   1.322
  175SOL     OW 1180   0.255   1.348   0.290
  175SOL    HW1 1181   0.159   1.349   0.263
  175SOL    HW2 1182   0.267   1.401   0.374
  176SOL     OW 1183   0.105   1.013   1.726
  176SOL    HW1 1184   0.028   0.980   1.780
  176SOL    HW2 1185   0.190   0.983   1.768
  177SOL     OW 1186   0.672   0.203   1.489
  177SOL    HW1 1187   0.762   0.187   1.449
  177SOL    HW2 1188   0.680   0.208   1.588
  178SOL     OW 1189   0.075   0.345   0.033
  178SOL    HW1 1190  -0.017   0.317   0.004
  178SOL    HW2 1191   0.106   0.422  -0.023
  179SOL     OW 1192   1.440   0.856   1.398
  179SOL    HW1 1193   1.383   0.908   1.335
  179SOL    HW2 1194   1.536   0.868   1.374
  180SOL     OW 1195   0.072   0.166   0.318
  180SOL    HW1 1196   0.055   0.249   0.264
  180SOL    HW2 1197   0.162   0.129   0.296
  181SOL     OW 1198   1.183   1.335   0.119
  181SOL    HW1 1199   1.084   1.324   0.121
  181SOL    HW2 1200   1.217   1.350   0.212
  182SOL     OW 1201   0.613   0.842   1.431
  182SOL    HW1 1202   0.669   0.923   1.414
  182SOL    HW2 1203   0.672   0.762   1.434
  183SOL     OW 1204   1.493   1.767   0.959
  183SOL    HW1 1205   1.526   1.831   0.890
  183SOL    HW2 1206   1.559   1.761   1.034
  184SOL     OW 1207   0.716   0.565   1.708
  184SOL    HW1 1208   0.735   0.630   1.782
  184SOL    HW2 1209   0.776   0.485   1.717
  185SOL     OW 1210   1.450   1.220   1.633
  185SOL    HW1 1211   1.441   1.210   1.732
  185SOL    HW2 1212   1.546   1.213   1.607
  186SOL     OW 1213   0.390   1.741   1.560
  186SOL    HW1 1214   0.299   1.782   1.558
  186SOL    HW2 1215   0.383   1.647   1.592
  187SOL     OW 1216   1.674   0.883   1.254
  187SOL    HW1 1217   1.647   0.794   1.217
  187SOL    HW2 1218   1.675   0.951   1.181
  188SOL     OW 1219   1.225   0.325   0.449
  188SOL    HW1 1220   1.290   0.251   0.438
  188SOL    HW2 1221   1.245   0.375   0.533
  189SOL     OW 1222   0.594   0.745   0.652
  189SOL    HW1 1223   0.644   0.830   0.633
  189SOL    HW2 1224   0.506   0.747   0.604
  190SOL     OW 1225   1.777   0.342   1.642
  190SOL    HW1 1226   1.760   0.373   1.548
  190SOL    HW2 1227   1.693   0.305   1.680
  191SOL     OW 1228   1.730   0.934   1.517
  191SOL    HW1 1229   1.768   1.025   1.532
  191SOL    HW2 1230   1.722   0.917   1.418
  192SOL     OW 1231   0.859   1.374   0.016
  192SOL    HW1 1232   0.813   1.389   0.104
  192SOL    HW2 1233   0.903   1.459  -0.014
  193SOL     OW 1234   0.661   1.790   0.953
  193SOL    HW1 1235   0.615   1.878   0.940
  193SOL    HW2 1236   0.760   1.802   0.946
  194SOL     OW 1237   0.859   0.956   0.861
  194SOL    HW1 1238   0.913   0.887   0.909
  194SOL    HW2 1239   0.827   1.025   0.927
  195SOL     OW 1240   1.083   0.984   0.087
  195SOL    HW1 1241   1.060   1.037   0.005
  195SOL    HW2 1242   1.164   0.928   0.068
  196SOL     OW 1243   1.861   1.569   0.851
  196SOL    HW1 1244   1.790   1.557   0.781
  196SOL    HW2 1245   1.862   1.490   0.911
  197SOL     OW 1246   0.221   1.314   1.844
  197SOL    HW1 1247   0.156   1.241   1.823
  197SOL    HW2 1248   0.225   1.328   1.942
  198SOL     OW 1249   0.079   1.240   0.653
  198SOL    HW1 1250   0.078   1.193   0.741
  198SOL    HW2 1251   0.161   1.212   0.602
  199SOL     OW 1252   0.672   1.391   1.624
  199SOL    HW1 1253   0.594   1.341   1.662
  199SOL    HW2 1254   0.669   1.486   1.655
  200SOL     OW 1255   1.824   0.192   1.227
  200SOL    HW1 1256   1.820   0.102   1.271
  200SOL    HW2 1257   1.827   0.181   1.128
  201SOL     OW 1258   0.428   0.424   0.520
  201SOL    HW1 1259   0.458   0.352   0.458
  201SOL    HW2 1260   0.389   0.384   0.603
  202SOL     OW 1261   1.705   1.487   1.104
  202SOL    HW1 1262   1.612   1.462   1.077
  202SOL    HW2 1263   1.731   1.437   1.186
  203SOL     OW 1264   0.317   0.547   1.280
  203SOL    HW1 1265   0.355   0.488   1.352
  203SOL    HW2 1266   0.357   0.521   1.192
  204SOL     OW 1267   0.812   1.586   0.687
  204SOL    HW1 1268   0.844   1.596   0.593
  204SOL    HW2 1269   0.733   1.524   0.689
  205SOL     OW 1270   1.424   0.214   1.112
  205SOL    HW1 1271   1.476   0.149   1.167
  205SOL    HW2 1272   1.375   0.277   1.173
  206SOL     OW 1273   1.001   0.034   1.154
  206SOL    HW1 1274   0.938  -0.038   1.123
  206SOL    HW2 1275   1.094  -0.002   1.154
  207SOL     OW 1276   0.770   1.330   0.301
  207SOL    HW1 1277   0.724   1.243   0.318
  207SOL    HW2 1278   0.861   1.327   0.342
  208SOL     OW 1279   0.618   1.567   1.284
  208SOL    HW1 1280   0.613   1.649   1.341
  208SOL    HW2 1281   0.707   1.564   1.239
  209SOL     OW 1282   1.352   0.052   0.168
  209SOL    HW1 1283   1.387   0.011   0.084
  209SOL    HW2 1284   1.262   0.014   0.188
  210SOL     OW 1285   1.300   0.453   0.691
  210SOL    HW1 1286   1.241   0.533   0.695
  210SOL    HW2 1287   1.315   0.418   0.784
  211SOL     OW 1288   1.593   0.221   0.882
  211SOL    HW1 1289   1.509   0.220   0.936
  211SOL    HW2 1290   1.595   0.304   0.826
  212SOL     OW 1291   0.039   1.077   0.300
  212SOL    HW1 1292   0.138   1.066   0.291
  212SOL    HW2 1293  -0.001   0.991   0.332
  213SOL     OW 1294   0.875   1.646   0.337
  213SOL    HW1 1295   0.798   1.611   0.283
  213SOL    HW2 1296   0.843   1.717   0.399
  214SOL     OW 1297   0.230   0.628   1.975
  214SOL    HW1 1298   0.137   0.626   2.012
  214SOL    HW2 1299   0.231   0.589   1.883
  215SOL     OW 1300   0.225   0.275   2.858
  215SOL    HW1 1301   0.260   0.258   2.950
  215SOL    HW2 1302   0.137   0.230   2.846
  216SOL     OW 1303   0.019   0.368   2.509
  216SOL    HW1 1304  -0.063   0.411   2.548
  216SOL    HW2 1305  -0.009   0.295   2.446
  217SOL     OW 1306   0.569   1.275   3.027
  217SOL    HW1 1307   0.476   1.268   2.990
  217SOL    HW2 1308   0.580   1.364   3.071
  218SOL     OW 1309   1.555   1.511   2.565
  218SOL    HW1 1310   1.498   1.495   2.646
  218SOL    HW2 1311   1.496   1.521   2.485
  219SOL     OW 1312   1.135   0.703   2.579
  219SOL    HW1 1313   1.192   0.781   2.554
  219SOL    HW2 1314   1.075   0.729   2.655
  220SOL     OW 1315   1.755   0.607   2.093
  220SOL    HW1 1316   1.743   0.594   1.994
  220SOL    HW2 1317   1.725   0.526   2.142
  221SOL     OW 1318   0.768   1.144   2.885
  221SOL    HW1 1319   0.690   1.161   2.945
  221SOL    HW2 1320   0.802   1.231   2.849
  222SOL     OW 1321   0.850   0.798   3.685
  222SOL    HW1 1322   0.846   0.874   3.750
  222SOL    HW2 1323   0.872   0.834   3.594
  223SOL     OW 1324   0.685   1.012   2.527
  223SOL    HW1 1325   0.754   0.996   2.597
  223SOL    HW2 1326   0.612   1.069   2.565
  224SOL     OW 1327   0.686   1.161   3.665
  224SOL    HW1 1328   0.746   1.240   3.679
  224SOL    HW2 1329   0.600   1.192   3.624
  225SOL     OW 1330   0.335   1.435   2.923
  225SOL    HW1 1331   0.257   1.404   2.870
  225SOL    HW2 1332   0.393   1.493   2.866
  226SOL     OW 1333   1.460   1.505   3.201
  226SOL    HW1 1334   1.484   1.599   3.227
  226SOL    HW2 1335   1.444   1.451   3.283
  227SOL     OW 1336   0.438   0.392   3.361
  227SOL    HW1 1337   0.520   0.336   3.370
  227SOL    HW2 1338   0.357   0.334   3.365
  228SOL     OW 1339   1.603   0.447   2.599
  228SOL    HW1 1340   1.529   0.493   2.549
  228SOL    HW2 1341   1.654   0.515   2.652
  229SOL     OW 1342   0.231   1.713   2.345
  229SOL    HW1 1343   0.265   1.790   2.399
  229SOL    HW2 1344   0.275   1.713   2.255
  230SOL     OW 1345   1.127   1.341   3.552
  230SOL    HW1 1346   1.174   1.341   3.640
  230SOL    HW2 1347   1.079   1.254   3.541
  231SOL     OW 1348   0.230   1.434   2.400
  231SOL    HW1 1349   0.204   1.530   2.400
  231SOL    HW2 1350   0.159   1.380   2.445
  232SOL     OW 1351   0.240   1.091   2.748
  232SOL    HW1 1352   0.254   1.007   2.800
  232SOL    HW2 1353   0.185   1.155   2.803
  233SOL     OW 1354   0.620   1.786   3.301
  233SOL    HW1 1355   0.528   1.769   3.336
  233SOL    HW2 1356   0.648   1.878   3.327
  234SOL     OW 1357   0.606   0.964   1.985
  234SOL    HW1 1358   0.613   1.048   1.931
  234SOL    HW2 1359   0.652   0.977   2.073
  235SOL     OW 1360   1.594   0.114   3.342
  235SOL    HW1 1361   1.576   0.181   3.270
  235SOL    HW2 1362   1.591   0.160   3.431
  236SOL     OW 1363   0.122   0.643   2.425
  236SOL    HW1 1364   0.077   0.555   2.442
  236SOL    HW2 1365   0.121   0.697   2.509
  237SOL     OW 1366   0.027   1.596   1.979
  237SOL    HW1 1367   0.008   1.500   2.000
  237SOL    HW2 1368  -0.006   1.654   2.054
  238SOL     OW 1369   1.689   0.922   2.474
  238SOL    HW1 1370   1.784   0.893   2.482
  238SOL    HW2 1371   1.681   0.987   2.399
  239SOL     OW 1372   1.641   1.108   2.294
  239SOL    HW1 1373   1.727   1.110   2.242
  239SOL    HW2 1374   1.655   1.155   2.382
  240SOL     OW 1375   0.113   0.737   3.459
  240SOL    HW1 1376   0.201   0.724   3.504
  240SOL    HW2 1377   0.100   0.834   3.437
  241SOL     OW 1378   0.613   1.365   2.588
  241SOL    HW1 1379   0.564   1.278   2.597
  241SOL    HW2 1380   0.590   1.408   2.501
  242SOL     OW 1381   1.293   1.228   3.285
  242SOL    HW1 1382   1.330   1.155   3.227
  242SOL    HW2 1383   1.345   1.233   3.370
  243SOL     OW 1384   0.809   0.004   2.364
  243SOL    HW1 1385   0.849   0.095   2.355
  243SOL    HW2 1386   0.709   0.012   2.370
  244SOL     OW 1387   0.197   0.976   3.126
  244SOL    HW1 1388   0.286   0.931   3.112
  244SOL    HW2 1389   0.124   0.911   3.107
  245SOL     OW 1390   1.525   0.999   2.052
  245SOL    HW1 1391   1.462   0.923   2.065
  245SOL    HW2 1392   1.573   1.017   2.138
  246SOL     OW 1393   1.187   1.792   3.478
  246SOL    HW1 1394   1.211   1.852   3.402
  246SOL    HW2 1395   1.194   1.697   3.448
  247SOL     OW 1396   0.317   0.251   3.663
  247SOL    HW1 1397   0.388   0.322   3.669
  247SOL    HW2 1398   0.229   0.290   3.691
  248SOL     OW 1399   1.466   1.417   2.815
  248SOL    HW1 1400   1.407   1.423   2.895
  248SOL    HW2 1401   1.451   1.329   2.769
  249SOL     OW 1402   1.667   1.714   2.434
  249SOL    HW1 1403   1.626   1.691   2.346
  249SOL    HW2 1404   1.649   1.640   2.499
  250SOL     OW 1405   0.598   0.729   2.132
  250SOL    HW1 1406   0.622   0.798   2.064
  250SOL    HW2 1407   0.520   0.762   2.186
  251SOL     OW 1408   1.281   0.345   2.806
  251SOL    HW1 1409   1.195   0.295   2.793
  251SOL    HW2 1410   1.343   0.291   2.862
  252SOL     OW 1411   1.576   1.662   2.169
  252SOL    HW1 1412   1.665   1.708   2.172
  252SOL    HW2 1413   1.555   1.638   2.074
  253SOL     OW 1414   0.807   0.605   3.327
  253SOL    HW1 1415   0.760   0.602   3.416
  253SOL    HW2 1416   0.756   0.550   3.261
  254SOL     OW 1417   1.394   0.469   3.536
  254SOL    HW1 1418   1.374   0.512   3.624
  254SOL    HW2 1419   1.472   0.407   3.545
  255SOL     OW 1420   0.973   0.890   3.434
  255SOL    HW1 1421   1.019   0.806   3.405
  255SOL    HW2 1422   0.917   0.924   3.359
  256SOL     OW 1423   0.991   0.410   3.104
  256SOL    HW1 1424   0.914   0.444   3.158
  256SOL    HW2 1425   0.957   0.359   3.025
  257SOL     OW 1426   1.041   0.701   2.291
  257SOL    HW1 1427   1.067   0.697   2.387
  257SOL    HW2 1428   0.956   0.650   2.277
  258SOL     OW 1429   0.076   0.811   2.651
  258SOL    HW1 1430   0.175   0.799   2.660
  258SOL    HW2 1431   0.052   0.906   2.672
  259SOL     OW 1432   0.130   1.821   3.433
  259SOL    HW1 1433   0.120   1.806   3.532
  259SOL    HW2 1434   0.044   1.857   3.397
  260SOL     OW 1435   0.865   0.348   2.057
  260SOL    HW1 1436   0.924   0.411   2.008
  260SOL    HW2 1437   0.884   0.254   2.028
  261SOL     OW 1438   1.719   0.585   3.693
  261SOL    HW1 1439   1.693   0.674   3.657
  261SOL    HW2 1440   1.717   0.517   3.620
  262SOL     OW 1441   1.362   1.144   2.407
  262SOL    HW1 1442   1.445   1.115   2.359
  262SOL    HW2 1443   1.313   1.211   2.351
  263SOL     OW 1444   0.550   0.196   2.747
  263SOL    HW1 1445   0.545   0.191   2.847
  263SOL    HW2 1446   0.552   0.292   2.718
  264SOL     OW 1447   1.008   1.456   2.339
  264SOL    HW1 1448   0.962   1.528   2.287
  264SOL    HW2 1449   1.004   1.476   2.437
  265SOL     OW 1450   0.351   1.801   2.715
  265SOL    HW1 1451   0.401   1.715   2.721
  265SOL    HW2 1452   0.416   1.878   2.712
  266SOL     OW 1453   1.795   1.066   2.735
  266SOL    HW1 1454   1.733   1.051   2.659
  266SOL    HW2 1455   1.743   1.077   2.820
  267SOL     OW 1456   1.227   1.550   3.368
  267SOL    HW1 1457   1.233   1.473   3.432
  267SOL    HW2 1458   1.175   1.524   3.288
  268SOL     OW 1459   0.321   0.943   2.104
  268SOL    HW1 1460   0.403   0.982   2.062
  268SOL    HW2 1461   0.294   0.861   2.055
  269SOL     OW 1462   1.458   0.735   2.590
  269SOL    HW1 1463   1.453   0.670   2.665
  269SOL    HW2 1464   1.538   0.794   2.603
  270SOL     OW 1465   0.461   1.266   3.589
  270SOL    HW1 1466   0.411   1.267   3.503
  270SOL    HW2 1467   0.398   1.248   3.665
  271SOL     OW 1468   1.111   1.776   2.099
  271SOL    HW1 1469   1.051   1.714   2.149
  271SOL    HW2 1470   1.142   1.732   2.014
  272SOL     OW 1471   0.202   0.285   3.360
  272SOL    HW1 1472   0.122   0.345   3.347
  272SOL    HW2 1473   0.192   0.236   3.446
  273SOL     OW 1474   1.632   1.377   1.943
  273SOL    HW1 1475   1.600   1.471   1.933
  273SOL    HW2 1476   1.556   1.314   1.931
  274SOL     OW 1477   0.464   1.743   2.185
  274SOL    HW1 1478   0.497   1.782   2.271
  274SOL    HW2 1479   0.540   1.736   2.120
  275SOL     OW 1480   1.400   0.107   2.288
  275SOL    HW1 1481   1.376   0.070   2.198
  275SOL    HW2 1482   1.499   0.123   2.292
  276SOL     OW 1483   0.249   1.785   3.103
  276SOL    HW1 1484   0.306   1.720   3.153
  276SOL    HW2 1485   0.233   1.752   3.010
  277SOL     OW 1486   0.940   1.698   2.766
  277SOL    HW1 1487   1.020   1.641   2.787
  277SOL    HW2 1488   0.891   1.658   2.689
  278SOL     OW 1489   0.382   0.700   2.342
  278SOL    HW1 1490   0.427   0.610   2.339
  278SOL    HW2 1491   0.288   0.689   2.375
  279SOL     OW 1492   1.547   0.222   3.591
  279SOL    HW1 1493   1.542   0.259   3.683
  279SOL    HW2 1494   1.475   0.153   3.579
  280SOL     OW 1495   0.614   0.122   1.979
  280SOL    HW1 1496   0.712   0.100   1.986
  280SOL    HW2 1497   0.583   0.105   1.886
  281SOL     OW 1498   0.781   0.264   3.611
  281SOL    HW1 1499   0.848   0.203   3.654
  281SOL    HW2 1500   0.708   0.283   3.676
  282SOL     OW 1501   0.888   1.514   3.057
  282SOL    HW1 1502   0.865   1.489   2.963
  282SOL    HW2 1503   0.949   1.445   3.096
  283SOL     OW 1504   1.351   0.590   3.295
  283SOL    HW1 1505   1.379   0.547   3.380
  283SOL    HW2 1506   1.376   0.686   3.296
  284SOL     OW 1507   0.803   1.402   2.786
  284SOL    HW1 1508   0.893   1.416   2.744
  284SOL    HW2 1509   0.732   1.404   2.715
  285SOL     OW 1510   0.922   0.503   2.761
  285SOL    HW1 1511   0.897   0.494   2.665
  285SOL    HW2 1512   0.970   0.421   2.792
  286SOL     OW 1513   0.539   0.064   2.374
  286SOL    HW1 1514   0.458   0.065   2.432
  286SOL    HW2 1515   0.542   0.147   2.319
  287SOL     OW 1516   1.434   1.188   1.903
  287SOL    HW1 1517   1.466   1.112   1.960
  287SOL    HW2 1518   1.342   1.215   1.933
  288SOL     OW 1519   0.297   0.035   2.033
  288SOL    HW1 1520   0.346   0.119   2.012
  288SOL    HW2 1521   0.359  -0.030   2.078
  289SOL     OW 1522   0.935   0.236   2.342
  289SOL    HW1 1523   0.887   0.277   2.264
  289SOL    HW2 1524   1.034   0.234   2.323
  290SOL     OW 1525   1.076   0.683   3.326
  290SOL    HW1 1526   0.996   0.622   3.329
  290SOL    HW2 1527   1.157   0.630   3.302
  291SOL     OW 1528   1.227   1.570   2.655
  291SOL    HW1 1529   1.248   1.644   2.590
  291SOL    HW2 1530   1.295   1.570   2.728
  292SOL     OW 1531   0.459   1.152   2.603
  292SOL    HW1 1532   0.388   1.125   2.668
  292SOL    HW2 1533   0.433   1.124   2.510
  293SOL     OW 1534   1.271   1.797   2.453
  293SOL    HW1 1535   1.315   1.861   2.389
  293SOL    HW2 1536   1.221   1.849   2.523
  294SOL     OW 1537   1.032   0.549   1.878
  294SOL    HW1 1538   0.991   0.631   1.839
  294SOL    HW2 1539   1.096   0.575   1.951
  295SOL     OW 1540   0.078   0.556   3.248
  295SOL    HW1 1541   0.170   0.555   3.207
  295SOL    HW2 1542   0.072   0.630   3.315
  296SOL     OW 1543   0.561   0.222   3.009
  296SOL    HW1 1544   0.599   0.138   3.046
  296SOL    HW2 1545   0.473   0.241   3.053
  297SOL     OW 1546   0.866   0.454   2.504
  297SOL    HW1 1547   0.834   0.526   2.442
  297SOL    HW2 1548   0.890   0.373   2.451
  298SOL     OW 1549   1.017   0.039   2.615
  298SOL    HW1 1550   0.945   0.044   2.546
  298SOL    HW2 1551   0.993  -0.030   2.684
  299SOL     OW 1552   1.429   1.173   2.729
  299SOL    HW1 1553   1.374   1.089   2.722
  299SOL    HW2 1554   1.455   1.202   2.637
  300SOL     OW 1555   1.466   0.590   2.854
  300SOL    HW1 1556   1.436   0.495   2.861
  300SOL    HW2 1557   1.539   0.606   2.920
  301SOL     OW 1558   1.857   0.833   2.239
  301SOL    HW1 1559   1.899   0.769   2.303
  301SOL    HW2 1560   1.819   0.782   2.161
  302SOL     OW 1561   0.488   1.385   2.036
  302SOL    HW1 1562   0.401   1.370   2.083
  302SOL    HW2 1563   0.471   1.411   1.941
  303SOL     OW 1564   1.664   1.280   2.519
  303SOL    HW1 1565   1.763   1.288   2.533
  303SOL    HW2 1566   1.619   1.364   2.550
  304SOL     OW 1567   1.390   0.575   1.940
  304SOL    HW1 1568   1.336   0.554   2.021
  304SOL    HW2 1569   1.481   0.534   1.949
  305SOL     OW 1570   0.527   0.256   2.190
  305SOL    HW1 1571   0.554   0.197   2.115
  305SOL    HW2 1572   0.527   0.351   2.159
  306SOL     OW 1573   1.754   1.223   3.450
  306SOL    HW1 1574   1.845   1.184   3.437
  306SOL    HW2 1575   1.762   1.319   3.474
  307SOL     OW 1576   1.064   1.347   3.202
  307SOL    HW1 1577   0.984   1.324   3.257
  307SOL    HW2 1578   1.147   1.321   3.251
  308SOL     OW 1579   1.592   1.629   3.487
  308SOL    HW1 1580   1.619   1.663   3.397
  308SOL    HW2 1581   1.671   1.591   3.533
  309SOL     OW 1582   1.111   1.195   2.962
  309SOL    HW1 1583   1.071   1.239   3.043
  309SOL    HW2 1584   1.070   1.232   2.879
  310SOL     OW 1585   1.638   1.099   2.941
  310SOL    HW1 1586   1.643   1.180   3.000
  310SOL    HW2 1587   1.552   1.101   2.890
  311SOL     OW 1588   0.915   0.089   3.264
  311SOL    HW1 1589   0.940   0.069   3.169
  311SOL    HW2 1590   0.987   0.145   3.306
  312SOL     OW 1591   0.980   1.116   3.581
  312SOL    HW1 1592   0.881   1.122   3.591
  312SOL    HW2 1593   1.003   1.036   3.525
  313SOL     OW 1594   0.705   1.050   2.230
  313SOL    HW1 1595   0.691   1.057   2.329
  313SOL    HW2 1596   0.789   0.999   2.212
  314SOL     OW 1597   0.410   0.813   3.113
  314SOL    HW1 1598   0.496   0.825   3.163
  314SOL    HW2 1599   0.368   0.726   3.140
  315SOL     OW 1600   1.274   0.386   3.124
  315SOL    HW1 1601   1.295   0.460   3.188
  315SOL    HW2 1602   1.185   0.403   3.081
  316SOL     OW 1603   0.064   1.564   3.193
  316SOL    HW1 1604   0.018   1.646   3.159
  316SOL    HW2 1605   0.162   1.583   3.202
  317SOL     OW 1606   0.367   1.100   2.363
  317SOL    HW1 1607   0.360   1.183   2.307
  317SOL    HW2 1608   0.371   1.020   2.303
  318SOL     OW 1609   0.566   0.537   2.727
  318SOL    HW1 1610   0.578   0.603   2.653
  318SOL    HW2 1611   0.612   0.571   2.810
  319SOL     OW 1612   1.252   1.348   2.250
  319SOL    HW1 1613   1.302   1.425   2.290
  319SOL    HW2 1614   1.157   1.350   2.282
  320SOL     OW 1615   1.272   1.445   3.004
  320SOL    HW1 1616   1.319   1.458   3.091
  320SOL    HW2 1617   1.206   1.371   3.013
  321SOL     OW 1618   1.582   0.639   2.334
  321SOL    HW1 1619   1.551   0.700   2.407
  321SOL    HW2 1620   1.632   0.691   2.265
  322SOL     OW 1621   0.354   1.510   3.191
  322SOL    HW1 1622   0.333   1.466   3.104
  322SOL    HW2 1623   0.451   1.536   3.194
  323SOL     OW 1624   0.402   0.751   3.460
  323SOL    HW1 1625   0.470   0.806   3.413
  323SOL    HW2 1626   0.442   0.663   3.487
  324SOL     OW 1627   1.587   0.779   3.532
  324SOL    HW1 1628   1.495   0.817   3.527
  324SOL    HW2 1629   1.647   0.826   3.467
  325SOL     OW 1630   1.013   0.105   3.632
  325SOL    HW1 1631   1.019   0.190   3.580
  325SOL    HW2 1632   1.045   0.029   3.575
  326SOL     OW 1633   0.504   0.050   3.602
  326SOL    HW1 1634   0.462  -0.007   3.532
  326SOL    HW2 1635   0.438   0.119   3.634
  327SOL     OW 1636   0.573   0.870   2.891
  327SOL    HW1 1637   0.617   0.959   2.882
  327SOL    HW2 1638   0.510   0.870   2.968
  328SOL     OW 1639   1.360   0.862   2.907
  328SOL    HW1 1640   1.285   0.862   2.841
  328SOL    HW2 1641   1.397   0.770   2.916
  329SOL     OW 1642   1.209   0.525   2.137
  329SOL    HW1 1643   1.222   0.441   2.191
  329SOL    HW2 1644   1.180   0.599   2.197
  330SOL     OW 1645   0.307   0.213   3.093
  330SOL    HW1 1646   0.284   0.250   3.183
  330SOL    HW2 1647   0.277   0.118   3.087
  331SOL     OW 1648   0.037   1.310   3.144
  331SOL    HW1 1649   0.090   1.261   3.212
  331SOL    HW2 1650   0.059   1.408   3.149
  332SOL     OW 1651   0.732   0.634   2.926
  332SOL    HW1 1652   0.791   0.608   2.850
  332SOL    HW2 1653   0.704   0.730   2.915
  333SOL     OW 1654   1.728   0.935   3.716
  333SOL    HW1 1655   1.682   0.928   3.627
  333SOL    HW2 1656   1.666   0.979   3.782
  334SOL     OW 1657   0.307   0.063   2.480
  334SOL    HW1 1658   0.296   0.157   2.513
  334SOL    HW2 1659   0.302   0.000   2.557
  335SOL     OW 1660   1.622   0.367   2.236
  335SOL    HW1 1661   1.624   0.291   2.300
  335SOL    HW2 1662   1.574   0.444   2.276
  336SOL     OW 1663   1.023   0.766   2.828
  336SOL    HW1 1664   1.038   0.787   2.924
  336SOL    HW2 1665   0.993   0.671   2.819
  337SOL     OW 1666   0.980   1.573   3.562
  337SOL    HW1 1667   0.960   1.617   3.474
  337SOL    HW2 1668   1.019   1.482   3.546
  338SOL     OW 1669   1.859   1.518   3.467
  338SOL    HW1 1670   1.873   1.545   3.372
  338SOL    HW2 1671   1.942   1.540   3.520
  339SOL     OW 1672   0.350   0.898   3.666
  339SOL    HW1 1673   0.426   0.942   3.714
  339SOL    HW2 1674   0.385   0.851   3.584
  340SOL     OW 1675   1.540   0.274   1.987
  340SOL    HW1 1676   1.479   0.199   2.010
  340SOL    HW2 1677   1.562   0.326   2.070
  341SOL     OW 1678   1.303   0.838   1.904
  341SOL    HW1 1679   1.337   0.745   1.919
  341SOL    HW2 1680   1.321   0.865   1.809
  342SOL     OW 1681   1.068   1.333   2.711
  342SOL    HW1 1682   1.075   1.249   2.656
  342SOL    HW2 1683   1.130   1.402   2.675
  343SOL     OW 1684   0.319   0.810   2.811
  343SOL    HW1 1685   0.412   0.846   2.816
  343SOL    HW2 1686   0.313   0.725   2.863
  344SOL     OW 1687   0.339   0.509   2.868
  344SOL    HW1 1688   0.287   0.426   2.851
  344SOL    HW2 1689   0.416   0.514   2.804
  345SOL     OW 1690   1.138   0.380   3.540
  345SOL    HW1 1691   1.093   0.443   3.604
  345SOL    HW2 1692   1.231   0.411   3.523
  346SOL     OW 1693   1.160   0.207   3.339
  346SOL    HW1 1694   1.160   0.271   3.416
  346SOL    HW2 1695   1.188   0.255   3.256
  347SOL     OW 1696   0.008   1.326   2.062
  347SOL    HW1 1697  -0.085   1.347   2.031
  347SOL    HW2 1698   0.018   1.227   2.075
  348SOL     OW 1699   0.088   1.801   2.789
  348SOL    HW1 1700   0.046   1.715   2.762
  348SOL    HW2 1701   0.182   1.804   2.755
  349SOL     OW 1702   0.504   1.568   2.772
  349SOL    HW1 1703   0.570   1.642   2.781
  349SOL    HW2 1704   0.548   1.489   2.730
  350SOL     OW 1705   1.002   0.796   3.100
  350SOL    HW1 1706   1.043   0.764   3.186
  350SOL    HW2 1707   0.906   0.769   3.097
  351SOL     OW 1708   0.040   0.544   2.976
  351SOL    HW1 1709   0.125   0.511   2.935
  351SOL    HW2 1710   0.053   0.559   3.074
  352SOL     OW 1711   0.189   0.520   3.584
  352SOL    HW1 1712   0.248   0.480   3.514
  352SOL    HW2 1713   0.131   0.591   3.543
  353SOL     OW 1714   1.369   0.950   3.522
  353SOL    HW1 1715   1.408   1.039   3.542
  353SOL    HW2 1716   1.379   0.930   3.425
  354SOL     OW 1717   0.815   0.572   2.187
  354SOL    HW1 1718   0.822   0.483   2.141
  354SOL    HW2 1719   0.721   0.606   2.179
  355SOL     OW 1720   1.657   0.604   3.068
  355SOL    HW1 1721   1.619   0.535   3.130
  355SOL    HW2 1722   1.739   0.568   3.024
  356SOL     OW 1723   0.252   1.564   3.606
  356SOL    HW1 1724   0.222   1.621   3.682
  356SOL    HW2 1725   0.245   1.467   3.632
  357SOL     OW 1726   0.671   0.464   3.131
  357SOL    HW1 1727   0.637   0.375   3.101
  357SOL    HW2 1728   0.697   0.518   3.051
  358SOL     OW 1729   0.930   1.678   3.327
  358SOL    HW1 1730   0.906   1.660   3.232
  358SOL    HW2 1731   0.960   1.772   3.337
  359SOL     OW 1732   0.473   0.500   2.053
  359SOL    HW1 1733   0.534   0.580   2.057
  359SOL    HW2 1734   0.378   0.531   2.060
  360SOL     OW 1735   0.159   1.137   3.328
  360SOL    HW1 1736   0.181   1.076   3.404
  360SOL    HW2 1737   0.169   1.088   3.242
  361SOL     OW 1738   1.347   1.059   3.096
  361SOL    HW1 1739   1.371   0.996   3.022
  361SOL    HW2 1740   1.257   1.099   3.078
  362SOL     OW 1741   1.302   0.855   2.171
  362SOL    HW1 1742   1.216   0.824   2.213
  362SOL    HW2 1743   1.298   0.841   2.072
  363SOL     OW 1744   1.759   1.747   3.016
  363SOL    HW1 1745   1.820   1.777   2.943
  363SOL    HW2 1746   1.721   1.658   2.994
  364SOL     OW 1747   1.252   1.731   2.990
  364SOL    HW1 1748   1.336   1.736   2.936
  364SOL    HW2 1749   1.229   1.635   3.008
  365SOL     OW 1750   0.083   1.258   2.884
  365SOL    HW1 1751   0.078   1.257   2.984
  365SOL    HW2 1752   0.000   1.217   2.846
  366SOL     OW 1753   0.688   1.662   3.578
  366SOL    HW1 1754   0.632   1.743   3.587
  366SOL    HW2 1755   0.740   1.666   3.492
  367SOL     OW 1756   1.726   0.135   2.385
  367SOL    HW1 1757   1.799   0.118   2.318
  367SOL    HW2 1758   1.695   0.048   2.423
  368SOL     OW 1759   1.388   1.573   2.339
  368SOL    HW1 1760   1.455   1.585   2.265
  368SOL    HW2 1761   1.348   1.662   2.362
  369SOL     OW 1762   0.130   1.794   3.713
  369SOL    HW1 1763   0.089   1.720   3.766
  369SOL    HW2 1764   0.194   1.845   3.771
  370SOL     OW 1765   1.280   0.927   2.534
  370SOL    HW1 1766   1.340   0.846   2.536
  370SOL    HW2 1767   1.320   0.996   2.474
  371SOL     OW 1768   0.830   1.273   3.284
  371SOL    HW1 1769   0.825   1.306   3.379
  371SOL    HW2 1770   0.744   1.292   3.238
  372SOL     OW 1771   0.672   1.616   2.016
  372SOL    HW1 1772   0.681   1.626   1.917
  372SOL    HW2 1773   0.632   1.527   2.037
  373SOL     OW 1774   1.650   1.720   3.256
  373SOL    HW1 1775   1.703   1.730   3.172
  373SOL    HW2 1776   1.623   1.810   3.290
  374SOL     OW 1777   1.841   0.175   2.825
  374SOL    HW1 1778   1.880   0.090   2.789
  374SOL    HW2 1779   1.743   0.177   2.806
  375SOL     OW 1780   0.263   0.326   2.582
  375SOL    HW1 1781   0.184   0.377   2.548
  375SOL    HW2 1782   0.254   0.311   2.680
  376SOL     OW 1783   1.194   1.612   1.893
  376SOL    HW1 1784   1.200   1.519   1.930
  376SOL    HW2 1785   1.135   1.612   1.813
  377SOL     OW 1786   0.822   1.002   3.234
  377SOL    HW1 1787   0.862   1.001   3.142
  377SOL    HW2 1788   0.832   1.094   3.274
  378SOL     OW 1789   0.916   0.910   2.153
  378SOL    HW1 1790   0.979   0.948   2.085
  378SOL    HW2 1791   0.956   0.827   2.192
  379SOL     OW 1792   1.504   1.607   1.906
  379SOL    HW1 1793   1.412   1.644   1.913
  379SOL    HW2 1794   1.542   1.627   1.816
  380SOL     OW 1795   0.372   1.288   3.352
  380SOL    HW1 1796   0.359   1.381   3.318
  380SOL    HW2 1797   0.288   1.236   3.339
  381SOL     OW 1798   1.614   1.292   3.151
  381SOL    HW1 1799   1.674   1.295   3.231
  381SOL    HW2 1800   1.539   1.356   3.164
  382SOL     OW 1801   1.039   1.098   2.558
  382SOL    HW1 1802   0.969   1.051   2.612
  382SOL    HW2 1803   1.098   1.030   2.515
  383SOL     OW 1804   1.014   0.236   2.833
  383SOL    HW1 1805   1.006   0.200   2.740
  383SOL    HW2 1806   1.012   0.160   2.898
  384SOL     OW 1807   0.590   1.487   2.353
  384SOL    HW1 1808   0.632   1.429   2.283
  384SOL    HW2 1809   0.546   1.566   2.309
  385SOL     OW 1810   1.709   0.385   3.243
  385SOL    HW1 1811   1.782   0.454   3.247
  385SOL    HW2 1812   1.737   0.310   3.184
  386SOL     OW 1813   0.255   1.348   2.152
  386SOL    HW1 1814   0.159   1.349   2.125
  386SOL    HW2 1815   0.267   1.401   2.236
  387SOL     OW 1816   0.105   1.013   3.588
  387SOL    HW1 1817   0.028   0.980   3.642
  387SOL    HW2 1818   0.190   0.983   3.630
  388SOL     OW 1819   0.672   0.203   3.351
  388SOL    HW1 1820   0.762   0.187   3.311
  388SOL    HW2 1821   0.680   0.208   3.450
  389SOL     OW 1822   0.075   0.345   1.895
  389SOL    HW1 1823  -0.017   0.317   1.866
  389SOL    HW2 1824   0.106   0.422   1.839
  390SOL     OW 1825   1.440   0.856   3.260
  390SOL    HW1 1826   1.383   0.908   3.197
  390SOL    HW2 1827   1.536   0.868   3.236
  391SOL     OW 1828   0.072   0.166   2.180
  391SOL    HW1 1829   0.055   0.249   2.126
  391SOL    HW2 1830   0.162   0.129   2.158
  392SOL     OW 1831   1.183   1.335   1.981
  392SOL    HW1 1832   1.084   1.324   1.983
  392SOL    HW2 1833   1.217   1.350   2.074
  393SOL     OW 1834   0.613   0.842   3.293
  393SOL    HW1 1835   0.669   0.923   3.276
  393SOL    HW2 1836   0.672   0.762   3.296
  394SOL     OW 1837   1.493   1.767   2.821
  394SOL    HW1 1838   1.526   1.831   2.752
  394SOL    HW2 1839   1.559   1.761   2.896
  395SOL     OW 1840   0.716   0.565   3.570
  395SOL    HW1 1841   0.735   0.630   3.644
  395SOL    HW2 1842   0.776   0.485   3.579
  396SOL     OW 1843   1.450   1.220   3.495
  396SOL    HW1 1844   1.441   1.210   3.594
  396SOL    HW2 1845   1.546   1.213   3.469
  397SOL     OW 1846   0.390   1.741   3.422
  397SOL    HW1 1847   0.299   1.782   3.420
  397SOL    HW2 1848   0.383   1.647   3.454
  398SOL     OW 1849   1.674   0.883   3.116
  398SOL    HW1 1850   1.647   0.794   3.079
  398SOL    HW2 1851   1.675   0.951   3.043
  399SOL     OW 1852   1.225   0.325   2.311
  399SOL    HW1 1853   1.290   0.251   2.300
  399SOL    HW2 1854   1.245   0.375   2.395
  400SOL     OW 1855   0.594   0.745   2.514
  400SOL    HW1 1856   0.644   0.830   2.495
  400SOL    HW2 1857   0.506   0.747   2.466
  401SOL     OW 1858   1.777   0.342   3.504
  401SOL    HW1 1859   1.760   0.373   3.410
  401SOL    HW2 1860   1.693   0.305   3.542
  402SOL     OW 1861   1.730   0.934   3.379
  402SOL    HW1 1862   1.768   1.025   3.394
  402SOL    HW2 1863   1.722   0.917   3.280
  403SOL     OW 1864   0.859   1.374   1.878
  403SOL    HW1 1865   0.813   1.389   1.966
  403SOL    HW2 1866   0.903   1.459   1.848
  404SOL     OW 1867   0.661   1.790   2.815
  404SOL    HW1 1868   0.615   1.878   2.802
  404SOL    HW2 1869   0.760   1.802   2.808
  405SOL     OW 1870   0.859   0.956   2.723
  405SOL    HW1 1871   0.913   0.887   2.771
  405SOL    HW2 1872   0.827   1.025   2.789
  406SOL     OW 1873   1.083   0.984   1.949
  406SOL    HW1 1874   1.060   1.037   1.867
  406SOL    HW2 1875   1.164   0.928   1.930
  407SOL     OW 1876   1.861   1.569   2.713
  407SOL    HW1 1877   1.790   1.557   2.643
  407SOL    HW2 1878   1.862   1.490   2.773
  408SOL     OW 1879   0.221   1.314   3.706
  408SOL    HW1 1880   0.156   1.241   3.685
  408SOL    HW2 1881   0.225   1.328   3.804
  409SOL     OW 1882   0.079   1.240   2.515
  409SOL    HW1 1883   0.078   1.193   2.603
  409SOL    HW2 1884   0.161   1.212   2.464
  410SOL     OW 1885   0.672   1.391   3.486
  410SOL    HW1 1886   0.594   1.341   3.524
  410SOL    HW2 1887   0.669   1.486   3.517
  411SOL     OW 1888   1.824   0.192   3.089
  411SOL    HW1 1889   1.820   0.102   3.133
  411SOL    HW2 1890   1.827   0.181   2.990
  412SOL     OW 1891   0.428   0.424   2.382
  412SOL    HW1 1892   0.458   0.352   2.320
  412SOL    HW2 1893   0.389   0.384   2.465
  413SOL     OW 1894   1.705   1.487   2.966
  413SOL    HW1 1895   1.612   1.462   2.939
  413SOL    HW2 1896   1.731   1.437   3.048
  414SOL     OW 1897   0.317   0.547   3.142
  414SOL    HW1 1898   0.355   0.488   3.214
  414SOL    HW2 1899   0.357   0.521   3.054
  415SOL     OW 1900   0.812   1.586   2.549
  415SOL    HW1 1901   0.844   1.596   2.455
  415SOL    HW2 1902   0.733   1.524   2.551
  416SOL     OW 1903   1.424   0.214   2.974
  416SOL    HW1 1904   1.476   0.149   3.029
  416SOL    HW2 1905   1.375   0.277   3.035
  417SOL     OW 1906   1.001   0.034   3.016
  417SOL    HW1 1907   0.938  -0.038   2.985
  417SOL    HW2 1908   1.094  -0.002   3.016
  418SOL     OW 1909   0.770   1.330   2.163
  418SOL    HW1 1910   0.724   1.243   2.180
  418SOL    HW2 1911   0.861   1.327   2.204
  419SOL     OW 1912   0.618   1.567   3.146
  419SOL    HW1 1913   0.613   1.649   3.203
  419SOL    HW2 1914   0.707   1.564   3.101
  420SOL     OW 1915   1.352   0.052   2.030
  420SOL    HW1 1916   1.387   0.011   1.946
  420SOL    HW2 1917   1.262   0.014   2.050
  421SOL     OW 1918   1.300   0.453   2.553
  421SOL    HW1 1919   1.241   0.533   2.557
  421SOL    HW2 1920   1.315   0.418   2.646
  422SOL     OW 1921   1.593   0.221   2.744
  422SOL    HW1 1922   1.509   0.220   2.798
  422SOL    HW2 1923   1.595   0.304   2.688
  423SOL     OW 1924   0.039   1.077   2.162
  423SOL    HW1 1925   0.138   1.066   2.153
  423SOL    HW2 1926  -0.001   0.991   2.194
  424SOL     OW 1927   0.875   1.646   2.199
  424SOL    HW1 1928   0.798   1.611   2.145
  424SOL    HW2 1929   0.843   1.717   2.261
  425SOL     OW 1930   0.230   0.628   3.837
  425SOL    HW1 1931   0.137   0.626   3.874
  425SOL    HW2 1932   0.231   0.589   3.745
  426SOL     OW 1933   0.225   0.275   4.720
  426SOL    HW1 1934   0.260   0.258   4.812
  426SOL    HW2 1935   0.137   0.230   4.708
  427SOL     OW 1936   0.019   0.368   4.371
  427SOL    HW1 1937  -0.063   0.411   4.410
  427SOL    HW2 1938  -0.009   0.295   4.308
  428SOL     OW 1939   0.569   1.275   4.889
  428SOL    HW1 1940   0.476   1.268   4.852
  428SOL    HW2 1941   0.580   1.364   4.933
  429SOL     OW 1942   1.555   1.511   4.427
  429SOL    HW1 1943   1.498   1.495   4.508
  429SOL    HW2 1944   1.496   1.521   4.347
  430SOL     OW 1945   1.135   0.703   4.441
  430SOL    HW1 1946   1.192   0.781   4.416
  430SOL    HW2 1947   1.075   0.729   4.517
  431SOL     OW 1948   1.755   0.607   3.955
  431SOL    HW1 1949   1.743   0.594   3.856
  431SOL    HW2 1950   1.725   0.526   4.004
  432SOL     OW 1951   0.768   1.144   4.747
  432SOL    HW1 1952   0.690   1.161   4.807
  432SOL    HW2 1953   0.802   1.231   4.711
  433SOL     OW 1954   0.850   0.798   5.547
  433SOL    HW1 1955   0.846   0.874   5.612
  433SOL    HW2 1956   0.872   0.834   5.456
  434SOL     OW 1957   0.685   1.012   4.389
  434SOL    HW1 1958   0.754   0.996   4.459
  434SOL    HW2 1959   0.612   1.069   4.427
  435SOL     OW 1960   0.686   1.161   5.527
  435SOL    HW1 1961   0.746   1.240   5.541
  435SOL    HW2 1962   0.600   1.192   5.486
  436SOL     OW 1963   0.335   1.435   4.785
  436SOL    HW1 1964   0.257   1.404   4.732
  436SOL    HW2 1965   0.393   1.493   4.728
  437SOL     OW 1966   1.460   1.505   5.063
  437SOL    HW1 1967   1.484   1.599   5.089
  437SOL    HW2 1968   1.444   1.451   5.145
  438SOL     OW 1969   0.438   0.392   5.223
  438SOL    HW1 1970   0.520   0.336   5.232
  438SOL    HW2 1971   0.357   0.334   5.227
  439SOL     OW 1972   1.603   0.447   4.461
  439SOL    HW1 1973   1.529   0.493   4.411
  439SOL    HW2 1974   1.654   0.515   4.514
  440SOL     OW 1975   0.231   1.713   4.207
  440SOL    HW1 1976   0.265   1.790   4.261
  440SOL    HW2 1977   0.275   1.713   4.117
  441SOL     OW 1978   1.127   1.341   5.414
  441SOL    HW1 1979   1.174   1.341   5.502
  441SOL    HW2 1980   1.079   1.254   5.403
  442SOL     OW 1981   0.230   1.434   4.262
  442SOL    HW1 1982   0.204   1.530   4.262
  442SOL    HW2 1983   0.159   1.380   4.307
  443SOL     OW 1984   0.240   1.091   4.610
  443SOL    HW1 1985   0.254   1.007   4.662
  443SOL    HW2 1986   0.185   1.155   4.665
  444SOL     OW 1987   0.620   1.786   5.163
  444SOL    HW1 1988   0.528   1.769   5.198
  444SOL    HW2 1989   0.648   1.878   5.189
  445SOL     OW 1990   0.606   0.964   3.847
  445SOL    HW1 1991   0.613   1.048   3.793
  445SOL    HW2 1992   0.652   0.977   3.935
  446SOL     OW 1993   1.594   0.114   5.204
  446SOL    HW1 1994   1.576   0.181   5.132
  446SOL    HW2 1995   1.591   0.160   5.293
  447SOL     OW 1996   0.122   0.643   4.287
  447SOL    HW1 1997   0.077   0.555   4.304
  447SOL    HW2 1998   0.121   0.697   4.371
  448SOL     OW 1999   0.027   1.596   3.841
  448SOL    HW1 2000   0.008   1.500   3.862
  448SOL    HW2 2001  -0.006   1.654   3.916
  449SOL     OW 2002   1.689   0.922   4.336
  449SOL    HW1 2003   1.784   0.893   4.344
  449SOL    HW2 2004   1.681   0.987   4.261
  450SOL     OW 2005   1.641   1.108   4.156
  450SOL    HW1 2006   1.727   1.110   4.104
  450SOL    HW2 2007   1.655   1.155   4.244
  451SOL     OW 2008   0.113   0.737   5.321
  451SOL    HW1 2009   0.201   0.724   5.366
  451SOL    HW2 2010   0.100   0.834   5.299
  452SOL     OW 2011   0.613   1.365   4.450
  452SOL    HW1 2012   0.564   1.278   4.459
  452SOL    HW2 2013   0.590   1.408   4.363
  453SOL     OW 2014   1.293   1.228   5.147
  453SOL    HW1 2015   1.330   1.155   5.089
  453SOL    HW2 2016   1.345   1.233   5.232
  454SOL     OW 2017   0.809   0.004   4.226
  454SOL    HW1 2018   0.849   0.095   4.217
  454SOL    HW2 2019   0.709   0.012   4.232
  455SOL     OW 2020   0.197   0.976   4.988
  455SOL    HW1 2021   0.286   0.931   4.974
  455SOL    HW2 2022   0.124   0.911   4.969
  456SOL     OW 2023   1.525   0.999   3.914
  456SOL    HW1 2024   1.462   0.923   3.927
  456SOL    HW2 2025   1.573   1.017   4.000
  457SOL     OW 2026   1.187   1.792   5.340
  457SOL    HW1 2027   1.211   1.852   5.264
  457SOL    HW2 2028   1.194   1.697   5.310
  458SOL     OW 2029   0.317   0.251   5.525
  458SOL    HW1 2030   0.388   0.322   5.531
  458SOL    HW2 2031   0.229   0.290   5.553
  459SOL     OW 2032   1.466   1.417   4.677
  459SOL    HW1 2033   1.407   1.423   4.757
  459SOL    HW2 2034   1.451   1.329   4.631
  460SOL     OW 2035   1.667   1.714   4.296
  460SOL    HW1 2036   1.626   1.691   4.208
  460SOL    HW2 2037   1.649   1.640   4.361
  461SOL     OW 2038   0.598   0.729   3.994
  461SOL    HW1 2039   0.622   0.798   3.926
  461SOL    HW2 2040   0.520   0.762   4.048
  462SOL     OW 2041   1.281   0.345   4.668
  462SOL    HW1 2042   1.195   0.295   4.655
  462SOL    HW2 2043   1.343   0.291   4.724
  463SOL     OW 2044   1.576   1.662   4.031
  463SOL    HW1 2045   1.665   1.708   4.034
  463SOL    HW2 2046   1.555   1.638   3.936
  464SOL     OW 2047   0.807   0.605   5.189
  464SOL    HW1 2048   0.760   0.602   5.278
  464SOL    HW2 2049   0.756   0.550   5.123
  465SOL     OW 2050   1.394   0.469   5.398
  465SOL    HW1 2051   1.374   0.512   5.486
  465SOL    HW2 2052   1.472   0.407   5.407
  466SOL     OW 2053   0.973   0.890   5.296
  466SOL    HW1 2054   1.019   0.806   5.267
  466SOL    HW2 2055   0.917   0.924   5.221
  467SOL     OW 2056   0.991   0.410   4.966
  467SOL    HW1 2057   0.914   0.444   5.020
  467SOL    HW2 2058   0.957   0.359   4.887
  468SOL     OW 2059   1.041   0.701   4.153
  468SOL    HW1 2060   1.067   0.697   4.249
  468SOL    HW2 2061   0.956   0.650   4.139
  469SOL     OW 2062   0.076   0.811   4.513
  469SOL    HW1 2063   0.175   0.799   4.522
  469SOL    HW2 2064   0.052   0.906   4.534
  470SOL     OW 2065   0.130   1.821   5.295
  470SOL    HW1 2066   0.120   1.806   5.394
  470SOL    HW2 2067   0.044   1.857   5.259
  471SOL     OW 2068   0.865   0.348   3.919
  471SOL    HW1 2069   0.924   0.411   3.870
  471SOL    HW2 2070   0.884   0.254   3.890
  472SOL     OW 2071   1.719   0.585   5.555
  472SOL    HW1 2072   1.693   0.674   5.519
  472SOL    HW2 2073   1.717   0.517   5.482
  473SOL     OW 2074   1.362   1.144   4.269
  473SOL    HW1 2075   1.445   1.115   4.221
  473SOL    HW2 2076   1.313   1.211   4.213
  474SOL     OW 2077   0.550   0.196   4.609
  474SOL    HW1 2078   0.545   0.191   4.709
  474SOL    HW2 2079   0.552   0.292   4.580
  475SOL     OW 2080   1.008   1.456   4.201
  475SOL    HW1 2081   0.962   1.528   4.149
  475SOL    HW2 2082   1.004   1.476   4.299
  476SOL     OW 2083   0.351   1.801   4.577
  476SOL    HW1 2084   0.401   1.715   4.583
  476SOL    HW2 2085   0.416   1.878   4.574
  477SOL     OW 2086   1.795   1.066   4.597
  477SOL    HW1 2087   1.733   1.051   4.521
  477SOL    HW2 2088   1.743   1.077   4.682
  478SOL     OW 2089   1.227   1.550   5.230
  478SOL    HW1 2090   1.233   1.473   5.294
  478SOL    HW2 2091   1.175   1.524   5.150
  479SOL     OW 2092   0.321   0.943   3.966
  479SOL    HW1 2093   0.403   0.982   3.924
  479SOL    HW2 2094   0.294   0.861   3.917
  480SOL     OW 2095   1.458   0.735   4.452
  480SOL    HW1 2096   1.453   0.670   4.527
  480SOL    HW2 2097   1.538   0.794   4.465
  481SOL     OW 2098   0.461   1.266   5.451
  481SOL    HW1 2099   0.411   1.267   5.365
  481SOL    HW2 2100   0.398   1.248   5.527
  482SOL     OW 2101   1.111   1.776   3.961
  482SOL    HW1 2102   1.051   1.714   4.011
  482SOL    HW2 2103   1.142   1.732   3.876
  483SOL     OW 2104   0.202   0.285   5.222
  483SOL    HW1 2105   0.122   0.345   5.209
  483SOL    HW2 2106   0.192   0.236   5.308
  484SOL     OW 2107   1.632   1.377   3.805
  484SOL    HW1 2108   1.600   1.471   3.795
  484SOL    HW2 2109   1.556   1.314   3.793
  485SOL     OW 2110   0.464   1.743   4.047
  485SOL    HW1 2111   0.497   1.782   4.133
  485SOL    HW2 2112   0.540   1.736   3.982
  486SOL     OW 2113   1.400   0.107   4.150
  486SOL    HW1 2114   1.376   0.070   4.060
  486SOL    HW2 2115   1.499   0.123   4.154
  487SOL     OW 2116   0.249   1.785   4.965
  487SOL    HW1 2117   0.306   1.720   5.015
  487SOL    HW2 2118   0.233   1.752   4.872
  488SOL     OW 2119   0.940   1.698   4.628
  488SOL    HW1 2120   1.020   1.641   4.649
  488SOL    HW2 2121   0.891   1.658   4.551
  489SOL     OW 2122   0.382   0.700   4.204
  489SOL    HW1 2123   0.427   0.610   4.201
  489SOL    HW2 2124   0.288   0.689   4.237
  490SOL     OW 2125   1.547   0.222   5.453
  490SOL    HW1 2126   1.542   0.259   5.545
  490SOL    HW2 2127   1.475   0.153   5.441
  491SOL     OW 2128   0.614   0.122   3.841
  491SOL    HW1 2129   0.712   0.100   3.848
  491SOL    HW2 2130   0.583   0.105   3.748
  492SOL     OW 2131   0.781   0.264   5.473
  492SOL    HW1 2132   0.848   0.203   5.516
  492SOL    HW2 2133   0.708   0.283   5.538
  493SOL     OW 2134   0.888   1.514   4.919
  493SOL    HW1 2135   0.865   1.489   4.825
  493SOL    HW2 2136   0.949   1.445   4.958
  494SOL     OW 2137   1.351   0.590   5.157
  494SOL    HW1 2138   1.379   0.547   5.242
  494SOL    HW2 2139   1.376   0.686   5.158
  495SOL     OW 2140   0.803   1.402   4.648
  495SOL    HW1 2141   0.893   1.416   4.606
  495SOL    HW2 2142   0.732   1.404   4.577
  496SOL     OW 2143   0.922   0.503   4.623
  496SOL    HW1 2144   0.897   0.494   4.527
  496SOL    HW2 2145   0.970   0.421   4.654
  497SOL     OW 2146   0.539   0.064   4.236
  497SOL    HW1 2147   0.458   0.065   4.294
  497SOL    HW2 2148   0.542   0.147   4.181
  498SOL     OW 2149   1.434   1.188   3.765
  498SOL    HW1 2150   1.466   1.112   3.822
  498SOL    HW2 2151   1.342   1.215   3.795
  499SOL     OW 2152   0.297   0.035   3.895
  499SOL    HW1 2153   0.346   0.119   3.874
  499SOL    HW2 2154   0.359  -0.030   3.940
  500SOL     OW 2155   0.935   0.236   4.204
  500SOL    HW1 2156   0.887   0.277   4.126
  500SOL    HW2 2157   1.034   0.234   4.185
  501SOL     OW 2158   1.076   0.683   5.188
  501SOL    HW1 2159   0.996   0.622   5.191
  501SOL    HW2 2160   1.157   0.630   5.164
  502SOL     OW 2161   1.227   1.570   4.517
  502SOL    HW1 2162   1.248   1.644   4.452
  502SOL    HW2 2163   1.295   1.570   4.590
  503SOL     OW 2164   0.459   1.152   4.465
  503SOL    HW1 2165   0.388   1.125   4.530
  503SOL    HW2 2166   0.433   1.124   4.372
  504SOL     OW 2167   1.271   1.797   4.315
  504SOL    HW1 2168   1.315   1.861   4.251
  504SOL    HW2 2169   1.221   1.849   4.385
  505SOL     OW 2170   1.032   0.549   3.740
  505SOL    HW1 2171   0.991   0.631   3.701
  505SOL    HW2 2172   1.096   0.575   3.813
  506SOL     OW 2173   0.078   0.556   5.110
  506SOL    HW1 2174   0.170   0.555   5.069
  506SOL    HW2 2175   0.072   0.630   5.177
  507SOL     OW 2176   0.561   0.222   4.871
  507SOL    HW1 2177   0.599   0.138   4.908
  507SOL    HW2 2178   0.473   0.241   4.915
  508SOL     OW 2179   0.866   0.454   4.366
  508SOL    HW1 2180   0.834   0.526   4.304
  508SOL    HW2 2181   0.890   0.373   4.313
  509SOL     OW 2182   1.017   0.039   4.477
  509SOL    HW1 2183   0.945   0.044   4.408
  509SOL    HW2 2184   0.993  -0.030   4.546
  510SOL     OW 2185   1.429   1.173   4.591
  510SOL    HW1 2186   1.374   1.089   4.584
  510SOL    HW2 2187   1.455   1.202   4.499
  511SOL     OW 2188   1.466   0.590   4.716
  511SOL    HW1 2189   1.436   0.495   4.723
  511SOL    HW2 2190   1.539   0.606   4.782
  512SOL     OW 2191   1.857   0.833   4.101
  512SOL    HW1 2192   1.899   0.769   4.165
  512SOL    HW2 2193   1.819   0.782   4.023
  513SOL     OW 2194   0.488   1.385   3.898
  513SOL    HW1 2195   0.401   1.370   3.945
  513SOL    HW2 2196   0.471   1.411   3.803
  514SOL     OW 2197   1.664   1.280   4.381
  514SOL    HW1 2198   1.763   1.288   4.395
  514SOL    HW2 2199   1.619   1.364   4.412
  515SOL     OW 2200   1.390   0.575   3.802
  515SOL    HW1 2201   1.336   0.554   3.883
  515SOL    HW2 2202   1.481   0.534   3.811
  516SOL     OW 2203   0.527   0.256   4.052
  516SOL    HW1 2204   0.554   0.197   3.977
  516SOL    HW2 2205   0.527   0.351   4.021
  517SOL     OW 2206   1.754   1.223   5.312
  517SOL    HW1 2207   1.845   1.184   5.299
  517SOL    HW2 2208   1.762   1.319   5.336
  518SOL     OW 2209   1.064   1.347   5.064
  518SOL    HW1 2210   0.984   1.324   5.119
  518SOL    HW2 2211   1.147   1.321   5.113
  519SOL     OW 2212   1.592   1.629   5.349
  519SOL    HW1 2213   1.619   1.663   5.259
  519SOL    HW2 2214   1.671   1.591   5.395
  520SOL     OW 2215   1.111   1.195   4.824
  520SOL    HW1 2216   1.071   1.239   4.905
  520SOL    HW2 2217   1.070   1.232   4.741
  521SOL     OW 2218   1.638   1.099   4.803
  521SOL    HW1 2219   1.643   1.180   4.862
  521SOL    HW2 2220   1.552   1.101   4.752
  522SOL     OW 2221   0.915   0.089   5.126
  522SOL    HW1 2222   0.940   0.069   5.031
  522SOL    HW2 2223   0.987   0.145   5.168
  523SOL     OW 2224   0.980   1.116   5.443
  523SOL    HW1 2225   0.881   1.122   5.453
  523SOL    HW2 2226   1.003   1.036   5.387
  524SOL     OW 2227   0.705   1.050   4.092
  524SOL    HW1 2228   0.691   1.057   4.191
  524SOL    HW2 2229   0.789   0.999   4.074
  525SOL     OW 2230   0.410   0.813   4.975
  525SOL    HW1 2231   0.496   0.825   5.025
  525SOL    HW2 2232   0.368   0.726   5.002
  526SOL     OW 2233   1.274   0.386   4.986
  526SOL    HW1 2234   1.295   0.460   5.050
  526SOL    HW2 2235   1.185   0.403   4.943
  527SOL     OW 2236   0.064   1.564   5.055
  527SOL    HW1 2237   0.018   1.646   5.021
  527SOL    HW2 2238   0.162   1.583   5.064
  528SOL     OW 2239   0.367   1.100   4.225
  528SOL    HW1 2240   0.360   1.183   4.169
  528SOL    HW2 2241   0.371   1.020   4.165
  529SOL     OW 2242   0.566   0.537   4.589
  529SOL    HW1 2243   0.578   0.603   4.515
  529SOL    HW2 2244   0.612   0.571   4.672
  530SOL     OW 2245   1.252   1.348   4.112
  530SOL    HW1 2246   1.302   1.425   4.152
  530SOL    HW2 2247   1.157   1.350   4.144
  531SOL     OW 2248   1.272   1.445   4.866
  531SOL    HW1 2249   1.319   1.458   4.953
  531SOL    HW2 2250   1.206   1.371   4.875
  532SOL     OW 2251   1.582   0.639   4.196
  532SOL    HW1 2252   1.551   0.700   4.269
  532SOL    HW2 2253   1.632   0.691   4.127
  533SOL     OW 2254   0.354   1.510   5.053
  533SOL    HW1 2255   0.333   1.466   4.966
  533SOL    HW2 2256   0.451   1.536   5.056
  534SOL     OW 2257   0.402   0.751   5.322
  534SOL    HW1 2258   0.470   0.806   5.275
  534SOL    HW2 2259   0.442   0.663   5.349
  535SOL     OW 2260   1.587   0.779   5.394
  535SOL    HW1 2261   1.495   0.817   5.389
  535SOL    HW2 2262   1.647   0.826   5.329
  536SOL     OW 2263   1.013   0.105   5.494
  536SOL    HW1 2264   1.019   0.190   5.442
  536SOL    HW2 2265   1.045   0.029   5.437
  537SOL     OW 2266   0.504   0.050   5.464
  537SOL    HW1 2267   0.462  -0.007   5.394
  537SOL    HW2 2268   0.438   0.119   5.496
  538SOL     OW 2269   0.573   0.870   4.753
  538SOL    HW1 2270   0.617   0.959   4.744
  538SOL    HW2 2271   0.510   0.870   4.830
  539SOL     OW 2272   1.360   0.862   4.769
  539SOL    HW1 2273   1.285   0.862   4.703
  539SOL    HW2 2274   1.397   0.770   4.778
  540SOL     OW 2275   1.209   0.525   3.999
  540SOL    HW1 2276   1.222   0.441   4.053
  540SOL    HW2 2277   1.180   0.599   4.059
  541SOL     OW 2278   0.307   0.213   4.955
  541SOL    HW1 2279   0.284   0.250   5.045
  541SOL    HW2 2280   0.277   0.118   4.949
  542SOL     OW 2281   0.037   1.310   5.006
  542SOL    HW1 2282   0.090   1.261   5.074
  542SOL    HW2 2283   0.059   1.408   5.011
  543SOL     OW 2284   0.732   0.634   4.788
  543SOL    HW1 2285   0.791   0.608   4.712
  543SOL    HW2 2286   0.704   0.730   4.777
  544SOL     OW 2287   1.728   0.935   5.578
  544SOL    HW1 2288   1.682   0.928   5.489
  544SOL    HW2 2289   1.666   0.979   5.644
  545SOL     OW 2290   0.307   0.063   4.342
  545SOL    HW1 2291   0.296   0.157   4.375
  545SOL    HW2 2292   0.302   0.000   4.419
  546SOL     OW 2293   1.622   0.367   4.098
  546SOL    HW1 2294   1.624   0.291   4.162
  546SOL    HW2 2295   1.574   0.444   4.138
  547SOL     OW 2296   1.023   0.766   4.690
  547SOL    HW1 2297   1.038   0.787   4.786
  547SOL    HW2 2298   0.993   0.671   4.681
  548SOL     OW 2299   0.980   1.573   5.424
  548SOL    HW1 2300   0.960   1.617   5.336
  548SOL    HW2 2301   1.019   1.482   5.408
  549SOL     OW 2302   1.859   1.518   5.329
  549SOL    HW1 2303   1.873   1.545   5.234
  549SOL    HW2 2304   1.942   1.540   5.382
  550SOL     OW 2305   0.350   0.898   5.528
  550SOL    HW1 2306   0.426   0.942   5.576
  550SOL    HW2 2307   0.385   0.851   5.446
  551SOL     OW 2308   1.540   0.274   3.849
  551SOL    HW1 2309   1.479   0.199   3.872
  551SOL    HW2 2310   1.562   0.326   3.932
  552SOL     OW 2311   1.303   0.838   3.766
  552SOL    HW1 2312   1.337   0.745   3.781
  552SOL    HW2 2313   1.321   0.865   3.671
  553SOL     OW 2314   1.068   1.333   4.573
  553SOL    HW1 2315   1.075   1.249   4.518
  553SOL    HW2 2316   1.130   1.402   4.537
  554SOL     OW 2317   0.319   0.810   4.673
  554SOL    HW1 2318   0.412   0.846   4.678
  554SOL    HW2 2319   0.313   0.725   4.725
  555SOL     OW 2320   0.339   0.509   4.730
  555SOL    HW1 2321   0.287   0.426   4.713
  555SOL    HW2 2322   0.416   0.514   4.666
  556SOL     OW 2323   1.138   0.380   5.402
  556SOL    HW1 2324   1.093   0.443   5.466
  556SOL    HW2 2325   1.231   0.411   5.385
  557SOL     OW 2326   1.160   0.207   5.201
  557SOL    HW1 2327   1.160   0.271   5.278
  557SOL    HW2 2328   1.188   0.255   5.118
  558SOL     OW 2329   0.008   1.326   3.924
  558SOL    HW1 2330  -0.085   1.347   3.893
  558SOL    HW2 2331   0.018   1.227   3.937
  559SOL     OW 2332   0.088   1.801   4.651
  559SOL    HW1 2333   0.046   1.715   4.624
  559SOL    HW2 2334   0.182   1.804   4.617
  560SOL     OW 2335   0.504   1.568   4.634
  560SOL    HW1 2336   0.570   1.642   4.643
  560SOL    HW2 2337   0.548   1.489   4.592
  561SOL     OW 2338   1.002   0.796   4.962
  561SOL    HW1 2339   1.043   0.764   5.048
  561SOL    HW2 2340   0.906   0.769   4.959
  562SOL     OW 2341   0.040   0.544   4.838
  562SOL    HW1 2342   0.125   0.511   4.797
  562SOL    HW2 2343   0.053   0.559   4.936
  563SOL     OW 2344   0.189   0.520   5.446
  563SOL    HW1 2345   0.248   0.480   5.376
  563SOL    HW2 2346   0.131   0.591   5.405
  564SOL     OW 2347   1.369   0.950   5.384
  564SOL    HW1 2348   1.408   1.039   5.404
  564SOL    HW2 2349   1.379   0.930   5.287
  565SOL     OW 2350   0.815   0.572   4.049
  565SOL    HW1 2351   0.822   0.483   4.003
  565SOL    HW2 2352   0.721   0.606   4.041
  566SOL     OW 2353   1.657   0.604   4.930
  566SOL    HW1 2354   1.619   0.535   4.992
  566SOL    HW2 2355   1.739   0.568   4.886
  567SOL     OW 2356   0.252   1.564   5.468
  567SOL    HW1 2357   0.222   1.621   5.544
  567SOL    HW2 2358   0.245   1.467   5.494
  568SOL     OW 2359   0.671   0.464   4.993
  568SOL    HW1 2360   0.637   0.375   4.963
  568SOL    HW2 2361   0.697   0.518   4.913
  569SOL     OW 2362   0.930   1.678   5.189
  569SOL    HW1 2363   0.906   1.660   5.094
  569SOL    HW2 2364   0.960   1.772   5.199
  570SOL     OW 2365   0.473   0.500   3.915
  570SOL    HW1 2366   0.534   0.580   3.919
  570SOL    HW2 2367   0.378   0.531   3.922
  571SOL     OW 2368   0.159   1.137   5.190
  571SOL    HW1 2369   0.181   1.076   5.266
  571SOL    HW2 2370   0.169   1.088   5.104
  572SOL     OW 2371   1.347   1.059   4.958
  572SOL    HW1 2372   1.371   0.996   4.884
  572SOL    HW2 2373   1.257   1.099   4.940
  573SOL     OW 2374   1.302   0.855   4.033
  573SOL    HW1 2375   1.216   0.824   4.075
  573SOL    HW2 2376   1.298   0.841   3.934
  574SOL     OW 2377   1.759   1.747   4.878
  574SOL    HW1 2378   1.820   1.777   4.805
  574SOL    HW2 2379   1.721   1.658   4.856
  575SOL     OW 2380   1.252   1.731   4.852
  575SOL    HW1 2381   1.336   1.736   4.798
  575SOL    HW2 2382   1.229   1.635   4.870
  576SOL     OW 2383   0.083   1.258   4.746
  576SOL    HW1 2384   0.078   1.257   4.846
  576SOL    HW2 2385   0.000   1.217   4.708
  577SOL     OW 2386   0.688   1.662   5.440
  577SOL    HW1 2387   0.632   1.743   5.449
  577SOL    HW2 2388   0.740   1.666   5.354
  578SOL     OW 2389   1.726   0.135   4.247
  578SOL    HW1 2390   1.799   0.118   4.180
  578SOL    HW2 2391   1.695   0.048   4.285
  579SOL     OW 2392   1.388   1.573   4.201
  579SOL    HW1 2393   1.455   1.585   4.127
  579SOL    HW2 2394   1.348   1.662   4.224
  580SOL     OW 2395   0.130   1.794   5.575
  580SOL    HW1 2396   0.089   1.720   5.628
  580SOL    HW2 2397   0.194   1.845   5.633
  581SOL     OW 2398   1.280   0.927   4.396
  581SOL    HW1 2399   1.340   0.846   4.398
  581SOL    HW2 2400   1.320   0.996   4.336
  582SOL     OW 2401   0.830   1.273   5.146
  582SOL    HW1 2402   0.825   1.306   5.241
  582SOL    HW2 2403   0.744   1.292   5.100
  583SOL     OW 2404   0.672   1.616   3.878
  583SOL    HW1 2405   0.681   1.626   3.779
  583SOL    HW2 2406   0.632   1.527   3.899
  584SOL     OW 2407   1.650   1.720   5.118
  584SOL    HW1 2408   1.703   1.730   5.034
  584SOL    HW2 2409   1.623   1.810   5.152
  585SOL     OW 2410   1.841   0.175   4.687
  585SOL    HW1 2411   1.880   0.090   4.651
  585SOL    HW2 2412   1.743   0.177   4.668
  586SOL     OW 2413   0.263   0.326   4.444
  586SOL    HW1 2414   0.184   0.377   4.410
  586SOL    HW2 2415   0.254   0.311   4.542
  587SOL     OW 2416   1.194   1.612   3.755
  587SOL    HW1 2417   1.200   1.519   3.792
  587SOL    HW2 2418   1.135   1.612   3.675
  588SOL     OW 2419   0.822   1.002   5.096
  588SOL    HW1 2420   0.862   1.001   5.004
  588SOL    HW2 2421   0.832   1.094   5.136
  589SOL     OW 2422   0.916   0.910   4.015
  589SOL    HW1 2423   0.979   0.948   3.947
  589SOL    HW2 2424   0.956   0.827   4.054
  590SOL     OW 2425   1.504   1.607   3.768
  590SOL    HW1 2426   1.412   1.644   3.775
  590SOL    HW2 2427   1.542   1.627   3.678
  591SOL     OW 2428   0.372   1.288   5.214
  591SOL    HW1 2429   0.359   1.381   5.180
  591SOL    HW2 2430   0.288   1.236   5.201
  592SOL     OW 2431   1.614   1.292   5.013
  592SOL    HW1 2432   1.674   1.295   5.093
  592SOL    HW2 2433   1.539   1.356   5.026
  593SOL     OW 2434   1.039   1.098   4.420
  593SOL    HW1 2435   0.969   1.051   4.474
  593SOL    HW2 2436   1.098   1.030   4.377
  594SOL     OW 2437   1.014   0.236   4.695
  594SOL    HW1 2438   1.006   0.200   4.602
  594SOL    HW2 2439   1.012   0.160   4.760
  595SOL     OW 2440   0.590   1.487   4.215
  595SOL    HW1 2441   0.632   1.429   4.145
  595SOL    HW2 2442   0.546   1.566   4.171
  596SOL     OW 2443   1.709   0.385   5.105
  596SOL    HW1 2444   1.782   0.454   5.109
  596SOL    HW2 2445   1.737   0.310   5.046
  597SOL     OW 2446   0.255   1.348   4.014
  597SOL    HW1 2447   0.159   1.349   3.987
  597SOL    HW2 2448   0.267   1.401   4.098
  598SOL     OW 2449   0.105   1.013   5.450
  598SOL    HW1 2450   0.028   0.980   5.504
  598SOL    HW2 2451   0.190   0.983   5.492
  599SOL     OW 2452   0.672   0.203   5.213
  599SOL    HW1 2453   0.762   0.187   5.173
  599SOL    HW2 2454   0.680   0.208   5.312
  600SOL     OW 2455   0.075   0.345   3.757
  600SOL    HW1 2456  -0.017   0.317   3.728
  600SOL    HW2 2457   0.106   0.422   3.701
  601SOL     OW 2458   1.440   0.856   5.122
  601SOL    HW1 2459   1.383   0.908   5.059
  601SOL    HW2 2460   1.536   0.868   5.098
  602SOL     OW 2461   0.072   0.166   4.042
  602SOL    HW1 2462   0.055   0.249   3.988
  602SOL    HW2 2463   0.162   0.129   4.020
  603SOL     OW 2464   1.183   1.335   3.843
  603SOL    HW1 2465   1.084   1.324   3.845
  603SOL    HW2 2466   1.217   1.350   3.936
  604SOL     OW 2467   0.613   0.842   5.155
  604SOL    HW1 2468   0.669   0.923   5.138
  604SOL    HW2 2469   0.672   0.762   5.158
  605SOL     OW 2470   1.493   1.767   4.683
  605SOL    HW1 2471   1.526   1.831   4.614
  605SOL    HW2 2472   1.559   1.761   4.758
  606SOL     OW 2473   0.716   0.565   5.432
  606SOL    HW1 2474   0.735   0.630   5.506
  606SOL    HW2 2475   0.776   0.485   5.441
  607SOL     OW 2476   1.450   1.220   5.357
  607SOL    HW1 2477   1.441   1.210   5.456
  607SOL    HW2 2478   1.546   1.213   5.331
  608SOL     OW 2479   0.390   1.741   5.284
  608SOL    HW1 2480   0.299   1.782   5.282
  608SOL    HW2 2481   0.383   1.647   5.316
  609SOL     OW 2482   1.674   0.883   4.978
  609SOL    HW1 2483   1.647   0.794   4.941
  609SOL    HW2 2484   1.675   0.951   4.905
  610SOL     OW 2485   1.225   0.325   4.173
  610SOL    HW1 2486   1.290   0.251   4.162
  610SOL    HW2 2487   1.245   0.375   4.257
  611SOL     OW 2488   0.594   0.745   4.376
  611SOL    HW1 2489   0.644   0.830   4.357
  611SOL    HW2 2490   0.506   0.747   4.328
  612SOL     OW 2491   1.777   0.342   5.366
  612SOL    HW1 2492   1.760   0.373   5.272
  612SOL    HW2 2493   1.693   0.305   5.404
  613SOL     OW 2494   1.730   0.934   5.241
  613SOL    HW1 2495   1.768   1.025   5.256
  613SOL    HW2 2496   1.722   0.917   5.142
  614SOL     OW 2497   0.859   1.374   3.740
  614SOL    HW1 2498   0.813   1.389   3.828
  614SOL    HW2 2499   0.903   1.459   3.710
  615SOL     OW 2500   0.661   1.790   4.677
  615SOL    HW1 2501   0.615   1.878   4.664
  615SOL    HW2 2502   0.760   1.802   4.670
  616SOL     OW 2503   0.859   0.956   4.585
  616SOL    HW1 2504   0.913   0.887   4.633
  616SOL    HW2 2505   0.827   1.025   4.651
  617SOL     OW 2506   1.083   0.984   3.811
  617SOL    HW1 2507   1.060   1.037   3.729
  617SOL    HW2 2508   1.164   0.928   3.792
  618SOL     OW 2509   1.861   1.569   4.575
  618SOL    HW1 2510   1.790   1.557   4.505
  618SOL    HW2 2511   1.862   1.490   4.635
  619SOL     OW 2512   0.221   1.314   5.568
  619SOL    HW1 2513   0.156   1.241   5.547
  619SOL    HW2 2514   0.225   1.328   5.666
  620SOL     OW 2515   0.079   1.240   4.377
  620SOL    HW1 2516   0.078   1.193   4.465
  620SOL    HW2 2517   0.161   1.212   4.326
  621SOL     OW 2518   0.672   1.391   5.348
  621SOL    HW1 2519   0.594   1.341   5.386
  621SOL    HW2 2520   0.669   1.486   5.379
  622SOL     OW 2521   1.824   0.192   4.951
  622SOL    HW1 2522   1.820   0.102   4.995
  622SOL    HW2 2523   1.827   0.181   4.852
  623SOL     OW 2524   0.428   0.424   4.244
  623SOL    HW1 2525   0.458   0.352   4.182
  623SOL    HW2 2526   0.389   0.384   4.327
  624SOL     OW 2527   1.705   1.487   4.828
  624SOL    HW1 2528   1.612   1.462   4.801
  624SOL    HW2 2529   1.731   1.437   4.910
  625SOL     OW 2530   0.317   0.547   5.004
  625SOL    HW1 2531   0.355   0.488   5.076
  625SOL    HW2 2532   0.357   0.521   4.916
  626SOL     OW 2533   0.812   1.586   4.411
  626SOL    HW1 2534   0.844   1.596   4.317
  626SOL    HW2 2535   0.733   1.524   4.413
  627SOL     OW 2536   1.424   0.214   4.836
  627SOL    HW1 2537   1.476   0.149   4.891
  627SOL    HW2 2538   1.375   0.277   4.897
  628SOL     OW 2539   1.001   0.034   4.878
  628SOL    HW1 2540   0.938  -0.038   4.847
  628SOL    HW2 2541   1.094  -0.002   4.878
  629SOL     OW 2542   0.770   1.330   4.025
  629SOL    HW1 2543   0.724   1.243   4.042
  629SOL    HW2 2544   0.861   1.327   4.066
  630SOL     OW 2545   0.618   1.567   5.008
  630SOL    HW1 2546   0.613   1.649   5.065
  630SOL    HW2 2547   0.707   1.564   4.963
  631SOL     OW 2548   1.352   0.052   3.892
  631SOL    HW1 2549   1.387   0.011   3.808
  631SOL    HW2 2550   1.262   0.014   3.912
  632SOL     OW 2551   1.300   0.453   4.415
  632SOL    HW1 2552   1.241   0.533   4.419
  632SOL    HW2 2553   1.315   0.418   4.508
  633SOL     OW 2554   1.593   0.221   4.606
  633SOL    HW1 2555   1.509   0.220   4.660
  633SOL    HW2 2556   1.595   0.304   4.550
  634SOL     OW 2557   0.039   1.077   4.024
  634SOL    HW1 2558   0.138   1.066   4.015
  634SOL    HW2 2559  -0.001   0.991   4.056
  635SOL     OW 2560   0.875   1.646   4.061
  635SOL    HW1 2561   0.798   1.611   4.007
  635SOL    HW2 2562   0.843   1.717   4.123
  636SOL     OW 2563   0.230   0.628   5.699
  636SOL    HW1 2564   0.137   0.626   5.736
  636SOL    HW2 2565   0.231   0.589   5.607
  637SOL     OW 2566   0.225   0.275   6.582
  637SOL    HW1 2567   0.260   0.258   6.674
  637SOL    HW2 2568   0.137   0.230   6.570
  638SOL     OW 2569   0.019   0.368   6.233
  638SOL    HW1 2570  -0.063   0.411   6.272
  638SOL    HW2 2571  -0.009   0.295   6.170
  639SOL     OW 2572   0.569   1.275   6.751
  639SOL    HW1 2573   0.476   1.268   6.714
  639SOL    HW2 2574   0.580   1.364   6.795
  640SOL     OW 2575   1.135   0.703   6.303
  640SOL    HW1 2576   1.192   0.781   6.278
  640SOL    HW2 2577   1.075   0.729   6.379
  641SOL     OW 2578   1.755   0.607   5.817
  641SOL    HW1 2579   1.743   0.594   5.718
  641SOL    HW2 2580   1.725   0.526   5.866
  642SOL     OW 2581   0.768   1.144   6.609
  642SOL    HW1 2582   0.690   1.161   6.669
  642SOL    HW2 2583   0.802   1.231   6.573
  643SOL     OW 2584   0.850   0.798   7.409
  643SOL    HW1 2585   0.846   0.874   7.474
  643SOL    HW2 2586   0.872   0.834   7.318
  644SOL     OW 2587   0.685   1.012   6.251
  644SOL    HW1 2588   0.754   0.996   6.321
  644SOL    HW2 2589   0.612   1.069   6.289
  645SOL     OW 2590   0.686   1.161   7.389
  645SOL    HW1 2591   0.746   1.240   7.403
  645SOL    HW2 2592   0.600   1.192   7.348
  646SOL     OW 2593   0.335   1.435   6.647
  646SOL    HW1 2594   0.257   1.404   6.594
  646SOL    HW2 2595   0.393   1.493   6.590
  647SOL     OW 2596   0.438   0.392   7.085
  647SOL    HW1 2597   0.520   0.336   7.094
  647SOL    HW2 2598   0.357   0.334   7.089
  648SOL     OW 2599   1.603   0.447   6.323
  648SOL    HW1 2600   1.529   0.493   6.273
  648SOL    HW2 2601   1.654   0.515   6.376
  649SOL     OW 2602   0.231   1.713   6.069
  649SOL    HW1 2603   0.265   1.790   6.123
  649SOL    HW2 2604   0.275   1.713   5.979
  650SOL     OW 2605   1.127   1.341   7.276
  650SOL    HW1 2606   1.174   1.341   7.364
  650SOL    HW2 2607   1.079   1.254   7.265
  651SOL     OW 2608   0.230   1.434   6.124
  651SOL    HW1 2609   0.204   1.530   6.124
  651SOL    HW2 2610   0.159   1.380   6.169
  652SOL     OW 2611   0.240   1.091   6.472
  652SOL    HW1 2612   0.254   1.007   6.524
  652SOL    HW2 2613   0.185   1.155   6.527
  653SOL     OW 2614   0.620   1.786   7.025
  653SOL    HW1 2615   0.528   1.769   7.060
  653SOL    HW2 2616   0.648   1.878   7.051
  654SOL     OW 2617   0.606   0.964   5.709
  654SOL    HW1 2618   0.613   1.048   5.655
  654SOL    HW2 2619   0.652   0.977   5.797
  655SOL     OW 2620   1.594   0.114   7.066
  655SOL    HW1 2621   1.576   0.181   6.994
  655SOL    HW2 2622   1.591   0.160   7.155
  656SOL     OW 2623   0.122   0.643   6.149
  656SOL    HW1 2624   0.077   0.555   6.166
  656SOL    HW2 2625   0.121   0.697   6.233
  657SOL     OW 2626   0.027   1.596   5.703
  657SOL    HW1 2627   0.008   1.500   5.724
  657SOL    HW2 2628  -0.006   1.654   5.778
  658SOL     OW 2629   1.689   0.922   6.198
  658SOL    HW1 2630   1.784   0.893   6.206
  658SOL    HW2 2631   1.681   0.987   6.123
  659SOL     OW 2632   1.641   1.108   6.018
  659SOL    HW1 2633   1.727   1.110   5.966
  659SOL    HW2 2634   1.655   1.155   6.106
  660SOL     OW 2635   0.113   0.737   7.183
  660SOL    HW1 2636   0.201   0.724   7.228
  660SOL    HW2 2637   0.100   0.834   7.161
  661SOL     OW 2638   0.613   1.365   6.312
  661SOL    HW1 2639   0.564   1.278   6.321
  661SOL    HW2 2640   0.590   1.408   6.225
  662SOL     OW 2641   1.293   1.228   7.009
  662SOL    HW1 2642   1.330   1.155   6.951
  662SOL    HW2 2643   1.345   1.233   7.094
  663SOL     OW 2644   0.809   0.004   6.088
  663SOL    HW1 2645   0.849   0.095   6.079
  663SOL    HW2 2646   0.709   0.012   6.094
  664SOL     OW 2647   0.197   0.976   6.850
  664SOL    HW1 2648   0.286   0.931   6.836
  664SOL    HW2 2649   0.124   0.911   6.831
  665SOL     OW 2650   1.525   0.999   5.776
  665SOL    HW1 2651   1.462   0.923   5.789
  665SOL    HW2 2652   1.573   1.017   5.862
  666SOL     OW 2653   0.317   0.251   7.387
  666SOL    HW1 2654   0.388   0.322   7.393
  666SOL    HW2 2655   0.229   0.290   7.415
  667SOL     OW 2656   1.667   1.714   6.158
  667SOL    HW1 2657   1.626   1.691   6.070
  667SOL    HW2 2658   1.649   1.640   6.223
  668SOL     OW 2659   0.598   0.729   5.856
  668SOL    HW1 2660   0.622   0.798   5.788
  668SOL    HW2 2661   0.520   0.762   5.910
  669SOL     OW 2662   1.281   0.345   6.530
  669SOL    HW1 2663   1.195   0.295   6.517
  669SOL    HW2 2664   1.343   0.291   6.586
  670SOL     OW 2665   1.576   1.662   5.893
  670SOL    HW1 2666   1.665   1.708   5.896
  670SOL    HW2 2667   1.555   1.638   5.798
  671SOL     OW 2668   0.807   0.605   7.051
  671SOL    HW1 2669   0.760   0.602   7.140
  671SOL    HW2 2670   0.756   0.550   6.985
  672SOL     OW 2671   1.394   0.469   7.260
  672SOL    HW1 2672   1.374   0.512   7.348
  672SOL    HW2 2673   1.472   0.407   7.269
  673SOL     OW 2674   0.973   0.890   7.158
  673SOL    HW1 2675   1.019   0.806   7.129
  673SOL    HW2 2676   0.917   0.924   7.083
  674SOL     OW 2677   0.991   0.410   6.828
  674SOL    HW1 2678   0.914   0.444   6.882
  674SOL    HW2 2679   0.957   0.359   6.749
  675SOL     OW 2680   1.041   0.701   6.015
  675SOL    HW1 2681   1.067   0.697   6.111
  675SOL    HW2 2682   0.956   0.650   6.001
  676SOL     OW 2683   0.076   0.811   6.375
  676SOL    HW1 2684   0.175   0.799   6.384
  676SOL    HW2 2685   0.052   0.906   6.396
  677SOL     OW 2686   0.130   1.821   7.157
  677SOL    HW1 2687   0.120   1.806   7.256
  677SOL    HW2 2688   0.044   1.857   7.121
  678SOL     OW 2689   0.865   0.348   5.781
  678SOL    HW1 2690   0.924   0.411   5.732
  678SOL    HW2 2691   0.884   0.254   5.752
  679SOL     OW 2692   1.719   0.585   7.417
  679SOL    HW1 2693   1.693   0.674   7.381
  679SOL    HW2 2694   1.717   0.517   7.344
  680SOL     OW 2695   1.362   1.144   6.131
  680SOL    HW1 2696   1.445   1.115   6.083
  680SOL    HW2 2697   1.313   1.211   6.075
  681SOL     OW 2698   0.550   0.196   6.471
  681SOL    HW1 2699   0.545   0.191   6.571
  681SOL    HW2 2700   0.552   0.292   6.442
  682SOL     OW 2701   1.008   1.456   6.063
  682SOL    HW1 2702   0.962   1.528   6.011
  682SOL    HW2 2703   1.004   1.476   6.161
  683SOL     OW 2704   0.351   1.801   6.439
  683SOL    HW1 2705   0.401   1.715   6.445
  683SOL    HW2 2706   0.416   1.878   6.436
  684SOL     OW 2707   1.795   1.066   6.459
  684SOL    HW1 2708   1.733   1.051   6.383
  684SOL    HW2 2709   1.743   1.077   6.544
  685SOL     OW 2710   1.227   1.550   7.092
  685SOL    HW1 2711   1.233   1.473   7.156
  685SOL    HW2 2712   1.175   1.524   7.012
  686SOL     OW 2713   0.321   0.943   5.828
  686SOL    HW1 2714   0.403   0.982   5.786
  686SOL    HW2 2715   0.294   0.861   5.779
  687SOL     OW 2716   1.458   0.735   6.314
  687SOL    HW1 2717   1.453   0.670   6.389
  687SOL    HW2 2718   1.538   0.794   6.327
  688SOL     OW 2719   0.461   1.266   7.313
  688SOL    HW1 2720   0.411   1.267   7.227
  688SOL    HW2 2721   0.398   1.248   7.389
  689SOL     OW 2722   1.111   1.776   5.823
  689SOL    HW1 2723   1.051   1.714   5.873
  689SOL    HW2 2724   1.142   1.732   5.738
  690SOL     OW 2725   0.202   0.285   7.084
  690SOL    HW1 2726   0.122   0.345   7.071
  690SOL    HW2 2727   0.192   0.236   7.170
  691SOL     OW 2728   1.632   1.377   5.667
  691SOL    HW1 2729   1.600   1.471   5.657
  691SOL    HW2 2730   1.556   1.314   5.655
  692SOL     OW 2731   0.464   1.743   5.909
  692SOL    HW1 2732   0.497   1.782   5.995
  692SOL    HW2 2733   0.540   1.736   5.844
  693SOL     OW 2734   1.400   0.107   6.012
  693SOL    HW1 2735   1.376   0.070   5.922
  693SOL    HW2 2736   1.499   0.123   6.016
  694SOL     OW 2737   0.249   1.785   6.827
  694SOL    HW1 2738   0.306   1.720   6.877
  694SOL    HW2 2739   0.233   1.752   6.734
  695SOL     OW 2740   0.940   1.698   6.490
  695SOL    HW1 2741   1.020   1.641   6.511
  695SOL    HW2 2742   0.891   1.658   6.413
  696SOL     OW 2743   0.382   0.700   6.066
  696SOL    HW1 2744   0.427   0.610   6.063
  696SOL    HW2 2745   0.288   0.689   6.099
  697SOL     OW 2746   1.547   0.222   7.315
  697SOL    HW1 2747   1.542   0.259   7.407
  697SOL    HW2 2748   1.475   0.153   7.303
  698SOL     OW 2749   0.614   0.122   5.703
  698SOL    HW1 2750   0.712   0.100   5.710
  698SOL    HW2 2751   0.583   0.105   5.610
  699SOL     OW 2752   0.781   0.264   7.335
  699SOL    HW1 2753   0.848   0.203   7.378
  699SOL    HW2 2754   0.708   0.283   7.400
  700SOL     OW 2755   0.888   1.514   6.781
  700SOL    HW1 2756   0.865   1.489   6.687
  700SOL    HW2 2757   0.949   1.445   6.820
  701SOL     OW 2758   1.351   0.590   7.019
  701SOL    HW1 2759   1.379   0.547   7.104
  701SOL    HW2 2760   1.376   0.686   7.020
  702SOL     OW 2761   0.803   1.402   6.510
  702SOL    HW1 2762   0.893   1.416   6.468
  702SOL    HW2 2763   0.732   1.404   6.439
  703SOL     OW 2764   0.922   0.503   6.485
  703SOL    HW1 2765   0.897   0.494   6.389
  703SOL    HW2 2766   0.970   0.421   6.516
  704SOL     OW 2767   0.539   0.064   6.098
  704SOL    HW1 2768   0.458   0.065   6.156
  704SOL    HW2 2769   0.542   0.147   6.043
  705SOL     OW 2770   1.434   1.188   5.627
  705SOL    HW1 2771   1.466   1.112   5.684
  705SOL    HW2 2772   1.342   1.215   5.657
  706SOL     OW 2773   0.297   0.035   5.757
  706SOL    HW1 2774   0.346   0.119   5.736
  706SOL    HW2 2775   0.359  -0.030   5.802
  707SOL     OW 2776   0.935   0.236   6.066
  707SOL    HW1 2777   0.887   0.277   5.988
  707SOL    HW2 2778   1.034   0.234   6.047
  708SOL     OW 2779   1.076   0.683   7.050
  708SOL    HW1 2780   0.996   0.622   7.053
  708SOL    HW2 2781   1.157   0.630   7.026
  709SOL     OW 2782   1.227   1.570   6.379
  709SOL    HW1 2783   1.248   1.644   6.314
  709SOL    HW2 2784   1.295   1.570   6.452
  710SOL     OW 2785   0.459   1.152   6.327
  710SOL    HW1 2786   0.388   1.125   6.392
  710SOL    HW2 2787   0.433   1.124   6.234
  711SOL     OW 2788   1.271   1.797   6.177
  711SOL    HW1 2789   1.315   1.861   6.113
  711SOL    HW2 2790   1.221   1.849   6.247
  712SOL     OW 2791   1.032   0.549   5.602
  712SOL    HW1 2792   0.991   0.631   5.563
  712SOL    HW2 2793   1.096   0.575   5.675
  713SOL     OW 2794   0.078   0.556   6.972
  713SOL    HW1 2795   0.170   0.555   6.931
  713SOL    HW2 2796   0.072   0.630   7.039
  714SOL     OW 2797   0.561   0.222   6.733
  714SOL    HW1 2798   0.599   0.138   6.770
  714SOL    HW2 2799   0.473   0.241   6.777
  715SOL     OW 2800   0.866   0.454   6.228
  715SOL    HW1 2801   0.834   0.526   6.166
  715SOL    HW2 2802   0.890   0.373   6.175
  716SOL     OW 2803   1.017   0.039   6.339
  716SOL    HW1 2804   0.945   0.044   6.270
  716SOL    HW2 2805   0.993  -0.030   6.408
  717SOL     OW 2806   1.429   1.173   6.453
  717SOL    HW1 2807   1.374   1.089   6.446
  717SOL    HW2 2808   1.455   1.202   6.361
  718SOL     OW 2809   1.466   0.590   6.578
  718SOL    HW1 2810   1.436   0.495   6.585
  718SOL    HW2 2811   1.539   0.606   6.644
  719SOL     OW 2812   1.857   0.833   5.963
  719SOL    HW1 2813   1.899   0.769   6.027
  719SOL    HW2 2814   1.819   0.782   5.885
  720SOL     OW 2815   0.488   1.385   5.760
  720SOL    HW1 2816   0.401   1.370   5.807
  720SOL    HW2 2817   0.471   1.411   5.665
  721SOL     OW 2818   1.664   1.280   6.243
  721SOL    HW1 2819   1.763   1.288   6.257
  721SOL    HW2 2820   1.619   1.364   6.274
  722SOL     OW 2821   1.390   0.575   5.664
  722SOL    HW1 2822   1.336   0.554   5.745
  722SOL    HW2 2823   1.481   0.534   5.673
  723SOL     OW 2824   0.527   0.256   5.914
  723SOL    HW1 2825   0.554   0.197   5.839
  723SOL    HW2 2826   0.527   0.351   5.883
  724SOL     OW 2827   1.064   1.347   6.926
  724SOL    HW1 2828   0.984   1.324   6.981
  724SOL    HW2 2829   1.147   1.321   6.975
  725SOL     OW 2830   1.111   1.195   6.686
  725SOL    HW1 2831   1.071   1.239   6.767
  725SOL    HW2 2832   1.070   1.232   6.603
  726SOL     OW 2833   1.638   1.099   6.665
  726SOL    HW1 2834   1.643   1.180   6.724
  726SOL    HW2 2835   1.552   1.101   6.614
  727SOL     OW 2836   0.915   0.089   6.988
  727SOL    HW1 2837   0.940   0.069   6.893
  727SOL    HW2 2838   0.987   0.145   7.030
  728SOL     OW 2839   0.980   1.116   7.305
  728SOL    HW1 2840   0.881   1.122   7.315
  728SOL    HW2 2841   1.003   1.036   7.249
  729SOL     OW 2842   0.705   1.050   5.954
  729SOL    HW1 2843   0.691   1.057   6.053
  729SOL    HW2 2844   0.789   0.999   5.936
  730SOL     OW 2845   0.410   0.813   6.837
  730SOL    HW1 2846   0.496   0.825   6.887
  730SOL    HW2 2847   0.368   0.726   6.864
  731SOL     OW 2848   1.274   0.386   6.848
  731SOL    HW1 2849   1.295   0.460   6.912
  731SOL    HW2 2850   1.185   0.403   6.805
  732SOL     OW 2851   0.064   1.564   6.917
  732SOL    HW1 2852   0.018   1.646   6.883
  732SOL    HW2 2853   0.162   1.583   6.926
  733SOL     OW 2854   0.367   1.100   6.087
  733SOL    HW1 2855   0.360   1.183   6.031
  733SOL    HW2 2856   0.371   1.020   6.027
  734SOL     OW 2857   0.566   0.537   6.451
  734SOL    HW1 2858   0.578   0.603   6.377
  734SOL    HW2 2859   0.612   0.571   6.534
  735SOL     OW 2860   1.252   1.348   5.974
  735SOL    HW1 2861   1.302   1.425   6.014
  735SOL    HW2 2862   1.157   1.350   6.006
  736SOL     OW 2863   1.582   0.639   6.058
  736SOL    HW1 2864   1.551   0.700   6.131
  736SOL    HW2 2865   1.632   0.691   5.989
  737SOL     OW 2866   0.354   1.510   6.915
  737SOL    HW1 2867   0.333   1.466   6.828
  737SOL    HW2 2868   0.451   1.536   6.918
  738SOL     OW 2869   0.402   0.751   7.184
  738SOL    HW1 2870   0.470   0.806   7.137
  738SOL    HW2 2871   0.442   0.663   7.211
  739SOL     OW 2872   1.587   0.779   7.256
  739SOL    HW1 2873   1.495   0.817   7.251
  739SOL    HW2 2874   1.647   0.826   7.191
  740SOL     OW 2875   1.013   0.105   7.356
  740SOL    HW1 2876   1.019   0.190   7.304
  740SOL    HW2 2877   1.045   0.029   7.299
  741SOL     OW 2878   0.504   0.050   7.326
  741SOL    HW1 2879   0.462  -0.007   7.256
  741SOL    HW2 2880   0.438   0.119   7.358
  742SOL     OW 2881   0.573   0.870   6.615
  742SOL    HW1 2882   0.617   0.959   6.606
  742SOL    HW2 2883   0.510   0.870   6.692
  743SOL     OW 2884   1.360   0.862   6.631
  743SOL    HW1 2885   1.285   0.862   6.565
  743SOL    HW2 2886   1.397   0.770   6.640
  744SOL     OW 2887   1.209   0.525   5.861
  744SOL    HW1 2888   1.222   0.441   5.915
  744SOL    HW2 2889   1.180   0.599   5.921
  745SOL     OW 2890   0.307   0.213   6.817
  745SOL    HW1 2891   0.284   0.250   6.907
  745SOL    HW2 2892   0.277   0.118   6.811
  746SOL     OW 2893   0.037   1.310   6.868
  746SOL    HW1 2894   0.090   1.261   6.936
  746SOL    HW2 2895   0.059   1.408   6.873
  747SOL     OW 2896   0.732   0.634   6.650
  747SOL    HW1 2897   0.791   0.608   6.574
  747SOL    HW2 2898   0.704   0.730   6.639
  748SOL     OW 2899   1.728   0.935   7.440
  748SOL    HW1 2900   1.682   0.928   7.351
  748SOL    HW2 2901   1.666   0.979   7.506
  749SOL     OW 2902   0.307   0.063   6.204
  749SOL    HW1 2903   0.296   0.157   6.237
  749SOL    HW2 2904   0.302   0.000   6.281
  750SOL     OW 2905   1.622   0.367   5.960
  750SOL    HW1 2906   1.624   0.291   6.024
  750SOL    HW2 2907   1.574   0.444   6.000
  751SOL     OW 2908   1.023   0.766   6.552
  751SOL    HW1 2909   1.038   0.787   6.648
  751SOL    HW2 2910   0.993   0.671   6.543
  752SOL     OW 2911   0.980   1.573   7.286
  752SOL    HW1 2912   0.960   1.617   7.198
  752SOL    HW2 2913   1.019   1.482   7.270
  753SOL     OW 2914   0.350   0.898   7.390
  753SOL    HW1 2915   0.426   0.942   7.438
  753SOL    HW2 2916   0.385   0.851   7.308
  754SOL     OW 2917   1.540   0.274   5.711
  754SOL    HW1 2918   1.479   0.199   5.734
  754SOL    HW2 2919   1.562   0.326   5.794
  755SOL     OW 2920   1.303   0.838   5.628
  755SOL    HW1 2921   1.337   0.745   5.643
  755SOL    HW2 2922   1.321   0.865   5.533
  756SOL     OW 2923   1.068   1.333   6.435
  756SOL    HW1 2924   1.075   1.249   6.380
  756SOL    HW2 2925   1.130   1.402   6.399
  757SOL     OW 2926   0.319   0.810   6.535
  757SOL    HW1 2927   0.412   0.846   6.540
  757SOL    HW2 2928   0.313   0.725   6.587
  758SOL     OW 2929   0.339   0.509   6.592
  758SOL    HW1 2930   0.287   0.426   6.575
  758SOL    HW2 2931   0.416   0.514   6.528
  759SOL     OW 2932   1.138   0.380   7.264
  759SOL    HW1 2933   1.093   0.443   7.328
  759SOL    HW2 2934   1.231   0.411   7.247
  760SOL     OW 2935   1.160   0.207   7.063
  760SOL    HW1 2936   1.160   0.271   7.140
  760SOL    HW2 2937   1.188   0.255   6.980
  761SOL     OW 2938   0.008   1.326   5.786
  761SOL    HW1 2939  -0.085   1.347   5.755
  761SOL    HW2 2940   0.018   1.227   5.799
  762SOL     OW 2941   0.088   1.801   6.513
  762SOL    HW1 2942   0.046   1.715   6.486
  762SOL    HW2 2943   0.182   1.804   6.479
  763SOL     OW 2944   0.504   1.568   6.496
  763SOL    HW1 2945   0.570   1.642   6.505
  763SOL    HW2 2946   0.548   1.489   6.454
  764SOL     OW 2947   1.002   0.796   6.824
  764SOL    HW1 2948   1.043   0.764   6.910
  764SOL    HW2 2949   0.906   0.769   6.821
  765SOL     OW 2950   0.040   0.544   6.700
  765SOL    HW1 2951   0.125   0.511   6.659
  765SOL    HW2 2952   0.053   0.559   6.798
  766SOL     OW 2953   0.189   0.520   7.308
  766SOL    HW1 2954   0.248   0.480   7.238
  766SOL    HW2 2955   0.131   0.591   7.267
  767SOL     OW 2956   1.369   0.950   7.246
  767SOL    HW1 2957   1.408   1.039   7.266
  767SOL    HW2 2958   1.379   0.930   7.149
  768SOL     OW 2959   0.815   0.572   5.911
  768SOL    HW1 2960   0.822   0.483   5.865
  768SOL    HW2 2961   0.721   0.606   5.903
  769SOL     OW 2962   1.657   0.604   6.792
  769SOL    HW1 2963   1.619   0.535   6.854
  769SOL    HW2 2964   1.739   0.568   6.748
  770SOL     OW 2965   0.252   1.564   7.330
  770SOL    HW1 2966   0.222   1.621   7.406
  770SOL    HW2 2967   0.245   1.467   7.356
  771SOL     OW 2968   0.671   0.464   6.855
  771SOL    HW1 2969   0.637   0.375   6.825
  771SOL    HW2 2970   0.697   0.518   6.775
  772SOL     OW 2971   0.930   1.678   7.051
  772SOL    HW1 2972   0.906   1.660   6.956
  772SOL    HW2 2973   0.960   1.772   7.061
  773SOL     OW 2974   0.473   0.500   5.777
  773SOL    HW1 2975   0.534   0.580   5.781
  773SOL    HW2 2976   0.378   0.531   5.784
  774SOL     OW 2977   0.159   1.137   7.052
  774SOL    HW1 2978   0.181   1.076   7.128
  774SOL    HW2 2979   0.169   1.088   6.966
  775SOL     OW 2980   1.347   1.059   6.820
  775SOL    HW1 2981   1.371   0.996   6.746
  775SOL    HW2 2982   1.257   1.099   6.802
  776SOL     OW 2983   1.302   0.855   5.895
  776SOL    HW1 2984   1.216   0.824   5.937
  776SOL    HW2 2985   1.298   0.841   5.796
  777SOL     OW 2986   0.083   1.258   6.608
  777SOL    HW1 2987   0.078   1.257   6.708
  777SOL    HW2 2988   0.000   1.217   6.570
  778SOL     OW 2989   0.688   1.662   7.302
  778SOL    HW1 2990   0.632   1.743   7.311
  778SOL    HW2 2991   0.740   1.666   7.216
  779SOL     OW 2992   1.726   0.135   6.109
  779SOL    HW1 2993   1.799   0.118   6.042
  779SOL    HW2 2994   1.695   0.048   6.147
  780SOL     OW 2995   1.388   1.573   6.063
  780SOL    HW1 2996   1.455   1.585   5.989
  780SOL    HW2 2997   1.348   1.662   6.086
  781SOL     OW 2998   0.130   1.794   7.437
  781SOL    HW1 2999   0.089   1.720   7.490
  781SOL    HW2 3000   0.194   1.845   7.495
  782SOL     OW 3001   1.280   0.927   6.258
  782SOL    HW1 3002   1.340   0.846   6.260
  782SOL    HW2 3003   1.320   0.996   6.198
  783SOL     OW 3004   0.830   1.273   7.008
  783SOL    HW1 3005   0.825   1.306   7.103
  783SOL    HW2 3006   0.744   1.292   6.962
  784SOL     OW 3007   0.672   1.616   5.740
  784SOL    HW1 3008   0.681   1.626   5.641
  784SOL    HW2 3009   0.632   1.527   5.761
  785SOL     OW 3010   1.841   0.175   6.549
  785SOL    HW1 3011   1.880   0.090   6.513
  785SOL    HW2 3012   1.743   0.177   6.530
  786SOL     OW 3013   0.263   0.326   6.306
  786SOL    HW1 3014   0.184   0.377   6.272
  786SOL    HW2 3015   0.254   0.311   6.404
  787SOL     OW 3016   1.194   1.612   5.617
  787SOL    HW1 3017   1.200   1.519   5.654
  787SOL    HW2 3018   1.135   1.612   5.537
  788SOL     OW 3019   0.822   1.002   6.958
  788SOL    HW1 3020   0.862   1.001   6.866
  788SOL    HW2 3021   0.832   1.094   6.998
  789SOL     OW 3022   0.916   0.910   5.877
  789SOL    HW1 3023   0.979   0.948   5.809
  789SOL    HW2 3024   0.956   0.827   5.916
  790SOL     OW 3025   1.504   1.607   5.630
  790SOL    HW1 3026   1.412   1.644   5.637
  790SOL    HW2 3027   1.542   1.627   5.540
  791SOL     OW 3028   0.372   1.288   7.076
  791SOL    HW1 3029   0.359   1.381   7.042
  791SOL    HW2 3030   0.288   1.236   7.063
  792SOL     OW 3031   1.039   1.098   6.282
  792SOL    HW1 3032   0.969   1.051   6.336
  792SOL    HW2 3033   1.098   1.030   6.239
  793SOL     OW 3034   1.014   0.236   6.557
  793SOL    HW1 3035   1.006   0.200   6.464
  793SOL    HW2 3036   1.012   0.160   6.622
  794SOL     OW 3037   0.590   1.487   6.077
  794SOL    HW1 3038   0.632   1.429   6.007
  794SOL    HW2 3039   0.546   1.566   6.033
  795SOL     OW 3040   1.709   0.385   6.967
  795SOL    HW1 3041   1.782   0.454   6.971
  795SOL    HW2 3042   1.737   0.310   6.908
  796SOL     OW 3043   0.255   1.348   5.876
  796SOL    HW1 3044   0.159   1.349   5.849
  796SOL    HW2 3045   0.267   1.401   5.960
  797SOL     OW 3046   0.105   1.013   7.312
  797SOL    HW1 3047   0.028   0.980   7.366
  797SOL    HW2 3048   0.190   0.983   7.354
  798SOL     OW 3049   0.672   0.203   7.075
  798SOL    HW1 3050   0.762   0.187   7.035
  798SOL    HW2 3051   0.680   0.208   7.174
  799SOL     OW 3052   0.075   0.345   5.619
  799SOL    HW1 3053  -0.017   0.317   5.590
  799SOL    HW2 3054   0.106   0.422   5.563
  800SOL     OW 3055   1.440   0.856   6.984
  800SOL    HW1 3056   1.383   0.908   6.921
  800SOL    HW2 3057   1.536   0.868   6.960
  801SOL     OW 3058   0.072   0.166   5.904
  801SOL    HW1 3059   0.055   0.249   5.850
  801SOL    HW2 3060   0.162   0.129   5.882
  802SOL     OW 3061   1.183   1.335   5.705
  802SOL    HW1 3062   1.084   1.324   5.707
  802SOL    HW2 3063   1.217   1.350   5.798
  803SOL     OW 3064   0.613   0.842   7.017
  803SOL    HW1 3065   0.669   0.923   7.000
  803SOL    HW2 3066   0.672   0.762   7.020
  804SOL     OW 3067   0.716   0.565   7.294
  804SOL    HW1 3068   0.735   0.630   7.368
  804SOL    HW2 3069   0.776   0.485   7.303
  805SOL     OW 3070   1.450   1.220   7.219
  805SOL    HW1 3071   1.441   1.210   7.318
  805SOL    HW2 3072   1.546   1.213   7.193
  806SOL     OW 3073   0.390   1.741   7.146
  806SOL    HW1 3074   0.299   1.782   7.144
  806SOL    HW2 3075   0.383   1.647   7.178
  807SOL     OW 3076   1.674   0.883   6.840
  807SOL    HW1 3077   1.647   0.794   6.803
  807SOL    HW2 3078   1.675   0.951   6.767
  808SOL     OW 3079   1.225   0.325   6.035
  808SOL    HW1 3080   1.290   0.251   6.024
  808SOL    HW2 3081   1.245   0.375   6.119
  809SOL     OW 3082   0.594   0.745   6.238
  809SOL    HW1 3083   0.644   0.830   6.219
  809SOL    HW2 3084   0.506   0.747   6.190
  810SOL     OW 3085   1.777   0.342   7.228
  810SOL    HW1 3086   1.760   0.373   7.134
  810SOL    HW2 3087   1.693   0.305   7.266
  811SOL     OW 3088   1.730   0.934   7.103
  811SOL    HW1 3089   1.768   1.025   7.118
  811SOL    HW2 3090   1.722   0.917   7.004
  812SOL     OW 3091   0.859   1.374   5.602
  812SOL    HW1 3092   0.813   1.389   5.690
  812SOL    HW2 3093   0.903   1.459   5.572
  813SOL     OW 3094   0.661   1.790   6.539
  813SOL    HW1 3095   0.615   1.878   6.526
  813SOL    HW2 3096   0.760   1.802   6.532
  814SOL     OW 3097   0.859   0.956   6.447
  814SOL    HW1 3098   0.913   0.887   6.495
  814SOL    HW2 3099   0.827   1.025   6.513
  815SOL     OW 3100   1.083   0.984   5.673
  815SOL    HW1 3101   1.060   1.037   5.591
  815SOL    HW2 3102   1.164   0.928   5.654
  816SOL     OW 3103   0.221   1.314   7.430
  816SOL    HW1 3104   0.156   1.241   7.409
  816SOL    HW2 3105   0.225   1.328   7.528
  817SOL     OW 3106   0.079   1.240   6.239
  817SOL    HW1 3107   0.078   1.193   6.327
  817SOL    HW2 3108   0.161   1.212   6.188
  818SOL     OW 3109   0.672   1.391   7.210
  818SOL    HW1 3110   0.594   1.341   7.248
  818SOL    HW2 3111   0.669   1.486   7.241
  819SOL     OW 3112   1.824   0.192   6.813
  819SOL    HW1 3113   1.820   0.102   6.857
  819SOL    HW2 3114   1.827   0.181   6.714
  820SOL     OW 3115   0.428   0.424   6.106
  820SOL    HW1 3116   0.458   0.352   6.044
  820SOL    HW2 3117   0.389   0.384   6.189
  821SOL     OW 3118   0.317   0.547   6.866
  821SOL    HW1 3119   0.355   0.488   6.938
  821SOL    HW2 3120   0.357   0.521   6.778
  822SOL     OW 3121   0.812   1.586   6.273
  822SOL    HW1 3122   0.844   1.596   6.179
  822SOL    HW2 3123   0.733   1.524   6.275
  823SOL     OW 3124   1.424   0.214   6.698
  823SOL    HW1 3125   1.476   0.149   6.753
  823SOL    HW2 3126   1.375   0.277   6.759
  824SOL     OW 3127   1.001   0.034   6.740
  824SOL    HW1 3128   0.938  -0.038   6.709
  824SOL    HW2 3129   1.094  -0.002   6.740
  825SOL     OW 3130   0.770   1.330   5.887
  825SOL    HW1 3131   0.724   1.243   5.904
  825SOL    HW2 3132   0.861   1.327   5.928
  826SOL     OW 3133   0.618   1.567   6.870
  826SOL    HW1 3134   0.613   1.649   6.927
  826SOL    HW2 3135   0.707   1.564   6.825
  827SOL     OW 3136   1.352   0.052   5.754
  827SOL    HW1 3137   1.387   0.011   5.670
  827SOL    HW2 3138   1.262   0.014   5.774
  828SOL     OW 3139   1.300   0.453   6.277
  828SOL    HW1 3140   1.241   0.533   6.281
  828SOL    HW2 3141   1.315   0.418   6.370
  829SOL     OW 3142   1.593   0.221   6.468
  829SOL    HW1 3143   1.509   0.220   6.522
  829SOL    HW2 3144   1.595   0.304   6.412
  830SOL     OW 3145   0.039   1.077   5.886
  830SOL    HW1 3146   0.138   1.066   5.877
  830SOL    HW2 3147  -0.001   0.991   5.918
  831SOL     OW 3148   0.875   1.646   5.923
  831SOL    HW1 3149   0.798   1.611   5.869
  831SOL    HW2 3150   0.843   1.717   5.985
  832SOL     OW 3151   0.230   0.628   7.561
  832SOL    HW1 3152   0.137   0.626   7.598
  832SOL    HW2 3153   0.231   0.589   7.469
  833SOL     OW 3154   0.225   0.275   8.444
  833SOL    HW1 3155   0.260   0.258   8.536
  833SOL    HW2 3156   0.137   0.230   8.432
  834SOL     OW 3157   0.019   0.368   8.095
  834SOL    HW1 3158  -0.063   0.411   8.134
  834SOL    HW2 3159  -0.009   0.295   8.032
  835SOL     OW 3160   0.569   1.275   8.613
  835SOL    HW1 3161   0.476   1.268   8.576
  835SOL    HW2 3162   0.580   1.364   8.657
  836SOL     OW 3163   1.555   1.511   8.151
  836SOL    HW1 3164   1.498   1.495   8.232
  836SOL    HW2 3165   1.496   1.521   8.071
  837SOL     OW 3166   1.135   0.703   8.165
  837SOL    HW1 3167   1.192   0.781   8.140
  837SOL    HW2 3168   1.075   0.729   8.241
  838SOL     OW 3169   1.755   0.607   7.679
  838SOL    HW1 3170   1.743   0.594   7.580
  838SOL    HW2 3171   1.725   0.526   7.728
  839SOL     OW 3172   0.768   1.144   8.471
  839SOL    HW1 3173   0.690   1.161   8.531
  839SOL    HW2 3174   0.802   1.231   8.435
  840SOL     OW 3175   0.850   0.798   9.271
  840SOL    HW1 3176   0.846   0.874   9.336
  840SOL    HW2 3177   0.872   0.834   9.180
  841SOL     OW 3178   0.685   1.012   8.113
  841SOL    HW1 3179   0.754   0.996   8.183
  841SOL    HW2 3180   0.612   1.069   8.151
  842SOL     OW 3181   0.686   1.161   9.251
  842SOL    HW1 3182   0.746   1.240   9.265
  842SOL    HW2 3183   0.600   1.192   9.210
  843SOL     OW 3184   0.335   1.435   8.509
  843SOL    HW1 3185   0.257   1.404   8.456
  843SOL    HW2 3186   0.393   1.493   8.452
  844SOL     OW 3187   1.460   1.505   8.787
  844SOL    HW1 3188   1.484   1.599   8.813
  844SOL    HW2 3189   1.444   1.451   8.869
  845SOL     OW 3190   0.438   0.392   8.947
  845SOL    HW1 3191   0.520   0.336   8.956
  845SOL    HW2 3192   0.357   0.334   8.951
  846SOL     OW 3193   1.603   0.447   8.185
  846SOL    HW1 3194   1.529   0.493   8.135
  846SOL    HW2 3195   1.654   0.515   8.238
  847SOL     OW 3196   0.231   1.713   7.931
  847SOL    HW1 3197   0.265   1.790   7.985
  847SOL    HW2 3198   0.275   1.713   7.841
  848SOL     OW 3199   1.127   1.341   9.138
  848SOL    HW1 3200   1.174   1.341   9.226
  848SOL    HW2 3201   1.079   1.254   9.127
  849SOL     OW 3202   0.230   1.434   7.986
  849SOL    HW1 3203   0.204   1.530   7.986
  849SOL    HW2 3204   0.159   1.380   8.031
  850SOL     OW 3205   0.240   1.091   8.334
  850SOL    HW1 3206   0.254   1.007   8.386
  850SOL    HW2 3207   0.185   1.155   8.389
  851SOL     OW 3208   0.620   1.786   8.887
  851SOL    HW1 3209   0.528   1.769   8.922
  851SOL    HW2 3210   0.648   1.878   8.913
  852SOL     OW 3211   0.606   0.964   7.571
  852SOL    HW1 3212   0.613   1.048   7.517
  852SOL    HW2 3213   0.652   0.977   7.659
  853SOL     OW 3214   1.594   0.114   8.928
  853SOL    HW1 3215   1.576   0.181   8.856
  853SOL    HW2 3216   1.591   0.160   9.017
  854SOL     OW 3217   0.122   0.643   8.011
  854SOL    HW1 3218   0.077   0.555   8.028
  854SOL    HW2 3219   0.121   0.697   8.095
  855SOL     OW 3220   0.027   1.596   7.565
  855SOL    HW1 3221   0.008   1.500   7.586
  855SOL    HW2 3222  -0.006   1.654   7.640
  856SOL     OW 3223   1.689   0.922   8.060
  856SOL    HW1 3224   1.784   0.893   8.068
  856SOL    HW2 3225   1.681   0.987   7.985
  857SOL     OW 3226   1.641   1.108   7.880
  857SOL    HW1 3227   1.727   1.110   7.828
  857SOL    HW2 3228   1.655   1.155   7.968
  858SOL     OW 3229   0.113   0.737   9.045
  858SOL    HW1 3230   0.201   0.724   9.090
  858SOL    HW2 3231   0.100   0.834   9.023
  859SOL     OW 3232   0.613   1.365   8.174
  859SOL    HW1 3233   0.564   1.278   8.183
  859SOL    HW2 3234   0.590   1.408   8.087
  860SOL     OW 3235   1.293   1.228   8.871
  860SOL    HW1 3236   1.330   1.155   8.813
  860SOL    HW2 3237   1.345   1.233   8.956
  861SOL     OW 3238   0.809   0.004   7.950
  861SOL    HW1 3239   0.849   0.095   7.941
  861SOL    HW2 3240   0.709   0.012   7.956
  862SOL     OW 3241   0.197   0.976   8.712
  862SOL    HW1 3242   0.286   0.931   8.698
  862SOL    HW2 3243   0.124   0.911   8.693
  863SOL     OW 3244   1.525   0.999   7.638
  863SOL    HW1 3245   1.462   0.923   7.651
  863SOL    HW2 3246   1.573   1.017   7.724
  864SOL     OW 3247   1.187   1.792   9.064
  864SOL    HW1 3248   1.211   1.852   8.988
  864SOL    HW2 3249   1.194   1.697   9.034
  865SOL     OW 3250   0.317   0.251   9.249
  865SOL    HW1 3251   0.388   0.322   9.255
  865SOL    HW2 3252   0.229   0.290   9.277
  866SOL     OW 3253   1.466   1.417   8.401
  866SOL    HW1 3254   1.407   1.423   8.481
  866SOL    HW2 3255   1.451   1.329   8.355
  867SOL     OW 3256   1.667   1.714   8.020
  867SOL    HW1 3257   1.626   1.691   7.932
  867SOL    HW2 3258   1.649   1.640   8.085
  868SOL     OW 3259   0.598   0.729   7.718
  868SOL    HW1 3260   0.622   0.798   7.650
  868SOL    HW2 3261   0.520   0.762   7.772
  869SOL     OW 3262   1.281   0.345   8.392
  869SOL    HW1 3263   1.195   0.295   8.379
  869SOL    HW2 3264   1.343   0.291   8.448
  870SOL     OW 3265   1.576   1.662   7.755
  870SOL    HW1 3266   1.665   1.708   7.758
  870SOL    HW2 3267   1.555   1.638   7.660
  871SOL     OW 3268   0.807   0.605   8.913
  871SOL    HW1 3269   0.760   0.602   9.002
  871SOL    HW2 3270   0.756   0.550   8.847
  872SOL     OW 3271   1.394   0.469   9.122
  872SOL    HW1 3272   1.374   0.512   9.210
  872SOL    HW2 3273   1.472   0.407   9.131
  873SOL     OW 3274   0.973   0.890   9.020
  873SOL    HW1 3275   1.019   0.806   8.991
  873SOL    HW2 3276   0.917   0.924   8.945
  874SOL     OW 3277   0.991   0.410   8.690
  874SOL    HW1 3278   0.914   0.444   8.744
  874SOL    HW2 3279   0.957   0.359   8.611
  875SOL     OW 3280   1.041   0.701   7.877
  875SOL    HW1 3281   1.067   0.697   7.973
  875SOL    HW2 3282   0.956   0.650   7.863
  876SOL     OW 3283   0.076   0.811   8.237
  876SOL    HW1 3284   0.175   0.799   8.246
  876SOL    HW2 3285   0.052   0.906   8.258
  877SOL     OW 3286   0.130   1.821   9.019
  877SOL    HW1 3287   0.120   1.806   9.118
  877SOL    HW2 3288   0.044   1.857   8.983
  878SOL     OW 3289   0.865   0.348   7.643
  878SOL    HW1 3290   0.924   0.411   7.594
  878SOL    HW2 3291   0.884   0.254   7.614
  879SOL     OW 3292   1.719   0.585   9.279
  879SOL    HW1 3293   1.693   0.674   9.243
  879SOL    HW2 3294   1.717   0.517   9.206
  880SOL     OW 3295   1.362   1.144   7.993
  880SOL    HW1 3296   1.445   1.115   7.945
  880SOL    HW2 3297   1.313   1.211   7.937
  881SOL     OW 3298   0.550   0.196   8.333
  881SOL    HW1 3299   0.545   0.191   8.433
  881SOL    HW2 3300   0.552   0.292   8.304
  882SOL     OW 3301   1.008   1.456   7.925
  882SOL    HW1 3302   0.962   1.528   7.873
  882SOL    HW2 3303   1.004   1.476   8.023
  883SOL     OW 3304   0.351   1.801   8.301
  883SOL    HW1 3305   0.401   1.715   8.307
  883SOL    HW2 3306   0.416   1.878   8.298
  884SOL     OW 3307   1.795   1.066   8.321
  884SOL    HW1 3308   1.733   1.051   8.245
  884SOL    HW2 3309   1.743   1.077   8.406
  885SOL     OW 3310   1.227   1.550   8.954
  885SOL    HW1 3311   1.233   1.473   9.018
  885SOL    HW2 3312   1.175   1.524   8.874
  886SOL     OW 3313   0.321   0.943   7.690
  886SOL    HW1 3314   0.403   0.982   7.648
  886SOL    HW2 3315   0.294   0.861   7.641
  887SOL     OW 3316   1.458   0.735   8.176
  887SOL    HW1 3317   1.453   0.670   8.251
  887SOL    HW2 3318   1.538   0.794   8.189
  888SOL     OW 3319   0.461   1.266   9.175
  888SOL    HW1 3320   0.411   1.267   9.089
  888SOL    HW2 3321   0.398   1.248   9.251
  889SOL     OW 3322   1.111   1.776   7.685
  889SOL    HW1 3323   1.051   1.714   7.735
  889SOL    HW2 3324   1.142   1.732   7.600
  890SOL     OW 3325   0.202   0.285   8.946
  890SOL    HW1 3326   0.122   0.345   8.933
  890SOL    HW2 3327   0.192   0.236   9.032
  891SOL     OW 3328   1.632   1.377   7.529
  891SOL    HW1 3329   1.600   1.471   7.519
  891SOL    HW2 3330   1.556   1.314   7.517
  892SOL     OW 3331   0.464   1.743   7.771
  892SOL    HW1 3332   0.497   1.782   7.857
  892SOL    HW2 3333   0.540   1.736   7.706
  893SOL     OW 3334   1.400   0.107   7.874
  893SOL    HW1 3335   1.376   0.070   7.784
  893SOL    HW2 3336   1.499   0.123   7.878
  894SOL     OW 3337   0.249   1.785   8.689
  894SOL    HW1 3338   0.306   1.720   8.739
  894SOL    HW2 3339   0.233   1.752   8.596
  895SOL     OW 3340   0.940   1.698   8.352
  895SOL    HW1 3341   1.020   1.641   8.373
  895SOL    HW2 3342   0.891   1.658   8.275
  896SOL     OW 3343   0.382   0.700   7.928
  896SOL    HW1 3344   0.427   0.610   7.925
  896SOL    HW2 3345   0.288   0.689   7.961
  897SOL     OW 3346   1.547   0.222   9.177
  897SOL    HW1 3347   1.542   0.259   9.269
  897SOL    HW2 3348   1.475   0.153   9.165
  898SOL     OW 3349   0.614   0.122   7.565
  898SOL    HW1 3350   0.712   0.100   7.572
  898SOL    HW2 3351   0.583   0.105   7.472
  899SOL     OW 3352   0.781   0.264   9.197
  899SOL    HW1 3353   0.848   0.203   9.240
  899SOL    HW2 3354   0.708   0.283   9.262
  900SOL     OW 3355   0.888   1.514   8.643
  900SOL    HW1 3356   0.865   1.489   8.549
  900SOL    HW2 3357   0.949   1.445   8.682
  901SOL     OW 3358   1.351   0.590   8.881
  901SOL    HW1 3359   1.379   0.547   8.966
  901SOL    HW2 3360   1.376   0.686   8.882
  902SOL     OW 3361   0.803   1.402   8.372
  902SOL    HW1 3362   0.893   1.416   8.330
  902SOL    HW2 3363   0.732   1.404   8.301
  903SOL     OW 3364   0.922   0.503   8.347
  903SOL    HW1 3365   0.897   0.494   8.251
  903SOL    HW2 3366   0.970   0.421   8.378
  904SOL     OW 3367   0.539   0.064   7.960
  904SOL    HW1 3368   0.458   0.065   8.018
  904SOL    HW2 3369   0.542   0.147   7.905
  905SOL     OW 3370   1.434   1.188   7.489
  905SOL    HW1 3371   1.466   1.112   7.546
  905SOL    HW2 3372   1.342   1.215   7.519
  906SOL     OW 3373   0.297   0.035   7.619
  906SOL    HW1 3374   0.346   0.119   7.598
  906SOL    HW2 3375   0.359  -0.030   7.664
  907SOL     OW 3376   0.935   0.236   7.928
  907SOL    HW1 3377   0.887   0.277   7.850
  907SOL    HW2 3378   1.034   0.234   7.909
  908SOL     OW 3379   1.076   0.683   8.912
  908SOL    HW1 3380   0.996   0.622   8.915
  908SOL    HW2 3381   1.157   0.630   8.888
  909SOL     OW 3382   1.227   1.570   8.241
  909SOL    HW1 3383   1.248   1.644   8.176
  909SOL    HW2 3384   1.295   1.570   8.314
  910SOL     OW 3385   0.459   1.152   8.189
  910SOL    HW1 3386   0.388   1.125   8.254
  910SOL    HW2 3387   0.433   1.124   8.096
  911SOL     OW 3388   1.271   1.797   8.039
  911SOL    HW1 3389   1.315   1.861   7.975
  911SOL    HW2 3390   1.221   1.849   8.109
  912SOL     OW 3391   1.032   0.549   7.464
  912SOL    HW1 3392   0.991   0.631   7.425
  912SOL    HW2 3393   1.096   0.575   7.537
  913SOL     OW 3394   0.078   0.556   8.834
  913SOL    HW1 3395   0.170   0.555   8.793
  913SOL    HW2 3396   0.072   0.630   8.901
  914SOL     OW 3397   0.561   0.222   8.595
  914SOL    HW1 3398   0.599   0.138   8.632
  914SOL    HW2 3399   0.473   0.241   8.639
  915SOL     OW 3400   0.866   0.454   8.090
  915SOL    HW1 3401   0.834   0.526   8.028
  915SOL    HW2 3402   0.890   0.373   8.037
  916SOL     OW 3403   1.017   0.039   8.201
  916SOL    HW1 3404   0.945   0.044   8.132
  916SOL    HW2 3405   0.993  -0.030   8.270
  917SOL     OW 3406   1.429   1.173   8.315
  917SOL    HW1 3407   1.374   1.089   8.308
  917SOL    HW2 3408   1.455   1.202   8.223
  918SOL     OW 3409   1.466   0.590   8.440
  918SOL    HW1 3410   1.436   0.495   8.447
  918SOL    HW2 3411   1.539   0.606   8.506
  919SOL     OW 3412   1.857   0.833   7.825
  919SOL    HW1 3413   1.899   0.769   7.889
  919SOL    HW2 3414   1.819   0.782   7.747
  920SOL     OW 3415   0.488   1.385   7.622
  920SOL    HW1 3416   0.401   1.370   7.669
  920SOL    HW2 3417   0.471   1.411   7.527
  921SOL     OW 3418   1.664   1.280   8.105
  921SOL    HW1 3419   1.763   1.288   8.119
  921SOL    HW2 3420   1.619   1.364   8.136
  922SOL     OW 3421   1.390   0.575   7.526
  922SOL    HW1 3422   1.336   0.554   7.607
  922SOL    HW2 3423   1.481   0.534   7.535
  923SOL     OW 3424   0.527   0.256   7.776
  923SOL    HW1 3425   0.554   0.197   7.701
  923SOL    HW2 3426   0.527   0.351   7.745
  924SOL     OW 3427   1.754   1.223   9.036
  924SOL    HW1 3428   1.845   1.184   9.023
  924SOL    HW2 3429   1.762   1.319   9.060
  925SOL     OW 3430   1.064   1.347   8.788
  925SOL    HW1 3431   0.984   1.324   8.843
  925SOL    HW2 3432   1.147   1.321   8.837
  926SOL     OW 3433   1.592   1.629   9.073
  926SOL    HW1 3434   1.619   1.663   8.983
  926SOL    HW2 3435   1.671   1.591   9.119
  927SOL     OW 3436   1.111   1.195   8.548
  927SOL    HW1 3437   1.071   1.239   8.629
  927SOL    HW2 3438   1.070   1.232   8.465
  928SOL     OW 3439   1.638   1.099   8.527
  928SOL    HW1 3440   1.643   1.180   8.586
  928SOL    HW2 3441   1.552   1.101   8.476
  929SOL     OW 3442   0.915   0.089   8.850
  929SOL    HW1 3443   0.940   0.069   8.755
  929SOL    HW2 3444   0.987   0.145   8.892
  930SOL     OW 3445   0.980   1.116   9.167
  930SOL    HW1 3446   0.881   1.122   9.177
  930SOL    HW2 3447   1.003   1.036   9.111
  931SOL     OW 3448   0.705   1.050   7.816
  931SOL    HW1 3449   0.691   1.057   7.915
  931SOL    HW2 3450   0.789   0.999   7.798
  932SOL     OW 3451   0.410   0.813   8.699
  932SOL    HW1 3452   0.496   0.825   8.749
  932SOL    HW2 3453   0.368   0.726   8.726
  933SOL     OW 3454   1.274   0.386   8.710
  933SOL    HW1 3455   1.295   0.460   8.774
  933SOL    HW2 3456   1.185   0.403   8.667
  934SOL     OW 3457   0.064   1.564   8.779
  934SOL    HW1 3458   0.018   1.646   8.745
  934SOL    HW2 3459   0.162   1.583   8.788
  935SOL     OW 3460   0.367   1.100   7.949
  935SOL    HW1 3461   0.360   1.183   7.893
  935SOL    HW2 3462   0.371   1.020   7.889
  936SOL     OW 3463   0.566   0.537   8.313
  936SOL    HW1 3464   0.578   0.603   8.239
  936SOL    HW2 3465   0.612   0.571   8.396
  937SOL     OW 3466   1.252   1.348   7.836
  937SOL    HW1 3467   1.302   1.425   7.876
  937SOL    HW2 3468   1.157   1.350   7.868
  938SOL     OW 3469   1.272   1.445   8.590
  938SOL    HW1 3470   1.319   1.458   8.677
  938SOL    HW2 3471   1.206   1.371   8.599
  939SOL     OW 3472   1.582   0.639   7.920
  939SOL    HW1 3473   1.551   0.700   7.993
  939SOL    HW2 3474   1.632   0.691   7.851
  940SOL     OW 3475   0.354   1.510   8.777
  940SOL    HW1 3476   0.333   1.466   8.690
  940SOL    HW2 3477   0.451   1.536   8.780
  941SOL     OW 3478   0.402   0.751   9.046
  941SOL    HW1 3479   0.470   0.806   8.999
  941SOL    HW2 3480   0.442   0.663   9.073
  942SOL     OW 3481   1.587   0.779   9.118
  942SOL    HW1 3482   1.495   0.817   9.113
  942SOL    HW2 3483   1.647   0.826   9.053
  943SOL     OW 3484   1.013   0.105   9.218
  943SOL    HW1 3485   1.019   0.190   9.166
  943SOL    HW2 3486   1.045   0.029   9.161
  944SOL     OW 3487   0.504   0.050   9.188
  944SOL    HW1 3488   0.462  -0.007   9.118
  944SOL    HW2 3489   0.438   0.119   9.220
  945SOL     OW 3490   0.573   0.870   8.477
  945SOL    HW1 3491   0.617   0.959   8.468
  945SOL    HW2 3492   0.510   0.870   8.554
  946SOL     OW 3493   1.360   0.862   8.493
  946SOL    HW1 3494   1.285   0.862   8.427
  946SOL    HW2 3495   1.397   0.770   8.502
  947SOL     OW 3496   1.209   0.525   7.723
  947SOL    HW1 3497   1.222   0.441   7.777
  947SOL    HW2 3498   1.180   0.599   7.783
  948SOL     OW 3499   0.307   0.213   8.679
  948SOL    HW1 3500   0.284   0.250   8.769
  948SOL    HW2 3501   0.277   0.118   8.673
  949SOL     OW 3502   0.037   1.310   8.730
  949SOL    HW1 3503   0.090   1.261   8.798
  949SOL    HW2 3504   0.059   1.408   8.735
  950SOL     OW 3505   0.732   0.634   8.512
  950SOL    HW1 3506   0.791   0.608   8.436
  950SOL    HW2 3507   0.704   0.730   8.501
  951SOL     OW 3508   1.728   0.935   9.302
  951SOL    HW1 3509   1.682   0.928   9.213
  951SOL    HW2 3510   1.666   0.979   9.368
  952SOL     OW 3511   0.307   0.063   8.066
  952SOL    HW1 3512   0.296   0.157   8.099
  952SOL    HW2 3513   0.302   0.000   8.143
  953SOL     OW 3514   1.622   0.367   7.822
  953SOL    HW1 3515   1.624   0.291   7.886
  953SOL    HW2 3516   1.574   0.444   7.862
  954SOL     OW 3517   1.023   0.766   8.414
  954SOL    HW1 3518   1.038   0.787   8.510
  954SOL    HW2 3519   0.993   0.671   8.405
  955SOL     OW 3520   0.980   1.573   9.148
  955SOL    HW1 3521   0.960   1.617   9.060
  955SOL    HW2 3522   1.019   1.482   9.132
  956SOL     OW 3523   1.859   1.518   9.053
  956SOL    HW1 3524   1.873   1.545   8.958
  956SOL    HW2 3525   1.942   1.540   9.106
  957SOL     OW 3526   0.350   0.898   9.252
  957SOL    HW1 3527   0.426   0.942   9.300
  957SOL    HW2 3528   0.385   0.851   9.170
  958SOL     OW 3529   1.540   0.274   7.573
  958SOL    HW1 3530   1.479   0.199   7.596
  958SOL    HW2 3531   1.562   0.326   7.656
  959SOL     OW 3532   1.303   0.838   7.490
  959SOL    HW1 3533   1.337   0.745   7.505
  959SOL    HW2 3534   1.321   0.865   7.395
  960SOL     OW 3535   1.068   1.333   8.297
  960SOL    HW1 3536   1.075   1.249   8.242
  960SOL    HW2 3537   1.130   1.402   8.261
  961SOL     OW 3538   0.319   0.810   8.397
  961SOL    HW1 3539   0.412   0.846   8.402
  961SOL    HW2 3540   0.313   0.725   8.449
  962SOL     OW 3541   0.339   0.509   8.454
  962SOL    HW1 3542   0.287   0.426   8.437
  962SOL    HW2 3543   0.416   0.514   8.390
  963SOL     OW 3544   1.138   0.380   9.126
  963SOL    HW1 3545   1.093   0.443   9.190
  963SOL    HW2 3546   1.231   0.411   9.109
  964SOL     OW 3547   1.160   0.207   8.925
  964SOL    HW1 3548   1.160   0.271   9.002
  964SOL    HW2 3549   1.188   0.255   8.842
  965SOL     OW 3550   0.008   1.326   7.648
  965SOL    HW1 3551  -0.085   1.347   7.617
  965SOL    HW2 3552   0.018   1.227   7.661
  966SOL     OW 3553   0.088   1.801   8.375
  966SOL    HW1 3554   0.046   1.715   8.348
  966SOL    HW2 3555   0.182   1.804   8.341
  967SOL     OW 3556   0.504   1.568   8.358
  967SOL    HW1 3557   0.570   1.642   8.367
  967SOL    HW2 3558   0.548   1.489   8.316
  968SOL     OW 3559   1.002   0.796   8.686
  968SOL    HW1 3560   1.043   0.764   8.772
  968SOL    HW2 3561   0.906   0.769   8.683
  969SOL     OW 3562   0.040   0.544   8.562
  969SOL    HW1 3563   0.125   0.511   8.521
  969SOL    HW2 3564   0.053   0.559   8.660
  970SOL     OW 3565   0.189   0.520   9.170
  970SOL    HW1 3566   0.248   0.480   9.100
  970SOL    HW2 3567   0.131   0.591   9.129
  971SOL     OW 3568   1.369   0.950   9.108
  971SOL    HW1 3569   1.408   1.039   9.128
  971SOL    HW2 3570   1.379   0.930   9.011
  972SOL     OW 3571   0.815   0.572   7.773
  972SOL    HW1 3572   0.822   0.483   7.727
  972SOL    HW2 3573   0.721   0.606   7.765
  973SOL     OW 3574   1.657   0.604   8.654
  973SOL    HW1 3575   1.619   0.535   8.716
  973SOL    HW2 3576   1.739   0.568   8.610
  974SOL     OW 3577   0.252   1.564   9.192
  974SOL    HW1 3578   0.222   1.621   9.268
  974SOL    HW2 3579   0.245   1.467   9.218
  975SOL     OW 3580   0.671   0.464   8.717
  975SOL    HW1 3581   0.637   0.375   8.687
  975SOL    HW2 3582   0.697   0.518   8.637
  976SOL     OW 3583   0.930   1.678   8.913
  976SOL    HW1 3584   0.906   1.660   8.818
  976SOL    HW2 3585   0.960   1.772   8.923
  977SOL     OW 3586   0.473   0.500   7.639
  977SOL    HW1 3587   0.534   0.580   7.643
  977SOL    HW2 3588   0.378   0.531   7.646
  978SOL     OW 3589   0.159   1.137   8.914
  978SOL    HW1 3590   0.181   1.076   8.990
  978SOL    HW2 3591   0.169   1.088   8.828
  979SOL     OW 3592   1.347   1.059   8.682
  979SOL    HW1 3593   1.371   0.996   8.608
  979SOL    HW2 3594   1.257   1.099   8.664
  980SOL     OW 3595   1.302   0.855   7.757
  980SOL    HW1 3596   1.216   0.824   7.799
  980SOL    HW2 3597   1.298   0.841   7.658
  981SOL     OW 3598   1.759   1.747   8.602
  981SOL    HW1 3599   1.820   1.777   8.529
  981SOL    HW2 3600   1.721   1.658   8.580
  982SOL     OW 3601   1.252   1.731   8.576
  982SOL    HW1 3602   1.336   1.736   8.522
  982SOL    HW2 3603   1.229   1.635   8.594
  983SOL     OW 3604   0.083   1.258   8.470
  983SOL    HW1 3605   0.078   1.257   8.570
  983SOL    HW2 3606   0.000   1.217   8.432
  984SOL     OW 3607   0.688   1.662   9.164
  984SOL    HW1 3608   0.632   1.743   9.173
  984SOL    HW2 3609   0.740   1.666   9.078
  985SOL     OW 3610   1.726   0.135   7.971
  985SOL    HW1 3611   1.799   0.118   7.904
  985SOL    HW2 3612   1.695   0.048   8.009
  986SOL     OW 3613   1.388   1.573   7.925
  986SOL    HW1 3614   1.455   1.585   7.851
  986SOL    HW2 3615   1.348   1.662   7.948
  987SOL     OW 3616   0.130   1.794   9.299
  987SOL    HW1 3617   0.089   1.720   9.352
  987SOL    HW2 3618   0.194   1.845   9.357
  988SOL     OW 3619   1.280   0.927   8.120
  988SOL    HW1 3620   1.340   0.846   8.122
  988SOL    HW2 3621   1.320   0.996   8.060
  989SOL     OW 3622   0.830   1.273   8.870
  989SOL    HW1 3623   0.825   1.306   8.965
  989SOL    HW2 3624   0.744   1.292   8.824
  990SOL     OW 3625   0.672   1.616   7.602
  990SOL    HW1 3626   0.681   1.626   7.503
  990SOL    HW2 3627   0.632   1.527   7.623
  991SOL     OW 3628   1.650   1.720   8.842
  991SOL    HW1 3629   1.703   1.730   8.758
  991SOL    HW2 3630   1.623   1.810   8.876
  992SOL     OW 3631   1.841   0.175   8.411
  992SOL    HW1 3632   1.880   0.090   8.375
  992SOL    HW2 3633   1.743   0.177   8.392
  993SOL     OW 3634   0.263   0.326   8.168
  993SOL    HW1 3635   0.184   0.377   8.134
  993SOL    HW2 3636   0.254   0.311   8.266
  994SOL     OW 3637   0.822   1.002   8.820
  994SOL    HW1 3638   0.862   1.001   8.728
  994SOL    HW2 3639   0.832   1.094   8.860
  995SOL     OW 3640   0.916   0.910   7.739
  995SOL    HW1 3641   0.979   0.948   7.671
  995SOL    HW2 3642   0.956   0.827   7.778
  996SOL     OW 3643   1.504   1.607   7.492
  996SOL    HW1 3644   1.412   1.644   7.499
  996SOL    HW2 3645   1.542   1.627   7.402
  997SOL     OW 3646   0.372   1.288   8.938
  997SOL    HW1 3647   0.359   1.381   8.904
  997SOL    HW2 3648   0.288   1.236   8.925
  998SOL     OW 3649   1.614   1.292   8.737
  998SOL    HW1 3650   1.674   1.295   8.817
  998SOL    HW2 3651   1.539   1.356   8.750
  999SOL     OW 3652   1.039   1.098   8.144
  999SOL    HW1 3653   0.969   1.051   8.198
  999SOL    HW2 3654   1.098   1.030   8.101
 1000SOL     OW 3655   1.014   0.236   8.419
 1000SOL    HW1 3656   1.006   0.200   8.326
 1000SOL    HW2 3657   1.012   0.160   8.484
 1001SOL     OW 3658   0.590   1.487   7.939
 1001SOL    HW1 3659   0.632   1.429   7.869
 1001SOL    HW2 3660   0.546   1.566   7.895
 1002SOL     OW 3661   1.709   0.385   8.829
 1002SOL    HW1 3662   1.782   0.454   8.833
 1002SOL    HW2 3663   1.737   0.310   8.770
 1003SOL     OW 3664   0.255   1.348   7.738
 1003SOL    HW1 3665   0.159   1.349   7.711
 1003SOL    HW2 3666   0.267   1.401   7.822
 1004SOL     OW 3667   0.105   1.013   9.174
 1004SOL    HW1 3668   0.028   0.980   9.228
 1004SOL    HW2 3669   0.190   0.983   9.216
 1005SOL     OW 3670   0.672   0.203   8.937
 1005SOL    HW1 3671   0.762   0.187   8.897
 1005SOL    HW2 3672   0.680   0.208   9.036
 1006SOL     OW 3673   0.075   0.345   7.481
 1006SOL    HW1 3674  -0.017   0.317   7.452
 1006SOL    HW2 3675   0.106   0.422   7.425
 1007SOL     OW 3676   1.440   0.856   8.846
 1007SOL    HW1 3677   1.383   0.908   8.783
 1007SOL    HW2 3678   1.536   0.868   8.822
 1008SOL     OW 3679   0.072   0.166   7.766
 1008SOL    HW1 3680   0.055   0.249   7.712
 1008SOL    HW2 3681   0.162   0.129   7.744
 1009SOL     OW 3682   1.183   1.335   7.567
 1009SOL    HW1 3683   1.084   1.324   7.569
 1009SOL    HW2 3684   1.217   1.350   7.660
 1010SOL     OW 3685   0.613   0.842   8.879
 1010SOL    HW1 3686   0.669   0.923   8.862
 1010SOL    HW2 3687   0.672   0.762   8.882
 1011SOL     OW 3688   1.493   1.767   8.407
 1011SOL    HW1 3689   1.526   1.831   8.338
 1011SOL    HW2 3690   1.559   1.761   8.482
 1012SOL     OW 3691   0.716   0.565   9.156
 1012SOL    HW1 3692   0.735   0.630   9.230
 1012SOL    HW2 3693   0.776   0.485   9.165
 1013SOL     OW 3694   1.450   1.220   9.081
 1013SOL    HW1 3695   1.441   1.210   9.180
 1013SOL    HW2 3696   1.546   1.213   9.055
 1014SOL     OW 3697   0.390   1.741   9.008
 1014SOL    HW1 3698   0.299   1.782   9.006
 1014SOL    HW2 3699   0.383   1.647   9.040
 1015SOL     OW 3700   1.674   0.883   8.702
 1015SOL    HW1 3701   1.647   0.794   8.665
 1015SOL    HW2 3702   1.675   0.951   8.629
 1016SOL     OW 3703   1.225   0.325   7.897
 1016SOL    HW1 3704   1.290   0.251   7.886
 1016SOL    HW2 3705   1.245   0.375   7.981
 1017SOL     OW 3706   0.594   0.745   8.100
 1017SOL    HW1 3707   0.644   0.830   8.081
 1017SOL    HW2 3708   0.506   0.747   8.052
 1018SOL     OW 3709   1.777   0.342   9.090
 1018SOL    HW1 3710   1.760   0.373   8.996
 1018SOL    HW2 3711   1.693   0.305   9.128
 1019SOL     OW 3712   1.730   0.934   8.965
 1019SOL    HW1 3713   1.768   1.025   8.980
 1019SOL    HW2 3714   1.722   0.917   8.866
 1020SOL     OW 3715   0.859   1.374   7.464
 1020SOL    HW1 3716   0.813   1.389   7.552
 1020SOL    HW2 3717   0.903   1.459   7.434
 1021SOL     OW 3718   0.661   1.790   8.401
 1021SOL    HW1 3719   0.615   1.878   8.388
 1021SOL    HW2 3720   0.760   1.802   8.394
 1022SOL     OW 3721   0.859   0.956   8.309
 1022SOL    HW1 3722   0.913   0.887   8.357
 1022SOL    HW2 3723   0.827   1.025   8.375
 1023SOL     OW 3724   1.083   0.984   7.535
 1023SOL    HW1 3725   1.060   1.037   7.453
 1023SOL    HW2 3726   1.164   0.928   7.516
 1024SOL     OW 3727   1.861   1.569   8.299
 1024SOL    HW1 3728   1.790   1.557   8.229
 1024SOL    HW2 3729   1.862   1.490   8.359
 1025SOL     OW 3730   0.221   1.314   9.292
 1025SOL    HW1 3731   0.156   1.241   9.271
 1025SOL    HW2 3732   0.225   1.328   9.390
 1026SOL     OW 3733   0.079   1.240   8.101
 1026SOL    HW1 3734   0.078   1.193   8.189
 1026SOL    HW2 3735   0.161   1.212   8.050
 1027SOL     OW 3736   0.672   1.391   9.072
 1027SOL    HW1 3737   0.594   1.341   9.110
 1027SOL    HW2 3738   0.669   1.486   9.103
 1028SOL     OW 3739   1.824   0.192   8.675
 1028SOL    HW1 3740   1.820   0.102   8.719
 1028SOL    HW2 3741   1.827   0.181   8.576
 1029SOL     OW 3742   0.428   0.424   7.968
 1029SOL    HW1 3743   0.458   0.352   7.906
 1029SOL    HW2 3744   0.389   0.384   8.051
 1030SOL     OW 3745   1.705   1.487   8.552
 1030SOL    HW1 3746   1.612   1.462   8.525
 1030SOL    HW2 3747   1.731   1.437   8.634
 1031SOL     OW 3748   0.317   0.547   8.728
 1031SOL    HW1 3749   0.355   0.488   8.800
 1031SOL    HW2 3750   0.357   0.521   8.640
 1032SOL     OW 3751   0.812   1.586   8.135
 1032SOL    HW1 3752   0.844   1.596   8.041
 1032SOL    HW2 3753   0.733   1.524   8.137
 1033SOL     OW 3754   1.424   0.214   8.560
 1033SOL    HW1 3755   1.476   0.149   8.615
 1033SOL    HW2 3756   1.375   0.277   8.621
 1034SOL     OW 3757   1.001   0.034   8.602
 1034SOL    HW1 3758   0.938  -0.038   8.571
 1034SOL    HW2 3759   1.094  -0.002   8.602
 1035SOL     OW 3760   0.770   1.330   7.749
 1035SOL    HW1 3761   0.724   1.243   7.766
 1035SOL    HW2 3762   0.861   1.327   7.790
 1036SOL     OW 3763   0.618   1.567   8.732
 1036SOL    HW1 3764   0.613   1.649   8.789
 1036SOL    HW2 3765   0.707   1.564   8.687
 1037SOL     OW 3766   1.352   0.052   7.616
 1037SOL    HW1 3767   1.387   0.011   7.532
 1037SOL    HW2 3768   1.262   0.014   7.636
 1038SOL     OW 3769   1.300   0.453   8.139
 1038SOL    HW1 3770   1.241   0.533   8.143
 1038SOL    HW2 3771   1.315   0.418   8.232
 1039SOL     OW 3772   1.593   0.221   8.330
 1039SOL    HW1 3773   1.509   0.220   8.384
 1039SOL    HW2 3774   1.595   0.304   8.274
 1040SOL     OW 3775   0.039   1.077   7.748
 1040SOL    HW1 3776   0.138   1.066   7.739
 1040SOL    HW2 3777  -0.001   0.991   7.780
 1041SOL     OW 3778   0.875   1.646   7.785
 1041SOL    HW1 3779   0.798   1.611   7.731
 1041SOL    HW2 3780   0.843   1.717   7.847
 1042SOL     OW 3781   0.230   0.628   9.423
 1042SOL    HW1 3782   0.137   0.626   9.460
 1042SOL    HW2 3783   0.231   0.589   9.331
 1043SOL     OW 3784   0.225   0.275  10.306
 1043SOL    HW1 3785   0.260   0.258  10.398
 1043SOL    HW2 3786   0.137   0.230  10.294
 1044SOL     OW 3787   0.019   0.368   9.957
 1044SOL    HW1 3788  -0.063   0.411   9.996
 1044SOL    HW2 3789  -0.009   0.295   9.894
 1045SOL     OW 3790   0.569   1.275  10.475
 1045SOL    HW1 3791   0.476   1.268  10.438
 1045SOL    HW2 3792   0.580   1.364  10.519
 1046SOL     OW 3793   1.555   1.511  10.013
 1046SOL    HW1 3794   1.498   1.495  10.094
 1046SOL    HW2 3795   1.496   1.521   9.933
 1047SOL     OW 3796   1.135   0.703  10.027
 1047SOL    HW1 3797   1.192   0.781  10.002
 1047SOL    HW2 3798   1.075   0.729  10.103
 1048SOL     OW 3799   1.755   0.607   9.541
 1048SOL    HW1 3800   1.743   0.594   9.442
 1048SOL    HW2 3801   1.725   0.526   9.590
 1049SOL     OW 3802   0.768   1.144  10.333
 1049SOL    HW1 3803   0.690   1.161  10.393
 1049SOL    HW2 3804   0.802   1.231  10.297
 1050SOL     OW 3805   0.850   0.798  11.133
 1050SOL    HW1 3806   0.846   0.874  11.198
 1050SOL    HW2 3807   0.872   0.834  11.042
 1051SOL     OW 3808   0.685   1.012   9.975
 1051SOL    HW1 3809   0.754   0.996  10.045
 1051SOL    HW2 3810   0.612   1.069  10.013
 1052SOL     OW 3811   0.686   1.161  11.113
 1052SOL    HW1 3812   0.746   1.240  11.127
 1052SOL    HW2 3813   0.600   1.192  11.072
 1053SOL     OW 3814   0.335   1.435  10.371
 1053SOL    HW1 3815   0.257   1.404  10.318
 1053SOL    HW2 3816   0.393   1.493  10.314
 1054SOL     OW 3817   1.460   1.505  10.649
 1054SOL    HW1 3818   1.484   1.599  10.675
 1054SOL    HW2 3819   1.444   1.451  10.731
 1055SOL     OW 3820   0.438   0.392  10.809
 1055SOL    HW1 3821   0.520   0.336  10.818
 1055SOL    HW2 3822   0.357   0.334  10.813
 1056SOL     OW 3823   1.603   0.447  10.047
 1056SOL    HW1 3824   1.529   0.493   9.997
 1056SOL    HW2 3825   1.654   0.515  10.100
 1057SOL     OW 3826   0.231   1.713   9.793
 1057SOL    HW1 3827   0.265   1.790   9.847
 1057SOL    HW2 3828   0.275   1.713   9.703
 1058SOL     OW 3829   1.127   1.341  11.000
 1058SOL    HW1 3830   1.174   1.341  11.088
 1058SOL    HW2 3831   1.079   1.254  10.989
 1059SOL     OW 3832   0.230   1.434   9.848
 1059SOL    HW1 3833   0.204   1.530   9.848
 1059SOL    HW2 3834   0.159   1.380   9.893
 1060SOL     OW 3835   0.240   1.091  10.196
 1060SOL    HW1 3836   0.254   1.007  10.248
 1060SOL    HW2 3837   0.185   1.155  10.251
 1061SOL     OW 3838   0.620   1.786  10.749
 1061SOL    HW1 3839   0.528   1.769  10.784
 1061SOL    HW2 3840   0.648   1.878  10.775
 1062SOL     OW 3841   0.606   0.964   9.433
 1062SOL    HW1 3842   0.613   1.048   9.379
 1062SOL    HW2 3843   0.652   0.977   9.521
 1063SOL     OW 3844   1.594   0.114  10.790
 1063SOL    HW1 3845   1.576   0.181  10.718
 1063SOL    HW2 3846   1.591   0.160  10.879
 1064SOL     OW 3847   0.122   0.643   9.873
 1064SOL    HW1 3848   0.077   0.555   9.890
 1064SOL    HW2 3849   0.121   0.697   9.957
 1065SOL     OW 3850   0.027   1.596   9.427
 1065SOL    HW1 3851   0.008   1.500   9.448
 1065SOL    HW2 3852  -0.006   1.654   9.502
 1066SOL     OW 3853   1.689   0.922   9.922
 1066SOL    HW1 3854   1.784   0.893   9.930
 1066SOL    HW2 3855   1.681   0.987   9.847
 1067SOL     OW 3856   1.641   1.108   9.742
 1067SOL    HW1 3857   1.727   1.110   9.690
 1067SOL    HW2 3858   1.655   1.155   9.830
 1068SOL     OW 3859   0.113   0.737  10.907
 1068SOL    HW1 3860   0.201   0.724  10.952
 1068SOL    HW2 3861   0.100   0.834  10.885
 1069SOL     OW 3862   0.613   1.365  10.036
 1069SOL    HW1 3863   0.564   1.278  10.045
 1069SOL    HW2 3864   0.590   1.408   9.949
 1070SOL     OW 3865   1.293   1.228  10.733
 1070SOL    HW1 3866   1.330   1.155  10.675
 1070SOL    HW2 3867   1.345   1.233  10.818
 1071SOL     OW 3868   0.809   0.004   9.812
 1071SOL    HW1 3869   0.849   0.095   9.803
 1071SOL    HW2 3870   0.709   0.012   9.818
 1072SOL     OW 3871   0.197   0.976  10.574
 1072SOL    HW1 3872   0.286   0.931  10.560
 1072SOL    HW2 3873   0.124   0.911  10.555
 1073SOL     OW 3874   1.525   0.999   9.500
 1073SOL    HW1 3875   1.462   0.923   9.513
 1073SOL    HW2 3876   1.573   1.017   9.586
 1074SOL     OW 3877   1.187   1.792  10.926
 1074SOL    HW1 3878   1.211   1.852  10.850
 1074SOL    HW2 3879   1.194   1.697  10.896
 1075SOL     OW 3880   0.317   0.251  11.111
 1075SOL    HW1 3881   0.388   0.322  11.117
 1075SOL    HW2 3882   0.229   0.290  11.139
 1076SOL     OW 3883   1.466   1.417  10.263
 1076SOL    HW1 3884   1.407   1.423  10.343
 1076SOL    HW2 3885   1.451   1.329  10.217
 1077SOL     OW 3886   1.667   1.714   9.882
 1077SOL    HW1 3887   1.626   1.691   9.794
 1077SOL    HW2 3888   1.649   1.640   9.947
 1078SOL     OW 3889   0.598   0.729   9.580
 1078SOL    HW1 3890   0.622   0.798   9.512
 1078SOL    HW2 3891   0.520   0.762   9.634
 1079SOL     OW 3892   1.281   0.345  10.254
 1079SOL    HW1 3893   1.195   0.295  10.241
 1079SOL    HW2 3894   1.343   0.291  10.310
 1080SOL     OW 3895   1.576   1.662   9.617
 1080SOL    HW1 3896   1.665   1.708   9.620
 1080SOL    HW2 3897   1.555   1.638   9.522
 1081SOL     OW 3898   0.807   0.605  10.775
 1081SOL    HW1 3899   0.760   0.602  10.864
 1081SOL    HW2 3900   0.756   0.550  10.709
 1082SOL     OW 3901   1.394   0.469  10.984
 1082SOL    HW1 3902   1.374   0.512  11.072
 1082SOL    HW2 3903   1.472   0.407  10.993
 1083SOL     OW 3904   0.973   0.890  10.882
 1083SOL    HW1 3905   1.019   0.806  10.853
 1083SOL    HW2 3906   0.917   0.924  10.807
 1084SOL     OW 3907   0.991   0.410  10.552
 1084SOL    HW1 3908   0.914   0.444  10.606
 1084SOL    HW2 3909   0.957   0.359  10.473
 1085SOL     OW 3910   1.041   0.701   9.739
 1085SOL    HW1 3911   1.067   0.697   9.835
 1085SOL    HW2 3912   0.956   0.650   9.725
 1086SOL     OW 3913   0.076   0.811  10.099
 1086SOL    HW1 3914   0.175   0.799  10.108
 1086SOL    HW2 3915   0.052   0.906  10.120
 1087SOL     OW 3916   0.130   1.821  10.881
 1087SOL    HW1 3917   0.120   1.806  10.980
 1087SOL    HW2 3918   0.044   1.857  10.845
 1088SOL     OW 3919   0.865   0.348   9.505
 1088SOL    HW1 3920   0.924   0.411   9.456
 1088SOL    HW2 3921   0.884   0.254   9.476
 1089SOL     OW 3922   1.719   0.585  11.141
 1089SOL    HW1 3923   1.693   0.674  11.105
 1089SOL    HW2 3924   1.717   0.517  11.068
 1090SOL     OW 3925   1.362   1.144   9.855
 1090SOL    HW1 3926   1.445   1.115   9.807
 1090SOL    HW2 3927   1.313   1.211   9.799
 1091SOL     OW 3928   0.550   0.196  10.195
 1091SOL    HW1 3929   0.545   0.191  10.295
 1091SOL    HW2 3930   0.552   0.292  10.166
 1092SOL     OW 3931   1.008   1.456   9.787
 1092SOL    HW1 3932   0.962   1.528   9.735
 1092SOL    HW2 3933   1.004   1.476   9.885
 1093SOL     OW 3934   0.351   1.801  10.163
 1093SOL    HW1 3935   0.401   1.715  10.169
 1093SOL    HW2 3936   0.416   1.878  10.160
 1094SOL     OW 3937   1.795   1.066  10.183
 1094SOL    HW1 3938   1.733   1.051  10.107
 1094SOL    HW2 3939   1.743   1.077  10.268
 1095SOL     OW 3940   1.227   1.550  10.816
 1095SOL    HW1 3941   1.233   1.473  10.880
 1095SOL    HW2 3942   1.175   1.524  10.736
 1096SOL     OW 3943   0.321   0.943   9.552
 1096SOL    HW1 3944   0.403   0.982   9.510
 1096SOL    HW2 3945   0.294   0.861   9.503
 1097SOL     OW 3946   1.458   0.735  10.038
 1097SOL    HW1 3947   1.453   0.670  10.113
 1097SOL    HW2 3948   1.538   0.794  10.051
 1098SOL     OW 3949   0.461   1.266  11.037
 1098SOL    HW1 3950   0.411   1.267  10.951
 1098SOL    HW2 3951   0.398   1.248  11.113
 1099SOL     OW 3952   1.111   1.776   9.547
 1099SOL    HW1 3953   1.051   1.714   9.597
 1099SOL    HW2 3954   1.142   1.732   9.462
 1100SOL     OW 3955   0.202   0.285  10.808
 1100SOL    HW1 3956   0.122   0.345  10.795
 1100SOL    HW2 3957   0.192   0.236  10.894
 1101SOL     OW 3958   1.632   1.377   9.391
 1101SOL    HW1 3959   1.600   1.471   9.381
 1101SOL    HW2 3960   1.556   1.314   9.379
 1102SOL     OW 3961   0.464   1.743   9.633
 1102SOL    HW1 3962   0.497   1.782   9.719
 1102SOL    HW2 3963   0.540   1.736   9.568
 1103SOL     OW 3964   1.400   0.107   9.736
 1103SOL    HW1 3965   1.376   0.070   9.646
 1103SOL    HW2 3966   1.499   0.123   9.740
 1104SOL     OW 3967   0.249   1.785  10.551
 1104SOL    HW1 3968   0.306   1.720  10.601
 1104SOL    HW2 3969   0.233   1.752  10.458
 1105SOL     OW 3970   0.940   1.698  10.214
 1105SOL    HW1 3971   1.020   1.641  10.235
 1105SOL    HW2 3972   0.891   1.658  10.137
 1106SOL     OW 3973   0.382   0.700   9.790
 1106SOL    HW1 3974   0.427   0.610   9.787
 1106SOL    HW2 3975   0.288   0.689   9.823
 1107SOL     OW 3976   1.547   0.222  11.039
 1107SOL    HW1 3977   1.542   0.259  11.131
 1107SOL    HW2 3978   1.475   0.153  11.027
 1108SOL     OW 3979   0.614   0.122   9.427
 1108SOL    HW1 3980   0.712   0.100   9.434
 1108SOL    HW2 3981   0.583   0.105   9.334
 1109SOL     OW 3982   0.781   0.264  11.059
 1109SOL    HW1 3983   0.848   0.203  11.102
 1109SOL    HW2 3984   0.708   0.283  11.124
 1110SOL     OW 3985   0.888   1.514  10.505
 1110SOL    HW1 3986   0.865   1.489  10.411
 1110SOL    HW2 3987   0.949   1.445  10.544
 1111SOL     OW 3988   1.351   0.590  10.743
 1111SOL    HW1 3989   1.379   0.547  10.828
 1111SOL    HW2 3990   1.376   0.686  10.744
 1112SOL     OW 3991   0.803   1.402  10.234
 1112SOL    HW1 3992   0.893   1.416  10.192
 1112SOL    HW2 3993   0.732   1.404  10.163
 1113SOL     OW 3994   0.922   0.503  10.209
 1113SOL    HW1 3995   0.897   0.494  10.113
 1113SOL    HW2 3996   0.970   0.421  10.240
 1114SOL     OW 3997   0.539   0.064   9.822
 1114SOL    HW1 3998   0.458   0.065   9.880
 1114SOL    HW2 3999   0.542   0.147   9.767
 1115SOL     OW 4000   1.434   1.188   9.351
 1115SOL    HW1 4001   1.466   1.112   9.408
 1115SOL    HW2 4002   1.342   1.215   9.381
 1116SOL     OW 4003   0.297   0.035   9.481
 1116SOL    HW1 4004   0.346   0.119   9.460
 1116SOL    HW2 4005   0.359  -0.030   9.526
 1117SOL     OW 4006   0.935   0.236   9.790
 1117SOL    HW1 4007   0.887   0.277   9.712
 1117SOL    HW2 4008   1.034   0.234   9.771
 1118SOL     OW 4009   1.076   0.683  10.774
 1118SOL    HW1 4010   0.996   0.622  10.777
 1118SOL    HW2 4011   1.157   0.630  10.750
 1119SOL     OW 4012   1.227   1.570  10.103
 1119SOL    HW1 4013   1.248   1.644  10.038
 1119SOL    HW2 4014   1.295   1.570  10.176
 1120SOL     OW 4015   0.459   1.152  10.051
 1120SOL    HW1 4016   0.388   1.125  10.116
 1120SOL    HW2 4017   0.433   1.124   9.958
 1121SOL     OW 4018   1.271   1.797   9.901
 1121SOL    HW1 4019   1.315   1.861   9.837
 1121SOL    HW2 4020   1.221   1.849   9.971
 1122SOL     OW 4021   1.032   0.549   9.326
 1122SOL    HW1 4022   0.991   0.631   9.287
 1122SOL    HW2 4023   1.096   0.575   9.399
 1123SOL     OW 4024   0.078   0.556  10.696
 1123SOL    HW1 4025   0.170   0.555  10.655
 1123SOL    HW2 4026   0.072   0.630  10.763
 1124SOL     OW 4027   0.561   0.222  10.457
 1124SOL    HW1 4028   0.599   0.138  10.494
 1124SOL    HW2 4029   0.473   0.241  10.501
 1125SOL     OW 4030   0.866   0.454   9.952
 1125SOL    HW1 4031   0.834   0.526   9.890
 1125SOL    HW2 4032   0.890   0.373   9.899
 1126SOL     OW 4033   1.017   0.039  10.063
 1126SOL    HW1 4034   0.945   0.044   9.994
 1126SOL    HW2 4035   0.993  -0.030  10.132
 1127SOL     OW 4036   1.429   1.173  10.177
 1127SOL    HW1 4037   1.374   1.089  10.170
 1127SOL    HW2 4038   1.455   1.202  10.085
 1128SOL     OW 4039   1.466   0.590  10.302
 1128SOL    HW1 4040   1.436   0.495  10.309
 1128SOL    HW2 4041   1.539   0.606  10.368
 1129SOL     OW 4042   1.857   0.833   9.687
 1129SOL    HW1 4043   1.899   0.769   9.751
 1129SOL    HW2 4044   1.819   0.782   9.609
 1130SOL     OW 4045   0.488   1.385   9.484
 1130SOL    HW1 4046   0.401   1.370   9.531
 1130SOL    HW2 4047   0.471   1.411   9.389
 1131SOL     OW 4048   1.664   1.280   9.967
 1131SOL    HW1 4049   1.763   1.288   9.981
 1131SOL    HW2 4050   1.619   1.364   9.998
 1132SOL     OW 4051   1.390   0.575   9.388
 1132SOL    HW1 4052   1.336   0.554   9.469
 1132SOL    HW2 4053   1.481   0.534   9.397
 1133SOL     OW 4054   0.527   0.256   9.638
 1133SOL    HW1 4055   0.554   0.197   9.563
 1133SOL    HW2 4056   0.527   0.351   9.607
 1134SOL     OW 4057   1.754   1.223  10.898
 1134SOL    HW1 4058   1.845   1.184  10.885
 1134SOL    HW2 4059   1.762   1.319  10.922
 1135SOL     OW 4060   1.064   1.347  10.650
 1135SOL    HW1 4061   0.984   1.324  10.705
 1135SOL    HW2 4062   1.147   1.321  10.699
 1136SOL     OW 4063   1.592   1.629  10.935
 1136SOL    HW1 4064   1.619   1.663  10.845
 1136SOL    HW2 4065   1.671   1.591  10.981
 1137SOL     OW 4066   1.111   1.195  10.410
 1137SOL    HW1 4067   1.071   1.239  10.491
 1137SOL    HW2 4068   1.070   1.232  10.327
 1138SOL     OW 4069   1.638   1.099  10.389
 1138SOL    HW1 4070   1.643   1.180  10.448
 1138SOL    HW2 4071   1.552   1.101  10.338
 1139SOL     OW 4072   0.915   0.089  10.712
 1139SOL    HW1 4073   0.940   0.069  10.617
 1139SOL    HW2 4074   0.987   0.145  10.754
 1140SOL     OW 4075   0.980   1.116  11.029
 1140SOL    HW1 4076   0.881   1.122  11.039
 1140SOL    HW2 4077   1.003   1.036  10.973
 1141SOL     OW 4078   0.705   1.050   9.678
 1141SOL    HW1 4079   0.691   1.057   9.777
 1141SOL    HW2 4080   0.789   0.999   9.660
 1142SOL     OW 4081   0.410   0.813  10.561
 1142SOL    HW1 4082   0.496   0.825  10.611
 1142SOL    HW2 4083   0.368   0.726  10.588
 1143SOL     OW 4084   1.274   0.386  10.572
 1143SOL    HW1 4085   1.295   0.460  10.636
 1143SOL    HW2 4086   1.185   0.403  10.529
 1144SOL     OW 4087   0.064   1.564  10.641
 1144SOL    HW1 4088   0.018   1.646  10.607
 1144SOL    HW2 4089   0.162   1.583  10.650
 1145SOL     OW 4090   0.367   1.100   9.811
 1145SOL    HW1 4091   0.360   1.183   9.755
 1145SOL    HW2 4092   0.371   1.020   9.751
 1146SOL     OW 4093   0.566   0.537  10.175
 1146SOL    HW1 4094   0.578   0.603  10.101
 1146SOL    HW2 4095   0.612   0.571  10.258
 1147SOL     OW 4096   1.252   1.348   9.698
 1147SOL    HW1 4097   1.302   1.425   9.738
 1147SOL    HW2 4098   1.157   1.350   9.730
 1148SOL     OW 4099   1.272   1.445  10.452
 1148SOL    HW1 4100   1.319   1.458  10.539
 1148SOL    HW2 4101   1.206   1.371  10.461
 1149SOL     OW 4102   1.582   0.639   9.782
 1149SOL    HW1 4103   1.551   0.700   9.855
 1149SOL    HW2 4104   1.632   0.691   9.713
 1150SOL     OW 4105   0.354   1.510  10.639
 1150SOL    HW1 4106   0.333   1.466  10.552
 1150SOL    HW2 4107   0.451   1.536  10.642
 1151SOL     OW 4108   0.402   0.751  10.908
 1151SOL    HW1 4109   0.470   0.806  10.861
 1151SOL    HW2 4110   0.442   0.663  10.935
 1152SOL     OW 4111   1.587   0.779  10.980
 1152SOL    HW1 4112   1.495   0.817  10.975
 1152SOL    HW2 4113   1.647   0.826  10.915
 1153SOL     OW 4114   1.013   0.105  11.080
 1153SOL    HW1 4115   1.019   0.190  11.028
 1153SOL    HW2 4116   1.045   0.029  11.023
 1154SOL     OW 4117   0.504   0.050  11.050
 1154SOL    HW1 4118   0.462  -0.007  10.980
 1154SOL    HW2 4119   0.438   0.119  11.082
 1155SOL     OW 4120   0.573   0.870  10.339
 1155SOL    HW1 4121   0.617   0.959  10.330
 1155SOL    HW2 4122   0.510   0.870  10.416
 1156SOL     OW 4123   1.360   0.862  10.355
 1156SOL    HW1 4124   1.285   0.862  10.289
 1156SOL    HW2 4125   1.397   0.770  10.364
 1157SOL     OW 4126   1.209   0.525   9.585
 1157SOL    HW1 4127   1.222   0.441   9.639
 1157SOL    HW2 4128   1.180   0.599   9.645
 1158SOL     OW 4129   0.307   0.213  10.541
 1158SOL    HW1 4130   0.284   0.250  10.631
 1158SOL    HW2 4131   0.277   0.118  10.535
 1159SOL     OW 4132   0.037   1.310  10.592
 1159SOL    HW1 4133   0.090   1.261  10.660
 1159SOL    HW2 4134   0.059   1.408  10.597
 1160SOL     OW 4135   0.732   0.634  10.374
 1160SOL    HW1 4136   0.791   0.608  10.298
 1160SOL    HW2 4137   0.704   0.730  10.363
 1161SOL     OW 4138   1.728   0.935  11.164
 1161SOL    HW1 4139   1.682   0.928  11.075
 1161SOL    HW2 4140   1.666   0.979  11.230
 1162SOL     OW 4141   0.307   0.063   9.928
 1162SOL    HW1 4142   0.296   0.157   9.961
 1162SOL    HW2 4143   0.302   0.000  10.005
 1163SOL     OW 4144   1.622   0.367   9.684
 1163SOL    HW1 4145   1.624   0.291   9.748
 1163SOL    HW2 4146   1.574   0.444   9.724
 1164SOL     OW 4147   1.023   0.766  10.276
 1164SOL    HW1 4148   1.038   0.787  10.372
 1164SOL    HW2 4149   0.993   0.671  10.267
 1165SOL     OW 4150   0.980   1.573  11.010
 1165SOL    HW1 4151   0.960   1.617  10.922
 1165SOL    HW2 4152   1.019   1.482  10.994
 1166SOL     OW 4153   1.859   1.518  10.915
 1166SOL    HW1 4154   1.873   1.545  10.820
 1166SOL    HW2 4155   1.942   1.540  10.968
 1167SOL     OW 4156   0.350   0.898  11.114
 1167SOL    HW1 4157   0.426   0.942  11.162
 1167SOL    HW2 4158   0.385   0.851  11.032
 1168SOL     OW 4159   1.540   0.274   9.435
 1168SOL    HW1 4160   1.479   0.199   9.458
 1168SOL    HW2 4161   1.562   0.326   9.518
 1169SOL     OW 4162   1.303   0.838   9.352
 1169SOL    HW1 4163   1.337   0.745   9.367
 1169SOL    HW2 4164   1.321   0.865   9.257
 1170SOL     OW 4165   1.068   1.333  10.159
 1170SOL    HW1 4166   1.075   1.249  10.104
 1170SOL    HW2 4167   1.130   1.402  10.123
 1171SOL     OW 4168   0.319   0.810  10.259
 1171SOL    HW1 4169   0.412   0.846  10.264
 1171SOL    HW2 4170   0.313   0.725  10.311
 1172SOL     OW 4171   0.339   0.509  10.316
 1172SOL    HW1 4172   0.287   0.426  10.299
 1172SOL    HW2 4173   0.416   0.514  10.252
 1173SOL     OW 4174   1.138   0.380  10.988
 1173SOL    HW1 4175   1.093   0.443  11.052
 1173SOL    HW2 4176   1.231   0.411  10.971
 1174SOL     OW 4177   1.160   0.207  10.787
 1174SOL    HW1 4178   1.160   0.271  10.864
 1174SOL    HW2 4179   1.188   0.255  10.704
 1175SOL     OW 4180   0.008   1.326   9.510
 1175SOL    HW1 4181  -0.085   1.347   9.479
 1175SOL    HW2 4182   0.018   1.227   9.523
 1176SOL     OW 4183   0.088   1.801  10.237
 1176SOL    HW1 4184   0.046   1.715  10.210
 1176SOL    HW2 4185   0.182   1.804  10.203
 1177SOL     OW 4186   0.504   1.568  10.220
 1177SOL    HW1 4187   0.570   1.642  10.229
 1177SOL    HW2 4188   0.548   1.489  10.178
 1178SOL     OW 4189   1.002   0.796  10.548
 1178SOL    HW1 4190   1.043   0.764  10.634
 1178SOL    HW2 4191   0.906   0.769  10.545
 1179SOL     OW 4192   0.040   0.544  10.424
 1179SOL    HW1 4193   0.125   0.511  10.383
 1179SOL    HW2 4194   0.053   0.559  10.522
 1180SOL     OW 4195   0.189   0.520  11.032
 1180SOL    HW1 4196   0.248   0.480  10.962
 1180SOL    HW2 4197   0.131   0.591  10.991
 1181SOL     OW 4198   1.369   0.950  10.970
 1181SOL    HW1 4199   1.408   1.039  10.990
 1181SOL    HW2 4200   1.379   0.930  10.873
 1182SOL     OW 4201   0.815   0.572   9.635
 1182SOL    HW1 4202   0.822   0.483   9.589
 1182SOL    HW2 4203   0.721   0.606   9.627
 1183SOL     OW 4204   1.657   0.604  10.516
 1183SOL    HW1 4205   1.619   0.535  10.578
 1183SOL    HW2 4206   1.739   0.568  10.472
 1184SOL     OW 4207   0.252   1.564  11.054
 1184SOL    HW1 4208   0.222   1.621  11.130
 1184SOL    HW2 4209   0.245   1.467  11.080
 1185SOL     OW 4210   0.671   0.464  10.579
 1185SOL    HW1 4211   0.637   0.375  10.549
 1185SOL    HW2 4212   0.697   0.518  10.499
 1186SOL     OW 4213   0.930   1.678  10.775
 1186SOL    HW1 4214   0.906   1.660  10.680
 1186SOL    HW2 4215   0.960   1.772  10.785
 1187SOL     OW 4216   0.473   0.500   9.501
 1187SOL    HW1 4217   0.534   0.580   9.505
 1187SOL    HW2 4218   0.378   0.531   9.508
 1188SOL     OW 4219   0.159   1.137  10.776
 1188SOL    HW1 4220   0.181   1.076  10.852
 1188SOL    HW2 4221   0.169   1.088  10.690
 1189SOL     OW 4222   1.347   1.059  10.544
 1189SOL    HW1 4223   1.371   0.996  10.470
 1189SOL    HW2 4224   1.257   1.099  10.526
 1190SOL     OW 4225   1.302   0.855   9.619
 1190SOL    HW1 4226   1.216   0.824   9.661
 1190SOL    HW2 4227   1.298   0.841   9.520
 1191SOL     OW 4228   1.252   1.731  10.438
 1191SOL    HW1 4229   1.336   1.736  10.384
 1191SOL    HW2 4230   1.229   1.635  10.456
 1192SOL     OW 4231   0.083   1.258  10.332
 1192SOL    HW1 4232   0.078   1.257  10.432
 1192SOL    HW2 4233   0.000   1.217  10.294
 1193SOL     OW 4234   0.688   1.662  11.026
 1193SOL    HW1 4235   0.632   1.743  11.035
 1193SOL    HW2 4236   0.740   1.666  10.940
 1194SOL     OW 4237   1.726   0.135   9.833
 1194SOL    HW1 4238   1.799   0.118   9.766
 1194SOL    HW2 4239   1.695   0.048   9.871
 1195SOL     OW 4240   1.388   1.573   9.787
 1195SOL    HW1 4241   1.455   1.585   9.713
 1195SOL    HW2 4242   1.348   1.662   9.810
 1196SOL     OW 4243   0.130   1.794  11.161
 1196SOL    HW1 4244   0.089   1.720  11.214
 1196SOL    HW2 4245   0.194   1.845  11.219
 1197SOL     OW 4246   1.280   0.927   9.982
 1197SOL    HW1 4247   1.340   0.846   9.984
 1197SOL    HW2 4248   1.320   0.996   9.922
 1198SOL     OW 4249   0.830   1.273  10.732
 1198SOL    HW1 4250   0.825   1.306  10.827
 1198SOL    HW2 4251   0.744   1.292  10.686
 1199SOL     OW 4252   0.672   1.616   9.464
 1199SOL    HW1 4253   0.681   1.626   9.365
 1199SOL    HW2 4254   0.632   1.527   9.485
 1200SOL     OW 4255   1.650   1.720  10.704
 1200SOL    HW1 4256   1.703   1.730  10.620
 1200SOL    HW2 4257   1.623   1.810  10.738
 1201SOL     OW 4258   1.841   0.175  10.273
 1201SOL    HW1 4259   1.880   0.090  10.237
 1201SOL    HW2 4260   1.743   0.177  10.254
 1202SOL     OW 4261   0.263   0.326  10.030
 1202SOL    HW1 4262   0.184   0.377   9.996
 1202SOL    HW2 4263   0.254   0.311  10.128
 1203SOL     OW 4264   1.194   1.612   9.341
 1203SOL    HW1 4265   1.200   1.519   9.378
 1203SOL    HW2 4266   1.135   1.612   9.261
 1204SOL     OW 4267   0.822   1.002  10.682
 1204SOL    HW1 4268   0.862   1.001  10.590
 1204SOL    HW2 4269   0.832   1.094  10.722
 1205SOL     OW 4270   0.916   0.910   9.601
 1205SOL    HW1 4271   0.979   0.948   9.533
 1205SOL    HW2 4272   0.956   0.827   9.640
 1206SOL     OW 4273   1.504   1.607   9.354
 1206SOL    HW1 4274   1.412   1.644   9.361
 1206SOL    HW2 4275   1.542   1.627   9.264
 1207SOL     OW 4276   0.372   1.288  10.800
 1207SOL    HW1 4277   0.359   1.381  10.766
 1207SOL    HW2 4278   0.288   1.236  10.787
 1208SOL     OW 4279   1.614   1.292  10.599
 1208SOL    HW1 4280   1.674   1.295  10.679
 1208SOL    HW2 4281   1.539   1.356  10.612
 1209SOL     OW 4282   1.039   1.098  10.006
 1209SOL    HW1 4283   0.969   1.051  10.060
 1209SOL    HW2 4284   1.098   1.030   9.963
 1210SOL     OW 4285   1.014   0.236  10.281
 1210SOL    HW1 4286   1.006   0.200  10.188
 1210SOL    HW2 4287   1.012   0.160  10.346
 1211SOL     OW 4288   0.590   1.487   9.801
 1211SOL    HW1 4289   0.632   1.429   9.731
 1211SOL    HW2 4290   0.546   1.566   9.757
 1212SOL     OW 4291   1.709   0.385  10.691
 1212SOL    HW1 4292   1.782   0.454  10.695
 1212SOL    HW2 4293   1.737   0.310  10.632
 1213SOL     OW 4294   0.255   1.348   9.600
 1213SOL    HW1 4295   0.159   1.349   9.573
 1213SOL    HW2 4296   0.267   1.401   9.684
 1214SOL     OW 4297   0.105   1.013  11.036
 1214SOL    HW1 4298   0.028   0.980  11.090
 1214SOL    HW2 4299   0.190   0.983  11.078
 1215SOL     OW 4300   0.672   0.203  10.799
 1215SOL    HW1 4301   0.762   0.187  10.759
 1215SOL    HW2 4302   0.680   0.208  10.898
 1216SOL     OW 4303   0.075   0.345   9.343
 1216SOL    HW1 4304  -0.017   0.317   9.314
 1216SOL    HW2 4305   0.106   0.422   9.287
 1217SOL     OW 4306   1.440   0.856  10.708
 1217SOL    HW1 4307   1.383   0.908  10.645
 1217SOL    HW2 4308   1.536   0.868  10.684
 1218SOL     OW 4309   0.072   0.166   9.628
 1218SOL    HW1 4310   0.055   0.249   9.574
 1218SOL    HW2 4311   0.162   0.129   9.606
 1219SOL     OW 4312   1.183   1.335   9.429
 1219SOL    HW1 4313   1.084   1.324   9.431
 1219SOL    HW2 4314   1.217   1.350   9.522
 1220SOL     OW 4315   0.613   0.842  10.741
 1220SOL    HW1 4316   0.669   0.923  10.724
 1220SOL    HW2 4317   0.672   0.762  10.744
 1221SOL     OW 4318   1.493   1.767  10.269
 1221SOL    HW1 4319   1.526   1.831  10.200
 1221SOL    HW2 4320   1.559   1.761  10.344
 1222SOL     OW 4321   0.716   0.565  11.018
 1222SOL    HW1 4322   0.735   0.630  11.092
 1222SOL    HW2 4323   0.776   0.485  11.027
 1223SOL     OW 4324   1.450   1.220  10.943
 1223SOL    HW1 4325   1.441   1.210  11.042
 1223SOL    HW2 4326   1.546   1.213  10.917
 1224SOL     OW 4327   0.390   1.741  10.870
 1224SOL    HW1 4328   0.299   1.782  10.868
 1224SOL    HW2 4329   0.383   1.647  10.902
 1225SOL     OW 4330   1.674   0.883  10.564
 1225SOL    HW1 4331   1.647   0.794  10.527
 1225SOL    HW2 4332   1.675   0.951  10.491
 1226SOL     OW 4333   1.225   0.325   9.759
 1226SOL    HW1 4334   1.290   0.251   9.748
 1226SOL    HW2 4335   1.245   0.375   9.843
 1227SOL     OW 4336   0.594   0.745   9.962
 1227SOL    HW1 4337   0.644   0.830   9.943
 1227SOL    HW2 4338   0.506   0.747   9.914
 1228SOL     OW 4339   1.777   0.342  10.952
 1228SOL    HW1 4340   1.760   0.373  10.858
 1228SOL    HW2 4341   1.693   0.305  10.990
 1229SOL     OW 4342   1.730   0.934  10.827
 1229SOL    HW1 4343   1.768   1.025  10.842
 1229SOL    HW2 4344   1.722   0.917  10.728
 1230SOL     OW 4345   0.859   1.374   9.326
 1230SOL    HW1 4346   0.813   1.389   9.414
 1230SOL    HW2 4347   0.903   1.459   9.296
 1231SOL     OW 4348   0.661   1.790  10.263
 1231SOL    HW1 4349   0.615   1.878  10.250
 1231SOL    HW2 4350   0.760   1.802  10.256
 1232SOL     OW 4351   0.859   0.956  10.171
 1232SOL    HW1 4352   0.913   0.887  10.219
 1232SOL    HW2 4353   0.827   1.025  10.237
 1233SOL     OW 4354   1.083   0.984   9.397
 1233SOL    HW1 4355   1.060   1.037   9.315
 1233SOL    HW2 4356   1.164   0.928   9.378
 1234SOL     OW 4357   1.861   1.569  10.161
 1234SOL    HW1 4358   1.790   1.557  10.091
 1234SOL    HW2 4359   1.862   1.490  10.221
 1235SOL     OW 4360   0.221   1.314  11.154
 1235SOL    HW1 4361   0.156   1.241  11.133
 1235SOL    HW2 4362   0.225   1.328  11.252
 1236SOL     OW 4363   0.079   1.240   9.963
 1236SOL    HW1 4364   0.078   1.193  10.051
 1236SOL    HW2 4365   0.161   1.212   9.912
 1237SOL     OW 4366   0.672   1.391  10.934
 1237SOL    HW1 4367   0.594   1.341  10.972
 1237SOL    HW2 4368   0.669   1.486  10.965
 1238SOL     OW 4369   1.824   0.192  10.537
 1238SOL    HW1 4370   1.820   0.102  10.581
 1238SOL    HW2 4371   1.827   0.181  10.438
 1239SOL     OW 4372   0.428   0.424   9.830
 1239SOL    HW1 4373   0.458   0.352   9.768
 1239SOL    HW2 4374   0.389   0.384   9.913
 1240SOL     OW 4375   1.705   1.487  10.414
 1240SOL    HW1 4376   1.612   1.462  10.387
 1240SOL    HW2 4377   1.731   1.437  10.496
 1241SOL     OW 4378   0.317   0.547  10.590
 1241SOL    HW1 4379   0.355   0.488  10.662
 1241SOL    HW2 4380   0.357   0.521  10.502
 1242SOL     OW 4381   0.812   1.586   9.997
 1242SOL    HW1 4382   0.844   1.596   9.903
 1242SOL    HW2 4383   0.733   1.524   9.999
 1243SOL     OW 4384   1.424   0.214  10.422
 1243SOL    HW1 4385   1.476   0.149  10.477
 1243SOL    HW2 4386   1.375   0.277  10.483
 1244SOL     OW 4387   1.001   0.034  10.464
 1244SOL    HW1 4388   0.938  -0.038  10.433
 1244SOL    HW2 4389   1.094  -0.002  10.464
 1245SOL     OW 4390   0.770   1.330   9.611
 1245SOL    HW1 4391   0.724   1.243   9.628
 1245SOL    HW2 4392   0.861   1.327   9.652
 1246SOL     OW 4393   0.618   1.567  10.594
 1246SOL    HW1 4394   0.613   1.649  10.651
 1246SOL    HW2 4395   0.707   1.564  10.549
 1247SOL     OW 4396   1.352   0.052   9.478
 1247SOL    HW1 4397   1.387   0.011   9.394
 1247SOL    HW2 4398   1.262   0.014   9.498
 1248SOL     OW 4399   1.300   0.453  10.001
 1248SOL    HW1 4400   1.241   0.533  10.005
 1248SOL    HW2 4401   1.315   0.418  10.094
 1249SOL     OW 4402   1.593   0.221  10.192
 1249SOL    HW1 4403   1.509   0.220  10.246
 1249SOL    HW2 4404   1.595   0.304  10.136
 1250SOL     OW 4405   0.039   1.077   9.610
 1250SOL    HW1 4406   0.138   1.066   9.601
 1250SOL    HW2 4407  -0.001   0.991   9.642
 1251SOL     OW 4408   0.875   1.646   9.647
 1251SOL    HW1 4409   0.798   1.611   9.593
 1251SOL    HW2 4410   0.843   1.717   9.709
 1252SOL     OW 4411   0.230   0.628  11.285
 1252SOL    HW1 4412   0.137   0.626  11.322
 1252SOL    HW2 4413   0.231   0.589  11.193
 1253SOL     OW 4414   0.225   0.275  12.168
 1253SOL    HW1 4415   0.260   0.258  12.260
 1253SOL    HW2 4416   0.137   0.230  12.156
 1254SOL     OW 4417   0.019   0.368  11.819
 1254SOL    HW1 4418  -0.063   0.411  11.858
 1254SOL    HW2 4419  -0.009   0.295  11.756
 1255SOL     OW 4420   0.569   1.275  12.337
 1255SOL    HW1 4421   0.476   1.268  12.300
 1255SOL    HW2 4422   0.580   1.364  12.381
 1256SOL     OW 4423   1.555   1.511  11.875
 1256SOL    HW1 4424   1.498   1.495  11.956
 1256SOL    HW2 4425   1.496   1.521  11.795
 1257SOL     OW 4426   1.135   0.703  11.889
 1257SOL    HW1 4427   1.192   0.781  11.864
 1257SOL    HW2 4428   1.075   0.729  11.965
 1258SOL     OW 4429   1.755   0.607  11.403
 1258SOL    HW1 4430   1.743   0.594  11.304
 1258SOL    HW2 4431   1.725   0.526  11.452
 1259SOL     OW 4432   0.768   1.144  12.195
 1259SOL    HW1 4433   0.690   1.161  12.255
 1259SOL    HW2 4434   0.802   1.231  12.159
 1260SOL     OW 4435   0.850   0.798  12.995
 1260SOL    HW1 4436   0.846   0.874  13.060
 1260SOL    HW2 4437   0.872   0.834  12.904
 1261SOL     OW 4438   0.685   1.012  11.837
 1261SOL    HW1 4439   0.754   0.996  11.907
 1261SOL    HW2 4440   0.612   1.069  11.875
 1262SOL     OW 4441   0.686   1.161  12.975
 1262SOL    HW1 4442   0.746   1.240  12.989
 1262SOL    HW2 4443   0.600   1.192  12.934
 1263SOL     OW 4444   0.335   1.435  12.233
 1263SOL    HW1 4445   0.257   1.404  12.180
 1263SOL    HW2 4446   0.393   1.493  12.176
 1264SOL     OW 4447   1.460   1.505  12.511
 1264SOL    HW1 4448   1.484   1.599  12.537
 1264SOL    HW2 4449   1.444   1.451  12.593
 1265SOL     OW 4450   0.438   0.392  12.671
 1265SOL    HW1 4451   0.520   0.336  12.680
 1265SOL    HW2 4452   0.357   0.334  12.675
 1266SOL     OW 4453   1.603   0.447  11.909
 1266SOL    HW1 4454   1.529   0.493  11.859
 1266SOL    HW2 4455   1.654   0.515  11.962
 1267SOL     OW 4456   0.231   1.713  11.655
 1267SOL    HW1 4457   0.265   1.790  11.709
 1267SOL    HW2 4458   0.275   1.713  11.565
 1268SOL     OW 4459   1.127   1.341  12.862
 1268SOL    HW1 4460   1.174   1.341  12.950
 1268SOL    HW2 4461   1.079   1.254  12.851
 1269SOL     OW 4462   0.230   1.434  11.710
 1269SOL    HW1 4463   0.204   1.530  11.710
 1269SOL    HW2 4464   0.159   1.380  11.755
 1270SOL     OW 4465   0.240   1.091  12.058
 1270SOL    HW1 4466   0.254   1.007  12.110
 1270SOL    HW2 4467   0.185   1.155  12.113
 1271SOL     OW 4468   0.620   1.786  12.611
 1271SOL    HW1 4469   0.528   1.769  12.646
 1271SOL    HW2 4470   0.648   1.878  12.637
 1272SOL     OW 4471   0.606   0.964  11.295
 1272SOL    HW1 4472   0.613   1.048  11.241
 1272SOL    HW2 4473   0.652   0.977  11.383
 1273SOL     OW 4474   1.594   0.114  12.652
 1273SOL    HW1 4475   1.576   0.181  12.580
 1273SOL    HW2 4476   1.591   0.160  12.741
 1274SOL     OW 4477   0.122   0.643  11.735
 1274SOL    HW1 4478   0.077   0.555  11.752
 1274SOL    HW2 4479   0.121   0.697  11.819
 1275SOL     OW 4480   0.027   1.596  11.289
 1275SOL    HW1 4481   0.008   1.500  11.310
 1275SOL    HW2 4482  -0.006   1.654  11.364
 1276SOL     OW 4483   1.689   0.922  11.784
 1276SOL    HW1 4484   1.784   0.893  11.792
 1276SOL    HW2 4485   1.681   0.987  11.709
 1277SOL     OW 4486   1.641   1.108  11.604
 1277SOL    HW1 4487   1.727   1.110  11.552
 1277SOL    HW2 4488   1.655   1.155  11.692
 1278SOL     OW 4489   0.113   0.737  12.769
 1278SOL    HW1 4490   0.201   0.724  12.814
 1278SOL    HW2 4491   0.100   0.834  12.747
 1279SOL     OW 4492   0.613   1.365  11.898
 1279SOL    HW1 4493   0.564   1.278  11.907
 1279SOL    HW2 4494   0.590   1.408  11.811
 1280SOL     OW 4495   1.293   1.228  12.595
 1280SOL    HW1 4496   1.330   1.155  12.537
 1280SOL    HW2 4497   1.345   1.233  12.680
 1281SOL     OW 4498   0.809   0.004  11.674
 1281SOL    HW1 4499   0.849   0.095  11.665
 1281SOL    HW2 4500   0.709   0.012  11.680
 1282SOL     OW 4501   0.197   0.976  12.436
 1282SOL    HW1 4502   0.286   0.931  12.422
 1282SOL    HW2 4503   0.124   0.911  12.417
 1283SOL     OW 4504   1.525   0.999  11.362
 1283SOL    HW1 4505   1.462   0.923  11.375
 1283SOL    HW2 4506   1.573   1.017  11.448
 1284SOL     OW 4507   1.187   1.792  12.788
 1284SOL    HW1 4508   1.211   1.852  12.712
 1284SOL    HW2 4509   1.194   1.697  12.758
 1285SOL     OW 4510   0.317   0.251  12.973
 1285SOL    HW1 4511   0.388   0.322  12.979
 1285SOL    HW2 4512   0.229   0.290  13.001
 1286SOL     OW 4513   1.466   1.417  12.125
 1286SOL    HW1 4514   1.407   1.423  12.205
 1286SOL    HW2 4515   1.451   1.329  12.079
 1287SOL     OW 4516   1.667   1.714  11.744
 1287SOL    HW1 4517   1.626   1.691  11.656
 1287SOL    HW2 4518   1.649   1.640  11.809
 1288SOL     OW 4519   0.598   0.729  11.442
 1288SOL    HW1 4520   0.622   0.798  11.374
 1288SOL    HW2 4521   0.520   0.762  11.496
 1289SOL     OW 4522   1.281   0.345  12.116
 1289SOL    HW1 4523   1.195   0.295  12.103
 1289SOL    HW2 4524   1.343   0.291  12.172
 1290SOL     OW 4525   1.576   1.662  11.479
 1290SOL    HW1 4526   1.665   1.708  11.482
 1290SOL    HW2 4527   1.555   1.638  11.384
 1291SOL     OW 4528   0.807   0.605  12.637
 1291SOL    HW1 4529   0.760   0.602  12.726
 1291SOL    HW2 4530   0.756   0.550  12.571
 1292SOL     OW 4531   1.394   0.469  12.846
 1292SOL    HW1 4532   1.374   0.512  12.934
 1292SOL    HW2 4533   1.472   0.407  12.855
 1293SOL     OW 4534   0.973   0.890  12.744
 1293SOL    HW1 4535   1.019   0.806  12.715
 1293SOL    HW2 4536   0.917   0.924  12.669
 1294SOL     OW 4537   0.991   0.410  12.414
 1294SOL    HW1 4538   0.914   0.444  12.468
 1294SOL    HW2 4539   0.957   0.359  12.335
 1295SOL     OW 4540   1.041   0.701  11.601
 1295SOL    HW1 4541   1.067   0.697  11.697
 1295SOL    HW2 4542   0.956   0.650  11.587
 1296SOL     OW 4543   0.076   0.811  11.961
 1296SOL    HW1 4544   0.175   0.799  11.970
 1296SOL    HW2 4545   0.052   0.906  11.982
 1297SOL     OW 4546   0.130   1.821  12.743
 1297SOL    HW1 4547   0.120   1.806  12.842
 1297SOL    HW2 4548   0.044   1.857  12.707
 1298SOL     OW 4549   0.865   0.348  11.367
 1298SOL    HW1 4550   0.924   0.411  11.318
 1298SOL    HW2 4551   0.884   0.254  11.338
 1299SOL     OW 4552   1.719   0.585  13.003
 1299SOL    HW1 4553   1.693   0.674  12.967
 1299SOL    HW2 4554   1.717   0.517  12.930
 1300SOL     OW 4555   1.362   1.144  11.717
 1300SOL    HW1 4556   1.445   1.115  11.669
 1300SOL    HW2 4557   1.313   1.211  11.661
 1301SOL     OW 4558   0.550   0.196  12.057
 1301SOL    HW1 4559   0.545   0.191  12.157
 1301SOL    HW2 4560   0.552   0.292  12.028
 1302SOL     OW 4561   1.008   1.456  11.649
 1302SOL    HW1 4562   0.962   1.528  11.597
 1302SOL    HW2 4563   1.004   1.476  11.747
 1303SOL     OW 4564   0.351   1.801  12.025
 1303SOL    HW1 4565   0.401   1.715  12.031
 1303SOL    HW2 4566   0.416   1.878  12.022
 1304SOL     OW 4567   1.795   1.066  12.045
 1304SOL    HW1 4568   1.733   1.051  11.969
 1304SOL    HW2 4569   1.743   1.077  12.130
 1305SOL     OW 4570   1.227   1.550  12.678
 1305SOL    HW1 4571   1.233   1.473  12.742
 1305SOL    HW2 4572   1.175   1.524  12.598
 1306SOL     OW 4573   0.321   0.943  11.414
 1306SOL    HW1 4574   0.403   0.982  11.372
 1306SOL    HW2 4575   0.294   0.861  11.365
 1307SOL     OW 4576   1.458   0.735  11.900
 1307SOL    HW1 4577   1.453   0.670  11.975
 1307SOL    HW2 4578   1.538   0.794  11.913
 1308SOL     OW 4579   0.461   1.266  12.899
 1308SOL    HW1 4580   0.411   1.267  12.813
 1308SOL    HW2 4581   0.398   1.248  12.975
 1309SOL     OW 4582   1.111   1.776  11.409
 1309SOL    HW1 4583   1.051   1.714  11.459
 1309SOL    HW2 4584   1.142   1.732  11.324
 1310SOL     OW 4585   0.202   0.285  12.670
 1310SOL    HW1 4586   0.122   0.345  12.657
 1310SOL    HW2 4587   0.192   0.236  12.756
 1311SOL     OW 4588   1.632   1.377  11.253
 1311SOL    HW1 4589   1.600   1.471  11.243
 1311SOL    HW2 4590   1.556   1.314  11.241
 1312SOL     OW 4591   0.464   1.743  11.495
 1312SOL    HW1 4592   0.497   1.782  11.581
 1312SOL    HW2 4593   0.540   1.736  11.430
 1313SOL     OW 4594   1.400   0.107  11.598
 1313SOL    HW1 4595   1.376   0.070  11.508
 1313SOL    HW2 4596   1.499   0.123  11.602
 1314SOL     OW 4597   0.249   1.785  12.413
 1314SOL    HW1 4598   0.306   1.720  12.463
 1314SOL    HW2 4599   0.233   1.752  12.320
 1315SOL     OW 4600   0.940   1.698  12.076
 1315SOL    HW1 4601   1.020   1.641  12.097
 1315SOL    HW2 4602   0.891   1.658  11.999
 1316SOL     OW 4603   0.382   0.700  11.652
 1316SOL    HW1 4604   0.427   0.610  11.649
 1316SOL    HW2 4605   0.288   0.689  11.685
 1317SOL     OW 4606   1.547   0.222  12.901
 1317SOL    HW1 4607   1.542   0.259  12.993
 1317SOL    HW2 4608   1.475   0.153  12.889
 1318SOL     OW 4609   0.614   0.122  11.289
 1318SOL    HW1 4610   0.712   0.100  11.296
 1318SOL    HW2 4611   0.583   0.105  11.196
 1319SOL     OW 4612   0.781   0.264  12.921
 1319SOL    HW1 4613   0.848   0.203  12.964
 1319SOL    HW2 4614   0.708   0.283  12.986
 1320SOL     OW 4615   0.888   1.514  12.367
 1320SOL    HW1 4616   0.865   1.489  12.273
 1320SOL    HW2 4617   0.949   1.445  12.406
 1321SOL     OW 4618   1.351   0.590  12.605
 1321SOL    HW1 4619   1.379   0.547  12.690
 1321SOL    HW2 4620   1.376   0.686  12.606
 1322SOL     OW 4621   0.803   1.402  12.096
 1322SOL    HW1 4622   0.893   1.416  12.054
 1322SOL    HW2 4623   0.732   1.404  12.025
 1323SOL     OW 4624   0.922   0.503  12.071
 1323SOL    HW1 4625   0.897   0.494  11.975
 1323SOL    HW2 4626   0.970   0.421  12.102
 1324SOL     OW 4627   0.539   0.064  11.684
 1324SOL    HW1 4628   0.458   0.065  11.742
 1324SOL    HW2 4629   0.542   0.147  11.629
 1325SOL     OW 4630   1.434   1.188  11.213
 1325SOL    HW1 4631   1.466   1.112  11.270
 1325SOL    HW2 4632   1.342   1.215  11.243
 1326SOL     OW 4633   0.297   0.035  11.343
 1326SOL    HW1 4634   0.346   0.119  11.322
 1326SOL    HW2 4635   0.359  -0.030  11.388
 1327SOL     OW 4636   0.935   0.236  11.652
 1327SOL    HW1 4637   0.887   0.277  11.574
 1327SOL    HW2 4638   1.034   0.234  11.633
 1328SOL     OW 4639   1.076   0.683  12.636
 1328SOL    HW1 4640   0.996   0.622  12.639
 1328SOL    HW2 4641   1.157   0.630  12.612
 1329SOL     OW 4642   1.227   1.570  11.965
 1329SOL    HW1 4643   1.248   1.644  11.900
 1329SOL    HW2 4644   1.295   1.570  12.038
 1330SOL     OW 4645   0.459   1.152  11.913
 1330SOL    HW1 4646   0.388   1.125  11.978
 1330SOL    HW2 4647   0.433   1.124  11.820
 1331SOL     OW 4648   1.271   1.797  11.763
 1331SOL    HW1 4649   1.315   1.861  11.699
 1331SOL    HW2 4650   1.221   1.849  11.833
 1332SOL     OW 4651   1.032   0.549  11.188
 1332SOL    HW1 4652   0.991   0.631  11.149
 1332SOL    HW2 4653   1.096   0.575  11.261
 1333SOL     OW 4654   0.078   0.556  12.558
 1333SOL    HW1 4655   0.170   0.555  12.517
 1333SOL    HW2 4656   0.072   0.630  12.625
 1334SOL     OW 4657   0.561   0.222  12.319
 1334SOL    HW1 4658   0.599   0.138  12.356
 1334SOL    HW2 4659   0.473   0.241  12.363
 1335SOL     OW 4660   0.866   0.454  11.814
 1335SOL    HW1 4661   0.834   0.526  11.752
 1335SOL    HW2 4662   0.890   0.373  11.761
 1336SOL     OW 4663   1.017   0.039  11.925
 1336SOL    HW1 4664   0.945   0.044  11.856
 1336SOL    HW2 4665   0.993  -0.030  11.994
 1337SOL     OW 4666   1.429   1.173  12.039
 1337SOL    HW1 4667   1.374   1.089  12.032
 1337SOL    HW2 4668   1.455   1.202  11.947
 1338SOL     OW 4669   1.466   0.590  12.164
 1338SOL    HW1 4670   1.436   0.495  12.171
 1338SOL    HW2 4671   1.539   0.606  12.230
 1339SOL     OW 4672   1.857   0.833  11.549
 1339SOL    HW1 4673   1.899   0.769  11.613
 1339SOL    HW2 4674   1.819   0.782  11.471
 1340SOL     OW 4675   0.488   1.385  11.346
 1340SOL    HW1 4676   0.401   1.370  11.393
 1340SOL    HW2 4677   0.471   1.411  11.251
 1341SOL     OW 4678   1.664   1.280  11.829
 1341SOL    HW1 4679   1.763   1.288  11.843
 1341SOL    HW2 4680   1.619   1.364  11.860
 1342SOL     OW 4681   1.390   0.575  11.250
 1342SOL    HW1 4682   1.336   0.554  11.331
 1342SOL    HW2 4683   1.481   0.534  11.259
 1343SOL     OW 4684   0.527   0.256  11.500
 1343SOL    HW1 4685   0.554   0.197  11.425
 1343SOL    HW2 4686   0.527   0.351  11.469
 1344SOL     OW 4687   1.754   1.223  12.760
 1344SOL    HW1 4688   1.845   1.184  12.747
 1344SOL    HW2 4689   1.762   1.319  12.784
 1345SOL     OW 4690   1.064   1.347  12.512
 1345SOL    HW1 4691   0.984   1.324  12.567
 1345SOL    HW2 4692   1.147   1.321  12.561
 1346SOL     OW 4693   1.592   1.629  12.797
 1346SOL    HW1 4694   1.619   1.663  12.707
 1346SOL    HW2 4695   1.671   1.591  12.843
 1347SOL     OW 4696   1.111   1.195  12.272
 1347SOL    HW1 4697   1.071   1.239  12.353
 1347SOL    HW2 4698   1.070   1.232  12.189
 1348SOL     OW 4699   1.638   1.099  12.251
 1348SOL    HW1 4700   1.643   1.180  12.310
 1348SOL    HW2 4701   1.552   1.101  12.200
 1349SOL     OW 4702   0.915   0.089  12.574
 1349SOL    HW1 4703   0.940   0.069  12.479
 1349SOL    HW2 4704   0.987   0.145  12.616
 1350SOL     OW 4705   0.980   1.116  12.891
 1350SOL    HW1 4706   0.881   1.122  12.901
 1350SOL    HW2 4707   1.003   1.036  12.835
 1351SOL     OW 4708   0.705   1.050  11.540
 1351SOL    HW1 4709   0.691   1.057  11.639
 1351SOL    HW2 4710   0.789   0.999  11.522
 1352SOL     OW 4711   0.410   0.813  12.423
 1352SOL    HW1 4712   0.496   0.825  12.473
 1352SOL    HW2 4713   0.368   0.726  12.450
 1353SOL     OW 4714   1.274   0.386  12.434
 1353SOL    HW1 4715   1.295   0.460  12.498
 1353SOL    HW2 4716   1.185   0.403  12.391
 1354SOL     OW 4717   0.064   1.564  12.503
 1354SOL    HW1 4718   0.018   1.646  12.469
 1354SOL    HW2 4719   0.162   1.583  12.512
 1355SOL     OW 4720   0.367   1.100  11.673
 1355SOL    HW1 4721   0.360   1.183  11.617
 1355SOL    HW2 4722   0.371   1.020  11.613
 1356SOL     OW 4723   0.566   0.537  12.037
 1356SOL    HW1 4724   0.578   0.603  11.963
 1356SOL    HW2 4725   0.612   0.571  12.120
 1357SOL     OW 4726   1.252   1.348  11.560
 1357SOL    HW1 4727   1.302   1.425  11.600
 1357SOL    HW2 4728   1.157   1.350  11.592
 1358SOL     OW 4729   1.272   1.445  12.314
 1358SOL    HW1 4730   1.319   1.458  12.401
 1358SOL    HW2 4731   1.206   1.371  12.323
 1359SOL     OW 4732   1.582   0.639  11.644
 1359SOL    HW1 4733   1.551   0.700  11.717
 1359SOL    HW2 4734   1.632   0.691  11.575
 1360SOL     OW 4735   0.354   1.510  12.501
 1360SOL    HW1 4736   0.333   1.466  12.414
 1360SOL    HW2 4737   0.451   1.536  12.504
 1361SOL     OW 4738   0.402   0.751  12.770
 1361SOL    HW1 4739   0.470   0.806  12.723
 1361SOL    HW2 4740   0.442   0.663  12.797
 1362SOL     OW 4741   1.587   0.779  12.842
 1362SOL    HW1 4742   1.495   0.817  12.837
 1362SOL    HW2 4743   1.647   0.826  12.777
 1363SOL     OW 4744   1.013   0.105  12.942
 1363SOL    HW1 4745   1.019   0.190  12.890
 1363SOL    HW2 4746   1.045   0.029  12.885
 1364SOL     OW 4747   0.504   0.050  12.912
 1364SOL    HW1 4748   0.462  -0.007  12.842
 1364SOL    HW2 4749   0.438   0.119  12.944
 1365SOL     OW 4750   0.573   0.870  12.201
 1365SOL    HW1 4751   0.617   0.959  12.192
 1365SOL    HW2 4752   0.510   0.870  12.278
 1366SOL     OW 4753   1.360   0.862  12.217
 1366SOL    HW1 4754   1.285   0.862  12.151
 1366SOL    HW2 4755   1.397   0.770  12.226
 1367SOL     OW 4756   1.209   0.525  11.447
 1367SOL    HW1 4757   1.222   0.441  11.501
 1367SOL    HW2 4758   1.180   0.599  11.507
 1368SOL     OW 4759   0.307   0.213  12.403
 1368SOL    HW1 4760   0.284   0.250  12.493
 1368SOL    HW2 4761   0.277   0.118  12.397
 1369SOL     OW 4762   0.037   1.310  12.454
 1369SOL    HW1 4763   0.090   1.261  12.522
 1369SOL    HW2 4764   0.059   1.408  12.459
 1370SOL     OW 4765   0.732   0.634  12.236
 1370SOL    HW1 4766   0.791   0.608  12.160
 1370SOL    HW2 4767   0.704   0.730  12.225
 1371SOL     OW 4768   1.728   0.935  13.026
 1371SOL    HW1 4769   1.682   0.928  12.937
 1371SOL    HW2 4770   1.666   0.979  13.092
 1372SOL     OW 4771   0.307   0.063  11.790
 1372SOL    HW1 4772   0.296   0.157  11.823
 1372SOL    HW2 4773   0.302   0.000  11.867
 1373SOL     OW 4774   1.622   0.367  11.546
 1373SOL    HW1 4775   1.624   0.291  11.610
 1373SOL    HW2 4776   1.574   0.444  11.586
 1374SOL     OW 4777   1.023   0.766  12.138
 1374SOL    HW1 4778   1.038   0.787  12.234
 1374SOL    HW2 4779   0.993   0.671  12.129
 1375SOL     OW 4780   0.980   1.573  12.872
 1375SOL    HW1 4781   0.960   1.617  12.784
 1375SOL    HW2 4782   1.019   1.482  12.856
 1376SOL     OW 4783   1.859   1.518  12.777
 1376SOL    HW1 4784   1.873   1.545  12.682
 1376SOL    HW2 4785   1.942   1.540  12.830
 1377SOL     OW 4786   0.350   0.898  12.976
 1377SOL    HW1 4787   0.426   0.942  13.024
 1377SOL    HW2 4788   0.385   0.851  12.894
 1378SOL     OW 4789   1.540   0.274  11.297
 1378SOL    HW1 4790   1.479   0.199  11.320
 1378SOL    HW2 4791   1.562   0.326  11.380
 1379SOL     OW 4792   1.303   0.838  11.214
 1379SOL    HW1 4793   1.337   0.745  11.229
 1379SOL    HW2 4794   1.321   0.865  11.119
 1380SOL     OW 4795   1.068   1.333  12.021
 1380SOL    HW1 4796   1.075   1.249  11.966
 1380SOL    HW2 4797   1.130   1.402  11.985
 1381SOL     OW 4798   0.319   0.810  12.121
 1381SOL    HW1 4799   0.412   0.846  12.126
 1381SOL    HW2 4800   0.313   0.725  12.173
 1382SOL     OW 4801   0.339   0.509  12.178
 1382SOL    HW1 4802   0.287   0.426  12.161
 1382SOL    HW2 4803   0.416   0.514  12.114
 1383SOL     OW 4804   1.138   0.380  12.850
 1383SOL    HW1 4805   1.093   0.443  12.914
 1383SOL    HW2 4806   1.231   0.411  12.833
 1384SOL     OW 4807   1.160   0.207  12.649
 1384SOL    HW1 4808   1.160   0.271  12.726
 1384SOL    HW2 4809   1.188   0.255  12.566
 1385SOL     OW 4810   0.008   1.326  11.372
 1385SOL    HW1 4811  -0.085   1.347  11.341
 1385SOL    HW2 4812   0.018   1.227  11.385
 1386SOL     OW 4813   0.088   1.801  12.099
 1386SOL    HW1 4814   0.046   1.715  12.072
 1386SOL    HW2 4815   0.182   1.804  12.065
 1387SOL     OW 4816   0.504   1.568  12.082
 1387SOL    HW1 4817   0.570   1.642  12.091
 1387SOL    HW2 4818   0.548   1.489  12.040
 1388SOL     OW 4819   1.002   0.796  12.410
 1388SOL    HW1 4820   1.043   0.764  12.496
 1388SOL    HW2 4821   0.906   0.769  12.407
 1389SOL     OW 4822   0.040   0.544  12.286
 1389SOL    HW1 4823   0.125   0.511  12.245
 1389SOL    HW2 4824   0.053   0.559  12.384
 1390SOL     OW 4825   0.189   0.520  12.894
 1390SOL    HW1 4826   0.248   0.480  12.824
 1390SOL    HW2 4827   0.131   0.591  12.853
 1391SOL     OW 4828   1.369   0.950  12.832
 1391SOL    HW1 4829   1.408   1.039  12.852
 1391SOL    HW2 4830   1.379   0.930  12.735
 1392SOL     OW 4831   0.815   0.572  11.497
 1392SOL    HW1 4832   0.822   0.483  11.451
 1392SOL    HW2 4833   0.721   0.606  11.489
 1393SOL     OW 4834   1.657   0.604  12.378
 1393SOL    HW1 4835   1.619   0.535  12.440
 1393SOL    HW2 4836   1.739   0.568  12.334
 1394SOL     OW 4837   0.252   1.564  12.916
 1394SOL    HW1 4838   0.222   1.621  12.992
 1394SOL    HW2 4839   0.245   1.467  12.942
 1395SOL     OW 4840   0.671   0.464  12.441
 1395SOL    HW1 4841   0.637   0.375  12.411
 1395SOL    HW2 4842   0.697   0.518  12.361
 1396SOL     OW 4843   0.930   1.678  12.637
 1396SOL    HW1 4844   0.906   1.660  12.542
 1396SOL    HW2 4845   0.960   1.772  12.647
 1397SOL     OW 4846   0.473   0.500  11.363
 1397SOL    HW1 4847   0.534   0.580  11.367
 1397SOL    HW2 4848   0.378   0.531  11.370
 1398SOL     OW 4849   0.159   1.137  12.638
 1398SOL    HW1 4850   0.181   1.076  12.714
 1398SOL    HW2 4851   0.169   1.088  12.552
 1399SOL     OW 4852   1.347   1.059  12.406
 1399SOL    HW1 4853   1.371   0.996  12.332
 1399SOL    HW2 4854   1.257   1.099  12.388
 1400SOL     OW 4855   1.302   0.855  11.481
 1400SOL    HW1 4856   1.216   0.824  11.523
 1400SOL    HW2 4857   1.298   0.841  11.382
 1401SOL     OW 4858   1.252   1.731  12.300
 1401SOL    HW1 4859   1.336   1.736  12.246
 1401SOL    HW2 4860   1.229   1.635  12.318
 1402SOL     OW 4861   0.083   1.258  12.194
 1402SOL    HW1 4862   0.078   1.257  12.294
 1402SOL    HW2 4863   0.000   1.217  12.156
 1403SOL     OW 4864   0.688   1.662  12.888
 1403SOL    HW1 4865   0.632   1.743  12.897
 1403SOL    HW2 4866   0.740   1.666  12.802
 1404SOL     OW 4867   1.726   0.135  11.695
 1404SOL    HW1 4868   1.799   0.118  11.628
 1404SOL    HW2 4869   1.695   0.048  11.733
 1405SOL     OW 4870   1.388   1.573  11.649
 1405SOL    HW1 4871   1.455   1.585  11.575
 1405SOL    HW2 4872   1.348   1.662  11.672
 1406SOL     OW 4873   0.130   1.794  13.023
 1406SOL    HW1 4874   0.089   1.720  13.076
 1406SOL    HW2 4875   0.194   1.845  13.081
 1407SOL     OW 4876   1.280   0.927  11.844
 1407SOL    HW1 4877   1.340   0.846  11.846
 1407SOL    HW2 4878   1.320   0.996  11.784
 1408SOL     OW 4879   0.830   1.273  12.594
 1408SOL    HW1 4880   0.825   1.306  12.689
 1408SOL    HW2 4881   0.744   1.292  12.548
 1409SOL     OW 4882   0.672   1.616  11.326
 1409SOL    HW1 4883   0.681   1.626  11.227
 1409SOL    HW2 4884   0.632   1.527  11.347
 1410SOL     OW 4885   1.650   1.720  12.566
 1410SOL    HW1 4886   1.703   1.730  12.482
 1410SOL    HW2 4887   1.623   1.810  12.600
 1411SOL     OW 4888   1.841   0.175  12.135
 1411SOL    HW1 4889   1.880   0.090  12.099
 1411SOL    HW2 4890   1.743   0.177  12.116
 1412SOL     OW 4891   0.263   0.326  11.892
 1412SOL    HW1 4892   0.184   0.377  11.858
 1412SOL    HW2 4893   0.254   0.311  11.990
 1413SOL     OW 4894   1.194   1.612  11.203
 1413SOL    HW1 4895   1.200   1.519  11.240
 1413SOL    HW2 4896   1.135   1.612  11.123
 1414SOL     OW 4897   0.822   1.002  12.544
 1414SOL    HW1 4898   0.862   1.001  12.452
 1414SOL    HW2 4899   0.832   1.094  12.584
 1415SOL     OW 4900   0.916   0.910  11.463
 1415SOL    HW1 4901   0.979   0.948  11.395
 1415SOL    HW2 4902   0.956   0.827  11.502
 1416SOL     OW 4903   1.504   1.607  11.216
 1416SOL    HW1 4904   1.412   1.644  11.223
 1416SOL    HW2 4905   1.542   1.627  11.126
 1417SOL     OW 4906   0.372   1.288  12.662
 1417SOL    HW1 4907   0.359   1.381  12.628
 1417SOL    HW2 4908   0.288   1.236  12.649
 1418SOL     OW 4909   1.614   1.292  12.461
 1418SOL    HW1 4910   1.674   1.295  12.541
 1418SOL    HW2 4911   1.539   1.356  12.474
 1419SOL     OW 4912   1.039   1.098  11.868
 1419SOL    HW1 4913   0.969   1.051  11.922
 1419SOL    HW2 4914   1.098   1.030  11.825
 1420SOL     OW 4915   1.014   0.236  12.143
 1420SOL    HW1 4916   1.006   0.200  12.050
 1420SOL    HW2 4917   1.012   0.160  12.208
 1421SOL     OW 4918   0.590   1.487  11.663
 1421SOL    HW1 4919   0.632   1.429  11.593
 1421SOL    HW2 4920   0.546   1.566  11.619
 1422SOL     OW 4921   1.709   0.385  12.553
 1422SOL    HW1 4922   1.782   0.454  12.557
 1422SOL    HW2 4923   1.737   0.310  12.494
 1423SOL     OW 4924   0.255   1.348  11.462
 1423SOL    HW1 4925   0.159   1.349  11.435
 1423SOL    HW2 4926   0.267   1.401  11.546
 1424SOL     OW 4927   0.105   1.013  12.898
 1424SOL    HW1 4928   0.028   0.980  12.952
 1424SOL    HW2 4929   0.190   0.983  12.940
 1425SOL     OW 4930   0.672   0.203  12.661
 1425SOL    HW1 4931   0.762   0.187  12.621
 1425SOL    HW2 4932   0.680   0.208  12.760
 1426SOL     OW 4933   0.075   0.345  11.205
 1426SOL    HW1 4934  -0.017   0.317  11.176
 1426SOL    HW2 4935   0.106   0.422  11.149
 1427SOL     OW 4936   1.440   0.856  12.570
 1427SOL    HW1 4937   1.383   0.908  12.507
 1427SOL    HW2 4938   1.536   0.868  12.546
 1428SOL     OW 4939   0.072   0.166  11.490
 1428SOL    HW1 4940   0.055   0.249  11.436
 1428SOL    HW2 4941   0.162   0.129  11.468
 1429SOL     OW 4942   1.183   1.335  11.291
 1429SOL    HW1 4943   1.084   1.324  11.293
 1429SOL    HW2 4944   1.217   1.350  11.384
 1430SOL     OW 4945   0.613   0.842  12.603
 1430SOL    HW1 4946   0.669   0.923  12.586
 1430SOL    HW2 4947   0.672   0.762  12.606
 1431SOL     OW 4948   1.493   1.767  12.131
 1431SOL    HW1 4949   1.526   1.831  12.062
 1431SOL    HW2 4950   1.559   1.761  12.206
 1432SOL     OW 4951   0.716   0.565  12.880
 1432SOL    HW1 4952   0.735   0.630  12.954
 1432SOL    HW2 4953   0.776   0.485  12.889
 1433SOL     OW 4954   1.450   1.220  12.805
 1433SOL    HW1 4955   1.441   1.210  12.904
 1433SOL    HW2 4956   1.546   1.213  12.779
 1434SOL     OW 4957   0.390   1.741  12.732
 1434SOL    HW1 4958   0.299   1.782  12.730
 1434SOL    HW2 4959   0.383   1.647  12.764
 1435SOL     OW 4960   1.674   0.883  12.426
 1435SOL    HW1 4961   1.647   0.794  12.389
 1435SOL    HW2 4962   1.675   0.951  12.353
 1436SOL     OW 4963   1.225   0.325  11.621
 1436SOL    HW1 4964   1.290   0.251  11.610
 1436SOL    HW2 4965   1.245   0.375  11.705
 1437SOL     OW 4966   0.594   0.745  11.824
 1437SOL    HW1 4967   0.644   0.830  11.805
 1437SOL    HW2 4968   0.506   0.747  11.776
 1438SOL     OW 4969   1.777   0.342  12.814
 1438SOL    HW1 4970   1.760   0.373  12.720
 1438SOL    HW2 4971   1.693   0.305  12.852
 1439SOL     OW 4972   1.730   0.934  12.689
 1439SOL    HW1 4973   1.768   1.025  12.704
 1439SOL    HW2 4974   1.722   0.917  12.590
 1440SOL     OW 4975   0.859   1.374  11.188
 1440SOL    HW1 4976   0.813   1.389  11.276
 1440SOL    HW2 4977   0.903   1.459  11.158
 1441SOL     OW 4978   0.661   1.790  12.125
 1441SOL    HW1 4979   0.615   1.878  12.112
 1441SOL    HW2 4980   0.760   1.802  12.118
 1442SOL     OW 4981   0.859   0.956  12.033
 1442SOL    HW1 4982   0.913   0.887  12.081
 1442SOL    HW2 4983   0.827   1.025  12.099
 1443SOL     OW 4984   1.083   0.984  11.259
 1443SOL    HW1 4985   1.060   1.037  11.177
 1443SOL    HW2 4986   1.164   0.928  11.240
 1444SOL     OW 4987   1.861   1.569  12.023
 1444SOL    HW1 4988   1.790   1.557  11.953
 1444SOL    HW2 4989   1.862   1.490  12.083
 1445SOL     OW 4990   0.221   1.314  13.016
 1445SOL    HW1 4991   0.156   1.241  12.995
 1445SOL    HW2 4992   0.225   1.328  13.114
 1446SOL     OW 4993   0.079   1.240  11.825
 1446SOL    HW1 4994   0.078   1.193  11.913
 1446SOL    HW2 4995   0.161   1.212  11.774
 1447SOL     OW 4996   0.672   1.391  12.796
 1447SOL    HW1 4997   0.594   1.341  12.834
 1447SOL    HW2 4998   0.669   1.486  12.827
 1448SOL     OW 4999   1.824   0.192  12.399
 1448SOL    HW1 5000   1.820   0.102  12.443
 1448SOL    HW2 5001   1.827   0.181  12.300
 1449SOL     OW 5002   0.428   0.424  11.692
 1449SOL    HW1 5003   0.458   0.352  11.630
 1449SOL    HW2 5004   0.389   0.384  11.775
 1450SOL     OW 5005   1.705   1.487  12.276
 1450SOL    HW1 5006   1.612   1.462  12.249
 1450SOL    HW2 5007   1.731   1.437  12.358
 1451SOL     OW 5008   0.317   0.547  12.452
 1451SOL    HW1 5009   0.355   0.488  12.524
 1451SOL    HW2 5010   0.357   0.521  12.364
 1452SOL     OW 5011   0.812   1.586  11.859
 1452SOL    HW1 5012   0.844   1.596  11.765
 1452SOL    HW2 5013   0.733   1.524  11.861
 1453SOL     OW 5014   1.424   0.214  12.284
 1453SOL    HW1 5015   1.476   0.149  12.339
 1453SOL    HW2 5016   1.375   0.277  12.345
 1454SOL     OW 5017   1.001   0.034  12.326
 1454SOL    HW1 5018   0.938  -0.038  12.295
 1454SOL    HW2 5019   1.094  -0.002  12.326
 1455SOL     OW 5020   0.770   1.330  11.473
 1455SOL    HW1 5021   0.724   1.243  11.490
 1455SOL    HW2 5022   0.861   1.327  11.514
 1456SOL     OW 5023   0.618   1.567  12.456
 1456SOL    HW1 5024   0.613   1.649  12.513
 1456SOL    HW2 5025   0.707   1.564  12.411
 1457SOL     OW 5026   1.352   0.052  11.340
 1457SOL    HW1 5027   1.387   0.011  11.256
 1457SOL    HW2 5028   1.262   0.014  11.360
 1458SOL     OW 5029   1.300   0.453  11.863
 1458SOL    HW1 5030   1.241   0.533  11.867
 1458SOL    HW2 5031   1.315   0.418  11.956
 1459SOL     OW 5032   1.593   0.221  12.054
 1459SOL    HW1 5033   1.509   0.220  12.108
 1459SOL    HW2 5034   1.595   0.304  11.998
 1460SOL     OW 5035   0.039   1.077  11.472
 1460SOL    HW1 5036   0.138   1.066  11.463
 1460SOL    HW2 5037  -0.001   0.991  11.504
 1461SOL     OW 5038   0.875   1.646  11.509
 1461SOL    HW1 5039   0.798   1.611  11.455
 1461SOL    HW2 5040   0.843   1.717  11.571
 1462SOL     OW 5041   0.230   0.628  13.147
 1462SOL    HW1 5042   0.137   0.626  13.184
 1462SOL    HW2 5043   0.231   0.589  13.055
 1463SOL     OW 5044   0.225   0.275  14.030
 1463SOL    HW1 5045   0.260   0.258  14.122
 1463SOL    HW2 5046   0.137   0.230  14.018
 1464SOL     OW 5047   0.019   0.368  13.681
 1464SOL    HW1 5048  -0.063   0.411  13.720
 1464SOL    HW2 5049  -0.009   0.295  13.618
 1465SOL     OW 5050   1.555   1.511  13.737
 1465SOL    HW1 5051   1.498   1.495  13.818
 1465SOL    HW2 5052   1.496   1.521  13.657
 1466SOL     OW 5053   1.135   0.703  13.751
 1466SOL    HW1 5054   1.192   0.781  13.726
 1466SOL    HW2 5055   1.075   0.729  13.827
 1467SOL     OW 5056   1.755   0.607  13.265
 1467SOL    HW1 5057   1.743   0.594  13.166
 1467SOL    HW2 5058   1.725   0.526  13.314
 1468SOL     OW 5059   0.685   1.012  13.699
 1468SOL    HW1 5060   0.754   0.996  13.769
 1468SOL    HW2 5061   0.612   1.069  13.737
 1469SOL     OW 5062   1.603   0.447  13.771
 1469SOL    HW1 5063   1.529   0.493  13.721
 1469SOL    HW2 5064   1.654   0.515  13.824
 1470SOL     OW 5065   0.231   1.713  13.517
 1470SOL    HW1 5066   0.265   1.790  13.571
 1470SOL    HW2 5067   0.275   1.713  13.427
 1471SOL     OW 5068   0.230   1.434  13.572
 1471SOL    HW1 5069   0.204   1.530  13.572
 1471SOL    HW2 5070   0.159   1.380  13.617
 1472SOL     OW 5071   0.240   1.091  13.920
 1472SOL    HW1 5072   0.254   1.007  13.972
 1472SOL    HW2 5073   0.185   1.155  13.975
 1473SOL     OW 5074   0.606   0.964  13.157
 1473SOL    HW1 5075   0.613   1.048  13.103
 1473SOL    HW2 5076   0.652   0.977  13.245
 1474SOL     OW 5077   0.122   0.643  13.597
 1474SOL    HW1 5078   0.077   0.555  13.614
 1474SOL    HW2 5079   0.121   0.697  13.681
 1475SOL     OW 5080   0.027   1.596  13.151
 1475SOL    HW1 5081   0.008   1.500  13.172
 1475SOL    HW2 5082  -0.006   1.654  13.226
 1476SOL     OW 5083   1.689   0.922  13.646
 1476SOL    HW1 5084   1.784   0.893  13.654
 1476SOL    HW2 5085   1.681   0.987  13.571
 1477SOL     OW 5086   1.641   1.108  13.466
 1477SOL    HW1 5087   1.727   1.110  13.414
 1477SOL    HW2 5088   1.655   1.155  13.554
 1478SOL     OW 5089   0.613   1.365  13.760
 1478SOL    HW1 5090   0.564   1.278  13.769
 1478SOL    HW2 5091   0.590   1.408  13.673
 1479SOL     OW 5092   0.809   0.004  13.536
 1479SOL    HW1 5093   0.849   0.095  13.527
 1479SOL    HW2 5094   0.709   0.012  13.542
 1480SOL     OW 5095   1.525   0.999  13.224
 1480SOL    HW1 5096   1.462   0.923  13.237
 1480SOL    HW2 5097   1.573   1.017  13.310
 1481SOL     OW 5098   1.667   1.714  13.606
 1481SOL    HW1 5099   1.626   1.691  13.518
 1481SOL    HW2 5100   1.649   1.640  13.671
 1482SOL     OW 5101   0.598   0.729  13.304
 1482SOL    HW1 5102   0.622   0.798  13.236
 1482SOL    HW2 5103   0.520   0.762  13.358
 1483SOL     OW 5104   1.281   0.345  13.978
 1483SOL    HW1 5105   1.195   0.295  13.965
 1483SOL    HW2 5106   1.343   0.291  14.034
 1484SOL     OW 5107   1.576   1.662  13.341
 1484SOL    HW1 5108   1.665   1.708  13.344
 1484SOL    HW2 5109   1.555   1.638  13.246
 1485SOL     OW 5110   1.041   0.701  13.463
 1485SOL    HW1 5111   1.067   0.697  13.559
 1485SOL    HW2 5112   0.956   0.650  13.449
 1486SOL     OW 5113   0.076   0.811  13.823
 1486SOL    HW1 5114   0.175   0.799  13.832
 1486SOL    HW2 5115   0.052   0.906  13.844
 1487SOL     OW 5116   0.865   0.348  13.229
 1487SOL    HW1 5117   0.924   0.411  13.180
 1487SOL    HW2 5118   0.884   0.254  13.200
 1488SOL     OW 5119   1.362   1.144  13.579
 1488SOL    HW1 5120   1.445   1.115  13.531
 1488SOL    HW2 5121   1.313   1.211  13.523
 1489SOL     OW 5122   1.008   1.456  13.511
 1489SOL    HW1 5123   0.962   1.528  13.459
 1489SOL    HW2 5124   1.004   1.476  13.609
 1490SOL     OW 5125   0.351   1.801  13.887
 1490SOL    HW1 5126   0.401   1.715  13.893
 1490SOL    HW2 5127   0.416   1.878  13.884
 1491SOL     OW 5128   1.795   1.066  13.907
 1491SOL    HW1 5129   1.733   1.051  13.831
 1491SOL    HW2 5130   1.743   1.077  13.992
 1492SOL     OW 5131   0.321   0.943  13.276
 1492SOL    HW1 5132   0.403   0.982  13.234
 1492SOL    HW2 5133   0.294   0.861  13.227
 1493SOL     OW 5134   1.458   0.735  13.762
 1493SOL    HW1 5135   1.453   0.670  13.837
 1493SOL    HW2 5136   1.538   0.794  13.775
 1494SOL     OW 5137   1.111   1.776  13.271
 1494SOL    HW1 5138   1.051   1.714  13.321
 1494SOL    HW2 5139   1.142   1.732  13.186
 1495SOL     OW 5140   1.632   1.377  13.115
 1495SOL    HW1 5141   1.600   1.471  13.105
 1495SOL    HW2 5142   1.556   1.314  13.103
 1496SOL     OW 5143   0.464   1.743  13.357
 1496SOL    HW1 5144   0.497   1.782  13.443
 1496SOL    HW2 5145   0.540   1.736  13.292
 1497SOL     OW 5146   1.400   0.107  13.460
 1497SOL    HW1 5147   1.376   0.070  13.370
 1497SOL    HW2 5148   1.499   0.123  13.464
 1498SOL     OW 5149   0.940   1.698  13.938
 1498SOL    HW1 5150   1.020   1.641  13.959
 1498SOL    HW2 5151   0.891   1.658  13.861
 1499SOL     OW 5152   0.382   0.700  13.514
 1499SOL    HW1 5153   0.427   0.610  13.511
 1499SOL    HW2 5154   0.288   0.689  13.547
 1500SOL     OW 5155   0.614   0.122  13.151
 1500SOL    HW1 5156   0.712   0.100  13.158
 1500SOL    HW2 5157   0.583   0.105  13.058
 1501SOL     OW 5158   0.539   0.064  13.546
 1501SOL    HW1 5159   0.458   0.065  13.604
 1501SOL    HW2 5160   0.542   0.147  13.491
 1502SOL     OW 5161   1.434   1.188  13.075
 1502SOL    HW1 5162   1.466   1.112  13.132
 1502SOL    HW2 5163   1.342   1.215  13.105
 1503SOL     OW 5164   0.297   0.035  13.205
 1503SOL    HW1 5165   0.346   0.119  13.184
 1503SOL    HW2 5166   0.359  -0.030  13.250
 1504SOL     OW 5167   0.935   0.236  13.514
 1504SOL    HW1 5168   0.887   0.277  13.436
 1504SOL    HW2 5169   1.034   0.234  13.495
 1505SOL     OW 5170   0.459   1.152  13.775
 1505SOL    HW1 5171   0.388   1.125  13.840
 1505SOL    HW2 5172   0.433   1.124  13.682
 1506SOL     OW 5173   1.271   1.797  13.625
 1506SOL    HW1 5174   1.315   1.861  13.561
 1506SOL    HW2 5175   1.221   1.849  13.695
 1507SOL     OW 5176   1.032   0.549  13.050
 1507SOL    HW1 5177   0.991   0.631  13.011
 1507SOL    HW2 5178   1.096   0.575  13.123
 1508SOL     OW 5179   0.866   0.454  13.676
 1508SOL    HW1 5180   0.834   0.526  13.614
 1508SOL    HW2 5181   0.890   0.373  13.623
 1509SOL     OW 5182   1.017   0.039  13.787
 1509SOL    HW1 5183   0.945   0.044  13.718
 1509SOL    HW2 5184   0.993  -0.030  13.856
 1510SOL     OW 5185   1.857   0.833  13.411
 1510SOL    HW1 5186   1.899   0.769  13.475
 1510SOL    HW2 5187   1.819   0.782  13.333
 1511SOL     OW 5188   0.488   1.385  13.208
 1511SOL    HW1 5189   0.401   1.370  13.255
 1511SOL    HW2 5190   0.471   1.411  13.113
 1512SOL     OW 5191   1.664   1.280  13.691
 1512SOL    HW1 5192   1.763   1.288  13.705
 1512SOL    HW2 5193   1.619   1.364  13.722
 1513SOL     OW 5194   1.390   0.575  13.112
 1513SOL    HW1 5195   1.336   0.554  13.193
 1513SOL    HW2 5196   1.481   0.534  13.121
 1514SOL     OW 5197   0.527   0.256  13.362
 1514SOL    HW1 5198   0.554   0.197  13.287
 1514SOL    HW2 5199   0.527   0.351  13.331
 1515SOL     OW 5200   0.705   1.050  13.402
 1515SOL    HW1 5201   0.691   1.057  13.501
 1515SOL    HW2 5202   0.789   0.999  13.384
 1516SOL     OW 5203   0.367   1.100  13.535
 1516SOL    HW1 5204   0.360   1.183  13.479
 1516SOL    HW2 5205   0.371   1.020  13.475
 1517SOL     OW 5206   0.566   0.537  13.899
 1517SOL    HW1 5207   0.578   0.603  13.825
 1517SOL    HW2 5208   0.612   0.571  13.982
 1518SOL     OW 5209   1.252   1.348  13.422
 1518SOL    HW1 5210   1.302   1.425  13.462
 1518SOL    HW2 5211   1.157   1.350  13.454
 1519SOL     OW 5212   1.582   0.639  13.506
 1519SOL    HW1 5213   1.551   0.700  13.579
 1519SOL    HW2 5214   1.632   0.691  13.437
 1520SOL     OW 5215   1.209   0.525  13.309
 1520SOL    HW1 5216   1.222   0.441  13.363
 1520SOL    HW2 5217   1.180   0.599  13.369
 1521SOL     OW 5218   0.307   0.063  13.652
 1521SOL    HW1 5219   0.296   0.157  13.685
 1521SOL    HW2 5220   0.302   0.000  13.729
 1522SOL     OW 5221   1.622   0.367  13.408
 1522SOL    HW1 5222   1.624   0.291  13.472
 1522SOL    HW2 5223   1.574   0.444  13.448
 1523SOL     OW 5224   1.540   0.274  13.159
 1523SOL    HW1 5225   1.479   0.199  13.182
 1523SOL    HW2 5226   1.562   0.326  13.242
 1524SOL     OW 5227   1.303   0.838  13.076
 1524SOL    HW1 5228   1.337   0.745  13.091
 1524SOL    HW2 5229   1.321   0.865  12.981
 1525SOL     OW 5230   0.008   1.326  13.234
 1525SOL    HW1 5231  -0.085   1.347  13.203
 1525SOL    HW2 5232   0.018   1.227  13.247
 1526SOL     OW 5233   0.815   0.572  13.359
 1526SOL    HW1 5234   0.822   0.483  13.313
 1526SOL    HW2 5235   0.721   0.606  13.351
 1527SOL     OW 5236   0.473   0.500  13.225
 1527SOL    HW1 5237   0.534   0.580  13.229
 1527SOL    HW2 5238   0.378   0.531  13.232
 1528SOL     OW 5239   1.302   0.855  13.343
 1528SOL    HW1 5240   1.216   0.824  13.385
 1528SOL    HW2 5241   1.298   0.841  13.244
 1529SOL     OW 5242   1.726   0.135  13.557
 1529SOL    HW1 5243   1.799   0.118  13.490
 1529SOL    HW2 5244   1.695   0.048  13.595
 1530SOL     OW 5245   1.388   1.573  13.511
 1530SOL    HW1 5246   1.455   1.585  13.437
 1530SOL    HW2 5247   1.348   1.662  13.534
 1531SOL     OW 5248   1.280   0.927  13.706
 1531SOL    HW1 5249   1.340   0.846  13.708
 1531SOL    HW2 5250   1.320   0.996  13.646
 1532SOL     OW 5251   0.672   1.616  13.188
 1532SOL    HW1 5252   0.681   1.626  13.089
 1532SOL    HW2 5253   0.632   1.527  13.209
 1533SOL     OW 5254   1.841   0.175  13.997
 1533SOL    HW1 5255   1.880   0.090  13.961
 1533SOL    HW2 5256   1.743   0.177  13.978
 1534SOL     OW 5257   0.263   0.326  13.754
 1534SOL    HW1 5258   0.184   0.377  13.720
 1534SOL    HW2 5259   0.254   0.311  13.852
 1535SOL     OW 5260   1.194   1.612  13.065
 1535SOL    HW1 5261   1.200   1.519  13.102
 1535SOL    HW2 5262   1.135   1.612  12.985
 1536SOL     OW 5263   0.916   0.910  13.325
 1536SOL    HW1 5264   0.979   0.948  13.257
 1536SOL    HW2 5265   0.956   0.827  13.364
 1537SOL     OW 5266   1.504   1.607  13.078
 1537SOL    HW1 5267   1.412   1.644  13.085
 1537SOL    HW2 5268   1.542   1.627  12.988
 1538SOL     OW 5269   1.039   1.098  13.730
 1538SOL    HW1 5270   0.969   1.051  13.784
 1538SOL    HW2 5271   1.098   1.030  13.687
 1539SOL     OW 5272   0.590   1.487  13.525
 1539SOL    HW1 5273   0.632   1.429  13.455
 1539SOL    HW2 5274   0.546   1.566  13.481
 1540SOL     OW 5275   0.255   1.348  13.324
 1540SOL    HW1 5276   0.159   1.349  13.297
 1540SOL    HW2 5277   0.267   1.401  13.408
 1541SOL     OW 5278   0.075   0.345  13.067
 1541SOL    HW1 5279  -0.017   0.317  13.038
 1541SOL    HW2 5280   0.106   0.422  13.011
 1542SOL     OW 5281   0.072   0.166  13.352
 1542SOL    HW1 5282   0.055   0.249  13.298
 1542SOL    HW2 5283   0.162   0.129  13.330
 1543SOL     OW 5284   1.183   1.335  13.153
 1543SOL    HW1 5285   1.084   1.324  13.155
 1543SOL    HW2 5286   1.217   1.350  13.246
 1544SOL     OW 5287   1.225   0.325  13.483
 1544SOL    HW1 5288   1.290   0.251  13.472
 1544SOL    HW2 5289   1.245   0.375  13.567
 1545SOL     OW 5290   0.594   0.745  13.686
 1545SOL    HW1 5291   0.644   0.830  13.667
 1545SOL    HW2 5292   0.506   0.747  13.638
 1546SOL     OW 5293   0.859   1.374  13.050
 1546SOL    HW1 5294   0.813   1.389  13.138
 1546SOL    HW2 5295   0.903   1.459  13.020
 1547SOL     OW 5296   0.661   1.790  13.987
 1547SOL    HW1 5297   0.615   1.878  13.974
 1547SOL    HW2 5298   0.760   1.802  13.980
 1548SOL     OW 5299   0.859   0.956  13.895
 1548SOL    HW1 5300   0.913   0.887  13.943
 1548SOL    HW2 5301   0.827   1.025  13.961
 1549SOL     OW 5302   1.083   0.984  13.121
 1549SOL    HW1 5303   1.060   1.037  13.039
 1549SOL    HW2 5304   1.164   0.928  13.102
 1550SOL     OW 5305   0.079   1.240  13.687
 1550SOL    HW1 5306   0.078   1.193  13.775
 1550SOL    HW2 5307   0.161   1.212  13.636
 1551SOL     OW 5308   0.428   0.424  13.554
 1551SOL    HW1 5309   0.458   0.352  13.492
 1551SOL    HW2 5310   0.389   0.384  13.637
 1552SOL     OW 5311   1.705   1.487  14.138
 1552SOL    HW1 5312   1.612   1.462  14.111
 1552SOL    HW2 5313   1.731   1.437  14.220
 1553SOL     OW 5314   0.812   1.586  13.721
 1553SOL    HW1 5315   0.844   1.596  13.627
 1553SOL    HW2 5316   0.733   1.524  13.723
 1554SOL     OW 5317   0.770   1.330  13.335
 1554SOL    HW1 5318   0.724   1.243  13.352
 1554SOL    HW2 5319   0.861   1.327  13.376
 1555SOL     OW 5320   1.352   0.052  13.202
 1555SOL    HW1 5321   1.387   0.011  13.118
 1555SOL    HW2 5322   1.262   0.014  13.222
 1556SOL     OW 5323   1.300   0.453  13.725
 1556SOL    HW1 5324   1.241   0.533  13.729
 1556SOL    HW2 5325   1.315   0.418  13.818
 1557SOL     OW 5326   0.039   1.077  13.334
 1557SOL    HW1 5327   0.138   1.066  13.325
 1557SOL    HW2 5328  -0.001   0.991  13.366
 1558SOL     OW 5329   0.875   1.646  13.371
 1558SOL    HW1 5330   0.798   1.611  13.317
 1558SOL    HW2 5331   0.843   1.717  13.433
 1559SOL     OW 5332   0.230   2.490   0.113
 1559SOL    HW1 5333   0.137   2.488   0.150
 1559SOL    HW2 5334   0.231   2.451   0.021
 1560SOL     OW 5335   0.225   2.137   0.996
 1560SOL    HW1 5336   0.260   2.120   1.088
 1560SOL    HW2 5337   0.137   2.092   0.984
 1561SOL     OW 5338   0.019   2.230   0.647
 1561SOL    HW1 5339  -0.063   2.273   0.686
 1561SOL    HW2 5340  -0.009   2.157   0.584
 1562SOL     OW 5341   0.569   3.137   1.165
 1562SOL    HW1 5342   0.476   3.130   1.128
 1562SOL    HW2 5343   0.580   3.226   1.209
 1563SOL     OW 5344   1.555   3.373   0.703
 1563SOL    HW1 5345   1.498   3.357   0.784
 1563SOL    HW2 5346   1.496   3.383   0.623
 1564SOL     OW 5347   1.135   2.565   0.717
 1564SOL    HW1 5348   1.192   2.643   0.692
 1564SOL    HW2 5349   1.075   2.591   0.793
 1565SOL     OW 5350   1.755   2.469   0.231
 1565SOL    HW1 5351   1.743   2.456   0.132
 1565SOL    HW2 5352   1.725   2.388   0.280
 1566SOL     OW 5353   0.768   3.006   1.023
 1566SOL    HW1 5354   0.690   3.023   1.083
 1566SOL    HW2 5355   0.802   3.093   0.987
 1567SOL     OW 5356   0.850   2.660   1.823
 1567SOL    HW1 5357   0.846   2.736   1.888
 1567SOL    HW2 5358   0.872   2.696   1.732
 1568SOL     OW 5359   0.685   2.874   0.665
 1568SOL    HW1 5360   0.754   2.858   0.735
 1568SOL    HW2 5361   0.612   2.931   0.703
 1569SOL     OW 5362   0.686   3.023   1.803
 1569SOL    HW1 5363   0.746   3.102   1.817
 1569SOL    HW2 5364   0.600   3.054   1.762
 1570SOL     OW 5365   0.335   3.297   1.061
 1570SOL    HW1 5366   0.257   3.266   1.008
 1570SOL    HW2 5367   0.393   3.355   1.004
 1571SOL     OW 5368   1.460   3.367   1.339
 1571SOL    HW1 5369   1.484   3.461   1.365
 1571SOL    HW2 5370   1.444   3.313   1.421
 1572SOL     OW 5371   0.438   2.254   1.499
 1572SOL    HW1 5372   0.520   2.198   1.508
 1572SOL    HW2 5373   0.357   2.196   1.503
 1573SOL     OW 5374   1.603   2.309   0.737
 1573SOL    HW1 5375   1.529   2.355   0.687
 1573SOL    HW2 5376   1.654   2.377   0.790
 1574SOL     OW 5377   0.231   3.575   0.483
 1574SOL    HW1 5378   0.265   3.652   0.537
 1574SOL    HW2 5379   0.275   3.575   0.393
 1575SOL     OW 5380   1.127   3.203   1.690
 1575SOL    HW1 5381   1.174   3.203   1.778
 1575SOL    HW2 5382   1.079   3.116   1.679
 1576SOL     OW 5383   0.230   3.296   0.538
 1576SOL    HW1 5384   0.204   3.392   0.538
 1576SOL    HW2 5385   0.159   3.242   0.583
 1577SOL     OW 5386   0.240   2.953   0.886
 1577SOL    HW1 5387   0.254   2.869   0.938
 1577SOL    HW2 5388   0.185   3.017   0.941
 1578SOL     OW 5389   0.620   3.648   1.439
 1578SOL    HW1 5390   0.528   3.631   1.474
 1578SOL    HW2 5391   0.648   3.740   1.465
 1579SOL     OW 5392   0.606   2.826   0.123
 1579SOL    HW1 5393   0.613   2.910   0.069
 1579SOL    HW2 5394   0.652   2.839   0.211
 1580SOL     OW 5395   1.594   1.976   1.480
 1580SOL    HW1 5396   1.576   2.043   1.408
 1580SOL    HW2 5397   1.591   2.022   1.569
 1581SOL     OW 5398   0.122   2.505   0.563
 1581SOL    HW1 5399   0.077   2.417   0.580
 1581SOL    HW2 5400   0.121   2.559   0.647
 1582SOL     OW 5401   1.842   3.629   0.359
 1582SOL    HW1 5402   1.896   3.600   0.439
 1582SOL    HW2 5403   1.872   3.719   0.330
 1583SOL     OW 5404   0.027   3.458   0.117
 1583SOL    HW1 5405   0.008   3.362   0.138
 1583SOL    HW2 5406  -0.006   3.516   0.192
 1584SOL     OW 5407   1.689   2.784   0.612
 1584SOL    HW1 5408   1.784   2.755   0.620
 1584SOL    HW2 5409   1.681   2.849   0.537
 1585SOL     OW 5410   1.641   2.970   0.432
 1585SOL    HW1 5411   1.727   2.972   0.380
 1585SOL    HW2 5412   1.655   3.017   0.520
 1586SOL     OW 5413   0.113   2.599   1.597
 1586SOL    HW1 5414   0.201   2.586   1.642
 1586SOL    HW2 5415   0.100   2.696   1.575
 1587SOL     OW 5416   0.613   3.227   0.726
 1587SOL    HW1 5417   0.564   3.140   0.735
 1587SOL    HW2 5418   0.590   3.270   0.639
 1588SOL     OW 5419   1.293   3.090   1.423
 1588SOL    HW1 5420   1.330   3.017   1.365
 1588SOL    HW2 5421   1.345   3.095   1.508
 1589SOL     OW 5422   0.809   1.866   0.502
 1589SOL    HW1 5423   0.849   1.957   0.493
 1589SOL    HW2 5424   0.709   1.874   0.508
 1590SOL     OW 5425   0.197   2.838   1.264
 1590SOL    HW1 5426   0.286   2.793   1.250
 1590SOL    HW2 5427   0.124   2.773   1.245
 1591SOL     OW 5428   1.525   2.861   0.190
 1591SOL    HW1 5429   1.462   2.785   0.203
 1591SOL    HW2 5430   1.573   2.879   0.276
 1592SOL     OW 5431   1.187   3.654   1.616
 1592SOL    HW1 5432   1.211   3.714   1.540
 1592SOL    HW2 5433   1.194   3.559   1.586
 1593SOL     OW 5434   0.317   2.113   1.801
 1593SOL    HW1 5435   0.388   2.184   1.807
 1593SOL    HW2 5436   0.229   2.152   1.829
 1594SOL     OW 5437   1.466   3.279   0.953
 1594SOL    HW1 5438   1.407   3.285   1.033
 1594SOL    HW2 5439   1.451   3.191   0.907
 1595SOL     OW 5440   1.667   3.576   0.572
 1595SOL    HW1 5441   1.626   3.553   0.484
 1595SOL    HW2 5442   1.649   3.502   0.637
 1596SOL     OW 5443   0.598   2.591   0.270
 1596SOL    HW1 5444   0.622   2.660   0.202
 1596SOL    HW2 5445   0.520   2.624   0.324
 1597SOL     OW 5446   1.281   2.207   0.944
 1597SOL    HW1 5447   1.195   2.157   0.931
 1597SOL    HW2 5448   1.343   2.153   1.000
 1598SOL     OW 5449   1.576   3.524   0.307
 1598SOL    HW1 5450   1.665   3.570   0.310
 1598SOL    HW2 5451   1.555   3.500   0.212
 1599SOL     OW 5452   0.807   2.467   1.465
 1599SOL    HW1 5453   0.760   2.464   1.554
 1599SOL    HW2 5454   0.756   2.412   1.399
 1600SOL     OW 5455   1.394   2.331   1.674
 1600SOL    HW1 5456   1.374   2.374   1.762
 1600SOL    HW2 5457   1.472   2.269   1.683
 1601SOL     OW 5458   0.973   2.752   1.572
 1601SOL    HW1 5459   1.019   2.668   1.543
 1601SOL    HW2 5460   0.917   2.786   1.497
 1602SOL     OW 5461   0.991   2.272   1.242
 1602SOL    HW1 5462   0.914   2.306   1.296
 1602SOL    HW2 5463   0.957   2.221   1.163
 1603SOL     OW 5464   1.041   2.563   0.429
 1603SOL    HW1 5465   1.067   2.559   0.525
 1603SOL    HW2 5466   0.956   2.512   0.415
 1604SOL     OW 5467   0.076   2.673   0.789
 1604SOL    HW1 5468   0.175   2.661   0.798
 1604SOL    HW2 5469   0.052   2.768   0.810
 1605SOL     OW 5470   0.130   3.683   1.571
 1605SOL    HW1 5471   0.120   3.668   1.670
 1605SOL    HW2 5472   0.044   3.719   1.535
 1606SOL     OW 5473   0.865   2.210   0.195
 1606SOL    HW1 5474   0.924   2.273   0.146
 1606SOL    HW2 5475   0.884   2.116   0.166
 1607SOL     OW 5476   1.719   2.447   1.831
 1607SOL    HW1 5477   1.693   2.536   1.795
 1607SOL    HW2 5478   1.717   2.379   1.758
 1608SOL     OW 5479   1.362   3.006   0.545
 1608SOL    HW1 5480   1.445   2.977   0.497
 1608SOL    HW2 5481   1.313   3.073   0.489
 1609SOL     OW 5482   0.550   2.058   0.885
 1609SOL    HW1 5483   0.545   2.053   0.985
 1609SOL    HW2 5484   0.552   2.154   0.856
 1610SOL     OW 5485   1.008   3.318   0.477
 1610SOL    HW1 5486   0.962   3.390   0.425
 1610SOL    HW2 5487   1.004   3.338   0.575
 1611SOL     OW 5488   0.351   3.663   0.853
 1611SOL    HW1 5489   0.401   3.577   0.859
 1611SOL    HW2 5490   0.416   3.740   0.850
 1612SOL     OW 5491   1.795   2.928   0.873
 1612SOL    HW1 5492   1.733   2.913   0.797
 1612SOL    HW2 5493   1.743   2.939   0.958
 1613SOL     OW 5494   1.227   3.412   1.506
 1613SOL    HW1 5495   1.233   3.335   1.570
 1613SOL    HW2 5496   1.175   3.386   1.426
 1614SOL     OW 5497   0.321   2.805   0.242
 1614SOL    HW1 5498   0.403   2.844   0.200
 1614SOL    HW2 5499   0.294   2.723   0.193
 1615SOL     OW 5500   1.458   2.597   0.728
 1615SOL    HW1 5501   1.453   2.532   0.803
 1615SOL    HW2 5502   1.538   2.656   0.741
 1616SOL     OW 5503   0.461   3.128   1.727
 1616SOL    HW1 5504   0.411   3.129   1.641
 1616SOL    HW2 5505   0.398   3.110   1.803
 1617SOL     OW 5506   1.111   3.638   0.237
 1617SOL    HW1 5507   1.051   3.576   0.287
 1617SOL    HW2 5508   1.142   3.594   0.152
 1618SOL     OW 5509   0.202   2.147   1.498
 1618SOL    HW1 5510   0.122   2.207   1.485
 1618SOL    HW2 5511   0.192   2.098   1.584
 1619SOL     OW 5512   1.632   3.239   0.081
 1619SOL    HW1 5513   1.600   3.333   0.071
 1619SOL    HW2 5514   1.556   3.176   0.069
 1620SOL     OW 5515   0.464   3.605   0.323
 1620SOL    HW1 5516   0.497   3.644   0.409
 1620SOL    HW2 5517   0.540   3.598   0.258
 1621SOL     OW 5518   1.400   1.969   0.426
 1621SOL    HW1 5519   1.376   1.932   0.336
 1621SOL    HW2 5520   1.499   1.985   0.430
 1622SOL     OW 5521   0.249   3.647   1.241
 1622SOL    HW1 5522   0.306   3.582   1.291
 1622SOL    HW2 5523   0.233   3.614   1.148
 1623SOL     OW 5524   0.940   3.560   0.904
 1623SOL    HW1 5525   1.020   3.503   0.925
 1623SOL    HW2 5526   0.891   3.520   0.827
 1624SOL     OW 5527   0.382   2.562   0.480
 1624SOL    HW1 5528   0.427   2.472   0.477
 1624SOL    HW2 5529   0.288   2.551   0.513
 1625SOL     OW 5530   1.547   2.084   1.729
 1625SOL    HW1 5531   1.542   2.121   1.821
 1625SOL    HW2 5532   1.475   2.015   1.717
 1626SOL     OW 5533   0.781   2.126   1.749
 1626SOL    HW1 5534   0.848   2.065   1.792
 1626SOL    HW2 5535   0.708   2.145   1.814
 1627SOL     OW 5536   0.888   3.376   1.195
 1627SOL    HW1 5537   0.865   3.351   1.101
 1627SOL    HW2 5538   0.949   3.307   1.234
 1628SOL     OW 5539   1.351   2.452   1.433
 1628SOL    HW1 5540   1.379   2.409   1.518
 1628SOL    HW2 5541   1.376   2.548   1.434
 1629SOL     OW 5542   0.803   3.264   0.924
 1629SOL    HW1 5543   0.893   3.278   0.882
 1629SOL    HW2 5544   0.732   3.266   0.853
 1630SOL     OW 5545   0.922   2.365   0.899
 1630SOL    HW1 5546   0.897   2.356   0.803
 1630SOL    HW2 5547   0.970   2.283   0.930
 1631SOL     OW 5548   0.539   1.926   0.512
 1631SOL    HW1 5549   0.458   1.927   0.570
 1631SOL    HW2 5550   0.542   2.009   0.457
 1632SOL     OW 5551   1.434   3.050   0.041
 1632SOL    HW1 5552   1.466   2.974   0.098
 1632SOL    HW2 5553   1.342   3.077   0.071
 1633SOL     OW 5554   0.297   1.897   0.171
 1633SOL    HW1 5555   0.346   1.981   0.150
 1633SOL    HW2 5556   0.359   1.832   0.216
 1634SOL     OW 5557   0.935   2.098   0.480
 1634SOL    HW1 5558   0.887   2.139   0.402
 1634SOL    HW2 5559   1.034   2.096   0.461
 1635SOL     OW 5560   1.076   2.545   1.464
 1635SOL    HW1 5561   0.996   2.484   1.467
 1635SOL    HW2 5562   1.157   2.492   1.440
 1636SOL     OW 5563   1.227   3.432   0.793
 1636SOL    HW1 5564   1.248   3.506   0.728
 1636SOL    HW2 5565   1.295   3.432   0.866
 1637SOL     OW 5566   0.459   3.014   0.741
 1637SOL    HW1 5567   0.388   2.987   0.806
 1637SOL    HW2 5568   0.433   2.986   0.648
 1638SOL     OW 5569   1.271   3.659   0.591
 1638SOL    HW1 5570   1.315   3.723   0.527
 1638SOL    HW2 5571   1.221   3.711   0.661
 1639SOL     OW 5572   1.032   2.411   0.016
 1639SOL    HW1 5573   0.991   2.493  -0.023
 1639SOL    HW2 5574   1.096   2.437   0.089
 1640SOL     OW 5575   0.078   2.418   1.386
 1640SOL    HW1 5576   0.170   2.417   1.345
 1640SOL    HW2 5577   0.072   2.492   1.453
 1641SOL     OW 5578   0.561   2.084   1.147
 1641SOL    HW1 5579   0.599   2.000   1.184
 1641SOL    HW2 5580   0.473   2.103   1.191
 1642SOL     OW 5581   0.866   2.316   0.642
 1642SOL    HW1 5582   0.834   2.388   0.580
 1642SOL    HW2 5583   0.890   2.235   0.589
 1643SOL     OW 5584   1.017   1.901   0.753
 1643SOL    HW1 5585   0.945   1.906   0.684
 1643SOL    HW2 5586   0.993   1.832   0.822
 1644SOL     OW 5587   1.429   3.035   0.867
 1644SOL    HW1 5588   1.374   2.951   0.860
 1644SOL    HW2 5589   1.455   3.064   0.775
 1645SOL     OW 5590   1.466   2.452   0.992
 1645SOL    HW1 5591   1.436   2.357   0.999
 1645SOL    HW2 5592   1.539   2.468   1.058
 1646SOL     OW 5593   1.857   2.695   0.377
 1646SOL    HW1 5594   1.899   2.631   0.441
 1646SOL    HW2 5595   1.819   2.644   0.299
 1647SOL     OW 5596   0.488   3.247   0.174
 1647SOL    HW1 5597   0.401   3.232   0.221
 1647SOL    HW2 5598   0.471   3.273   0.079
 1648SOL     OW 5599   1.664   3.142   0.657
 1648SOL    HW1 5600   1.763   3.150   0.671
 1648SOL    HW2 5601   1.619   3.226   0.688
 1649SOL     OW 5602   1.390   2.437   0.078
 1649SOL    HW1 5603   1.336   2.416   0.159
 1649SOL    HW2 5604   1.481   2.396   0.087
 1650SOL     OW 5605   0.527   2.118   0.328
 1650SOL    HW1 5606   0.554   2.059   0.253
 1650SOL    HW2 5607   0.527   2.213   0.297
 1651SOL     OW 5608   1.754   3.085   1.588
 1651SOL    HW1 5609   1.845   3.046   1.575
 1651SOL    HW2 5610   1.762   3.181   1.612
 1652SOL     OW 5611   1.064   3.209   1.340
 1652SOL    HW1 5612   0.984   3.186   1.395
 1652SOL    HW2 5613   1.147   3.183   1.389
 1653SOL     OW 5614   1.592   3.491   1.625
 1653SOL    HW1 5615   1.619   3.525   1.535
 1653SOL    HW2 5616   1.671   3.453   1.671
 1654SOL     OW 5617   1.111   3.057   1.100
 1654SOL    HW1 5618   1.071   3.101   1.181
 1654SOL    HW2 5619   1.070   3.094   1.017
 1655SOL     OW 5620   1.638   2.961   1.079
 1655SOL    HW1 5621   1.643   3.042   1.138
 1655SOL    HW2 5622   1.552   2.963   1.028
 1656SOL     OW 5623   0.915   1.951   1.402
 1656SOL    HW1 5624   0.940   1.931   1.307
 1656SOL    HW2 5625   0.987   2.007   1.444
 1657SOL     OW 5626   0.980   2.978   1.719
 1657SOL    HW1 5627   0.881   2.984   1.729
 1657SOL    HW2 5628   1.003   2.898   1.663
 1658SOL     OW 5629   0.705   2.912   0.368
 1658SOL    HW1 5630   0.691   2.919   0.467
 1658SOL    HW2 5631   0.789   2.861   0.350
 1659SOL     OW 5632   0.410   2.675   1.251
 1659SOL    HW1 5633   0.496   2.687   1.301
 1659SOL    HW2 5634   0.368   2.588   1.278
 1660SOL     OW 5635   1.274   2.248   1.262
 1660SOL    HW1 5636   1.295   2.322   1.326
 1660SOL    HW2 5637   1.185   2.265   1.219
 1661SOL     OW 5638   0.064   3.426   1.331
 1661SOL    HW1 5639   0.018   3.508   1.297
 1661SOL    HW2 5640   0.162   3.445   1.340
 1662SOL     OW 5641   0.367   2.962   0.501
 1662SOL    HW1 5642   0.360   3.045   0.445
 1662SOL    HW2 5643   0.371   2.882   0.441
 1663SOL     OW 5644   0.566   2.399   0.865
 1663SOL    HW1 5645   0.578   2.465   0.791
 1663SOL    HW2 5646   0.612   2.433   0.948
 1664SOL     OW 5647   1.252   3.210   0.388
 1664SOL    HW1 5648   1.302   3.287   0.428
 1664SOL    HW2 5649   1.157   3.212   0.420
 1665SOL     OW 5650   1.272   3.307   1.142
 1665SOL    HW1 5651   1.319   3.320   1.229
 1665SOL    HW2 5652   1.206   3.233   1.151
 1666SOL     OW 5653   1.582   2.501   0.472
 1666SOL    HW1 5654   1.551   2.562   0.545
 1666SOL    HW2 5655   1.632   2.553   0.403
 1667SOL     OW 5656   0.354   3.372   1.329
 1667SOL    HW1 5657   0.333   3.328   1.242
 1667SOL    HW2 5658   0.451   3.398   1.332
 1668SOL     OW 5659   0.402   2.613   1.598
 1668SOL    HW1 5660   0.470   2.668   1.551
 1668SOL    HW2 5661   0.442   2.525   1.625
 1669SOL     OW 5662   1.587   2.641   1.670
 1669SOL    HW1 5663   1.495   2.679   1.665
 1669SOL    HW2 5664   1.647   2.688   1.605
 1670SOL     OW 5665   1.013   1.967   1.770
 1670SOL    HW1 5666   1.019   2.052   1.718
 1670SOL    HW2 5667   1.045   1.891   1.713
 1671SOL     OW 5668   0.504   1.912   1.740
 1671SOL    HW1 5669   0.462   1.855   1.670
 1671SOL    HW2 5670   0.438   1.981   1.772
 1672SOL     OW 5671   0.573   2.732   1.029
 1672SOL    HW1 5672   0.617   2.821   1.020
 1672SOL    HW2 5673   0.510   2.732   1.106
 1673SOL     OW 5674   1.360   2.724   1.045
 1673SOL    HW1 5675   1.285   2.724   0.979
 1673SOL    HW2 5676   1.397   2.632   1.054
 1674SOL     OW 5677   1.209   2.387   0.275
 1674SOL    HW1 5678   1.222   2.303   0.329
 1674SOL    HW2 5679   1.180   2.461   0.335
 1675SOL     OW 5680   0.307   2.075   1.231
 1675SOL    HW1 5681   0.284   2.112   1.321
 1675SOL    HW2 5682   0.277   1.980   1.225
 1676SOL     OW 5683   0.037   3.172   1.282
 1676SOL    HW1 5684   0.090   3.123   1.350
 1676SOL    HW2 5685   0.059   3.270   1.287
 1677SOL     OW 5686   0.732   2.496   1.064
 1677SOL    HW1 5687   0.791   2.470   0.988
 1677SOL    HW2 5688   0.704   2.592   1.053
 1678SOL     OW 5689   1.728   2.797   1.854
 1678SOL    HW1 5690   1.682   2.790   1.765
 1678SOL    HW2 5691   1.666   2.841   1.920
 1679SOL     OW 5692   0.307   1.925   0.618
 1679SOL    HW1 5693   0.296   2.019   0.651
 1679SOL    HW2 5694   0.302   1.862   0.695
 1680SOL     OW 5695   1.622   2.229   0.374
 1680SOL    HW1 5696   1.624   2.153   0.438
 1680SOL    HW2 5697   1.574   2.306   0.414
 1681SOL     OW 5698   1.023   2.628   0.966
 1681SOL    HW1 5699   1.038   2.649   1.062
 1681SOL    HW2 5700   0.993   2.533   0.957
 1682SOL     OW 5701   0.980   3.435   1.700
 1682SOL    HW1 5702   0.960   3.479   1.612
 1682SOL    HW2 5703   1.019   3.344   1.684
 1683SOL     OW 5704   1.859   3.380   1.605
 1683SOL    HW1 5705   1.873   3.407   1.510
 1683SOL    HW2 5706   1.942   3.402   1.658
 1684SOL     OW 5707   0.350   2.760   1.804
 1684SOL    HW1 5708   0.426   2.804   1.852
 1684SOL    HW2 5709   0.385   2.713   1.722
 1685SOL     OW 5710   1.540   2.136   0.125
 1685SOL    HW1 5711   1.479   2.061   0.148
 1685SOL    HW2 5712   1.562   2.188   0.208
 1686SOL     OW 5713   1.303   2.700   0.042
 1686SOL    HW1 5714   1.337   2.607   0.057
 1686SOL    HW2 5715   1.321   2.727  -0.053
 1687SOL     OW 5716   1.068   3.195   0.849
 1687SOL    HW1 5717   1.075   3.111   0.794
 1687SOL    HW2 5718   1.130   3.264   0.813
 1688SOL     OW 5719   0.319   2.672   0.949
 1688SOL    HW1 5720   0.412   2.708   0.954
 1688SOL    HW2 5721   0.313   2.587   1.001
 1689SOL     OW 5722   0.339   2.371   1.006
 1689SOL    HW1 5723   0.287   2.288   0.989
 1689SOL    HW2 5724   0.416   2.376   0.942
 1690SOL     OW 5725   1.138   2.242   1.678
 1690SOL    HW1 5726   1.093   2.305   1.742
 1690SOL    HW2 5727   1.231   2.273   1.661
 1691SOL     OW 5728   1.160   2.069   1.477
 1691SOL    HW1 5729   1.160   2.133   1.554
 1691SOL    HW2 5730   1.188   2.117   1.394
 1692SOL     OW 5731   0.008   3.188   0.200
 1692SOL    HW1 5732  -0.085   3.209   0.169
 1692SOL    HW2 5733   0.018   3.089   0.213
 1693SOL     OW 5734   0.088   3.663   0.927
 1693SOL    HW1 5735   0.046   3.577   0.900
 1693SOL    HW2 5736   0.182   3.666   0.893
 1694SOL     OW 5737   0.504   3.430   0.910
 1694SOL    HW1 5738   0.570   3.504   0.919
 1694SOL    HW2 5739   0.548   3.351   0.868
 1695SOL     OW 5740   1.002   2.658   1.238
 1695SOL    HW1 5741   1.043   2.626   1.324
 1695SOL    HW2 5742   0.906   2.631   1.235
 1696SOL     OW 5743   0.040   2.406   1.114
 1696SOL    HW1 5744   0.125   2.373   1.073
 1696SOL    HW2 5745   0.053   2.421   1.212
 1697SOL     OW 5746   0.189   2.382   1.722
 1697SOL    HW1 5747   0.248   2.342   1.652
 1697SOL    HW2 5748   0.131   2.453   1.681
 1698SOL     OW 5749   1.369   2.812   1.660
 1698SOL    HW1 5750   1.408   2.901   1.680
 1698SOL    HW2 5751   1.379   2.792   1.563
 1699SOL     OW 5752   0.815   2.434   0.325
 1699SOL    HW1 5753   0.822   2.345   0.279
 1699SOL    HW2 5754   0.721   2.468   0.317
 1700SOL     OW 5755   1.657   2.466   1.206
 1700SOL    HW1 5756   1.619   2.397   1.268
 1700SOL    HW2 5757   1.739   2.430   1.162
 1701SOL     OW 5758   0.252   3.426   1.744
 1701SOL    HW1 5759   0.222   3.483   1.820
 1701SOL    HW2 5760   0.245   3.329   1.770
 1702SOL     OW 5761   0.671   2.326   1.269
 1702SOL    HW1 5762   0.637   2.237   1.239
 1702SOL    HW2 5763   0.697   2.380   1.189
 1703SOL     OW 5764   0.930   3.540   1.465
 1703SOL    HW1 5765   0.906   3.522   1.370
 1703SOL    HW2 5766   0.960   3.634   1.475
 1704SOL     OW 5767   0.473   2.362   0.191
 1704SOL    HW1 5768   0.534   2.442   0.195
 1704SOL    HW2 5769   0.378   2.393   0.198
 1705SOL     OW 5770   0.159   2.999   1.466
 1705SOL    HW1 5771   0.181   2.938   1.542
 1705SOL    HW2 5772   0.169   2.950   1.380
 1706SOL     OW 5773   1.347   2.921   1.234
 1706SOL    HW1 5774   1.371   2.858   1.160
 1706SOL    HW2 5775   1.257   2.961   1.216
 1707SOL     OW 5776   1.302   2.717   0.309
 1707SOL    HW1 5777   1.216   2.686   0.351
 1707SOL    HW2 5778   1.298   2.703   0.210
 1708SOL     OW 5779   1.759   3.609   1.154
 1708SOL    HW1 5780   1.820   3.639   1.081
 1708SOL    HW2 5781   1.721   3.520   1.132
 1709SOL     OW 5782   1.252   3.593   1.128
 1709SOL    HW1 5783   1.336   3.598   1.074
 1709SOL    HW2 5784   1.229   3.497   1.146
 1710SOL     OW 5785   0.083   3.120   1.022
 1710SOL    HW1 5786   0.078   3.119   1.122
 1710SOL    HW2 5787   0.000   3.079   0.984
 1711SOL     OW 5788   0.688   3.524   1.716
 1711SOL    HW1 5789   0.632   3.605   1.725
 1711SOL    HW2 5790   0.740   3.528   1.630
 1712SOL     OW 5791   0.903   1.948   0.133
 1712SOL    HW1 5792   0.954   1.949   0.047
 1712SOL    HW2 5793   0.959   1.906   0.204
 1713SOL     OW 5794   1.726   1.997   0.523
 1713SOL    HW1 5795   1.799   1.980   0.456
 1713SOL    HW2 5796   1.695   1.910   0.561
 1714SOL     OW 5797   1.388   3.435   0.477
 1714SOL    HW1 5798   1.455   3.447   0.403
 1714SOL    HW2 5799   1.348   3.524   0.500
 1715SOL     OW 5800   0.130   3.656   1.851
 1715SOL    HW1 5801   0.089   3.582   1.904
 1715SOL    HW2 5802   0.194   3.707   1.909
 1716SOL     OW 5803   1.280   2.789   0.672
 1716SOL    HW1 5804   1.340   2.708   0.674
 1716SOL    HW2 5805   1.320   2.858   0.612
 1717SOL     OW 5806   0.830   3.135   1.422
 1717SOL    HW1 5807   0.825   3.168   1.517
 1717SOL    HW2 5808   0.744   3.154   1.376
 1718SOL     OW 5809   0.672   3.478   0.154
 1718SOL    HW1 5810   0.681   3.488   0.055
 1718SOL    HW2 5811   0.632   3.389   0.175
 1719SOL     OW 5812   1.650   3.582   1.394
 1719SOL    HW1 5813   1.703   3.592   1.310
 1719SOL    HW2 5814   1.623   3.672   1.428
 1720SOL     OW 5815   0.263   2.188   0.720
 1720SOL    HW1 5816   0.184   2.239   0.686
 1720SOL    HW2 5817   0.254   2.173   0.818
 1721SOL     OW 5818   1.194   3.474   0.031
 1721SOL    HW1 5819   1.200   3.381   0.068
 1721SOL    HW2 5820   1.135   3.474  -0.049
 1722SOL     OW 5821   0.822   2.864   1.372
 1722SOL    HW1 5822   0.862   2.863   1.280
 1722SOL    HW2 5823   0.832   2.956   1.412
 1723SOL     OW 5824   0.916   2.772   0.291
 1723SOL    HW1 5825   0.979   2.810   0.223
 1723SOL    HW2 5826   0.956   2.689   0.330
 1724SOL     OW 5827   1.504   3.469   0.044
 1724SOL    HW1 5828   1.412   3.506   0.051
 1724SOL    HW2 5829   1.542   3.489  -0.046
 1725SOL     OW 5830   0.372   3.150   1.490
 1725SOL    HW1 5831   0.359   3.243   1.456
 1725SOL    HW2 5832   0.288   3.098   1.477
 1726SOL     OW 5833   1.614   3.154   1.289
 1726SOL    HW1 5834   1.674   3.157   1.369
 1726SOL    HW2 5835   1.539   3.218   1.302
 1727SOL     OW 5836   1.039   2.960   0.696
 1727SOL    HW1 5837   0.969   2.913   0.750
 1727SOL    HW2 5838   1.098   2.892   0.653
 1728SOL     OW 5839   1.014   2.098   0.971
 1728SOL    HW1 5840   1.006   2.062   0.878
 1728SOL    HW2 5841   1.012   2.022   1.036
 1729SOL     OW 5842   0.590   3.349   0.491
 1729SOL    HW1 5843   0.632   3.291   0.421
 1729SOL    HW2 5844   0.546   3.428   0.447
 1730SOL     OW 5845   0.255   3.210   0.290
 1730SOL    HW1 5846   0.159   3.211   0.263
 1730SOL    HW2 5847   0.267   3.263   0.374
 1731SOL     OW 5848   0.105   2.875   1.726
 1731SOL    HW1 5849   0.028   2.842   1.780
 1731SOL    HW2 5850   0.190   2.845   1.768
 1732SOL     OW 5851   0.672   2.065   1.489
 1732SOL    HW1 5852   0.762   2.049   1.449
 1732SOL    HW2 5853   0.680   2.070   1.588
 1733SOL     OW 5854   0.075   2.207   0.033
 1733SOL    HW1 5855  -0.017   2.179   0.004
 1733SOL    HW2 5856   0.106   2.284  -0.023
 1734SOL     OW 5857   1.440   2.718   1.398
 1734SOL    HW1 5858   1.383   2.770   1.335
 1734SOL    HW2 5859   1.536   2.730   1.374
 1735SOL     OW 5860   0.072   2.028   0.318
 1735SOL    HW1 5861   0.055   2.111   0.264
 1735SOL    HW2 5862   0.162   1.991   0.296
 1736SOL     OW 5863   1.183   3.197   0.119
 1736SOL    HW1 5864   1.084   3.186   0.121
 1736SOL    HW2 5865   1.217   3.212   0.212
 1737SOL     OW 5866   0.613   2.704   1.431
 1737SOL    HW1 5867   0.669   2.785   1.414
 1737SOL    HW2 5868   0.672   2.624   1.434
 1738SOL     OW 5869   1.493   3.629   0.959
 1738SOL    HW1 5870   1.526   3.693   0.890
 1738SOL    HW2 5871   1.559   3.623   1.034
 1739SOL     OW 5872   0.716   2.427   1.708
 1739SOL    HW1 5873   0.735   2.492   1.782
 1739SOL    HW2 5874   0.776   2.347   1.717
 1740SOL     OW 5875   1.450   3.082   1.633
 1740SOL    HW1 5876   1.441   3.072   1.732
 1740SOL    HW2 5877   1.546   3.075   1.607
 1741SOL     OW 5878   0.390   3.603   1.560
 1741SOL    HW1 5879   0.299   3.644   1.558
 1741SOL    HW2 5880   0.383   3.509   1.592
 1742SOL     OW 5881   1.674   2.745   1.254
 1742SOL    HW1 5882   1.647   2.656   1.217
 1742SOL    HW2 5883   1.675   2.813   1.181
 1743SOL     OW 5884   1.225   2.187   0.449
 1743SOL    HW1 5885   1.290   2.113   0.438
 1743SOL    HW2 5886   1.245   2.237   0.533
 1744SOL     OW 5887   0.594   2.607   0.652
 1744SOL    HW1 5888   0.644   2.692   0.633
 1744SOL    HW2 5889   0.506   2.609   0.604
 1745SOL     OW 5890   1.730   2.796   1.517
 1745SOL    HW1 5891   1.768   2.887   1.532
 1745SOL    HW2 5892   1.722   2.779   1.418
 1746SOL     OW 5893   0.859   3.236   0.016
 1746SOL    HW1 5894   0.813   3.251   0.104
 1746SOL    HW2 5895   0.903   3.321  -0.014
 1747SOL     OW 5896   0.661   3.652   0.953
 1747SOL    HW1 5897   0.615   3.740   0.940
 1747SOL    HW2 5898   0.760   3.664   0.946
 1748SOL     OW 5899   0.859   2.818   0.861
 1748SOL    HW1 5900   0.913   2.749   0.909
 1748SOL    HW2 5901   0.827   2.887   0.927
 1749SOL     OW 5902   1.083   2.846   0.087
 1749SOL    HW1 5903   1.060   2.899   0.005
 1749SOL    HW2 5904   1.164   2.790   0.068
 1750SOL     OW 5905   1.861   3.431   0.851
 1750SOL    HW1 5906   1.790   3.419   0.781
 1750SOL    HW2 5907   1.862   3.352   0.911
 1751SOL     OW 5908   0.221   3.176   1.844
 1751SOL    HW1 5909   0.156   3.103   1.823
 1751SOL    HW2 5910   0.225   3.190   1.942
 1752SOL     OW 5911   0.079   3.102   0.653
 1752SOL    HW1 5912   0.078   3.055   0.741
 1752SOL    HW2 5913   0.161   3.074   0.602
 1753SOL     OW 5914   0.672   3.253   1.624
 1753SOL    HW1 5915   0.594   3.203   1.662
 1753SOL    HW2 5916   0.669   3.348   1.655
 1754SOL     OW 5917   0.428   2.286   0.520
 1754SOL    HW1 5918   0.458   2.214   0.458
 1754SOL    HW2 5919   0.389   2.246   0.603
 1755SOL     OW 5920   1.705   3.349   1.104
 1755SOL    HW1 5921   1.612   3.324   1.077
 1755SOL    HW2 5922   1.731   3.299   1.186
 1756SOL     OW 5923   0.317   2.409   1.280
 1756SOL    HW1 5924   0.355   2.350   1.352
 1756SOL    HW2 5925   0.357   2.383   1.192
 1757SOL     OW 5926   0.812   3.448   0.687
 1757SOL    HW1 5927   0.844   3.458   0.593
 1757SOL    HW2 5928   0.733   3.386   0.689
 1758SOL     OW 5929   1.424   2.076   1.112
 1758SOL    HW1 5930   1.476   2.011   1.167
 1758SOL    HW2 5931   1.375   2.139   1.173
 1759SOL     OW 5932   1.001   1.896   1.154
 1759SOL    HW1 5933   0.938   1.824   1.123
 1759SOL    HW2 5934   1.094   1.860   1.154
 1760SOL     OW 5935   0.770   3.192   0.301
 1760SOL    HW1 5936   0.724   3.105   0.318
 1760SOL    HW2 5937   0.861   3.189   0.342
 1761SOL     OW 5938   0.618   3.429   1.284
 1761SOL    HW1 5939   0.613   3.511   1.341
 1761SOL    HW2 5940   0.707   3.426   1.239
 1762SOL     OW 5941   1.352   1.914   0.168
 1762SOL    HW1 5942   1.387   1.873   0.084
 1762SOL    HW2 5943   1.262   1.876   0.188
 1763SOL     OW 5944   1.300   2.315   0.691
 1763SOL    HW1 5945   1.241   2.395   0.695
 1763SOL    HW2 5946   1.315   2.280   0.784
 1764SOL     OW 5947   1.593   2.083   0.882
 1764SOL    HW1 5948   1.509   2.082   0.936
 1764SOL    HW2 5949   1.595   2.166   0.826
 1765SOL     OW 5950   0.039   2.939   0.300
 1765SOL    HW1 5951   0.138   2.928   0.291
 1765SOL    HW2 5952  -0.001   2.853   0.332
 1766SOL     OW 5953   0.875   3.508   0.337
 1766SOL    HW1 5954   0.798   3.473   0.283
 1766SOL    HW2 5955   0.843   3.579   0.399
 1767SOL     OW 5956   0.230   2.490   1.975
 1767SOL    HW1 5957   0.137   2.488   2.012
 1767SOL    HW2 5958   0.231   2.451   1.883
 1768SOL     OW 5959   0.225   2.137   2.858
 1768SOL    HW1 5960   0.260   2.120   2.950
 1768SOL    HW2 5961   0.137   2.092   2.846
 1769SOL     OW 5962   0.019   2.230   2.509
 1769SOL    HW1 5963  -0.063   2.273   2.548
 1769SOL    HW2 5964  -0.009   2.157   2.446
 1770SOL     OW 5965   0.569   3.137   3.027
 1770SOL    HW1 5966   0.476   3.130   2.990
 1770SOL    HW2 5967   0.580   3.226   3.071
 1771SOL     OW 5968   1.555   3.373   2.565
 1771SOL    HW1 5969   1.498   3.357   2.646
 1771SOL    HW2 5970   1.496   3.383   2.485
 1772SOL     OW 5971   1.135   2.565   2.579
 1772SOL    HW1 5972   1.192   2.643   2.554
 1772SOL    HW2 5973   1.075   2.591   2.655
 1773SOL     OW 5974   1.755   2.469   2.093
 1773SOL    HW1 5975   1.743   2.456   1.994
 1773SOL    HW2 5976   1.725   2.388   2.142
 1774SOL     OW 5977   0.768   3.006   2.885
 1774SOL    HW1 5978   0.690   3.023   2.945
 1774SOL    HW2 5979   0.802   3.093   2.849
 1775SOL     OW 5980   0.850   2.660   3.685
 1775SOL    HW1 5981   0.846   2.736   3.750
 1775SOL    HW2 5982   0.872   2.696   3.594
 1776SOL     OW 5983   0.685   2.874   2.527
 1776SOL    HW1 5984   0.754   2.858   2.597
 1776SOL    HW2 5985   0.612   2.931   2.565
 1777SOL     OW 5986   0.686   3.023   3.665
 1777SOL    HW1 5987   0.746   3.102   3.679
 1777SOL    HW2 5988   0.600   3.054   3.624
 1778SOL     OW 5989   0.335   3.297   2.923
 1778SOL    HW1 5990   0.257   3.266   2.870
 1778SOL    HW2 5991   0.393   3.355   2.866
 1779SOL     OW 5992   1.460   3.367   3.201
 1779SOL    HW1 5993   1.484   3.461   3.227
 1779SOL    HW2 5994   1.444   3.313   3.283
 1780SOL     OW 5995   0.438   2.254   3.361
 1780SOL    HW1 5996   0.520   2.198   3.370
 1780SOL    HW2 5997   0.357   2.196   3.365
 1781SOL     OW 5998   1.603   2.309   2.599
 1781SOL    HW1 5999   1.529   2.355   2.549
 1781SOL    HW2 6000   1.654   2.377   2.652
 1782SOL     OW 6001   0.231   3.575   2.345
 1782SOL    HW1 6002   0.265   3.652   2.399
 1782SOL    HW2 6003   0.275   3.575   2.255
 1783SOL     OW 6004   1.127   3.203   3.552
 1783SOL    HW1 6005   1.174   3.203   3.640
 1783SOL    HW2 6006   1.079   3.116   3.541
 1784SOL     OW 6007   0.230   3.296   2.400
 1784SOL    HW1 6008   0.204   3.392   2.400
 1784SOL    HW2 6009   0.159   3.242   2.445
 1785SOL     OW 6010   0.240   2.953   2.748
 1785SOL    HW1 6011   0.254   2.869   2.800
 1785SOL    HW2 6012   0.185   3.017   2.803
 1786SOL     OW 6013   0.620   3.648   3.301
 1786SOL    HW1 6014   0.528   3.631   3.336
 1786SOL    HW2 6015   0.648   3.740   3.327
 1787SOL     OW 6016   0.606   2.826   1.985
 1787SOL    HW1 6017   0.613   2.910   1.931
 1787SOL    HW2 6018   0.652   2.839   2.073
 1788SOL     OW 6019   1.594   1.976   3.342
 1788SOL    HW1 6020   1.576   2.043   3.270
 1788SOL    HW2 6021   1.591   2.022   3.431
 1789SOL     OW 6022   0.122   2.505   2.425
 1789SOL    HW1 6023   0.077   2.417   2.442
 1789SOL    HW2 6024   0.121   2.559   2.509
 1790SOL     OW 6025   1.842   3.629   2.221
 1790SOL    HW1 6026   1.896   3.600   2.301
 1790SOL    HW2 6027   1.872   3.719   2.192
 1791SOL     OW 6028   0.027   3.458   1.979
 1791SOL    HW1 6029   0.008   3.362   2.000
 1791SOL    HW2 6030  -0.006   3.516   2.054
 1792SOL     OW 6031   1.689   2.784   2.474
 1792SOL    HW1 6032   1.784   2.755   2.482
 1792SOL    HW2 6033   1.681   2.849   2.399
 1793SOL     OW 6034   1.641   2.970   2.294
 1793SOL    HW1 6035   1.727   2.972   2.242
 1793SOL    HW2 6036   1.655   3.017   2.382
 1794SOL     OW 6037   0.113   2.599   3.459
 1794SOL    HW1 6038   0.201   2.586   3.504
 1794SOL    HW2 6039   0.100   2.696   3.437
 1795SOL     OW 6040   0.613   3.227   2.588
 1795SOL    HW1 6041   0.564   3.140   2.597
 1795SOL    HW2 6042   0.590   3.270   2.501
 1796SOL     OW 6043   1.293   3.090   3.285
 1796SOL    HW1 6044   1.330   3.017   3.227
 1796SOL    HW2 6045   1.345   3.095   3.370
 1797SOL     OW 6046   0.809   1.866   2.364
 1797SOL    HW1 6047   0.849   1.957   2.355
 1797SOL    HW2 6048   0.709   1.874   2.370
 1798SOL     OW 6049   0.197   2.838   3.126
 1798SOL    HW1 6050   0.286   2.793   3.112
 1798SOL    HW2 6051   0.124   2.773   3.107
 1799SOL     OW 6052   1.525   2.861   2.052
 1799SOL    HW1 6053   1.462   2.785   2.065
 1799SOL    HW2 6054   1.573   2.879   2.138
 1800SOL     OW 6055   1.187   3.654   3.478
 1800SOL    HW1 6056   1.211   3.714   3.402
 1800SOL    HW2 6057   1.194   3.559   3.448
 1801SOL     OW 6058   0.317   2.113   3.663
 1801SOL    HW1 6059   0.388   2.184   3.669
 1801SOL    HW2 6060   0.229   2.152   3.691
 1802SOL     OW 6061   1.466   3.279   2.815
 1802SOL    HW1 6062   1.407   3.285   2.895
 1802SOL    HW2 6063   1.451   3.191   2.769
 1803SOL     OW 6064   1.667   3.576   2.434
 1803SOL    HW1 6065   1.626   3.553   2.346
 1803SOL    HW2 6066   1.649   3.502   2.499
 1804SOL     OW 6067   0.598   2.591   2.132
 1804SOL    HW1 6068   0.622   2.660   2.064
 1804SOL    HW2 6069   0.520   2.624   2.186
 1805SOL     OW 6070   1.281   2.207   2.806
 1805SOL    HW1 6071   1.195   2.157   2.793
 1805SOL    HW2 6072   1.343   2.153   2.862
 1806SOL     OW 6073   1.576   3.524   2.169
 1806SOL    HW1 6074   1.665   3.570   2.172
 1806SOL    HW2 6075   1.555   3.500   2.074
 1807SOL     OW 6076   0.807   2.467   3.327
 1807SOL    HW1 6077   0.760   2.464   3.416
 1807SOL    HW2 6078   0.756   2.412   3.261
 1808SOL     OW 6079   1.394   2.331   3.536
 1808SOL    HW1 6080   1.374   2.374   3.624
 1808SOL    HW2 6081   1.472   2.269   3.545
 1809SOL     OW 6082   0.973   2.752   3.434
 1809SOL    HW1 6083   1.019   2.668   3.405
 1809SOL    HW2 6084   0.917   2.786   3.359
 1810SOL     OW 6085   0.991   2.272   3.104
 1810SOL    HW1 6086   0.914   2.306   3.158
 1810SOL    HW2 6087   0.957   2.221   3.025
 1811SOL     OW 6088   1.041   2.563   2.291
 1811SOL    HW1 6089   1.067   2.559   2.387
 1811SOL    HW2 6090   0.956   2.512   2.277
 1812SOL     OW 6091   0.076   2.673   2.651
 1812SOL    HW1 6092   0.175   2.661   2.660
 1812SOL    HW2 6093   0.052   2.768   2.672
 1813SOL     OW 6094   0.130   3.683   3.433
 1813SOL    HW1 6095   0.120   3.668   3.532
 1813SOL    HW2 6096   0.044   3.719   3.397
 1814SOL     OW 6097   0.865   2.210   2.057
 1814SOL    HW1 6098   0.924   2.273   2.008
 1814SOL    HW2 6099   0.884   2.116   2.028
 1815SOL     OW 6100   1.719   2.447   3.693
 1815SOL    HW1 6101   1.693   2.536   3.657
 1815SOL    HW2 6102   1.717   2.379   3.620
 1816SOL     OW 6103   1.362   3.006   2.407
 1816SOL    HW1 6104   1.445   2.977   2.359
 1816SOL    HW2 6105   1.313   3.073   2.351
 1817SOL     OW 6106   0.550   2.058   2.747
 1817SOL    HW1 6107   0.545   2.053   2.847
 1817SOL    HW2 6108   0.552   2.154   2.718
 1818SOL     OW 6109   1.008   3.318   2.339
 1818SOL    HW1 6110   0.962   3.390   2.287
 1818SOL    HW2 6111   1.004   3.338   2.437
 1819SOL     OW 6112   0.351   3.663   2.715
 1819SOL    HW1 6113   0.401   3.577   2.721
 1819SOL    HW2 6114   0.416   3.740   2.712
 1820SOL     OW 6115   1.795   2.928   2.735
 1820SOL    HW1 6116   1.733   2.913   2.659
 1820SOL    HW2 6117   1.743   2.939   2.820
 1821SOL     OW 6118   1.227   3.412   3.368
 1821SOL    HW1 6119   1.233   3.335   3.432
 1821SOL    HW2 6120   1.175   3.386   3.288
 1822SOL     OW 6121   0.321   2.805   2.104
 1822SOL    HW1 6122   0.403   2.844   2.062
 1822SOL    HW2 6123   0.294   2.723   2.055
 1823SOL     OW 6124   1.458   2.597   2.590
 1823SOL    HW1 6125   1.453   2.532   2.665
 1823SOL    HW2 6126   1.538   2.656   2.603
 1824SOL     OW 6127   0.461   3.128   3.589
 1824SOL    HW1 6128   0.411   3.129   3.503
 1824SOL    HW2 6129   0.398   3.110   3.665
 1825SOL     OW 6130   1.111   3.638   2.099
 1825SOL    HW1 6131   1.051   3.576   2.149
 1825SOL    HW2 6132   1.142   3.594   2.014
 1826SOL     OW 6133   0.202   2.147   3.360
 1826SOL    HW1 6134   0.122   2.207   3.347
 1826SOL    HW2 6135   0.192   2.098   3.446
 1827SOL     OW 6136   1.632   3.239   1.943
 1827SOL    HW1 6137   1.600   3.333   1.933
 1827SOL    HW2 6138   1.556   3.176   1.931
 1828SOL     OW 6139   0.464   3.605   2.185
 1828SOL    HW1 6140   0.497   3.644   2.271
 1828SOL    HW2 6141   0.540   3.598   2.120
 1829SOL     OW 6142   1.400   1.969   2.288
 1829SOL    HW1 6143   1.376   1.932   2.198
 1829SOL    HW2 6144   1.499   1.985   2.292
 1830SOL     OW 6145   0.249   3.647   3.103
 1830SOL    HW1 6146   0.306   3.582   3.153
 1830SOL    HW2 6147   0.233   3.614   3.010
 1831SOL     OW 6148   0.940   3.560   2.766
 1831SOL    HW1 6149   1.020   3.503   2.787
 1831SOL    HW2 6150   0.891   3.520   2.689
 1832SOL     OW 6151   0.382   2.562   2.342
 1832SOL    HW1 6152   0.427   2.472   2.339
 1832SOL    HW2 6153   0.288   2.551   2.375
 1833SOL     OW 6154   1.547   2.084   3.591
 1833SOL    HW1 6155   1.542   2.121   3.683
 1833SOL    HW2 6156   1.475   2.015   3.579
 1834SOL     OW 6157   0.614   1.984   1.979
 1834SOL    HW1 6158   0.712   1.962   1.986
 1834SOL    HW2 6159   0.583   1.967   1.886
 1835SOL     OW 6160   0.781   2.126   3.611
 1835SOL    HW1 6161   0.848   2.065   3.654
 1835SOL    HW2 6162   0.708   2.145   3.676
 1836SOL     OW 6163   0.888   3.376   3.057
 1836SOL    HW1 6164   0.865   3.351   2.963
 1836SOL    HW2 6165   0.949   3.307   3.096
 1837SOL     OW 6166   1.351   2.452   3.295
 1837SOL    HW1 6167   1.379   2.409   3.380
 1837SOL    HW2 6168   1.376   2.548   3.296
 1838SOL     OW 6169   0.803   3.264   2.786
 1838SOL    HW1 6170   0.893   3.278   2.744
 1838SOL    HW2 6171   0.732   3.266   2.715
 1839SOL     OW 6172   0.922   2.365   2.761
 1839SOL    HW1 6173   0.897   2.356   2.665
 1839SOL    HW2 6174   0.970   2.283   2.792
 1840SOL     OW 6175   0.539   1.926   2.374
 1840SOL    HW1 6176   0.458   1.927   2.432
 1840SOL    HW2 6177   0.542   2.009   2.319
 1841SOL     OW 6178   1.434   3.050   1.903
 1841SOL    HW1 6179   1.466   2.974   1.960
 1841SOL    HW2 6180   1.342   3.077   1.933
 1842SOL     OW 6181   0.297   1.897   2.033
 1842SOL    HW1 6182   0.346   1.981   2.012
 1842SOL    HW2 6183   0.359   1.832   2.078
 1843SOL     OW 6184   0.935   2.098   2.342
 1843SOL    HW1 6185   0.887   2.139   2.264
 1843SOL    HW2 6186   1.034   2.096   2.323
 1844SOL     OW 6187   1.076   2.545   3.326
 1844SOL    HW1 6188   0.996   2.484   3.329
 1844SOL    HW2 6189   1.157   2.492   3.302
 1845SOL     OW 6190   1.227   3.432   2.655
 1845SOL    HW1 6191   1.248   3.506   2.590
 1845SOL    HW2 6192   1.295   3.432   2.728
 1846SOL     OW 6193   0.459   3.014   2.603
 1846SOL    HW1 6194   0.388   2.987   2.668
 1846SOL    HW2 6195   0.433   2.986   2.510
 1847SOL     OW 6196   1.271   3.659   2.453
 1847SOL    HW1 6197   1.315   3.723   2.389
 1847SOL    HW2 6198   1.221   3.711   2.523
 1848SOL     OW 6199   1.032   2.411   1.878
 1848SOL    HW1 6200   0.991   2.493   1.839
 1848SOL    HW2 6201   1.096   2.437   1.951
 1849SOL     OW 6202   0.078   2.418   3.248
 1849SOL    HW1 6203   0.170   2.417   3.207
 1849SOL    HW2 6204   0.072   2.492   3.315
 1850SOL     OW 6205   0.561   2.084   3.009
 1850SOL    HW1 6206   0.599   2.000   3.046
 1850SOL    HW2 6207   0.473   2.103   3.053
 1851SOL     OW 6208   0.866   2.316   2.504
 1851SOL    HW1 6209   0.834   2.388   2.442
 1851SOL    HW2 6210   0.890   2.235   2.451
 1852SOL     OW 6211   1.017   1.901   2.615
 1852SOL    HW1 6212   0.945   1.906   2.546
 1852SOL    HW2 6213   0.993   1.832   2.684
 1853SOL     OW 6214   1.429   3.035   2.729
 1853SOL    HW1 6215   1.374   2.951   2.722
 1853SOL    HW2 6216   1.455   3.064   2.637
 1854SOL     OW 6217   1.466   2.452   2.854
 1854SOL    HW1 6218   1.436   2.357   2.861
 1854SOL    HW2 6219   1.539   2.468   2.920
 1855SOL     OW 6220   1.857   2.695   2.239
 1855SOL    HW1 6221   1.899   2.631   2.303
 1855SOL    HW2 6222   1.819   2.644   2.161
 1856SOL     OW 6223   0.488   3.247   2.036
 1856SOL    HW1 6224   0.401   3.232   2.083
 1856SOL    HW2 6225   0.471   3.273   1.941
 1857SOL     OW 6226   1.664   3.142   2.519
 1857SOL    HW1 6227   1.763   3.150   2.533
 1857SOL    HW2 6228   1.619   3.226   2.550
 1858SOL     OW 6229   1.390   2.437   1.940
 1858SOL    HW1 6230   1.336   2.416   2.021
 1858SOL    HW2 6231   1.481   2.396   1.949
 1859SOL     OW 6232   0.527   2.118   2.190
 1859SOL    HW1 6233   0.554   2.059   2.115
 1859SOL    HW2 6234   0.527   2.213   2.159
 1860SOL     OW 6235   1.754   3.085   3.450
 1860SOL    HW1 6236   1.845   3.046   3.437
 1860SOL    HW2 6237   1.762   3.181   3.474
 1861SOL     OW 6238   1.064   3.209   3.202
 1861SOL    HW1 6239   0.984   3.186   3.257
 1861SOL    HW2 6240   1.147   3.183   3.251
 1862SOL     OW 6241   1.592   3.491   3.487
 1862SOL    HW1 6242   1.619   3.525   3.397
 1862SOL    HW2 6243   1.671   3.453   3.533
 1863SOL     OW 6244   1.111   3.057   2.962
 1863SOL    HW1 6245   1.071   3.101   3.043
 1863SOL    HW2 6246   1.070   3.094   2.879
 1864SOL     OW 6247   1.638   2.961   2.941
 1864SOL    HW1 6248   1.643   3.042   3.000
 1864SOL    HW2 6249   1.552   2.963   2.890
 1865SOL     OW 6250   0.915   1.951   3.264
 1865SOL    HW1 6251   0.940   1.931   3.169
 1865SOL    HW2 6252   0.987   2.007   3.306
 1866SOL     OW 6253   0.980   2.978   3.581
 1866SOL    HW1 6254   0.881   2.984   3.591
 1866SOL    HW2 6255   1.003   2.898   3.525
 1867SOL     OW 6256   0.705   2.912   2.230
 1867SOL    HW1 6257   0.691   2.919   2.329
 1867SOL    HW2 6258   0.789   2.861   2.212
 1868SOL     OW 6259   0.410   2.675   3.113
 1868SOL    HW1 6260   0.496   2.687   3.163
 1868SOL    HW2 6261   0.368   2.588   3.140
 1869SOL     OW 6262   1.274   2.248   3.124
 1869SOL    HW1 6263   1.295   2.322   3.188
 1869SOL    HW2 6264   1.185   2.265   3.081
 1870SOL     OW 6265   0.064   3.426   3.193
 1870SOL    HW1 6266   0.018   3.508   3.159
 1870SOL    HW2 6267   0.162   3.445   3.202
 1871SOL     OW 6268   0.367   2.962   2.363
 1871SOL    HW1 6269   0.360   3.045   2.307
 1871SOL    HW2 6270   0.371   2.882   2.303
 1872SOL     OW 6271   0.566   2.399   2.727
 1872SOL    HW1 6272   0.578   2.465   2.653
 1872SOL    HW2 6273   0.612   2.433   2.810
 1873SOL     OW 6274   1.252   3.210   2.250
 1873SOL    HW1 6275   1.302   3.287   2.290
 1873SOL    HW2 6276   1.157   3.212   2.282
 1874SOL     OW 6277   1.272   3.307   3.004
 1874SOL    HW1 6278   1.319   3.320   3.091
 1874SOL    HW2 6279   1.206   3.233   3.013
 1875SOL     OW 6280   1.582   2.501   2.334
 1875SOL    HW1 6281   1.551   2.562   2.407
 1875SOL    HW2 6282   1.632   2.553   2.265
 1876SOL     OW 6283   0.354   3.372   3.191
 1876SOL    HW1 6284   0.333   3.328   3.104
 1876SOL    HW2 6285   0.451   3.398   3.194
 1877SOL     OW 6286   0.402   2.613   3.460
 1877SOL    HW1 6287   0.470   2.668   3.413
 1877SOL    HW2 6288   0.442   2.525   3.487
 1878SOL     OW 6289   1.587   2.641   3.532
 1878SOL    HW1 6290   1.495   2.679   3.527
 1878SOL    HW2 6291   1.647   2.688   3.467
 1879SOL     OW 6292   1.013   1.967   3.632
 1879SOL    HW1 6293   1.019   2.052   3.580
 1879SOL    HW2 6294   1.045   1.891   3.575
 1880SOL     OW 6295   0.504   1.912   3.602
 1880SOL    HW1 6296   0.462   1.855   3.532
 1880SOL    HW2 6297   0.438   1.981   3.634
 1881SOL     OW 6298   0.573   2.732   2.891
 1881SOL    HW1 6299   0.617   2.821   2.882
 1881SOL    HW2 6300   0.510   2.732   2.968
 1882SOL     OW 6301   1.360   2.724   2.907
 1882SOL    HW1 6302   1.285   2.724   2.841
 1882SOL    HW2 6303   1.397   2.632   2.916
 1883SOL     OW 6304   1.209   2.387   2.137
 1883SOL    HW1 6305   1.222   2.303   2.191
 1883SOL    HW2 6306   1.180   2.461   2.197
 1884SOL     OW 6307   0.307   2.075   3.093
 1884SOL    HW1 6308   0.284   2.112   3.183
 1884SOL    HW2 6309   0.277   1.980   3.087
 1885SOL     OW 6310   0.037   3.172   3.144
 1885SOL    HW1 6311   0.090   3.123   3.212
 1885SOL    HW2 6312   0.059   3.270   3.149
 1886SOL     OW 6313   0.732   2.496   2.926
 1886SOL    HW1 6314   0.791   2.470   2.850
 1886SOL    HW2 6315   0.704   2.592   2.915
 1887SOL     OW 6316   1.728   2.797   3.716
 1887SOL    HW1 6317   1.682   2.790   3.627
 1887SOL    HW2 6318   1.666   2.841   3.782
 1888SOL     OW 6319   0.307   1.925   2.480
 1888SOL    HW1 6320   0.296   2.019   2.513
 1888SOL    HW2 6321   0.302   1.862   2.557
 1889SOL     OW 6322   1.622   2.229   2.236
 1889SOL    HW1 6323   1.624   2.153   2.300
 1889SOL    HW2 6324   1.574   2.306   2.276
 1890SOL     OW 6325   1.023   2.628   2.828
 1890SOL    HW1 6326   1.038   2.649   2.924
 1890SOL    HW2 6327   0.993   2.533   2.819
 1891SOL     OW 6328   0.980   3.435   3.562
 1891SOL    HW1 6329   0.960   3.479   3.474
 1891SOL    HW2 6330   1.019   3.344   3.546
 1892SOL     OW 6331   1.859   3.380   3.467
 1892SOL    HW1 6332   1.873   3.407   3.372
 1892SOL    HW2 6333   1.942   3.402   3.520
 1893SOL     OW 6334   0.350   2.760   3.666
 1893SOL    HW1 6335   0.426   2.804   3.714
 1893SOL    HW2 6336   0.385   2.713   3.584
 1894SOL     OW 6337   1.540   2.136   1.987
 1894SOL    HW1 6338   1.479   2.061   2.010
 1894SOL    HW2 6339   1.562   2.188   2.070
 1895SOL     OW 6340   1.303   2.700   1.904
 1895SOL    HW1 6341   1.337   2.607   1.919
 1895SOL    HW2 6342   1.321   2.727   1.809
 1896SOL     OW 6343   1.068   3.195   2.711
 1896SOL    HW1 6344   1.075   3.111   2.656
 1896SOL    HW2 6345   1.130   3.264   2.675
 1897SOL     OW 6346   0.319   2.672   2.811
 1897SOL    HW1 6347   0.412   2.708   2.816
 1897SOL    HW2 6348   0.313   2.587   2.863
 1898SOL     OW 6349   0.339   2.371   2.868
 1898SOL    HW1 6350   0.287   2.288   2.851
 1898SOL    HW2 6351   0.416   2.376   2.804
 1899SOL     OW 6352   1.138   2.242   3.540
 1899SOL    HW1 6353   1.093   2.305   3.604
 1899SOL    HW2 6354   1.231   2.273   3.523
 1900SOL     OW 6355   1.160   2.069   3.339
 1900SOL    HW1 6356   1.160   2.133   3.416
 1900SOL    HW2 6357   1.188   2.117   3.256
 1901SOL     OW 6358   0.008   3.188   2.062
 1901SOL    HW1 6359  -0.085   3.209   2.031
 1901SOL    HW2 6360   0.018   3.089   2.075
 1902SOL     OW 6361   0.088   3.663   2.789
 1902SOL    HW1 6362   0.046   3.577   2.762
 1902SOL    HW2 6363   0.182   3.666   2.755
 1903SOL     OW 6364   0.504   3.430   2.772
 1903SOL    HW1 6365   0.570   3.504   2.781
 1903SOL    HW2 6366   0.548   3.351   2.730
 1904SOL     OW 6367   1.002   2.658   3.100
 1904SOL    HW1 6368   1.043   2.626   3.186
 1904SOL    HW2 6369   0.906   2.631   3.097
 1905SOL     OW 6370   0.040   2.406   2.976
 1905SOL    HW1 6371   0.125   2.373   2.935
 1905SOL    HW2 6372   0.053   2.421   3.074
 1906SOL     OW 6373   0.189   2.382   3.584
 1906SOL    HW1 6374   0.248   2.342   3.514
 1906SOL    HW2 6375   0.131   2.453   3.543
 1907SOL     OW 6376   1.369   2.812   3.522
 1907SOL    HW1 6377   1.408   2.901   3.542
 1907SOL    HW2 6378   1.379   2.792   3.425
 1908SOL     OW 6379   0.815   2.434   2.187
 1908SOL    HW1 6380   0.822   2.345   2.141
 1908SOL    HW2 6381   0.721   2.468   2.179
 1909SOL     OW 6382   1.657   2.466   3.068
 1909SOL    HW1 6383   1.619   2.397   3.130
 1909SOL    HW2 6384   1.739   2.430   3.024
 1910SOL     OW 6385   0.252   3.426   3.606
 1910SOL    HW1 6386   0.222   3.483   3.682
 1910SOL    HW2 6387   0.245   3.329   3.632
 1911SOL     OW 6388   0.671   2.326   3.131
 1911SOL    HW1 6389   0.637   2.237   3.101
 1911SOL    HW2 6390   0.697   2.380   3.051
 1912SOL     OW 6391   0.930   3.540   3.327
 1912SOL    HW1 6392   0.906   3.522   3.232
 1912SOL    HW2 6393   0.960   3.634   3.337
 1913SOL     OW 6394   0.473   2.362   2.053
 1913SOL    HW1 6395   0.534   2.442   2.057
 1913SOL    HW2 6396   0.378   2.393   2.060
 1914SOL     OW 6397   0.159   2.999   3.328
 1914SOL    HW1 6398   0.181   2.938   3.404
 1914SOL    HW2 6399   0.169   2.950   3.242
 1915SOL     OW 6400   1.347   2.921   3.096
 1915SOL    HW1 6401   1.371   2.858   3.022
 1915SOL    HW2 6402   1.257   2.961   3.078
 1916SOL     OW 6403   1.302   2.717   2.171
 1916SOL    HW1 6404   1.216   2.686   2.213
 1916SOL    HW2 6405   1.298   2.703   2.072
 1917SOL     OW 6406   1.759   3.609   3.016
 1917SOL    HW1 6407   1.820   3.639   2.943
 1917SOL    HW2 6408   1.721   3.520   2.994
 1918SOL     OW 6409   1.252   3.593   2.990
 1918SOL    HW1 6410   1.336   3.598   2.936
 1918SOL    HW2 6411   1.229   3.497   3.008
 1919SOL     OW 6412   0.083   3.120   2.884
 1919SOL    HW1 6413   0.078   3.119   2.984
 1919SOL    HW2 6414   0.000   3.079   2.846
 1920SOL     OW 6415   0.688   3.524   3.578
 1920SOL    HW1 6416   0.632   3.605   3.587
 1920SOL    HW2 6417   0.740   3.528   3.492
 1921SOL     OW 6418   1.726   1.997   2.385
 1921SOL    HW1 6419   1.799   1.980   2.318
 1921SOL    HW2 6420   1.695   1.910   2.423
 1922SOL     OW 6421   1.388   3.435   2.339
 1922SOL    HW1 6422   1.455   3.447   2.265
 1922SOL    HW2 6423   1.348   3.524   2.362
 1923SOL     OW 6424   0.130   3.656   3.713
 1923SOL    HW1 6425   0.089   3.582   3.766
 1923SOL    HW2 6426   0.194   3.707   3.771
 1924SOL     OW 6427   1.280   2.789   2.534
 1924SOL    HW1 6428   1.340   2.708   2.536
 1924SOL    HW2 6429   1.320   2.858   2.474
 1925SOL     OW 6430   0.830   3.135   3.284
 1925SOL    HW1 6431   0.825   3.168   3.379
 1925SOL    HW2 6432   0.744   3.154   3.238
 1926SOL     OW 6433   0.672   3.478   2.016
 1926SOL    HW1 6434   0.681   3.488   1.917
 1926SOL    HW2 6435   0.632   3.389   2.037
 1927SOL     OW 6436   1.650   3.582   3.256
 1927SOL    HW1 6437   1.703   3.592   3.172
 1927SOL    HW2 6438   1.623   3.672   3.290
 1928SOL     OW 6439   0.263   2.188   2.582
 1928SOL    HW1 6440   0.184   2.239   2.548
 1928SOL    HW2 6441   0.254   2.173   2.680
 1929SOL     OW 6442   1.194   3.474   1.893
 1929SOL    HW1 6443   1.200   3.381   1.930
 1929SOL    HW2 6444   1.135   3.474   1.813
 1930SOL     OW 6445   0.822   2.864   3.234
 1930SOL    HW1 6446   0.862   2.863   3.142
 1930SOL    HW2 6447   0.832   2.956   3.274
 1931SOL     OW 6448   0.916   2.772   2.153
 1931SOL    HW1 6449   0.979   2.810   2.085
 1931SOL    HW2 6450   0.956   2.689   2.192
 1932SOL     OW 6451   1.504   3.469   1.906
 1932SOL    HW1 6452   1.412   3.506   1.913
 1932SOL    HW2 6453   1.542   3.489   1.816
 1933SOL     OW 6454   0.372   3.150   3.352
 1933SOL    HW1 6455   0.359   3.243   3.318
 1933SOL    HW2 6456   0.288   3.098   3.339
 1934SOL     OW 6457   1.614   3.154   3.151
 1934SOL    HW1 6458   1.674   3.157   3.231
 1934SOL    HW2 6459   1.539   3.218   3.164
 1935SOL     OW 6460   1.039   2.960   2.558
 1935SOL    HW1 6461   0.969   2.913   2.612
 1935SOL    HW2 6462   1.098   2.892   2.515
 1936SOL     OW 6463   1.014   2.098   2.833
 1936SOL    HW1 6464   1.006   2.062   2.740
 1936SOL    HW2 6465   1.012   2.022   2.898
 1937SOL     OW 6466   0.590   3.349   2.353
 1937SOL    HW1 6467   0.632   3.291   2.283
 1937SOL    HW2 6468   0.546   3.428   2.309
 1938SOL     OW 6469   0.255   3.210   2.152
 1938SOL    HW1 6470   0.159   3.211   2.125
 1938SOL    HW2 6471   0.267   3.263   2.236
 1939SOL     OW 6472   0.105   2.875   3.588
 1939SOL    HW1 6473   0.028   2.842   3.642
 1939SOL    HW2 6474   0.190   2.845   3.630
 1940SOL     OW 6475   0.672   2.065   3.351
 1940SOL    HW1 6476   0.762   2.049   3.311
 1940SOL    HW2 6477   0.680   2.070   3.450
 1941SOL     OW 6478   0.075   2.207   1.895
 1941SOL    HW1 6479  -0.017   2.179   1.866
 1941SOL    HW2 6480   0.106   2.284   1.839
 1942SOL     OW 6481   1.440   2.718   3.260
 1942SOL    HW1 6482   1.383   2.770   3.197
 1942SOL    HW2 6483   1.536   2.730   3.236
 1943SOL     OW 6484   0.072   2.028   2.180
 1943SOL    HW1 6485   0.055   2.111   2.126
 1943SOL    HW2 6486   0.162   1.991   2.158
 1944SOL     OW 6487   1.183   3.197   1.981
 1944SOL    HW1 6488   1.084   3.186   1.983
 1944SOL    HW2 6489   1.217   3.212   2.074
 1945SOL     OW 6490   0.613   2.704   3.293
 1945SOL    HW1 6491   0.669   2.785   3.276
 1945SOL    HW2 6492   0.672   2.624   3.296
 1946SOL     OW 6493   1.493   3.629   2.821
 1946SOL    HW1 6494   1.526   3.693   2.752
 1946SOL    HW2 6495   1.559   3.623   2.896
 1947SOL     OW 6496   0.716   2.427   3.570
 1947SOL    HW1 6497   0.735   2.492   3.644
 1947SOL    HW2 6498   0.776   2.347   3.579
 1948SOL     OW 6499   1.450   3.082   3.495
 1948SOL    HW1 6500   1.441   3.072   3.594
 1948SOL    HW2 6501   1.546   3.075   3.469
 1949SOL     OW 6502   0.390   3.603   3.422
 1949SOL    HW1 6503   0.299   3.644   3.420
 1949SOL    HW2 6504   0.383   3.509   3.454
 1950SOL     OW 6505   1.674   2.745   3.116
 1950SOL    HW1 6506   1.647   2.656   3.079
 1950SOL    HW2 6507   1.675   2.813   3.043
 1951SOL     OW 6508   1.225   2.187   2.311
 1951SOL    HW1 6509   1.290   2.113   2.300
 1951SOL    HW2 6510   1.245   2.237   2.395
 1952SOL     OW 6511   0.594   2.607   2.514
 1952SOL    HW1 6512   0.644   2.692   2.495
 1952SOL    HW2 6513   0.506   2.609   2.466
 1953SOL     OW 6514   1.730   2.796   3.379
 1953SOL    HW1 6515   1.768   2.887   3.394
 1953SOL    HW2 6516   1.722   2.779   3.280
 1954SOL     OW 6517   0.859   3.236   1.878
 1954SOL    HW1 6518   0.813   3.251   1.966
 1954SOL    HW2 6519   0.903   3.321   1.848
 1955SOL     OW 6520   0.661   3.652   2.815
 1955SOL    HW1 6521   0.615   3.740   2.802
 1955SOL    HW2 6522   0.760   3.664   2.808
 1956SOL     OW 6523   0.859   2.818   2.723
 1956SOL    HW1 6524   0.913   2.749   2.771
 1956SOL    HW2 6525   0.827   2.887   2.789
 1957SOL     OW 6526   1.083   2.846   1.949
 1957SOL    HW1 6527   1.060   2.899   1.867
 1957SOL    HW2 6528   1.164   2.790   1.930
 1958SOL     OW 6529   1.861   3.431   2.713
 1958SOL    HW1 6530   1.790   3.419   2.643
 1958SOL    HW2 6531   1.862   3.352   2.773
 1959SOL     OW 6532   0.221   3.176   3.706
 1959SOL    HW1 6533   0.156   3.103   3.685
 1959SOL    HW2 6534   0.225   3.190   3.804
 1960SOL     OW 6535   0.079   3.102   2.515
 1960SOL    HW1 6536   0.078   3.055   2.603
 1960SOL    HW2 6537   0.161   3.074   2.464
 1961SOL     OW 6538   0.672   3.253   3.486
 1961SOL    HW1 6539   0.594   3.203   3.524
 1961SOL    HW2 6540   0.669   3.348   3.517
 1962SOL     OW 6541   0.428   2.286   2.382
 1962SOL    HW1 6542   0.458   2.214   2.320
 1962SOL    HW2 6543   0.389   2.246   2.465
 1963SOL     OW 6544   1.705   3.349   2.966
 1963SOL    HW1 6545   1.612   3.324   2.939
 1963SOL    HW2 6546   1.731   3.299   3.048
 1964SOL     OW 6547   0.317   2.409   3.142
 1964SOL    HW1 6548   0.355   2.350   3.214
 1964SOL    HW2 6549   0.357   2.383   3.054
 1965SOL     OW 6550   0.812   3.448   2.549
 1965SOL    HW1 6551   0.844   3.458   2.455
 1965SOL    HW2 6552   0.733   3.386   2.551
 1966SOL     OW 6553   1.424   2.076   2.974
 1966SOL    HW1 6554   1.476   2.011   3.029
 1966SOL    HW2 6555   1.375   2.139   3.035
 1967SOL     OW 6556   1.001   1.896   3.016
 1967SOL    HW1 6557   0.938   1.824   2.985
 1967SOL    HW2 6558   1.094   1.860   3.016
 1968SOL     OW 6559   0.770   3.192   2.163
 1968SOL    HW1 6560   0.724   3.105   2.180
 1968SOL    HW2 6561   0.861   3.189   2.204
 1969SOL     OW 6562   0.618   3.429   3.146
 1969SOL    HW1 6563   0.613   3.511   3.203
 1969SOL    HW2 6564   0.707   3.426   3.101
 1970SOL     OW 6565   1.352   1.914   2.030
 1970SOL    HW1 6566   1.387   1.873   1.946
 1970SOL    HW2 6567   1.262   1.876   2.050
 1971SOL     OW 6568   1.300   2.315   2.553
 1971SOL    HW1 6569   1.241   2.395   2.557
 1971SOL    HW2 6570   1.315   2.280   2.646
 1972SOL     OW 6571   1.593   2.083   2.744
 1972SOL    HW1 6572   1.509   2.082   2.798
 1972SOL    HW2 6573   1.595   2.166   2.688
 1973SOL     OW 6574   0.039   2.939   2.162
 1973SOL    HW1 6575   0.138   2.928   2.153
 1973SOL    HW2 6576  -0.001   2.853   2.194
 1974SOL     OW 6577   0.875   3.508   2.199
 1974SOL    HW1 6578   0.798   3.473   2.145
 1974SOL    HW2 6579   0.843   3.579   2.261
 1975SOL     OW 6580   0.230   2.490   3.837
 1975SOL    HW1 6581   0.137   2.488   3.874
 1975SOL    HW2 6582   0.231   2.451   3.745
 1976SOL     OW 6583   0.225   2.137   4.720
 1976SOL    HW1 6584   0.260   2.120   4.812
 1976SOL    HW2 6585   0.137   2.092   4.708
 1977SOL     OW 6586   0.019   2.230   4.371
 1977SOL    HW1 6587  -0.063   2.273   4.410
 1977SOL    HW2 6588  -0.009   2.157   4.308
 1978SOL     OW 6589   0.569   3.137   4.889
 1978SOL    HW1 6590   0.476   3.130   4.852
 1978SOL    HW2 6591   0.580   3.226   4.933
 1979SOL     OW 6592   1.555   3.373   4.427
 1979SOL    HW1 6593   1.498   3.357   4.508
 1979SOL    HW2 6594   1.496   3.383   4.347
 1980SOL     OW 6595   1.135   2.565   4.441
 1980SOL    HW1 6596   1.192   2.643   4.416
 1980SOL    HW2 6597   1.075   2.591   4.517
 1981SOL     OW 6598   1.755   2.469   3.955
 1981SOL    HW1 6599   1.743   2.456   3.856
 1981SOL    HW2 6600   1.725   2.388   4.004
 1982SOL     OW 6601   0.768   3.006   4.747
 1982SOL    HW1 6602   0.690   3.023   4.807
 1982SOL    HW2 6603   0.802   3.093   4.711
 1983SOL     OW 6604   0.850   2.660   5.547
 1983SOL    HW1 6605   0.846   2.736   5.612
 1983SOL    HW2 6606   0.872   2.696   5.456
 1984SOL     OW 6607   0.685   2.874   4.389
 1984SOL    HW1 6608   0.754   2.858   4.459
 1984SOL    HW2 6609   0.612   2.931   4.427
 1985SOL     OW 6610   0.686   3.023   5.527
 1985SOL    HW1 6611   0.746   3.102   5.541
 1985SOL    HW2 6612   0.600   3.054   5.486
 1986SOL     OW 6613   0.335   3.297   4.785
 1986SOL    HW1 6614   0.257   3.266   4.732
 1986SOL    HW2 6615   0.393   3.355   4.728
 1987SOL     OW 6616   1.460   3.367   5.063
 1987SOL    HW1 6617   1.484   3.461   5.089
 1987SOL    HW2 6618   1.444   3.313   5.145
 1988SOL     OW 6619   0.438   2.254   5.223
 1988SOL    HW1 6620   0.520   2.198   5.232
 1988SOL    HW2 6621   0.357   2.196   5.227
 1989SOL     OW 6622   1.603   2.309   4.461
 1989SOL    HW1 6623   1.529   2.355   4.411
 1989SOL    HW2 6624   1.654   2.377   4.514
 1990SOL     OW 6625   0.231   3.575   4.207
 1990SOL    HW1 6626   0.265   3.652   4.261
 1990SOL    HW2 6627   0.275   3.575   4.117
 1991SOL     OW 6628   1.127   3.203   5.414
 1991SOL    HW1 6629   1.174   3.203   5.502
 1991SOL    HW2 6630   1.079   3.116   5.403
 1992SOL     OW 6631   0.230   3.296   4.262
 1992SOL    HW1 6632   0.204   3.392   4.262
 1992SOL    HW2 6633   0.159   3.242   4.307
 1993SOL     OW 6634   0.240   2.953   4.610
 1993SOL    HW1 6635   0.254   2.869   4.662
 1993SOL    HW2 6636   0.185   3.017   4.665
 1994SOL     OW 6637   0.620   3.648   5.163
 1994SOL    HW1 6638   0.528   3.631   5.198
 1994SOL    HW2 6639   0.648   3.740   5.189
 1995SOL     OW 6640   0.606   2.826   3.847
 1995SOL    HW1 6641   0.613   2.910   3.793
 1995SOL    HW2 6642   0.652   2.839   3.935
 1996SOL     OW 6643   1.594   1.976   5.204
 1996SOL    HW1 6644   1.576   2.043   5.132
 1996SOL    HW2 6645   1.591   2.022   5.293
 1997SOL     OW 6646   0.122   2.505   4.287
 1997SOL    HW1 6647   0.077   2.417   4.304
 1997SOL    HW2 6648   0.121   2.559   4.371
 1998SOL     OW 6649   1.842   3.629   4.083
 1998SOL    HW1 6650   1.896   3.600   4.163
 1998SOL    HW2 6651   1.872   3.719   4.054
 1999SOL     OW 6652   0.027   3.458   3.841
 1999SOL    HW1 6653   0.008   3.362   3.862
 1999SOL    HW2 6654  -0.006   3.516   3.916
 2000SOL     OW 6655   1.689   2.784   4.336
 2000SOL    HW1 6656   1.784   2.755   4.344
 2000SOL    HW2 6657   1.681   2.849   4.261
 2001SOL     OW 6658   1.641   2.970   4.156
 2001SOL    HW1 6659   1.727   2.972   4.104
 2001SOL    HW2 6660   1.655   3.017   4.244
 2002SOL     OW 6661   0.113   2.599   5.321
 2002SOL    HW1 6662   0.201   2.586   5.366
 2002SOL    HW2 6663   0.100   2.696   5.299
 2003SOL     OW 6664   0.613   3.227   4.450
 2003SOL    HW1 6665   0.564   3.140   4.459
 2003SOL    HW2 6666   0.590   3.270   4.363
 2004SOL     OW 6667   1.293   3.090   5.147
 2004SOL    HW1 6668   1.330   3.017   5.089
 2004SOL    HW2 6669   1.345   3.095   5.232
 2005SOL     OW 6670   0.809   1.866   4.226
 2005SOL    HW1 6671   0.849   1.957   4.217
 2005SOL    HW2 6672   0.709   1.874   4.232
 2006SOL     OW 6673   0.197   2.838   4.988
 2006SOL    HW1 6674   0.286   2.793   4.974
 2006SOL    HW2 6675   0.124   2.773   4.969
 2007SOL     OW 6676   1.525   2.861   3.914
 2007SOL    HW1 6677   1.462   2.785   3.927
 2007SOL    HW2 6678   1.573   2.879   4.000
 2008SOL     OW 6679   1.187   3.654   5.340
 2008SOL    HW1 6680   1.211   3.714   5.264
 2008SOL    HW2 6681   1.194   3.559   5.310
 2009SOL     OW 6682   0.317   2.113   5.525
 2009SOL    HW1 6683   0.388   2.184   5.531
 2009SOL    HW2 6684   0.229   2.152   5.553
 2010SOL     OW 6685   1.466   3.279   4.677
 2010SOL    HW1 6686   1.407   3.285   4.757
 2010SOL    HW2 6687   1.451   3.191   4.631
 2011SOL     OW 6688   1.667   3.576   4.296
 2011SOL    HW1 6689   1.626   3.553   4.208
 2011SOL    HW2 6690   1.649   3.502   4.361
 2012SOL     OW 6691   0.598   2.591   3.994
 2012SOL    HW1 6692   0.622   2.660   3.926
 2012SOL    HW2 6693   0.520   2.624   4.048
 2013SOL     OW 6694   1.281   2.207   4.668
 2013SOL    HW1 6695   1.195   2.157   4.655
 2013SOL    HW2 6696   1.343   2.153   4.724
 2014SOL     OW 6697   1.576   3.524   4.031
 2014SOL    HW1 6698   1.665   3.570   4.034
 2014SOL    HW2 6699   1.555   3.500   3.936
 2015SOL     OW 6700   0.807   2.467   5.189
 2015SOL    HW1 6701   0.760   2.464   5.278
 2015SOL    HW2 6702   0.756   2.412   5.123
 2016SOL     OW 6703   1.394   2.331   5.398
 2016SOL    HW1 6704   1.374   2.374   5.486
 2016SOL    HW2 6705   1.472   2.269   5.407
 2017SOL     OW 6706   0.973   2.752   5.296
 2017SOL    HW1 6707   1.019   2.668   5.267
 2017SOL    HW2 6708   0.917   2.786   5.221
 2018SOL     OW 6709   0.991   2.272   4.966
 2018SOL    HW1 6710   0.914   2.306   5.020
 2018SOL    HW2 6711   0.957   2.221   4.887
 2019SOL     OW 6712   1.041   2.563   4.153
 2019SOL    HW1 6713   1.067   2.559   4.249
 2019SOL    HW2 6714   0.956   2.512   4.139
 2020SOL     OW 6715   0.076   2.673   4.513
 2020SOL    HW1 6716   0.175   2.661   4.522
 2020SOL    HW2 6717   0.052   2.768   4.534
 2021SOL     OW 6718   0.130   3.683   5.295
 2021SOL    HW1 6719   0.120   3.668   5.394
 2021SOL    HW2 6720   0.044   3.719   5.259
 2022SOL     OW 6721   0.865   2.210   3.919
 2022SOL    HW1 6722   0.924   2.273   3.870
 2022SOL    HW2 6723   0.884   2.116   3.890
 2023SOL     OW 6724   1.719   2.447   5.555
 2023SOL    HW1 6725   1.693   2.536   5.519
 2023SOL    HW2 6726   1.717   2.379   5.482
 2024SOL     OW 6727   1.362   3.006   4.269
 2024SOL    HW1 6728   1.445   2.977   4.221
 2024SOL    HW2 6729   1.313   3.073   4.213
 2025SOL     OW 6730   0.550   2.058   4.609
 2025SOL    HW1 6731   0.545   2.053   4.709
 2025SOL    HW2 6732   0.552   2.154   4.580
 2026SOL     OW 6733   1.008   3.318   4.201
 2026SOL    HW1 6734   0.962   3.390   4.149
 2026SOL    HW2 6735   1.004   3.338   4.299
 2027SOL     OW 6736   0.351   3.663   4.577
 2027SOL    HW1 6737   0.401   3.577   4.583
 2027SOL    HW2 6738   0.416   3.740   4.574
 2028SOL     OW 6739   1.795   2.928   4.597
 2028SOL    HW1 6740   1.733   2.913   4.521
 2028SOL    HW2 6741   1.743   2.939   4.682
 2029SOL     OW 6742   1.227   3.412   5.230
 2029SOL    HW1 6743   1.233   3.335   5.294
 2029SOL    HW2 6744   1.175   3.386   5.150
 2030SOL     OW 6745   0.321   2.805   3.966
 2030SOL    HW1 6746   0.403   2.844   3.924
 2030SOL    HW2 6747   0.294   2.723   3.917
 2031SOL     OW 6748   1.458   2.597   4.452
 2031SOL    HW1 6749   1.453   2.532   4.527
 2031SOL    HW2 6750   1.538   2.656   4.465
 2032SOL     OW 6751   0.461   3.128   5.451
 2032SOL    HW1 6752   0.411   3.129   5.365
 2032SOL    HW2 6753   0.398   3.110   5.527
 2033SOL     OW 6754   1.111   3.638   3.961
 2033SOL    HW1 6755   1.051   3.576   4.011
 2033SOL    HW2 6756   1.142   3.594   3.876
 2034SOL     OW 6757   0.202   2.147   5.222
 2034SOL    HW1 6758   0.122   2.207   5.209
 2034SOL    HW2 6759   0.192   2.098   5.308
 2035SOL     OW 6760   1.632   3.239   3.805
 2035SOL    HW1 6761   1.600   3.333   3.795
 2035SOL    HW2 6762   1.556   3.176   3.793
 2036SOL     OW 6763   0.464   3.605   4.047
 2036SOL    HW1 6764   0.497   3.644   4.133
 2036SOL    HW2 6765   0.540   3.598   3.982
 2037SOL     OW 6766   1.400   1.969   4.150
 2037SOL    HW1 6767   1.376   1.932   4.060
 2037SOL    HW2 6768   1.499   1.985   4.154
 2038SOL     OW 6769   0.249   3.647   4.965
 2038SOL    HW1 6770   0.306   3.582   5.015
 2038SOL    HW2 6771   0.233   3.614   4.872
 2039SOL     OW 6772   0.940   3.560   4.628
 2039SOL    HW1 6773   1.020   3.503   4.649
 2039SOL    HW2 6774   0.891   3.520   4.551
 2040SOL     OW 6775   0.382   2.562   4.204
 2040SOL    HW1 6776   0.427   2.472   4.201
 2040SOL    HW2 6777   0.288   2.551   4.237
 2041SOL     OW 6778   1.547   2.084   5.453
 2041SOL    HW1 6779   1.542   2.121   5.545
 2041SOL    HW2 6780   1.475   2.015   5.441
 2042SOL     OW 6781   0.614   1.984   3.841
 2042SOL    HW1 6782   0.712   1.962   3.848
 2042SOL    HW2 6783   0.583   1.967   3.748
 2043SOL     OW 6784   0.781   2.126   5.473
 2043SOL    HW1 6785   0.848   2.065   5.516
 2043SOL    HW2 6786   0.708   2.145   5.538
 2044SOL     OW 6787   0.888   3.376   4.919
 2044SOL    HW1 6788   0.865   3.351   4.825
 2044SOL    HW2 6789   0.949   3.307   4.958
 2045SOL     OW 6790   1.351   2.452   5.157
 2045SOL    HW1 6791   1.379   2.409   5.242
 2045SOL    HW2 6792   1.376   2.548   5.158
 2046SOL     OW 6793   0.803   3.264   4.648
 2046SOL    HW1 6794   0.893   3.278   4.606
 2046SOL    HW2 6795   0.732   3.266   4.577
 2047SOL     OW 6796   0.922   2.365   4.623
 2047SOL    HW1 6797   0.897   2.356   4.527
 2047SOL    HW2 6798   0.970   2.283   4.654
 2048SOL     OW 6799   0.539   1.926   4.236
 2048SOL    HW1 6800   0.458   1.927   4.294
 2048SOL    HW2 6801   0.542   2.009   4.181
 2049SOL     OW 6802   1.434   3.050   3.765
 2049SOL    HW1 6803   1.466   2.974   3.822
 2049SOL    HW2 6804   1.342   3.077   3.795
 2050SOL     OW 6805   0.297   1.897   3.895
 2050SOL    HW1 6806   0.346   1.981   3.874
 2050SOL    HW2 6807   0.359   1.832   3.940
 2051SOL     OW 6808   0.935   2.098   4.204
 2051SOL    HW1 6809   0.887   2.139   4.126
 2051SOL    HW2 6810   1.034   2.096   4.185
 2052SOL     OW 6811   1.076   2.545   5.188
 2052SOL    HW1 6812   0.996   2.484   5.191
 2052SOL    HW2 6813   1.157   2.492   5.164
 2053SOL     OW 6814   1.227   3.432   4.517
 2053SOL    HW1 6815   1.248   3.506   4.452
 2053SOL    HW2 6816   1.295   3.432   4.590
 2054SOL     OW 6817   0.459   3.014   4.465
 2054SOL    HW1 6818   0.388   2.987   4.530
 2054SOL    HW2 6819   0.433   2.986   4.372
 2055SOL     OW 6820   1.271   3.659   4.315
 2055SOL    HW1 6821   1.315   3.723   4.251
 2055SOL    HW2 6822   1.221   3.711   4.385
 2056SOL     OW 6823   1.032   2.411   3.740
 2056SOL    HW1 6824   0.991   2.493   3.701
 2056SOL    HW2 6825   1.096   2.437   3.813
 2057SOL     OW 6826   0.078   2.418   5.110
 2057SOL    HW1 6827   0.170   2.417   5.069
 2057SOL    HW2 6828   0.072   2.492   5.177
 2058SOL     OW 6829   0.561   2.084   4.871
 2058SOL    HW1 6830   0.599   2.000   4.908
 2058SOL    HW2 6831   0.473   2.103   4.915
 2059SOL     OW 6832   0.866   2.316   4.366
 2059SOL    HW1 6833   0.834   2.388   4.304
 2059SOL    HW2 6834   0.890   2.235   4.313
 2060SOL     OW 6835   1.017   1.901   4.477
 2060SOL    HW1 6836   0.945   1.906   4.408
 2060SOL    HW2 6837   0.993   1.832   4.546
 2061SOL     OW 6838   1.429   3.035   4.591
 2061SOL    HW1 6839   1.374   2.951   4.584
 2061SOL    HW2 6840   1.455   3.064   4.499
 2062SOL     OW 6841   1.466   2.452   4.716
 2062SOL    HW1 6842   1.436   2.357   4.723
 2062SOL    HW2 6843   1.539   2.468   4.782
 2063SOL     OW 6844   1.857   2.695   4.101
 2063SOL    HW1 6845   1.899   2.631   4.165
 2063SOL    HW2 6846   1.819   2.644   4.023
 2064SOL     OW 6847   0.488   3.247   3.898
 2064SOL    HW1 6848   0.401   3.232   3.945
 2064SOL    HW2 6849   0.471   3.273   3.803
 2065SOL     OW 6850   1.664   3.142   4.381
 2065SOL    HW1 6851   1.763   3.150   4.395
 2065SOL    HW2 6852   1.619   3.226   4.412
 2066SOL     OW 6853   1.390   2.437   3.802
 2066SOL    HW1 6854   1.336   2.416   3.883
 2066SOL    HW2 6855   1.481   2.396   3.811
 2067SOL     OW 6856   0.527   2.118   4.052
 2067SOL    HW1 6857   0.554   2.059   3.977
 2067SOL    HW2 6858   0.527   2.213   4.021
 2068SOL     OW 6859   1.754   3.085   5.312
 2068SOL    HW1 6860   1.845   3.046   5.299
 2068SOL    HW2 6861   1.762   3.181   5.336
 2069SOL     OW 6862   1.064   3.209   5.064
 2069SOL    HW1 6863   0.984   3.186   5.119
 2069SOL    HW2 6864   1.147   3.183   5.113
 2070SOL     OW 6865   1.592   3.491   5.349
 2070SOL    HW1 6866   1.619   3.525   5.259
 2070SOL    HW2 6867   1.671   3.453   5.395
 2071SOL     OW 6868   1.111   3.057   4.824
 2071SOL    HW1 6869   1.071   3.101   4.905
 2071SOL    HW2 6870   1.070   3.094   4.741
 2072SOL     OW 6871   1.638   2.961   4.803
 2072SOL    HW1 6872   1.643   3.042   4.862
 2072SOL    HW2 6873   1.552   2.963   4.752
 2073SOL     OW 6874   0.915   1.951   5.126
 2073SOL    HW1 6875   0.940   1.931   5.031
 2073SOL    HW2 6876   0.987   2.007   5.168
 2074SOL     OW 6877   0.980   2.978   5.443
 2074SOL    HW1 6878   0.881   2.984   5.453
 2074SOL    HW2 6879   1.003   2.898   5.387
 2075SOL     OW 6880   0.705   2.912   4.092
 2075SOL    HW1 6881   0.691   2.919   4.191
 2075SOL    HW2 6882   0.789   2.861   4.074
 2076SOL     OW 6883   0.410   2.675   4.975
 2076SOL    HW1 6884   0.496   2.687   5.025
 2076SOL    HW2 6885   0.368   2.588   5.002
 2077SOL     OW 6886   1.274   2.248   4.986
 2077SOL    HW1 6887   1.295   2.322   5.050
 2077SOL    HW2 6888   1.185   2.265   4.943
 2078SOL     OW 6889   0.064   3.426   5.055
 2078SOL    HW1 6890   0.018   3.508   5.021
 2078SOL    HW2 6891   0.162   3.445   5.064
 2079SOL     OW 6892   0.367   2.962   4.225
 2079SOL    HW1 6893   0.360   3.045   4.169
 2079SOL    HW2 6894   0.371   2.882   4.165
 2080SOL     OW 6895   0.566   2.399   4.589
 2080SOL    HW1 6896   0.578   2.465   4.515
 2080SOL    HW2 6897   0.612   2.433   4.672
 2081SOL     OW 6898   1.252   3.210   4.112
 2081SOL    HW1 6899   1.302   3.287   4.152
 2081SOL    HW2 6900   1.157   3.212   4.144
 2082SOL     OW 6901   1.272   3.307   4.866
 2082SOL    HW1 6902   1.319   3.320   4.953
 2082SOL    HW2 6903   1.206   3.233   4.875
 2083SOL     OW 6904   1.582   2.501   4.196
 2083SOL    HW1 6905   1.551   2.562   4.269
 2083SOL    HW2 6906   1.632   2.553   4.127
 2084SOL     OW 6907   0.354   3.372   5.053
 2084SOL    HW1 6908   0.333   3.328   4.966
 2084SOL    HW2 6909   0.451   3.398   5.056
 2085SOL     OW 6910   0.402   2.613   5.322
 2085SOL    HW1 6911   0.470   2.668   5.275
 2085SOL    HW2 6912   0.442   2.525   5.349
 2086SOL     OW 6913   1.587   2.641   5.394
 2086SOL    HW1 6914   1.495   2.679   5.389
 2086SOL    HW2 6915   1.647   2.688   5.329
 2087SOL     OW 6916   1.013   1.967   5.494
 2087SOL    HW1 6917   1.019   2.052   5.442
 2087SOL    HW2 6918   1.045   1.891   5.437
 2088SOL     OW 6919   0.504   1.912   5.464
 2088SOL    HW1 6920   0.462   1.855   5.394
 2088SOL    HW2 6921   0.438   1.981   5.496
 2089SOL     OW 6922   0.573   2.732   4.753
 2089SOL    HW1 6923   0.617   2.821   4.744
 2089SOL    HW2 6924   0.510   2.732   4.830
 2090SOL     OW 6925   1.360   2.724   4.769
 2090SOL    HW1 6926   1.285   2.724   4.703
 2090SOL    HW2 6927   1.397   2.632   4.778
 2091SOL     OW 6928   1.209   2.387   3.999
 2091SOL    HW1 6929   1.222   2.303   4.053
 2091SOL    HW2 6930   1.180   2.461   4.059
 2092SOL     OW 6931   0.307   2.075   4.955
 2092SOL    HW1 6932   0.284   2.112   5.045
 2092SOL    HW2 6933   0.277   1.980   4.949
 2093SOL     OW 6934   0.037   3.172   5.006
 2093SOL    HW1 6935   0.090   3.123   5.074
 2093SOL    HW2 6936   0.059   3.270   5.011
 2094SOL     OW 6937   0.732   2.496   4.788
 2094SOL    HW1 6938   0.791   2.470   4.712
 2094SOL    HW2 6939   0.704   2.592   4.777
 2095SOL     OW 6940   1.728   2.797   5.578
 2095SOL    HW1 6941   1.682   2.790   5.489
 2095SOL    HW2 6942   1.666   2.841   5.644
 2096SOL     OW 6943   0.307   1.925   4.342
 2096SOL    HW1 6944   0.296   2.019   4.375
 2096SOL    HW2 6945   0.302   1.862   4.419
 2097SOL     OW 6946   1.622   2.229   4.098
 2097SOL    HW1 6947   1.624   2.153   4.162
 2097SOL    HW2 6948   1.574   2.306   4.138
 2098SOL     OW 6949   1.023   2.628   4.690
 2098SOL    HW1 6950   1.038   2.649   4.786
 2098SOL    HW2 6951   0.993   2.533   4.681
 2099SOL     OW 6952   0.980   3.435   5.424
 2099SOL    HW1 6953   0.960   3.479   5.336
 2099SOL    HW2 6954   1.019   3.344   5.408
 2100SOL     OW 6955   1.859   3.380   5.329
 2100SOL    HW1 6956   1.873   3.407   5.234
 2100SOL    HW2 6957   1.942   3.402   5.382
 2101SOL     OW 6958   0.350   2.760   5.528
 2101SOL    HW1 6959   0.426   2.804   5.576
 2101SOL    HW2 6960   0.385   2.713   5.446
 2102SOL     OW 6961   1.540   2.136   3.849
 2102SOL    HW1 6962   1.479   2.061   3.872
 2102SOL    HW2 6963   1.562   2.188   3.932
 2103SOL     OW 6964   1.303   2.700   3.766
 2103SOL    HW1 6965   1.337   2.607   3.781
 2103SOL    HW2 6966   1.321   2.727   3.671
 2104SOL     OW 6967   1.068   3.195   4.573
 2104SOL    HW1 6968   1.075   3.111   4.518
 2104SOL    HW2 6969   1.130   3.264   4.537
 2105SOL     OW 6970   0.319   2.672   4.673
 2105SOL    HW1 6971   0.412   2.708   4.678
 2105SOL    HW2 6972   0.313   2.587   4.725
 2106SOL     OW 6973   0.339   2.371   4.730
 2106SOL    HW1 6974   0.287   2.288   4.713
 2106SOL    HW2 6975   0.416   2.376   4.666
 2107SOL     OW 6976   1.138   2.242   5.402
 2107SOL    HW1 6977   1.093   2.305   5.466
 2107SOL    HW2 6978   1.231   2.273   5.385
 2108SOL     OW 6979   1.160   2.069   5.201
 2108SOL    HW1 6980   1.160   2.133   5.278
 2108SOL    HW2 6981   1.188   2.117   5.118
 2109SOL     OW 6982   0.008   3.188   3.924
 2109SOL    HW1 6983  -0.085   3.209   3.893
 2109SOL    HW2 6984   0.018   3.089   3.937
 2110SOL     OW 6985   0.088   3.663   4.651
 2110SOL    HW1 6986   0.046   3.577   4.624
 2110SOL    HW2 6987   0.182   3.666   4.617
 2111SOL     OW 6988   0.504   3.430   4.634
 2111SOL    HW1 6989   0.570   3.504   4.643
 2111SOL    HW2 6990   0.548   3.351   4.592
 2112SOL     OW 6991   1.002   2.658   4.962
 2112SOL    HW1 6992   1.043   2.626   5.048
 2112SOL    HW2 6993   0.906   2.631   4.959
 2113SOL     OW 6994   0.040   2.406   4.838
 2113SOL    HW1 6995   0.125   2.373   4.797
 2113SOL    HW2 6996   0.053   2.421   4.936
 2114SOL     OW 6997   0.189   2.382   5.446
 2114SOL    HW1 6998   0.248   2.342   5.376
 2114SOL    HW2 6999   0.131   2.453   5.405
 2115SOL     OW 7000   1.369   2.812   5.384
 2115SOL    HW1 7001   1.408   2.901   5.404
 2115SOL    HW2 7002   1.379   2.792   5.287
 2116SOL     OW 7003   0.815   2.434   4.049
 2116SOL    HW1 7004   0.822   2.345   4.003
 2116SOL    HW2 7005   0.721   2.468   4.041
 2117SOL     OW 7006   1.657   2.466   4.930
 2117SOL    HW1 7007   1.619   2.397   4.992
 2117SOL    HW2 7008   1.739   2.430   4.886
 2118SOL     OW 7009   0.252   3.426   5.468
 2118SOL    HW1 7010   0.222   3.483   5.544
 2118SOL    HW2 7011   0.245   3.329   5.494
 2119SOL     OW 7012   0.671   2.326   4.993
 2119SOL    HW1 7013   0.637   2.237   4.963
 2119SOL    HW2 7014   0.697   2.380   4.913
 2120SOL     OW 7015   0.930   3.540   5.189
 2120SOL    HW1 7016   0.906   3.522   5.094
 2120SOL    HW2 7017   0.960   3.634   5.199
 2121SOL     OW 7018   0.473   2.362   3.915
 2121SOL    HW1 7019   0.534   2.442   3.919
 2121SOL    HW2 7020   0.378   2.393   3.922
 2122SOL     OW 7021   0.159   2.999   5.190
 2122SOL    HW1 7022   0.181   2.938   5.266
 2122SOL    HW2 7023   0.169   2.950   5.104
 2123SOL     OW 7024   1.347   2.921   4.958
 2123SOL    HW1 7025   1.371   2.858   4.884
 2123SOL    HW2 7026   1.257   2.961   4.940
 2124SOL     OW 7027   1.302   2.717   4.033
 2124SOL    HW1 7028   1.216   2.686   4.075
 2124SOL    HW2 7029   1.298   2.703   3.934
 2125SOL     OW 7030   1.759   3.609   4.878
 2125SOL    HW1 7031   1.820   3.639   4.805
 2125SOL    HW2 7032   1.721   3.520   4.856
 2126SOL     OW 7033   1.252   3.593   4.852
 2126SOL    HW1 7034   1.336   3.598   4.798
 2126SOL    HW2 7035   1.229   3.497   4.870
 2127SOL     OW 7036   0.083   3.120   4.746
 2127SOL    HW1 7037   0.078   3.119   4.846
 2127SOL    HW2 7038   0.000   3.079   4.708
 2128SOL     OW 7039   0.688   3.524   5.440
 2128SOL    HW1 7040   0.632   3.605   5.449
 2128SOL    HW2 7041   0.740   3.528   5.354
 2129SOL     OW 7042   1.726   1.997   4.247
 2129SOL    HW1 7043   1.799   1.980   4.180
 2129SOL    HW2 7044   1.695   1.910   4.285
 2130SOL     OW 7045   1.388   3.435   4.201
 2130SOL    HW1 7046   1.455   3.447   4.127
 2130SOL    HW2 7047   1.348   3.524   4.224
 2131SOL     OW 7048   0.130   3.656   5.575
 2131SOL    HW1 7049   0.089   3.582   5.628
 2131SOL    HW2 7050   0.194   3.707   5.633
 2132SOL     OW 7051   1.280   2.789   4.396
 2132SOL    HW1 7052   1.340   2.708   4.398
 2132SOL    HW2 7053   1.320   2.858   4.336
 2133SOL     OW 7054   0.830   3.135   5.146
 2133SOL    HW1 7055   0.825   3.168   5.241
 2133SOL    HW2 7056   0.744   3.154   5.100
 2134SOL     OW 7057   0.672   3.478   3.878
 2134SOL    HW1 7058   0.681   3.488   3.779
 2134SOL    HW2 7059   0.632   3.389   3.899
 2135SOL     OW 7060   1.650   3.582   5.118
 2135SOL    HW1 7061   1.703   3.592   5.034
 2135SOL    HW2 7062   1.623   3.672   5.152
 2136SOL     OW 7063   0.263   2.188   4.444
 2136SOL    HW1 7064   0.184   2.239   4.410
 2136SOL    HW2 7065   0.254   2.173   4.542
 2137SOL     OW 7066   1.194   3.474   3.755
 2137SOL    HW1 7067   1.200   3.381   3.792
 2137SOL    HW2 7068   1.135   3.474   3.675
 2138SOL     OW 7069   0.822   2.864   5.096
 2138SOL    HW1 7070   0.862   2.863   5.004
 2138SOL    HW2 7071   0.832   2.956   5.136
 2139SOL     OW 7072   0.916   2.772   4.015
 2139SOL    HW1 7073   0.979   2.810   3.947
 2139SOL    HW2 7074   0.956   2.689   4.054
 2140SOL     OW 7075   1.504   3.469   3.768
 2140SOL    HW1 7076   1.412   3.506   3.775
 2140SOL    HW2 7077   1.542   3.489   3.678
 2141SOL     OW 7078   0.372   3.150   5.214
 2141SOL    HW1 7079   0.359   3.243   5.180
 2141SOL    HW2 7080   0.288   3.098   5.201
 2142SOL     OW 7081   1.614   3.154   5.013
 2142SOL    HW1 7082   1.674   3.157   5.093
 2142SOL    HW2 7083   1.539   3.218   5.026
 2143SOL     OW 7084   1.039   2.960   4.420
 2143SOL    HW1 7085   0.969   2.913   4.474
 2143SOL    HW2 7086   1.098   2.892   4.377
 2144SOL     OW 7087   1.014   2.098   4.695
 2144SOL    HW1 7088   1.006   2.062   4.602
 2144SOL    HW2 7089   1.012   2.022   4.760
 2145SOL     OW 7090   0.590   3.349   4.215
 2145SOL    HW1 7091   0.632   3.291   4.145
 2145SOL    HW2 7092   0.546   3.428   4.171
 2146SOL     OW 7093   0.255   3.210   4.014
 2146SOL    HW1 7094   0.159   3.211   3.987
 2146SOL    HW2 7095   0.267   3.263   4.098
 2147SOL     OW 7096   0.105   2.875   5.450
 2147SOL    HW1 7097   0.028   2.842   5.504
 2147SOL    HW2 7098   0.190   2.845   5.492
 2148SOL     OW 7099   0.672   2.065   5.213
 2148SOL    HW1 7100   0.762   2.049   5.173
 2148SOL    HW2 7101   0.680   2.070   5.312
 2149SOL     OW 7102   0.075   2.207   3.757
 2149SOL    HW1 7103  -0.017   2.179   3.728
 2149SOL    HW2 7104   0.106   2.284   3.701
 2150SOL     OW 7105   1.440   2.718   5.122
 2150SOL    HW1 7106   1.383   2.770   5.059
 2150SOL    HW2 7107   1.536   2.730   5.098
 2151SOL     OW 7108   0.072   2.028   4.042
 2151SOL    HW1 7109   0.055   2.111   3.988
 2151SOL    HW2 7110   0.162   1.991   4.020
 2152SOL     OW 7111   1.183   3.197   3.843
 2152SOL    HW1 7112   1.084   3.186   3.845
 2152SOL    HW2 7113   1.217   3.212   3.936
 2153SOL     OW 7114   0.613   2.704   5.155
 2153SOL    HW1 7115   0.669   2.785   5.138
 2153SOL    HW2 7116   0.672   2.624   5.158
 2154SOL     OW 7117   1.493   3.629   4.683
 2154SOL    HW1 7118   1.526   3.693   4.614
 2154SOL    HW2 7119   1.559   3.623   4.758
 2155SOL     OW 7120   0.716   2.427   5.432
 2155SOL    HW1 7121   0.735   2.492   5.506
 2155SOL    HW2 7122   0.776   2.347   5.441
 2156SOL     OW 7123   1.450   3.082   5.357
 2156SOL    HW1 7124   1.441   3.072   5.456
 2156SOL    HW2 7125   1.546   3.075   5.331
 2157SOL     OW 7126   0.390   3.603   5.284
 2157SOL    HW1 7127   0.299   3.644   5.282
 2157SOL    HW2 7128   0.383   3.509   5.316
 2158SOL     OW 7129   1.674   2.745   4.978
 2158SOL    HW1 7130   1.647   2.656   4.941
 2158SOL    HW2 7131   1.675   2.813   4.905
 2159SOL     OW 7132   1.225   2.187   4.173
 2159SOL    HW1 7133   1.290   2.113   4.162
 2159SOL    HW2 7134   1.245   2.237   4.257
 2160SOL     OW 7135   0.594   2.607   4.376
 2160SOL    HW1 7136   0.644   2.692   4.357
 2160SOL    HW2 7137   0.506   2.609   4.328
 2161SOL     OW 7138   1.730   2.796   5.241
 2161SOL    HW1 7139   1.768   2.887   5.256
 2161SOL    HW2 7140   1.722   2.779   5.142
 2162SOL     OW 7141   0.859   3.236   3.740
 2162SOL    HW1 7142   0.813   3.251   3.828
 2162SOL    HW2 7143   0.903   3.321   3.710
 2163SOL     OW 7144   0.661   3.652   4.677
 2163SOL    HW1 7145   0.615   3.740   4.664
 2163SOL    HW2 7146   0.760   3.664   4.670
 2164SOL     OW 7147   0.859   2.818   4.585
 2164SOL    HW1 7148   0.913   2.749   4.633
 2164SOL    HW2 7149   0.827   2.887   4.651
 2165SOL     OW 7150   1.083   2.846   3.811
 2165SOL    HW1 7151   1.060   2.899   3.729
 2165SOL    HW2 7152   1.164   2.790   3.792
 2166SOL     OW 7153   1.861   3.431   4.575
 2166SOL    HW1 7154   1.790   3.419   4.505
 2166SOL    HW2 7155   1.862   3.352   4.635
 2167SOL     OW 7156   0.221   3.176   5.568
 2167SOL    HW1 7157   0.156   3.103   5.547
 2167SOL    HW2 7158   0.225   3.190   5.666
 2168SOL     OW 7159   0.079   3.102   4.377
 2168SOL    HW1 7160   0.078   3.055   4.465
 2168SOL    HW2 7161   0.161   3.074   4.326
 2169SOL     OW 7162   0.672   3.253   5.348
 2169SOL    HW1 7163   0.594   3.203   5.386
 2169SOL    HW2 7164   0.669   3.348   5.379
 2170SOL     OW 7165   0.428   2.286   4.244
 2170SOL    HW1 7166   0.458   2.214   4.182
 2170SOL    HW2 7167   0.389   2.246   4.327
 2171SOL     OW 7168   1.705   3.349   4.828
 2171SOL    HW1 7169   1.612   3.324   4.801
 2171SOL    HW2 7170   1.731   3.299   4.910
 2172SOL     OW 7171   0.317   2.409   5.004
 2172SOL    HW1 7172   0.355   2.350   5.076
 2172SOL    HW2 7173   0.357   2.383   4.916
 2173SOL     OW 7174   0.812   3.448   4.411
 2173SOL    HW1 7175   0.844   3.458   4.317
 2173SOL    HW2 7176   0.733   3.386   4.413
 2174SOL     OW 7177   1.424   2.076   4.836
 2174SOL    HW1 7178   1.476   2.011   4.891
 2174SOL    HW2 7179   1.375   2.139   4.897
 2175SOL     OW 7180   1.001   1.896   4.878
 2175SOL    HW1 7181   0.938   1.824   4.847
 2175SOL    HW2 7182   1.094   1.860   4.878
 2176SOL     OW 7183   0.770   3.192   4.025
 2176SOL    HW1 7184   0.724   3.105   4.042
 2176SOL    HW2 7185   0.861   3.189   4.066
 2177SOL     OW 7186   0.618   3.429   5.008
 2177SOL    HW1 7187   0.613   3.511   5.065
 2177SOL    HW2 7188   0.707   3.426   4.963
 2178SOL     OW 7189   1.352   1.914   3.892
 2178SOL    HW1 7190   1.387   1.873   3.808
 2178SOL    HW2 7191   1.262   1.876   3.912
 2179SOL     OW 7192   1.300   2.315   4.415
 2179SOL    HW1 7193   1.241   2.395   4.419
 2179SOL    HW2 7194   1.315   2.280   4.508
 2180SOL     OW 7195   1.593   2.083   4.606
 2180SOL    HW1 7196   1.509   2.082   4.660
 2180SOL    HW2 7197   1.595   2.166   4.550
 2181SOL     OW 7198   0.039   2.939   4.024
 2181SOL    HW1 7199   0.138   2.928   4.015
 2181SOL    HW2 7200  -0.001   2.853   4.056
 2182SOL     OW 7201   0.875   3.508   4.061
 2182SOL    HW1 7202   0.798   3.473   4.007
 2182SOL    HW2 7203   0.843   3.579   4.123
 2183SOL     OW 7204   0.230   2.490   5.699
 2183SOL    HW1 7205   0.137   2.488   5.736
 2183SOL    HW2 7206   0.231   2.451   5.607
 2184SOL     OW 7207   0.225   2.137   6.582
 2184SOL    HW1 7208   0.260   2.120   6.674
 2184SOL    HW2 7209   0.137   2.092   6.570
 2185SOL     OW 7210   0.019   2.230   6.233
 2185SOL    HW1 7211  -0.063   2.273   6.272
 2185SOL    HW2 7212  -0.009   2.157   6.170
 2186SOL     OW 7213   0.569   3.137   6.751
 2186SOL    HW1 7214   0.476   3.130   6.714
 2186SOL    HW2 7215   0.580   3.226   6.795
 2187SOL     OW 7216   1.555   3.373   6.289
 2187SOL    HW1 7217   1.498   3.357   6.370
 2187SOL    HW2 7218   1.496   3.383   6.209
 2188SOL     OW 7219   1.135   2.565   6.303
 2188SOL    HW1 7220   1.192   2.643   6.278
 2188SOL    HW2 7221   1.075   2.591   6.379
 2189SOL     OW 7222   1.755   2.469   5.817
 2189SOL    HW1 7223   1.743   2.456   5.718
 2189SOL    HW2 7224   1.725   2.388   5.866
 2190SOL     OW 7225   0.768   3.006   6.609
 2190SOL    HW1 7226   0.690   3.023   6.669
 2190SOL    HW2 7227   0.802   3.093   6.573
 2191SOL     OW 7228   0.850   2.660   7.409
 2191SOL    HW1 7229   0.846   2.736   7.474
 2191SOL    HW2 7230   0.872   2.696   7.318
 2192SOL     OW 7231   0.685   2.874   6.251
 2192SOL    HW1 7232   0.754   2.858   6.321
 2192SOL    HW2 7233   0.612   2.931   6.289
 2193SOL     OW 7234   0.686   3.023   7.389
 2193SOL    HW1 7235   0.746   3.102   7.403
 2193SOL    HW2 7236   0.600   3.054   7.348
 2194SOL     OW 7237   0.335   3.297   6.647
 2194SOL    HW1 7238   0.257   3.266   6.594
 2194SOL    HW2 7239   0.393   3.355   6.590
 2195SOL     OW 7240   1.460   3.367   6.925
 2195SOL    HW1 7241   1.484   3.461   6.951
 2195SOL    HW2 7242   1.444   3.313   7.007
 2196SOL     OW 7243   0.438   2.254   7.085
 2196SOL    HW1 7244   0.520   2.198   7.094
 2196SOL    HW2 7245   0.357   2.196   7.089
 2197SOL     OW 7246   1.603   2.309   6.323
 2197SOL    HW1 7247   1.529   2.355   6.273
 2197SOL    HW2 7248   1.654   2.377   6.376
 2198SOL     OW 7249   0.231   3.575   6.069
 2198SOL    HW1 7250   0.265   3.652   6.123
 2198SOL    HW2 7251   0.275   3.575   5.979
 2199SOL     OW 7252   1.127   3.203   7.276
 2199SOL    HW1 7253   1.174   3.203   7.364
 2199SOL    HW2 7254   1.079   3.116   7.265
 2200SOL     OW 7255   0.230   3.296   6.124
 2200SOL    HW1 7256   0.204   3.392   6.124
 2200SOL    HW2 7257   0.159   3.242   6.169
 2201SOL     OW 7258   0.240   2.953   6.472
 2201SOL    HW1 7259   0.254   2.869   6.524
 2201SOL    HW2 7260   0.185   3.017   6.527
 2202SOL     OW 7261   0.620   3.648   7.025
 2202SOL    HW1 7262   0.528   3.631   7.060
 2202SOL    HW2 7263   0.648   3.740   7.051
 2203SOL     OW 7264   0.606   2.826   5.709
 2203SOL    HW1 7265   0.613   2.910   5.655
 2203SOL    HW2 7266   0.652   2.839   5.797
 2204SOL     OW 7267   0.122   2.505   6.149
 2204SOL    HW1 7268   0.077   2.417   6.166
 2204SOL    HW2 7269   0.121   2.559   6.233
 2205SOL     OW 7270   1.842   3.629   5.945
 2205SOL    HW1 7271   1.896   3.600   6.025
 2205SOL    HW2 7272   1.872   3.719   5.916
 2206SOL     OW 7273   0.027   3.458   5.703
 2206SOL    HW1 7274   0.008   3.362   5.724
 2206SOL    HW2 7275  -0.006   3.516   5.778
 2207SOL     OW 7276   1.689   2.784   6.198
 2207SOL    HW1 7277   1.784   2.755   6.206
 2207SOL    HW2 7278   1.681   2.849   6.123
 2208SOL     OW 7279   1.641   2.970   6.018
 2208SOL    HW1 7280   1.727   2.972   5.966
 2208SOL    HW2 7281   1.655   3.017   6.106
 2209SOL     OW 7282   0.113   2.599   7.183
 2209SOL    HW1 7283   0.201   2.586   7.228
 2209SOL    HW2 7284   0.100   2.696   7.161
 2210SOL     OW 7285   0.613   3.227   6.312
 2210SOL    HW1 7286   0.564   3.140   6.321
 2210SOL    HW2 7287   0.590   3.270   6.225
 2211SOL     OW 7288   1.293   3.090   7.009
 2211SOL    HW1 7289   1.330   3.017   6.951
 2211SOL    HW2 7290   1.345   3.095   7.094
 2212SOL     OW 7291   0.809   1.866   6.088
 2212SOL    HW1 7292   0.849   1.957   6.079
 2212SOL    HW2 7293   0.709   1.874   6.094
 2213SOL     OW 7294   0.197   2.838   6.850
 2213SOL    HW1 7295   0.286   2.793   6.836
 2213SOL    HW2 7296   0.124   2.773   6.831
 2214SOL     OW 7297   1.525   2.861   5.776
 2214SOL    HW1 7298   1.462   2.785   5.789
 2214SOL    HW2 7299   1.573   2.879   5.862
 2215SOL     OW 7300   1.187   3.654   7.202
 2215SOL    HW1 7301   1.211   3.714   7.126
 2215SOL    HW2 7302   1.194   3.559   7.172
 2216SOL     OW 7303   0.317   2.113   7.387
 2216SOL    HW1 7304   0.388   2.184   7.393
 2216SOL    HW2 7305   0.229   2.152   7.415
 2217SOL     OW 7306   1.466   3.279   6.539
 2217SOL    HW1 7307   1.407   3.285   6.619
 2217SOL    HW2 7308   1.451   3.191   6.493
 2218SOL     OW 7309   1.667   3.576   6.158
 2218SOL    HW1 7310   1.626   3.553   6.070
 2218SOL    HW2 7311   1.649   3.502   6.223
 2219SOL     OW 7312   0.598   2.591   5.856
 2219SOL    HW1 7313   0.622   2.660   5.788
 2219SOL    HW2 7314   0.520   2.624   5.910
 2220SOL     OW 7315   1.281   2.207   6.530
 2220SOL    HW1 7316   1.195   2.157   6.517
 2220SOL    HW2 7317   1.343   2.153   6.586
 2221SOL     OW 7318   1.576   3.524   5.893
 2221SOL    HW1 7319   1.665   3.570   5.896
 2221SOL    HW2 7320   1.555   3.500   5.798
 2222SOL     OW 7321   0.807   2.467   7.051
 2222SOL    HW1 7322   0.760   2.464   7.140
 2222SOL    HW2 7323   0.756   2.412   6.985
 2223SOL     OW 7324   0.973   2.752   7.158
 2223SOL    HW1 7325   1.019   2.668   7.129
 2223SOL    HW2 7326   0.917   2.786   7.083
 2224SOL     OW 7327   0.991   2.272   6.828
 2224SOL    HW1 7328   0.914   2.306   6.882
 2224SOL    HW2 7329   0.957   2.221   6.749
 2225SOL     OW 7330   1.041   2.563   6.015
 2225SOL    HW1 7331   1.067   2.559   6.111
 2225SOL    HW2 7332   0.956   2.512   6.001
 2226SOL     OW 7333   0.076   2.673   6.375
 2226SOL    HW1 7334   0.175   2.661   6.384
 2226SOL    HW2 7335   0.052   2.768   6.396
 2227SOL     OW 7336   0.130   3.683   7.157
 2227SOL    HW1 7337   0.120   3.668   7.256
 2227SOL    HW2 7338   0.044   3.719   7.121
 2228SOL     OW 7339   0.865   2.210   5.781
 2228SOL    HW1 7340   0.924   2.273   5.732
 2228SOL    HW2 7341   0.884   2.116   5.752
 2229SOL     OW 7342   1.362   3.006   6.131
 2229SOL    HW1 7343   1.445   2.977   6.083
 2229SOL    HW2 7344   1.313   3.073   6.075
 2230SOL     OW 7345   0.550   2.058   6.471
 2230SOL    HW1 7346   0.545   2.053   6.571
 2230SOL    HW2 7347   0.552   2.154   6.442
 2231SOL     OW 7348   1.008   3.318   6.063
 2231SOL    HW1 7349   0.962   3.390   6.011
 2231SOL    HW2 7350   1.004   3.338   6.161
 2232SOL     OW 7351   0.351   3.663   6.439
 2232SOL    HW1 7352   0.401   3.577   6.445
 2232SOL    HW2 7353   0.416   3.740   6.436
 2233SOL     OW 7354   1.795   2.928   6.459
 2233SOL    HW1 7355   1.733   2.913   6.383
 2233SOL    HW2 7356   1.743   2.939   6.544
 2234SOL     OW 7357   1.227   3.412   7.092
 2234SOL    HW1 7358   1.233   3.335   7.156
 2234SOL    HW2 7359   1.175   3.386   7.012
 2235SOL     OW 7360   0.321   2.805   5.828
 2235SOL    HW1 7361   0.403   2.844   5.786
 2235SOL    HW2 7362   0.294   2.723   5.779
 2236SOL     OW 7363   1.458   2.597   6.314
 2236SOL    HW1 7364   1.453   2.532   6.389
 2236SOL    HW2 7365   1.538   2.656   6.327
 2237SOL     OW 7366   0.461   3.128   7.313
 2237SOL    HW1 7367   0.411   3.129   7.227
 2237SOL    HW2 7368   0.398   3.110   7.389
 2238SOL     OW 7369   1.111   3.638   5.823
 2238SOL    HW1 7370   1.051   3.576   5.873
 2238SOL    HW2 7371   1.142   3.594   5.738
 2239SOL     OW 7372   0.202   2.147   7.084
 2239SOL    HW1 7373   0.122   2.207   7.071
 2239SOL    HW2 7374   0.192   2.098   7.170
 2240SOL     OW 7375   1.632   3.239   5.667
 2240SOL    HW1 7376   1.600   3.333   5.657
 2240SOL    HW2 7377   1.556   3.176   5.655
 2241SOL     OW 7378   0.464   3.605   5.909
 2241SOL    HW1 7379   0.497   3.644   5.995
 2241SOL    HW2 7380   0.540   3.598   5.844
 2242SOL     OW 7381   1.400   1.969   6.012
 2242SOL    HW1 7382   1.376   1.932   5.922
 2242SOL    HW2 7383   1.499   1.985   6.016
 2243SOL     OW 7384   0.249   3.647   6.827
 2243SOL    HW1 7385   0.306   3.582   6.877
 2243SOL    HW2 7386   0.233   3.614   6.734
 2244SOL     OW 7387   0.940   3.560   6.490
 2244SOL    HW1 7388   1.020   3.503   6.511
 2244SOL    HW2 7389   0.891   3.520   6.413
 2245SOL     OW 7390   0.382   2.562   6.066
 2245SOL    HW1 7391   0.427   2.472   6.063
 2245SOL    HW2 7392   0.288   2.551   6.099
 2246SOL     OW 7393   0.614   1.984   5.703
 2246SOL    HW1 7394   0.712   1.962   5.710
 2246SOL    HW2 7395   0.583   1.967   5.610
 2247SOL     OW 7396   0.781   2.126   7.335
 2247SOL    HW1 7397   0.848   2.065   7.378
 2247SOL    HW2 7398   0.708   2.145   7.400
 2248SOL     OW 7399   0.888   3.376   6.781
 2248SOL    HW1 7400   0.865   3.351   6.687
 2248SOL    HW2 7401   0.949   3.307   6.820
 2249SOL     OW 7402   0.803   3.264   6.510
 2249SOL    HW1 7403   0.893   3.278   6.468
 2249SOL    HW2 7404   0.732   3.266   6.439
 2250SOL     OW 7405   0.922   2.365   6.485
 2250SOL    HW1 7406   0.897   2.356   6.389
 2250SOL    HW2 7407   0.970   2.283   6.516
 2251SOL     OW 7408   0.539   1.926   6.098
 2251SOL    HW1 7409   0.458   1.927   6.156
 2251SOL    HW2 7410   0.542   2.009   6.043
 2252SOL     OW 7411   1.434   3.050   5.627
 2252SOL    HW1 7412   1.466   2.974   5.684
 2252SOL    HW2 7413   1.342   3.077   5.657
 2253SOL     OW 7414   0.297   1.897   5.757
 2253SOL    HW1 7415   0.346   1.981   5.736
 2253SOL    HW2 7416   0.359   1.832   5.802
 2254SOL     OW 7417   0.935   2.098   6.066
 2254SOL    HW1 7418   0.887   2.139   5.988
 2254SOL    HW2 7419   1.034   2.096   6.047
 2255SOL     OW 7420   1.076   2.545   7.050
 2255SOL    HW1 7421   0.996   2.484   7.053
 2255SOL    HW2 7422   1.157   2.492   7.026
 2256SOL     OW 7423   1.227   3.432   6.379
 2256SOL    HW1 7424   1.248   3.506   6.314
 2256SOL    HW2 7425   1.295   3.432   6.452
 2257SOL     OW 7426   0.459   3.014   6.327
 2257SOL    HW1 7427   0.388   2.987   6.392
 2257SOL    HW2 7428   0.433   2.986   6.234
 2258SOL     OW 7429   1.271   3.659   6.177
 2258SOL    HW1 7430   1.315   3.723   6.113
 2258SOL    HW2 7431   1.221   3.711   6.247
 2259SOL     OW 7432   1.032   2.411   5.602
 2259SOL    HW1 7433   0.991   2.493   5.563
 2259SOL    HW2 7434   1.096   2.437   5.675
 2260SOL     OW 7435   0.078   2.418   6.972
 2260SOL    HW1 7436   0.170   2.417   6.931
 2260SOL    HW2 7437   0.072   2.492   7.039
 2261SOL     OW 7438   0.561   2.084   6.733
 2261SOL    HW1 7439   0.599   2.000   6.770
 2261SOL    HW2 7440   0.473   2.103   6.777
 2262SOL     OW 7441   0.866   2.316   6.228
 2262SOL    HW1 7442   0.834   2.388   6.166
 2262SOL    HW2 7443   0.890   2.235   6.175
 2263SOL     OW 7444   1.017   1.901   6.339
 2263SOL    HW1 7445   0.945   1.906   6.270
 2263SOL    HW2 7446   0.993   1.832   6.408
 2264SOL     OW 7447   1.429   3.035   6.453
 2264SOL    HW1 7448   1.374   2.951   6.446
 2264SOL    HW2 7449   1.455   3.064   6.361
 2265SOL     OW 7450   1.466   2.452   6.578
 2265SOL    HW1 7451   1.436   2.357   6.585
 2265SOL    HW2 7452   1.539   2.468   6.644
 2266SOL     OW 7453   1.857   2.695   5.963
 2266SOL    HW1 7454   1.899   2.631   6.027
 2266SOL    HW2 7455   1.819   2.644   5.885
 2267SOL     OW 7456   0.488   3.247   5.760
 2267SOL    HW1 7457   0.401   3.232   5.807
 2267SOL    HW2 7458   0.471   3.273   5.665
 2268SOL     OW 7459   1.664   3.142   6.243
 2268SOL    HW1 7460   1.763   3.150   6.257
 2268SOL    HW2 7461   1.619   3.226   6.274
 2269SOL     OW 7462   1.390   2.437   5.664
 2269SOL    HW1 7463   1.336   2.416   5.745
 2269SOL    HW2 7464   1.481   2.396   5.673
 2270SOL     OW 7465   0.527   2.118   5.914
 2270SOL    HW1 7466   0.554   2.059   5.839
 2270SOL    HW2 7467   0.527   2.213   5.883
 2271SOL     OW 7468   1.754   3.085   7.174
 2271SOL    HW1 7469   1.845   3.046   7.161
 2271SOL    HW2 7470   1.762   3.181   7.198
 2272SOL     OW 7471   1.064   3.209   6.926
 2272SOL    HW1 7472   0.984   3.186   6.981
 2272SOL    HW2 7473   1.147   3.183   6.975
 2273SOL     OW 7474   1.592   3.491   7.211
 2273SOL    HW1 7475   1.619   3.525   7.121
 2273SOL    HW2 7476   1.671   3.453   7.257
 2274SOL     OW 7477   1.111   3.057   6.686
 2274SOL    HW1 7478   1.071   3.101   6.767
 2274SOL    HW2 7479   1.070   3.094   6.603
 2275SOL     OW 7480   0.980   2.978   7.305
 2275SOL    HW1 7481   0.881   2.984   7.315
 2275SOL    HW2 7482   1.003   2.898   7.249
 2276SOL     OW 7483   0.705   2.912   5.954
 2276SOL    HW1 7484   0.691   2.919   6.053
 2276SOL    HW2 7485   0.789   2.861   5.936
 2277SOL     OW 7486   0.410   2.675   6.837
 2277SOL    HW1 7487   0.496   2.687   6.887
 2277SOL    HW2 7488   0.368   2.588   6.864
 2278SOL     OW 7489   0.064   3.426   6.917
 2278SOL    HW1 7490   0.018   3.508   6.883
 2278SOL    HW2 7491   0.162   3.445   6.926
 2279SOL     OW 7492   0.367   2.962   6.087
 2279SOL    HW1 7493   0.360   3.045   6.031
 2279SOL    HW2 7494   0.371   2.882   6.027
 2280SOL     OW 7495   0.566   2.399   6.451
 2280SOL    HW1 7496   0.578   2.465   6.377
 2280SOL    HW2 7497   0.612   2.433   6.534
 2281SOL     OW 7498   1.252   3.210   5.974
 2281SOL    HW1 7499   1.302   3.287   6.014
 2281SOL    HW2 7500   1.157   3.212   6.006
 2282SOL     OW 7501   1.272   3.307   6.728
 2282SOL    HW1 7502   1.319   3.320   6.815
 2282SOL    HW2 7503   1.206   3.233   6.737
 2283SOL     OW 7504   1.582   2.501   6.058
 2283SOL    HW1 7505   1.551   2.562   6.131
 2283SOL    HW2 7506   1.632   2.553   5.989
 2284SOL     OW 7507   0.354   3.372   6.915
 2284SOL    HW1 7508   0.333   3.328   6.828
 2284SOL    HW2 7509   0.451   3.398   6.918
 2285SOL     OW 7510   0.402   2.613   7.184
 2285SOL    HW1 7511   0.470   2.668   7.137
 2285SOL    HW2 7512   0.442   2.525   7.211
 2286SOL     OW 7513   1.013   1.967   7.356
 2286SOL    HW1 7514   1.019   2.052   7.304
 2286SOL    HW2 7515   1.045   1.891   7.299
 2287SOL     OW 7516   0.504   1.912   7.326
 2287SOL    HW1 7517   0.462   1.855   7.256
 2287SOL    HW2 7518   0.438   1.981   7.358
 2288SOL     OW 7519   0.573   2.732   6.615
 2288SOL    HW1 7520   0.617   2.821   6.606
 2288SOL    HW2 7521   0.510   2.732   6.692
 2289SOL     OW 7522   1.360   2.724   6.631
 2289SOL    HW1 7523   1.285   2.724   6.565
 2289SOL    HW2 7524   1.397   2.632   6.640
 2290SOL     OW 7525   1.209   2.387   5.861
 2290SOL    HW1 7526   1.222   2.303   5.915
 2290SOL    HW2 7527   1.180   2.461   5.921
 2291SOL     OW 7528   0.307   2.075   6.817
 2291SOL    HW1 7529   0.284   2.112   6.907
 2291SOL    HW2 7530   0.277   1.980   6.811
 2292SOL     OW 7531   0.037   3.172   6.868
 2292SOL    HW1 7532   0.090   3.123   6.936
 2292SOL    HW2 7533   0.059   3.270   6.873
 2293SOL     OW 7534   0.732   2.496   6.650
 2293SOL    HW1 7535   0.791   2.470   6.574
 2293SOL    HW2 7536   0.704   2.592   6.639
 2294SOL     OW 7537   1.728   2.797   7.440
 2294SOL    HW1 7538   1.682   2.790   7.351
 2294SOL    HW2 7539   1.666   2.841   7.506
 2295SOL     OW 7540   0.307   1.925   6.204
 2295SOL    HW1 7541   0.296   2.019   6.237
 2295SOL    HW2 7542   0.302   1.862   6.281
 2296SOL     OW 7543   1.622   2.229   5.960
 2296SOL    HW1 7544   1.624   2.153   6.024
 2296SOL    HW2 7545   1.574   2.306   6.000
 2297SOL     OW 7546   1.023   2.628   6.552
 2297SOL    HW1 7547   1.038   2.649   6.648
 2297SOL    HW2 7548   0.993   2.533   6.543
 2298SOL     OW 7549   0.980   3.435   7.286
 2298SOL    HW1 7550   0.960   3.479   7.198
 2298SOL    HW2 7551   1.019   3.344   7.270
 2299SOL     OW 7552   1.859   3.380   7.191
 2299SOL    HW1 7553   1.873   3.407   7.096
 2299SOL    HW2 7554   1.942   3.402   7.244
 2300SOL     OW 7555   0.350   2.760   7.390
 2300SOL    HW1 7556   0.426   2.804   7.438
 2300SOL    HW2 7557   0.385   2.713   7.308
 2301SOL     OW 7558   1.540   2.136   5.711
 2301SOL    HW1 7559   1.479   2.061   5.734
 2301SOL    HW2 7560   1.562   2.188   5.794
 2302SOL     OW 7561   1.303   2.700   5.628
 2302SOL    HW1 7562   1.337   2.607   5.643
 2302SOL    HW2 7563   1.321   2.727   5.533
 2303SOL     OW 7564   1.068   3.195   6.435
 2303SOL    HW1 7565   1.075   3.111   6.380
 2303SOL    HW2 7566   1.130   3.264   6.399
 2304SOL     OW 7567   0.319   2.672   6.535
 2304SOL    HW1 7568   0.412   2.708   6.540
 2304SOL    HW2 7569   0.313   2.587   6.587
 2305SOL     OW 7570   0.339   2.371   6.592
 2305SOL    HW1 7571   0.287   2.288   6.575
 2305SOL    HW2 7572   0.416   2.376   6.528
 2306SOL     OW 7573   1.138   2.242   7.264
 2306SOL    HW1 7574   1.093   2.305   7.328
 2306SOL    HW2 7575   1.231   2.273   7.247
 2307SOL     OW 7576   0.008   3.188   5.786
 2307SOL    HW1 7577  -0.085   3.209   5.755
 2307SOL    HW2 7578   0.018   3.089   5.799
 2308SOL     OW 7579   0.088   3.663   6.513
 2308SOL    HW1 7580   0.046   3.577   6.486
 2308SOL    HW2 7581   0.182   3.666   6.479
 2309SOL     OW 7582   0.504   3.430   6.496
 2309SOL    HW1 7583   0.570   3.504   6.505
 2309SOL    HW2 7584   0.548   3.351   6.454
 2310SOL     OW 7585   1.002   2.658   6.824
 2310SOL    HW1 7586   1.043   2.626   6.910
 2310SOL    HW2 7587   0.906   2.631   6.821
 2311SOL     OW 7588   0.040   2.406   6.700
 2311SOL    HW1 7589   0.125   2.373   6.659
 2311SOL    HW2 7590   0.053   2.421   6.798
 2312SOL     OW 7591   0.189   2.382   7.308
 2312SOL    HW1 7592   0.248   2.342   7.238
 2312SOL    HW2 7593   0.131   2.453   7.267
 2313SOL     OW 7594   0.815   2.434   5.911
 2313SOL    HW1 7595   0.822   2.345   5.865
 2313SOL    HW2 7596   0.721   2.468   5.903
 2314SOL     OW 7597   0.252   3.426   7.330
 2314SOL    HW1 7598   0.222   3.483   7.406
 2314SOL    HW2 7599   0.245   3.329   7.356
 2315SOL     OW 7600   0.671   2.326   6.855
 2315SOL    HW1 7601   0.637   2.237   6.825
 2315SOL    HW2 7602   0.697   2.380   6.775
 2316SOL     OW 7603   0.930   3.540   7.051
 2316SOL    HW1 7604   0.906   3.522   6.956
 2316SOL    HW2 7605   0.960   3.634   7.061
 2317SOL     OW 7606   0.473   2.362   5.777
 2317SOL    HW1 7607   0.534   2.442   5.781
 2317SOL    HW2 7608   0.378   2.393   5.784
 2318SOL     OW 7609   0.159   2.999   7.052
 2318SOL    HW1 7610   0.181   2.938   7.128
 2318SOL    HW2 7611   0.169   2.950   6.966
 2319SOL     OW 7612   1.347   2.921   6.820
 2319SOL    HW1 7613   1.371   2.858   6.746
 2319SOL    HW2 7614   1.257   2.961   6.802
 2320SOL     OW 7615   1.302   2.717   5.895
 2320SOL    HW1 7616   1.216   2.686   5.937
 2320SOL    HW2 7617   1.298   2.703   5.796
 2321SOL     OW 7618   1.759   3.609   6.740
 2321SOL    HW1 7619   1.820   3.639   6.667
 2321SOL    HW2 7620   1.721   3.520   6.718
 2322SOL     OW 7621   1.252   3.593   6.714
 2322SOL    HW1 7622   1.336   3.598   6.660
 2322SOL    HW2 7623   1.229   3.497   6.732
 2323SOL     OW 7624   0.083   3.120   6.608
 2323SOL    HW1 7625   0.078   3.119   6.708
 2323SOL    HW2 7626   0.000   3.079   6.570
 2324SOL     OW 7627   0.688   3.524   7.302
 2324SOL    HW1 7628   0.632   3.605   7.311
 2324SOL    HW2 7629   0.740   3.528   7.216
 2325SOL     OW 7630   1.726   1.997   6.109
 2325SOL    HW1 7631   1.799   1.980   6.042
 2325SOL    HW2 7632   1.695   1.910   6.147
 2326SOL     OW 7633   1.388   3.435   6.063
 2326SOL    HW1 7634   1.455   3.447   5.989
 2326SOL    HW2 7635   1.348   3.524   6.086
 2327SOL     OW 7636   0.130   3.656   7.437
 2327SOL    HW1 7637   0.089   3.582   7.490
 2327SOL    HW2 7638   0.194   3.707   7.495
 2328SOL     OW 7639   1.280   2.789   6.258
 2328SOL    HW1 7640   1.340   2.708   6.260
 2328SOL    HW2 7641   1.320   2.858   6.198
 2329SOL     OW 7642   0.830   3.135   7.008
 2329SOL    HW1 7643   0.825   3.168   7.103
 2329SOL    HW2 7644   0.744   3.154   6.962
 2330SOL     OW 7645   0.672   3.478   5.740
 2330SOL    HW1 7646   0.681   3.488   5.641
 2330SOL    HW2 7647   0.632   3.389   5.761
 2331SOL     OW 7648   1.650   3.582   6.980
 2331SOL    HW1 7649   1.703   3.592   6.896
 2331SOL    HW2 7650   1.623   3.672   7.014
 2332SOL     OW 7651   0.263   2.188   6.306
 2332SOL    HW1 7652   0.184   2.239   6.272
 2332SOL    HW2 7653   0.254   2.173   6.404
 2333SOL     OW 7654   1.194   3.474   5.617
 2333SOL    HW1 7655   1.200   3.381   5.654
 2333SOL    HW2 7656   1.135   3.474   5.537
 2334SOL     OW 7657   0.822   2.864   6.958
 2334SOL    HW1 7658   0.862   2.863   6.866
 2334SOL    HW2 7659   0.832   2.956   6.998
 2335SOL     OW 7660   0.916   2.772   5.877
 2335SOL    HW1 7661   0.979   2.810   5.809
 2335SOL    HW2 7662   0.956   2.689   5.916
 2336SOL     OW 7663   1.504   3.469   5.630
 2336SOL    HW1 7664   1.412   3.506   5.637
 2336SOL    HW2 7665   1.542   3.489   5.540
 2337SOL     OW 7666   0.372   3.150   7.076
 2337SOL    HW1 7667   0.359   3.243   7.042
 2337SOL    HW2 7668   0.288   3.098   7.063
 2338SOL     OW 7669   1.614   3.154   6.875
 2338SOL    HW1 7670   1.674   3.157   6.955
 2338SOL    HW2 7671   1.539   3.218   6.888
 2339SOL     OW 7672   1.039   2.960   6.282
 2339SOL    HW1 7673   0.969   2.913   6.336
 2339SOL    HW2 7674   1.098   2.892   6.239
 2340SOL     OW 7675   0.590   3.349   6.077
 2340SOL    HW1 7676   0.632   3.291   6.007
 2340SOL    HW2 7677   0.546   3.428   6.033
 2341SOL     OW 7678   0.255   3.210   5.876
 2341SOL    HW1 7679   0.159   3.211   5.849
 2341SOL    HW2 7680   0.267   3.263   5.960
 2342SOL     OW 7681   0.105   2.875   7.312
 2342SOL    HW1 7682   0.028   2.842   7.366
 2342SOL    HW2 7683   0.190   2.845   7.354
 2343SOL     OW 7684   0.672   2.065   7.075
 2343SOL    HW1 7685   0.762   2.049   7.035
 2343SOL    HW2 7686   0.680   2.070   7.174
 2344SOL     OW 7687   0.075   2.207   5.619
 2344SOL    HW1 7688  -0.017   2.179   5.590
 2344SOL    HW2 7689   0.106   2.284   5.563
 2345SOL     OW 7690   0.072   2.028   5.904
 2345SOL    HW1 7691   0.055   2.111   5.850
 2345SOL    HW2 7692   0.162   1.991   5.882
 2346SOL     OW 7693   1.183   3.197   5.705
 2346SOL    HW1 7694   1.084   3.186   5.707
 2346SOL    HW2 7695   1.217   3.212   5.798
 2347SOL     OW 7696   0.613   2.704   7.017
 2347SOL    HW1 7697   0.669   2.785   7.000
 2347SOL    HW2 7698   0.672   2.624   7.020
 2348SOL     OW 7699   1.493   3.629   6.545
 2348SOL    HW1 7700   1.526   3.693   6.476
 2348SOL    HW2 7701   1.559   3.623   6.620
 2349SOL     OW 7702   0.716   2.427   7.294
 2349SOL    HW1 7703   0.735   2.492   7.368
 2349SOL    HW2 7704   0.776   2.347   7.303
 2350SOL     OW 7705   1.450   3.082   7.219
 2350SOL    HW1 7706   1.441   3.072   7.318
 2350SOL    HW2 7707   1.546   3.075   7.193
 2351SOL     OW 7708   0.390   3.603   7.146
 2351SOL    HW1 7709   0.299   3.644   7.144
 2351SOL    HW2 7710   0.383   3.509   7.178
 2352SOL     OW 7711   1.225   2.187   6.035
 2352SOL    HW1 7712   1.290   2.113   6.024
 2352SOL    HW2 7713   1.245   2.237   6.119
 2353SOL     OW 7714   0.594   2.607   6.238
 2353SOL    HW1 7715   0.644   2.692   6.219
 2353SOL    HW2 7716   0.506   2.609   6.190
 2354SOL     OW 7717   0.859   3.236   5.602
 2354SOL    HW1 7718   0.813   3.251   5.690
 2354SOL    HW2 7719   0.903   3.321   5.572
 2355SOL     OW 7720   0.661   3.652   6.539
 2355SOL    HW1 7721   0.615   3.740   6.526
 2355SOL    HW2 7722   0.760   3.664   6.532
 2356SOL     OW 7723   0.859   2.818   6.447
 2356SOL    HW1 7724   0.913   2.749   6.495
 2356SOL    HW2 7725   0.827   2.887   6.513
 2357SOL     OW 7726   1.083   2.846   5.673
 2357SOL    HW1 7727   1.060   2.899   5.591
 2357SOL    HW2 7728   1.164   2.790   5.654
 2358SOL     OW 7729   1.861   3.431   6.437
 2358SOL    HW1 7730   1.790   3.419   6.367
 2358SOL    HW2 7731   1.862   3.352   6.497
 2359SOL     OW 7732   0.221   3.176   7.430
 2359SOL    HW1 7733   0.156   3.103   7.409
 2359SOL    HW2 7734   0.225   3.190   7.528
 2360SOL     OW 7735   0.079   3.102   6.239
 2360SOL    HW1 7736   0.078   3.055   6.327
 2360SOL    HW2 7737   0.161   3.074   6.188
 2361SOL     OW 7738   0.672   3.253   7.210
 2361SOL    HW1 7739   0.594   3.203   7.248
 2361SOL    HW2 7740   0.669   3.348   7.241
 2362SOL     OW 7741   0.428   2.286   6.106
 2362SOL    HW1 7742   0.458   2.214   6.044
 2362SOL    HW2 7743   0.389   2.246   6.189
 2363SOL     OW 7744   1.705   3.349   6.690
 2363SOL    HW1 7745   1.612   3.324   6.663
 2363SOL    HW2 7746   1.731   3.299   6.772
 2364SOL     OW 7747   0.317   2.409   6.866
 2364SOL    HW1 7748   0.355   2.350   6.938
 2364SOL    HW2 7749   0.357   2.383   6.778
 2365SOL     OW 7750   0.812   3.448   6.273
 2365SOL    HW1 7751   0.844   3.458   6.179
 2365SOL    HW2 7752   0.733   3.386   6.275
 2366SOL     OW 7753   0.770   3.192   5.887
 2366SOL    HW1 7754   0.724   3.105   5.904
 2366SOL    HW2 7755   0.861   3.189   5.928
 2367SOL     OW 7756   0.618   3.429   6.870
 2367SOL    HW1 7757   0.613   3.511   6.927
 2367SOL    HW2 7758   0.707   3.426   6.825
 2368SOL     OW 7759   1.352   1.914   5.754
 2368SOL    HW1 7760   1.387   1.873   5.670
 2368SOL    HW2 7761   1.262   1.876   5.774
 2369SOL     OW 7762   1.300   2.315   6.277
 2369SOL    HW1 7763   1.241   2.395   6.281
 2369SOL    HW2 7764   1.315   2.280   6.370
 2370SOL     OW 7765   1.593   2.083   6.468
 2370SOL    HW1 7766   1.509   2.082   6.522
 2370SOL    HW2 7767   1.595   2.166   6.412
 2371SOL     OW 7768   0.039   2.939   5.886
 2371SOL    HW1 7769   0.138   2.928   5.877
 2371SOL    HW2 7770  -0.001   2.853   5.918
 2372SOL     OW 7771   0.875   3.508   5.923
 2372SOL    HW1 7772   0.798   3.473   5.869
 2372SOL    HW2 7773   0.843   3.579   5.985
 2373SOL     OW 7774   0.230   2.490   7.561
 2373SOL    HW1 7775   0.137   2.488   7.598
 2373SOL    HW2 7776   0.231   2.451   7.469
 2374SOL     OW 7777   0.225   2.137   8.444
 2374SOL    HW1 7778   0.260   2.120   8.536
 2374SOL    HW2 7779   0.137   2.092   8.432
 2375SOL     OW 7780   0.019   2.230   8.095
 2375SOL    HW1 7781  -0.063   2.273   8.134
 2375SOL    HW2 7782  -0.009   2.157   8.032
 2376SOL     OW 7783   0.569   3.137   8.613
 2376SOL    HW1 7784   0.476   3.130   8.576
 2376SOL    HW2 7785   0.580   3.226   8.657
 2377SOL     OW 7786   1.555   3.373   8.151
 2377SOL    HW1 7787   1.498   3.357   8.232
 2377SOL    HW2 7788   1.496   3.383   8.071
 2378SOL     OW 7789   1.135   2.565   8.165
 2378SOL    HW1 7790   1.192   2.643   8.140
 2378SOL    HW2 7791   1.075   2.591   8.241
 2379SOL     OW 7792   1.755   2.469   7.679
 2379SOL    HW1 7793   1.743   2.456   7.580
 2379SOL    HW2 7794   1.725   2.388   7.728
 2380SOL     OW 7795   0.768   3.006   8.471
 2380SOL    HW1 7796   0.690   3.023   8.531
 2380SOL    HW2 7797   0.802   3.093   8.435
 2381SOL     OW 7798   0.850   2.660   9.271
 2381SOL    HW1 7799   0.846   2.736   9.336
 2381SOL    HW2 7800   0.872   2.696   9.180
 2382SOL     OW 7801   0.685   2.874   8.113
 2382SOL    HW1 7802   0.754   2.858   8.183
 2382SOL    HW2 7803   0.612   2.931   8.151
 2383SOL     OW 7804   0.686   3.023   9.251
 2383SOL    HW1 7805   0.746   3.102   9.265
 2383SOL    HW2 7806   0.600   3.054   9.210
 2384SOL     OW 7807   0.335   3.297   8.509
 2384SOL    HW1 7808   0.257   3.266   8.456
 2384SOL    HW2 7809   0.393   3.355   8.452
 2385SOL     OW 7810   1.460   3.367   8.787
 2385SOL    HW1 7811   1.484   3.461   8.813
 2385SOL    HW2 7812   1.444   3.313   8.869
 2386SOL     OW 7813   0.438   2.254   8.947
 2386SOL    HW1 7814   0.520   2.198   8.956
 2386SOL    HW2 7815   0.357   2.196   8.951
 2387SOL     OW 7816   1.603   2.309   8.185
 2387SOL    HW1 7817   1.529   2.355   8.135
 2387SOL    HW2 7818   1.654   2.377   8.238
 2388SOL     OW 7819   0.231   3.575   7.931
 2388SOL    HW1 7820   0.265   3.652   7.985
 2388SOL    HW2 7821   0.275   3.575   7.841
 2389SOL     OW 7822   1.127   3.203   9.138
 2389SOL    HW1 7823   1.174   3.203   9.226
 2389SOL    HW2 7824   1.079   3.116   9.127
 2390SOL     OW 7825   0.230   3.296   7.986
 2390SOL    HW1 7826   0.204   3.392   7.986
 2390SOL    HW2 7827   0.159   3.242   8.031
 2391SOL     OW 7828   0.240   2.953   8.334
 2391SOL    HW1 7829   0.254   2.869   8.386
 2391SOL    HW2 7830   0.185   3.017   8.389
 2392SOL     OW 7831   0.620   3.648   8.887
 2392SOL    HW1 7832   0.528   3.631   8.922
 2392SOL    HW2 7833   0.648   3.740   8.913
 2393SOL     OW 7834   0.606   2.826   7.571
 2393SOL    HW1 7835   0.613   2.910   7.517
 2393SOL    HW2 7836   0.652   2.839   7.659
 2394SOL     OW 7837   1.594   1.976   8.928
 2394SOL    HW1 7838   1.576   2.043   8.856
 2394SOL    HW2 7839   1.591   2.022   9.017
 2395SOL     OW 7840   0.122   2.505   8.011
 2395SOL    HW1 7841   0.077   2.417   8.028
 2395SOL    HW2 7842   0.121   2.559   8.095
 2396SOL     OW 7843   1.842   3.629   7.807
 2396SOL    HW1 7844   1.896   3.600   7.887
 2396SOL    HW2 7845   1.872   3.719   7.778
 2397SOL     OW 7846   0.027   3.458   7.565
 2397SOL    HW1 7847   0.008   3.362   7.586
 2397SOL    HW2 7848  -0.006   3.516   7.640
 2398SOL     OW 7849   1.689   2.784   8.060
 2398SOL    HW1 7850   1.784   2.755   8.068
 2398SOL    HW2 7851   1.681   2.849   7.985
 2399SOL     OW 7852   1.641   2.970   7.880
 2399SOL    HW1 7853   1.727   2.972   7.828
 2399SOL    HW2 7854   1.655   3.017   7.968
 2400SOL     OW 7855   0.113   2.599   9.045
 2400SOL    HW1 7856   0.201   2.586   9.090
 2400SOL    HW2 7857   0.100   2.696   9.023
 2401SOL     OW 7858   0.613   3.227   8.174
 2401SOL    HW1 7859   0.564   3.140   8.183
 2401SOL    HW2 7860   0.590   3.270   8.087
 2402SOL     OW 7861   1.293   3.090   8.871
 2402SOL    HW1 7862   1.330   3.017   8.813
 2402SOL    HW2 7863   1.345   3.095   8.956
 2403SOL     OW 7864   0.809   1.866   7.950
 2403SOL    HW1 7865   0.849   1.957   7.941
 2403SOL    HW2 7866   0.709   1.874   7.956
 2404SOL     OW 7867   0.197   2.838   8.712
 2404SOL    HW1 7868   0.286   2.793   8.698
 2404SOL    HW2 7869   0.124   2.773   8.693
 2405SOL     OW 7870   1.525   2.861   7.638
 2405SOL    HW1 7871   1.462   2.785   7.651
 2405SOL    HW2 7872   1.573   2.879   7.724
 2406SOL     OW 7873   1.187   3.654   9.064
 2406SOL    HW1 7874   1.211   3.714   8.988
 2406SOL    HW2 7875   1.194   3.559   9.034
 2407SOL     OW 7876   0.317   2.113   9.249
 2407SOL    HW1 7877   0.388   2.184   9.255
 2407SOL    HW2 7878   0.229   2.152   9.277
 2408SOL     OW 7879   1.466   3.279   8.401
 2408SOL    HW1 7880   1.407   3.285   8.481
 2408SOL    HW2 7881   1.451   3.191   8.355
 2409SOL     OW 7882   1.667   3.576   8.020
 2409SOL    HW1 7883   1.626   3.553   7.932
 2409SOL    HW2 7884   1.649   3.502   8.085
 2410SOL     OW 7885   0.598   2.591   7.718
 2410SOL    HW1 7886   0.622   2.660   7.650
 2410SOL    HW2 7887   0.520   2.624   7.772
 2411SOL     OW 7888   1.281   2.207   8.392
 2411SOL    HW1 7889   1.195   2.157   8.379
 2411SOL    HW2 7890   1.343   2.153   8.448
 2412SOL     OW 7891   1.576   3.524   7.755
 2412SOL    HW1 7892   1.665   3.570   7.758
 2412SOL    HW2 7893   1.555   3.500   7.660
 2413SOL     OW 7894   0.807   2.467   8.913
 2413SOL    HW1 7895   0.760   2.464   9.002
 2413SOL    HW2 7896   0.756   2.412   8.847
 2414SOL     OW 7897   1.394   2.331   9.122
 2414SOL    HW1 7898   1.374   2.374   9.210
 2414SOL    HW2 7899   1.472   2.269   9.131
 2415SOL     OW 7900   0.973   2.752   9.020
 2415SOL    HW1 7901   1.019   2.668   8.991
 2415SOL    HW2 7902   0.917   2.786   8.945
 2416SOL     OW 7903   0.991   2.272   8.690
 2416SOL    HW1 7904   0.914   2.306   8.744
 2416SOL    HW2 7905   0.957   2.221   8.611
 2417SOL     OW 7906   1.041   2.563   7.877
 2417SOL    HW1 7907   1.067   2.559   7.973
 2417SOL    HW2 7908   0.956   2.512   7.863
 2418SOL     OW 7909   0.076   2.673   8.237
 2418SOL    HW1 7910   0.175   2.661   8.246
 2418SOL    HW2 7911   0.052   2.768   8.258
 2419SOL     OW 7912   0.130   3.683   9.019
 2419SOL    HW1 7913   0.120   3.668   9.118
 2419SOL    HW2 7914   0.044   3.719   8.983
 2420SOL     OW 7915   0.865   2.210   7.643
 2420SOL    HW1 7916   0.924   2.273   7.594
 2420SOL    HW2 7917   0.884   2.116   7.614
 2421SOL     OW 7918   1.719   2.447   9.279
 2421SOL    HW1 7919   1.693   2.536   9.243
 2421SOL    HW2 7920   1.717   2.379   9.206
 2422SOL     OW 7921   1.362   3.006   7.993
 2422SOL    HW1 7922   1.445   2.977   7.945
 2422SOL    HW2 7923   1.313   3.073   7.937
 2423SOL     OW 7924   0.550   2.058   8.333
 2423SOL    HW1 7925   0.545   2.053   8.433
 2423SOL    HW2 7926   0.552   2.154   8.304
 2424SOL     OW 7927   1.008   3.318   7.925
 2424SOL    HW1 7928   0.962   3.390   7.873
 2424SOL    HW2 7929   1.004   3.338   8.023
 2425SOL     OW 7930   0.351   3.663   8.301
 2425SOL    HW1 7931   0.401   3.577   8.307
 2425SOL    HW2 7932   0.416   3.740   8.298
 2426SOL     OW 7933   1.795   2.928   8.321
 2426SOL    HW1 7934   1.733   2.913   8.245
 2426SOL    HW2 7935   1.743   2.939   8.406
 2427SOL     OW 7936   1.227   3.412   8.954
 2427SOL    HW1 7937   1.233   3.335   9.018
 2427SOL    HW2 7938   1.175   3.386   8.874
 2428SOL     OW 7939   0.321   2.805   7.690
 2428SOL    HW1 7940   0.403   2.844   7.648
 2428SOL    HW2 7941   0.294   2.723   7.641
 2429SOL     OW 7942   1.458   2.597   8.176
 2429SOL    HW1 7943   1.453   2.532   8.251
 2429SOL    HW2 7944   1.538   2.656   8.189
 2430SOL     OW 7945   0.461   3.128   9.175
 2430SOL    HW1 7946   0.411   3.129   9.089
 2430SOL    HW2 7947   0.398   3.110   9.251
 2431SOL     OW 7948   1.111   3.638   7.685
 2431SOL    HW1 7949   1.051   3.576   7.735
 2431SOL    HW2 7950   1.142   3.594   7.600
 2432SOL     OW 7951   0.202   2.147   8.946
 2432SOL    HW1 7952   0.122   2.207   8.933
 2432SOL    HW2 7953   0.192   2.098   9.032
 2433SOL     OW 7954   1.632   3.239   7.529
 2433SOL    HW1 7955   1.600   3.333   7.519
 2433SOL    HW2 7956   1.556   3.176   7.517
 2434SOL     OW 7957   0.464   3.605   7.771
 2434SOL    HW1 7958   0.497   3.644   7.857
 2434SOL    HW2 7959   0.540   3.598   7.706
 2435SOL     OW 7960   1.400   1.969   7.874
 2435SOL    HW1 7961   1.376   1.932   7.784
 2435SOL    HW2 7962   1.499   1.985   7.878
 2436SOL     OW 7963   0.249   3.647   8.689
 2436SOL    HW1 7964   0.306   3.582   8.739
 2436SOL    HW2 7965   0.233   3.614   8.596
 2437SOL     OW 7966   0.940   3.560   8.352
 2437SOL    HW1 7967   1.020   3.503   8.373
 2437SOL    HW2 7968   0.891   3.520   8.275
 2438SOL     OW 7969   0.382   2.562   7.928
 2438SOL    HW1 7970   0.427   2.472   7.925
 2438SOL    HW2 7971   0.288   2.551   7.961
 2439SOL     OW 7972   1.547   2.084   9.177
 2439SOL    HW1 7973   1.542   2.121   9.269
 2439SOL    HW2 7974   1.475   2.015   9.165
 2440SOL     OW 7975   0.614   1.984   7.565
 2440SOL    HW1 7976   0.712   1.962   7.572
 2440SOL    HW2 7977   0.583   1.967   7.472
 2441SOL     OW 7978   0.781   2.126   9.197
 2441SOL    HW1 7979   0.848   2.065   9.240
 2441SOL    HW2 7980   0.708   2.145   9.262
 2442SOL     OW 7981   0.888   3.376   8.643
 2442SOL    HW1 7982   0.865   3.351   8.549
 2442SOL    HW2 7983   0.949   3.307   8.682
 2443SOL     OW 7984   1.351   2.452   8.881
 2443SOL    HW1 7985   1.379   2.409   8.966
 2443SOL    HW2 7986   1.376   2.548   8.882
 2444SOL     OW 7987   0.803   3.264   8.372
 2444SOL    HW1 7988   0.893   3.278   8.330
 2444SOL    HW2 7989   0.732   3.266   8.301
 2445SOL     OW 7990   0.922   2.365   8.347
 2445SOL    HW1 7991   0.897   2.356   8.251
 2445SOL    HW2 7992   0.970   2.283   8.378
 2446SOL     OW 7993   0.539   1.926   7.960
 2446SOL    HW1 7994   0.458   1.927   8.018
 2446SOL    HW2 7995   0.542   2.009   7.905
 2447SOL     OW 7996   1.434   3.050   7.489
 2447SOL    HW1 7997   1.466   2.974   7.546
 2447SOL    HW2 7998   1.342   3.077   7.519
 2448SOL     OW 7999   0.297   1.897   7.619
 2448SOL    HW1 8000   0.346   1.981   7.598
 2448SOL    HW2 8001   0.359   1.832   7.664
 2449SOL     OW 8002   0.935   2.098   7.928
 2449SOL    HW1 8003   0.887   2.139   7.850
 2449SOL    HW2 8004   1.034   2.096   7.909
 2450SOL     OW 8005   1.076   2.545   8.912
 2450SOL    HW1 8006   0.996   2.484   8.915
 2450SOL    HW2 8007   1.157   2.492   8.888
 2451SOL     OW 8008   1.227   3.432   8.241
 2451SOL    HW1 8009   1.248   3.506   8.176
 2451SOL    HW2 8010   1.295   3.432   8.314
 2452SOL     OW 8011   0.459   3.014   8.189
 2452SOL    HW1 8012   0.388   2.987   8.254
 2452SOL    HW2 8013   0.433   2.986   8.096
 2453SOL     OW 8014   1.271   3.659   8.039
 2453SOL    HW1 8015   1.315   3.723   7.975
 2453SOL    HW2 8016   1.221   3.711   8.109
 2454SOL     OW 8017   1.032   2.411   7.464
 2454SOL    HW1 8018   0.991   2.493   7.425
 2454SOL    HW2 8019   1.096   2.437   7.537
 2455SOL     OW 8020   0.078   2.418   8.834
 2455SOL    HW1 8021   0.170   2.417   8.793
 2455SOL    HW2 8022   0.072   2.492   8.901
 2456SOL     OW 8023   0.561   2.084   8.595
 2456SOL    HW1 8024   0.599   2.000   8.632
 2456SOL    HW2 8025   0.473   2.103   8.639
 2457SOL     OW 8026   0.866   2.316   8.090
 2457SOL    HW1 8027   0.834   2.388   8.028
 2457SOL    HW2 8028   0.890   2.235   8.037
 2458SOL     OW 8029   1.017   1.901   8.201
 2458SOL    HW1 8030   0.945   1.906   8.132
 2458SOL    HW2 8031   0.993   1.832   8.270
 2459SOL     OW 8032   1.429   3.035   8.315
 2459SOL    HW1 8033   1.374   2.951   8.308
 2459SOL    HW2 8034   1.455   3.064   8.223
 2460SOL     OW 8035   1.466   2.452   8.440
 2460SOL    HW1 8036   1.436   2.357   8.447
 2460SOL    HW2 8037   1.539   2.468   8.506
 2461SOL     OW 8038   1.857   2.695   7.825
 2461SOL    HW1 8039   1.899   2.631   7.889
 2461SOL    HW2 8040   1.819   2.644   7.747
 2462SOL     OW 8041   0.488   3.247   7.622
 2462SOL    HW1 8042   0.401   3.232   7.669
 2462SOL    HW2 8043   0.471   3.273   7.527
 2463SOL     OW 8044   1.664   3.142   8.105
 2463SOL    HW1 8045   1.763   3.150   8.119
 2463SOL    HW2 8046   1.619   3.226   8.136
 2464SOL     OW 8047   0.527   2.118   7.776
 2464SOL    HW1 8048   0.554   2.059   7.701
 2464SOL    HW2 8049   0.527   2.213   7.745
 2465SOL     OW 8050   1.754   3.085   9.036
 2465SOL    HW1 8051   1.845   3.046   9.023
 2465SOL    HW2 8052   1.762   3.181   9.060
 2466SOL     OW 8053   1.064   3.209   8.788
 2466SOL    HW1 8054   0.984   3.186   8.843
 2466SOL    HW2 8055   1.147   3.183   8.837
 2467SOL     OW 8056   1.592   3.491   9.073
 2467SOL    HW1 8057   1.619   3.525   8.983
 2467SOL    HW2 8058   1.671   3.453   9.119
 2468SOL     OW 8059   1.111   3.057   8.548
 2468SOL    HW1 8060   1.071   3.101   8.629
 2468SOL    HW2 8061   1.070   3.094   8.465
 2469SOL     OW 8062   1.638   2.961   8.527
 2469SOL    HW1 8063   1.643   3.042   8.586
 2469SOL    HW2 8064   1.552   2.963   8.476
 2470SOL     OW 8065   0.915   1.951   8.850
 2470SOL    HW1 8066   0.940   1.931   8.755
 2470SOL    HW2 8067   0.987   2.007   8.892
 2471SOL     OW 8068   0.980   2.978   9.167
 2471SOL    HW1 8069   0.881   2.984   9.177
 2471SOL    HW2 8070   1.003   2.898   9.111
 2472SOL     OW 8071   0.705   2.912   7.816
 2472SOL    HW1 8072   0.691   2.919   7.915
 2472SOL    HW2 8073   0.789   2.861   7.798
 2473SOL     OW 8074   0.410   2.675   8.699
 2473SOL    HW1 8075   0.496   2.687   8.749
 2473SOL    HW2 8076   0.368   2.588   8.726
 2474SOL     OW 8077   1.274   2.248   8.710
 2474SOL    HW1 8078   1.295   2.322   8.774
 2474SOL    HW2 8079   1.185   2.265   8.667
 2475SOL     OW 8080   0.064   3.426   8.779
 2475SOL    HW1 8081   0.018   3.508   8.745
 2475SOL    HW2 8082   0.162   3.445   8.788
 2476SOL     OW 8083   0.367   2.962   7.949
 2476SOL    HW1 8084   0.360   3.045   7.893
 2476SOL    HW2 8085   0.371   2.882   7.889
 2477SOL     OW 8086   0.566   2.399   8.313
 2477SOL    HW1 8087   0.578   2.465   8.239
 2477SOL    HW2 8088   0.612   2.433   8.396
 2478SOL     OW 8089   1.252   3.210   7.836
 2478SOL    HW1 8090   1.302   3.287   7.876
 2478SOL    HW2 8091   1.157   3.212   7.868
 2479SOL     OW 8092   1.272   3.307   8.590
 2479SOL    HW1 8093   1.319   3.320   8.677
 2479SOL    HW2 8094   1.206   3.233   8.599
 2480SOL     OW 8095   1.582   2.501   7.920
 2480SOL    HW1 8096   1.551   2.562   7.993
 2480SOL    HW2 8097   1.632   2.553   7.851
 2481SOL     OW 8098   0.354   3.372   8.777
 2481SOL    HW1 8099   0.333   3.328   8.690
 2481SOL    HW2 8100   0.451   3.398   8.780
 2482SOL     OW 8101   0.402   2.613   9.046
 2482SOL    HW1 8102   0.470   2.668   8.999
 2482SOL    HW2 8103   0.442   2.525   9.073
 2483SOL     OW 8104   1.587   2.641   9.118
 2483SOL    HW1 8105   1.495   2.679   9.113
 2483SOL    HW2 8106   1.647   2.688   9.053
 2484SOL     OW 8107   1.013   1.967   9.218
 2484SOL    HW1 8108   1.019   2.052   9.166
 2484SOL    HW2 8109   1.045   1.891   9.161
 2485SOL     OW 8110   0.504   1.912   9.188
 2485SOL    HW1 8111   0.462   1.855   9.118
 2485SOL    HW2 8112   0.438   1.981   9.220
 2486SOL     OW 8113   0.573   2.732   8.477
 2486SOL    HW1 8114   0.617   2.821   8.468
 2486SOL    HW2 8115   0.510   2.732   8.554
 2487SOL     OW 8116   1.360   2.724   8.493
 2487SOL    HW1 8117   1.285   2.724   8.427
 2487SOL    HW2 8118   1.397   2.632   8.502
 2488SOL     OW 8119   1.209   2.387   7.723
 2488SOL    HW1 8120   1.222   2.303   7.777
 2488SOL    HW2 8121   1.180   2.461   7.783
 2489SOL     OW 8122   0.307   2.075   8.679
 2489SOL    HW1 8123   0.284   2.112   8.769
 2489SOL    HW2 8124   0.277   1.980   8.673
 2490SOL     OW 8125   0.037   3.172   8.730
 2490SOL    HW1 8126   0.090   3.123   8.798
 2490SOL    HW2 8127   0.059   3.270   8.735
 2491SOL     OW 8128   0.732   2.496   8.512
 2491SOL    HW1 8129   0.791   2.470   8.436
 2491SOL    HW2 8130   0.704   2.592   8.501
 2492SOL     OW 8131   1.728   2.797   9.302
 2492SOL    HW1 8132   1.682   2.790   9.213
 2492SOL    HW2 8133   1.666   2.841   9.368
 2493SOL     OW 8134   0.307   1.925   8.066
 2493SOL    HW1 8135   0.296   2.019   8.099
 2493SOL    HW2 8136   0.302   1.862   8.143
 2494SOL     OW 8137   1.622   2.229   7.822
 2494SOL    HW1 8138   1.624   2.153   7.886
 2494SOL    HW2 8139   1.574   2.306   7.862
 2495SOL     OW 8140   1.023   2.628   8.414
 2495SOL    HW1 8141   1.038   2.649   8.510
 2495SOL    HW2 8142   0.993   2.533   8.405
 2496SOL     OW 8143   0.980   3.435   9.148
 2496SOL    HW1 8144   0.960   3.479   9.060
 2496SOL    HW2 8145   1.019   3.344   9.132
 2497SOL     OW 8146   1.859   3.380   9.053
 2497SOL    HW1 8147   1.873   3.407   8.958
 2497SOL    HW2 8148   1.942   3.402   9.106
 2498SOL     OW 8149   0.350   2.760   9.252
 2498SOL    HW1 8150   0.426   2.804   9.300
 2498SOL    HW2 8151   0.385   2.713   9.170
 2499SOL     OW 8152   1.303   2.700   7.490
 2499SOL    HW1 8153   1.337   2.607   7.505
 2499SOL    HW2 8154   1.321   2.727   7.395
 2500SOL     OW 8155   1.068   3.195   8.297
 2500SOL    HW1 8156   1.075   3.111   8.242
 2500SOL    HW2 8157   1.130   3.264   8.261
 2501SOL     OW 8158   0.319   2.672   8.397
 2501SOL    HW1 8159   0.412   2.708   8.402
 2501SOL    HW2 8160   0.313   2.587   8.449
 2502SOL     OW 8161   0.339   2.371   8.454
 2502SOL    HW1 8162   0.287   2.288   8.437
 2502SOL    HW2 8163   0.416   2.376   8.390
 2503SOL     OW 8164   1.138   2.242   9.126
 2503SOL    HW1 8165   1.093   2.305   9.190
 2503SOL    HW2 8166   1.231   2.273   9.109
 2504SOL     OW 8167   1.160   2.069   8.925
 2504SOL    HW1 8168   1.160   2.133   9.002
 2504SOL    HW2 8169   1.188   2.117   8.842
 2505SOL     OW 8170   0.008   3.188   7.648
 2505SOL    HW1 8171  -0.085   3.209   7.617
 2505SOL    HW2 8172   0.018   3.089   7.661
 2506SOL     OW 8173   0.088   3.663   8.375
 2506SOL    HW1 8174   0.046   3.577   8.348
 2506SOL    HW2 8175   0.182   3.666   8.341
 2507SOL     OW 8176   0.504   3.430   8.358
 2507SOL    HW1 8177   0.570   3.504   8.367
 2507SOL    HW2 8178   0.548   3.351   8.316
 2508SOL     OW 8179   1.002   2.658   8.686
 2508SOL    HW1 8180   1.043   2.626   8.772
 2508SOL    HW2 8181   0.906   2.631   8.683
 2509SOL     OW 8182   0.040   2.406   8.562
 2509SOL    HW1 8183   0.125   2.373   8.521
 2509SOL    HW2 8184   0.053   2.421   8.660
 2510SOL     OW 8185   0.189   2.382   9.170
 2510SOL    HW1 8186   0.248   2.342   9.100
 2510SOL    HW2 8187   0.131   2.453   9.129
 2511SOL     OW 8188   1.369   2.812   9.108
 2511SOL    HW1 8189   1.408   2.901   9.128
 2511SOL    HW2 8190   1.379   2.792   9.011
 2512SOL     OW 8191   0.815   2.434   7.773
 2512SOL    HW1 8192   0.822   2.345   7.727
 2512SOL    HW2 8193   0.721   2.468   7.765
 2513SOL     OW 8194   1.657   2.466   8.654
 2513SOL    HW1 8195   1.619   2.397   8.716
 2513SOL    HW2 8196   1.739   2.430   8.610
 2514SOL     OW 8197   0.252   3.426   9.192
 2514SOL    HW1 8198   0.222   3.483   9.268
 2514SOL    HW2 8199   0.245   3.329   9.218
 2515SOL     OW 8200   0.671   2.326   8.717
 2515SOL    HW1 8201   0.637   2.237   8.687
 2515SOL    HW2 8202   0.697   2.380   8.637
 2516SOL     OW 8203   0.930   3.540   8.913
 2516SOL    HW1 8204   0.906   3.522   8.818
 2516SOL    HW2 8205   0.960   3.634   8.923
 2517SOL     OW 8206   0.473   2.362   7.639
 2517SOL    HW1 8207   0.534   2.442   7.643
 2517SOL    HW2 8208   0.378   2.393   7.646
 2518SOL     OW 8209   0.159   2.999   8.914
 2518SOL    HW1 8210   0.181   2.938   8.990
 2518SOL    HW2 8211   0.169   2.950   8.828
 2519SOL     OW 8212   1.347   2.921   8.682
 2519SOL    HW1 8213   1.371   2.858   8.608
 2519SOL    HW2 8214   1.257   2.961   8.664
 2520SOL     OW 8215   1.302   2.717   7.757
 2520SOL    HW1 8216   1.216   2.686   7.799
 2520SOL    HW2 8217   1.298   2.703   7.658
 2521SOL     OW 8218   1.759   3.609   8.602
 2521SOL    HW1 8219   1.820   3.639   8.529
 2521SOL    HW2 8220   1.721   3.520   8.580
 2522SOL     OW 8221   1.252   3.593   8.576
 2522SOL    HW1 8222   1.336   3.598   8.522
 2522SOL    HW2 8223   1.229   3.497   8.594
 2523SOL     OW 8224   0.083   3.120   8.470
 2523SOL    HW1 8225   0.078   3.119   8.570
 2523SOL    HW2 8226   0.000   3.079   8.432
 2524SOL     OW 8227   0.688   3.524   9.164
 2524SOL    HW1 8228   0.632   3.605   9.173
 2524SOL    HW2 8229   0.740   3.528   9.078
 2525SOL     OW 8230   1.726   1.997   7.971
 2525SOL    HW1 8231   1.799   1.980   7.904
 2525SOL    HW2 8232   1.695   1.910   8.009
 2526SOL     OW 8233   1.388   3.435   7.925
 2526SOL    HW1 8234   1.455   3.447   7.851
 2526SOL    HW2 8235   1.348   3.524   7.948
 2527SOL     OW 8236   0.130   3.656   9.299
 2527SOL    HW1 8237   0.089   3.582   9.352
 2527SOL    HW2 8238   0.194   3.707   9.357
 2528SOL     OW 8239   1.280   2.789   8.120
 2528SOL    HW1 8240   1.340   2.708   8.122
 2528SOL    HW2 8241   1.320   2.858   8.060
 2529SOL     OW 8242   0.830   3.135   8.870
 2529SOL    HW1 8243   0.825   3.168   8.965
 2529SOL    HW2 8244   0.744   3.154   8.824
 2530SOL     OW 8245   0.672   3.478   7.602
 2530SOL    HW1 8246   0.681   3.488   7.503
 2530SOL    HW2 8247   0.632   3.389   7.623
 2531SOL     OW 8248   1.650   3.582   8.842
 2531SOL    HW1 8249   1.703   3.592   8.758
 2531SOL    HW2 8250   1.623   3.672   8.876
 2532SOL     OW 8251   0.263   2.188   8.168
 2532SOL    HW1 8252   0.184   2.239   8.134
 2532SOL    HW2 8253   0.254   2.173   8.266
 2533SOL     OW 8254   1.194   3.474   7.479
 2533SOL    HW1 8255   1.200   3.381   7.516
 2533SOL    HW2 8256   1.135   3.474   7.399
 2534SOL     OW 8257   0.822   2.864   8.820
 2534SOL    HW1 8258   0.862   2.863   8.728
 2534SOL    HW2 8259   0.832   2.956   8.860
 2535SOL     OW 8260   0.916   2.772   7.739
 2535SOL    HW1 8261   0.979   2.810   7.671
 2535SOL    HW2 8262   0.956   2.689   7.778
 2536SOL     OW 8263   1.504   3.469   7.492
 2536SOL    HW1 8264   1.412   3.506   7.499
 2536SOL    HW2 8265   1.542   3.489   7.402
 2537SOL     OW 8266   0.372   3.150   8.938
 2537SOL    HW1 8267   0.359   3.243   8.904
 2537SOL    HW2 8268   0.288   3.098   8.925
 2538SOL     OW 8269   1.614   3.154   8.737
 2538SOL    HW1 8270   1.674   3.157   8.817
 2538SOL    HW2 8271   1.539   3.218   8.750
 2539SOL     OW 8272   1.039   2.960   8.144
 2539SOL    HW1 8273   0.969   2.913   8.198
 2539SOL    HW2 8274   1.098   2.892   8.101
 2540SOL     OW 8275   1.014   2.098   8.419
 2540SOL    HW1 8276   1.006   2.062   8.326
 2540SOL    HW2 8277   1.012   2.022   8.484
 2541SOL     OW 8278   0.590   3.349   7.939
 2541SOL    HW1 8279   0.632   3.291   7.869
 2541SOL    HW2 8280   0.546   3.428   7.895
 2542SOL     OW 8281   1.709   2.247   8.829
 2542SOL    HW1 8282   1.782   2.316   8.833
 2542SOL    HW2 8283   1.737   2.172   8.770
 2543SOL     OW 8284   0.255   3.210   7.738
 2543SOL    HW1 8285   0.159   3.211   7.711
 2543SOL    HW2 8286   0.267   3.263   7.822
 2544SOL     OW 8287   0.105   2.875   9.174
 2544SOL    HW1 8288   0.028   2.842   9.228
 2544SOL    HW2 8289   0.190   2.845   9.216
 2545SOL     OW 8290   0.672   2.065   8.937
 2545SOL    HW1 8291   0.762   2.049   8.897
 2545SOL    HW2 8292   0.680   2.070   9.036
 2546SOL     OW 8293   0.075   2.207   7.481
 2546SOL    HW1 8294  -0.017   2.179   7.452
 2546SOL    HW2 8295   0.106   2.284   7.425
 2547SOL     OW 8296   1.440   2.718   8.846
 2547SOL    HW1 8297   1.383   2.770   8.783
 2547SOL    HW2 8298   1.536   2.730   8.822
 2548SOL     OW 8299   0.072   2.028   7.766
 2548SOL    HW1 8300   0.055   2.111   7.712
 2548SOL    HW2 8301   0.162   1.991   7.744
 2549SOL     OW 8302   1.183   3.197   7.567
 2549SOL    HW1 8303   1.084   3.186   7.569
 2549SOL    HW2 8304   1.217   3.212   7.660
 2550SOL     OW 8305   0.613   2.704   8.879
 2550SOL    HW1 8306   0.669   2.785   8.862
 2550SOL    HW2 8307   0.672   2.624   8.882
 2551SOL     OW 8308   1.493   3.629   8.407
 2551SOL    HW1 8309   1.526   3.693   8.338
 2551SOL    HW2 8310   1.559   3.623   8.482
 2552SOL     OW 8311   0.716   2.427   9.156
 2552SOL    HW1 8312   0.735   2.492   9.230
 2552SOL    HW2 8313   0.776   2.347   9.165
 2553SOL     OW 8314   1.450   3.082   9.081
 2553SOL    HW1 8315   1.441   3.072   9.180
 2553SOL    HW2 8316   1.546   3.075   9.055
 2554SOL     OW 8317   0.390   3.603   9.008
 2554SOL    HW1 8318   0.299   3.644   9.006
 2554SOL    HW2 8319   0.383   3.509   9.040
 2555SOL     OW 8320   1.674   2.745   8.702
 2555SOL    HW1 8321   1.647   2.656   8.665
 2555SOL    HW2 8322   1.675   2.813   8.629
 2556SOL     OW 8323   1.225   2.187   7.897
 2556SOL    HW1 8324   1.290   2.113   7.886
 2556SOL    HW2 8325   1.245   2.237   7.981
 2557SOL     OW 8326   0.594   2.607   8.100
 2557SOL    HW1 8327   0.644   2.692   8.081
 2557SOL    HW2 8328   0.506   2.609   8.052
 2558SOL     OW 8329   1.730   2.796   8.965
 2558SOL    HW1 8330   1.768   2.887   8.980
 2558SOL    HW2 8331   1.722   2.779   8.866
 2559SOL     OW 8332   0.859   3.236   7.464
 2559SOL    HW1 8333   0.813   3.251   7.552
 2559SOL    HW2 8334   0.903   3.321   7.434
 2560SOL     OW 8335   0.661   3.652   8.401
 2560SOL    HW1 8336   0.615   3.740   8.388
 2560SOL    HW2 8337   0.760   3.664   8.394
 2561SOL     OW 8338   0.859   2.818   8.309
 2561SOL    HW1 8339   0.913   2.749   8.357
 2561SOL    HW2 8340   0.827   2.887   8.375
 2562SOL     OW 8341   1.083   2.846   7.535
 2562SOL    HW1 8342   1.060   2.899   7.453
 2562SOL    HW2 8343   1.164   2.790   7.516
 2563SOL     OW 8344   1.861   3.431   8.299
 2563SOL    HW1 8345   1.790   3.419   8.229
 2563SOL    HW2 8346   1.862   3.352   8.359
 2564SOL     OW 8347   0.221   3.176   9.292
 2564SOL    HW1 8348   0.156   3.103   9.271
 2564SOL    HW2 8349   0.225   3.190   9.390
 2565SOL     OW 8350   0.079   3.102   8.101
 2565SOL    HW1 8351   0.078   3.055   8.189
 2565SOL    HW2 8352   0.161   3.074   8.050
 2566SOL     OW 8353   0.672   3.253   9.072
 2566SOL    HW1 8354   0.594   3.203   9.110
 2566SOL    HW2 8355   0.669   3.348   9.103
 2567SOL     OW 8356   0.428   2.286   7.968
 2567SOL    HW1 8357   0.458   2.214   7.906
 2567SOL    HW2 8358   0.389   2.246   8.051
 2568SOL     OW 8359   1.705   3.349   8.552
 2568SOL    HW1 8360   1.612   3.324   8.525
 2568SOL    HW2 8361   1.731   3.299   8.634
 2569SOL     OW 8362   0.317   2.409   8.728
 2569SOL    HW1 8363   0.355   2.350   8.800
 2569SOL    HW2 8364   0.357   2.383   8.640
 2570SOL     OW 8365   0.812   3.448   8.135
 2570SOL    HW1 8366   0.844   3.458   8.041
 2570SOL    HW2 8367   0.733   3.386   8.137
 2571SOL     OW 8368   1.424   2.076   8.560
 2571SOL    HW1 8369   1.476   2.011   8.615
 2571SOL    HW2 8370   1.375   2.139   8.621
 2572SOL     OW 8371   1.001   1.896   8.602
 2572SOL    HW1 8372   0.938   1.824   8.571
 2572SOL    HW2 8373   1.094   1.860   8.602
 2573SOL     OW 8374   0.770   3.192   7.749
 2573SOL    HW1 8375   0.724   3.105   7.766
 2573SOL    HW2 8376   0.861   3.189   7.790
 2574SOL     OW 8377   0.618   3.429   8.732
 2574SOL    HW1 8378   0.613   3.511   8.789
 2574SOL    HW2 8379   0.707   3.426   8.687
 2575SOL     OW 8380   1.352   1.914   7.616
 2575SOL    HW1 8381   1.387   1.873   7.532
 2575SOL    HW2 8382   1.262   1.876   7.636
 2576SOL     OW 8383   1.300   2.315   8.139
 2576SOL    HW1 8384   1.241   2.395   8.143
 2576SOL    HW2 8385   1.315   2.280   8.232
 2577SOL     OW 8386   1.593   2.083   8.330
 2577SOL    HW1 8387   1.509   2.082   8.384
 2577SOL    HW2 8388   1.595   2.166   8.274
 2578SOL     OW 8389   0.039   2.939   7.748
 2578SOL    HW1 8390   0.138   2.928   7.739
 2578SOL    HW2 8391  -0.001   2.853   7.780
 2579SOL     OW 8392   0.875   3.508   7.785
 2579SOL    HW1 8393   0.798   3.473   7.731
 2579SOL    HW2 8394   0.843   3.579   7.847
 2580SOL     OW 8395   0.230   2.490   9.423
 2580SOL    HW1 8396   0.137   2.488   9.460
 2580SOL    HW2 8397   0.231   2.451   9.331
 2581SOL     OW 8398   0.225   2.137  10.306
 2581SOL    HW1 8399   0.260   2.120  10.398
 2581SOL    HW2 8400   0.137   2.092  10.294
 2582SOL     OW 8401   0.019   2.230   9.957
 2582SOL    HW1 8402  -0.063   2.273   9.996
 2582SOL    HW2 8403  -0.009   2.157   9.894
 2583SOL     OW 8404   0.569   3.137  10.475
 2583SOL    HW1 8405   0.476   3.130  10.438
 2583SOL    HW2 8406   0.580   3.226  10.519
 2584SOL     OW 8407   1.555   3.373  10.013
 2584SOL    HW1 8408   1.498   3.357  10.094
 2584SOL    HW2 8409   1.496   3.383   9.933
 2585SOL     OW 8410   1.135   2.565  10.027
 2585SOL    HW1 8411   1.192   2.643  10.002
 2585SOL    HW2 8412   1.075   2.591  10.103
 2586SOL     OW 8413   1.755   2.469   9.541
 2586SOL    HW1 8414   1.743   2.456   9.442
 2586SOL    HW2 8415   1.725   2.388   9.590
 2587SOL     OW 8416   0.768   3.006  10.333
 2587SOL    HW1 8417   0.690   3.023  10.393
 2587SOL    HW2 8418   0.802   3.093  10.297
 2588SOL     OW 8419   0.850   2.660  11.133
 2588SOL    HW1 8420   0.846   2.736  11.198
 2588SOL    HW2 8421   0.872   2.696  11.042
 2589SOL     OW 8422   0.685   2.874   9.975
 2589SOL    HW1 8423   0.754   2.858  10.045
 2589SOL    HW2 8424   0.612   2.931  10.013
 2590SOL     OW 8425   0.686   3.023  11.113
 2590SOL    HW1 8426   0.746   3.102  11.127
 2590SOL    HW2 8427   0.600   3.054  11.072
 2591SOL     OW 8428   0.335   3.297  10.371
 2591SOL    HW1 8429   0.257   3.266  10.318
 2591SOL    HW2 8430   0.393   3.355  10.314
 2592SOL     OW 8431   1.460   3.367  10.649
 2592SOL    HW1 8432   1.484   3.461  10.675
 2592SOL    HW2 8433   1.444   3.313  10.731
 2593SOL     OW 8434   0.438   2.254  10.809
 2593SOL    HW1 8435   0.520   2.198  10.818
 2593SOL    HW2 8436   0.357   2.196  10.813
 2594SOL     OW 8437   1.603   2.309  10.047
 2594SOL    HW1 8438   1.529   2.355   9.997
 2594SOL    HW2 8439   1.654   2.377  10.100
 2595SOL     OW 8440   0.231   3.575   9.793
 2595SOL    HW1 8441   0.265   3.652   9.847
 2595SOL    HW2 8442   0.275   3.575   9.703
 2596SOL     OW 8443   1.127   3.203  11.000
 2596SOL    HW1 8444   1.174   3.203  11.088
 2596SOL    HW2 8445   1.079   3.116  10.989
 2597SOL     OW 8446   0.230   3.296   9.848
 2597SOL    HW1 8447   0.204   3.392   9.848
 2597SOL    HW2 8448   0.159   3.242   9.893
 2598SOL     OW 8449   0.240   2.953  10.196
 2598SOL    HW1 8450   0.254   2.869  10.248
 2598SOL    HW2 8451   0.185   3.017  10.251
 2599SOL     OW 8452   0.620   3.648  10.749
 2599SOL    HW1 8453   0.528   3.631  10.784
 2599SOL    HW2 8454   0.648   3.740  10.775
 2600SOL     OW 8455   0.606   2.826   9.433
 2600SOL    HW1 8456   0.613   2.910   9.379
 2600SOL    HW2 8457   0.652   2.839   9.521
 2601SOL     OW 8458   1.594   1.976  10.790
 2601SOL    HW1 8459   1.576   2.043  10.718
 2601SOL    HW2 8460   1.591   2.022  10.879
 2602SOL     OW 8461   0.122   2.505   9.873
 2602SOL    HW1 8462   0.077   2.417   9.890
 2602SOL    HW2 8463   0.121   2.559   9.957
 2603SOL     OW 8464   1.842   3.629   9.669
 2603SOL    HW1 8465   1.896   3.600   9.749
 2603SOL    HW2 8466   1.872   3.719   9.640
 2604SOL     OW 8467   0.027   3.458   9.427
 2604SOL    HW1 8468   0.008   3.362   9.448
 2604SOL    HW2 8469  -0.006   3.516   9.502
 2605SOL     OW 8470   1.689   2.784   9.922
 2605SOL    HW1 8471   1.784   2.755   9.930
 2605SOL    HW2 8472   1.681   2.849   9.847
 2606SOL     OW 8473   1.641   2.970   9.742
 2606SOL    HW1 8474   1.727   2.972   9.690
 2606SOL    HW2 8475   1.655   3.017   9.830
 2607SOL     OW 8476   0.113   2.599  10.907
 2607SOL    HW1 8477   0.201   2.586  10.952
 2607SOL    HW2 8478   0.100   2.696  10.885
 2608SOL     OW 8479   0.613   3.227  10.036
 2608SOL    HW1 8480   0.564   3.140  10.045
 2608SOL    HW2 8481   0.590   3.270   9.949
 2609SOL     OW 8482   1.293   3.090  10.733
 2609SOL    HW1 8483   1.330   3.017  10.675
 2609SOL    HW2 8484   1.345   3.095  10.818
 2610SOL     OW 8485   0.809   1.866   9.812
 2610SOL    HW1 8486   0.849   1.957   9.803
 2610SOL    HW2 8487   0.709   1.874   9.818
 2611SOL     OW 8488   0.197   2.838  10.574
 2611SOL    HW1 8489   0.286   2.793  10.560
 2611SOL    HW2 8490   0.124   2.773  10.555
 2612SOL     OW 8491   1.525   2.861   9.500
 2612SOL    HW1 8492   1.462   2.785   9.513
 2612SOL    HW2 8493   1.573   2.879   9.586
 2613SOL     OW 8494   1.187   3.654  10.926
 2613SOL    HW1 8495   1.211   3.714  10.850
 2613SOL    HW2 8496   1.194   3.559  10.896
 2614SOL     OW 8497   0.317   2.113  11.111
 2614SOL    HW1 8498   0.388   2.184  11.117
 2614SOL    HW2 8499   0.229   2.152  11.139
 2615SOL     OW 8500   1.466   3.279  10.263
 2615SOL    HW1 8501   1.407   3.285  10.343
 2615SOL    HW2 8502   1.451   3.191  10.217
 2616SOL     OW 8503   1.667   3.576   9.882
 2616SOL    HW1 8504   1.626   3.553   9.794
 2616SOL    HW2 8505   1.649   3.502   9.947
 2617SOL     OW 8506   0.598   2.591   9.580
 2617SOL    HW1 8507   0.622   2.660   9.512
 2617SOL    HW2 8508   0.520   2.624   9.634
 2618SOL     OW 8509   1.281   2.207  10.254
 2618SOL    HW1 8510   1.195   2.157  10.241
 2618SOL    HW2 8511   1.343   2.153  10.310
 2619SOL     OW 8512   1.576   3.524   9.617
 2619SOL    HW1 8513   1.665   3.570   9.620
 2619SOL    HW2 8514   1.555   3.500   9.522
 2620SOL     OW 8515   0.807   2.467  10.775
 2620SOL    HW1 8516   0.760   2.464  10.864
 2620SOL    HW2 8517   0.756   2.412  10.709
 2621SOL     OW 8518   1.394   2.331  10.984
 2621SOL    HW1 8519   1.374   2.374  11.072
 2621SOL    HW2 8520   1.472   2.269  10.993
 2622SOL     OW 8521   0.973   2.752  10.882
 2622SOL    HW1 8522   1.019   2.668  10.853
 2622SOL    HW2 8523   0.917   2.786  10.807
 2623SOL     OW 8524   0.991   2.272  10.552
 2623SOL    HW1 8525   0.914   2.306  10.606
 2623SOL    HW2 8526   0.957   2.221  10.473
 2624SOL     OW 8527   1.041   2.563   9.739
 2624SOL    HW1 8528   1.067   2.559   9.835
 2624SOL    HW2 8529   0.956   2.512   9.725
 2625SOL     OW 8530   0.076   2.673  10.099
 2625SOL    HW1 8531   0.175   2.661  10.108
 2625SOL    HW2 8532   0.052   2.768  10.120
 2626SOL     OW 8533   0.130   3.683  10.881
 2626SOL    HW1 8534   0.120   3.668  10.980
 2626SOL    HW2 8535   0.044   3.719  10.845
 2627SOL     OW 8536   0.865   2.210   9.505
 2627SOL    HW1 8537   0.924   2.273   9.456
 2627SOL    HW2 8538   0.884   2.116   9.476
 2628SOL     OW 8539   1.719   2.447  11.141
 2628SOL    HW1 8540   1.693   2.536  11.105
 2628SOL    HW2 8541   1.717   2.379  11.068
 2629SOL     OW 8542   1.362   3.006   9.855
 2629SOL    HW1 8543   1.445   2.977   9.807
 2629SOL    HW2 8544   1.313   3.073   9.799
 2630SOL     OW 8545   0.550   2.058  10.195
 2630SOL    HW1 8546   0.545   2.053  10.295
 2630SOL    HW2 8547   0.552   2.154  10.166
 2631SOL     OW 8548   1.008   3.318   9.787
 2631SOL    HW1 8549   0.962   3.390   9.735
 2631SOL    HW2 8550   1.004   3.338   9.885
 2632SOL     OW 8551   0.351   3.663  10.163
 2632SOL    HW1 8552   0.401   3.577  10.169
 2632SOL    HW2 8553   0.416   3.740  10.160
 2633SOL     OW 8554   1.795   2.928  10.183
 2633SOL    HW1 8555   1.733   2.913  10.107
 2633SOL    HW2 8556   1.743   2.939  10.268
 2634SOL     OW 8557   1.227   3.412  10.816
 2634SOL    HW1 8558   1.233   3.335  10.880
 2634SOL    HW2 8559   1.175   3.386  10.736
 2635SOL     OW 8560   0.321   2.805   9.552
 2635SOL    HW1 8561   0.403   2.844   9.510
 2635SOL    HW2 8562   0.294   2.723   9.503
 2636SOL     OW 8563   1.458   2.597  10.038
 2636SOL    HW1 8564   1.453   2.532  10.113
 2636SOL    HW2 8565   1.538   2.656  10.051
 2637SOL     OW 8566   0.461   3.128  11.037
 2637SOL    HW1 8567   0.411   3.129  10.951
 2637SOL    HW2 8568   0.398   3.110  11.113
 2638SOL     OW 8569   1.111   3.638   9.547
 2638SOL    HW1 8570   1.051   3.576   9.597
 2638SOL    HW2 8571   1.142   3.594   9.462
 2639SOL     OW 8572   0.202   2.147  10.808
 2639SOL    HW1 8573   0.122   2.207  10.795
 2639SOL    HW2 8574   0.192   2.098  10.894
 2640SOL     OW 8575   1.632   3.239   9.391
 2640SOL    HW1 8576   1.600   3.333   9.381
 2640SOL    HW2 8577   1.556   3.176   9.379
 2641SOL     OW 8578   0.464   3.605   9.633
 2641SOL    HW1 8579   0.497   3.644   9.719
 2641SOL    HW2 8580   0.540   3.598   9.568
 2642SOL     OW 8581   1.400   1.969   9.736
 2642SOL    HW1 8582   1.376   1.932   9.646
 2642SOL    HW2 8583   1.499   1.985   9.740
 2643SOL     OW 8584   0.249   3.647  10.551
 2643SOL    HW1 8585   0.306   3.582  10.601
 2643SOL    HW2 8586   0.233   3.614  10.458
 2644SOL     OW 8587   0.940   3.560  10.214
 2644SOL    HW1 8588   1.020   3.503  10.235
 2644SOL    HW2 8589   0.891   3.520  10.137
 2645SOL     OW 8590   0.382   2.562   9.790
 2645SOL    HW1 8591   0.427   2.472   9.787
 2645SOL    HW2 8592   0.288   2.551   9.823
 2646SOL     OW 8593   1.547   2.084  11.039
 2646SOL    HW1 8594   1.542   2.121  11.131
 2646SOL    HW2 8595   1.475   2.015  11.027
 2647SOL     OW 8596   0.614   1.984   9.427
 2647SOL    HW1 8597   0.712   1.962   9.434
 2647SOL    HW2 8598   0.583   1.967   9.334
 2648SOL     OW 8599   0.781   2.126  11.059
 2648SOL    HW1 8600   0.848   2.065  11.102
 2648SOL    HW2 8601   0.708   2.145  11.124
 2649SOL     OW 8602   0.888   3.376  10.505
 2649SOL    HW1 8603   0.865   3.351  10.411
 2649SOL    HW2 8604   0.949   3.307  10.544
 2650SOL     OW 8605   1.351   2.452  10.743
 2650SOL    HW1 8606   1.379   2.409  10.828
 2650SOL    HW2 8607   1.376   2.548  10.744
 2651SOL     OW 8608   0.803   3.264  10.234
 2651SOL    HW1 8609   0.893   3.278  10.192
 2651SOL    HW2 8610   0.732   3.266  10.163
 2652SOL     OW 8611   0.922   2.365  10.209
 2652SOL    HW1 8612   0.897   2.356  10.113
 2652SOL    HW2 8613   0.970   2.283  10.240
 2653SOL     OW 8614   0.539   1.926   9.822
 2653SOL    HW1 8615   0.458   1.927   9.880
 2653SOL    HW2 8616   0.542   2.009   9.767
 2654SOL     OW 8617   1.434   3.050   9.351
 2654SOL    HW1 8618   1.466   2.974   9.408
 2654SOL    HW2 8619   1.342   3.077   9.381
 2655SOL     OW 8620   0.297   1.897   9.481
 2655SOL    HW1 8621   0.346   1.981   9.460
 2655SOL    HW2 8622   0.359   1.832   9.526
 2656SOL     OW 8623   0.935   2.098   9.790
 2656SOL    HW1 8624   0.887   2.139   9.712
 2656SOL    HW2 8625   1.034   2.096   9.771
 2657SOL     OW 8626   1.076   2.545  10.774
 2657SOL    HW1 8627   0.996   2.484  10.777
 2657SOL    HW2 8628   1.157   2.492  10.750
 2658SOL     OW 8629   1.227   3.432  10.103
 2658SOL    HW1 8630   1.248   3.506  10.038
 2658SOL    HW2 8631   1.295   3.432  10.176
 2659SOL     OW 8632   0.459   3.014  10.051
 2659SOL    HW1 8633   0.388   2.987  10.116
 2659SOL    HW2 8634   0.433   2.986   9.958
 2660SOL     OW 8635   1.271   3.659   9.901
 2660SOL    HW1 8636   1.315   3.723   9.837
 2660SOL    HW2 8637   1.221   3.711   9.971
 2661SOL     OW 8638   1.032   2.411   9.326
 2661SOL    HW1 8639   0.991   2.493   9.287
 2661SOL    HW2 8640   1.096   2.437   9.399
 2662SOL     OW 8641   0.078   2.418  10.696
 2662SOL    HW1 8642   0.170   2.417  10.655
 2662SOL    HW2 8643   0.072   2.492  10.763
 2663SOL     OW 8644   0.561   2.084  10.457
 2663SOL    HW1 8645   0.599   2.000  10.494
 2663SOL    HW2 8646   0.473   2.103  10.501
 2664SOL     OW 8647   0.866   2.316   9.952
 2664SOL    HW1 8648   0.834   2.388   9.890
 2664SOL    HW2 8649   0.890   2.235   9.899
 2665SOL     OW 8650   1.017   1.901  10.063
 2665SOL    HW1 8651   0.945   1.906   9.994
 2665SOL    HW2 8652   0.993   1.832  10.132
 2666SOL     OW 8653   1.429   3.035  10.177
 2666SOL    HW1 8654   1.374   2.951  10.170
 2666SOL    HW2 8655   1.455   3.064  10.085
 2667SOL     OW 8656   1.466   2.452  10.302
 2667SOL    HW1 8657   1.436   2.357  10.309
 2667SOL    HW2 8658   1.539   2.468  10.368
 2668SOL     OW 8659   1.857   2.695   9.687
 2668SOL    HW1 8660   1.899   2.631   9.751
 2668SOL    HW2 8661   1.819   2.644   9.609
 2669SOL     OW 8662   0.488   3.247   9.484
 2669SOL    HW1 8663   0.401   3.232   9.531
 2669SOL    HW2 8664   0.471   3.273   9.389
 2670SOL     OW 8665   1.664   3.142   9.967
 2670SOL    HW1 8666   1.763   3.150   9.981
 2670SOL    HW2 8667   1.619   3.226   9.998
 2671SOL     OW 8668   1.390   2.437   9.388
 2671SOL    HW1 8669   1.336   2.416   9.469
 2671SOL    HW2 8670   1.481   2.396   9.397
 2672SOL     OW 8671   0.527   2.118   9.638
 2672SOL    HW1 8672   0.554   2.059   9.563
 2672SOL    HW2 8673   0.527   2.213   9.607
 2673SOL     OW 8674   1.754   3.085  10.898
 2673SOL    HW1 8675   1.845   3.046  10.885
 2673SOL    HW2 8676   1.762   3.181  10.922
 2674SOL     OW 8677   1.064   3.209  10.650
 2674SOL    HW1 8678   0.984   3.186  10.705
 2674SOL    HW2 8679   1.147   3.183  10.699
 2675SOL     OW 8680   1.592   3.491  10.935
 2675SOL    HW1 8681   1.619   3.525  10.845
 2675SOL    HW2 8682   1.671   3.453  10.981
 2676SOL     OW 8683   1.111   3.057  10.410
 2676SOL    HW1 8684   1.071   3.101  10.491
 2676SOL    HW2 8685   1.070   3.094  10.327
 2677SOL     OW 8686   1.638   2.961  10.389
 2677SOL    HW1 8687   1.643   3.042  10.448
 2677SOL    HW2 8688   1.552   2.963  10.338
 2678SOL     OW 8689   0.915   1.951  10.712
 2678SOL    HW1 8690   0.940   1.931  10.617
 2678SOL    HW2 8691   0.987   2.007  10.754
 2679SOL     OW 8692   0.980   2.978  11.029
 2679SOL    HW1 8693   0.881   2.984  11.039
 2679SOL    HW2 8694   1.003   2.898  10.973
 2680SOL     OW 8695   0.705   2.912   9.678
 2680SOL    HW1 8696   0.691   2.919   9.777
 2680SOL    HW2 8697   0.789   2.861   9.660
 2681SOL     OW 8698   0.410   2.675  10.561
 2681SOL    HW1 8699   0.496   2.687  10.611
 2681SOL    HW2 8700   0.368   2.588  10.588
 2682SOL     OW 8701   1.274   2.248  10.572
 2682SOL    HW1 8702   1.295   2.322  10.636
 2682SOL    HW2 8703   1.185   2.265  10.529
 2683SOL     OW 8704   0.064   3.426  10.641
 2683SOL    HW1 8705   0.018   3.508  10.607
 2683SOL    HW2 8706   0.162   3.445  10.650
 2684SOL     OW 8707   0.367   2.962   9.811
 2684SOL    HW1 8708   0.360   3.045   9.755
 2684SOL    HW2 8709   0.371   2.882   9.751
 2685SOL     OW 8710   0.566   2.399  10.175
 2685SOL    HW1 8711   0.578   2.465  10.101
 2685SOL    HW2 8712   0.612   2.433  10.258
 2686SOL     OW 8713   1.252   3.210   9.698
 2686SOL    HW1 8714   1.302   3.287   9.738
 2686SOL    HW2 8715   1.157   3.212   9.730
 2687SOL     OW 8716   1.272   3.307  10.452
 2687SOL    HW1 8717   1.319   3.320  10.539
 2687SOL    HW2 8718   1.206   3.233  10.461
 2688SOL     OW 8719   1.582   2.501   9.782
 2688SOL    HW1 8720   1.551   2.562   9.855
 2688SOL    HW2 8721   1.632   2.553   9.713
 2689SOL     OW 8722   0.354   3.372  10.639
 2689SOL    HW1 8723   0.333   3.328  10.552
 2689SOL    HW2 8724   0.451   3.398  10.642
 2690SOL     OW 8725   0.402   2.613  10.908
 2690SOL    HW1 8726   0.470   2.668  10.861
 2690SOL    HW2 8727   0.442   2.525  10.935
 2691SOL     OW 8728   1.587   2.641  10.980
 2691SOL    HW1 8729   1.495   2.679  10.975
 2691SOL    HW2 8730   1.647   2.688  10.915
 2692SOL     OW 8731   1.013   1.967  11.080
 2692SOL    HW1 8732   1.019   2.052  11.028
 2692SOL    HW2 8733   1.045   1.891  11.023
 2693SOL     OW 8734   0.504   1.912  11.050
 2693SOL    HW1 8735   0.462   1.855  10.980
 2693SOL    HW2 8736   0.438   1.981  11.082
 2694SOL     OW 8737   0.573   2.732  10.339
 2694SOL    HW1 8738   0.617   2.821  10.330
 2694SOL    HW2 8739   0.510   2.732  10.416
 2695SOL     OW 8740   1.360   2.724  10.355
 2695SOL    HW1 8741   1.285   2.724  10.289
 2695SOL    HW2 8742   1.397   2.632  10.364
 2696SOL     OW 8743   1.209   2.387   9.585
 2696SOL    HW1 8744   1.222   2.303   9.639
 2696SOL    HW2 8745   1.180   2.461   9.645
 2697SOL     OW 8746   0.307   2.075  10.541
 2697SOL    HW1 8747   0.284   2.112  10.631
 2697SOL    HW2 8748   0.277   1.980  10.535
 2698SOL     OW 8749   0.037   3.172  10.592
 2698SOL    HW1 8750   0.090   3.123  10.660
 2698SOL    HW2 8751   0.059   3.270  10.597
 2699SOL     OW 8752   0.732   2.496  10.374
 2699SOL    HW1 8753   0.791   2.470  10.298
 2699SOL    HW2 8754   0.704   2.592  10.363
 2700SOL     OW 8755   1.728   2.797  11.164
 2700SOL    HW1 8756   1.682   2.790  11.075
 2700SOL    HW2 8757   1.666   2.841  11.230
 2701SOL     OW 8758   0.307   1.925   9.928
 2701SOL    HW1 8759   0.296   2.019   9.961
 2701SOL    HW2 8760   0.302   1.862  10.005
 2702SOL     OW 8761   1.622   2.229   9.684
 2702SOL    HW1 8762   1.624   2.153   9.748
 2702SOL    HW2 8763   1.574   2.306   9.724
 2703SOL     OW 8764   1.023   2.628  10.276
 2703SOL    HW1 8765   1.038   2.649  10.372
 2703SOL    HW2 8766   0.993   2.533  10.267
 2704SOL     OW 8767   0.980   3.435  11.010
 2704SOL    HW1 8768   0.960   3.479  10.922
 2704SOL    HW2 8769   1.019   3.344  10.994
 2705SOL     OW 8770   1.859   3.380  10.915
 2705SOL    HW1 8771   1.873   3.407  10.820
 2705SOL    HW2 8772   1.942   3.402  10.968
 2706SOL     OW 8773   0.350   2.760  11.114
 2706SOL    HW1 8774   0.426   2.804  11.162
 2706SOL    HW2 8775   0.385   2.713  11.032
 2707SOL     OW 8776   1.540   2.136   9.435
 2707SOL    HW1 8777   1.479   2.061   9.458
 2707SOL    HW2 8778   1.562   2.188   9.518
 2708SOL     OW 8779   1.303   2.700   9.352
 2708SOL    HW1 8780   1.337   2.607   9.367
 2708SOL    HW2 8781   1.321   2.727   9.257
 2709SOL     OW 8782   1.068   3.195  10.159
 2709SOL    HW1 8783   1.075   3.111  10.104
 2709SOL    HW2 8784   1.130   3.264  10.123
 2710SOL     OW 8785   0.319   2.672  10.259
 2710SOL    HW1 8786   0.412   2.708  10.264
 2710SOL    HW2 8787   0.313   2.587  10.311
 2711SOL     OW 8788   0.339   2.371  10.316
 2711SOL    HW1 8789   0.287   2.288  10.299
 2711SOL    HW2 8790   0.416   2.376  10.252
 2712SOL     OW 8791   1.138   2.242  10.988
 2712SOL    HW1 8792   1.093   2.305  11.052
 2712SOL    HW2 8793   1.231   2.273  10.971
 2713SOL     OW 8794   1.160   2.069  10.787
 2713SOL    HW1 8795   1.160   2.133  10.864
 2713SOL    HW2 8796   1.188   2.117  10.704
 2714SOL     OW 8797   0.008   3.188   9.510
 2714SOL    HW1 8798  -0.085   3.209   9.479
 2714SOL    HW2 8799   0.018   3.089   9.523
 2715SOL     OW 8800   0.088   3.663  10.237
 2715SOL    HW1 8801   0.046   3.577  10.210
 2715SOL    HW2 8802   0.182   3.666  10.203
 2716SOL     OW 8803   0.504   3.430  10.220
 2716SOL    HW1 8804   0.570   3.504  10.229
 2716SOL    HW2 8805   0.548   3.351  10.178
 2717SOL     OW 8806   1.002   2.658  10.548
 2717SOL    HW1 8807   1.043   2.626  10.634
 2717SOL    HW2 8808   0.906   2.631  10.545
 2718SOL     OW 8809   0.040   2.406  10.424
 2718SOL    HW1 8810   0.125   2.373  10.383
 2718SOL    HW2 8811   0.053   2.421  10.522
 2719SOL     OW 8812   0.189   2.382  11.032
 2719SOL    HW1 8813   0.248   2.342  10.962
 2719SOL    HW2 8814   0.131   2.453  10.991
 2720SOL     OW 8815   1.369   2.812  10.970
 2720SOL    HW1 8816   1.408   2.901  10.990
 2720SOL    HW2 8817   1.379   2.792  10.873
 2721SOL     OW 8818   0.815   2.434   9.635
 2721SOL    HW1 8819   0.822   2.345   9.589
 2721SOL    HW2 8820   0.721   2.468   9.627
 2722SOL     OW 8821   1.657   2.466  10.516
 2722SOL    HW1 8822   1.619   2.397  10.578
 2722SOL    HW2 8823   1.739   2.430  10.472
 2723SOL     OW 8824   0.252   3.426  11.054
 2723SOL    HW1 8825   0.222   3.483  11.130
 2723SOL    HW2 8826   0.245   3.329  11.080
 2724SOL     OW 8827   0.671   2.326  10.579
 2724SOL    HW1 8828   0.637   2.237  10.549
 2724SOL    HW2 8829   0.697   2.380  10.499
 2725SOL     OW 8830   0.930   3.540  10.775
 2725SOL    HW1 8831   0.906   3.522  10.680
 2725SOL    HW2 8832   0.960   3.634  10.785
 2726SOL     OW 8833   0.473   2.362   9.501
 2726SOL    HW1 8834   0.534   2.442   9.505
 2726SOL    HW2 8835   0.378   2.393   9.508
 2727SOL     OW 8836   0.159   2.999  10.776
 2727SOL    HW1 8837   0.181   2.938  10.852
 2727SOL    HW2 8838   0.169   2.950  10.690
 2728SOL     OW 8839   1.347   2.921  10.544
 2728SOL    HW1 8840   1.371   2.858  10.470
 2728SOL    HW2 8841   1.257   2.961  10.526
 2729SOL     OW 8842   1.302   2.717   9.619
 2729SOL    HW1 8843   1.216   2.686   9.661
 2729SOL    HW2 8844   1.298   2.703   9.520
 2730SOL     OW 8845   1.759   3.609  10.464
 2730SOL    HW1 8846   1.820   3.639  10.391
 2730SOL    HW2 8847   1.721   3.520  10.442
 2731SOL     OW 8848   1.252   3.593  10.438
 2731SOL    HW1 8849   1.336   3.598  10.384
 2731SOL    HW2 8850   1.229   3.497  10.456
 2732SOL     OW 8851   0.083   3.120  10.332
 2732SOL    HW1 8852   0.078   3.119  10.432
 2732SOL    HW2 8853   0.000   3.079  10.294
 2733SOL     OW 8854   0.688   3.524  11.026
 2733SOL    HW1 8855   0.632   3.605  11.035
 2733SOL    HW2 8856   0.740   3.528  10.940
 2734SOL     OW 8857   1.726   1.997   9.833
 2734SOL    HW1 8858   1.799   1.980   9.766
 2734SOL    HW2 8859   1.695   1.910   9.871
 2735SOL     OW 8860   1.388   3.435   9.787
 2735SOL    HW1 8861   1.455   3.447   9.713
 2735SOL    HW2 8862   1.348   3.524   9.810
 2736SOL     OW 8863   0.130   3.656  11.161
 2736SOL    HW1 8864   0.089   3.582  11.214
 2736SOL    HW2 8865   0.194   3.707  11.219
 2737SOL     OW 8866   1.280   2.789   9.982
 2737SOL    HW1 8867   1.340   2.708   9.984
 2737SOL    HW2 8868   1.320   2.858   9.922
 2738SOL     OW 8869   0.830   3.135  10.732
 2738SOL    HW1 8870   0.825   3.168  10.827
 2738SOL    HW2 8871   0.744   3.154  10.686
 2739SOL     OW 8872   0.672   3.478   9.464
 2739SOL    HW1 8873   0.681   3.488   9.365
 2739SOL    HW2 8874   0.632   3.389   9.485
 2740SOL     OW 8875   1.650   3.582  10.704
 2740SOL    HW1 8876   1.703   3.592  10.620
 2740SOL    HW2 8877   1.623   3.672  10.738
 2741SOL     OW 8878   0.263   2.188  10.030
 2741SOL    HW1 8879   0.184   2.239   9.996
 2741SOL    HW2 8880   0.254   2.173  10.128
 2742SOL     OW 8881   1.194   3.474   9.341
 2742SOL    HW1 8882   1.200   3.381   9.378
 2742SOL    HW2 8883   1.135   3.474   9.261
 2743SOL     OW 8884   0.822   2.864  10.682
 2743SOL    HW1 8885   0.862   2.863  10.590
 2743SOL    HW2 8886   0.832   2.956  10.722
 2744SOL     OW 8887   0.916   2.772   9.601
 2744SOL    HW1 8888   0.979   2.810   9.533
 2744SOL    HW2 8889   0.956   2.689   9.640
 2745SOL     OW 8890   1.504   3.469   9.354
 2745SOL    HW1 8891   1.412   3.506   9.361
 2745SOL    HW2 8892   1.542   3.489   9.264
 2746SOL     OW 8893   0.372   3.150  10.800
 2746SOL    HW1 8894   0.359   3.243  10.766
 2746SOL    HW2 8895   0.288   3.098  10.787
 2747SOL     OW 8896   1.614   3.154  10.599
 2747SOL    HW1 8897   1.674   3.157  10.679
 2747SOL    HW2 8898   1.539   3.218  10.612
 2748SOL     OW 8899   1.039   2.960  10.006
 2748SOL    HW1 8900   0.969   2.913  10.060
 2748SOL    HW2 8901   1.098   2.892   9.963
 2749SOL     OW 8902   1.014   2.098  10.281
 2749SOL    HW1 8903   1.006   2.062  10.188
 2749SOL    HW2 8904   1.012   2.022  10.346
 2750SOL     OW 8905   0.590   3.349   9.801
 2750SOL    HW1 8906   0.632   3.291   9.731
 2750SOL    HW2 8907   0.546   3.428   9.757
 2751SOL     OW 8908   1.709   2.247  10.691
 2751SOL    HW1 8909   1.782   2.316  10.695
 2751SOL    HW2 8910   1.737   2.172  10.632
 2752SOL     OW 8911   0.255   3.210   9.600
 2752SOL    HW1 8912   0.159   3.211   9.573
 2752SOL    HW2 8913   0.267   3.263   9.684
 2753SOL     OW 8914   0.105   2.875  11.036
 2753SOL    HW1 8915   0.028   2.842  11.090
 2753SOL    HW2 8916   0.190   2.845  11.078
 2754SOL     OW 8917   0.672   2.065  10.799
 2754SOL    HW1 8918   0.762   2.049  10.759
 2754SOL    HW2 8919   0.680   2.070  10.898
 2755SOL     OW 8920   0.075   2.207   9.343
 2755SOL    HW1 8921  -0.017   2.179   9.314
 2755SOL    HW2 8922   0.106   2.284   9.287
 2756SOL     OW 8923   1.440   2.718  10.708
 2756SOL    HW1 8924   1.383   2.770  10.645
 2756SOL    HW2 8925   1.536   2.730  10.684
 2757SOL     OW 8926   0.072   2.028   9.628
 2757SOL    HW1 8927   0.055   2.111   9.574
 2757SOL    HW2 8928   0.162   1.991   9.606
 2758SOL     OW 8929   1.183   3.197   9.429
 2758SOL    HW1 8930   1.084   3.186   9.431
 2758SOL    HW2 8931   1.217   3.212   9.522
 2759SOL     OW 8932   0.613   2.704  10.741
 2759SOL    HW1 8933   0.669   2.785  10.724
 2759SOL    HW2 8934   0.672   2.624  10.744
 2760SOL     OW 8935   1.493   3.629  10.269
 2760SOL    HW1 8936   1.526   3.693  10.200
 2760SOL    HW2 8937   1.559   3.623  10.344
 2761SOL     OW 8938   0.716   2.427  11.018
 2761SOL    HW1 8939   0.735   2.492  11.092
 2761SOL    HW2 8940   0.776   2.347  11.027
 2762SOL     OW 8941   1.450   3.082  10.943
 2762SOL    HW1 8942   1.441   3.072  11.042
 2762SOL    HW2 8943   1.546   3.075  10.917
 2763SOL     OW 8944   0.390   3.603  10.870
 2763SOL    HW1 8945   0.299   3.644  10.868
 2763SOL    HW2 8946   0.383   3.509  10.902
 2764SOL     OW 8947   1.674   2.745  10.564
 2764SOL    HW1 8948   1.647   2.656  10.527
 2764SOL    HW2 8949   1.675   2.813  10.491
 2765SOL     OW 8950   1.225   2.187   9.759
 2765SOL    HW1 8951   1.290   2.113   9.748
 2765SOL    HW2 8952   1.245   2.237   9.843
 2766SOL     OW 8953   0.594   2.607   9.962
 2766SOL    HW1 8954   0.644   2.692   9.943
 2766SOL    HW2 8955   0.506   2.609   9.914
 2767SOL     OW 8956   1.730   2.796  10.827
 2767SOL    HW1 8957   1.768   2.887  10.842
 2767SOL    HW2 8958   1.722   2.779  10.728
 2768SOL     OW 8959   0.859   3.236   9.326
 2768SOL    HW1 8960   0.813   3.251   9.414
 2768SOL    HW2 8961   0.903   3.321   9.296
 2769SOL     OW 8962   0.661   3.652  10.263
 2769SOL    HW1 8963   0.615   3.740  10.250
 2769SOL    HW2 8964   0.760   3.664  10.256
 2770SOL     OW 8965   0.859   2.818  10.171
 2770SOL    HW1 8966   0.913   2.749  10.219
 2770SOL    HW2 8967   0.827   2.887  10.237
 2771SOL     OW 8968   1.083   2.846   9.397
 2771SOL    HW1 8969   1.060   2.899   9.315
 2771SOL    HW2 8970   1.164   2.790   9.378
 2772SOL     OW 8971   1.861   3.431  10.161
 2772SOL    HW1 8972   1.790   3.419  10.091
 2772SOL    HW2 8973   1.862   3.352  10.221
 2773SOL     OW 8974   0.221   3.176  11.154
 2773SOL    HW1 8975   0.156   3.103  11.133
 2773SOL    HW2 8976   0.225   3.190  11.252
 2774SOL     OW 8977   0.079   3.102   9.963
 2774SOL    HW1 8978   0.078   3.055  10.051
 2774SOL    HW2 8979   0.161   3.074   9.912
 2775SOL     OW 8980   0.672   3.253  10.934
 2775SOL    HW1 8981   0.594   3.203  10.972
 2775SOL    HW2 8982   0.669   3.348  10.965
 2776SOL     OW 8983   0.428   2.286   9.830
 2776SOL    HW1 8984   0.458   2.214   9.768
 2776SOL    HW2 8985   0.389   2.246   9.913
 2777SOL     OW 8986   1.705   3.349  10.414
 2777SOL    HW1 8987   1.612   3.324  10.387
 2777SOL    HW2 8988   1.731   3.299  10.496
 2778SOL     OW 8989   0.317   2.409  10.590
 2778SOL    HW1 8990   0.355   2.350  10.662
 2778SOL    HW2 8991   0.357   2.383  10.502
 2779SOL     OW 8992   0.812   3.448   9.997
 2779SOL    HW1 8993   0.844   3.458   9.903
 2779SOL    HW2 8994   0.733   3.386   9.999
 2780SOL     OW 8995   1.424   2.076  10.422
 2780SOL    HW1 8996   1.476   2.011  10.477
 2780SOL    HW2 8997   1.375   2.139  10.483
 2781SOL     OW 8998   1.001   1.896  10.464
 2781SOL    HW1 8999   0.938   1.824  10.433
 2781SOL    HW2 9000   1.094   1.860  10.464
 2782SOL     OW 9001   0.770   3.192   9.611
 2782SOL    HW1 9002   0.724   3.105   9.628
 2782SOL    HW2 9003   0.861   3.189   9.652
 2783SOL     OW 9004   0.618   3.429  10.594
 2783SOL    HW1 9005   0.613   3.511  10.651
 2783SOL    HW2 9006   0.707   3.426  10.549
 2784SOL     OW 9007   1.352   1.914   9.478
 2784SOL    HW1 9008   1.387   1.873   9.394
 2784SOL    HW2 9009   1.262   1.876   9.498
 2785SOL     OW 9010   1.300   2.315  10.001
 2785SOL    HW1 9011   1.241   2.395  10.005
 2785SOL    HW2 9012   1.315   2.280  10.094
 2786SOL     OW 9013   1.593   2.083  10.192
 2786SOL    HW1 9014   1.509   2.082  10.246
 2786SOL    HW2 9015   1.595   2.166  10.136
 2787SOL     OW 9016   0.039   2.939   9.610
 2787SOL    HW1 9017   0.138   2.928   9.601
 2787SOL    HW2 9018  -0.001   2.853   9.642
 2788SOL     OW 9019   0.875   3.508   9.647
 2788SOL    HW1 9020   0.798   3.473   9.593
 2788SOL    HW2 9021   0.843   3.579   9.709
 2789SOL     OW 9022   0.230   2.490  11.285
 2789SOL    HW1 9023   0.137   2.488  11.322
 2789SOL    HW2 9024   0.231   2.451  11.193
 2790SOL     OW 9025   0.225   2.137  12.168
 2790SOL    HW1 9026   0.260   2.120  12.260
 2790SOL    HW2 9027   0.137   2.092  12.156
 2791SOL     OW 9028   0.019   2.230  11.819
 2791SOL    HW1 9029  -0.063   2.273  11.858
 2791SOL    HW2 9030  -0.009   2.157  11.756
 2792SOL     OW 9031   0.569   3.137  12.337
 2792SOL    HW1 9032   0.476   3.130  12.300
 2792SOL    HW2 9033   0.580   3.226  12.381
 2793SOL     OW 9034   1.555   3.373  11.875
 2793SOL    HW1 9035   1.498   3.357  11.956
 2793SOL    HW2 9036   1.496   3.383  11.795
 2794SOL     OW 9037   1.135   2.565  11.889
 2794SOL    HW1 9038   1.192   2.643  11.864
 2794SOL    HW2 9039   1.075   2.591  11.965
 2795SOL     OW 9040   1.755   2.469  11.403
 2795SOL    HW1 9041   1.743   2.456  11.304
 2795SOL    HW2 9042   1.725   2.388  11.452
 2796SOL     OW 9043   0.768   3.006  12.195
 2796SOL    HW1 9044   0.690   3.023  12.255
 2796SOL    HW2 9045   0.802   3.093  12.159
 2797SOL     OW 9046   0.850   2.660  12.995
 2797SOL    HW1 9047   0.846   2.736  13.060
 2797SOL    HW2 9048   0.872   2.696  12.904
 2798SOL     OW 9049   0.685   2.874  11.837
 2798SOL    HW1 9050   0.754   2.858  11.907
 2798SOL    HW2 9051   0.612   2.931  11.875
 2799SOL     OW 9052   0.686   3.023  12.975
 2799SOL    HW1 9053   0.746   3.102  12.989
 2799SOL    HW2 9054   0.600   3.054  12.934
 2800SOL     OW 9055   0.335   3.297  12.233
 2800SOL    HW1 9056   0.257   3.266  12.180
 2800SOL    HW2 9057   0.393   3.355  12.176
 2801SOL     OW 9058   1.460   3.367  12.511
 2801SOL    HW1 9059   1.484   3.461  12.537
 2801SOL    HW2 9060   1.444   3.313  12.593
 2802SOL     OW 9061   0.438   2.254  12.671
 2802SOL    HW1 9062   0.520   2.198  12.680
 2802SOL    HW2 9063   0.357   2.196  12.675
 2803SOL     OW 9064   1.603   2.309  11.909
 2803SOL    HW1 9065   1.529   2.355  11.859
 2803SOL    HW2 9066   1.654   2.377  11.962
 2804SOL     OW 9067   0.231   3.575  11.655
 2804SOL    HW1 9068   0.265   3.652  11.709
 2804SOL    HW2 9069   0.275   3.575  11.565
 2805SOL     OW 9070   1.127   3.203  12.862
 2805SOL    HW1 9071   1.174   3.203  12.950
 2805SOL    HW2 9072   1.079   3.116  12.851
 2806SOL     OW 9073   0.230   3.296  11.710
 2806SOL    HW1 9074   0.204   3.392  11.710
 2806SOL    HW2 9075   0.159   3.242  11.755
 2807SOL     OW 9076   0.240   2.953  12.058
 2807SOL    HW1 9077   0.254   2.869  12.110
 2807SOL    HW2 9078   0.185   3.017  12.113
 2808SOL     OW 9079   0.620   3.648  12.611
 2808SOL    HW1 9080   0.528   3.631  12.646
 2808SOL    HW2 9081   0.648   3.740  12.637
 2809SOL     OW 9082   0.606   2.826  11.295
 2809SOL    HW1 9083   0.613   2.910  11.241
 2809SOL    HW2 9084   0.652   2.839  11.383
 2810SOL     OW 9085   1.594   1.976  12.652
 2810SOL    HW1 9086   1.576   2.043  12.580
 2810SOL    HW2 9087   1.591   2.022  12.741
 2811SOL     OW 9088   0.122   2.505  11.735
 2811SOL    HW1 9089   0.077   2.417  11.752
 2811SOL    HW2 9090   0.121   2.559  11.819
 2812SOL     OW 9091   1.842   3.629  11.531
 2812SOL    HW1 9092   1.896   3.600  11.611
 2812SOL    HW2 9093   1.872   3.719  11.502
 2813SOL     OW 9094   0.027   3.458  11.289
 2813SOL    HW1 9095   0.008   3.362  11.310
 2813SOL    HW2 9096  -0.006   3.516  11.364
 2814SOL     OW 9097   1.689   2.784  11.784
 2814SOL    HW1 9098   1.784   2.755  11.792
 2814SOL    HW2 9099   1.681   2.849  11.709
 2815SOL     OW 9100   1.641   2.970  11.604
 2815SOL    HW1 9101   1.727   2.972  11.552
 2815SOL    HW2 9102   1.655   3.017  11.692
 2816SOL     OW 9103   0.113   2.599  12.769
 2816SOL    HW1 9104   0.201   2.586  12.814
 2816SOL    HW2 9105   0.100   2.696  12.747
 2817SOL     OW 9106   0.613   3.227  11.898
 2817SOL    HW1 9107   0.564   3.140  11.907
 2817SOL    HW2 9108   0.590   3.270  11.811
 2818SOL     OW 9109   1.293   3.090  12.595
 2818SOL    HW1 9110   1.330   3.017  12.537
 2818SOL    HW2 9111   1.345   3.095  12.680
 2819SOL     OW 9112   0.809   1.866  11.674
 2819SOL    HW1 9113   0.849   1.957  11.665
 2819SOL    HW2 9114   0.709   1.874  11.680
 2820SOL     OW 9115   0.197   2.838  12.436
 2820SOL    HW1 9116   0.286   2.793  12.422
 2820SOL    HW2 9117   0.124   2.773  12.417
 2821SOL     OW 9118   1.525   2.861  11.362
 2821SOL    HW1 9119   1.462   2.785  11.375
 2821SOL    HW2 9120   1.573   2.879  11.448
 2822SOL     OW 9121   1.187   3.654  12.788
 2822SOL    HW1 9122   1.211   3.714  12.712
 2822SOL    HW2 9123   1.194   3.559  12.758
 2823SOL     OW 9124   0.317   2.113  12.973
 2823SOL    HW1 9125   0.388   2.184  12.979
 2823SOL    HW2 9126   0.229   2.152  13.001
 2824SOL     OW 9127   1.466   3.279  12.125
 2824SOL    HW1 9128   1.407   3.285  12.205
 2824SOL    HW2 9129   1.451   3.191  12.079
 2825SOL     OW 9130   1.667   3.576  11.744
 2825SOL    HW1 9131   1.626   3.553  11.656
 2825SOL    HW2 9132   1.649   3.502  11.809
 2826SOL     OW 9133   0.598   2.591  11.442
 2826SOL    HW1 9134   0.622   2.660  11.374
 2826SOL    HW2 9135   0.520   2.624  11.496
 2827SOL     OW 9136   1.281   2.207  12.116
 2827SOL    HW1 9137   1.195   2.157  12.103
 2827SOL    HW2 9138   1.343   2.153  12.172
 2828SOL     OW 9139   1.576   3.524  11.479
 2828SOL    HW1 9140   1.665   3.570  11.482
 2828SOL    HW2 9141   1.555   3.500  11.384
 2829SOL     OW 9142   0.807   2.467  12.637
 2829SOL    HW1 9143   0.760   2.464  12.726
 2829SOL    HW2 9144   0.756   2.412  12.571
 2830SOL     OW 9145   1.394   2.331  12.846
 2830SOL    HW1 9146   1.374   2.374  12.934
 2830SOL    HW2 9147   1.472   2.269  12.855
 2831SOL     OW 9148   0.973   2.752  12.744
 2831SOL    HW1 9149   1.019   2.668  12.715
 2831SOL    HW2 9150   0.917   2.786  12.669
 2832SOL     OW 9151   0.991   2.272  12.414
 2832SOL    HW1 9152   0.914   2.306  12.468
 2832SOL    HW2 9153   0.957   2.221  12.335
 2833SOL     OW 9154   1.041   2.563  11.601
 2833SOL    HW1 9155   1.067   2.559  11.697
 2833SOL    HW2 9156   0.956   2.512  11.587
 2834SOL     OW 9157   0.076   2.673  11.961
 2834SOL    HW1 9158   0.175   2.661  11.970
 2834SOL    HW2 9159   0.052   2.768  11.982
 2835SOL     OW 9160   0.130   3.683  12.743
 2835SOL    HW1 9161   0.120   3.668  12.842
 2835SOL    HW2 9162   0.044   3.719  12.707
 2836SOL     OW 9163   0.865   2.210  11.367
 2836SOL    HW1 9164   0.924   2.273  11.318
 2836SOL    HW2 9165   0.884   2.116  11.338
 2837SOL     OW 9166   1.719   2.447  13.003
 2837SOL    HW1 9167   1.693   2.536  12.967
 2837SOL    HW2 9168   1.717   2.379  12.930
 2838SOL     OW 9169   1.362   3.006  11.717
 2838SOL    HW1 9170   1.445   2.977  11.669
 2838SOL    HW2 9171   1.313   3.073  11.661
 2839SOL     OW 9172   0.550   2.058  12.057
 2839SOL    HW1 9173   0.545   2.053  12.157
 2839SOL    HW2 9174   0.552   2.154  12.028
 2840SOL     OW 9175   1.008   3.318  11.649
 2840SOL    HW1 9176   0.962   3.390  11.597
 2840SOL    HW2 9177   1.004   3.338  11.747
 2841SOL     OW 9178   0.351   3.663  12.025
 2841SOL    HW1 9179   0.401   3.577  12.031
 2841SOL    HW2 9180   0.416   3.740  12.022
 2842SOL     OW 9181   1.795   2.928  12.045
 2842SOL    HW1 9182   1.733   2.913  11.969
 2842SOL    HW2 9183   1.743   2.939  12.130
 2843SOL     OW 9184   1.227   3.412  12.678
 2843SOL    HW1 9185   1.233   3.335  12.742
 2843SOL    HW2 9186   1.175   3.386  12.598
 2844SOL     OW 9187   0.321   2.805  11.414
 2844SOL    HW1 9188   0.403   2.844  11.372
 2844SOL    HW2 9189   0.294   2.723  11.365
 2845SOL     OW 9190   1.458   2.597  11.900
 2845SOL    HW1 9191   1.453   2.532  11.975
 2845SOL    HW2 9192   1.538   2.656  11.913
 2846SOL     OW 9193   0.461   3.128  12.899
 2846SOL    HW1 9194   0.411   3.129  12.813
 2846SOL    HW2 9195   0.398   3.110  12.975
 2847SOL     OW 9196   1.111   3.638  11.409
 2847SOL    HW1 9197   1.051   3.576  11.459
 2847SOL    HW2 9198   1.142   3.594  11.324
 2848SOL     OW 9199   0.202   2.147  12.670
 2848SOL    HW1 9200   0.122   2.207  12.657
 2848SOL    HW2 9201   0.192   2.098  12.756
 2849SOL     OW 9202   1.632   3.239  11.253
 2849SOL    HW1 9203   1.600   3.333  11.243
 2849SOL    HW2 9204   1.556   3.176  11.241
 2850SOL     OW 9205   0.464   3.605  11.495
 2850SOL    HW1 9206   0.497   3.644  11.581
 2850SOL    HW2 9207   0.540   3.598  11.430
 2851SOL     OW 9208   1.400   1.969  11.598
 2851SOL    HW1 9209   1.376   1.932  11.508
 2851SOL    HW2 9210   1.499   1.985  11.602
 2852SOL     OW 9211   0.249   3.647  12.413
 2852SOL    HW1 9212   0.306   3.582  12.463
 2852SOL    HW2 9213   0.233   3.614  12.320
 2853SOL     OW 9214   0.940   3.560  12.076
 2853SOL    HW1 9215   1.020   3.503  12.097
 2853SOL    HW2 9216   0.891   3.520  11.999
 2854SOL     OW 9217   0.382   2.562  11.652
 2854SOL    HW1 9218   0.427   2.472  11.649
 2854SOL    HW2 9219   0.288   2.551  11.685
 2855SOL     OW 9220   1.547   2.084  12.901
 2855SOL    HW1 9221   1.542   2.121  12.993
 2855SOL    HW2 9222   1.475   2.015  12.889
 2856SOL     OW 9223   0.614   1.984  11.289
 2856SOL    HW1 9224   0.712   1.962  11.296
 2856SOL    HW2 9225   0.583   1.967  11.196
 2857SOL     OW 9226   0.781   2.126  12.921
 2857SOL    HW1 9227   0.848   2.065  12.964
 2857SOL    HW2 9228   0.708   2.145  12.986
 2858SOL     OW 9229   0.888   3.376  12.367
 2858SOL    HW1 9230   0.865   3.351  12.273
 2858SOL    HW2 9231   0.949   3.307  12.406
 2859SOL     OW 9232   1.351   2.452  12.605
 2859SOL    HW1 9233   1.379   2.409  12.690
 2859SOL    HW2 9234   1.376   2.548  12.606
 2860SOL     OW 9235   0.803   3.264  12.096
 2860SOL    HW1 9236   0.893   3.278  12.054
 2860SOL    HW2 9237   0.732   3.266  12.025
 2861SOL     OW 9238   0.922   2.365  12.071
 2861SOL    HW1 9239   0.897   2.356  11.975
 2861SOL    HW2 9240   0.970   2.283  12.102
 2862SOL     OW 9241   0.539   1.926  11.684
 2862SOL    HW1 9242   0.458   1.927  11.742
 2862SOL    HW2 9243   0.542   2.009  11.629
 2863SOL     OW 9244   1.434   3.050  11.213
 2863SOL    HW1 9245   1.466   2.974  11.270
 2863SOL    HW2 9246   1.342   3.077  11.243
 2864SOL     OW 9247   0.297   1.897  11.343
 2864SOL    HW1 9248   0.346   1.981  11.322
 2864SOL    HW2 9249   0.359   1.832  11.388
 2865SOL     OW 9250   0.935   2.098  11.652
 2865SOL    HW1 9251   0.887   2.139  11.574
 2865SOL    HW2 9252   1.034   2.096  11.633
 2866SOL     OW 9253   1.076   2.545  12.636
 2866SOL    HW1 9254   0.996   2.484  12.639
 2866SOL    HW2 9255   1.157   2.492  12.612
 2867SOL     OW 9256   1.227   3.432  11.965
 2867SOL    HW1 9257   1.248   3.506  11.900
 2867SOL    HW2 9258   1.295   3.432  12.038
 2868SOL     OW 9259   0.459   3.014  11.913
 2868SOL    HW1 9260   0.388   2.987  11.978
 2868SOL    HW2 9261   0.433   2.986  11.820
 2869SOL     OW 9262   1.271   3.659  11.763
 2869SOL    HW1 9263   1.315   3.723  11.699
 2869SOL    HW2 9264   1.221   3.711  11.833
 2870SOL     OW 9265   1.032   2.411  11.188
 2870SOL    HW1 9266   0.991   2.493  11.149
 2870SOL    HW2 9267   1.096   2.437  11.261
 2871SOL     OW 9268   0.078   2.418  12.558
 2871SOL    HW1 9269   0.170   2.417  12.517
 2871SOL    HW2 9270   0.072   2.492  12.625
 2872SOL     OW 9271   0.561   2.084  12.319
 2872SOL    HW1 9272   0.599   2.000  12.356
 2872SOL    HW2 9273   0.473   2.103  12.363
 2873SOL     OW 9274   0.866   2.316  11.814
 2873SOL    HW1 9275   0.834   2.388  11.752
 2873SOL    HW2 9276   0.890   2.235  11.761
 2874SOL     OW 9277   1.017   1.901  11.925
 2874SOL    HW1 9278   0.945   1.906  11.856
 2874SOL    HW2 9279   0.993   1.832  11.994
 2875SOL     OW 9280   1.429   3.035  12.039
 2875SOL    HW1 9281   1.374   2.951  12.032
 2875SOL    HW2 9282   1.455   3.064  11.947
 2876SOL     OW 9283   1.466   2.452  12.164
 2876SOL    HW1 9284   1.436   2.357  12.171
 2876SOL    HW2 9285   1.539   2.468  12.230
 2877SOL     OW 9286   1.857   2.695  11.549
 2877SOL    HW1 9287   1.899   2.631  11.613
 2877SOL    HW2 9288   1.819   2.644  11.471
 2878SOL     OW 9289   0.488   3.247  11.346
 2878SOL    HW1 9290   0.401   3.232  11.393
 2878SOL    HW2 9291   0.471   3.273  11.251
 2879SOL     OW 9292   1.664   3.142  11.829
 2879SOL    HW1 9293   1.763   3.150  11.843
 2879SOL    HW2 9294   1.619   3.226  11.860
 2880SOL     OW 9295   1.390   2.437  11.250
 2880SOL    HW1 9296   1.336   2.416  11.331
 2880SOL    HW2 9297   1.481   2.396  11.259
 2881SOL     OW 9298   0.527   2.118  11.500
 2881SOL    HW1 9299   0.554   2.059  11.425
 2881SOL    HW2 9300   0.527   2.213  11.469
 2882SOL     OW 9301   1.754   3.085  12.760
 2882SOL    HW1 9302   1.845   3.046  12.747
 2882SOL    HW2 9303   1.762   3.181  12.784
 2883SOL     OW 9304   1.064   3.209  12.512
 2883SOL    HW1 9305   0.984   3.186  12.567
 2883SOL    HW2 9306   1.147   3.183  12.561
 2884SOL     OW 9307   1.592   3.491  12.797
 2884SOL    HW1 9308   1.619   3.525  12.707
 2884SOL    HW2 9309   1.671   3.453  12.843
 2885SOL     OW 9310   1.111   3.057  12.272
 2885SOL    HW1 9311   1.071   3.101  12.353
 2885SOL    HW2 9312   1.070   3.094  12.189
 2886SOL     OW 9313   1.638   2.961  12.251
 2886SOL    HW1 9314   1.643   3.042  12.310
 2886SOL    HW2 9315   1.552   2.963  12.200
 2887SOL     OW 9316   0.915   1.951  12.574
 2887SOL    HW1 9317   0.940   1.931  12.479
 2887SOL    HW2 9318   0.987   2.007  12.616
 2888SOL     OW 9319   0.980   2.978  12.891
 2888SOL    HW1 9320   0.881   2.984  12.901
 2888SOL    HW2 9321   1.003   2.898  12.835
 2889SOL     OW 9322   0.705   2.912  11.540
 2889SOL    HW1 9323   0.691   2.919  11.639
 2889SOL    HW2 9324   0.789   2.861  11.522
 2890SOL     OW 9325   0.410   2.675  12.423
 2890SOL    HW1 9326   0.496   2.687  12.473
 2890SOL    HW2 9327   0.368   2.588  12.450
 2891SOL     OW 9328   1.274   2.248  12.434
 2891SOL    HW1 9329   1.295   2.322  12.498
 2891SOL    HW2 9330   1.185   2.265  12.391
 2892SOL     OW 9331   0.064   3.426  12.503
 2892SOL    HW1 9332   0.018   3.508  12.469
 2892SOL    HW2 9333   0.162   3.445  12.512
 2893SOL     OW 9334   0.367   2.962  11.673
 2893SOL    HW1 9335   0.360   3.045  11.617
 2893SOL    HW2 9336   0.371   2.882  11.613
 2894SOL     OW 9337   0.566   2.399  12.037
 2894SOL    HW1 9338   0.578   2.465  11.963
 2894SOL    HW2 9339   0.612   2.433  12.120
 2895SOL     OW 9340   1.252   3.210  11.560
 2895SOL    HW1 9341   1.302   3.287  11.600
 2895SOL    HW2 9342   1.157   3.212  11.592
 2896SOL     OW 9343   1.272   3.307  12.314
 2896SOL    HW1 9344   1.319   3.320  12.401
 2896SOL    HW2 9345   1.206   3.233  12.323
 2897SOL     OW 9346   1.582   2.501  11.644
 2897SOL    HW1 9347   1.551   2.562  11.717
 2897SOL    HW2 9348   1.632   2.553  11.575
 2898SOL     OW 9349   0.354   3.372  12.501
 2898SOL    HW1 9350   0.333   3.328  12.414
 2898SOL    HW2 9351   0.451   3.398  12.504
 2899SOL     OW 9352   0.402   2.613  12.770
 2899SOL    HW1 9353   0.470   2.668  12.723
 2899SOL    HW2 9354   0.442   2.525  12.797
 2900SOL     OW 9355   1.587   2.641  12.842
 2900SOL    HW1 9356   1.495   2.679  12.837
 2900SOL    HW2 9357   1.647   2.688  12.777
 2901SOL     OW 9358   1.013   1.967  12.942
 2901SOL    HW1 9359   1.019   2.052  12.890
 2901SOL    HW2 9360   1.045   1.891  12.885
 2902SOL     OW 9361   0.504   1.912  12.912
 2902SOL    HW1 9362   0.462   1.855  12.842
 2902SOL    HW2 9363   0.438   1.981  12.944
 2903SOL     OW 9364   0.573   2.732  12.201
 2903SOL    HW1 9365   0.617   2.821  12.192
 2903SOL    HW2 9366   0.510   2.732  12.278
 2904SOL     OW 9367   1.360   2.724  12.217
 2904SOL    HW1 9368   1.285   2.724  12.151
 2904SOL    HW2 9369   1.397   2.632  12.226
 2905SOL     OW 9370   1.209   2.387  11.447
 2905SOL    HW1 9371   1.222   2.303  11.501
 2905SOL    HW2 9372   1.180   2.461  11.507
 2906SOL     OW 9373   0.307   2.075  12.403
 2906SOL    HW1 9374   0.284   2.112  12.493
 2906SOL    HW2 9375   0.277   1.980  12.397
 2907SOL     OW 9376   0.037   3.172  12.454
 2907SOL    HW1 9377   0.090   3.123  12.522
 2907SOL    HW2 9378   0.059   3.270  12.459
 2908SOL     OW 9379   0.732   2.496  12.236
 2908SOL    HW1 9380   0.791   2.470  12.160
 2908SOL    HW2 9381   0.704   2.592  12.225
 2909SOL     OW 9382   1.728   2.797  13.026
 2909SOL    HW1 9383   1.682   2.790  12.937
 2909SOL    HW2 9384   1.666   2.841  13.092
 2910SOL     OW 9385   0.307   1.925  11.790
 2910SOL    HW1 9386   0.296   2.019  11.823
 2910SOL    HW2 9387   0.302   1.862  11.867
 2911SOL     OW 9388   1.622   2.229  11.546
 2911SOL    HW1 9389   1.624   2.153  11.610
 2911SOL    HW2 9390   1.574   2.306  11.586
 2912SOL     OW 9391   1.023   2.628  12.138
 2912SOL    HW1 9392   1.038   2.649  12.234
 2912SOL    HW2 9393   0.993   2.533  12.129
 2913SOL     OW 9394   0.980   3.435  12.872
 2913SOL    HW1 9395   0.960   3.479  12.784
 2913SOL    HW2 9396   1.019   3.344  12.856
 2914SOL     OW 9397   1.859   3.380  12.777
 2914SOL    HW1 9398   1.873   3.407  12.682
 2914SOL    HW2 9399   1.942   3.402  12.830
 2915SOL     OW 9400   0.350   2.760  12.976
 2915SOL    HW1 9401   0.426   2.804  13.024
 2915SOL    HW2 9402   0.385   2.713  12.894
 2916SOL     OW 9403   1.540   2.136  11.297
 2916SOL    HW1 9404   1.479   2.061  11.320
 2916SOL    HW2 9405   1.562   2.188  11.380
 2917SOL     OW 9406   1.303   2.700  11.214
 2917SOL    HW1 9407   1.337   2.607  11.229
 2917SOL    HW2 9408   1.321   2.727  11.119
 2918SOL     OW 9409   1.068   3.195  12.021
 2918SOL    HW1 9410   1.075   3.111  11.966
 2918SOL    HW2 9411   1.130   3.264  11.985
 2919SOL     OW 9412   0.319   2.672  12.121
 2919SOL    HW1 9413   0.412   2.708  12.126
 2919SOL    HW2 9414   0.313   2.587  12.173
 2920SOL     OW 9415   0.339   2.371  12.178
 2920SOL    HW1 9416   0.287   2.288  12.161
 2920SOL    HW2 9417   0.416   2.376  12.114
 2921SOL     OW 9418   1.138   2.242  12.850
 2921SOL    HW1 9419   1.093   2.305  12.914
 2921SOL    HW2 9420   1.231   2.273  12.833
 2922SOL     OW 9421   1.160   2.069  12.649
 2922SOL    HW1 9422   1.160   2.133  12.726
 2922SOL    HW2 9423   1.188   2.117  12.566
 2923SOL     OW 9424   0.008   3.188  11.372
 2923SOL    HW1 9425  -0.085   3.209  11.341
 2923SOL    HW2 9426   0.018   3.089  11.385
 2924SOL     OW 9427   0.088   3.663  12.099
 2924SOL    HW1 9428   0.046   3.577  12.072
 2924SOL    HW2 9429   0.182   3.666  12.065
 2925SOL     OW 9430   0.504   3.430  12.082
 2925SOL    HW1 9431   0.570   3.504  12.091
 2925SOL    HW2 9432   0.548   3.351  12.040
 2926SOL     OW 9433   1.002   2.658  12.410
 2926SOL    HW1 9434   1.043   2.626  12.496
 2926SOL    HW2 9435   0.906   2.631  12.407
 2927SOL     OW 9436   0.040   2.406  12.286
 2927SOL    HW1 9437   0.125   2.373  12.245
 2927SOL    HW2 9438   0.053   2.421  12.384
 2928SOL     OW 9439   0.189   2.382  12.894
 2928SOL    HW1 9440   0.248   2.342  12.824
 2928SOL    HW2 9441   0.131   2.453  12.853
 2929SOL     OW 9442   1.369   2.812  12.832
 2929SOL    HW1 9443   1.408   2.901  12.852
 2929SOL    HW2 9444   1.379   2.792  12.735
 2930SOL     OW 9445   0.815   2.434  11.497
 2930SOL    HW1 9446   0.822   2.345  11.451
 2930SOL    HW2 9447   0.721   2.468  11.489
 2931SOL     OW 9448   1.657   2.466  12.378
 2931SOL    HW1 9449   1.619   2.397  12.440
 2931SOL    HW2 9450   1.739   2.430  12.334
 2932SOL     OW 9451   0.252   3.426  12.916
 2932SOL    HW1 9452   0.222   3.483  12.992
 2932SOL    HW2 9453   0.245   3.329  12.942
 2933SOL     OW 9454   0.671   2.326  12.441
 2933SOL    HW1 9455   0.637   2.237  12.411
 2933SOL    HW2 9456   0.697   2.380  12.361
 2934SOL     OW 9457   0.930   3.540  12.637
 2934SOL    HW1 9458   0.906   3.522  12.542
 2934SOL    HW2 9459   0.960   3.634  12.647
 2935SOL     OW 9460   0.473   2.362  11.363
 2935SOL    HW1 9461   0.534   2.442  11.367
 2935SOL    HW2 9462   0.378   2.393  11.370
 2936SOL     OW 9463   0.159   2.999  12.638
 2936SOL    HW1 9464   0.181   2.938  12.714
 2936SOL    HW2 9465   0.169   2.950  12.552
 2937SOL     OW 9466   1.347   2.921  12.406
 2937SOL    HW1 9467   1.371   2.858  12.332
 2937SOL    HW2 9468   1.257   2.961  12.388
 2938SOL     OW 9469   1.302   2.717  11.481
 2938SOL    HW1 9470   1.216   2.686  11.523
 2938SOL    HW2 9471   1.298   2.703  11.382
 2939SOL     OW 9472   1.759   3.609  12.326
 2939SOL    HW1 9473   1.820   3.639  12.253
 2939SOL    HW2 9474   1.721   3.520  12.304
 2940SOL     OW 9475   1.252   3.593  12.300
 2940SOL    HW1 9476   1.336   3.598  12.246
 2940SOL    HW2 9477   1.229   3.497  12.318
 2941SOL     OW 9478   0.083   3.120  12.194
 2941SOL    HW1 9479   0.078   3.119  12.294
 2941SOL    HW2 9480   0.000   3.079  12.156
 2942SOL     OW 9481   0.688   3.524  12.888
 2942SOL    HW1 9482   0.632   3.605  12.897
 2942SOL    HW2 9483   0.740   3.528  12.802
 2943SOL     OW 9484   1.726   1.997  11.695
 2943SOL    HW1 9485   1.799   1.980  11.628
 2943SOL    HW2 9486   1.695   1.910  11.733
 2944SOL     OW 9487   1.388   3.435  11.649
 2944SOL    HW1 9488   1.455   3.447  11.575
 2944SOL    HW2 9489   1.348   3.524  11.672
 2945SOL     OW 9490   0.130   3.656  13.023
 2945SOL    HW1 9491   0.089   3.582  13.076
 2945SOL    HW2 9492   0.194   3.707  13.081
 2946SOL     OW 9493   1.280   2.789  11.844
 2946SOL    HW1 9494   1.340   2.708  11.846
 2946SOL    HW2 9495   1.320   2.858  11.784
 2947SOL     OW 9496   0.830   3.135  12.594
 2947SOL    HW1 9497   0.825   3.168  12.689
 2947SOL    HW2 9498   0.744   3.154  12.548
 2948SOL     OW 9499   0.672   3.478  11.326
 2948SOL    HW1 9500   0.681   3.488  11.227
 2948SOL    HW2 9501   0.632   3.389  11.347
 2949SOL     OW 9502   1.650   3.582  12.566
 2949SOL    HW1 9503   1.703   3.592  12.482
 2949SOL    HW2 9504   1.623   3.672  12.600
 2950SOL     OW 9505   1.841   2.037  12.135
 2950SOL    HW1 9506   1.880   1.952  12.099
 2950SOL    HW2 9507   1.743   2.039  12.116
 2951SOL     OW 9508   0.263   2.188  11.892
 2951SOL    HW1 9509   0.184   2.239  11.858
 2951SOL    HW2 9510   0.254   2.173  11.990
 2952SOL     OW 9511   1.194   3.474  11.203
 2952SOL    HW1 9512   1.200   3.381  11.240
 2952SOL    HW2 9513   1.135   3.474  11.123
 2953SOL     OW 9514   0.822   2.864  12.544
 2953SOL    HW1 9515   0.862   2.863  12.452
 2953SOL    HW2 9516   0.832   2.956  12.584
 2954SOL     OW 9517   0.916   2.772  11.463
 2954SOL    HW1 9518   0.979   2.810  11.395
 2954SOL    HW2 9519   0.956   2.689  11.502
 2955SOL     OW 9520   1.504   3.469  11.216
 2955SOL    HW1 9521   1.412   3.506  11.223
 2955SOL    HW2 9522   1.542   3.489  11.126
 2956SOL     OW 9523   0.372   3.150  12.662
 2956SOL    HW1 9524   0.359   3.243  12.628
 2956SOL    HW2 9525   0.288   3.098  12.649
 2957SOL     OW 9526   1.614   3.154  12.461
 2957SOL    HW1 9527   1.674   3.157  12.541
 2957SOL    HW2 9528   1.539   3.218  12.474
 2958SOL     OW 9529   1.039   2.960  11.868
 2958SOL    HW1 9530   0.969   2.913  11.922
 2958SOL    HW2 9531   1.098   2.892  11.825
 2959SOL     OW 9532   1.014   2.098  12.143
 2959SOL    HW1 9533   1.006   2.062  12.050
 2959SOL    HW2 9534   1.012   2.022  12.208
 2960SOL     OW 9535   0.590   3.349  11.663
 2960SOL    HW1 9536   0.632   3.291  11.593
 2960SOL    HW2 9537   0.546   3.428  11.619
 2961SOL     OW 9538   1.709   2.247  12.553
 2961SOL    HW1 9539   1.782   2.316  12.557
 2961SOL    HW2 9540   1.737   2.172  12.494
 2962SOL     OW 9541   0.255   3.210  11.462
 2962SOL    HW1 9542   0.159   3.211  11.435
 2962SOL    HW2 9543   0.267   3.263  11.546
 2963SOL     OW 9544   0.105   2.875  12.898
 2963SOL    HW1 9545   0.028   2.842  12.952
 2963SOL    HW2 9546   0.190   2.845  12.940
 2964SOL     OW 9547   0.672   2.065  12.661
 2964SOL    HW1 9548   0.762   2.049  12.621
 2964SOL    HW2 9549   0.680   2.070  12.760
 2965SOL     OW 9550   0.075   2.207  11.205
 2965SOL    HW1 9551  -0.017   2.179  11.176
 2965SOL    HW2 9552   0.106   2.284  11.149
 2966SOL     OW 9553   1.440   2.718  12.570
 2966SOL    HW1 9554   1.383   2.770  12.507
 2966SOL    HW2 9555   1.536   2.730  12.546
 2967SOL     OW 9556   0.072   2.028  11.490
 2967SOL    HW1 9557   0.055   2.111  11.436
 2967SOL    HW2 9558   0.162   1.991  11.468
 2968SOL     OW 9559   1.183   3.197  11.291
 2968SOL    HW1 9560   1.084   3.186  11.293
 2968SOL    HW2 9561   1.217   3.212  11.384
 2969SOL     OW 9562   0.613   2.704  12.603
 2969SOL    HW1 9563   0.669   2.785  12.586
 2969SOL    HW2 9564   0.672   2.624  12.606
 2970SOL     OW 9565   1.493   3.629  12.131
 2970SOL    HW1 9566   1.526   3.693  12.062
 2970SOL    HW2 9567   1.559   3.623  12.206
 2971SOL     OW 9568   0.716   2.427  12.880
 2971SOL    HW1 9569   0.735   2.492  12.954
 2971SOL    HW2 9570   0.776   2.347  12.889
 2972SOL     OW 9571   1.450   3.082  12.805
 2972SOL    HW1 9572   1.441   3.072  12.904
 2972SOL    HW2 9573   1.546   3.075  12.779
 2973SOL     OW 9574   0.390   3.603  12.732
 2973SOL    HW1 9575   0.299   3.644  12.730
 2973SOL    HW2 9576   0.383   3.509  12.764
 2974SOL     OW 9577   1.674   2.745  12.426
 2974SOL    HW1 9578   1.647   2.656  12.389
 2974SOL    HW2 9579   1.675   2.813  12.353
 2975SOL     OW 9580   1.225   2.187  11.621
 2975SOL    HW1 9581   1.290   2.113  11.610
 2975SOL    HW2 9582   1.245   2.237  11.705
 2976SOL     OW 9583   0.594   2.607  11.824
 2976SOL    HW1 9584   0.644   2.692  11.805
 2976SOL    HW2 9585   0.506   2.609  11.776
 2977SOL     OW 9586   1.777   2.204  12.814
 2977SOL    HW1 9587   1.760   2.235  12.720
 2977SOL    HW2 9588   1.693   2.167  12.852
 2978SOL     OW 9589   1.730   2.796  12.689
 2978SOL    HW1 9590   1.768   2.887  12.704
 2978SOL    HW2 9591   1.722   2.779  12.590
 2979SOL     OW 9592   0.859   3.236  11.188
 2979SOL    HW1 9593   0.813   3.251  11.276
 2979SOL    HW2 9594   0.903   3.321  11.158
 2980SOL     OW 9595   0.661   3.652  12.125
 2980SOL    HW1 9596   0.615   3.740  12.112
 2980SOL    HW2 9597   0.760   3.664  12.118
 2981SOL     OW 9598   0.859   2.818  12.033
 2981SOL    HW1 9599   0.913   2.749  12.081
 2981SOL    HW2 9600   0.827   2.887  12.099
 2982SOL     OW 9601   1.083   2.846  11.259
 2982SOL    HW1 9602   1.060   2.899  11.177
 2982SOL    HW2 9603   1.164   2.790  11.240
 2983SOL     OW 9604   1.861   3.431  12.023
 2983SOL    HW1 9605   1.790   3.419  11.953
 2983SOL    HW2 9606   1.862   3.352  12.083
 2984SOL     OW 9607   0.221   3.176  13.016
 2984SOL    HW1 9608   0.156   3.103  12.995
 2984SOL    HW2 9609   0.225   3.190  13.114
 2985SOL     OW 9610   0.079   3.102  11.825
 2985SOL    HW1 9611   0.078   3.055  11.913
 2985SOL    HW2 9612   0.161   3.074  11.774
 2986SOL     OW 9613   0.672   3.253  12.796
 2986SOL    HW1 9614   0.594   3.203  12.834
 2986SOL    HW2 9615   0.669   3.348  12.827
 2987SOL     OW 9616   0.428   2.286  11.692
 2987SOL    HW1 9617   0.458   2.214  11.630
 2987SOL    HW2 9618   0.389   2.246  11.775
 2988SOL     OW 9619   1.705   3.349  12.276
 2988SOL    HW1 9620   1.612   3.324  12.249
 2988SOL    HW2 9621   1.731   3.299  12.358
 2989SOL     OW 9622   0.317   2.409  12.452
 2989SOL    HW1 9623   0.355   2.350  12.524
 2989SOL    HW2 9624   0.357   2.383  12.364
 2990SOL     OW 9625   0.812   3.448  11.859
 2990SOL    HW1 9626   0.844   3.458  11.765
 2990SOL    HW2 9627   0.733   3.386  11.861
 2991SOL     OW 9628   1.424   2.076  12.284
 2991SOL    HW1 9629   1.476   2.011  12.339
 2991SOL    HW2 9630   1.375   2.139  12.345
 2992SOL     OW 9631   1.001   1.896  12.326
 2992SOL    HW1 9632   0.938   1.824  12.295
 2992SOL    HW2 9633   1.094   1.860  12.326
 2993SOL     OW 9634   0.770   3.192  11.473
 2993SOL    HW1 9635   0.724   3.105  11.490
 2993SOL    HW2 9636   0.861   3.189  11.514
 2994SOL     OW 9637   0.618   3.429  12.456
 2994SOL    HW1 9638   0.613   3.511  12.513
 2994SOL    HW2 9639   0.707   3.426  12.411
 2995SOL     OW 9640   1.352   1.914  11.340
 2995SOL    HW1 9641   1.387   1.873  11.256
 2995SOL    HW2 9642   1.262   1.876  11.360
 2996SOL     OW 9643   1.300   2.315  11.863
 2996SOL    HW1 9644   1.241   2.395  11.867
 2996SOL    HW2 9645   1.315   2.280  11.956
 2997SOL     OW 9646   1.593   2.083  12.054
 2997SOL    HW1 9647   1.509   2.082  12.108
 2997SOL    HW2 9648   1.595   2.166  11.998
 2998SOL     OW 9649   0.039   2.939  11.472
 2998SOL    HW1 9650   0.138   2.928  11.463
 2998SOL    HW2 9651  -0.001   2.853  11.504
 2999SOL     OW 9652   0.875   3.508  11.509
 2999SOL    HW1 9653   0.798   3.473  11.455
 2999SOL    HW2 9654   0.843   3.579  11.571
 3000SOL     OW 9655   0.230   2.490  13.147
 3000SOL    HW1 9656   0.137   2.488  13.184
 3000SOL    HW2 9657   0.231   2.451  13.055
 3001SOL     OW 9658   0.225   2.137  14.030
 3001SOL    HW1 9659   0.260   2.120  14.122
 3001SOL    HW2 9660   0.137   2.092  14.018
 3002SOL     OW 9661   0.019   2.230  13.681
 3002SOL    HW1 9662  -0.063   2.273  13.720
 3002SOL    HW2 9663  -0.009   2.157  13.618
 3003SOL     OW 9664   1.555   3.373  13.737
 3003SOL    HW1 9665   1.498   3.357  13.818
 3003SOL    HW2 9666   1.496   3.383  13.657
 3004SOL     OW 9667   1.135   2.565  13.751
 3004SOL    HW1 9668   1.192   2.643  13.726
 3004SOL    HW2 9669   1.075   2.591  13.827
 3005SOL     OW 9670   1.755   2.469  13.265
 3005SOL    HW1 9671   1.743   2.456  13.166
 3005SOL    HW2 9672   1.725   2.388  13.314
 3006SOL     OW 9673   0.685   2.874  13.699
 3006SOL    HW1 9674   0.754   2.858  13.769
 3006SOL    HW2 9675   0.612   2.931  13.737
 3007SOL     OW 9676   1.603   2.309  13.771
 3007SOL    HW1 9677   1.529   2.355  13.721
 3007SOL    HW2 9678   1.654   2.377  13.824
 3008SOL     OW 9679   0.231   3.575  13.517
 3008SOL    HW1 9680   0.265   3.652  13.571
 3008SOL    HW2 9681   0.275   3.575  13.427
 3009SOL     OW 9682   0.230   3.296  13.572
 3009SOL    HW1 9683   0.204   3.392  13.572
 3009SOL    HW2 9684   0.159   3.242  13.617
 3010SOL     OW 9685   0.240   2.953  13.920
 3010SOL    HW1 9686   0.254   2.869  13.972
 3010SOL    HW2 9687   0.185   3.017  13.975
 3011SOL     OW 9688   0.606   2.826  13.157
 3011SOL    HW1 9689   0.613   2.910  13.103
 3011SOL    HW2 9690   0.652   2.839  13.245
 3012SOL     OW 9691   0.122   2.505  13.597
 3012SOL    HW1 9692   0.077   2.417  13.614
 3012SOL    HW2 9693   0.121   2.559  13.681
 3013SOL     OW 9694   1.842   3.629  13.393
 3013SOL    HW1 9695   1.896   3.600  13.473
 3013SOL    HW2 9696   1.872   3.719  13.364
 3014SOL     OW 9697   0.027   3.458  13.151
 3014SOL    HW1 9698   0.008   3.362  13.172
 3014SOL    HW2 9699  -0.006   3.516  13.226
 3015SOL     OW 9700   1.689   2.784  13.646
 3015SOL    HW1 9701   1.784   2.755  13.654
 3015SOL    HW2 9702   1.681   2.849  13.571
 3016SOL     OW 9703   1.641   2.970  13.466
 3016SOL    HW1 9704   1.727   2.972  13.414
 3016SOL    HW2 9705   1.655   3.017  13.554
 3017SOL     OW 9706   0.613   3.227  13.760
 3017SOL    HW1 9707   0.564   3.140  13.769
 3017SOL    HW2 9708   0.590   3.270  13.673
 3018SOL     OW 9709   0.809   1.866  13.536
 3018SOL    HW1 9710   0.849   1.957  13.527
 3018SOL    HW2 9711   0.709   1.874  13.542
 3019SOL     OW 9712   1.525   2.861  13.224
 3019SOL    HW1 9713   1.462   2.785  13.237
 3019SOL    HW2 9714   1.573   2.879  13.310
 3020SOL     OW 9715   1.667   3.576  13.606
 3020SOL    HW1 9716   1.626   3.553  13.518
 3020SOL    HW2 9717   1.649   3.502  13.671
 3021SOL     OW 9718   0.598   2.591  13.304
 3021SOL    HW1 9719   0.622   2.660  13.236
 3021SOL    HW2 9720   0.520   2.624  13.358
 3022SOL     OW 9721   1.281   2.207  13.978
 3022SOL    HW1 9722   1.195   2.157  13.965
 3022SOL    HW2 9723   1.343   2.153  14.034
 3023SOL     OW 9724   1.576   3.524  13.341
 3023SOL    HW1 9725   1.665   3.570  13.344
 3023SOL    HW2 9726   1.555   3.500  13.246
 3024SOL     OW 9727   1.041   2.563  13.463
 3024SOL    HW1 9728   1.067   2.559  13.559
 3024SOL    HW2 9729   0.956   2.512  13.449
 3025SOL     OW 9730   0.076   2.673  13.823
 3025SOL    HW1 9731   0.175   2.661  13.832
 3025SOL    HW2 9732   0.052   2.768  13.844
 3026SOL     OW 9733   0.865   2.210  13.229
 3026SOL    HW1 9734   0.924   2.273  13.180
 3026SOL    HW2 9735   0.884   2.116  13.200
 3027SOL     OW 9736   1.362   3.006  13.579
 3027SOL    HW1 9737   1.445   2.977  13.531
 3027SOL    HW2 9738   1.313   3.073  13.523
 3028SOL     OW 9739   1.008   3.318  13.511
 3028SOL    HW1 9740   0.962   3.390  13.459
 3028SOL    HW2 9741   1.004   3.338  13.609
 3029SOL     OW 9742   0.351   3.663  13.887
 3029SOL    HW1 9743   0.401   3.577  13.893
 3029SOL    HW2 9744   0.416   3.740  13.884
 3030SOL     OW 9745   1.795   2.928  13.907
 3030SOL    HW1 9746   1.733   2.913  13.831
 3030SOL    HW2 9747   1.743   2.939  13.992
 3031SOL     OW 9748   0.321   2.805  13.276
 3031SOL    HW1 9749   0.403   2.844  13.234
 3031SOL    HW2 9750   0.294   2.723  13.227
 3032SOL     OW 9751   1.458   2.597  13.762
 3032SOL    HW1 9752   1.453   2.532  13.837
 3032SOL    HW2 9753   1.538   2.656  13.775
 3033SOL     OW 9754   1.111   3.638  13.271
 3033SOL    HW1 9755   1.051   3.576  13.321
 3033SOL    HW2 9756   1.142   3.594  13.186
 3034SOL     OW 9757   1.632   3.239  13.115
 3034SOL    HW1 9758   1.600   3.333  13.105
 3034SOL    HW2 9759   1.556   3.176  13.103
 3035SOL     OW 9760   0.464   3.605  13.357
 3035SOL    HW1 9761   0.497   3.644  13.443
 3035SOL    HW2 9762   0.540   3.598  13.292
 3036SOL     OW 9763   1.400   1.969  13.460
 3036SOL    HW1 9764   1.376   1.932  13.370
 3036SOL    HW2 9765   1.499   1.985  13.464
 3037SOL     OW 9766   0.940   3.560  13.938
 3037SOL    HW1 9767   1.020   3.503  13.959
 3037SOL    HW2 9768   0.891   3.520  13.861
 3038SOL     OW 9769   0.382   2.562  13.514
 3038SOL    HW1 9770   0.427   2.472  13.511
 3038SOL    HW2 9771   0.288   2.551  13.547
 3039SOL     OW 9772   0.614   1.984  13.151
 3039SOL    HW1 9773   0.712   1.962  13.158
 3039SOL    HW2 9774   0.583   1.967  13.058
 3040SOL     OW 9775   0.539   1.926  13.546
 3040SOL    HW1 9776   0.458   1.927  13.604
 3040SOL    HW2 9777   0.542   2.009  13.491
 3041SOL     OW 9778   1.434   3.050  13.075
 3041SOL    HW1 9779   1.466   2.974  13.132
 3041SOL    HW2 9780   1.342   3.077  13.105
 3042SOL     OW 9781   0.297   1.897  13.205
 3042SOL    HW1 9782   0.346   1.981  13.184
 3042SOL    HW2 9783   0.359   1.832  13.250
 3043SOL     OW 9784   0.935   2.098  13.514
 3043SOL    HW1 9785   0.887   2.139  13.436
 3043SOL    HW2 9786   1.034   2.096  13.495
 3044SOL     OW 9787   0.459   3.014  13.775
 3044SOL    HW1 9788   0.388   2.987  13.840
 3044SOL    HW2 9789   0.433   2.986  13.682
 3045SOL     OW 9790   1.271   3.659  13.625
 3045SOL    HW1 9791   1.315   3.723  13.561
 3045SOL    HW2 9792   1.221   3.711  13.695
 3046SOL     OW 9793   1.032   2.411  13.050
 3046SOL    HW1 9794   0.991   2.493  13.011
 3046SOL    HW2 9795   1.096   2.437  13.123
 3047SOL     OW 9796   0.866   2.316  13.676
 3047SOL    HW1 9797   0.834   2.388  13.614
 3047SOL    HW2 9798   0.890   2.235  13.623
 3048SOL     OW 9799   1.017   1.901  13.787
 3048SOL    HW1 9800   0.945   1.906  13.718
 3048SOL    HW2 9801   0.993   1.832  13.856
 3049SOL     OW 9802   1.857   2.695  13.411
 3049SOL    HW1 9803   1.899   2.631  13.475
 3049SOL    HW2 9804   1.819   2.644  13.333
 3050SOL     OW 9805   0.488   3.247  13.208
 3050SOL    HW1 9806   0.401   3.232  13.255
 3050SOL    HW2 9807   0.471   3.273  13.113
 3051SOL     OW 9808   1.664   3.142  13.691
 3051SOL    HW1 9809   1.763   3.150  13.705
 3051SOL    HW2 9810   1.619   3.226  13.722
 3052SOL     OW 9811   1.390   2.437  13.112
 3052SOL    HW1 9812   1.336   2.416  13.193
 3052SOL    HW2 9813   1.481   2.396  13.121
 3053SOL     OW 9814   0.527   2.118  13.362
 3053SOL    HW1 9815   0.554   2.059  13.287
 3053SOL    HW2 9816   0.527   2.213  13.331
 3054SOL     OW 9817   0.705   2.912  13.402
 3054SOL    HW1 9818   0.691   2.919  13.501
 3054SOL    HW2 9819   0.789   2.861  13.384
 3055SOL     OW 9820   0.367   2.962  13.535
 3055SOL    HW1 9821   0.360   3.045  13.479
 3055SOL    HW2 9822   0.371   2.882  13.475
 3056SOL     OW 9823   0.566   2.399  13.899
 3056SOL    HW1 9824   0.578   2.465  13.825
 3056SOL    HW2 9825   0.612   2.433  13.982
 3057SOL     OW 9826   1.252   3.210  13.422
 3057SOL    HW1 9827   1.302   3.287  13.462
 3057SOL    HW2 9828   1.157   3.212  13.454
 3058SOL     OW 9829   1.582   2.501  13.506
 3058SOL    HW1 9830   1.551   2.562  13.579
 3058SOL    HW2 9831   1.632   2.553  13.437
 3059SOL     OW 9832   1.209   2.387  13.309
 3059SOL    HW1 9833   1.222   2.303  13.363
 3059SOL    HW2 9834   1.180   2.461  13.369
 3060SOL     OW 9835   0.307   1.925  13.652
 3060SOL    HW1 9836   0.296   2.019  13.685
 3060SOL    HW2 9837   0.302   1.862  13.729
 3061SOL     OW 9838   1.622   2.229  13.408
 3061SOL    HW1 9839   1.624   2.153  13.472
 3061SOL    HW2 9840   1.574   2.306  13.448
 3062SOL     OW 9841   1.540   2.136  13.159
 3062SOL    HW1 9842   1.479   2.061  13.182
 3062SOL    HW2 9843   1.562   2.188  13.242
 3063SOL     OW 9844   1.303   2.700  13.076
 3063SOL    HW1 9845   1.337   2.607  13.091
 3063SOL    HW2 9846   1.321   2.727  12.981
 3064SOL     OW 9847   0.008   3.188  13.234
 3064SOL    HW1 9848  -0.085   3.209  13.203
 3064SOL    HW2 9849   0.018   3.089  13.247
 3065SOL     OW 9850   0.815   2.434  13.359
 3065SOL    HW1 9851   0.822   2.345  13.313
 3065SOL    HW2 9852   0.721   2.468  13.351
 3066SOL     OW 9853   0.473   2.362  13.225
 3066SOL    HW1 9854   0.534   2.442  13.229
 3066SOL    HW2 9855   0.378   2.393  13.232
 3067SOL     OW 9856   1.302   2.717  13.343
 3067SOL    HW1 9857   1.216   2.686  13.385
 3067SOL    HW2 9858   1.298   2.703  13.244
 3068SOL     OW 9859   1.726   1.997  13.557
 3068SOL    HW1 9860   1.799   1.980  13.490
 3068SOL    HW2 9861   1.695   1.910  13.595
 3069SOL     OW 9862   1.388   3.435  13.511
 3069SOL    HW1 9863   1.455   3.447  13.437
 3069SOL    HW2 9864   1.348   3.524  13.534
 3070SOL     OW 9865   1.280   2.789  13.706
 3070SOL    HW1 9866   1.340   2.708  13.708
 3070SOL    HW2 9867   1.320   2.858  13.646
 3071SOL     OW 9868   0.672   3.478  13.188
 3071SOL    HW1 9869   0.681   3.488  13.089
 3071SOL    HW2 9870   0.632   3.389  13.209
 3072SOL     OW 9871   0.263   2.188  13.754
 3072SOL    HW1 9872   0.184   2.239  13.720
 3072SOL    HW2 9873   0.254   2.173  13.852
 3073SOL     OW 9874   1.194   3.474  13.065
 3073SOL    HW1 9875   1.200   3.381  13.102
 3073SOL    HW2 9876   1.135   3.474  12.985
 3074SOL     OW 9877   0.916   2.772  13.325
 3074SOL    HW1 9878   0.979   2.810  13.257
 3074SOL    HW2 9879   0.956   2.689  13.364
 3075SOL     OW 9880   1.504   3.469  13.078
 3075SOL    HW1 9881   1.412   3.506  13.085
 3075SOL    HW2 9882   1.542   3.489  12.988
 3076SOL     OW 9883   1.039   2.960  13.730
 3076SOL    HW1 9884   0.969   2.913  13.784
 3076SOL    HW2 9885   1.098   2.892  13.687
 3077SOL     OW 9886   0.590   3.349  13.525
 3077SOL    HW1 9887   0.632   3.291  13.455
 3077SOL    HW2 9888   0.546   3.428  13.481
 3078SOL     OW 9889   0.255   3.210  13.324
 3078SOL    HW1 9890   0.159   3.211  13.297
 3078SOL    HW2 9891   0.267   3.263  13.408
 3079SOL     OW 9892   0.075   2.207  13.067
 3079SOL    HW1 9893  -0.017   2.179  13.038
 3079SOL    HW2 9894   0.106   2.284  13.011
 3080SOL     OW 9895   0.072   2.028  13.352
 3080SOL    HW1 9896   0.055   2.111  13.298
 3080SOL    HW2 9897   0.162   1.991  13.330
 3081SOL     OW 9898   1.183   3.197  13.153
 3081SOL    HW1 9899   1.084   3.186  13.155
 3081SOL    HW2 9900   1.217   3.212  13.246
 3082SOL     OW 9901   1.225   2.187  13.483
 3082SOL    HW1 9902   1.290   2.113  13.472
 3082SOL    HW2 9903   1.245   2.237  13.567
 3083SOL     OW 9904   0.594   2.607  13.686
 3083SOL    HW1 9905   0.644   2.692  13.667
 3083SOL    HW2 9906   0.506   2.609  13.638
 3084SOL     OW 9907   0.859   3.236  13.050
 3084SOL    HW1 9908   0.813   3.251  13.138
 3084SOL    HW2 9909   0.903   3.321  13.020
 3085SOL     OW 9910   0.661   3.652  13.987
 3085SOL    HW1 9911   0.615   3.740  13.974
 3085SOL    HW2 9912   0.760   3.664  13.980
 3086SOL     OW 9913   0.859   2.818  13.895
 3086SOL    HW1 9914   0.913   2.749  13.943
 3086SOL    HW2 9915   0.827   2.887  13.961
 3087SOL     OW 9916   1.083   2.846  13.121
 3087SOL    HW1 9917   1.060   2.899  13.039
 3087SOL    HW2 9918   1.164   2.790  13.102
 3088SOL     OW 9919   0.079   3.102  13.687
 3088SOL    HW1 9920   0.078   3.055  13.775
 3088SOL    HW2 9921   0.161   3.074  13.636
 3089SOL     OW 9922   0.428   2.286  13.554
 3089SOL    HW1 9923   0.458   2.214  13.492
 3089SOL    HW2 9924   0.389   2.246  13.637
 3090SOL     OW 9925   1.705   3.349  14.138
 3090SOL    HW1 9926   1.612   3.324  14.111
 3090SOL    HW2 9927   1.731   3.299  14.220
 3091SOL     OW 9928   0.812   3.448  13.721
 3091SOL    HW1 9929   0.844   3.458  13.627
 3091SOL    HW2 9930   0.733   3.386  13.723
 3092SOL     OW 9931   0.770   3.192  13.335
 3092SOL    HW1 9932   0.724   3.105  13.352
 3092SOL    HW2 9933   0.861   3.189  13.376
 3093SOL     OW 9934   1.352   1.914  13.202
 3093SOL    HW1 9935   1.387   1.873  13.118
 3093SOL    HW2 9936   1.262   1.876  13.222
 3094SOL     OW 9937   1.300   2.315  13.725
 3094SOL    HW1 9938   1.241   2.395  13.729
 3094SOL    HW2 9939   1.315   2.280  13.818
 3095SOL     OW 9940   0.039   2.939  13.334
 3095SOL    HW1 9941   0.138   2.928  13.325
 3095SOL    HW2 9942  -0.001   2.853  13.366
 3096SOL     OW 9943   0.875   3.508  13.371
 3096SOL    HW1 9944   0.798   3.473  13.317
 3096SOL    HW2 9945   0.843   3.579  13.433
 3097SOL     OW 9946   0.225   3.999   0.996
 3097SOL    HW1 9947   0.260   3.982   1.088
 3097SOL    HW2 9948   0.137   3.954   0.984
 3098SOL     OW 9949   0.019   4.092   0.647
 3098SOL    HW1 9950  -0.063   4.135   0.686
 3098SOL    HW2 9951  -0.009   4.019   0.584
 3099SOL     OW 9952   1.755   4.331   0.231
 3099SOL    HW1 9953   1.743   4.318   0.132
 3099SOL    HW2 9954   1.725   4.250   0.280
 3100SOL     OW 9955   0.438   4.116   1.499
 3100SOL    HW1 9956   0.520   4.060   1.508
 3100SOL    HW2 9957   0.357   4.058   1.503
 3101SOL     OW 9958   1.594   3.838   1.480
 3101SOL    HW1 9959   1.576   3.905   1.408
 3101SOL    HW2 9960   1.591   3.884   1.569
 3102SOL     OW 9961   0.809   3.728   0.502
 3102SOL    HW1 9962   0.849   3.819   0.493
 3102SOL    HW2 9963   0.709   3.736   0.508
 3103SOL     OW 9964   1.281   4.069   0.944
 3103SOL    HW1 9965   1.195   4.019   0.931
 3103SOL    HW2 9966   1.343   4.015   1.000
 3104SOL     OW 9967   0.550   3.920   0.885
 3104SOL    HW1 9968   0.545   3.915   0.985
 3104SOL    HW2 9969   0.552   4.016   0.856
 3105SOL     OW 9970   0.202   4.009   1.498
 3105SOL    HW1 9971   0.122   4.069   1.485
 3105SOL    HW2 9972   0.192   3.960   1.584
 3106SOL     OW 9973   1.400   3.831   0.426
 3106SOL    HW1 9974   1.376   3.794   0.336
 3106SOL    HW2 9975   1.499   3.847   0.430
 3107SOL     OW 9976   1.547   3.946   1.729
 3107SOL    HW1 9977   1.542   3.983   1.821
 3107SOL    HW2 9978   1.475   3.877   1.717
 3108SOL     OW 9979   0.781   3.988   1.749
 3108SOL    HW1 9980   0.848   3.927   1.792
 3108SOL    HW2 9981   0.708   4.007   1.814
 3109SOL     OW 9982   0.539   3.788   0.512
 3109SOL    HW1 9983   0.458   3.789   0.570
 3109SOL    HW2 9984   0.542   3.871   0.457
 3110SOL     OW 9985   0.297   3.759   0.171
 3110SOL    HW1 9986   0.346   3.843   0.150
 3110SOL    HW2 9987   0.359   3.694   0.216
 3111SOL     OW 9988   0.561   3.946   1.147
 3111SOL    HW1 9989   0.599   3.862   1.184
 3111SOL    HW2 9990   0.473   3.965   1.191
 3112SOL     OW 9991   1.017   3.763   0.753
 3112SOL    HW1 9992   0.945   3.768   0.684
 3112SOL    HW2 9993   0.993   3.694   0.822
 3113SOL     OW 9994   0.915   3.813   1.402
 3113SOL    HW1 9995   0.940   3.793   1.307
 3113SOL    HW2 9996   0.987   3.869   1.444
 3114SOL     OW 9997   1.274   4.110   1.262
 3114SOL    HW1 9998   1.295   4.184   1.326
 3114SOL    HW2 9999   1.185   4.127   1.219
 3115SOL     OW10000   0.504   3.774   1.740
 3115SOL    HW110001   0.462   3.717   1.670
 3115SOL    HW210002   0.438   3.843   1.772
 3116SOL     OW10003   0.307   3.937   1.231
 3116SOL    HW110004   0.284   3.974   1.321
 3116SOL    HW210005   0.277   3.842   1.225
 3117SOL     OW10006   1.540   3.998   0.125
 3117SOL    HW110007   1.479   3.923   0.148
 3117SOL    HW210008   1.562   4.050   0.208
 3118SOL     OW10009   1.160   3.931   1.477
 3118SOL    HW110010   1.160   3.995   1.554
 3118SOL    HW210011   1.188   3.979   1.394
 3119SOL     OW10012   0.903   3.810   0.133
 3119SOL    HW110013   0.954   3.811   0.047
 3119SOL    HW210014   0.959   3.768   0.204
 3120SOL     OW10015   1.726   3.859   0.523
 3120SOL    HW110016   1.799   3.842   0.456
 3120SOL    HW210017   1.695   3.772   0.561
 3121SOL     OW10018   1.841   3.899   0.963
 3121SOL    HW110019   1.880   3.814   0.927
 3121SOL    HW210020   1.743   3.901   0.944
 3122SOL     OW10021   0.672   3.927   1.489
 3122SOL    HW110022   0.762   3.911   1.449
 3122SOL    HW210023   0.680   3.932   1.588
 3123SOL     OW10024   0.075   4.069   0.033
 3123SOL    HW110025  -0.017   4.041   0.004
 3123SOL    HW210026   0.106   4.146  -0.023
 3124SOL     OW10027   0.072   3.890   0.318
 3124SOL    HW110028   0.055   3.973   0.264
 3124SOL    HW210029   0.162   3.853   0.296
 3125SOL     OW10030   1.225   4.049   0.449
 3125SOL    HW110031   1.290   3.975   0.438
 3125SOL    HW210032   1.245   4.099   0.533
 3126SOL     OW10033   1.777   4.066   1.642
 3126SOL    HW110034   1.760   4.097   1.548
 3126SOL    HW210035   1.693   4.029   1.680
 3127SOL     OW10036   1.824   3.916   1.227
 3127SOL    HW110037   1.820   3.826   1.271
 3127SOL    HW210038   1.827   3.905   1.128
 3128SOL     OW10039   1.424   3.938   1.112
 3128SOL    HW110040   1.476   3.873   1.167
 3128SOL    HW210041   1.375   4.001   1.173
 3129SOL     OW10042   1.001   3.758   1.154
 3129SOL    HW110043   0.938   3.686   1.123
 3129SOL    HW210044   1.094   3.722   1.154
 3130SOL     OW10045   1.352   3.776   0.168
 3130SOL    HW110046   1.387   3.735   0.084
 3130SOL    HW210047   1.262   3.738   0.188
 3131SOL     OW10048   1.300   4.177   0.691
 3131SOL    HW110049   1.241   4.257   0.695
 3131SOL    HW210050   1.315   4.142   0.784
 3132SOL     OW10051   1.593   3.945   0.882
 3132SOL    HW110052   1.509   3.944   0.936
 3132SOL    HW210053   1.595   4.028   0.826
 3133SOL     OW10054   0.225   3.999   2.858
 3133SOL    HW110055   0.260   3.982   2.950
 3133SOL    HW210056   0.137   3.954   2.846
 3134SOL     OW10057   0.019   4.092   2.509
 3134SOL    HW110058  -0.063   4.135   2.548
 3134SOL    HW210059  -0.009   4.019   2.446
 3135SOL     OW10060   1.755   4.331   2.093
 3135SOL    HW110061   1.743   4.318   1.994
 3135SOL    HW210062   1.725   4.250   2.142
 3136SOL     OW10063   0.438   4.116   3.361
 3136SOL    HW110064   0.520   4.060   3.370
 3136SOL    HW210065   0.357   4.058   3.365
 3137SOL     OW10066   1.594   3.838   3.342
 3137SOL    HW110067   1.576   3.905   3.270
 3137SOL    HW210068   1.591   3.884   3.431
 3138SOL     OW10069   0.809   3.728   2.364
 3138SOL    HW110070   0.849   3.819   2.355
 3138SOL    HW210071   0.709   3.736   2.370
 3139SOL     OW10072   1.281   4.069   2.806
 3139SOL    HW110073   1.195   4.019   2.793
 3139SOL    HW210074   1.343   4.015   2.862
 3140SOL     OW10075   0.550   3.920   2.747
 3140SOL    HW110076   0.545   3.915   2.847
 3140SOL    HW210077   0.552   4.016   2.718
 3141SOL     OW10078   0.202   4.009   3.360
 3141SOL    HW110079   0.122   4.069   3.347
 3141SOL    HW210080   0.192   3.960   3.446
 3142SOL     OW10081   1.400   3.831   2.288
 3142SOL    HW110082   1.376   3.794   2.198
 3142SOL    HW210083   1.499   3.847   2.292
 3143SOL     OW10084   1.547   3.946   3.591
 3143SOL    HW110085   1.542   3.983   3.683
 3143SOL    HW210086   1.475   3.877   3.579
 3144SOL     OW10087   0.614   3.846   1.979
 3144SOL    HW110088   0.712   3.824   1.986
 3144SOL    HW210089   0.583   3.829   1.886
 3145SOL     OW10090   0.781   3.988   3.611
 3145SOL    HW110091   0.848   3.927   3.654
 3145SOL    HW210092   0.708   4.007   3.676
 3146SOL     OW10093   0.539   3.788   2.374
 3146SOL    HW110094   0.458   3.789   2.432
 3146SOL    HW210095   0.542   3.871   2.319
 3147SOL     OW10096   0.297   3.759   2.033
 3147SOL    HW110097   0.346   3.843   2.012
 3147SOL    HW210098   0.359   3.694   2.078
 3148SOL     OW10099   0.561   3.946   3.009
 3148SOL    HW110100   0.599   3.862   3.046
 3148SOL    HW210101   0.473   3.965   3.053
 3149SOL     OW10102   1.017   3.763   2.615
 3149SOL    HW110103   0.945   3.768   2.546
 3149SOL    HW210104   0.993   3.694   2.684
 3150SOL     OW10105   0.915   3.813   3.264
 3150SOL    HW110106   0.940   3.793   3.169
 3150SOL    HW210107   0.987   3.869   3.306
 3151SOL     OW10108   1.274   4.110   3.124
 3151SOL    HW110109   1.295   4.184   3.188
 3151SOL    HW210110   1.185   4.127   3.081
 3152SOL     OW10111   0.504   3.774   3.602
 3152SOL    HW110112   0.462   3.717   3.532
 3152SOL    HW210113   0.438   3.843   3.634
 3153SOL     OW10114   0.307   3.937   3.093
 3153SOL    HW110115   0.284   3.974   3.183
 3153SOL    HW210116   0.277   3.842   3.087
 3154SOL     OW10117   1.540   3.998   1.987
 3154SOL    HW110118   1.479   3.923   2.010
 3154SOL    HW210119   1.562   4.050   2.070
 3155SOL     OW10120   1.160   3.931   3.339
 3155SOL    HW110121   1.160   3.995   3.416
 3155SOL    HW210122   1.188   3.979   3.256
 3156SOL     OW10123   0.903   3.810   1.995
 3156SOL    HW110124   0.954   3.811   1.909
 3156SOL    HW210125   0.959   3.768   2.066
 3157SOL     OW10126   1.726   3.859   2.385
 3157SOL    HW110127   1.799   3.842   2.318
 3157SOL    HW210128   1.695   3.772   2.423
 3158SOL     OW10129   1.841   3.899   2.825
 3158SOL    HW110130   1.880   3.814   2.789
 3158SOL    HW210131   1.743   3.901   2.806
 3159SOL     OW10132   0.672   3.927   3.351
 3159SOL    HW110133   0.762   3.911   3.311
 3159SOL    HW210134   0.680   3.932   3.450
 3160SOL     OW10135   0.075   4.069   1.895
 3160SOL    HW110136  -0.017   4.041   1.866
 3160SOL    HW210137   0.106   4.146   1.839
 3161SOL     OW10138   0.072   3.890   2.180
 3161SOL    HW110139   0.055   3.973   2.126
 3161SOL    HW210140   0.162   3.853   2.158
 3162SOL     OW10141   1.225   4.049   2.311
 3162SOL    HW110142   1.290   3.975   2.300
 3162SOL    HW210143   1.245   4.099   2.395
 3163SOL     OW10144   1.777   4.066   3.504
 3163SOL    HW110145   1.760   4.097   3.410
 3163SOL    HW210146   1.693   4.029   3.542
 3164SOL     OW10147   1.824   3.916   3.089
 3164SOL    HW110148   1.820   3.826   3.133
 3164SOL    HW210149   1.827   3.905   2.990
 3165SOL     OW10150   1.424   3.938   2.974
 3165SOL    HW110151   1.476   3.873   3.029
 3165SOL    HW210152   1.375   4.001   3.035
 3166SOL     OW10153   1.001   3.758   3.016
 3166SOL    HW110154   0.938   3.686   2.985
 3166SOL    HW210155   1.094   3.722   3.016
 3167SOL     OW10156   1.352   3.776   2.030
 3167SOL    HW110157   1.387   3.735   1.946
 3167SOL    HW210158   1.262   3.738   2.050
 3168SOL     OW10159   1.300   4.177   2.553
 3168SOL    HW110160   1.241   4.257   2.557
 3168SOL    HW210161   1.315   4.142   2.646
 3169SOL     OW10162   1.593   3.945   2.744
 3169SOL    HW110163   1.509   3.944   2.798
 3169SOL    HW210164   1.595   4.028   2.688
 3170SOL     OW10165   0.225   3.999   4.720
 3170SOL    HW110166   0.260   3.982   4.812
 3170SOL    HW210167   0.137   3.954   4.708
 3171SOL     OW10168   0.019   4.092   4.371
 3171SOL    HW110169  -0.063   4.135   4.410
 3171SOL    HW210170  -0.009   4.019   4.308
 3172SOL     OW10171   1.755   4.331   3.955
 3172SOL    HW110172   1.743   4.318   3.856
 3172SOL    HW210173   1.725   4.250   4.004
 3173SOL     OW10174   0.438   4.116   5.223
 3173SOL    HW110175   0.520   4.060   5.232
 3173SOL    HW210176   0.357   4.058   5.227
 3174SOL     OW10177   1.594   3.838   5.204
 3174SOL    HW110178   1.576   3.905   5.132
 3174SOL    HW210179   1.591   3.884   5.293
 3175SOL     OW10180   0.809   3.728   4.226
 3175SOL    HW110181   0.849   3.819   4.217
 3175SOL    HW210182   0.709   3.736   4.232
 3176SOL     OW10183   1.281   4.069   4.668
 3176SOL    HW110184   1.195   4.019   4.655
 3176SOL    HW210185   1.343   4.015   4.724
 3177SOL     OW10186   0.550   3.920   4.609
 3177SOL    HW110187   0.545   3.915   4.709
 3177SOL    HW210188   0.552   4.016   4.580
 3178SOL     OW10189   0.202   4.009   5.222
 3178SOL    HW110190   0.122   4.069   5.209
 3178SOL    HW210191   0.192   3.960   5.308
 3179SOL     OW10192   1.400   3.831   4.150
 3179SOL    HW110193   1.376   3.794   4.060
 3179SOL    HW210194   1.499   3.847   4.154
 3180SOL     OW10195   1.547   3.946   5.453
 3180SOL    HW110196   1.542   3.983   5.545
 3180SOL    HW210197   1.475   3.877   5.441
 3181SOL     OW10198   0.614   3.846   3.841
 3181SOL    HW110199   0.712   3.824   3.848
 3181SOL    HW210200   0.583   3.829   3.748
 3182SOL     OW10201   0.781   3.988   5.473
 3182SOL    HW110202   0.848   3.927   5.516
 3182SOL    HW210203   0.708   4.007   5.538
 3183SOL     OW10204   0.539   3.788   4.236
 3183SOL    HW110205   0.458   3.789   4.294
 3183SOL    HW210206   0.542   3.871   4.181
 3184SOL     OW10207   0.297   3.759   3.895
 3184SOL    HW110208   0.346   3.843   3.874
 3184SOL    HW210209   0.359   3.694   3.940
 3185SOL     OW10210   0.561   3.946   4.871
 3185SOL    HW110211   0.599   3.862   4.908
 3185SOL    HW210212   0.473   3.965   4.915
 3186SOL     OW10213   1.017   3.763   4.477
 3186SOL    HW110214   0.945   3.768   4.408
 3186SOL    HW210215   0.993   3.694   4.546
 3187SOL     OW10216   0.915   3.813   5.126
 3187SOL    HW110217   0.940   3.793   5.031
 3187SOL    HW210218   0.987   3.869   5.168
 3188SOL     OW10219   1.274   4.110   4.986
 3188SOL    HW110220   1.295   4.184   5.050
 3188SOL    HW210221   1.185   4.127   4.943
 3189SOL     OW10222   0.504   3.774   5.464
 3189SOL    HW110223   0.462   3.717   5.394
 3189SOL    HW210224   0.438   3.843   5.496
 3190SOL     OW10225   0.307   3.937   4.955
 3190SOL    HW110226   0.284   3.974   5.045
 3190SOL    HW210227   0.277   3.842   4.949
 3191SOL     OW10228   1.540   3.998   3.849
 3191SOL    HW110229   1.479   3.923   3.872
 3191SOL    HW210230   1.562   4.050   3.932
 3192SOL     OW10231   1.160   3.931   5.201
 3192SOL    HW110232   1.160   3.995   5.278
 3192SOL    HW210233   1.188   3.979   5.118
 3193SOL     OW10234   0.903   3.810   3.857
 3193SOL    HW110235   0.954   3.811   3.771
 3193SOL    HW210236   0.959   3.768   3.928
 3194SOL     OW10237   1.726   3.859   4.247
 3194SOL    HW110238   1.799   3.842   4.180
 3194SOL    HW210239   1.695   3.772   4.285
 3195SOL     OW10240   1.841   3.899   4.687
 3195SOL    HW110241   1.880   3.814   4.651
 3195SOL    HW210242   1.743   3.901   4.668
 3196SOL     OW10243   0.672   3.927   5.213
 3196SOL    HW110244   0.762   3.911   5.173
 3196SOL    HW210245   0.680   3.932   5.312
 3197SOL     OW10246   0.075   4.069   3.757
 3197SOL    HW110247  -0.017   4.041   3.728
 3197SOL    HW210248   0.106   4.146   3.701
 3198SOL     OW10249   0.072   3.890   4.042
 3198SOL    HW110250   0.055   3.973   3.988
 3198SOL    HW210251   0.162   3.853   4.020
 3199SOL     OW10252   1.225   4.049   4.173
 3199SOL    HW110253   1.290   3.975   4.162
 3199SOL    HW210254   1.245   4.099   4.257
 3200SOL     OW10255   1.777   4.066   5.366
 3200SOL    HW110256   1.760   4.097   5.272
 3200SOL    HW210257   1.693   4.029   5.404
 3201SOL     OW10258   1.824   3.916   4.951
 3201SOL    HW110259   1.820   3.826   4.995
 3201SOL    HW210260   1.827   3.905   4.852
 3202SOL     OW10261   1.424   3.938   4.836
 3202SOL    HW110262   1.476   3.873   4.891
 3202SOL    HW210263   1.375   4.001   4.897
 3203SOL     OW10264   1.001   3.758   4.878
 3203SOL    HW110265   0.938   3.686   4.847
 3203SOL    HW210266   1.094   3.722   4.878
 3204SOL     OW10267   1.352   3.776   3.892
 3204SOL    HW110268   1.387   3.735   3.808
 3204SOL    HW210269   1.262   3.738   3.912
 3205SOL     OW10270   1.300   4.177   4.415
 3205SOL    HW110271   1.241   4.257   4.419
 3205SOL    HW210272   1.315   4.142   4.508
 3206SOL     OW10273   1.593   3.945   4.606
 3206SOL    HW110274   1.509   3.944   4.660
 3206SOL    HW210275   1.595   4.028   4.550
 3207SOL     OW10276   0.225   3.999   6.582
 3207SOL    HW110277   0.260   3.982   6.674
 3207SOL    HW210278   0.137   3.954   6.570
 3208SOL     OW10279   0.019   4.092   6.233
 3208SOL    HW110280  -0.063   4.135   6.272
 3208SOL    HW210281  -0.009   4.019   6.170
 3209SOL     OW10282   1.755   4.331   5.817
 3209SOL    HW110283   1.743   4.318   5.718
 3209SOL    HW210284   1.725   4.250   5.866
 3210SOL     OW10285   0.438   4.116   7.085
 3210SOL    HW110286   0.520   4.060   7.094
 3210SOL    HW210287   0.357   4.058   7.089
 3211SOL     OW10288   1.594   3.838   7.066
 3211SOL    HW110289   1.576   3.905   6.994
 3211SOL    HW210290   1.591   3.884   7.155
 3212SOL     OW10291   0.809   3.728   6.088
 3212SOL    HW110292   0.849   3.819   6.079
 3212SOL    HW210293   0.709   3.736   6.094
 3213SOL     OW10294   1.281   4.069   6.530
 3213SOL    HW110295   1.195   4.019   6.517
 3213SOL    HW210296   1.343   4.015   6.586
 3214SOL     OW10297   0.550   3.920   6.471
 3214SOL    HW110298   0.545   3.915   6.571
 3214SOL    HW210299   0.552   4.016   6.442
 3215SOL     OW10300   0.202   4.009   7.084
 3215SOL    HW110301   0.122   4.069   7.071
 3215SOL    HW210302   0.192   3.960   7.170
 3216SOL     OW10303   1.400   3.831   6.012
 3216SOL    HW110304   1.376   3.794   5.922
 3216SOL    HW210305   1.499   3.847   6.016
 3217SOL     OW10306   1.547   3.946   7.315
 3217SOL    HW110307   1.542   3.983   7.407
 3217SOL    HW210308   1.475   3.877   7.303
 3218SOL     OW10309   0.614   3.846   5.703
 3218SOL    HW110310   0.712   3.824   5.710
 3218SOL    HW210311   0.583   3.829   5.610
 3219SOL     OW10312   0.781   3.988   7.335
 3219SOL    HW110313   0.848   3.927   7.378
 3219SOL    HW210314   0.708   4.007   7.400
 3220SOL     OW10315   0.539   3.788   6.098
 3220SOL    HW110316   0.458   3.789   6.156
 3220SOL    HW210317   0.542   3.871   6.043
 3221SOL     OW10318   0.297   3.759   5.757
 3221SOL    HW110319   0.346   3.843   5.736
 3221SOL    HW210320   0.359   3.694   5.802
 3222SOL     OW10321   0.561   3.946   6.733
 3222SOL    HW110322   0.599   3.862   6.770
 3222SOL    HW210323   0.473   3.965   6.777
 3223SOL     OW10324   1.017   3.763   6.339
 3223SOL    HW110325   0.945   3.768   6.270
 3223SOL    HW210326   0.993   3.694   6.408
 3224SOL     OW10327   0.915   3.813   6.988
 3224SOL    HW110328   0.940   3.793   6.893
 3224SOL    HW210329   0.987   3.869   7.030
 3225SOL     OW10330   1.274   4.110   6.848
 3225SOL    HW110331   1.295   4.184   6.912
 3225SOL    HW210332   1.185   4.127   6.805
 3226SOL     OW10333   0.504   3.774   7.326
 3226SOL    HW110334   0.462   3.717   7.256
 3226SOL    HW210335   0.438   3.843   7.358
 3227SOL     OW10336   0.307   3.937   6.817
 3227SOL    HW110337   0.284   3.974   6.907
 3227SOL    HW210338   0.277   3.842   6.811
 3228SOL     OW10339   1.540   3.998   5.711
 3228SOL    HW110340   1.479   3.923   5.734
 3228SOL    HW210341   1.562   4.050   5.794
 3229SOL     OW10342   1.160   3.931   7.063
 3229SOL    HW110343   1.160   3.995   7.140
 3229SOL    HW210344   1.188   3.979   6.980
 3230SOL     OW10345   0.903   3.810   5.719
 3230SOL    HW110346   0.954   3.811   5.633
 3230SOL    HW210347   0.959   3.768   5.790
 3231SOL     OW10348   1.726   3.859   6.109
 3231SOL    HW110349   1.799   3.842   6.042
 3231SOL    HW210350   1.695   3.772   6.147
 3232SOL     OW10351   1.841   3.899   6.549
 3232SOL    HW110352   1.880   3.814   6.513
 3232SOL    HW210353   1.743   3.901   6.530
 3233SOL     OW10354   0.672   3.927   7.075
 3233SOL    HW110355   0.762   3.911   7.035
 3233SOL    HW210356   0.680   3.932   7.174
 3234SOL     OW10357   0.075   4.069   5.619
 3234SOL    HW110358  -0.017   4.041   5.590
 3234SOL    HW210359   0.106   4.146   5.563
 3235SOL     OW10360   0.072   3.890   5.904
 3235SOL    HW110361   0.055   3.973   5.850
 3235SOL    HW210362   0.162   3.853   5.882
 3236SOL     OW10363   1.225   4.049   6.035
 3236SOL    HW110364   1.290   3.975   6.024
 3236SOL    HW210365   1.245   4.099   6.119
 3237SOL     OW10366   1.777   4.066   7.228
 3237SOL    HW110367   1.760   4.097   7.134
 3237SOL    HW210368   1.693   4.029   7.266
 3238SOL     OW10369   1.824   3.916   6.813
 3238SOL    HW110370   1.820   3.826   6.857
 3238SOL    HW210371   1.827   3.905   6.714
 3239SOL     OW10372   1.424   3.938   6.698
 3239SOL    HW110373   1.476   3.873   6.753
 3239SOL    HW210374   1.375   4.001   6.759
 3240SOL     OW10375   1.001   3.758   6.740
 3240SOL    HW110376   0.938   3.686   6.709
 3240SOL    HW210377   1.094   3.722   6.740
 3241SOL     OW10378   1.352   3.776   5.754
 3241SOL    HW110379   1.387   3.735   5.670
 3241SOL    HW210380   1.262   3.738   5.774
 3242SOL     OW10381   1.300   4.177   6.277
 3242SOL    HW110382   1.241   4.257   6.281
 3242SOL    HW210383   1.315   4.142   6.370
 3243SOL     OW10384   1.593   3.945   6.468
 3243SOL    HW110385   1.509   3.944   6.522
 3243SOL    HW210386   1.595   4.028   6.412
 3244SOL     OW10387   0.225   3.999   8.444
 3244SOL    HW110388   0.260   3.982   8.536
 3244SOL    HW210389   0.137   3.954   8.432
 3245SOL     OW10390   0.019   4.092   8.095
 3245SOL    HW110391  -0.063   4.135   8.134
 3245SOL    HW210392  -0.009   4.019   8.032
 3246SOL     OW10393   1.755   4.331   7.679
 3246SOL    HW110394   1.743   4.318   7.580
 3246SOL    HW210395   1.725   4.250   7.728
 3247SOL     OW10396   0.438   4.116   8.947
 3247SOL    HW110397   0.520   4.060   8.956
 3247SOL    HW210398   0.357   4.058   8.951
 3248SOL     OW10399   1.594   3.838   8.928
 3248SOL    HW110400   1.576   3.905   8.856
 3248SOL    HW210401   1.591   3.884   9.017
 3249SOL     OW10402   0.809   3.728   7.950
 3249SOL    HW110403   0.849   3.819   7.941
 3249SOL    HW210404   0.709   3.736   7.956
 3250SOL     OW10405   1.281   4.069   8.392
 3250SOL    HW110406   1.195   4.019   8.379
 3250SOL    HW210407   1.343   4.015   8.448
 3251SOL     OW10408   0.550   3.920   8.333
 3251SOL    HW110409   0.545   3.915   8.433
 3251SOL    HW210410   0.552   4.016   8.304
 3252SOL     OW10411   0.202   4.009   8.946
 3252SOL    HW110412   0.122   4.069   8.933
 3252SOL    HW210413   0.192   3.960   9.032
 3253SOL     OW10414   1.400   3.831   7.874
 3253SOL    HW110415   1.376   3.794   7.784
 3253SOL    HW210416   1.499   3.847   7.878
 3254SOL     OW10417   1.547   3.946   9.177
 3254SOL    HW110418   1.542   3.983   9.269
 3254SOL    HW210419   1.475   3.877   9.165
 3255SOL     OW10420   0.614   3.846   7.565
 3255SOL    HW110421   0.712   3.824   7.572
 3255SOL    HW210422   0.583   3.829   7.472
 3256SOL     OW10423   0.781   3.988   9.197
 3256SOL    HW110424   0.848   3.927   9.240
 3256SOL    HW210425   0.708   4.007   9.262
 3257SOL     OW10426   0.539   3.788   7.960
 3257SOL    HW110427   0.458   3.789   8.018
 3257SOL    HW210428   0.542   3.871   7.905
 3258SOL     OW10429   0.297   3.759   7.619
 3258SOL    HW110430   0.346   3.843   7.598
 3258SOL    HW210431   0.359   3.694   7.664
 3259SOL     OW10432   0.561   3.946   8.595
 3259SOL    HW110433   0.599   3.862   8.632
 3259SOL    HW210434   0.473   3.965   8.639
 3260SOL     OW10435   1.017   3.763   8.201
 3260SOL    HW110436   0.945   3.768   8.132
 3260SOL    HW210437   0.993   3.694   8.270
 3261SOL     OW10438   0.915   3.813   8.850
 3261SOL    HW110439   0.940   3.793   8.755
 3261SOL    HW210440   0.987   3.869   8.892
 3262SOL     OW10441   1.274   4.110   8.710
 3262SOL    HW110442   1.295   4.184   8.774
 3262SOL    HW210443   1.185   4.127   8.667
 3263SOL     OW10444   0.504   3.774   9.188
 3263SOL    HW110445   0.462   3.717   9.118
 3263SOL    HW210446   0.438   3.843   9.220
 3264SOL     OW10447   0.307   3.937   8.679
 3264SOL    HW110448   0.284   3.974   8.769
 3264SOL    HW210449   0.277   3.842   8.673
 3265SOL     OW10450   1.540   3.998   7.573
 3265SOL    HW110451   1.479   3.923   7.596
 3265SOL    HW210452   1.562   4.050   7.656
 3266SOL     OW10453   1.160   3.931   8.925
 3266SOL    HW110454   1.160   3.995   9.002
 3266SOL    HW210455   1.188   3.979   8.842
 3267SOL     OW10456   0.903   3.810   7.581
 3267SOL    HW110457   0.954   3.811   7.495
 3267SOL    HW210458   0.959   3.768   7.652
 3268SOL     OW10459   1.726   3.859   7.971
 3268SOL    HW110460   1.799   3.842   7.904
 3268SOL    HW210461   1.695   3.772   8.009
 3269SOL     OW10462   1.841   3.899   8.411
 3269SOL    HW110463   1.880   3.814   8.375
 3269SOL    HW210464   1.743   3.901   8.392
 3270SOL     OW10465   0.672   3.927   8.937
 3270SOL    HW110466   0.762   3.911   8.897
 3270SOL    HW210467   0.680   3.932   9.036
 3271SOL     OW10468   0.075   4.069   7.481
 3271SOL    HW110469  -0.017   4.041   7.452
 3271SOL    HW210470   0.106   4.146   7.425
 3272SOL     OW10471   0.072   3.890   7.766
 3272SOL    HW110472   0.055   3.973   7.712
 3272SOL    HW210473   0.162   3.853   7.744
 3273SOL     OW10474   1.225   4.049   7.897
 3273SOL    HW110475   1.290   3.975   7.886
 3273SOL    HW210476   1.245   4.099   7.981
 3274SOL     OW10477   1.777   4.066   9.090
 3274SOL    HW110478   1.760   4.097   8.996
 3274SOL    HW210479   1.693   4.029   9.128
 3275SOL     OW10480   1.824   3.916   8.675
 3275SOL    HW110481   1.820   3.826   8.719
 3275SOL    HW210482   1.827   3.905   8.576
 3276SOL     OW10483   1.424   3.938   8.560
 3276SOL    HW110484   1.476   3.873   8.615
 3276SOL    HW210485   1.375   4.001   8.621
 3277SOL     OW10486   1.001   3.758   8.602
 3277SOL    HW110487   0.938   3.686   8.571
 3277SOL    HW210488   1.094   3.722   8.602
 3278SOL     OW10489   1.352   3.776   7.616
 3278SOL    HW110490   1.387   3.735   7.532
 3278SOL    HW210491   1.262   3.738   7.636
 3279SOL     OW10492   1.300   4.177   8.139
 3279SOL    HW110493   1.241   4.257   8.143
 3279SOL    HW210494   1.315   4.142   8.232
 3280SOL     OW10495   1.593   3.945   8.330
 3280SOL    HW110496   1.509   3.944   8.384
 3280SOL    HW210497   1.595   4.028   8.274
 3281SOL     OW10498   0.225   3.999  10.306
 3281SOL    HW110499   0.260   3.982  10.398
 3281SOL    HW210500   0.137   3.954  10.294
 3282SOL     OW10501   0.019   4.092   9.957
 3282SOL    HW110502  -0.063   4.135   9.996
 3282SOL    HW210503  -0.009   4.019   9.894
 3283SOL     OW10504   1.755   4.331   9.541
 3283SOL    HW110505   1.743   4.318   9.442
 3283SOL    HW210506   1.725   4.250   9.590
 3284SOL     OW10507   0.438   4.116  10.809
 3284SOL    HW110508   0.520   4.060  10.818
 3284SOL    HW210509   0.357   4.058  10.813
 3285SOL     OW10510   1.594   3.838  10.790
 3285SOL    HW110511   1.576   3.905  10.718
 3285SOL    HW210512   1.591   3.884  10.879
 3286SOL     OW10513   0.809   3.728   9.812
 3286SOL    HW110514   0.849   3.819   9.803
 3286SOL    HW210515   0.709   3.736   9.818
 3287SOL     OW10516   1.281   4.069  10.254
 3287SOL    HW110517   1.195   4.019  10.241
 3287SOL    HW210518   1.343   4.015  10.310
 3288SOL     OW10519   0.550   3.920  10.195
 3288SOL    HW110520   0.545   3.915  10.295
 3288SOL    HW210521   0.552   4.016  10.166
 3289SOL     OW10522   0.202   4.009  10.808
 3289SOL    HW110523   0.122   4.069  10.795
 3289SOL    HW210524   0.192   3.960  10.894
 3290SOL     OW10525   1.400   3.831   9.736
 3290SOL    HW110526   1.376   3.794   9.646
 3290SOL    HW210527   1.499   3.847   9.740
 3291SOL     OW10528   1.547   3.946  11.039
 3291SOL    HW110529   1.542   3.983  11.131
 3291SOL    HW210530   1.475   3.877  11.027
 3292SOL     OW10531   0.614   3.846   9.427
 3292SOL    HW110532   0.712   3.824   9.434
 3292SOL    HW210533   0.583   3.829   9.334
 3293SOL     OW10534   0.781   3.988  11.059
 3293SOL    HW110535   0.848   3.927  11.102
 3293SOL    HW210536   0.708   4.007  11.124
 3294SOL     OW10537   0.539   3.788   9.822
 3294SOL    HW110538   0.458   3.789   9.880
 3294SOL    HW210539   0.542   3.871   9.767
 3295SOL     OW10540   0.297   3.759   9.481
 3295SOL    HW110541   0.346   3.843   9.460
 3295SOL    HW210542   0.359   3.694   9.526
 3296SOL     OW10543   0.561   3.946  10.457
 3296SOL    HW110544   0.599   3.862  10.494
 3296SOL    HW210545   0.473   3.965  10.501
 3297SOL     OW10546   1.017   3.763  10.063
 3297SOL    HW110547   0.945   3.768   9.994
 3297SOL    HW210548   0.993   3.694  10.132
 3298SOL     OW10549   0.915   3.813  10.712
 3298SOL    HW110550   0.940   3.793  10.617
 3298SOL    HW210551   0.987   3.869  10.754
 3299SOL     OW10552   1.274   4.110  10.572
 3299SOL    HW110553   1.295   4.184  10.636
 3299SOL    HW210554   1.185   4.127  10.529
 3300SOL     OW10555   0.504   3.774  11.050
 3300SOL    HW110556   0.462   3.717  10.980
 3300SOL    HW210557   0.438   3.843  11.082
 3301SOL     OW10558   0.307   3.937  10.541
 3301SOL    HW110559   0.284   3.974  10.631
 3301SOL    HW210560   0.277   3.842  10.535
 3302SOL     OW10561   1.540   3.998   9.435
 3302SOL    HW110562   1.479   3.923   9.458
 3302SOL    HW210563   1.562   4.050   9.518
 3303SOL     OW10564   1.160   3.931  10.787
 3303SOL    HW110565   1.160   3.995  10.864
 3303SOL    HW210566   1.188   3.979  10.704
 3304SOL     OW10567   0.903   3.810   9.443
 3304SOL    HW110568   0.954   3.811   9.357
 3304SOL    HW210569   0.959   3.768   9.514
 3305SOL     OW10570   1.726   3.859   9.833
 3305SOL    HW110571   1.799   3.842   9.766
 3305SOL    HW210572   1.695   3.772   9.871
 3306SOL     OW10573   1.841   3.899  10.273
 3306SOL    HW110574   1.880   3.814  10.237
 3306SOL    HW210575   1.743   3.901  10.254
 3307SOL     OW10576   0.672   3.927  10.799
 3307SOL    HW110577   0.762   3.911  10.759
 3307SOL    HW210578   0.680   3.932  10.898
 3308SOL     OW10579   0.075   4.069   9.343
 3308SOL    HW110580  -0.017   4.041   9.314
 3308SOL    HW210581   0.106   4.146   9.287
 3309SOL     OW10582   0.072   3.890   9.628
 3309SOL    HW110583   0.055   3.973   9.574
 3309SOL    HW210584   0.162   3.853   9.606
 3310SOL     OW10585   1.225   4.049   9.759
 3310SOL    HW110586   1.290   3.975   9.748
 3310SOL    HW210587   1.245   4.099   9.843
 3311SOL     OW10588   1.777   4.066  10.952
 3311SOL    HW110589   1.760   4.097  10.858
 3311SOL    HW210590   1.693   4.029  10.990
 3312SOL     OW10591   1.824   3.916  10.537
 3312SOL    HW110592   1.820   3.826  10.581
 3312SOL    HW210593   1.827   3.905  10.438
 3313SOL     OW10594   1.424   3.938  10.422
 3313SOL    HW110595   1.476   3.873  10.477
 3313SOL    HW210596   1.375   4.001  10.483
 3314SOL     OW10597   1.001   3.758  10.464
 3314SOL    HW110598   0.938   3.686  10.433
 3314SOL    HW210599   1.094   3.722  10.464
 3315SOL     OW10600   1.352   3.776   9.478
 3315SOL    HW110601   1.387   3.735   9.394
 3315SOL    HW210602   1.262   3.738   9.498
 3316SOL     OW10603   1.300   4.177  10.001
 3316SOL    HW110604   1.241   4.257  10.005
 3316SOL    HW210605   1.315   4.142  10.094
 3317SOL     OW10606   1.593   3.945  10.192
 3317SOL    HW110607   1.509   3.944  10.246
 3317SOL    HW210608   1.595   4.028  10.136
 3318SOL     OW10609   0.225   3.999  12.168
 3318SOL    HW110610   0.260   3.982  12.260
 3318SOL    HW210611   0.137   3.954  12.156
 3319SOL     OW10612   0.019   4.092  11.819
 3319SOL    HW110613  -0.063   4.135  11.858
 3319SOL    HW210614  -0.009   4.019  11.756
 3320SOL     OW10615   1.755   4.331  11.403
 3320SOL    HW110616   1.743   4.318  11.304
 3320SOL    HW210617   1.725   4.250  11.452
 3321SOL     OW10618   0.438   4.116  12.671
 3321SOL    HW110619   0.520   4.060  12.680
 3321SOL    HW210620   0.357   4.058  12.675
 3322SOL     OW10621   1.594   3.838  12.652
 3322SOL    HW110622   1.576   3.905  12.580
 3322SOL    HW210623   1.591   3.884  12.741
 3323SOL     OW10624   0.809   3.728  11.674
 3323SOL    HW110625   0.849   3.819  11.665
 3323SOL    HW210626   0.709   3.736  11.680
 3324SOL     OW10627   1.281   4.069  12.116
 3324SOL    HW110628   1.195   4.019  12.103
 3324SOL    HW210629   1.343   4.015  12.172
 3325SOL     OW10630   0.550   3.920  12.057
 3325SOL    HW110631   0.545   3.915  12.157
 3325SOL    HW210632   0.552   4.016  12.028
 3326SOL     OW10633   0.202   4.009  12.670
 3326SOL    HW110634   0.122   4.069  12.657
 3326SOL    HW210635   0.192   3.960  12.756
 3327SOL     OW10636   1.400   3.831  11.598
 3327SOL    HW110637   1.376   3.794  11.508
 3327SOL    HW210638   1.499   3.847  11.602
 3328SOL     OW10639   1.547   3.946  12.901
 3328SOL    HW110640   1.542   3.983  12.993
 3328SOL    HW210641   1.475   3.877  12.889
 3329SOL     OW10642   0.614   3.846  11.289
 3329SOL    HW110643   0.712   3.824  11.296
 3329SOL    HW210644   0.583   3.829  11.196
 3330SOL     OW10645   0.781   3.988  12.921
 3330SOL    HW110646   0.848   3.927  12.964
 3330SOL    HW210647   0.708   4.007  12.986
 3331SOL     OW10648   0.539   3.788  11.684
 3331SOL    HW110649   0.458   3.789  11.742
 3331SOL    HW210650   0.542   3.871  11.629
 3332SOL     OW10651   0.297   3.759  11.343
 3332SOL    HW110652   0.346   3.843  11.322
 3332SOL    HW210653   0.359   3.694  11.388
 3333SOL     OW10654   0.561   3.946  12.319
 3333SOL    HW110655   0.599   3.862  12.356
 3333SOL    HW210656   0.473   3.965  12.363
 3334SOL     OW10657   1.017   3.763  11.925
 3334SOL    HW110658   0.945   3.768  11.856
 3334SOL    HW210659   0.993   3.694  11.994
 3335SOL     OW10660   0.915   3.813  12.574
 3335SOL    HW110661   0.940   3.793  12.479
 3335SOL    HW210662   0.987   3.869  12.616
 3336SOL     OW10663   1.274   4.110  12.434
 3336SOL    HW110664   1.295   4.184  12.498
 3336SOL    HW210665   1.185   4.127  12.391
 3337SOL     OW10666   0.504   3.774  12.912
 3337SOL    HW110667   0.462   3.717  12.842
 3337SOL    HW210668   0.438   3.843  12.944
 3338SOL     OW10669   0.307   3.937  12.403
 3338SOL    HW110670   0.284   3.974  12.493
 3338SOL    HW210671   0.277   3.842  12.397
 3339SOL     OW10672   1.540   3.998  11.297
 3339SOL    HW110673   1.479   3.923  11.320
 3339SOL    HW210674   1.562   4.050  11.380
 3340SOL     OW10675   1.160   3.931  12.649
 3340SOL    HW110676   1.160   3.995  12.726
 3340SOL    HW210677   1.188   3.979  12.566
 3341SOL     OW10678   0.903   3.810  11.305
 3341SOL    HW110679   0.954   3.811  11.219
 3341SOL    HW210680   0.959   3.768  11.376
 3342SOL     OW10681   1.726   3.859  11.695
 3342SOL    HW110682   1.799   3.842  11.628
 3342SOL    HW210683   1.695   3.772  11.733
 3343SOL     OW10684   1.841   3.899  12.135
 3343SOL    HW110685   1.880   3.814  12.099
 3343SOL    HW210686   1.743   3.901  12.116
 3344SOL     OW10687   0.672   3.927  12.661
 3344SOL    HW110688   0.762   3.911  12.621
 3344SOL    HW210689   0.680   3.932  12.760
 3345SOL     OW10690   0.075   4.069  11.205
 3345SOL    HW110691  -0.017   4.041  11.176
 3345SOL    HW210692   0.106   4.146  11.149
 3346SOL     OW10693   0.072   3.890  11.490
 3346SOL    HW110694   0.055   3.973  11.436
 3346SOL    HW210695   0.162   3.853  11.468
 3347SOL     OW10696   1.225   4.049  11.621
 3347SOL    HW110697   1.290   3.975  11.610
 3347SOL    HW210698   1.245   4.099  11.705
 3348SOL     OW10699   1.777   4.066  12.814
 3348SOL    HW110700   1.760   4.097  12.720
 3348SOL    HW210701   1.693   4.029  12.852
 3349SOL     OW10702   1.824   3.916  12.399
 3349SOL    HW110703   1.820   3.826  12.443
 3349SOL    HW210704   1.827   3.905  12.300
 3350SOL     OW10705   1.424   3.938  12.284
 3350SOL    HW110706   1.476   3.873  12.339
 3350SOL    HW210707   1.375   4.001  12.345
 3351SOL     OW10708   1.001   3.758  12.326
 3351SOL    HW110709   0.938   3.686  12.295
 3351SOL    HW210710   1.094   3.722  12.326
 3352SOL     OW10711   1.352   3.776  11.340
 3352SOL    HW110712   1.387   3.735  11.256
 3352SOL    HW210713   1.262   3.738  11.360
 3353SOL     OW10714   1.300   4.177  11.863
 3353SOL    HW110715   1.241   4.257  11.867
 3353SOL    HW210716   1.315   4.142  11.956
 3354SOL     OW10717   1.593   3.945  12.054
 3354SOL    HW110718   1.509   3.944  12.108
 3354SOL    HW210719   1.595   4.028  11.998
 3355SOL     OW10720   0.019   4.092  13.681
 3355SOL    HW110721  -0.063   4.135  13.720
 3355SOL    HW210722  -0.009   4.019  13.618
 3356SOL     OW10723   1.755   4.331  13.265
 3356SOL    HW110724   1.743   4.318  13.166
 3356SOL    HW210725   1.725   4.250  13.314
 3357SOL     OW10726   1.603   4.171  13.771
 3357SOL    HW110727   1.529   4.217  13.721
 3357SOL    HW210728   1.654   4.239  13.824
 3358SOL     OW10729   0.809   3.728  13.536
 3358SOL    HW110730   0.849   3.819  13.527
 3358SOL    HW210731   0.709   3.736  13.542
 3359SOL     OW10732   1.400   3.831  13.460
 3359SOL    HW110733   1.376   3.794  13.370
 3359SOL    HW210734   1.499   3.847  13.464
 3360SOL     OW10735   0.614   3.846  13.151
 3360SOL    HW110736   0.712   3.824  13.158
 3360SOL    HW210737   0.583   3.829  13.058
 3361SOL     OW10738   0.539   3.788  13.546
 3361SOL    HW110739   0.458   3.789  13.604
 3361SOL    HW210740   0.542   3.871  13.491
 3362SOL     OW10741   0.297   3.759  13.205
 3362SOL    HW110742   0.346   3.843  13.184
 3362SOL    HW210743   0.359   3.694  13.250
 3363SOL     OW10744   1.017   3.763  13.787
 3363SOL    HW110745   0.945   3.768  13.718
 3363SOL    HW210746   0.993   3.694  13.856
 3364SOL     OW10747   1.540   3.998  13.159
 3364SOL    HW110748   1.479   3.923  13.182
 3364SOL    HW210749   1.562   4.050  13.242
 3365SOL     OW10750   0.903   3.810  13.167
 3365SOL    HW110751   0.954   3.811  13.081
 3365SOL    HW210752   0.959   3.768  13.238
 3366SOL     OW10753   1.726   3.859  13.557
 3366SOL    HW110754   1.799   3.842  13.490
 3366SOL    HW210755   1.695   3.772  13.595
 3367SOL     OW10756   1.841   3.899  13.997
 3367SOL    HW110757   1.880   3.814  13.961
 3367SOL    HW210758   1.743   3.901  13.978
 3368SOL     OW10759   0.075   4.069  13.067
 3368SOL    HW110760  -0.017   4.041  13.038
 3368SOL    HW210761   0.106   4.146  13.011
 3369SOL     OW10762   0.072   3.890  13.352
 3369SOL    HW110763   0.055   3.973  13.298
 3369SOL    HW210764   0.162   3.853  13.330
 3370SOL     OW10765   1.225   4.049  13.483
 3370SOL    HW110766   1.290   3.975  13.472
 3370SOL    HW210767   1.245   4.099  13.567
 3371SOL     OW10768   1.352   3.776  13.202
 3371SOL    HW110769   1.387   3.735  13.118
 3371SOL    HW210770   1.262   3.738  13.222
 3372SOL     OW10771   1.300   4.177  13.725
 3372SOL    HW110772   1.241   4.257  13.729
 3372SOL    HW210773   1.315   4.142  13.818
 3373SOL     OW10774   2.092   0.628   0.113
 3373SOL    HW110775   1.999   0.626   0.150
 3373SOL    HW210776   2.093   0.589   0.021
 3374SOL     OW10777   2.087   0.275   0.996
 3374SOL    HW110778   2.122   0.258   1.088
 3374SOL    HW210779   1.999   0.230   0.984
 3375SOL     OW10780   1.881   0.368   0.647
 3375SOL    HW110781   1.799   0.411   0.686
 3375SOL    HW210782   1.853   0.295   0.584
 3376SOL     OW10783   2.431   1.275   1.165
 3376SOL    HW110784   2.338   1.268   1.128
 3376SOL    HW210785   2.442   1.364   1.209
 3377SOL     OW10786   3.417   1.511   0.703
 3377SOL    HW110787   3.360   1.495   0.784
 3377SOL    HW210788   3.358   1.521   0.623
 3378SOL     OW10789   2.997   0.703   0.717
 3378SOL    HW110790   3.054   0.781   0.692
 3378SOL    HW210791   2.937   0.729   0.793
 3379SOL     OW10792   3.617   0.607   0.231
 3379SOL    HW110793   3.605   0.594   0.132
 3379SOL    HW210794   3.587   0.526   0.280
 3380SOL     OW10795   2.630   1.144   1.023
 3380SOL    HW110796   2.552   1.161   1.083
 3380SOL    HW210797   2.664   1.231   0.987
 3381SOL     OW10798   2.712   0.798   1.823
 3381SOL    HW110799   2.708   0.874   1.888
 3381SOL    HW210800   2.734   0.834   1.732
 3382SOL     OW10801   2.547   1.012   0.665
 3382SOL    HW110802   2.616   0.996   0.735
 3382SOL    HW210803   2.474   1.069   0.703
 3383SOL     OW10804   2.548   1.161   1.803
 3383SOL    HW110805   2.608   1.240   1.817
 3383SOL    HW210806   2.462   1.192   1.762
 3384SOL     OW10807   2.197   1.435   1.061
 3384SOL    HW110808   2.119   1.404   1.008
 3384SOL    HW210809   2.255   1.493   1.004
 3385SOL     OW10810   3.322   1.505   1.339
 3385SOL    HW110811   3.346   1.599   1.365
 3385SOL    HW210812   3.306   1.451   1.421
 3386SOL     OW10813   2.300   0.392   1.499
 3386SOL    HW110814   2.382   0.336   1.508
 3386SOL    HW210815   2.219   0.334   1.503
 3387SOL     OW10816   3.465   0.447   0.737
 3387SOL    HW110817   3.391   0.493   0.687
 3387SOL    HW210818   3.516   0.515   0.790
 3388SOL     OW10819   2.989   1.341   1.690
 3388SOL    HW110820   3.036   1.341   1.778
 3388SOL    HW210821   2.941   1.254   1.679
 3389SOL     OW10822   2.092   1.434   0.538
 3389SOL    HW110823   2.066   1.530   0.538
 3389SOL    HW210824   2.021   1.380   0.583
 3390SOL     OW10825   2.102   1.091   0.886
 3390SOL    HW110826   2.116   1.007   0.938
 3390SOL    HW210827   2.047   1.155   0.941
 3391SOL     OW10828   2.482   1.786   1.439
 3391SOL    HW110829   2.390   1.769   1.474
 3391SOL    HW210830   2.510   1.878   1.465
 3392SOL     OW10831   2.468   0.964   0.123
 3392SOL    HW110832   2.475   1.048   0.069
 3392SOL    HW210833   2.514   0.977   0.211
 3393SOL     OW10834   3.456   0.114   1.480
 3393SOL    HW110835   3.438   0.181   1.408
 3393SOL    HW210836   3.453   0.160   1.569
 3394SOL     OW10837   1.984   0.643   0.563
 3394SOL    HW110838   1.939   0.555   0.580
 3394SOL    HW210839   1.983   0.697   0.647
 3395SOL     OW10840   3.704   1.767   0.359
 3395SOL    HW110841   3.758   1.738   0.439
 3395SOL    HW210842   3.734   1.857   0.330
 3396SOL     OW10843   1.889   1.596   0.117
 3396SOL    HW110844   1.870   1.500   0.138
 3396SOL    HW210845   1.856   1.654   0.192
 3397SOL     OW10846   3.551   0.922   0.612
 3397SOL    HW110847   3.646   0.893   0.620
 3397SOL    HW210848   3.543   0.987   0.537
 3398SOL     OW10849   3.503   1.108   0.432
 3398SOL    HW110850   3.589   1.110   0.380
 3398SOL    HW210851   3.517   1.155   0.520
 3399SOL     OW10852   1.975   0.737   1.597
 3399SOL    HW110853   2.063   0.724   1.642
 3399SOL    HW210854   1.962   0.834   1.575
 3400SOL     OW10855   2.475   1.365   0.726
 3400SOL    HW110856   2.426   1.278   0.735
 3400SOL    HW210857   2.452   1.408   0.639
 3401SOL     OW10858   3.155   1.228   1.423
 3401SOL    HW110859   3.192   1.155   1.365
 3401SOL    HW210860   3.207   1.233   1.508
 3402SOL     OW10861   2.671   0.004   0.502
 3402SOL    HW110862   2.711   0.095   0.493
 3402SOL    HW210863   2.571   0.012   0.508
 3403SOL     OW10864   2.059   0.976   1.264
 3403SOL    HW110865   2.148   0.931   1.250
 3403SOL    HW210866   1.986   0.911   1.245
 3404SOL     OW10867   3.387   0.999   0.190
 3404SOL    HW110868   3.324   0.923   0.203
 3404SOL    HW210869   3.435   1.017   0.276
 3405SOL     OW10870   3.049   1.792   1.616
 3405SOL    HW110871   3.073   1.852   1.540
 3405SOL    HW210872   3.056   1.697   1.586
 3406SOL     OW10873   2.179   0.251   1.801
 3406SOL    HW110874   2.250   0.322   1.807
 3406SOL    HW210875   2.091   0.290   1.829
 3407SOL     OW10876   3.328   1.417   0.953
 3407SOL    HW110877   3.269   1.423   1.033
 3407SOL    HW210878   3.313   1.329   0.907
 3408SOL     OW10879   3.529   1.714   0.572
 3408SOL    HW110880   3.488   1.691   0.484
 3408SOL    HW210881   3.511   1.640   0.637
 3409SOL     OW10882   2.460   0.729   0.270
 3409SOL    HW110883   2.484   0.798   0.202
 3409SOL    HW210884   2.382   0.762   0.324
 3410SOL     OW10885   3.143   0.345   0.944
 3410SOL    HW110886   3.057   0.295   0.931
 3410SOL    HW210887   3.205   0.291   1.000
 3411SOL     OW10888   3.438   1.662   0.307
 3411SOL    HW110889   3.527   1.708   0.310
 3411SOL    HW210890   3.417   1.638   0.212
 3412SOL     OW10891   2.669   0.605   1.465
 3412SOL    HW110892   2.622   0.602   1.554
 3412SOL    HW210893   2.618   0.550   1.399
 3413SOL     OW10894   3.256   0.469   1.674
 3413SOL    HW110895   3.236   0.512   1.762
 3413SOL    HW210896   3.334   0.407   1.683
 3414SOL     OW10897   2.835   0.890   1.572
 3414SOL    HW110898   2.881   0.806   1.543
 3414SOL    HW210899   2.779   0.924   1.497
 3415SOL     OW10900   2.853   0.410   1.242
 3415SOL    HW110901   2.776   0.444   1.296
 3415SOL    HW210902   2.819   0.359   1.163
 3416SOL     OW10903   2.903   0.701   0.429
 3416SOL    HW110904   2.929   0.697   0.525
 3416SOL    HW210905   2.818   0.650   0.415
 3417SOL     OW10906   1.938   0.811   0.789
 3417SOL    HW110907   2.037   0.799   0.798
 3417SOL    HW210908   1.914   0.906   0.810
 3418SOL     OW10909   2.727   0.348   0.195
 3418SOL    HW110910   2.786   0.411   0.146
 3418SOL    HW210911   2.746   0.254   0.166
 3419SOL     OW10912   3.581   0.585   1.831
 3419SOL    HW110913   3.555   0.674   1.795
 3419SOL    HW210914   3.579   0.517   1.758
 3420SOL     OW10915   3.224   1.144   0.545
 3420SOL    HW110916   3.307   1.115   0.497
 3420SOL    HW210917   3.175   1.211   0.489
 3421SOL     OW10918   2.412   0.196   0.885
 3421SOL    HW110919   2.407   0.191   0.985
 3421SOL    HW210920   2.414   0.292   0.856
 3422SOL     OW10921   2.870   1.456   0.477
 3422SOL    HW110922   2.824   1.528   0.425
 3422SOL    HW210923   2.866   1.476   0.575
 3423SOL     OW10924   3.657   1.066   0.873
 3423SOL    HW110925   3.595   1.051   0.797
 3423SOL    HW210926   3.605   1.077   0.958
 3424SOL     OW10927   3.089   1.550   1.506
 3424SOL    HW110928   3.095   1.473   1.570
 3424SOL    HW210929   3.037   1.524   1.426
 3425SOL     OW10930   2.183   0.943   0.242
 3425SOL    HW110931   2.265   0.982   0.200
 3425SOL    HW210932   2.156   0.861   0.193
 3426SOL     OW10933   3.320   0.735   0.728
 3426SOL    HW110934   3.315   0.670   0.803
 3426SOL    HW210935   3.400   0.794   0.741
 3427SOL     OW10936   2.323   1.266   1.727
 3427SOL    HW110937   2.273   1.267   1.641
 3427SOL    HW210938   2.260   1.248   1.803
 3428SOL     OW10939   2.973   1.776   0.237
 3428SOL    HW110940   2.913   1.714   0.287
 3428SOL    HW210941   3.004   1.732   0.152
 3429SOL     OW10942   2.064   0.285   1.498
 3429SOL    HW110943   1.984   0.345   1.485
 3429SOL    HW210944   2.054   0.236   1.584
 3430SOL     OW10945   3.494   1.377   0.081
 3430SOL    HW110946   3.462   1.471   0.071
 3430SOL    HW210947   3.418   1.314   0.069
 3431SOL     OW10948   2.326   1.743   0.323
 3431SOL    HW110949   2.359   1.782   0.409
 3431SOL    HW210950   2.402   1.736   0.258
 3432SOL     OW10951   3.262   0.107   0.426
 3432SOL    HW110952   3.238   0.070   0.336
 3432SOL    HW210953   3.361   0.123   0.430
 3433SOL     OW10954   2.802   1.698   0.904
 3433SOL    HW110955   2.882   1.641   0.925
 3433SOL    HW210956   2.753   1.658   0.827
 3434SOL     OW10957   2.244   0.700   0.480
 3434SOL    HW110958   2.289   0.610   0.477
 3434SOL    HW210959   2.150   0.689   0.513
 3435SOL     OW10960   3.409   0.222   1.729
 3435SOL    HW110961   3.404   0.259   1.821
 3435SOL    HW210962   3.337   0.153   1.717
 3436SOL     OW10963   2.476   0.122   0.117
 3436SOL    HW110964   2.574   0.100   0.124
 3436SOL    HW210965   2.445   0.105   0.024
 3437SOL     OW10966   2.643   0.264   1.749
 3437SOL    HW110967   2.710   0.203   1.792
 3437SOL    HW210968   2.570   0.283   1.814
 3438SOL     OW10969   2.750   1.514   1.195
 3438SOL    HW110970   2.727   1.489   1.101
 3438SOL    HW210971   2.811   1.445   1.234
 3439SOL     OW10972   3.213   0.590   1.433
 3439SOL    HW110973   3.241   0.547   1.518
 3439SOL    HW210974   3.238   0.686   1.434
 3440SOL     OW10975   2.665   1.402   0.924
 3440SOL    HW110976   2.755   1.416   0.882
 3440SOL    HW210977   2.594   1.404   0.853
 3441SOL     OW10978   2.784   0.503   0.899
 3441SOL    HW110979   2.759   0.494   0.803
 3441SOL    HW210980   2.832   0.421   0.930
 3442SOL     OW10981   2.401   0.064   0.512
 3442SOL    HW110982   2.320   0.065   0.570
 3442SOL    HW210983   2.404   0.147   0.457
 3443SOL     OW10984   3.296   1.188   0.041
 3443SOL    HW110985   3.328   1.112   0.098
 3443SOL    HW210986   3.204   1.215   0.071
 3444SOL     OW10987   2.159   0.035   0.171
 3444SOL    HW110988   2.208   0.119   0.150
 3444SOL    HW210989   2.221  -0.030   0.216
 3445SOL     OW10990   2.797   0.236   0.480
 3445SOL    HW110991   2.749   0.277   0.402
 3445SOL    HW210992   2.896   0.234   0.461
 3446SOL     OW10993   2.938   0.683   1.464
 3446SOL    HW110994   2.858   0.622   1.467
 3446SOL    HW210995   3.019   0.630   1.440
 3447SOL     OW10996   3.089   1.570   0.793
 3447SOL    HW110997   3.110   1.644   0.728
 3447SOL    HW210998   3.157   1.570   0.866
 3448SOL     OW10999   2.321   1.152   0.741
 3448SOL    HW111000   2.250   1.125   0.806
 3448SOL    HW211001   2.295   1.124   0.648
 3449SOL     OW11002   3.133   1.797   0.591
 3449SOL    HW111003   3.177   1.861   0.527
 3449SOL    HW211004   3.083   1.849   0.661
 3450SOL     OW11005   2.894   0.549   0.016
 3450SOL    HW111006   2.853   0.631  -0.023
 3450SOL    HW211007   2.958   0.575   0.089
 3451SOL     OW11008   1.940   0.556   1.386
 3451SOL    HW111009   2.032   0.555   1.345
 3451SOL    HW211010   1.934   0.630   1.453
 3452SOL     OW11011   2.423   0.222   1.147
 3452SOL    HW111012   2.461   0.138   1.184
 3452SOL    HW211013   2.335   0.241   1.191
 3453SOL     OW11014   2.728   0.454   0.642
 3453SOL    HW111015   2.696   0.526   0.580
 3453SOL    HW211016   2.752   0.373   0.589
 3454SOL     OW11017   2.879   0.039   0.753
 3454SOL    HW111018   2.807   0.044   0.684
 3454SOL    HW211019   2.855  -0.030   0.822
 3455SOL     OW11020   3.291   1.173   0.867
 3455SOL    HW111021   3.236   1.089   0.860
 3455SOL    HW211022   3.317   1.202   0.775
 3456SOL     OW11023   3.328   0.590   0.992
 3456SOL    HW111024   3.298   0.495   0.999
 3456SOL    HW211025   3.401   0.606   1.058
 3457SOL     OW11026   3.719   0.833   0.377
 3457SOL    HW111027   3.761   0.769   0.441
 3457SOL    HW211028   3.681   0.782   0.299
 3458SOL     OW11029   2.350   1.385   0.174
 3458SOL    HW111030   2.263   1.370   0.221
 3458SOL    HW211031   2.333   1.411   0.079
 3459SOL     OW11032   3.526   1.280   0.657
 3459SOL    HW111033   3.625   1.288   0.671
 3459SOL    HW211034   3.481   1.364   0.688
 3460SOL     OW11035   3.252   0.575   0.078
 3460SOL    HW111036   3.198   0.554   0.159
 3460SOL    HW211037   3.343   0.534   0.087
 3461SOL     OW11038   2.389   0.256   0.328
 3461SOL    HW111039   2.416   0.197   0.253
 3461SOL    HW211040   2.389   0.351   0.297
 3462SOL     OW11041   3.616   1.223   1.588
 3462SOL    HW111042   3.707   1.184   1.575
 3462SOL    HW211043   3.624   1.319   1.612
 3463SOL     OW11044   2.926   1.347   1.340
 3463SOL    HW111045   2.846   1.324   1.395
 3463SOL    HW211046   3.009   1.321   1.389
 3464SOL     OW11047   3.454   1.629   1.625
 3464SOL    HW111048   3.481   1.663   1.535
 3464SOL    HW211049   3.533   1.591   1.671
 3465SOL     OW11050   2.973   1.195   1.100
 3465SOL    HW111051   2.933   1.239   1.181
 3465SOL    HW211052   2.932   1.232   1.017
 3466SOL     OW11053   3.500   1.099   1.079
 3466SOL    HW111054   3.505   1.180   1.138
 3466SOL    HW211055   3.414   1.101   1.028
 3467SOL     OW11056   2.777   0.089   1.402
 3467SOL    HW111057   2.802   0.069   1.307
 3467SOL    HW211058   2.849   0.145   1.444
 3468SOL     OW11059   2.842   1.116   1.719
 3468SOL    HW111060   2.743   1.122   1.729
 3468SOL    HW211061   2.865   1.036   1.663
 3469SOL     OW11062   2.567   1.050   0.368
 3469SOL    HW111063   2.553   1.057   0.467
 3469SOL    HW211064   2.651   0.999   0.350
 3470SOL     OW11065   2.272   0.813   1.251
 3470SOL    HW111066   2.358   0.825   1.301
 3470SOL    HW211067   2.230   0.726   1.278
 3471SOL     OW11068   3.136   0.386   1.262
 3471SOL    HW111069   3.157   0.460   1.326
 3471SOL    HW211070   3.047   0.403   1.219
 3472SOL     OW11071   2.229   1.100   0.501
 3472SOL    HW111072   2.222   1.183   0.445
 3472SOL    HW211073   2.233   1.020   0.441
 3473SOL     OW11074   2.428   0.537   0.865
 3473SOL    HW111075   2.440   0.603   0.791
 3473SOL    HW211076   2.474   0.571   0.948
 3474SOL     OW11077   3.114   1.348   0.388
 3474SOL    HW111078   3.164   1.425   0.428
 3474SOL    HW211079   3.019   1.350   0.420
 3475SOL     OW11080   3.134   1.445   1.142
 3475SOL    HW111081   3.181   1.458   1.229
 3475SOL    HW211082   3.068   1.371   1.151
 3476SOL     OW11083   3.444   0.639   0.472
 3476SOL    HW111084   3.413   0.700   0.545
 3476SOL    HW211085   3.494   0.691   0.403
 3477SOL     OW11086   2.216   1.510   1.329
 3477SOL    HW111087   2.195   1.466   1.242
 3477SOL    HW211088   2.313   1.536   1.332
 3478SOL     OW11089   2.264   0.751   1.598
 3478SOL    HW111090   2.332   0.806   1.551
 3478SOL    HW211091   2.304   0.663   1.625
 3479SOL     OW11092   3.449   0.779   1.670
 3479SOL    HW111093   3.357   0.817   1.665
 3479SOL    HW211094   3.509   0.826   1.605
 3480SOL     OW11095   2.875   0.105   1.770
 3480SOL    HW111096   2.881   0.190   1.718
 3480SOL    HW211097   2.907   0.029   1.713
 3481SOL     OW11098   2.366   0.050   1.740
 3481SOL    HW111099   2.324  -0.007   1.670
 3481SOL    HW211100   2.300   0.119   1.772
 3482SOL     OW11101   2.435   0.870   1.029
 3482SOL    HW111102   2.479   0.959   1.020
 3482SOL    HW211103   2.372   0.870   1.106
 3483SOL     OW11104   3.222   0.862   1.045
 3483SOL    HW111105   3.147   0.862   0.979
 3483SOL    HW211106   3.259   0.770   1.054
 3484SOL     OW11107   3.071   0.525   0.275
 3484SOL    HW111108   3.084   0.441   0.329
 3484SOL    HW211109   3.042   0.599   0.335
 3485SOL     OW11110   2.169   0.213   1.231
 3485SOL    HW111111   2.146   0.250   1.321
 3485SOL    HW211112   2.139   0.118   1.225
 3486SOL     OW11113   1.899   1.310   1.282
 3486SOL    HW111114   1.952   1.261   1.350
 3486SOL    HW211115   1.921   1.408   1.287
 3487SOL     OW11116   2.594   0.634   1.064
 3487SOL    HW111117   2.653   0.608   0.988
 3487SOL    HW211118   2.566   0.730   1.053
 3488SOL     OW11119   3.590   0.935   1.854
 3488SOL    HW111120   3.544   0.928   1.765
 3488SOL    HW211121   3.528   0.979   1.920
 3489SOL     OW11122   2.169   0.063   0.618
 3489SOL    HW111123   2.158   0.157   0.651
 3489SOL    HW211124   2.164   0.000   0.695
 3490SOL     OW11125   3.484   0.367   0.374
 3490SOL    HW111126   3.486   0.291   0.438
 3490SOL    HW211127   3.436   0.444   0.414
 3491SOL     OW11128   2.885   0.766   0.966
 3491SOL    HW111129   2.900   0.787   1.062
 3491SOL    HW211130   2.855   0.671   0.957
 3492SOL     OW11131   2.842   1.573   1.700
 3492SOL    HW111132   2.822   1.617   1.612
 3492SOL    HW211133   2.881   1.482   1.684
 3493SOL     OW11134   3.721   1.518   1.605
 3493SOL    HW111135   3.735   1.545   1.510
 3493SOL    HW211136   3.804   1.540   1.658
 3494SOL     OW11137   2.212   0.898   1.804
 3494SOL    HW111138   2.288   0.942   1.852
 3494SOL    HW211139   2.247   0.851   1.722
 3495SOL     OW11140   3.402   0.274   0.125
 3495SOL    HW111141   3.341   0.199   0.148
 3495SOL    HW211142   3.424   0.326   0.208
 3496SOL     OW11143   3.165   0.838   0.042
 3496SOL    HW111144   3.199   0.745   0.057
 3496SOL    HW211145   3.183   0.865  -0.053
 3497SOL     OW11146   2.930   1.333   0.849
 3497SOL    HW111147   2.937   1.249   0.794
 3497SOL    HW211148   2.992   1.402   0.813
 3498SOL     OW11149   2.181   0.810   0.949
 3498SOL    HW111150   2.274   0.846   0.954
 3498SOL    HW211151   2.175   0.725   1.001
 3499SOL     OW11152   2.201   0.509   1.006
 3499SOL    HW111153   2.149   0.426   0.989
 3499SOL    HW211154   2.278   0.514   0.942
 3500SOL     OW11155   3.000   0.380   1.678
 3500SOL    HW111156   2.955   0.443   1.742
 3500SOL    HW211157   3.093   0.411   1.661
 3501SOL     OW11158   3.022   0.207   1.477
 3501SOL    HW111159   3.022   0.271   1.554
 3501SOL    HW211160   3.050   0.255   1.394
 3502SOL     OW11161   1.870   1.326   0.200
 3502SOL    HW111162   1.777   1.347   0.169
 3502SOL    HW211163   1.880   1.227   0.213
 3503SOL     OW11164   2.366   1.568   0.910
 3503SOL    HW111165   2.432   1.642   0.919
 3503SOL    HW211166   2.410   1.489   0.868
 3504SOL     OW11167   2.864   0.796   1.238
 3504SOL    HW111168   2.905   0.764   1.324
 3504SOL    HW211169   2.768   0.769   1.235
 3505SOL     OW11170   1.902   0.544   1.114
 3505SOL    HW111171   1.987   0.511   1.073
 3505SOL    HW211172   1.915   0.559   1.212
 3506SOL     OW11173   2.051   0.520   1.722
 3506SOL    HW111174   2.110   0.480   1.652
 3506SOL    HW211175   1.993   0.591   1.681
 3507SOL     OW11176   3.231   0.950   1.660
 3507SOL    HW111177   3.270   1.039   1.680
 3507SOL    HW211178   3.241   0.930   1.563
 3508SOL     OW11179   2.677   0.572   0.325
 3508SOL    HW111180   2.684   0.483   0.279
 3508SOL    HW211181   2.583   0.606   0.317
 3509SOL     OW11182   3.519   0.604   1.206
 3509SOL    HW111183   3.481   0.535   1.268
 3509SOL    HW211184   3.601   0.568   1.162
 3510SOL     OW11185   2.114   1.564   1.744
 3510SOL    HW111186   2.084   1.621   1.820
 3510SOL    HW211187   2.107   1.467   1.770
 3511SOL     OW11188   2.533   0.464   1.269
 3511SOL    HW111189   2.499   0.375   1.239
 3511SOL    HW211190   2.559   0.518   1.189
 3512SOL     OW11191   2.792   1.678   1.465
 3512SOL    HW111192   2.768   1.660   1.370
 3512SOL    HW211193   2.822   1.772   1.475
 3513SOL     OW11194   2.335   0.500   0.191
 3513SOL    HW111195   2.396   0.580   0.195
 3513SOL    HW211196   2.240   0.531   0.198
 3514SOL     OW11197   2.021   1.137   1.466
 3514SOL    HW111198   2.043   1.076   1.542
 3514SOL    HW211199   2.031   1.088   1.380
 3515SOL     OW11200   3.209   1.059   1.234
 3515SOL    HW111201   3.233   0.996   1.160
 3515SOL    HW211202   3.119   1.099   1.216
 3516SOL     OW11203   3.164   0.855   0.309
 3516SOL    HW111204   3.078   0.824   0.351
 3516SOL    HW211205   3.160   0.841   0.210
 3517SOL     OW11206   3.621   1.747   1.154
 3517SOL    HW111207   3.682   1.777   1.081
 3517SOL    HW211208   3.583   1.658   1.132
 3518SOL     OW11209   3.114   1.731   1.128
 3518SOL    HW111210   3.198   1.736   1.074
 3518SOL    HW211211   3.091   1.635   1.146
 3519SOL     OW11212   1.945   1.258   1.022
 3519SOL    HW111213   1.940   1.257   1.122
 3519SOL    HW211214   1.862   1.217   0.984
 3520SOL     OW11215   2.550   1.662   1.716
 3520SOL    HW111216   2.494   1.743   1.725
 3520SOL    HW211217   2.602   1.666   1.630
 3521SOL     OW11218   2.765   0.086   0.133
 3521SOL    HW111219   2.816   0.087   0.047
 3521SOL    HW211220   2.821   0.044   0.204
 3522SOL     OW11221   3.588   0.135   0.523
 3522SOL    HW111222   3.661   0.118   0.456
 3522SOL    HW211223   3.557   0.048   0.561
 3523SOL     OW11224   3.250   1.573   0.477
 3523SOL    HW111225   3.317   1.585   0.403
 3523SOL    HW211226   3.210   1.662   0.500
 3524SOL     OW11227   3.142   0.927   0.672
 3524SOL    HW111228   3.202   0.846   0.674
 3524SOL    HW211229   3.182   0.996   0.612
 3525SOL     OW11230   2.692   1.273   1.422
 3525SOL    HW111231   2.687   1.306   1.517
 3525SOL    HW211232   2.606   1.292   1.376
 3526SOL     OW11233   2.534   1.616   0.154
 3526SOL    HW111234   2.543   1.626   0.055
 3526SOL    HW211235   2.494   1.527   0.175
 3527SOL     OW11236   3.512   1.720   1.394
 3527SOL    HW111237   3.565   1.730   1.310
 3527SOL    HW211238   3.485   1.810   1.428
 3528SOL     OW11239   3.703   0.175   0.963
 3528SOL    HW111240   3.742   0.090   0.927
 3528SOL    HW211241   3.605   0.177   0.944
 3529SOL     OW11242   2.125   0.326   0.720
 3529SOL    HW111243   2.046   0.377   0.686
 3529SOL    HW211244   2.116   0.311   0.818
 3530SOL     OW11245   3.056   1.612   0.031
 3530SOL    HW111246   3.062   1.519   0.068
 3530SOL    HW211247   2.997   1.612  -0.049
 3531SOL     OW11248   2.684   1.002   1.372
 3531SOL    HW111249   2.724   1.001   1.280
 3531SOL    HW211250   2.694   1.094   1.412
 3532SOL     OW11251   2.778   0.910   0.291
 3532SOL    HW111252   2.841   0.948   0.223
 3532SOL    HW211253   2.818   0.827   0.330
 3533SOL     OW11254   3.366   1.607   0.044
 3533SOL    HW111255   3.274   1.644   0.051
 3533SOL    HW211256   3.404   1.627  -0.046
 3534SOL     OW11257   2.234   1.288   1.490
 3534SOL    HW111258   2.221   1.381   1.456
 3534SOL    HW211259   2.150   1.236   1.477
 3535SOL     OW11260   3.476   1.292   1.289
 3535SOL    HW111261   3.536   1.295   1.369
 3535SOL    HW211262   3.401   1.356   1.302
 3536SOL     OW11263   2.901   1.098   0.696
 3536SOL    HW111264   2.831   1.051   0.750
 3536SOL    HW211265   2.960   1.030   0.653
 3537SOL     OW11266   2.876   0.236   0.971
 3537SOL    HW111267   2.868   0.200   0.878
 3537SOL    HW211268   2.874   0.160   1.036
 3538SOL     OW11269   2.452   1.487   0.491
 3538SOL    HW111270   2.494   1.429   0.421
 3538SOL    HW211271   2.408   1.566   0.447
 3539SOL     OW11272   3.571   0.385   1.381
 3539SOL    HW111273   3.644   0.454   1.385
 3539SOL    HW211274   3.599   0.310   1.322
 3540SOL     OW11275   2.117   1.348   0.290
 3540SOL    HW111276   2.021   1.349   0.263
 3540SOL    HW211277   2.129   1.401   0.374
 3541SOL     OW11278   1.967   1.013   1.726
 3541SOL    HW111279   1.890   0.980   1.780
 3541SOL    HW211280   2.052   0.983   1.768
 3542SOL     OW11281   2.534   0.203   1.489
 3542SOL    HW111282   2.624   0.187   1.449
 3542SOL    HW211283   2.542   0.208   1.588
 3543SOL     OW11284   1.937   0.345   0.033
 3543SOL    HW111285   1.845   0.317   0.004
 3543SOL    HW211286   1.968   0.422  -0.023
 3544SOL     OW11287   3.302   0.856   1.398
 3544SOL    HW111288   3.245   0.908   1.335
 3544SOL    HW211289   3.398   0.868   1.374
 3545SOL     OW11290   1.934   0.166   0.318
 3545SOL    HW111291   1.917   0.249   0.264
 3545SOL    HW211292   2.024   0.129   0.296
 3546SOL     OW11293   3.045   1.335   0.119
 3546SOL    HW111294   2.946   1.324   0.121
 3546SOL    HW211295   3.079   1.350   0.212
 3547SOL     OW11296   2.475   0.842   1.431
 3547SOL    HW111297   2.531   0.923   1.414
 3547SOL    HW211298   2.534   0.762   1.434
 3548SOL     OW11299   3.355   1.767   0.959
 3548SOL    HW111300   3.388   1.831   0.890
 3548SOL    HW211301   3.421   1.761   1.034
 3549SOL     OW11302   2.578   0.565   1.708
 3549SOL    HW111303   2.597   0.630   1.782
 3549SOL    HW211304   2.638   0.485   1.717
 3550SOL     OW11305   3.312   1.220   1.633
 3550SOL    HW111306   3.303   1.210   1.732
 3550SOL    HW211307   3.408   1.213   1.607
 3551SOL     OW11308   2.252   1.741   1.560
 3551SOL    HW111309   2.161   1.782   1.558
 3551SOL    HW211310   2.245   1.647   1.592
 3552SOL     OW11311   3.536   0.883   1.254
 3552SOL    HW111312   3.509   0.794   1.217
 3552SOL    HW211313   3.537   0.951   1.181
 3553SOL     OW11314   3.087   0.325   0.449
 3553SOL    HW111315   3.152   0.251   0.438
 3553SOL    HW211316   3.107   0.375   0.533
 3554SOL     OW11317   2.456   0.745   0.652
 3554SOL    HW111318   2.506   0.830   0.633
 3554SOL    HW211319   2.368   0.747   0.604
 3555SOL     OW11320   3.639   0.342   1.642
 3555SOL    HW111321   3.622   0.373   1.548
 3555SOL    HW211322   3.555   0.305   1.680
 3556SOL     OW11323   3.592   0.934   1.517
 3556SOL    HW111324   3.630   1.025   1.532
 3556SOL    HW211325   3.584   0.917   1.418
 3557SOL     OW11326   2.721   1.374   0.016
 3557SOL    HW111327   2.675   1.389   0.104
 3557SOL    HW211328   2.765   1.459  -0.014
 3558SOL     OW11329   2.523   1.790   0.953
 3558SOL    HW111330   2.477   1.878   0.940
 3558SOL    HW211331   2.622   1.802   0.946
 3559SOL     OW11332   2.721   0.956   0.861
 3559SOL    HW111333   2.775   0.887   0.909
 3559SOL    HW211334   2.689   1.025   0.927
 3560SOL     OW11335   2.945   0.984   0.087
 3560SOL    HW111336   2.922   1.037   0.005
 3560SOL    HW211337   3.026   0.928   0.068
 3561SOL     OW11338   3.723   1.569   0.851
 3561SOL    HW111339   3.652   1.557   0.781
 3561SOL    HW211340   3.724   1.490   0.911
 3562SOL     OW11341   2.083   1.314   1.844
 3562SOL    HW111342   2.018   1.241   1.823
 3562SOL    HW211343   2.087   1.328   1.942
 3563SOL     OW11344   1.941   1.240   0.653
 3563SOL    HW111345   1.940   1.193   0.741
 3563SOL    HW211346   2.023   1.212   0.602
 3564SOL     OW11347   2.534   1.391   1.624
 3564SOL    HW111348   2.456   1.341   1.662
 3564SOL    HW211349   2.531   1.486   1.655
 3565SOL     OW11350   3.686   0.192   1.227
 3565SOL    HW111351   3.682   0.102   1.271
 3565SOL    HW211352   3.689   0.181   1.128
 3566SOL     OW11353   2.290   0.424   0.520
 3566SOL    HW111354   2.320   0.352   0.458
 3566SOL    HW211355   2.251   0.384   0.603
 3567SOL     OW11356   3.567   1.487   1.104
 3567SOL    HW111357   3.474   1.462   1.077
 3567SOL    HW211358   3.593   1.437   1.186
 3568SOL     OW11359   2.179   0.547   1.280
 3568SOL    HW111360   2.217   0.488   1.352
 3568SOL    HW211361   2.219   0.521   1.192
 3569SOL     OW11362   2.674   1.586   0.687
 3569SOL    HW111363   2.706   1.596   0.593
 3569SOL    HW211364   2.595   1.524   0.689
 3570SOL     OW11365   3.286   0.214   1.112
 3570SOL    HW111366   3.338   0.149   1.167
 3570SOL    HW211367   3.237   0.277   1.173
 3571SOL     OW11368   2.863   0.034   1.154
 3571SOL    HW111369   2.800  -0.038   1.123
 3571SOL    HW211370   2.956  -0.002   1.154
 3572SOL     OW11371   2.632   1.330   0.301
 3572SOL    HW111372   2.586   1.243   0.318
 3572SOL    HW211373   2.723   1.327   0.342
 3573SOL     OW11374   2.480   1.567   1.284
 3573SOL    HW111375   2.475   1.649   1.341
 3573SOL    HW211376   2.569   1.564   1.239
 3574SOL     OW11377   3.214   0.052   0.168
 3574SOL    HW111378   3.249   0.011   0.084
 3574SOL    HW211379   3.124   0.014   0.188
 3575SOL     OW11380   3.162   0.453   0.691
 3575SOL    HW111381   3.103   0.533   0.695
 3575SOL    HW211382   3.177   0.418   0.784
 3576SOL     OW11383   3.455   0.221   0.882
 3576SOL    HW111384   3.371   0.220   0.936
 3576SOL    HW211385   3.457   0.304   0.826
 3577SOL     OW11386   1.901   1.077   0.300
 3577SOL    HW111387   2.000   1.066   0.291
 3577SOL    HW211388   1.861   0.991   0.332
 3578SOL     OW11389   2.737   1.646   0.337
 3578SOL    HW111390   2.660   1.611   0.283
 3578SOL    HW211391   2.705   1.717   0.399
 3579SOL     OW11392   2.092   0.628   1.975
 3579SOL    HW111393   1.999   0.626   2.012
 3579SOL    HW211394   2.093   0.589   1.883
 3580SOL     OW11395   2.087   0.275   2.858
 3580SOL    HW111396   2.122   0.258   2.950
 3580SOL    HW211397   1.999   0.230   2.846
 3581SOL     OW11398   1.881   0.368   2.509
 3581SOL    HW111399   1.799   0.411   2.548
 3581SOL    HW211400   1.853   0.295   2.446
 3582SOL     OW11401   2.431   1.275   3.027
 3582SOL    HW111402   2.338   1.268   2.990
 3582SOL    HW211403   2.442   1.364   3.071
 3583SOL     OW11404   3.417   1.511   2.565
 3583SOL    HW111405   3.360   1.495   2.646
 3583SOL    HW211406   3.358   1.521   2.485
 3584SOL     OW11407   2.997   0.703   2.579
 3584SOL    HW111408   3.054   0.781   2.554
 3584SOL    HW211409   2.937   0.729   2.655
 3585SOL     OW11410   3.617   0.607   2.093
 3585SOL    HW111411   3.605   0.594   1.994
 3585SOL    HW211412   3.587   0.526   2.142
 3586SOL     OW11413   2.630   1.144   2.885
 3586SOL    HW111414   2.552   1.161   2.945
 3586SOL    HW211415   2.664   1.231   2.849
 3587SOL     OW11416   2.712   0.798   3.685
 3587SOL    HW111417   2.708   0.874   3.750
 3587SOL    HW211418   2.734   0.834   3.594
 3588SOL     OW11419   2.547   1.012   2.527
 3588SOL    HW111420   2.616   0.996   2.597
 3588SOL    HW211421   2.474   1.069   2.565
 3589SOL     OW11422   2.548   1.161   3.665
 3589SOL    HW111423   2.608   1.240   3.679
 3589SOL    HW211424   2.462   1.192   3.624
 3590SOL     OW11425   2.197   1.435   2.923
 3590SOL    HW111426   2.119   1.404   2.870
 3590SOL    HW211427   2.255   1.493   2.866
 3591SOL     OW11428   3.322   1.505   3.201
 3591SOL    HW111429   3.346   1.599   3.227
 3591SOL    HW211430   3.306   1.451   3.283
 3592SOL     OW11431   2.300   0.392   3.361
 3592SOL    HW111432   2.382   0.336   3.370
 3592SOL    HW211433   2.219   0.334   3.365
 3593SOL     OW11434   3.465   0.447   2.599
 3593SOL    HW111435   3.391   0.493   2.549
 3593SOL    HW211436   3.516   0.515   2.652
 3594SOL     OW11437   2.989   1.341   3.552
 3594SOL    HW111438   3.036   1.341   3.640
 3594SOL    HW211439   2.941   1.254   3.541
 3595SOL     OW11440   2.092   1.434   2.400
 3595SOL    HW111441   2.066   1.530   2.400
 3595SOL    HW211442   2.021   1.380   2.445
 3596SOL     OW11443   2.102   1.091   2.748
 3596SOL    HW111444   2.116   1.007   2.800
 3596SOL    HW211445   2.047   1.155   2.803
 3597SOL     OW11446   2.482   1.786   3.301
 3597SOL    HW111447   2.390   1.769   3.336
 3597SOL    HW211448   2.510   1.878   3.327
 3598SOL     OW11449   2.468   0.964   1.985
 3598SOL    HW111450   2.475   1.048   1.931
 3598SOL    HW211451   2.514   0.977   2.073
 3599SOL     OW11452   3.456   0.114   3.342
 3599SOL    HW111453   3.438   0.181   3.270
 3599SOL    HW211454   3.453   0.160   3.431
 3600SOL     OW11455   1.984   0.643   2.425
 3600SOL    HW111456   1.939   0.555   2.442
 3600SOL    HW211457   1.983   0.697   2.509
 3601SOL     OW11458   3.704   1.767   2.221
 3601SOL    HW111459   3.758   1.738   2.301
 3601SOL    HW211460   3.734   1.857   2.192
 3602SOL     OW11461   1.889   1.596   1.979
 3602SOL    HW111462   1.870   1.500   2.000
 3602SOL    HW211463   1.856   1.654   2.054
 3603SOL     OW11464   3.551   0.922   2.474
 3603SOL    HW111465   3.646   0.893   2.482
 3603SOL    HW211466   3.543   0.987   2.399
 3604SOL     OW11467   3.503   1.108   2.294
 3604SOL    HW111468   3.589   1.110   2.242
 3604SOL    HW211469   3.517   1.155   2.382
 3605SOL     OW11470   1.975   0.737   3.459
 3605SOL    HW111471   2.063   0.724   3.504
 3605SOL    HW211472   1.962   0.834   3.437
 3606SOL     OW11473   2.475   1.365   2.588
 3606SOL    HW111474   2.426   1.278   2.597
 3606SOL    HW211475   2.452   1.408   2.501
 3607SOL     OW11476   3.155   1.228   3.285
 3607SOL    HW111477   3.192   1.155   3.227
 3607SOL    HW211478   3.207   1.233   3.370
 3608SOL     OW11479   2.671   0.004   2.364
 3608SOL    HW111480   2.711   0.095   2.355
 3608SOL    HW211481   2.571   0.012   2.370
 3609SOL     OW11482   2.059   0.976   3.126
 3609SOL    HW111483   2.148   0.931   3.112
 3609SOL    HW211484   1.986   0.911   3.107
 3610SOL     OW11485   3.387   0.999   2.052
 3610SOL    HW111486   3.324   0.923   2.065
 3610SOL    HW211487   3.435   1.017   2.138
 3611SOL     OW11488   3.049   1.792   3.478
 3611SOL    HW111489   3.073   1.852   3.402
 3611SOL    HW211490   3.056   1.697   3.448
 3612SOL     OW11491   2.179   0.251   3.663
 3612SOL    HW111492   2.250   0.322   3.669
 3612SOL    HW211493   2.091   0.290   3.691
 3613SOL     OW11494   3.328   1.417   2.815
 3613SOL    HW111495   3.269   1.423   2.895
 3613SOL    HW211496   3.313   1.329   2.769
 3614SOL     OW11497   3.529   1.714   2.434
 3614SOL    HW111498   3.488   1.691   2.346
 3614SOL    HW211499   3.511   1.640   2.499
 3615SOL     OW11500   2.460   0.729   2.132
 3615SOL    HW111501   2.484   0.798   2.064
 3615SOL    HW211502   2.382   0.762   2.186
 3616SOL     OW11503   3.143   0.345   2.806
 3616SOL    HW111504   3.057   0.295   2.793
 3616SOL    HW211505   3.205   0.291   2.862
 3617SOL     OW11506   3.438   1.662   2.169
 3617SOL    HW111507   3.527   1.708   2.172
 3617SOL    HW211508   3.417   1.638   2.074
 3618SOL     OW11509   2.669   0.605   3.327
 3618SOL    HW111510   2.622   0.602   3.416
 3618SOL    HW211511   2.618   0.550   3.261
 3619SOL     OW11512   3.256   0.469   3.536
 3619SOL    HW111513   3.236   0.512   3.624
 3619SOL    HW211514   3.334   0.407   3.545
 3620SOL     OW11515   2.835   0.890   3.434
 3620SOL    HW111516   2.881   0.806   3.405
 3620SOL    HW211517   2.779   0.924   3.359
 3621SOL     OW11518   2.853   0.410   3.104
 3621SOL    HW111519   2.776   0.444   3.158
 3621SOL    HW211520   2.819   0.359   3.025
 3622SOL     OW11521   2.903   0.701   2.291
 3622SOL    HW111522   2.929   0.697   2.387
 3622SOL    HW211523   2.818   0.650   2.277
 3623SOL     OW11524   1.938   0.811   2.651
 3623SOL    HW111525   2.037   0.799   2.660
 3623SOL    HW211526   1.914   0.906   2.672
 3624SOL     OW11527   2.727   0.348   2.057
 3624SOL    HW111528   2.786   0.411   2.008
 3624SOL    HW211529   2.746   0.254   2.028
 3625SOL     OW11530   3.581   0.585   3.693
 3625SOL    HW111531   3.555   0.674   3.657
 3625SOL    HW211532   3.579   0.517   3.620
 3626SOL     OW11533   3.224   1.144   2.407
 3626SOL    HW111534   3.307   1.115   2.359
 3626SOL    HW211535   3.175   1.211   2.351
 3627SOL     OW11536   2.412   0.196   2.747
 3627SOL    HW111537   2.407   0.191   2.847
 3627SOL    HW211538   2.414   0.292   2.718
 3628SOL     OW11539   2.870   1.456   2.339
 3628SOL    HW111540   2.824   1.528   2.287
 3628SOL    HW211541   2.866   1.476   2.437
 3629SOL     OW11542   3.657   1.066   2.735
 3629SOL    HW111543   3.595   1.051   2.659
 3629SOL    HW211544   3.605   1.077   2.820
 3630SOL     OW11545   3.089   1.550   3.368
 3630SOL    HW111546   3.095   1.473   3.432
 3630SOL    HW211547   3.037   1.524   3.288
 3631SOL     OW11548   2.183   0.943   2.104
 3631SOL    HW111549   2.265   0.982   2.062
 3631SOL    HW211550   2.156   0.861   2.055
 3632SOL     OW11551   3.320   0.735   2.590
 3632SOL    HW111552   3.315   0.670   2.665
 3632SOL    HW211553   3.400   0.794   2.603
 3633SOL     OW11554   2.323   1.266   3.589
 3633SOL    HW111555   2.273   1.267   3.503
 3633SOL    HW211556   2.260   1.248   3.665
 3634SOL     OW11557   2.973   1.776   2.099
 3634SOL    HW111558   2.913   1.714   2.149
 3634SOL    HW211559   3.004   1.732   2.014
 3635SOL     OW11560   2.064   0.285   3.360
 3635SOL    HW111561   1.984   0.345   3.347
 3635SOL    HW211562   2.054   0.236   3.446
 3636SOL     OW11563   3.494   1.377   1.943
 3636SOL    HW111564   3.462   1.471   1.933
 3636SOL    HW211565   3.418   1.314   1.931
 3637SOL     OW11566   2.326   1.743   2.185
 3637SOL    HW111567   2.359   1.782   2.271
 3637SOL    HW211568   2.402   1.736   2.120
 3638SOL     OW11569   3.262   0.107   2.288
 3638SOL    HW111570   3.238   0.070   2.198
 3638SOL    HW211571   3.361   0.123   2.292
 3639SOL     OW11572   2.802   1.698   2.766
 3639SOL    HW111573   2.882   1.641   2.787
 3639SOL    HW211574   2.753   1.658   2.689
 3640SOL     OW11575   2.244   0.700   2.342
 3640SOL    HW111576   2.289   0.610   2.339
 3640SOL    HW211577   2.150   0.689   2.375
 3641SOL     OW11578   3.409   0.222   3.591
 3641SOL    HW111579   3.404   0.259   3.683
 3641SOL    HW211580   3.337   0.153   3.579
 3642SOL     OW11581   2.476   0.122   1.979
 3642SOL    HW111582   2.574   0.100   1.986
 3642SOL    HW211583   2.445   0.105   1.886
 3643SOL     OW11584   2.643   0.264   3.611
 3643SOL    HW111585   2.710   0.203   3.654
 3643SOL    HW211586   2.570   0.283   3.676
 3644SOL     OW11587   2.750   1.514   3.057
 3644SOL    HW111588   2.727   1.489   2.963
 3644SOL    HW211589   2.811   1.445   3.096
 3645SOL     OW11590   3.213   0.590   3.295
 3645SOL    HW111591   3.241   0.547   3.380
 3645SOL    HW211592   3.238   0.686   3.296
 3646SOL     OW11593   2.665   1.402   2.786
 3646SOL    HW111594   2.755   1.416   2.744
 3646SOL    HW211595   2.594   1.404   2.715
 3647SOL     OW11596   2.784   0.503   2.761
 3647SOL    HW111597   2.759   0.494   2.665
 3647SOL    HW211598   2.832   0.421   2.792
 3648SOL     OW11599   2.401   0.064   2.374
 3648SOL    HW111600   2.320   0.065   2.432
 3648SOL    HW211601   2.404   0.147   2.319
 3649SOL     OW11602   3.296   1.188   1.903
 3649SOL    HW111603   3.328   1.112   1.960
 3649SOL    HW211604   3.204   1.215   1.933
 3650SOL     OW11605   2.159   0.035   2.033
 3650SOL    HW111606   2.208   0.119   2.012
 3650SOL    HW211607   2.221  -0.030   2.078
 3651SOL     OW11608   2.797   0.236   2.342
 3651SOL    HW111609   2.749   0.277   2.264
 3651SOL    HW211610   2.896   0.234   2.323
 3652SOL     OW11611   2.938   0.683   3.326
 3652SOL    HW111612   2.858   0.622   3.329
 3652SOL    HW211613   3.019   0.630   3.302
 3653SOL     OW11614   3.089   1.570   2.655
 3653SOL    HW111615   3.110   1.644   2.590
 3653SOL    HW211616   3.157   1.570   2.728
 3654SOL     OW11617   2.321   1.152   2.603
 3654SOL    HW111618   2.250   1.125   2.668
 3654SOL    HW211619   2.295   1.124   2.510
 3655SOL     OW11620   3.133   1.797   2.453
 3655SOL    HW111621   3.177   1.861   2.389
 3655SOL    HW211622   3.083   1.849   2.523
 3656SOL     OW11623   2.894   0.549   1.878
 3656SOL    HW111624   2.853   0.631   1.839
 3656SOL    HW211625   2.958   0.575   1.951
 3657SOL     OW11626   1.940   0.556   3.248
 3657SOL    HW111627   2.032   0.555   3.207
 3657SOL    HW211628   1.934   0.630   3.315
 3658SOL     OW11629   2.423   0.222   3.009
 3658SOL    HW111630   2.461   0.138   3.046
 3658SOL    HW211631   2.335   0.241   3.053
 3659SOL     OW11632   2.728   0.454   2.504
 3659SOL    HW111633   2.696   0.526   2.442
 3659SOL    HW211634   2.752   0.373   2.451
 3660SOL     OW11635   2.879   0.039   2.615
 3660SOL    HW111636   2.807   0.044   2.546
 3660SOL    HW211637   2.855  -0.030   2.684
 3661SOL     OW11638   3.291   1.173   2.729
 3661SOL    HW111639   3.236   1.089   2.722
 3661SOL    HW211640   3.317   1.202   2.637
 3662SOL     OW11641   3.328   0.590   2.854
 3662SOL    HW111642   3.298   0.495   2.861
 3662SOL    HW211643   3.401   0.606   2.920
 3663SOL     OW11644   3.719   0.833   2.239
 3663SOL    HW111645   3.761   0.769   2.303
 3663SOL    HW211646   3.681   0.782   2.161
 3664SOL     OW11647   2.350   1.385   2.036
 3664SOL    HW111648   2.263   1.370   2.083
 3664SOL    HW211649   2.333   1.411   1.941
 3665SOL     OW11650   3.526   1.280   2.519
 3665SOL    HW111651   3.625   1.288   2.533
 3665SOL    HW211652   3.481   1.364   2.550
 3666SOL     OW11653   3.252   0.575   1.940
 3666SOL    HW111654   3.198   0.554   2.021
 3666SOL    HW211655   3.343   0.534   1.949
 3667SOL     OW11656   2.389   0.256   2.190
 3667SOL    HW111657   2.416   0.197   2.115
 3667SOL    HW211658   2.389   0.351   2.159
 3668SOL     OW11659   3.616   1.223   3.450
 3668SOL    HW111660   3.707   1.184   3.437
 3668SOL    HW211661   3.624   1.319   3.474
 3669SOL     OW11662   2.926   1.347   3.202
 3669SOL    HW111663   2.846   1.324   3.257
 3669SOL    HW211664   3.009   1.321   3.251
 3670SOL     OW11665   3.454   1.629   3.487
 3670SOL    HW111666   3.481   1.663   3.397
 3670SOL    HW211667   3.533   1.591   3.533
 3671SOL     OW11668   2.973   1.195   2.962
 3671SOL    HW111669   2.933   1.239   3.043
 3671SOL    HW211670   2.932   1.232   2.879
 3672SOL     OW11671   3.500   1.099   2.941
 3672SOL    HW111672   3.505   1.180   3.000
 3672SOL    HW211673   3.414   1.101   2.890
 3673SOL     OW11674   2.777   0.089   3.264
 3673SOL    HW111675   2.802   0.069   3.169
 3673SOL    HW211676   2.849   0.145   3.306
 3674SOL     OW11677   2.842   1.116   3.581
 3674SOL    HW111678   2.743   1.122   3.591
 3674SOL    HW211679   2.865   1.036   3.525
 3675SOL     OW11680   2.567   1.050   2.230
 3675SOL    HW111681   2.553   1.057   2.329
 3675SOL    HW211682   2.651   0.999   2.212
 3676SOL     OW11683   2.272   0.813   3.113
 3676SOL    HW111684   2.358   0.825   3.163
 3676SOL    HW211685   2.230   0.726   3.140
 3677SOL     OW11686   3.136   0.386   3.124
 3677SOL    HW111687   3.157   0.460   3.188
 3677SOL    HW211688   3.047   0.403   3.081
 3678SOL     OW11689   2.229   1.100   2.363
 3678SOL    HW111690   2.222   1.183   2.307
 3678SOL    HW211691   2.233   1.020   2.303
 3679SOL     OW11692   2.428   0.537   2.727
 3679SOL    HW111693   2.440   0.603   2.653
 3679SOL    HW211694   2.474   0.571   2.810
 3680SOL     OW11695   3.114   1.348   2.250
 3680SOL    HW111696   3.164   1.425   2.290
 3680SOL    HW211697   3.019   1.350   2.282
 3681SOL     OW11698   3.134   1.445   3.004
 3681SOL    HW111699   3.181   1.458   3.091
 3681SOL    HW211700   3.068   1.371   3.013
 3682SOL     OW11701   3.444   0.639   2.334
 3682SOL    HW111702   3.413   0.700   2.407
 3682SOL    HW211703   3.494   0.691   2.265
 3683SOL     OW11704   2.216   1.510   3.191
 3683SOL    HW111705   2.195   1.466   3.104
 3683SOL    HW211706   2.313   1.536   3.194
 3684SOL     OW11707   2.264   0.751   3.460
 3684SOL    HW111708   2.332   0.806   3.413
 3684SOL    HW211709   2.304   0.663   3.487
 3685SOL     OW11710   3.449   0.779   3.532
 3685SOL    HW111711   3.357   0.817   3.527
 3685SOL    HW211712   3.509   0.826   3.467
 3686SOL     OW11713   2.875   0.105   3.632
 3686SOL    HW111714   2.881   0.190   3.580
 3686SOL    HW211715   2.907   0.029   3.575
 3687SOL     OW11716   2.366   0.050   3.602
 3687SOL    HW111717   2.324  -0.007   3.532
 3687SOL    HW211718   2.300   0.119   3.634
 3688SOL     OW11719   2.435   0.870   2.891
 3688SOL    HW111720   2.479   0.959   2.882
 3688SOL    HW211721   2.372   0.870   2.968
 3689SOL     OW11722   3.222   0.862   2.907
 3689SOL    HW111723   3.147   0.862   2.841
 3689SOL    HW211724   3.259   0.770   2.916
 3690SOL     OW11725   3.071   0.525   2.137
 3690SOL    HW111726   3.084   0.441   2.191
 3690SOL    HW211727   3.042   0.599   2.197
 3691SOL     OW11728   2.169   0.213   3.093
 3691SOL    HW111729   2.146   0.250   3.183
 3691SOL    HW211730   2.139   0.118   3.087
 3692SOL     OW11731   1.899   1.310   3.144
 3692SOL    HW111732   1.952   1.261   3.212
 3692SOL    HW211733   1.921   1.408   3.149
 3693SOL     OW11734   2.594   0.634   2.926
 3693SOL    HW111735   2.653   0.608   2.850
 3693SOL    HW211736   2.566   0.730   2.915
 3694SOL     OW11737   3.590   0.935   3.716
 3694SOL    HW111738   3.544   0.928   3.627
 3694SOL    HW211739   3.528   0.979   3.782
 3695SOL     OW11740   2.169   0.063   2.480
 3695SOL    HW111741   2.158   0.157   2.513
 3695SOL    HW211742   2.164   0.000   2.557
 3696SOL     OW11743   3.484   0.367   2.236
 3696SOL    HW111744   3.486   0.291   2.300
 3696SOL    HW211745   3.436   0.444   2.276
 3697SOL     OW11746   2.885   0.766   2.828
 3697SOL    HW111747   2.900   0.787   2.924
 3697SOL    HW211748   2.855   0.671   2.819
 3698SOL     OW11749   2.842   1.573   3.562
 3698SOL    HW111750   2.822   1.617   3.474
 3698SOL    HW211751   2.881   1.482   3.546
 3699SOL     OW11752   3.721   1.518   3.467
 3699SOL    HW111753   3.735   1.545   3.372
 3699SOL    HW211754   3.804   1.540   3.520
 3700SOL     OW11755   2.212   0.898   3.666
 3700SOL    HW111756   2.288   0.942   3.714
 3700SOL    HW211757   2.247   0.851   3.584
 3701SOL     OW11758   3.402   0.274   1.987
 3701SOL    HW111759   3.341   0.199   2.010
 3701SOL    HW211760   3.424   0.326   2.070
 3702SOL     OW11761   3.165   0.838   1.904
 3702SOL    HW111762   3.199   0.745   1.919
 3702SOL    HW211763   3.183   0.865   1.809
 3703SOL     OW11764   2.930   1.333   2.711
 3703SOL    HW111765   2.937   1.249   2.656
 3703SOL    HW211766   2.992   1.402   2.675
 3704SOL     OW11767   2.181   0.810   2.811
 3704SOL    HW111768   2.274   0.846   2.816
 3704SOL    HW211769   2.175   0.725   2.863
 3705SOL     OW11770   2.201   0.509   2.868
 3705SOL    HW111771   2.149   0.426   2.851
 3705SOL    HW211772   2.278   0.514   2.804
 3706SOL     OW11773   3.000   0.380   3.540
 3706SOL    HW111774   2.955   0.443   3.604
 3706SOL    HW211775   3.093   0.411   3.523
 3707SOL     OW11776   3.022   0.207   3.339
 3707SOL    HW111777   3.022   0.271   3.416
 3707SOL    HW211778   3.050   0.255   3.256
 3708SOL     OW11779   1.870   1.326   2.062
 3708SOL    HW111780   1.777   1.347   2.031
 3708SOL    HW211781   1.880   1.227   2.075
 3709SOL     OW11782   2.366   1.568   2.772
 3709SOL    HW111783   2.432   1.642   2.781
 3709SOL    HW211784   2.410   1.489   2.730
 3710SOL     OW11785   2.864   0.796   3.100
 3710SOL    HW111786   2.905   0.764   3.186
 3710SOL    HW211787   2.768   0.769   3.097
 3711SOL     OW11788   1.902   0.544   2.976
 3711SOL    HW111789   1.987   0.511   2.935
 3711SOL    HW211790   1.915   0.559   3.074
 3712SOL     OW11791   2.051   0.520   3.584
 3712SOL    HW111792   2.110   0.480   3.514
 3712SOL    HW211793   1.993   0.591   3.543
 3713SOL     OW11794   3.231   0.950   3.522
 3713SOL    HW111795   3.270   1.039   3.542
 3713SOL    HW211796   3.241   0.930   3.425
 3714SOL     OW11797   2.677   0.572   2.187
 3714SOL    HW111798   2.684   0.483   2.141
 3714SOL    HW211799   2.583   0.606   2.179
 3715SOL     OW11800   3.519   0.604   3.068
 3715SOL    HW111801   3.481   0.535   3.130
 3715SOL    HW211802   3.601   0.568   3.024
 3716SOL     OW11803   2.114   1.564   3.606
 3716SOL    HW111804   2.084   1.621   3.682
 3716SOL    HW211805   2.107   1.467   3.632
 3717SOL     OW11806   2.533   0.464   3.131
 3717SOL    HW111807   2.499   0.375   3.101
 3717SOL    HW211808   2.559   0.518   3.051
 3718SOL     OW11809   2.792   1.678   3.327
 3718SOL    HW111810   2.768   1.660   3.232
 3718SOL    HW211811   2.822   1.772   3.337
 3719SOL     OW11812   2.335   0.500   2.053
 3719SOL    HW111813   2.396   0.580   2.057
 3719SOL    HW211814   2.240   0.531   2.060
 3720SOL     OW11815   2.021   1.137   3.328
 3720SOL    HW111816   2.043   1.076   3.404
 3720SOL    HW211817   2.031   1.088   3.242
 3721SOL     OW11818   3.209   1.059   3.096
 3721SOL    HW111819   3.233   0.996   3.022
 3721SOL    HW211820   3.119   1.099   3.078
 3722SOL     OW11821   3.164   0.855   2.171
 3722SOL    HW111822   3.078   0.824   2.213
 3722SOL    HW211823   3.160   0.841   2.072
 3723SOL     OW11824   3.621   1.747   3.016
 3723SOL    HW111825   3.682   1.777   2.943
 3723SOL    HW211826   3.583   1.658   2.994
 3724SOL     OW11827   3.114   1.731   2.990
 3724SOL    HW111828   3.198   1.736   2.936
 3724SOL    HW211829   3.091   1.635   3.008
 3725SOL     OW11830   1.945   1.258   2.884
 3725SOL    HW111831   1.940   1.257   2.984
 3725SOL    HW211832   1.862   1.217   2.846
 3726SOL     OW11833   2.550   1.662   3.578
 3726SOL    HW111834   2.494   1.743   3.587
 3726SOL    HW211835   2.602   1.666   3.492
 3727SOL     OW11836   3.588   0.135   2.385
 3727SOL    HW111837   3.661   0.118   2.318
 3727SOL    HW211838   3.557   0.048   2.423
 3728SOL     OW11839   3.250   1.573   2.339
 3728SOL    HW111840   3.317   1.585   2.265
 3728SOL    HW211841   3.210   1.662   2.362
 3729SOL     OW11842   3.142   0.927   2.534
 3729SOL    HW111843   3.202   0.846   2.536
 3729SOL    HW211844   3.182   0.996   2.474
 3730SOL     OW11845   2.692   1.273   3.284
 3730SOL    HW111846   2.687   1.306   3.379
 3730SOL    HW211847   2.606   1.292   3.238
 3731SOL     OW11848   2.534   1.616   2.016
 3731SOL    HW111849   2.543   1.626   1.917
 3731SOL    HW211850   2.494   1.527   2.037
 3732SOL     OW11851   3.512   1.720   3.256
 3732SOL    HW111852   3.565   1.730   3.172
 3732SOL    HW211853   3.485   1.810   3.290
 3733SOL     OW11854   3.703   0.175   2.825
 3733SOL    HW111855   3.742   0.090   2.789
 3733SOL    HW211856   3.605   0.177   2.806
 3734SOL     OW11857   2.125   0.326   2.582
 3734SOL    HW111858   2.046   0.377   2.548
 3734SOL    HW211859   2.116   0.311   2.680
 3735SOL     OW11860   3.056   1.612   1.893
 3735SOL    HW111861   3.062   1.519   1.930
 3735SOL    HW211862   2.997   1.612   1.813
 3736SOL     OW11863   2.684   1.002   3.234
 3736SOL    HW111864   2.724   1.001   3.142
 3736SOL    HW211865   2.694   1.094   3.274
 3737SOL     OW11866   2.778   0.910   2.153
 3737SOL    HW111867   2.841   0.948   2.085
 3737SOL    HW211868   2.818   0.827   2.192
 3738SOL     OW11869   3.366   1.607   1.906
 3738SOL    HW111870   3.274   1.644   1.913
 3738SOL    HW211871   3.404   1.627   1.816
 3739SOL     OW11872   2.234   1.288   3.352
 3739SOL    HW111873   2.221   1.381   3.318
 3739SOL    HW211874   2.150   1.236   3.339
 3740SOL     OW11875   3.476   1.292   3.151
 3740SOL    HW111876   3.536   1.295   3.231
 3740SOL    HW211877   3.401   1.356   3.164
 3741SOL     OW11878   2.901   1.098   2.558
 3741SOL    HW111879   2.831   1.051   2.612
 3741SOL    HW211880   2.960   1.030   2.515
 3742SOL     OW11881   2.876   0.236   2.833
 3742SOL    HW111882   2.868   0.200   2.740
 3742SOL    HW211883   2.874   0.160   2.898
 3743SOL     OW11884   2.452   1.487   2.353
 3743SOL    HW111885   2.494   1.429   2.283
 3743SOL    HW211886   2.408   1.566   2.309
 3744SOL     OW11887   3.571   0.385   3.243
 3744SOL    HW111888   3.644   0.454   3.247
 3744SOL    HW211889   3.599   0.310   3.184
 3745SOL     OW11890   2.117   1.348   2.152
 3745SOL    HW111891   2.021   1.349   2.125
 3745SOL    HW211892   2.129   1.401   2.236
 3746SOL     OW11893   1.967   1.013   3.588
 3746SOL    HW111894   1.890   0.980   3.642
 3746SOL    HW211895   2.052   0.983   3.630
 3747SOL     OW11896   2.534   0.203   3.351
 3747SOL    HW111897   2.624   0.187   3.311
 3747SOL    HW211898   2.542   0.208   3.450
 3748SOL     OW11899   1.937   0.345   1.895
 3748SOL    HW111900   1.845   0.317   1.866
 3748SOL    HW211901   1.968   0.422   1.839
 3749SOL     OW11902   3.302   0.856   3.260
 3749SOL    HW111903   3.245   0.908   3.197
 3749SOL    HW211904   3.398   0.868   3.236
 3750SOL     OW11905   1.934   0.166   2.180
 3750SOL    HW111906   1.917   0.249   2.126
 3750SOL    HW211907   2.024   0.129   2.158
 3751SOL     OW11908   3.045   1.335   1.981
 3751SOL    HW111909   2.946   1.324   1.983
 3751SOL    HW211910   3.079   1.350   2.074
 3752SOL     OW11911   2.475   0.842   3.293
 3752SOL    HW111912   2.531   0.923   3.276
 3752SOL    HW211913   2.534   0.762   3.296
 3753SOL     OW11914   3.355   1.767   2.821
 3753SOL    HW111915   3.388   1.831   2.752
 3753SOL    HW211916   3.421   1.761   2.896
 3754SOL     OW11917   2.578   0.565   3.570
 3754SOL    HW111918   2.597   0.630   3.644
 3754SOL    HW211919   2.638   0.485   3.579
 3755SOL     OW11920   3.312   1.220   3.495
 3755SOL    HW111921   3.303   1.210   3.594
 3755SOL    HW211922   3.408   1.213   3.469
 3756SOL     OW11923   2.252   1.741   3.422
 3756SOL    HW111924   2.161   1.782   3.420
 3756SOL    HW211925   2.245   1.647   3.454
 3757SOL     OW11926   3.536   0.883   3.116
 3757SOL    HW111927   3.509   0.794   3.079
 3757SOL    HW211928   3.537   0.951   3.043
 3758SOL     OW11929   3.087   0.325   2.311
 3758SOL    HW111930   3.152   0.251   2.300
 3758SOL    HW211931   3.107   0.375   2.395
 3759SOL     OW11932   2.456   0.745   2.514
 3759SOL    HW111933   2.506   0.830   2.495
 3759SOL    HW211934   2.368   0.747   2.466
 3760SOL     OW11935   3.639   0.342   3.504
 3760SOL    HW111936   3.622   0.373   3.410
 3760SOL    HW211937   3.555   0.305   3.542
 3761SOL     OW11938   3.592   0.934   3.379
 3761SOL    HW111939   3.630   1.025   3.394
 3761SOL    HW211940   3.584   0.917   3.280
 3762SOL     OW11941   2.721   1.374   1.878
 3762SOL    HW111942   2.675   1.389   1.966
 3762SOL    HW211943   2.765   1.459   1.848
 3763SOL     OW11944   2.523   1.790   2.815
 3763SOL    HW111945   2.477   1.878   2.802
 3763SOL    HW211946   2.622   1.802   2.808
 3764SOL     OW11947   2.721   0.956   2.723
 3764SOL    HW111948   2.775   0.887   2.771
 3764SOL    HW211949   2.689   1.025   2.789
 3765SOL     OW11950   2.945   0.984   1.949
 3765SOL    HW111951   2.922   1.037   1.867
 3765SOL    HW211952   3.026   0.928   1.930
 3766SOL     OW11953   3.723   1.569   2.713
 3766SOL    HW111954   3.652   1.557   2.643
 3766SOL    HW211955   3.724   1.490   2.773
 3767SOL     OW11956   2.083   1.314   3.706
 3767SOL    HW111957   2.018   1.241   3.685
 3767SOL    HW211958   2.087   1.328   3.804
 3768SOL     OW11959   1.941   1.240   2.515
 3768SOL    HW111960   1.940   1.193   2.603
 3768SOL    HW211961   2.023   1.212   2.464
 3769SOL     OW11962   2.534   1.391   3.486
 3769SOL    HW111963   2.456   1.341   3.524
 3769SOL    HW211964   2.531   1.486   3.517
 3770SOL     OW11965   3.686   0.192   3.089
 3770SOL    HW111966   3.682   0.102   3.133
 3770SOL    HW211967   3.689   0.181   2.990
 3771SOL     OW11968   2.290   0.424   2.382
 3771SOL    HW111969   2.320   0.352   2.320
 3771SOL    HW211970   2.251   0.384   2.465
 3772SOL     OW11971   3.567   1.487   2.966
 3772SOL    HW111972   3.474   1.462   2.939
 3772SOL    HW211973   3.593   1.437   3.048
 3773SOL     OW11974   2.179   0.547   3.142
 3773SOL    HW111975   2.217   0.488   3.214
 3773SOL    HW211976   2.219   0.521   3.054
 3774SOL     OW11977   2.674   1.586   2.549
 3774SOL    HW111978   2.706   1.596   2.455
 3774SOL    HW211979   2.595   1.524   2.551
 3775SOL     OW11980   3.286   0.214   2.974
 3775SOL    HW111981   3.338   0.149   3.029
 3775SOL    HW211982   3.237   0.277   3.035
 3776SOL     OW11983   2.863   0.034   3.016
 3776SOL    HW111984   2.800  -0.038   2.985
 3776SOL    HW211985   2.956  -0.002   3.016
 3777SOL     OW11986   2.632   1.330   2.163
 3777SOL    HW111987   2.586   1.243   2.180
 3777SOL    HW211988   2.723   1.327   2.204
 3778SOL     OW11989   2.480   1.567   3.146
 3778SOL    HW111990   2.475   1.649   3.203
 3778SOL    HW211991   2.569   1.564   3.101
 3779SOL     OW11992   3.214   0.052   2.030
 3779SOL    HW111993   3.249   0.011   1.946
 3779SOL    HW211994   3.124   0.014   2.050
 3780SOL     OW11995   3.162   0.453   2.553
 3780SOL    HW111996   3.103   0.533   2.557
 3780SOL    HW211997   3.177   0.418   2.646
 3781SOL     OW11998   3.455   0.221   2.744
 3781SOL    HW111999   3.371   0.220   2.798
 3781SOL    HW212000   3.457   0.304   2.688
 3782SOL     OW12001   1.901   1.077   2.162
 3782SOL    HW112002   2.000   1.066   2.153
 3782SOL    HW212003   1.861   0.991   2.194
 3783SOL     OW12004   2.737   1.646   2.199
 3783SOL    HW112005   2.660   1.611   2.145
 3783SOL    HW212006   2.705   1.717   2.261
 3784SOL     OW12007   2.092   0.628   3.837
 3784SOL    HW112008   1.999   0.626   3.874
 3784SOL    HW212009   2.093   0.589   3.745
 3785SOL     OW12010   2.087   0.275   4.720
 3785SOL    HW112011   2.122   0.258   4.812
 3785SOL    HW212012   1.999   0.230   4.708
 3786SOL     OW12013   1.881   0.368   4.371
 3786SOL    HW112014   1.799   0.411   4.410
 3786SOL    HW212015   1.853   0.295   4.308
 3787SOL     OW12016   2.431   1.275   4.889
 3787SOL    HW112017   2.338   1.268   4.852
 3787SOL    HW212018   2.442   1.364   4.933
 3788SOL     OW12019   3.417   1.511   4.427
 3788SOL    HW112020   3.360   1.495   4.508
 3788SOL    HW212021   3.358   1.521   4.347
 3789SOL     OW12022   2.997   0.703   4.441
 3789SOL    HW112023   3.054   0.781   4.416
 3789SOL    HW212024   2.937   0.729   4.517
 3790SOL     OW12025   3.617   0.607   3.955
 3790SOL    HW112026   3.605   0.594   3.856
 3790SOL    HW212027   3.587   0.526   4.004
 3791SOL     OW12028   2.630   1.144   4.747
 3791SOL    HW112029   2.552   1.161   4.807
 3791SOL    HW212030   2.664   1.231   4.711
 3792SOL     OW12031   2.712   0.798   5.547
 3792SOL    HW112032   2.708   0.874   5.612
 3792SOL    HW212033   2.734   0.834   5.456
 3793SOL     OW12034   2.547   1.012   4.389
 3793SOL    HW112035   2.616   0.996   4.459
 3793SOL    HW212036   2.474   1.069   4.427
 3794SOL     OW12037   2.548   1.161   5.527
 3794SOL    HW112038   2.608   1.240   5.541
 3794SOL    HW212039   2.462   1.192   5.486
 3795SOL     OW12040   2.197   1.435   4.785
 3795SOL    HW112041   2.119   1.404   4.732
 3795SOL    HW212042   2.255   1.493   4.728
 3796SOL     OW12043   3.322   1.505   5.063
 3796SOL    HW112044   3.346   1.599   5.089
 3796SOL    HW212045   3.306   1.451   5.145
 3797SOL     OW12046   2.300   0.392   5.223
 3797SOL    HW112047   2.382   0.336   5.232
 3797SOL    HW212048   2.219   0.334   5.227
 3798SOL     OW12049   3.465   0.447   4.461
 3798SOL    HW112050   3.391   0.493   4.411
 3798SOL    HW212051   3.516   0.515   4.514
 3799SOL     OW12052   2.989   1.341   5.414
 3799SOL    HW112053   3.036   1.341   5.502
 3799SOL    HW212054   2.941   1.254   5.403
 3800SOL     OW12055   2.092   1.434   4.262
 3800SOL    HW112056   2.066   1.530   4.262
 3800SOL    HW212057   2.021   1.380   4.307
 3801SOL     OW12058   2.102   1.091   4.610
 3801SOL    HW112059   2.116   1.007   4.662
 3801SOL    HW212060   2.047   1.155   4.665
 3802SOL     OW12061   2.482   1.786   5.163
 3802SOL    HW112062   2.390   1.769   5.198
 3802SOL    HW212063   2.510   1.878   5.189
 3803SOL     OW12064   2.468   0.964   3.847
 3803SOL    HW112065   2.475   1.048   3.793
 3803SOL    HW212066   2.514   0.977   3.935
 3804SOL     OW12067   3.456   0.114   5.204
 3804SOL    HW112068   3.438   0.181   5.132
 3804SOL    HW212069   3.453   0.160   5.293
 3805SOL     OW12070   1.984   0.643   4.287
 3805SOL    HW112071   1.939   0.555   4.304
 3805SOL    HW212072   1.983   0.697   4.371
 3806SOL     OW12073   3.704   1.767   4.083
 3806SOL    HW112074   3.758   1.738   4.163
 3806SOL    HW212075   3.734   1.857   4.054
 3807SOL     OW12076   1.889   1.596   3.841
 3807SOL    HW112077   1.870   1.500   3.862
 3807SOL    HW212078   1.856   1.654   3.916
 3808SOL     OW12079   3.551   0.922   4.336
 3808SOL    HW112080   3.646   0.893   4.344
 3808SOL    HW212081   3.543   0.987   4.261
 3809SOL     OW12082   3.503   1.108   4.156
 3809SOL    HW112083   3.589   1.110   4.104
 3809SOL    HW212084   3.517   1.155   4.244
 3810SOL     OW12085   1.975   0.737   5.321
 3810SOL    HW112086   2.063   0.724   5.366
 3810SOL    HW212087   1.962   0.834   5.299
 3811SOL     OW12088   2.475   1.365   4.450
 3811SOL    HW112089   2.426   1.278   4.459
 3811SOL    HW212090   2.452   1.408   4.363
 3812SOL     OW12091   3.155   1.228   5.147
 3812SOL    HW112092   3.192   1.155   5.089
 3812SOL    HW212093   3.207   1.233   5.232
 3813SOL     OW12094   2.671   0.004   4.226
 3813SOL    HW112095   2.711   0.095   4.217
 3813SOL    HW212096   2.571   0.012   4.232
 3814SOL     OW12097   2.059   0.976   4.988
 3814SOL    HW112098   2.148   0.931   4.974
 3814SOL    HW212099   1.986   0.911   4.969
 3815SOL     OW12100   3.387   0.999   3.914
 3815SOL    HW112101   3.324   0.923   3.927
 3815SOL    HW212102   3.435   1.017   4.000
 3816SOL     OW12103   3.049   1.792   5.340
 3816SOL    HW112104   3.073   1.852   5.264
 3816SOL    HW212105   3.056   1.697   5.310
 3817SOL     OW12106   2.179   0.251   5.525
 3817SOL    HW112107   2.250   0.322   5.531
 3817SOL    HW212108   2.091   0.290   5.553
 3818SOL     OW12109   3.328   1.417   4.677
 3818SOL    HW112110   3.269   1.423   4.757
 3818SOL    HW212111   3.313   1.329   4.631
 3819SOL     OW12112   3.529   1.714   4.296
 3819SOL    HW112113   3.488   1.691   4.208
 3819SOL    HW212114   3.511   1.640   4.361
 3820SOL     OW12115   2.460   0.729   3.994
 3820SOL    HW112116   2.484   0.798   3.926
 3820SOL    HW212117   2.382   0.762   4.048
 3821SOL     OW12118   3.143   0.345   4.668
 3821SOL    HW112119   3.057   0.295   4.655
 3821SOL    HW212120   3.205   0.291   4.724
 3822SOL     OW12121   3.438   1.662   4.031
 3822SOL    HW112122   3.527   1.708   4.034
 3822SOL    HW212123   3.417   1.638   3.936
 3823SOL     OW12124   2.669   0.605   5.189
 3823SOL    HW112125   2.622   0.602   5.278
 3823SOL    HW212126   2.618   0.550   5.123
 3824SOL     OW12127   3.256   0.469   5.398
 3824SOL    HW112128   3.236   0.512   5.486
 3824SOL    HW212129   3.334   0.407   5.407
 3825SOL     OW12130   2.835   0.890   5.296
 3825SOL    HW112131   2.881   0.806   5.267
 3825SOL    HW212132   2.779   0.924   5.221
 3826SOL     OW12133   2.853   0.410   4.966
 3826SOL    HW112134   2.776   0.444   5.020
 3826SOL    HW212135   2.819   0.359   4.887
 3827SOL     OW12136   2.903   0.701   4.153
 3827SOL    HW112137   2.929   0.697   4.249
 3827SOL    HW212138   2.818   0.650   4.139
 3828SOL     OW12139   1.938   0.811   4.513
 3828SOL    HW112140   2.037   0.799   4.522
 3828SOL    HW212141   1.914   0.906   4.534
 3829SOL     OW12142   2.727   0.348   3.919
 3829SOL    HW112143   2.786   0.411   3.870
 3829SOL    HW212144   2.746   0.254   3.890
 3830SOL     OW12145   3.581   0.585   5.555
 3830SOL    HW112146   3.555   0.674   5.519
 3830SOL    HW212147   3.579   0.517   5.482
 3831SOL     OW12148   3.224   1.144   4.269
 3831SOL    HW112149   3.307   1.115   4.221
 3831SOL    HW212150   3.175   1.211   4.213
 3832SOL     OW12151   2.412   0.196   4.609
 3832SOL    HW112152   2.407   0.191   4.709
 3832SOL    HW212153   2.414   0.292   4.580
 3833SOL     OW12154   2.870   1.456   4.201
 3833SOL    HW112155   2.824   1.528   4.149
 3833SOL    HW212156   2.866   1.476   4.299
 3834SOL     OW12157   3.657   1.066   4.597
 3834SOL    HW112158   3.595   1.051   4.521
 3834SOL    HW212159   3.605   1.077   4.682
 3835SOL     OW12160   3.089   1.550   5.230
 3835SOL    HW112161   3.095   1.473   5.294
 3835SOL    HW212162   3.037   1.524   5.150
 3836SOL     OW12163   2.183   0.943   3.966
 3836SOL    HW112164   2.265   0.982   3.924
 3836SOL    HW212165   2.156   0.861   3.917
 3837SOL     OW12166   3.320   0.735   4.452
 3837SOL    HW112167   3.315   0.670   4.527
 3837SOL    HW212168   3.400   0.794   4.465
 3838SOL     OW12169   2.323   1.266   5.451
 3838SOL    HW112170   2.273   1.267   5.365
 3838SOL    HW212171   2.260   1.248   5.527
 3839SOL     OW12172   2.973   1.776   3.961
 3839SOL    HW112173   2.913   1.714   4.011
 3839SOL    HW212174   3.004   1.732   3.876
 3840SOL     OW12175   2.064   0.285   5.222
 3840SOL    HW112176   1.984   0.345   5.209
 3840SOL    HW212177   2.054   0.236   5.308
 3841SOL     OW12178   3.494   1.377   3.805
 3841SOL    HW112179   3.462   1.471   3.795
 3841SOL    HW212180   3.418   1.314   3.793
 3842SOL     OW12181   2.326   1.743   4.047
 3842SOL    HW112182   2.359   1.782   4.133
 3842SOL    HW212183   2.402   1.736   3.982
 3843SOL     OW12184   3.262   0.107   4.150
 3843SOL    HW112185   3.238   0.070   4.060
 3843SOL    HW212186   3.361   0.123   4.154
 3844SOL     OW12187   2.802   1.698   4.628
 3844SOL    HW112188   2.882   1.641   4.649
 3844SOL    HW212189   2.753   1.658   4.551
 3845SOL     OW12190   2.244   0.700   4.204
 3845SOL    HW112191   2.289   0.610   4.201
 3845SOL    HW212192   2.150   0.689   4.237
 3846SOL     OW12193   3.409   0.222   5.453
 3846SOL    HW112194   3.404   0.259   5.545
 3846SOL    HW212195   3.337   0.153   5.441
 3847SOL     OW12196   2.476   0.122   3.841
 3847SOL    HW112197   2.574   0.100   3.848
 3847SOL    HW212198   2.445   0.105   3.748
 3848SOL     OW12199   2.643   0.264   5.473
 3848SOL    HW112200   2.710   0.203   5.516
 3848SOL    HW212201   2.570   0.283   5.538
 3849SOL     OW12202   2.750   1.514   4.919
 3849SOL    HW112203   2.727   1.489   4.825
 3849SOL    HW212204   2.811   1.445   4.958
 3850SOL     OW12205   3.213   0.590   5.157
 3850SOL    HW112206   3.241   0.547   5.242
 3850SOL    HW212207   3.238   0.686   5.158
 3851SOL     OW12208   2.665   1.402   4.648
 3851SOL    HW112209   2.755   1.416   4.606
 3851SOL    HW212210   2.594   1.404   4.577
 3852SOL     OW12211   2.784   0.503   4.623
 3852SOL    HW112212   2.759   0.494   4.527
 3852SOL    HW212213   2.832   0.421   4.654
 3853SOL     OW12214   2.401   0.064   4.236
 3853SOL    HW112215   2.320   0.065   4.294
 3853SOL    HW212216   2.404   0.147   4.181
 3854SOL     OW12217   3.296   1.188   3.765
 3854SOL    HW112218   3.328   1.112   3.822
 3854SOL    HW212219   3.204   1.215   3.795
 3855SOL     OW12220   2.159   0.035   3.895
 3855SOL    HW112221   2.208   0.119   3.874
 3855SOL    HW212222   2.221  -0.030   3.940
 3856SOL     OW12223   2.797   0.236   4.204
 3856SOL    HW112224   2.749   0.277   4.126
 3856SOL    HW212225   2.896   0.234   4.185
 3857SOL     OW12226   2.938   0.683   5.188
 3857SOL    HW112227   2.858   0.622   5.191
 3857SOL    HW212228   3.019   0.630   5.164
 3858SOL     OW12229   3.089   1.570   4.517
 3858SOL    HW112230   3.110   1.644   4.452
 3858SOL    HW212231   3.157   1.570   4.590
 3859SOL     OW12232   2.321   1.152   4.465
 3859SOL    HW112233   2.250   1.125   4.530
 3859SOL    HW212234   2.295   1.124   4.372
 3860SOL     OW12235   3.133   1.797   4.315
 3860SOL    HW112236   3.177   1.861   4.251
 3860SOL    HW212237   3.083   1.849   4.385
 3861SOL     OW12238   2.894   0.549   3.740
 3861SOL    HW112239   2.853   0.631   3.701
 3861SOL    HW212240   2.958   0.575   3.813
 3862SOL     OW12241   1.940   0.556   5.110
 3862SOL    HW112242   2.032   0.555   5.069
 3862SOL    HW212243   1.934   0.630   5.177
 3863SOL     OW12244   2.423   0.222   4.871
 3863SOL    HW112245   2.461   0.138   4.908
 3863SOL    HW212246   2.335   0.241   4.915
 3864SOL     OW12247   2.728   0.454   4.366
 3864SOL    HW112248   2.696   0.526   4.304
 3864SOL    HW212249   2.752   0.373   4.313
 3865SOL     OW12250   2.879   0.039   4.477
 3865SOL    HW112251   2.807   0.044   4.408
 3865SOL    HW212252   2.855  -0.030   4.546
 3866SOL     OW12253   3.291   1.173   4.591
 3866SOL    HW112254   3.236   1.089   4.584
 3866SOL    HW212255   3.317   1.202   4.499
 3867SOL     OW12256   3.328   0.590   4.716
 3867SOL    HW112257   3.298   0.495   4.723
 3867SOL    HW212258   3.401   0.606   4.782
 3868SOL     OW12259   3.719   0.833   4.101
 3868SOL    HW112260   3.761   0.769   4.165
 3868SOL    HW212261   3.681   0.782   4.023
 3869SOL     OW12262   2.350   1.385   3.898
 3869SOL    HW112263   2.263   1.370   3.945
 3869SOL    HW212264   2.333   1.411   3.803
 3870SOL     OW12265   3.526   1.280   4.381
 3870SOL    HW112266   3.625   1.288   4.395
 3870SOL    HW212267   3.481   1.364   4.412
 3871SOL     OW12268   3.252   0.575   3.802
 3871SOL    HW112269   3.198   0.554   3.883
 3871SOL    HW212270   3.343   0.534   3.811
 3872SOL     OW12271   2.389   0.256   4.052
 3872SOL    HW112272   2.416   0.197   3.977
 3872SOL    HW212273   2.389   0.351   4.021
 3873SOL     OW12274   3.616   1.223   5.312
 3873SOL    HW112275   3.707   1.184   5.299
 3873SOL    HW212276   3.624   1.319   5.336
 3874SOL     OW12277   2.926   1.347   5.064
 3874SOL    HW112278   2.846   1.324   5.119
 3874SOL    HW212279   3.009   1.321   5.113
 3875SOL     OW12280   3.454   1.629   5.349
 3875SOL    HW112281   3.481   1.663   5.259
 3875SOL    HW212282   3.533   1.591   5.395
 3876SOL     OW12283   2.973   1.195   4.824
 3876SOL    HW112284   2.933   1.239   4.905
 3876SOL    HW212285   2.932   1.232   4.741
 3877SOL     OW12286   3.500   1.099   4.803
 3877SOL    HW112287   3.505   1.180   4.862
 3877SOL    HW212288   3.414   1.101   4.752
 3878SOL     OW12289   2.777   0.089   5.126
 3878SOL    HW112290   2.802   0.069   5.031
 3878SOL    HW212291   2.849   0.145   5.168
 3879SOL     OW12292   2.842   1.116   5.443
 3879SOL    HW112293   2.743   1.122   5.453
 3879SOL    HW212294   2.865   1.036   5.387
 3880SOL     OW12295   2.567   1.050   4.092
 3880SOL    HW112296   2.553   1.057   4.191
 3880SOL    HW212297   2.651   0.999   4.074
 3881SOL     OW12298   2.272   0.813   4.975
 3881SOL    HW112299   2.358   0.825   5.025
 3881SOL    HW212300   2.230   0.726   5.002
 3882SOL     OW12301   3.136   0.386   4.986
 3882SOL    HW112302   3.157   0.460   5.050
 3882SOL    HW212303   3.047   0.403   4.943
 3883SOL     OW12304   2.229   1.100   4.225
 3883SOL    HW112305   2.222   1.183   4.169
 3883SOL    HW212306   2.233   1.020   4.165
 3884SOL     OW12307   2.428   0.537   4.589
 3884SOL    HW112308   2.440   0.603   4.515
 3884SOL    HW212309   2.474   0.571   4.672
 3885SOL     OW12310   3.114   1.348   4.112
 3885SOL    HW112311   3.164   1.425   4.152
 3885SOL    HW212312   3.019   1.350   4.144
 3886SOL     OW12313   3.134   1.445   4.866
 3886SOL    HW112314   3.181   1.458   4.953
 3886SOL    HW212315   3.068   1.371   4.875
 3887SOL     OW12316   3.444   0.639   4.196
 3887SOL    HW112317   3.413   0.700   4.269
 3887SOL    HW212318   3.494   0.691   4.127
 3888SOL     OW12319   2.216   1.510   5.053
 3888SOL    HW112320   2.195   1.466   4.966
 3888SOL    HW212321   2.313   1.536   5.056
 3889SOL     OW12322   2.264   0.751   5.322
 3889SOL    HW112323   2.332   0.806   5.275
 3889SOL    HW212324   2.304   0.663   5.349
 3890SOL     OW12325   3.449   0.779   5.394
 3890SOL    HW112326   3.357   0.817   5.389
 3890SOL    HW212327   3.509   0.826   5.329
 3891SOL     OW12328   2.875   0.105   5.494
 3891SOL    HW112329   2.881   0.190   5.442
 3891SOL    HW212330   2.907   0.029   5.437
 3892SOL     OW12331   2.366   0.050   5.464
 3892SOL    HW112332   2.324  -0.007   5.394
 3892SOL    HW212333   2.300   0.119   5.496
 3893SOL     OW12334   2.435   0.870   4.753
 3893SOL    HW112335   2.479   0.959   4.744
 3893SOL    HW212336   2.372   0.870   4.830
 3894SOL     OW12337   3.222   0.862   4.769
 3894SOL    HW112338   3.147   0.862   4.703
 3894SOL    HW212339   3.259   0.770   4.778
 3895SOL     OW12340   3.071   0.525   3.999
 3895SOL    HW112341   3.084   0.441   4.053
 3895SOL    HW212342   3.042   0.599   4.059
 3896SOL     OW12343   2.169   0.213   4.955
 3896SOL    HW112344   2.146   0.250   5.045
 3896SOL    HW212345   2.139   0.118   4.949
 3897SOL     OW12346   1.899   1.310   5.006
 3897SOL    HW112347   1.952   1.261   5.074
 3897SOL    HW212348   1.921   1.408   5.011
 3898SOL     OW12349   2.594   0.634   4.788
 3898SOL    HW112350   2.653   0.608   4.712
 3898SOL    HW212351   2.566   0.730   4.777
 3899SOL     OW12352   3.590   0.935   5.578
 3899SOL    HW112353   3.544   0.928   5.489
 3899SOL    HW212354   3.528   0.979   5.644
 3900SOL     OW12355   2.169   0.063   4.342
 3900SOL    HW112356   2.158   0.157   4.375
 3900SOL    HW212357   2.164   0.000   4.419
 3901SOL     OW12358   3.484   0.367   4.098
 3901SOL    HW112359   3.486   0.291   4.162
 3901SOL    HW212360   3.436   0.444   4.138
 3902SOL     OW12361   2.885   0.766   4.690
 3902SOL    HW112362   2.900   0.787   4.786
 3902SOL    HW212363   2.855   0.671   4.681
 3903SOL     OW12364   2.842   1.573   5.424
 3903SOL    HW112365   2.822   1.617   5.336
 3903SOL    HW212366   2.881   1.482   5.408
 3904SOL     OW12367   3.721   1.518   5.329
 3904SOL    HW112368   3.735   1.545   5.234
 3904SOL    HW212369   3.804   1.540   5.382
 3905SOL     OW12370   2.212   0.898   5.528
 3905SOL    HW112371   2.288   0.942   5.576
 3905SOL    HW212372   2.247   0.851   5.446
 3906SOL     OW12373   3.402   0.274   3.849
 3906SOL    HW112374   3.341   0.199   3.872
 3906SOL    HW212375   3.424   0.326   3.932
 3907SOL     OW12376   3.165   0.838   3.766
 3907SOL    HW112377   3.199   0.745   3.781
 3907SOL    HW212378   3.183   0.865   3.671
 3908SOL     OW12379   2.930   1.333   4.573
 3908SOL    HW112380   2.937   1.249   4.518
 3908SOL    HW212381   2.992   1.402   4.537
 3909SOL     OW12382   2.181   0.810   4.673
 3909SOL    HW112383   2.274   0.846   4.678
 3909SOL    HW212384   2.175   0.725   4.725
 3910SOL     OW12385   2.201   0.509   4.730
 3910SOL    HW112386   2.149   0.426   4.713
 3910SOL    HW212387   2.278   0.514   4.666
 3911SOL     OW12388   3.000   0.380   5.402
 3911SOL    HW112389   2.955   0.443   5.466
 3911SOL    HW212390   3.093   0.411   5.385
 3912SOL     OW12391   3.022   0.207   5.201
 3912SOL    HW112392   3.022   0.271   5.278
 3912SOL    HW212393   3.050   0.255   5.118
 3913SOL     OW12394   1.870   1.326   3.924
 3913SOL    HW112395   1.777   1.347   3.893
 3913SOL    HW212396   1.880   1.227   3.937
 3914SOL     OW12397   2.366   1.568   4.634
 3914SOL    HW112398   2.432   1.642   4.643
 3914SOL    HW212399   2.410   1.489   4.592
 3915SOL     OW12400   2.864   0.796   4.962
 3915SOL    HW112401   2.905   0.764   5.048
 3915SOL    HW212402   2.768   0.769   4.959
 3916SOL     OW12403   1.902   0.544   4.838
 3916SOL    HW112404   1.987   0.511   4.797
 3916SOL    HW212405   1.915   0.559   4.936
 3917SOL     OW12406   2.051   0.520   5.446
 3917SOL    HW112407   2.110   0.480   5.376
 3917SOL    HW212408   1.993   0.591   5.405
 3918SOL     OW12409   3.231   0.950   5.384
 3918SOL    HW112410   3.270   1.039   5.404
 3918SOL    HW212411   3.241   0.930   5.287
 3919SOL     OW12412   2.677   0.572   4.049
 3919SOL    HW112413   2.684   0.483   4.003
 3919SOL    HW212414   2.583   0.606   4.041
 3920SOL     OW12415   3.519   0.604   4.930
 3920SOL    HW112416   3.481   0.535   4.992
 3920SOL    HW212417   3.601   0.568   4.886
 3921SOL     OW12418   2.114   1.564   5.468
 3921SOL    HW112419   2.084   1.621   5.544
 3921SOL    HW212420   2.107   1.467   5.494
 3922SOL     OW12421   2.533   0.464   4.993
 3922SOL    HW112422   2.499   0.375   4.963
 3922SOL    HW212423   2.559   0.518   4.913
 3923SOL     OW12424   2.792   1.678   5.189
 3923SOL    HW112425   2.768   1.660   5.094
 3923SOL    HW212426   2.822   1.772   5.199
 3924SOL     OW12427   2.335   0.500   3.915
 3924SOL    HW112428   2.396   0.580   3.919
 3924SOL    HW212429   2.240   0.531   3.922
 3925SOL     OW12430   2.021   1.137   5.190
 3925SOL    HW112431   2.043   1.076   5.266
 3925SOL    HW212432   2.031   1.088   5.104
 3926SOL     OW12433   3.209   1.059   4.958
 3926SOL    HW112434   3.233   0.996   4.884
 3926SOL    HW212435   3.119   1.099   4.940
 3927SOL     OW12436   3.164   0.855   4.033
 3927SOL    HW112437   3.078   0.824   4.075
 3927SOL    HW212438   3.160   0.841   3.934
 3928SOL     OW12439   3.621   1.747   4.878
 3928SOL    HW112440   3.682   1.777   4.805
 3928SOL    HW212441   3.583   1.658   4.856
 3929SOL     OW12442   3.114   1.731   4.852
 3929SOL    HW112443   3.198   1.736   4.798
 3929SOL    HW212444   3.091   1.635   4.870
 3930SOL     OW12445   1.945   1.258   4.746
 3930SOL    HW112446   1.940   1.257   4.846
 3930SOL    HW212447   1.862   1.217   4.708
 3931SOL     OW12448   2.550   1.662   5.440
 3931SOL    HW112449   2.494   1.743   5.449
 3931SOL    HW212450   2.602   1.666   5.354
 3932SOL     OW12451   3.588   0.135   4.247
 3932SOL    HW112452   3.661   0.118   4.180
 3932SOL    HW212453   3.557   0.048   4.285
 3933SOL     OW12454   3.250   1.573   4.201
 3933SOL    HW112455   3.317   1.585   4.127
 3933SOL    HW212456   3.210   1.662   4.224
 3934SOL     OW12457   3.142   0.927   4.396
 3934SOL    HW112458   3.202   0.846   4.398
 3934SOL    HW212459   3.182   0.996   4.336
 3935SOL     OW12460   2.692   1.273   5.146
 3935SOL    HW112461   2.687   1.306   5.241
 3935SOL    HW212462   2.606   1.292   5.100
 3936SOL     OW12463   2.534   1.616   3.878
 3936SOL    HW112464   2.543   1.626   3.779
 3936SOL    HW212465   2.494   1.527   3.899
 3937SOL     OW12466   3.512   1.720   5.118
 3937SOL    HW112467   3.565   1.730   5.034
 3937SOL    HW212468   3.485   1.810   5.152
 3938SOL     OW12469   3.703   0.175   4.687
 3938SOL    HW112470   3.742   0.090   4.651
 3938SOL    HW212471   3.605   0.177   4.668
 3939SOL     OW12472   2.125   0.326   4.444
 3939SOL    HW112473   2.046   0.377   4.410
 3939SOL    HW212474   2.116   0.311   4.542
 3940SOL     OW12475   3.056   1.612   3.755
 3940SOL    HW112476   3.062   1.519   3.792
 3940SOL    HW212477   2.997   1.612   3.675
 3941SOL     OW12478   2.684   1.002   5.096
 3941SOL    HW112479   2.724   1.001   5.004
 3941SOL    HW212480   2.694   1.094   5.136
 3942SOL     OW12481   2.778   0.910   4.015
 3942SOL    HW112482   2.841   0.948   3.947
 3942SOL    HW212483   2.818   0.827   4.054
 3943SOL     OW12484   3.366   1.607   3.768
 3943SOL    HW112485   3.274   1.644   3.775
 3943SOL    HW212486   3.404   1.627   3.678
 3944SOL     OW12487   2.234   1.288   5.214
 3944SOL    HW112488   2.221   1.381   5.180
 3944SOL    HW212489   2.150   1.236   5.201
 3945SOL     OW12490   3.476   1.292   5.013
 3945SOL    HW112491   3.536   1.295   5.093
 3945SOL    HW212492   3.401   1.356   5.026
 3946SOL     OW12493   2.901   1.098   4.420
 3946SOL    HW112494   2.831   1.051   4.474
 3946SOL    HW212495   2.960   1.030   4.377
 3947SOL     OW12496   2.876   0.236   4.695
 3947SOL    HW112497   2.868   0.200   4.602
 3947SOL    HW212498   2.874   0.160   4.760
 3948SOL     OW12499   2.452   1.487   4.215
 3948SOL    HW112500   2.494   1.429   4.145
 3948SOL    HW212501   2.408   1.566   4.171
 3949SOL     OW12502   3.571   0.385   5.105
 3949SOL    HW112503   3.644   0.454   5.109
 3949SOL    HW212504   3.599   0.310   5.046
 3950SOL     OW12505   2.117   1.348   4.014
 3950SOL    HW112506   2.021   1.349   3.987
 3950SOL    HW212507   2.129   1.401   4.098
 3951SOL     OW12508   1.967   1.013   5.450
 3951SOL    HW112509   1.890   0.980   5.504
 3951SOL    HW212510   2.052   0.983   5.492
 3952SOL     OW12511   2.534   0.203   5.213
 3952SOL    HW112512   2.624   0.187   5.173
 3952SOL    HW212513   2.542   0.208   5.312
 3953SOL     OW12514   1.937   0.345   3.757
 3953SOL    HW112515   1.845   0.317   3.728
 3953SOL    HW212516   1.968   0.422   3.701
 3954SOL     OW12517   3.302   0.856   5.122
 3954SOL    HW112518   3.245   0.908   5.059
 3954SOL    HW212519   3.398   0.868   5.098
 3955SOL     OW12520   1.934   0.166   4.042
 3955SOL    HW112521   1.917   0.249   3.988
 3955SOL    HW212522   2.024   0.129   4.020
 3956SOL     OW12523   3.045   1.335   3.843
 3956SOL    HW112524   2.946   1.324   3.845
 3956SOL    HW212525   3.079   1.350   3.936
 3957SOL     OW12526   2.475   0.842   5.155
 3957SOL    HW112527   2.531   0.923   5.138
 3957SOL    HW212528   2.534   0.762   5.158
 3958SOL     OW12529   3.355   1.767   4.683
 3958SOL    HW112530   3.388   1.831   4.614
 3958SOL    HW212531   3.421   1.761   4.758
 3959SOL     OW12532   2.578   0.565   5.432
 3959SOL    HW112533   2.597   0.630   5.506
 3959SOL    HW212534   2.638   0.485   5.441
 3960SOL     OW12535   3.312   1.220   5.357
 3960SOL    HW112536   3.303   1.210   5.456
 3960SOL    HW212537   3.408   1.213   5.331
 3961SOL     OW12538   2.252   1.741   5.284
 3961SOL    HW112539   2.161   1.782   5.282
 3961SOL    HW212540   2.245   1.647   5.316
 3962SOL     OW12541   3.536   0.883   4.978
 3962SOL    HW112542   3.509   0.794   4.941
 3962SOL    HW212543   3.537   0.951   4.905
 3963SOL     OW12544   3.087   0.325   4.173
 3963SOL    HW112545   3.152   0.251   4.162
 3963SOL    HW212546   3.107   0.375   4.257
 3964SOL     OW12547   2.456   0.745   4.376
 3964SOL    HW112548   2.506   0.830   4.357
 3964SOL    HW212549   2.368   0.747   4.328
 3965SOL     OW12550   3.639   0.342   5.366
 3965SOL    HW112551   3.622   0.373   5.272
 3965SOL    HW212552   3.555   0.305   5.404
 3966SOL     OW12553   3.592   0.934   5.241
 3966SOL    HW112554   3.630   1.025   5.256
 3966SOL    HW212555   3.584   0.917   5.142
 3967SOL     OW12556   2.721   1.374   3.740
 3967SOL    HW112557   2.675   1.389   3.828
 3967SOL    HW212558   2.765   1.459   3.710
 3968SOL     OW12559   2.523   1.790   4.677
 3968SOL    HW112560   2.477   1.878   4.664
 3968SOL    HW212561   2.622   1.802   4.670
 3969SOL     OW12562   2.721   0.956   4.585
 3969SOL    HW112563   2.775   0.887   4.633
 3969SOL    HW212564   2.689   1.025   4.651
 3970SOL     OW12565   2.945   0.984   3.811
 3970SOL    HW112566   2.922   1.037   3.729
 3970SOL    HW212567   3.026   0.928   3.792
 3971SOL     OW12568   3.723   1.569   4.575
 3971SOL    HW112569   3.652   1.557   4.505
 3971SOL    HW212570   3.724   1.490   4.635
 3972SOL     OW12571   2.083   1.314   5.568
 3972SOL    HW112572   2.018   1.241   5.547
 3972SOL    HW212573   2.087   1.328   5.666
 3973SOL     OW12574   1.941   1.240   4.377
 3973SOL    HW112575   1.940   1.193   4.465
 3973SOL    HW212576   2.023   1.212   4.326
 3974SOL     OW12577   2.534   1.391   5.348
 3974SOL    HW112578   2.456   1.341   5.386
 3974SOL    HW212579   2.531   1.486   5.379
 3975SOL     OW12580   3.686   0.192   4.951
 3975SOL    HW112581   3.682   0.102   4.995
 3975SOL    HW212582   3.689   0.181   4.852
 3976SOL     OW12583   2.290   0.424   4.244
 3976SOL    HW112584   2.320   0.352   4.182
 3976SOL    HW212585   2.251   0.384   4.327
 3977SOL     OW12586   3.567   1.487   4.828
 3977SOL    HW112587   3.474   1.462   4.801
 3977SOL    HW212588   3.593   1.437   4.910
 3978SOL     OW12589   2.179   0.547   5.004
 3978SOL    HW112590   2.217   0.488   5.076
 3978SOL    HW212591   2.219   0.521   4.916
 3979SOL     OW12592   2.674   1.586   4.411
 3979SOL    HW112593   2.706   1.596   4.317
 3979SOL    HW212594   2.595   1.524   4.413
 3980SOL     OW12595   3.286   0.214   4.836
 3980SOL    HW112596   3.338   0.149   4.891
 3980SOL    HW212597   3.237   0.277   4.897
 3981SOL     OW12598   2.863   0.034   4.878
 3981SOL    HW112599   2.800  -0.038   4.847
 3981SOL    HW212600   2.956  -0.002   4.878
 3982SOL     OW12601   2.632   1.330   4.025
 3982SOL    HW112602   2.586   1.243   4.042
 3982SOL    HW212603   2.723   1.327   4.066
 3983SOL     OW12604   2.480   1.567   5.008
 3983SOL    HW112605   2.475   1.649   5.065
 3983SOL    HW212606   2.569   1.564   4.963
 3984SOL     OW12607   3.214   0.052   3.892
 3984SOL    HW112608   3.249   0.011   3.808
 3984SOL    HW212609   3.124   0.014   3.912
 3985SOL     OW12610   3.162   0.453   4.415
 3985SOL    HW112611   3.103   0.533   4.419
 3985SOL    HW212612   3.177   0.418   4.508
 3986SOL     OW12613   3.455   0.221   4.606
 3986SOL    HW112614   3.371   0.220   4.660
 3986SOL    HW212615   3.457   0.304   4.550
 3987SOL     OW12616   1.901   1.077   4.024
 3987SOL    HW112617   2.000   1.066   4.015
 3987SOL    HW212618   1.861   0.991   4.056
 3988SOL     OW12619   2.737   1.646   4.061
 3988SOL    HW112620   2.660   1.611   4.007
 3988SOL    HW212621   2.705   1.717   4.123
 3989SOL     OW12622   2.092   0.628   5.699
 3989SOL    HW112623   1.999   0.626   5.736
 3989SOL    HW212624   2.093   0.589   5.607
 3990SOL     OW12625   2.087   0.275   6.582
 3990SOL    HW112626   2.122   0.258   6.674
 3990SOL    HW212627   1.999   0.230   6.570
 3991SOL     OW12628   1.881   0.368   6.233
 3991SOL    HW112629   1.799   0.411   6.272
 3991SOL    HW212630   1.853   0.295   6.170
 3992SOL     OW12631   3.417   1.511   6.289
 3992SOL    HW112632   3.360   1.495   6.370
 3992SOL    HW212633   3.358   1.521   6.209
 3993SOL     OW12634   2.997   0.703   6.303
 3993SOL    HW112635   3.054   0.781   6.278
 3993SOL    HW212636   2.937   0.729   6.379
 3994SOL     OW12637   3.617   0.607   5.817
 3994SOL    HW112638   3.605   0.594   5.718
 3994SOL    HW212639   3.587   0.526   5.866
 3995SOL     OW12640   2.630   1.144   6.609
 3995SOL    HW112641   2.552   1.161   6.669
 3995SOL    HW212642   2.664   1.231   6.573
 3996SOL     OW12643   2.712   0.798   7.409
 3996SOL    HW112644   2.708   0.874   7.474
 3996SOL    HW212645   2.734   0.834   7.318
 3997SOL     OW12646   2.547   1.012   6.251
 3997SOL    HW112647   2.616   0.996   6.321
 3997SOL    HW212648   2.474   1.069   6.289
 3998SOL     OW12649   2.548   1.161   7.389
 3998SOL    HW112650   2.608   1.240   7.403
 3998SOL    HW212651   2.462   1.192   7.348
 3999SOL     OW12652   3.322   1.505   6.925
 3999SOL    HW112653   3.346   1.599   6.951
 3999SOL    HW212654   3.306   1.451   7.007
 4000SOL     OW12655   2.300   0.392   7.085
 4000SOL    HW112656   2.382   0.336   7.094
 4000SOL    HW212657   2.219   0.334   7.089
 4001SOL     OW12658   3.465   0.447   6.323
 4001SOL    HW112659   3.391   0.493   6.273
 4001SOL    HW212660   3.516   0.515   6.376
 4002SOL     OW12661   2.989   1.341   7.276
 4002SOL    HW112662   3.036   1.341   7.364
 4002SOL    HW212663   2.941   1.254   7.265
 4003SOL     OW12664   2.092   1.434   6.124
 4003SOL    HW112665   2.066   1.530   6.124
 4003SOL    HW212666   2.021   1.380   6.169
 4004SOL     OW12667   2.468   0.964   5.709
 4004SOL    HW112668   2.475   1.048   5.655
 4004SOL    HW212669   2.514   0.977   5.797
 4005SOL     OW12670   3.456   0.114   7.066
 4005SOL    HW112671   3.438   0.181   6.994
 4005SOL    HW212672   3.453   0.160   7.155
 4006SOL     OW12673   1.984   0.643   6.149
 4006SOL    HW112674   1.939   0.555   6.166
 4006SOL    HW212675   1.983   0.697   6.233
 4007SOL     OW12676   3.704   1.767   5.945
 4007SOL    HW112677   3.758   1.738   6.025
 4007SOL    HW212678   3.734   1.857   5.916
 4008SOL     OW12679   1.889   1.596   5.703
 4008SOL    HW112680   1.870   1.500   5.724
 4008SOL    HW212681   1.856   1.654   5.778
 4009SOL     OW12682   3.551   0.922   6.198
 4009SOL    HW112683   3.646   0.893   6.206
 4009SOL    HW212684   3.543   0.987   6.123
 4010SOL     OW12685   3.503   1.108   6.018
 4010SOL    HW112686   3.589   1.110   5.966
 4010SOL    HW212687   3.517   1.155   6.106
 4011SOL     OW12688   1.975   0.737   7.183
 4011SOL    HW112689   2.063   0.724   7.228
 4011SOL    HW212690   1.962   0.834   7.161
 4012SOL     OW12691   2.475   1.365   6.312
 4012SOL    HW112692   2.426   1.278   6.321
 4012SOL    HW212693   2.452   1.408   6.225
 4013SOL     OW12694   3.155   1.228   7.009
 4013SOL    HW112695   3.192   1.155   6.951
 4013SOL    HW212696   3.207   1.233   7.094
 4014SOL     OW12697   2.671   0.004   6.088
 4014SOL    HW112698   2.711   0.095   6.079
 4014SOL    HW212699   2.571   0.012   6.094
 4015SOL     OW12700   2.059   0.976   6.850
 4015SOL    HW112701   2.148   0.931   6.836
 4015SOL    HW212702   1.986   0.911   6.831
 4016SOL     OW12703   3.387   0.999   5.776
 4016SOL    HW112704   3.324   0.923   5.789
 4016SOL    HW212705   3.435   1.017   5.862
 4017SOL     OW12706   3.049   1.792   7.202
 4017SOL    HW112707   3.073   1.852   7.126
 4017SOL    HW212708   3.056   1.697   7.172
 4018SOL     OW12709   2.179   0.251   7.387
 4018SOL    HW112710   2.250   0.322   7.393
 4018SOL    HW212711   2.091   0.290   7.415
 4019SOL     OW12712   3.328   1.417   6.539
 4019SOL    HW112713   3.269   1.423   6.619
 4019SOL    HW212714   3.313   1.329   6.493
 4020SOL     OW12715   3.529   1.714   6.158
 4020SOL    HW112716   3.488   1.691   6.070
 4020SOL    HW212717   3.511   1.640   6.223
 4021SOL     OW12718   2.460   0.729   5.856
 4021SOL    HW112719   2.484   0.798   5.788
 4021SOL    HW212720   2.382   0.762   5.910
 4022SOL     OW12721   3.143   0.345   6.530
 4022SOL    HW112722   3.057   0.295   6.517
 4022SOL    HW212723   3.205   0.291   6.586
 4023SOL     OW12724   3.438   1.662   5.893
 4023SOL    HW112725   3.527   1.708   5.896
 4023SOL    HW212726   3.417   1.638   5.798
 4024SOL     OW12727   2.669   0.605   7.051
 4024SOL    HW112728   2.622   0.602   7.140
 4024SOL    HW212729   2.618   0.550   6.985
 4025SOL     OW12730   3.256   0.469   7.260
 4025SOL    HW112731   3.236   0.512   7.348
 4025SOL    HW212732   3.334   0.407   7.269
 4026SOL     OW12733   2.835   0.890   7.158
 4026SOL    HW112734   2.881   0.806   7.129
 4026SOL    HW212735   2.779   0.924   7.083
 4027SOL     OW12736   2.853   0.410   6.828
 4027SOL    HW112737   2.776   0.444   6.882
 4027SOL    HW212738   2.819   0.359   6.749
 4028SOL     OW12739   2.903   0.701   6.015
 4028SOL    HW112740   2.929   0.697   6.111
 4028SOL    HW212741   2.818   0.650   6.001
 4029SOL     OW12742   1.938   0.811   6.375
 4029SOL    HW112743   2.037   0.799   6.384
 4029SOL    HW212744   1.914   0.906   6.396
 4030SOL     OW12745   2.727   0.348   5.781
 4030SOL    HW112746   2.786   0.411   5.732
 4030SOL    HW212747   2.746   0.254   5.752
 4031SOL     OW12748   3.581   0.585   7.417
 4031SOL    HW112749   3.555   0.674   7.381
 4031SOL    HW212750   3.579   0.517   7.344
 4032SOL     OW12751   3.224   1.144   6.131
 4032SOL    HW112752   3.307   1.115   6.083
 4032SOL    HW212753   3.175   1.211   6.075
 4033SOL     OW12754   2.412   0.196   6.471
 4033SOL    HW112755   2.407   0.191   6.571
 4033SOL    HW212756   2.414   0.292   6.442
 4034SOL     OW12757   2.870   1.456   6.063
 4034SOL    HW112758   2.824   1.528   6.011
 4034SOL    HW212759   2.866   1.476   6.161
 4035SOL     OW12760   3.657   1.066   6.459
 4035SOL    HW112761   3.595   1.051   6.383
 4035SOL    HW212762   3.605   1.077   6.544
 4036SOL     OW12763   3.089   1.550   7.092
 4036SOL    HW112764   3.095   1.473   7.156
 4036SOL    HW212765   3.037   1.524   7.012
 4037SOL     OW12766   2.183   0.943   5.828
 4037SOL    HW112767   2.265   0.982   5.786
 4037SOL    HW212768   2.156   0.861   5.779
 4038SOL     OW12769   3.320   0.735   6.314
 4038SOL    HW112770   3.315   0.670   6.389
 4038SOL    HW212771   3.400   0.794   6.327
 4039SOL     OW12772   2.323   1.266   7.313
 4039SOL    HW112773   2.273   1.267   7.227
 4039SOL    HW212774   2.260   1.248   7.389
 4040SOL     OW12775   2.973   1.776   5.823
 4040SOL    HW112776   2.913   1.714   5.873
 4040SOL    HW212777   3.004   1.732   5.738
 4041SOL     OW12778   2.064   0.285   7.084
 4041SOL    HW112779   1.984   0.345   7.071
 4041SOL    HW212780   2.054   0.236   7.170
 4042SOL     OW12781   3.494   1.377   5.667
 4042SOL    HW112782   3.462   1.471   5.657
 4042SOL    HW212783   3.418   1.314   5.655
 4043SOL     OW12784   2.326   1.743   5.909
 4043SOL    HW112785   2.359   1.782   5.995
 4043SOL    HW212786   2.402   1.736   5.844
 4044SOL     OW12787   3.262   0.107   6.012
 4044SOL    HW112788   3.238   0.070   5.922
 4044SOL    HW212789   3.361   0.123   6.016
 4045SOL     OW12790   2.802   1.698   6.490
 4045SOL    HW112791   2.882   1.641   6.511
 4045SOL    HW212792   2.753   1.658   6.413
 4046SOL     OW12793   2.244   0.700   6.066
 4046SOL    HW112794   2.289   0.610   6.063
 4046SOL    HW212795   2.150   0.689   6.099
 4047SOL     OW12796   3.409   0.222   7.315
 4047SOL    HW112797   3.404   0.259   7.407
 4047SOL    HW212798   3.337   0.153   7.303
 4048SOL     OW12799   2.476   0.122   5.703
 4048SOL    HW112800   2.574   0.100   5.710
 4048SOL    HW212801   2.445   0.105   5.610
 4049SOL     OW12802   2.643   0.264   7.335
 4049SOL    HW112803   2.710   0.203   7.378
 4049SOL    HW212804   2.570   0.283   7.400
 4050SOL     OW12805   3.213   0.590   7.019
 4050SOL    HW112806   3.241   0.547   7.104
 4050SOL    HW212807   3.238   0.686   7.020
 4051SOL     OW12808   2.665   1.402   6.510
 4051SOL    HW112809   2.755   1.416   6.468
 4051SOL    HW212810   2.594   1.404   6.439
 4052SOL     OW12811   2.784   0.503   6.485
 4052SOL    HW112812   2.759   0.494   6.389
 4052SOL    HW212813   2.832   0.421   6.516
 4053SOL     OW12814   2.401   0.064   6.098
 4053SOL    HW112815   2.320   0.065   6.156
 4053SOL    HW212816   2.404   0.147   6.043
 4054SOL     OW12817   3.296   1.188   5.627
 4054SOL    HW112818   3.328   1.112   5.684
 4054SOL    HW212819   3.204   1.215   5.657
 4055SOL     OW12820   2.159   0.035   5.757
 4055SOL    HW112821   2.208   0.119   5.736
 4055SOL    HW212822   2.221  -0.030   5.802
 4056SOL     OW12823   2.797   0.236   6.066
 4056SOL    HW112824   2.749   0.277   5.988
 4056SOL    HW212825   2.896   0.234   6.047
 4057SOL     OW12826   2.938   0.683   7.050
 4057SOL    HW112827   2.858   0.622   7.053
 4057SOL    HW212828   3.019   0.630   7.026
 4058SOL     OW12829   3.089   1.570   6.379
 4058SOL    HW112830   3.110   1.644   6.314
 4058SOL    HW212831   3.157   1.570   6.452
 4059SOL     OW12832   2.321   1.152   6.327
 4059SOL    HW112833   2.250   1.125   6.392
 4059SOL    HW212834   2.295   1.124   6.234
 4060SOL     OW12835   3.133   1.797   6.177
 4060SOL    HW112836   3.177   1.861   6.113
 4060SOL    HW212837   3.083   1.849   6.247
 4061SOL     OW12838   2.894   0.549   5.602
 4061SOL    HW112839   2.853   0.631   5.563
 4061SOL    HW212840   2.958   0.575   5.675
 4062SOL     OW12841   1.940   0.556   6.972
 4062SOL    HW112842   2.032   0.555   6.931
 4062SOL    HW212843   1.934   0.630   7.039
 4063SOL     OW12844   2.423   0.222   6.733
 4063SOL    HW112845   2.461   0.138   6.770
 4063SOL    HW212846   2.335   0.241   6.777
 4064SOL     OW12847   2.728   0.454   6.228
 4064SOL    HW112848   2.696   0.526   6.166
 4064SOL    HW212849   2.752   0.373   6.175
 4065SOL     OW12850   2.879   0.039   6.339
 4065SOL    HW112851   2.807   0.044   6.270
 4065SOL    HW212852   2.855  -0.030   6.408
 4066SOL     OW12853   3.291   1.173   6.453
 4066SOL    HW112854   3.236   1.089   6.446
 4066SOL    HW212855   3.317   1.202   6.361
 4067SOL     OW12856   3.328   0.590   6.578
 4067SOL    HW112857   3.298   0.495   6.585
 4067SOL    HW212858   3.401   0.606   6.644
 4068SOL     OW12859   3.719   0.833   5.963
 4068SOL    HW112860   3.761   0.769   6.027
 4068SOL    HW212861   3.681   0.782   5.885
 4069SOL     OW12862   2.350   1.385   5.760
 4069SOL    HW112863   2.263   1.370   5.807
 4069SOL    HW212864   2.333   1.411   5.665
 4070SOL     OW12865   3.526   1.280   6.243
 4070SOL    HW112866   3.625   1.288   6.257
 4070SOL    HW212867   3.481   1.364   6.274
 4071SOL     OW12868   3.252   0.575   5.664
 4071SOL    HW112869   3.198   0.554   5.745
 4071SOL    HW212870   3.343   0.534   5.673
 4072SOL     OW12871   2.389   0.256   5.914
 4072SOL    HW112872   2.416   0.197   5.839
 4072SOL    HW212873   2.389   0.351   5.883
 4073SOL     OW12874   3.616   1.223   7.174
 4073SOL    HW112875   3.707   1.184   7.161
 4073SOL    HW212876   3.624   1.319   7.198
 4074SOL     OW12877   2.926   1.347   6.926
 4074SOL    HW112878   2.846   1.324   6.981
 4074SOL    HW212879   3.009   1.321   6.975
 4075SOL     OW12880   3.454   1.629   7.211
 4075SOL    HW112881   3.481   1.663   7.121
 4075SOL    HW212882   3.533   1.591   7.257
 4076SOL     OW12883   2.973   1.195   6.686
 4076SOL    HW112884   2.933   1.239   6.767
 4076SOL    HW212885   2.932   1.232   6.603
 4077SOL     OW12886   3.500   1.099   6.665
 4077SOL    HW112887   3.505   1.180   6.724
 4077SOL    HW212888   3.414   1.101   6.614
 4078SOL     OW12889   2.777   0.089   6.988
 4078SOL    HW112890   2.802   0.069   6.893
 4078SOL    HW212891   2.849   0.145   7.030
 4079SOL     OW12892   2.842   1.116   7.305
 4079SOL    HW112893   2.743   1.122   7.315
 4079SOL    HW212894   2.865   1.036   7.249
 4080SOL     OW12895   2.567   1.050   5.954
 4080SOL    HW112896   2.553   1.057   6.053
 4080SOL    HW212897   2.651   0.999   5.936
 4081SOL     OW12898   2.272   0.813   6.837
 4081SOL    HW112899   2.358   0.825   6.887
 4081SOL    HW212900   2.230   0.726   6.864
 4082SOL     OW12901   3.136   0.386   6.848
 4082SOL    HW112902   3.157   0.460   6.912
 4082SOL    HW212903   3.047   0.403   6.805
 4083SOL     OW12904   2.229   1.100   6.087
 4083SOL    HW112905   2.222   1.183   6.031
 4083SOL    HW212906   2.233   1.020   6.027
 4084SOL     OW12907   2.428   0.537   6.451
 4084SOL    HW112908   2.440   0.603   6.377
 4084SOL    HW212909   2.474   0.571   6.534
 4085SOL     OW12910   3.114   1.348   5.974
 4085SOL    HW112911   3.164   1.425   6.014
 4085SOL    HW212912   3.019   1.350   6.006
 4086SOL     OW12913   3.134   1.445   6.728
 4086SOL    HW112914   3.181   1.458   6.815
 4086SOL    HW212915   3.068   1.371   6.737
 4087SOL     OW12916   3.444   0.639   6.058
 4087SOL    HW112917   3.413   0.700   6.131
 4087SOL    HW212918   3.494   0.691   5.989
 4088SOL     OW12919   2.264   0.751   7.184
 4088SOL    HW112920   2.332   0.806   7.137
 4088SOL    HW212921   2.304   0.663   7.211
 4089SOL     OW12922   3.449   0.779   7.256
 4089SOL    HW112923   3.357   0.817   7.251
 4089SOL    HW212924   3.509   0.826   7.191
 4090SOL     OW12925   2.875   0.105   7.356
 4090SOL    HW112926   2.881   0.190   7.304
 4090SOL    HW212927   2.907   0.029   7.299
 4091SOL     OW12928   2.366   0.050   7.326
 4091SOL    HW112929   2.324  -0.007   7.256
 4091SOL    HW212930   2.300   0.119   7.358
 4092SOL     OW12931   2.435   0.870   6.615
 4092SOL    HW112932   2.479   0.959   6.606
 4092SOL    HW212933   2.372   0.870   6.692
 4093SOL     OW12934   3.222   0.862   6.631
 4093SOL    HW112935   3.147   0.862   6.565
 4093SOL    HW212936   3.259   0.770   6.640
 4094SOL     OW12937   3.071   0.525   5.861
 4094SOL    HW112938   3.084   0.441   5.915
 4094SOL    HW212939   3.042   0.599   5.921
 4095SOL     OW12940   2.169   0.213   6.817
 4095SOL    HW112941   2.146   0.250   6.907
 4095SOL    HW212942   2.139   0.118   6.811
 4096SOL     OW12943   2.594   0.634   6.650
 4096SOL    HW112944   2.653   0.608   6.574
 4096SOL    HW212945   2.566   0.730   6.639
 4097SOL     OW12946   3.590   0.935   7.440
 4097SOL    HW112947   3.544   0.928   7.351
 4097SOL    HW212948   3.528   0.979   7.506
 4098SOL     OW12949   2.169   0.063   6.204
 4098SOL    HW112950   2.158   0.157   6.237
 4098SOL    HW212951   2.164   0.000   6.281
 4099SOL     OW12952   3.484   0.367   5.960
 4099SOL    HW112953   3.486   0.291   6.024
 4099SOL    HW212954   3.436   0.444   6.000
 4100SOL     OW12955   2.885   0.766   6.552
 4100SOL    HW112956   2.900   0.787   6.648
 4100SOL    HW212957   2.855   0.671   6.543
 4101SOL     OW12958   2.842   1.573   7.286
 4101SOL    HW112959   2.822   1.617   7.198
 4101SOL    HW212960   2.881   1.482   7.270
 4102SOL     OW12961   3.721   1.518   7.191
 4102SOL    HW112962   3.735   1.545   7.096
 4102SOL    HW212963   3.804   1.540   7.244
 4103SOL     OW12964   2.212   0.898   7.390
 4103SOL    HW112965   2.288   0.942   7.438
 4103SOL    HW212966   2.247   0.851   7.308
 4104SOL     OW12967   3.402   0.274   5.711
 4104SOL    HW112968   3.341   0.199   5.734
 4104SOL    HW212969   3.424   0.326   5.794
 4105SOL     OW12970   3.165   0.838   5.628
 4105SOL    HW112971   3.199   0.745   5.643
 4105SOL    HW212972   3.183   0.865   5.533
 4106SOL     OW12973   2.930   1.333   6.435
 4106SOL    HW112974   2.937   1.249   6.380
 4106SOL    HW212975   2.992   1.402   6.399
 4107SOL     OW12976   2.181   0.810   6.535
 4107SOL    HW112977   2.274   0.846   6.540
 4107SOL    HW212978   2.175   0.725   6.587
 4108SOL     OW12979   2.201   0.509   6.592
 4108SOL    HW112980   2.149   0.426   6.575
 4108SOL    HW212981   2.278   0.514   6.528
 4109SOL     OW12982   3.000   0.380   7.264
 4109SOL    HW112983   2.955   0.443   7.328
 4109SOL    HW212984   3.093   0.411   7.247
 4110SOL     OW12985   3.022   0.207   7.063
 4110SOL    HW112986   3.022   0.271   7.140
 4110SOL    HW212987   3.050   0.255   6.980
 4111SOL     OW12988   1.870   1.326   5.786
 4111SOL    HW112989   1.777   1.347   5.755
 4111SOL    HW212990   1.880   1.227   5.799
 4112SOL     OW12991   2.366   1.568   6.496
 4112SOL    HW112992   2.432   1.642   6.505
 4112SOL    HW212993   2.410   1.489   6.454
 4113SOL     OW12994   2.864   0.796   6.824
 4113SOL    HW112995   2.905   0.764   6.910
 4113SOL    HW212996   2.768   0.769   6.821
 4114SOL     OW12997   1.902   0.544   6.700
 4114SOL    HW112998   1.987   0.511   6.659
 4114SOL    HW212999   1.915   0.559   6.798
 4115SOL     OW13000   2.051   0.520   7.308
 4115SOL    HW113001   2.110   0.480   7.238
 4115SOL    HW213002   1.993   0.591   7.267
 4116SOL     OW13003   3.231   0.950   7.246
 4116SOL    HW113004   3.270   1.039   7.266
 4116SOL    HW213005   3.241   0.930   7.149
 4117SOL     OW13006   2.677   0.572   5.911
 4117SOL    HW113007   2.684   0.483   5.865
 4117SOL    HW213008   2.583   0.606   5.903
 4118SOL     OW13009   3.519   0.604   6.792
 4118SOL    HW113010   3.481   0.535   6.854
 4118SOL    HW213011   3.601   0.568   6.748
 4119SOL     OW13012   2.533   0.464   6.855
 4119SOL    HW113013   2.499   0.375   6.825
 4119SOL    HW213014   2.559   0.518   6.775
 4120SOL     OW13015   2.335   0.500   5.777
 4120SOL    HW113016   2.396   0.580   5.781
 4120SOL    HW213017   2.240   0.531   5.784
 4121SOL     OW13018   2.021   1.137   7.052
 4121SOL    HW113019   2.043   1.076   7.128
 4121SOL    HW213020   2.031   1.088   6.966
 4122SOL     OW13021   3.209   1.059   6.820
 4122SOL    HW113022   3.233   0.996   6.746
 4122SOL    HW213023   3.119   1.099   6.802
 4123SOL     OW13024   3.164   0.855   5.895
 4123SOL    HW113025   3.078   0.824   5.937
 4123SOL    HW213026   3.160   0.841   5.796
 4124SOL     OW13027   3.621   1.747   6.740
 4124SOL    HW113028   3.682   1.777   6.667
 4124SOL    HW213029   3.583   1.658   6.718
 4125SOL     OW13030   3.114   1.731   6.714
 4125SOL    HW113031   3.198   1.736   6.660
 4125SOL    HW213032   3.091   1.635   6.732
 4126SOL     OW13033   3.588   0.135   6.109
 4126SOL    HW113034   3.661   0.118   6.042
 4126SOL    HW213035   3.557   0.048   6.147
 4127SOL     OW13036   3.250   1.573   6.063
 4127SOL    HW113037   3.317   1.585   5.989
 4127SOL    HW213038   3.210   1.662   6.086
 4128SOL     OW13039   3.142   0.927   6.258
 4128SOL    HW113040   3.202   0.846   6.260
 4128SOL    HW213041   3.182   0.996   6.198
 4129SOL     OW13042   2.534   1.616   5.740
 4129SOL    HW113043   2.543   1.626   5.641
 4129SOL    HW213044   2.494   1.527   5.761
 4130SOL     OW13045   3.512   1.720   6.980
 4130SOL    HW113046   3.565   1.730   6.896
 4130SOL    HW213047   3.485   1.810   7.014
 4131SOL     OW13048   3.703   0.175   6.549
 4131SOL    HW113049   3.742   0.090   6.513
 4131SOL    HW213050   3.605   0.177   6.530
 4132SOL     OW13051   2.125   0.326   6.306
 4132SOL    HW113052   2.046   0.377   6.272
 4132SOL    HW213053   2.116   0.311   6.404
 4133SOL     OW13054   3.056   1.612   5.617
 4133SOL    HW113055   3.062   1.519   5.654
 4133SOL    HW213056   2.997   1.612   5.537
 4134SOL     OW13057   2.684   1.002   6.958
 4134SOL    HW113058   2.724   1.001   6.866
 4134SOL    HW213059   2.694   1.094   6.998
 4135SOL     OW13060   2.778   0.910   5.877
 4135SOL    HW113061   2.841   0.948   5.809
 4135SOL    HW213062   2.818   0.827   5.916
 4136SOL     OW13063   3.366   1.607   5.630
 4136SOL    HW113064   3.274   1.644   5.637
 4136SOL    HW213065   3.404   1.627   5.540
 4137SOL     OW13066   3.476   1.292   6.875
 4137SOL    HW113067   3.536   1.295   6.955
 4137SOL    HW213068   3.401   1.356   6.888
 4138SOL     OW13069   2.901   1.098   6.282
 4138SOL    HW113070   2.831   1.051   6.336
 4138SOL    HW213071   2.960   1.030   6.239
 4139SOL     OW13072   2.876   0.236   6.557
 4139SOL    HW113073   2.868   0.200   6.464
 4139SOL    HW213074   2.874   0.160   6.622
 4140SOL     OW13075   2.452   1.487   6.077
 4140SOL    HW113076   2.494   1.429   6.007
 4140SOL    HW213077   2.408   1.566   6.033
 4141SOL     OW13078   3.571   0.385   6.967
 4141SOL    HW113079   3.644   0.454   6.971
 4141SOL    HW213080   3.599   0.310   6.908
 4142SOL     OW13081   2.117   1.348   5.876
 4142SOL    HW113082   2.021   1.349   5.849
 4142SOL    HW213083   2.129   1.401   5.960
 4143SOL     OW13084   1.967   1.013   7.312
 4143SOL    HW113085   1.890   0.980   7.366
 4143SOL    HW213086   2.052   0.983   7.354
 4144SOL     OW13087   2.534   0.203   7.075
 4144SOL    HW113088   2.624   0.187   7.035
 4144SOL    HW213089   2.542   0.208   7.174
 4145SOL     OW13090   1.937   0.345   5.619
 4145SOL    HW113091   1.845   0.317   5.590
 4145SOL    HW213092   1.968   0.422   5.563
 4146SOL     OW13093   3.302   0.856   6.984
 4146SOL    HW113094   3.245   0.908   6.921
 4146SOL    HW213095   3.398   0.868   6.960
 4147SOL     OW13096   1.934   0.166   5.904
 4147SOL    HW113097   1.917   0.249   5.850
 4147SOL    HW213098   2.024   0.129   5.882
 4148SOL     OW13099   3.045   1.335   5.705
 4148SOL    HW113100   2.946   1.324   5.707
 4148SOL    HW213101   3.079   1.350   5.798
 4149SOL     OW13102   2.475   0.842   7.017
 4149SOL    HW113103   2.531   0.923   7.000
 4149SOL    HW213104   2.534   0.762   7.020
 4150SOL     OW13105   3.355   1.767   6.545
 4150SOL    HW113106   3.388   1.831   6.476
 4150SOL    HW213107   3.421   1.761   6.620
 4151SOL     OW13108   2.578   0.565   7.294
 4151SOL    HW113109   2.597   0.630   7.368
 4151SOL    HW213110   2.638   0.485   7.303
 4152SOL     OW13111   3.312   1.220   7.219
 4152SOL    HW113112   3.303   1.210   7.318
 4152SOL    HW213113   3.408   1.213   7.193
 4153SOL     OW13114   3.536   0.883   6.840
 4153SOL    HW113115   3.509   0.794   6.803
 4153SOL    HW213116   3.537   0.951   6.767
 4154SOL     OW13117   3.087   0.325   6.035
 4154SOL    HW113118   3.152   0.251   6.024
 4154SOL    HW213119   3.107   0.375   6.119
 4155SOL     OW13120   2.456   0.745   6.238
 4155SOL    HW113121   2.506   0.830   6.219
 4155SOL    HW213122   2.368   0.747   6.190
 4156SOL     OW13123   3.639   0.342   7.228
 4156SOL    HW113124   3.622   0.373   7.134
 4156SOL    HW213125   3.555   0.305   7.266
 4157SOL     OW13126   3.592   0.934   7.103
 4157SOL    HW113127   3.630   1.025   7.118
 4157SOL    HW213128   3.584   0.917   7.004
 4158SOL     OW13129   2.721   1.374   5.602
 4158SOL    HW113130   2.675   1.389   5.690
 4158SOL    HW213131   2.765   1.459   5.572
 4159SOL     OW13132   2.523   1.790   6.539
 4159SOL    HW113133   2.477   1.878   6.526
 4159SOL    HW213134   2.622   1.802   6.532
 4160SOL     OW13135   2.721   0.956   6.447
 4160SOL    HW113136   2.775   0.887   6.495
 4160SOL    HW213137   2.689   1.025   6.513
 4161SOL     OW13138   2.945   0.984   5.673
 4161SOL    HW113139   2.922   1.037   5.591
 4161SOL    HW213140   3.026   0.928   5.654
 4162SOL     OW13141   3.723   1.569   6.437
 4162SOL    HW113142   3.652   1.557   6.367
 4162SOL    HW213143   3.724   1.490   6.497
 4163SOL     OW13144   2.083   1.314   7.430
 4163SOL    HW113145   2.018   1.241   7.409
 4163SOL    HW213146   2.087   1.328   7.528
 4164SOL     OW13147   1.941   1.240   6.239
 4164SOL    HW113148   1.940   1.193   6.327
 4164SOL    HW213149   2.023   1.212   6.188
 4165SOL     OW13150   3.686   0.192   6.813
 4165SOL    HW113151   3.682   0.102   6.857
 4165SOL    HW213152   3.689   0.181   6.714
 4166SOL     OW13153   2.290   0.424   6.106
 4166SOL    HW113154   2.320   0.352   6.044
 4166SOL    HW213155   2.251   0.384   6.189
 4167SOL     OW13156   3.567   1.487   6.690
 4167SOL    HW113157   3.474   1.462   6.663
 4167SOL    HW213158   3.593   1.437   6.772
 4168SOL     OW13159   2.179   0.547   6.866
 4168SOL    HW113160   2.217   0.488   6.938
 4168SOL    HW213161   2.219   0.521   6.778
 4169SOL     OW13162   2.674   1.586   6.273
 4169SOL    HW113163   2.706   1.596   6.179
 4169SOL    HW213164   2.595   1.524   6.275
 4170SOL     OW13165   3.286   0.214   6.698
 4170SOL    HW113166   3.338   0.149   6.753
 4170SOL    HW213167   3.237   0.277   6.759
 4171SOL     OW13168   2.863   0.034   6.740
 4171SOL    HW113169   2.800  -0.038   6.709
 4171SOL    HW213170   2.956  -0.002   6.740
 4172SOL     OW13171   2.632   1.330   5.887
 4172SOL    HW113172   2.586   1.243   5.904
 4172SOL    HW213173   2.723   1.327   5.928
 4173SOL     OW13174   3.214   0.052   5.754
 4173SOL    HW113175   3.249   0.011   5.670
 4173SOL    HW213176   3.124   0.014   5.774
 4174SOL     OW13177   3.162   0.453   6.277
 4174SOL    HW113178   3.103   0.533   6.281
 4174SOL    HW213179   3.177   0.418   6.370
 4175SOL     OW13180   3.455   0.221   6.468
 4175SOL    HW113181   3.371   0.220   6.522
 4175SOL    HW213182   3.457   0.304   6.412
 4176SOL     OW13183   1.901   1.077   5.886
 4176SOL    HW113184   2.000   1.066   5.877
 4176SOL    HW213185   1.861   0.991   5.918
 4177SOL     OW13186   2.737   1.646   5.923
 4177SOL    HW113187   2.660   1.611   5.869
 4177SOL    HW213188   2.705   1.717   5.985
 4178SOL     OW13189   2.092   0.628   7.561
 4178SOL    HW113190   1.999   0.626   7.598
 4178SOL    HW213191   2.093   0.589   7.469
 4179SOL     OW13192   2.087   0.275   8.444
 4179SOL    HW113193   2.122   0.258   8.536
 4179SOL    HW213194   1.999   0.230   8.432
 4180SOL     OW13195   1.881   0.368   8.095
 4180SOL    HW113196   1.799   0.411   8.134
 4180SOL    HW213197   1.853   0.295   8.032
 4181SOL     OW13198   2.431   1.275   8.613
 4181SOL    HW113199   2.338   1.268   8.576
 4181SOL    HW213200   2.442   1.364   8.657
 4182SOL     OW13201   3.417   1.511   8.151
 4182SOL    HW113202   3.360   1.495   8.232
 4182SOL    HW213203   3.358   1.521   8.071
 4183SOL     OW13204   2.997   0.703   8.165
 4183SOL    HW113205   3.054   0.781   8.140
 4183SOL    HW213206   2.937   0.729   8.241
 4184SOL     OW13207   3.617   0.607   7.679
 4184SOL    HW113208   3.605   0.594   7.580
 4184SOL    HW213209   3.587   0.526   7.728
 4185SOL     OW13210   2.630   1.144   8.471
 4185SOL    HW113211   2.552   1.161   8.531
 4185SOL    HW213212   2.664   1.231   8.435
 4186SOL     OW13213   2.712   0.798   9.271
 4186SOL    HW113214   2.708   0.874   9.336
 4186SOL    HW213215   2.734   0.834   9.180
 4187SOL     OW13216   2.547   1.012   8.113
 4187SOL    HW113217   2.616   0.996   8.183
 4187SOL    HW213218   2.474   1.069   8.151
 4188SOL     OW13219   2.548   1.161   9.251
 4188SOL    HW113220   2.608   1.240   9.265
 4188SOL    HW213221   2.462   1.192   9.210
 4189SOL     OW13222   2.197   1.435   8.509
 4189SOL    HW113223   2.119   1.404   8.456
 4189SOL    HW213224   2.255   1.493   8.452
 4190SOL     OW13225   3.322   1.505   8.787
 4190SOL    HW113226   3.346   1.599   8.813
 4190SOL    HW213227   3.306   1.451   8.869
 4191SOL     OW13228   2.300   0.392   8.947
 4191SOL    HW113229   2.382   0.336   8.956
 4191SOL    HW213230   2.219   0.334   8.951
 4192SOL     OW13231   3.465   0.447   8.185
 4192SOL    HW113232   3.391   0.493   8.135
 4192SOL    HW213233   3.516   0.515   8.238
 4193SOL     OW13234   2.989   1.341   9.138
 4193SOL    HW113235   3.036   1.341   9.226
 4193SOL    HW213236   2.941   1.254   9.127
 4194SOL     OW13237   2.092   1.434   7.986
 4194SOL    HW113238   2.066   1.530   7.986
 4194SOL    HW213239   2.021   1.380   8.031
 4195SOL     OW13240   2.102   1.091   8.334
 4195SOL    HW113241   2.116   1.007   8.386
 4195SOL    HW213242   2.047   1.155   8.389
 4196SOL     OW13243   2.482   1.786   8.887
 4196SOL    HW113244   2.390   1.769   8.922
 4196SOL    HW213245   2.510   1.878   8.913
 4197SOL     OW13246   2.468   0.964   7.571
 4197SOL    HW113247   2.475   1.048   7.517
 4197SOL    HW213248   2.514   0.977   7.659
 4198SOL     OW13249   3.456   0.114   8.928
 4198SOL    HW113250   3.438   0.181   8.856
 4198SOL    HW213251   3.453   0.160   9.017
 4199SOL     OW13252   1.984   0.643   8.011
 4199SOL    HW113253   1.939   0.555   8.028
 4199SOL    HW213254   1.983   0.697   8.095
 4200SOL     OW13255   3.704   1.767   7.807
 4200SOL    HW113256   3.758   1.738   7.887
 4200SOL    HW213257   3.734   1.857   7.778
 4201SOL     OW13258   1.889   1.596   7.565
 4201SOL    HW113259   1.870   1.500   7.586
 4201SOL    HW213260   1.856   1.654   7.640
 4202SOL     OW13261   3.551   0.922   8.060
 4202SOL    HW113262   3.646   0.893   8.068
 4202SOL    HW213263   3.543   0.987   7.985
 4203SOL     OW13264   3.503   1.108   7.880
 4203SOL    HW113265   3.589   1.110   7.828
 4203SOL    HW213266   3.517   1.155   7.968
 4204SOL     OW13267   1.975   0.737   9.045
 4204SOL    HW113268   2.063   0.724   9.090
 4204SOL    HW213269   1.962   0.834   9.023
 4205SOL     OW13270   2.475   1.365   8.174
 4205SOL    HW113271   2.426   1.278   8.183
 4205SOL    HW213272   2.452   1.408   8.087
 4206SOL     OW13273   3.155   1.228   8.871
 4206SOL    HW113274   3.192   1.155   8.813
 4206SOL    HW213275   3.207   1.233   8.956
 4207SOL     OW13276   2.671   0.004   7.950
 4207SOL    HW113277   2.711   0.095   7.941
 4207SOL    HW213278   2.571   0.012   7.956
 4208SOL     OW13279   2.059   0.976   8.712
 4208SOL    HW113280   2.148   0.931   8.698
 4208SOL    HW213281   1.986   0.911   8.693
 4209SOL     OW13282   3.387   0.999   7.638
 4209SOL    HW113283   3.324   0.923   7.651
 4209SOL    HW213284   3.435   1.017   7.724
 4210SOL     OW13285   3.049   1.792   9.064
 4210SOL    HW113286   3.073   1.852   8.988
 4210SOL    HW213287   3.056   1.697   9.034
 4211SOL     OW13288   2.179   0.251   9.249
 4211SOL    HW113289   2.250   0.322   9.255
 4211SOL    HW213290   2.091   0.290   9.277
 4212SOL     OW13291   3.328   1.417   8.401
 4212SOL    HW113292   3.269   1.423   8.481
 4212SOL    HW213293   3.313   1.329   8.355
 4213SOL     OW13294   3.529   1.714   8.020
 4213SOL    HW113295   3.488   1.691   7.932
 4213SOL    HW213296   3.511   1.640   8.085
 4214SOL     OW13297   2.460   0.729   7.718
 4214SOL    HW113298   2.484   0.798   7.650
 4214SOL    HW213299   2.382   0.762   7.772
 4215SOL     OW13300   3.143   0.345   8.392
 4215SOL    HW113301   3.057   0.295   8.379
 4215SOL    HW213302   3.205   0.291   8.448
 4216SOL     OW13303   3.438   1.662   7.755
 4216SOL    HW113304   3.527   1.708   7.758
 4216SOL    HW213305   3.417   1.638   7.660
 4217SOL     OW13306   2.669   0.605   8.913
 4217SOL    HW113307   2.622   0.602   9.002
 4217SOL    HW213308   2.618   0.550   8.847
 4218SOL     OW13309   3.256   0.469   9.122
 4218SOL    HW113310   3.236   0.512   9.210
 4218SOL    HW213311   3.334   0.407   9.131
 4219SOL     OW13312   2.835   0.890   9.020
 4219SOL    HW113313   2.881   0.806   8.991
 4219SOL    HW213314   2.779   0.924   8.945
 4220SOL     OW13315   2.853   0.410   8.690
 4220SOL    HW113316   2.776   0.444   8.744
 4220SOL    HW213317   2.819   0.359   8.611
 4221SOL     OW13318   2.903   0.701   7.877
 4221SOL    HW113319   2.929   0.697   7.973
 4221SOL    HW213320   2.818   0.650   7.863
 4222SOL     OW13321   1.938   0.811   8.237
 4222SOL    HW113322   2.037   0.799   8.246
 4222SOL    HW213323   1.914   0.906   8.258
 4223SOL     OW13324   2.727   0.348   7.643
 4223SOL    HW113325   2.786   0.411   7.594
 4223SOL    HW213326   2.746   0.254   7.614
 4224SOL     OW13327   3.581   0.585   9.279
 4224SOL    HW113328   3.555   0.674   9.243
 4224SOL    HW213329   3.579   0.517   9.206
 4225SOL     OW13330   3.224   1.144   7.993
 4225SOL    HW113331   3.307   1.115   7.945
 4225SOL    HW213332   3.175   1.211   7.937
 4226SOL     OW13333   2.412   0.196   8.333
 4226SOL    HW113334   2.407   0.191   8.433
 4226SOL    HW213335   2.414   0.292   8.304
 4227SOL     OW13336   2.870   1.456   7.925
 4227SOL    HW113337   2.824   1.528   7.873
 4227SOL    HW213338   2.866   1.476   8.023
 4228SOL     OW13339   3.657   1.066   8.321
 4228SOL    HW113340   3.595   1.051   8.245
 4228SOL    HW213341   3.605   1.077   8.406
 4229SOL     OW13342   3.089   1.550   8.954
 4229SOL    HW113343   3.095   1.473   9.018
 4229SOL    HW213344   3.037   1.524   8.874
 4230SOL     OW13345   2.183   0.943   7.690
 4230SOL    HW113346   2.265   0.982   7.648
 4230SOL    HW213347   2.156   0.861   7.641
 4231SOL     OW13348   3.320   0.735   8.176
 4231SOL    HW113349   3.315   0.670   8.251
 4231SOL    HW213350   3.400   0.794   8.189
 4232SOL     OW13351   2.323   1.266   9.175
 4232SOL    HW113352   2.273   1.267   9.089
 4232SOL    HW213353   2.260   1.248   9.251
 4233SOL     OW13354   2.973   1.776   7.685
 4233SOL    HW113355   2.913   1.714   7.735
 4233SOL    HW213356   3.004   1.732   7.600
 4234SOL     OW13357   2.064   0.285   8.946
 4234SOL    HW113358   1.984   0.345   8.933
 4234SOL    HW213359   2.054   0.236   9.032
 4235SOL     OW13360   3.494   1.377   7.529
 4235SOL    HW113361   3.462   1.471   7.519
 4235SOL    HW213362   3.418   1.314   7.517
 4236SOL     OW13363   2.326   1.743   7.771
 4236SOL    HW113364   2.359   1.782   7.857
 4236SOL    HW213365   2.402   1.736   7.706
 4237SOL     OW13366   3.262   0.107   7.874
 4237SOL    HW113367   3.238   0.070   7.784
 4237SOL    HW213368   3.361   0.123   7.878
 4238SOL     OW13369   2.802   1.698   8.352
 4238SOL    HW113370   2.882   1.641   8.373
 4238SOL    HW213371   2.753   1.658   8.275
 4239SOL     OW13372   2.244   0.700   7.928
 4239SOL    HW113373   2.289   0.610   7.925
 4239SOL    HW213374   2.150   0.689   7.961
 4240SOL     OW13375   3.409   0.222   9.177
 4240SOL    HW113376   3.404   0.259   9.269
 4240SOL    HW213377   3.337   0.153   9.165
 4241SOL     OW13378   2.476   0.122   7.565
 4241SOL    HW113379   2.574   0.100   7.572
 4241SOL    HW213380   2.445   0.105   7.472
 4242SOL     OW13381   2.643   0.264   9.197
 4242SOL    HW113382   2.710   0.203   9.240
 4242SOL    HW213383   2.570   0.283   9.262
 4243SOL     OW13384   2.750   1.514   8.643
 4243SOL    HW113385   2.727   1.489   8.549
 4243SOL    HW213386   2.811   1.445   8.682
 4244SOL     OW13387   3.213   0.590   8.881
 4244SOL    HW113388   3.241   0.547   8.966
 4244SOL    HW213389   3.238   0.686   8.882
 4245SOL     OW13390   2.665   1.402   8.372
 4245SOL    HW113391   2.755   1.416   8.330
 4245SOL    HW213392   2.594   1.404   8.301
 4246SOL     OW13393   2.784   0.503   8.347
 4246SOL    HW113394   2.759   0.494   8.251
 4246SOL    HW213395   2.832   0.421   8.378
 4247SOL     OW13396   2.401   0.064   7.960
 4247SOL    HW113397   2.320   0.065   8.018
 4247SOL    HW213398   2.404   0.147   7.905
 4248SOL     OW13399   3.296   1.188   7.489
 4248SOL    HW113400   3.328   1.112   7.546
 4248SOL    HW213401   3.204   1.215   7.519
 4249SOL     OW13402   2.159   0.035   7.619
 4249SOL    HW113403   2.208   0.119   7.598
 4249SOL    HW213404   2.221  -0.030   7.664
 4250SOL     OW13405   2.797   0.236   7.928
 4250SOL    HW113406   2.749   0.277   7.850
 4250SOL    HW213407   2.896   0.234   7.909
 4251SOL     OW13408   2.938   0.683   8.912
 4251SOL    HW113409   2.858   0.622   8.915
 4251SOL    HW213410   3.019   0.630   8.888
 4252SOL     OW13411   3.089   1.570   8.241
 4252SOL    HW113412   3.110   1.644   8.176
 4252SOL    HW213413   3.157   1.570   8.314
 4253SOL     OW13414   2.321   1.152   8.189
 4253SOL    HW113415   2.250   1.125   8.254
 4253SOL    HW213416   2.295   1.124   8.096
 4254SOL     OW13417   3.133   1.797   8.039
 4254SOL    HW113418   3.177   1.861   7.975
 4254SOL    HW213419   3.083   1.849   8.109
 4255SOL     OW13420   2.894   0.549   7.464
 4255SOL    HW113421   2.853   0.631   7.425
 4255SOL    HW213422   2.958   0.575   7.537
 4256SOL     OW13423   1.940   0.556   8.834
 4256SOL    HW113424   2.032   0.555   8.793
 4256SOL    HW213425   1.934   0.630   8.901
 4257SOL     OW13426   2.423   0.222   8.595
 4257SOL    HW113427   2.461   0.138   8.632
 4257SOL    HW213428   2.335   0.241   8.639
 4258SOL     OW13429   2.728   0.454   8.090
 4258SOL    HW113430   2.696   0.526   8.028
 4258SOL    HW213431   2.752   0.373   8.037
 4259SOL     OW13432   2.879   0.039   8.201
 4259SOL    HW113433   2.807   0.044   8.132
 4259SOL    HW213434   2.855  -0.030   8.270
 4260SOL     OW13435   3.291   1.173   8.315
 4260SOL    HW113436   3.236   1.089   8.308
 4260SOL    HW213437   3.317   1.202   8.223
 4261SOL     OW13438   3.328   0.590   8.440
 4261SOL    HW113439   3.298   0.495   8.447
 4261SOL    HW213440   3.401   0.606   8.506
 4262SOL     OW13441   3.719   0.833   7.825
 4262SOL    HW113442   3.761   0.769   7.889
 4262SOL    HW213443   3.681   0.782   7.747
 4263SOL     OW13444   2.350   1.385   7.622
 4263SOL    HW113445   2.263   1.370   7.669
 4263SOL    HW213446   2.333   1.411   7.527
 4264SOL     OW13447   3.526   1.280   8.105
 4264SOL    HW113448   3.625   1.288   8.119
 4264SOL    HW213449   3.481   1.364   8.136
 4265SOL     OW13450   3.252   0.575   7.526
 4265SOL    HW113451   3.198   0.554   7.607
 4265SOL    HW213452   3.343   0.534   7.535
 4266SOL     OW13453   2.389   0.256   7.776
 4266SOL    HW113454   2.416   0.197   7.701
 4266SOL    HW213455   2.389   0.351   7.745
 4267SOL     OW13456   3.616   1.223   9.036
 4267SOL    HW113457   3.707   1.184   9.023
 4267SOL    HW213458   3.624   1.319   9.060
 4268SOL     OW13459   2.926   1.347   8.788
 4268SOL    HW113460   2.846   1.324   8.843
 4268SOL    HW213461   3.009   1.321   8.837
 4269SOL     OW13462   3.454   1.629   9.073
 4269SOL    HW113463   3.481   1.663   8.983
 4269SOL    HW213464   3.533   1.591   9.119
 4270SOL     OW13465   2.973   1.195   8.548
 4270SOL    HW113466   2.933   1.239   8.629
 4270SOL    HW213467   2.932   1.232   8.465
 4271SOL     OW13468   3.500   1.099   8.527
 4271SOL    HW113469   3.505   1.180   8.586
 4271SOL    HW213470   3.414   1.101   8.476
 4272SOL     OW13471   2.777   0.089   8.850
 4272SOL    HW113472   2.802   0.069   8.755
 4272SOL    HW213473   2.849   0.145   8.892
 4273SOL     OW13474   2.842   1.116   9.167
 4273SOL    HW113475   2.743   1.122   9.177
 4273SOL    HW213476   2.865   1.036   9.111
 4274SOL     OW13477   2.567   1.050   7.816
 4274SOL    HW113478   2.553   1.057   7.915
 4274SOL    HW213479   2.651   0.999   7.798
 4275SOL     OW13480   2.272   0.813   8.699
 4275SOL    HW113481   2.358   0.825   8.749
 4275SOL    HW213482   2.230   0.726   8.726
 4276SOL     OW13483   3.136   0.386   8.710
 4276SOL    HW113484   3.157   0.460   8.774
 4276SOL    HW213485   3.047   0.403   8.667
 4277SOL     OW13486   2.229   1.100   7.949
 4277SOL    HW113487   2.222   1.183   7.893
 4277SOL    HW213488   2.233   1.020   7.889
 4278SOL     OW13489   2.428   0.537   8.313
 4278SOL    HW113490   2.440   0.603   8.239
 4278SOL    HW213491   2.474   0.571   8.396
 4279SOL     OW13492   3.114   1.348   7.836
 4279SOL    HW113493   3.164   1.425   7.876
 4279SOL    HW213494   3.019   1.350   7.868
 4280SOL     OW13495   3.134   1.445   8.590
 4280SOL    HW113496   3.181   1.458   8.677
 4280SOL    HW213497   3.068   1.371   8.599
 4281SOL     OW13498   3.444   0.639   7.920
 4281SOL    HW113499   3.413   0.700   7.993
 4281SOL    HW213500   3.494   0.691   7.851
 4282SOL     OW13501   2.216   1.510   8.777
 4282SOL    HW113502   2.195   1.466   8.690
 4282SOL    HW213503   2.313   1.536   8.780
 4283SOL     OW13504   2.264   0.751   9.046
 4283SOL    HW113505   2.332   0.806   8.999
 4283SOL    HW213506   2.304   0.663   9.073
 4284SOL     OW13507   3.449   0.779   9.118
 4284SOL    HW113508   3.357   0.817   9.113
 4284SOL    HW213509   3.509   0.826   9.053
 4285SOL     OW13510   2.875   0.105   9.218
 4285SOL    HW113511   2.881   0.190   9.166
 4285SOL    HW213512   2.907   0.029   9.161
 4286SOL     OW13513   2.366   0.050   9.188
 4286SOL    HW113514   2.324  -0.007   9.118
 4286SOL    HW213515   2.300   0.119   9.220
 4287SOL     OW13516   2.435   0.870   8.477
 4287SOL    HW113517   2.479   0.959   8.468
 4287SOL    HW213518   2.372   0.870   8.554
 4288SOL     OW13519   3.222   0.862   8.493
 4288SOL    HW113520   3.147   0.862   8.427
 4288SOL    HW213521   3.259   0.770   8.502
 4289SOL     OW13522   3.071   0.525   7.723
 4289SOL    HW113523   3.084   0.441   7.777
 4289SOL    HW213524   3.042   0.599   7.783
 4290SOL     OW13525   2.169   0.213   8.679
 4290SOL    HW113526   2.146   0.250   8.769
 4290SOL    HW213527   2.139   0.118   8.673
 4291SOL     OW13528   1.899   1.310   8.730
 4291SOL    HW113529   1.952   1.261   8.798
 4291SOL    HW213530   1.921   1.408   8.735
 4292SOL     OW13531   2.594   0.634   8.512
 4292SOL    HW113532   2.653   0.608   8.436
 4292SOL    HW213533   2.566   0.730   8.501
 4293SOL     OW13534   3.590   0.935   9.302
 4293SOL    HW113535   3.544   0.928   9.213
 4293SOL    HW213536   3.528   0.979   9.368
 4294SOL     OW13537   2.169   0.063   8.066
 4294SOL    HW113538   2.158   0.157   8.099
 4294SOL    HW213539   2.164   0.000   8.143
 4295SOL     OW13540   3.484   0.367   7.822
 4295SOL    HW113541   3.486   0.291   7.886
 4295SOL    HW213542   3.436   0.444   7.862
 4296SOL     OW13543   2.885   0.766   8.414
 4296SOL    HW113544   2.900   0.787   8.510
 4296SOL    HW213545   2.855   0.671   8.405
 4297SOL     OW13546   2.842   1.573   9.148
 4297SOL    HW113547   2.822   1.617   9.060
 4297SOL    HW213548   2.881   1.482   9.132
 4298SOL     OW13549   3.721   1.518   9.053
 4298SOL    HW113550   3.735   1.545   8.958
 4298SOL    HW213551   3.804   1.540   9.106
 4299SOL     OW13552   2.212   0.898   9.252
 4299SOL    HW113553   2.288   0.942   9.300
 4299SOL    HW213554   2.247   0.851   9.170
 4300SOL     OW13555   3.402   0.274   7.573
 4300SOL    HW113556   3.341   0.199   7.596
 4300SOL    HW213557   3.424   0.326   7.656
 4301SOL     OW13558   3.165   0.838   7.490
 4301SOL    HW113559   3.199   0.745   7.505
 4301SOL    HW213560   3.183   0.865   7.395
 4302SOL     OW13561   2.930   1.333   8.297
 4302SOL    HW113562   2.937   1.249   8.242
 4302SOL    HW213563   2.992   1.402   8.261
 4303SOL     OW13564   2.181   0.810   8.397
 4303SOL    HW113565   2.274   0.846   8.402
 4303SOL    HW213566   2.175   0.725   8.449
 4304SOL     OW13567   2.201   0.509   8.454
 4304SOL    HW113568   2.149   0.426   8.437
 4304SOL    HW213569   2.278   0.514   8.390
 4305SOL     OW13570   3.000   0.380   9.126
 4305SOL    HW113571   2.955   0.443   9.190
 4305SOL    HW213572   3.093   0.411   9.109
 4306SOL     OW13573   3.022   0.207   8.925
 4306SOL    HW113574   3.022   0.271   9.002
 4306SOL    HW213575   3.050   0.255   8.842
 4307SOL     OW13576   1.870   1.326   7.648
 4307SOL    HW113577   1.777   1.347   7.617
 4307SOL    HW213578   1.880   1.227   7.661
 4308SOL     OW13579   2.366   1.568   8.358
 4308SOL    HW113580   2.432   1.642   8.367
 4308SOL    HW213581   2.410   1.489   8.316
 4309SOL     OW13582   2.864   0.796   8.686
 4309SOL    HW113583   2.905   0.764   8.772
 4309SOL    HW213584   2.768   0.769   8.683
 4310SOL     OW13585   1.902   0.544   8.562
 4310SOL    HW113586   1.987   0.511   8.521
 4310SOL    HW213587   1.915   0.559   8.660
 4311SOL     OW13588   2.051   0.520   9.170
 4311SOL    HW113589   2.110   0.480   9.100
 4311SOL    HW213590   1.993   0.591   9.129
 4312SOL     OW13591   3.231   0.950   9.108
 4312SOL    HW113592   3.270   1.039   9.128
 4312SOL    HW213593   3.241   0.930   9.011
 4313SOL     OW13594   2.677   0.572   7.773
 4313SOL    HW113595   2.684   0.483   7.727
 4313SOL    HW213596   2.583   0.606   7.765
 4314SOL     OW13597   3.519   0.604   8.654
 4314SOL    HW113598   3.481   0.535   8.716
 4314SOL    HW213599   3.601   0.568   8.610
 4315SOL     OW13600   2.114   1.564   9.192
 4315SOL    HW113601   2.084   1.621   9.268
 4315SOL    HW213602   2.107   1.467   9.218
 4316SOL     OW13603   2.533   0.464   8.717
 4316SOL    HW113604   2.499   0.375   8.687
 4316SOL    HW213605   2.559   0.518   8.637
 4317SOL     OW13606   2.792   1.678   8.913
 4317SOL    HW113607   2.768   1.660   8.818
 4317SOL    HW213608   2.822   1.772   8.923
 4318SOL     OW13609   2.335   0.500   7.639
 4318SOL    HW113610   2.396   0.580   7.643
 4318SOL    HW213611   2.240   0.531   7.646
 4319SOL     OW13612   2.021   1.137   8.914
 4319SOL    HW113613   2.043   1.076   8.990
 4319SOL    HW213614   2.031   1.088   8.828
 4320SOL     OW13615   3.209   1.059   8.682
 4320SOL    HW113616   3.233   0.996   8.608
 4320SOL    HW213617   3.119   1.099   8.664
 4321SOL     OW13618   3.164   0.855   7.757
 4321SOL    HW113619   3.078   0.824   7.799
 4321SOL    HW213620   3.160   0.841   7.658
 4322SOL     OW13621   3.621   1.747   8.602
 4322SOL    HW113622   3.682   1.777   8.529
 4322SOL    HW213623   3.583   1.658   8.580
 4323SOL     OW13624   3.114   1.731   8.576
 4323SOL    HW113625   3.198   1.736   8.522
 4323SOL    HW213626   3.091   1.635   8.594
 4324SOL     OW13627   1.945   1.258   8.470
 4324SOL    HW113628   1.940   1.257   8.570
 4324SOL    HW213629   1.862   1.217   8.432
 4325SOL     OW13630   2.550   1.662   9.164
 4325SOL    HW113631   2.494   1.743   9.173
 4325SOL    HW213632   2.602   1.666   9.078
 4326SOL     OW13633   3.588   0.135   7.971
 4326SOL    HW113634   3.661   0.118   7.904
 4326SOL    HW213635   3.557   0.048   8.009
 4327SOL     OW13636   3.250   1.573   7.925
 4327SOL    HW113637   3.317   1.585   7.851
 4327SOL    HW213638   3.210   1.662   7.948
 4328SOL     OW13639   3.142   0.927   8.120
 4328SOL    HW113640   3.202   0.846   8.122
 4328SOL    HW213641   3.182   0.996   8.060
 4329SOL     OW13642   2.692   1.273   8.870
 4329SOL    HW113643   2.687   1.306   8.965
 4329SOL    HW213644   2.606   1.292   8.824
 4330SOL     OW13645   3.512   1.720   8.842
 4330SOL    HW113646   3.565   1.730   8.758
 4330SOL    HW213647   3.485   1.810   8.876
 4331SOL     OW13648   3.703   0.175   8.411
 4331SOL    HW113649   3.742   0.090   8.375
 4331SOL    HW213650   3.605   0.177   8.392
 4332SOL     OW13651   2.125   0.326   8.168
 4332SOL    HW113652   2.046   0.377   8.134
 4332SOL    HW213653   2.116   0.311   8.266
 4333SOL     OW13654   3.056   1.612   7.479
 4333SOL    HW113655   3.062   1.519   7.516
 4333SOL    HW213656   2.997   1.612   7.399
 4334SOL     OW13657   2.684   1.002   8.820
 4334SOL    HW113658   2.724   1.001   8.728
 4334SOL    HW213659   2.694   1.094   8.860
 4335SOL     OW13660   2.778   0.910   7.739
 4335SOL    HW113661   2.841   0.948   7.671
 4335SOL    HW213662   2.818   0.827   7.778
 4336SOL     OW13663   3.366   1.607   7.492
 4336SOL    HW113664   3.274   1.644   7.499
 4336SOL    HW213665   3.404   1.627   7.402
 4337SOL     OW13666   2.234   1.288   8.938
 4337SOL    HW113667   2.221   1.381   8.904
 4337SOL    HW213668   2.150   1.236   8.925
 4338SOL     OW13669   3.476   1.292   8.737
 4338SOL    HW113670   3.536   1.295   8.817
 4338SOL    HW213671   3.401   1.356   8.750
 4339SOL     OW13672   2.901   1.098   8.144
 4339SOL    HW113673   2.831   1.051   8.198
 4339SOL    HW213674   2.960   1.030   8.101
 4340SOL     OW13675   2.876   0.236   8.419
 4340SOL    HW113676   2.868   0.200   8.326
 4340SOL    HW213677   2.874   0.160   8.484
 4341SOL     OW13678   2.452   1.487   7.939
 4341SOL    HW113679   2.494   1.429   7.869
 4341SOL    HW213680   2.408   1.566   7.895
 4342SOL     OW13681   3.571   0.385   8.829
 4342SOL    HW113682   3.644   0.454   8.833
 4342SOL    HW213683   3.599   0.310   8.770
 4343SOL     OW13684   2.117   1.348   7.738
 4343SOL    HW113685   2.021   1.349   7.711
 4343SOL    HW213686   2.129   1.401   7.822
 4344SOL     OW13687   1.967   1.013   9.174
 4344SOL    HW113688   1.890   0.980   9.228
 4344SOL    HW213689   2.052   0.983   9.216
 4345SOL     OW13690   2.534   0.203   8.937
 4345SOL    HW113691   2.624   0.187   8.897
 4345SOL    HW213692   2.542   0.208   9.036
 4346SOL     OW13693   1.937   0.345   7.481
 4346SOL    HW113694   1.845   0.317   7.452
 4346SOL    HW213695   1.968   0.422   7.425
 4347SOL     OW13696   3.302   0.856   8.846
 4347SOL    HW113697   3.245   0.908   8.783
 4347SOL    HW213698   3.398   0.868   8.822
 4348SOL     OW13699   1.934   0.166   7.766
 4348SOL    HW113700   1.917   0.249   7.712
 4348SOL    HW213701   2.024   0.129   7.744
 4349SOL     OW13702   3.045   1.335   7.567
 4349SOL    HW113703   2.946   1.324   7.569
 4349SOL    HW213704   3.079   1.350   7.660
 4350SOL     OW13705   2.475   0.842   8.879
 4350SOL    HW113706   2.531   0.923   8.862
 4350SOL    HW213707   2.534   0.762   8.882
 4351SOL     OW13708   3.355   1.767   8.407
 4351SOL    HW113709   3.388   1.831   8.338
 4351SOL    HW213710   3.421   1.761   8.482
 4352SOL     OW13711   2.578   0.565   9.156
 4352SOL    HW113712   2.597   0.630   9.230
 4352SOL    HW213713   2.638   0.485   9.165
 4353SOL     OW13714   3.312   1.220   9.081
 4353SOL    HW113715   3.303   1.210   9.180
 4353SOL    HW213716   3.408   1.213   9.055
 4354SOL     OW13717   2.252   1.741   9.008
 4354SOL    HW113718   2.161   1.782   9.006
 4354SOL    HW213719   2.245   1.647   9.040
 4355SOL     OW13720   3.536   0.883   8.702
 4355SOL    HW113721   3.509   0.794   8.665
 4355SOL    HW213722   3.537   0.951   8.629
 4356SOL     OW13723   3.087   0.325   7.897
 4356SOL    HW113724   3.152   0.251   7.886
 4356SOL    HW213725   3.107   0.375   7.981
 4357SOL     OW13726   2.456   0.745   8.100
 4357SOL    HW113727   2.506   0.830   8.081
 4357SOL    HW213728   2.368   0.747   8.052
 4358SOL     OW13729   3.639   0.342   9.090
 4358SOL    HW113730   3.622   0.373   8.996
 4358SOL    HW213731   3.555   0.305   9.128
 4359SOL     OW13732   3.592   0.934   8.965
 4359SOL    HW113733   3.630   1.025   8.980
 4359SOL    HW213734   3.584   0.917   8.866
 4360SOL     OW13735   2.721   1.374   7.464
 4360SOL    HW113736   2.675   1.389   7.552
 4360SOL    HW213737   2.765   1.459   7.434
 4361SOL     OW13738   2.523   1.790   8.401
 4361SOL    HW113739   2.477   1.878   8.388
 4361SOL    HW213740   2.622   1.802   8.394
 4362SOL     OW13741   2.721   0.956   8.309
 4362SOL    HW113742   2.775   0.887   8.357
 4362SOL    HW213743   2.689   1.025   8.375
 4363SOL     OW13744   2.945   0.984   7.535
 4363SOL    HW113745   2.922   1.037   7.453
 4363SOL    HW213746   3.026   0.928   7.516
 4364SOL     OW13747   3.723   1.569   8.299
 4364SOL    HW113748   3.652   1.557   8.229
 4364SOL    HW213749   3.724   1.490   8.359
 4365SOL     OW13750   2.083   1.314   9.292
 4365SOL    HW113751   2.018   1.241   9.271
 4365SOL    HW213752   2.087   1.328   9.390
 4366SOL     OW13753   1.941   1.240   8.101
 4366SOL    HW113754   1.940   1.193   8.189
 4366SOL    HW213755   2.023   1.212   8.050
 4367SOL     OW13756   2.534   1.391   9.072
 4367SOL    HW113757   2.456   1.341   9.110
 4367SOL    HW213758   2.531   1.486   9.103
 4368SOL     OW13759   3.686   0.192   8.675
 4368SOL    HW113760   3.682   0.102   8.719
 4368SOL    HW213761   3.689   0.181   8.576
 4369SOL     OW13762   2.290   0.424   7.968
 4369SOL    HW113763   2.320   0.352   7.906
 4369SOL    HW213764   2.251   0.384   8.051
 4370SOL     OW13765   3.567   1.487   8.552
 4370SOL    HW113766   3.474   1.462   8.525
 4370SOL    HW213767   3.593   1.437   8.634
 4371SOL     OW13768   2.179   0.547   8.728
 4371SOL    HW113769   2.217   0.488   8.800
 4371SOL    HW213770   2.219   0.521   8.640
 4372SOL     OW13771   2.674   1.586   8.135
 4372SOL    HW113772   2.706   1.596   8.041
 4372SOL    HW213773   2.595   1.524   8.137
 4373SOL     OW13774   3.286   0.214   8.560
 4373SOL    HW113775   3.338   0.149   8.615
 4373SOL    HW213776   3.237   0.277   8.621
 4374SOL     OW13777   2.863   0.034   8.602
 4374SOL    HW113778   2.800  -0.038   8.571
 4374SOL    HW213779   2.956  -0.002   8.602
 4375SOL     OW13780   2.632   1.330   7.749
 4375SOL    HW113781   2.586   1.243   7.766
 4375SOL    HW213782   2.723   1.327   7.790
 4376SOL     OW13783   2.480   1.567   8.732
 4376SOL    HW113784   2.475   1.649   8.789
 4376SOL    HW213785   2.569   1.564   8.687
 4377SOL     OW13786   3.214   0.052   7.616
 4377SOL    HW113787   3.249   0.011   7.532
 4377SOL    HW213788   3.124   0.014   7.636
 4378SOL     OW13789   3.162   0.453   8.139
 4378SOL    HW113790   3.103   0.533   8.143
 4378SOL    HW213791   3.177   0.418   8.232
 4379SOL     OW13792   3.455   0.221   8.330
 4379SOL    HW113793   3.371   0.220   8.384
 4379SOL    HW213794   3.457   0.304   8.274
 4380SOL     OW13795   1.901   1.077   7.748
 4380SOL    HW113796   2.000   1.066   7.739
 4380SOL    HW213797   1.861   0.991   7.780
 4381SOL     OW13798   2.737   1.646   7.785
 4381SOL    HW113799   2.660   1.611   7.731
 4381SOL    HW213800   2.705   1.717   7.847
 4382SOL     OW13801   2.092   0.628   9.423
 4382SOL    HW113802   1.999   0.626   9.460
 4382SOL    HW213803   2.093   0.589   9.331
 4383SOL     OW13804   2.087   0.275  10.306
 4383SOL    HW113805   2.122   0.258  10.398
 4383SOL    HW213806   1.999   0.230  10.294
 4384SOL     OW13807   1.881   0.368   9.957
 4384SOL    HW113808   1.799   0.411   9.996
 4384SOL    HW213809   1.853   0.295   9.894
 4385SOL     OW13810   2.431   1.275  10.475
 4385SOL    HW113811   2.338   1.268  10.438
 4385SOL    HW213812   2.442   1.364  10.519
 4386SOL     OW13813   3.417   1.511  10.013
 4386SOL    HW113814   3.360   1.495  10.094
 4386SOL    HW213815   3.358   1.521   9.933
 4387SOL     OW13816   2.997   0.703  10.027
 4387SOL    HW113817   3.054   0.781  10.002
 4387SOL    HW213818   2.937   0.729  10.103
 4388SOL     OW13819   3.617   0.607   9.541
 4388SOL    HW113820   3.605   0.594   9.442
 4388SOL    HW213821   3.587   0.526   9.590
 4389SOL     OW13822   2.630   1.144  10.333
 4389SOL    HW113823   2.552   1.161  10.393
 4389SOL    HW213824   2.664   1.231  10.297
 4390SOL     OW13825   2.712   0.798  11.133
 4390SOL    HW113826   2.708   0.874  11.198
 4390SOL    HW213827   2.734   0.834  11.042
 4391SOL     OW13828   2.547   1.012   9.975
 4391SOL    HW113829   2.616   0.996  10.045
 4391SOL    HW213830   2.474   1.069  10.013
 4392SOL     OW13831   2.548   1.161  11.113
 4392SOL    HW113832   2.608   1.240  11.127
 4392SOL    HW213833   2.462   1.192  11.072
 4393SOL     OW13834   2.197   1.435  10.371
 4393SOL    HW113835   2.119   1.404  10.318
 4393SOL    HW213836   2.255   1.493  10.314
 4394SOL     OW13837   3.322   1.505  10.649
 4394SOL    HW113838   3.346   1.599  10.675
 4394SOL    HW213839   3.306   1.451  10.731
 4395SOL     OW13840   2.300   0.392  10.809
 4395SOL    HW113841   2.382   0.336  10.818
 4395SOL    HW213842   2.219   0.334  10.813
 4396SOL     OW13843   3.465   0.447  10.047
 4396SOL    HW113844   3.391   0.493   9.997
 4396SOL    HW213845   3.516   0.515  10.100
 4397SOL     OW13846   2.093   1.713   9.793
 4397SOL    HW113847   2.127   1.790   9.847
 4397SOL    HW213848   2.137   1.713   9.703
 4398SOL     OW13849   2.989   1.341  11.000
 4398SOL    HW113850   3.036   1.341  11.088
 4398SOL    HW213851   2.941   1.254  10.989
 4399SOL     OW13852   2.092   1.434   9.848
 4399SOL    HW113853   2.066   1.530   9.848
 4399SOL    HW213854   2.021   1.380   9.893
 4400SOL     OW13855   2.102   1.091  10.196
 4400SOL    HW113856   2.116   1.007  10.248
 4400SOL    HW213857   2.047   1.155  10.251
 4401SOL     OW13858   2.482   1.786  10.749
 4401SOL    HW113859   2.390   1.769  10.784
 4401SOL    HW213860   2.510   1.878  10.775
 4402SOL     OW13861   2.468   0.964   9.433
 4402SOL    HW113862   2.475   1.048   9.379
 4402SOL    HW213863   2.514   0.977   9.521
 4403SOL     OW13864   3.456   0.114  10.790
 4403SOL    HW113865   3.438   0.181  10.718
 4403SOL    HW213866   3.453   0.160  10.879
 4404SOL     OW13867   1.984   0.643   9.873
 4404SOL    HW113868   1.939   0.555   9.890
 4404SOL    HW213869   1.983   0.697   9.957
 4405SOL     OW13870   3.704   1.767   9.669
 4405SOL    HW113871   3.758   1.738   9.749
 4405SOL    HW213872   3.734   1.857   9.640
 4406SOL     OW13873   1.889   1.596   9.427
 4406SOL    HW113874   1.870   1.500   9.448
 4406SOL    HW213875   1.856   1.654   9.502
 4407SOL     OW13876   3.551   0.922   9.922
 4407SOL    HW113877   3.646   0.893   9.930
 4407SOL    HW213878   3.543   0.987   9.847
 4408SOL     OW13879   3.503   1.108   9.742
 4408SOL    HW113880   3.589   1.110   9.690
 4408SOL    HW213881   3.517   1.155   9.830
 4409SOL     OW13882   1.975   0.737  10.907
 4409SOL    HW113883   2.063   0.724  10.952
 4409SOL    HW213884   1.962   0.834  10.885
 4410SOL     OW13885   2.475   1.365  10.036
 4410SOL    HW113886   2.426   1.278  10.045
 4410SOL    HW213887   2.452   1.408   9.949
 4411SOL     OW13888   3.155   1.228  10.733
 4411SOL    HW113889   3.192   1.155  10.675
 4411SOL    HW213890   3.207   1.233  10.818
 4412SOL     OW13891   2.671   0.004   9.812
 4412SOL    HW113892   2.711   0.095   9.803
 4412SOL    HW213893   2.571   0.012   9.818
 4413SOL     OW13894   2.059   0.976  10.574
 4413SOL    HW113895   2.148   0.931  10.560
 4413SOL    HW213896   1.986   0.911  10.555
 4414SOL     OW13897   3.387   0.999   9.500
 4414SOL    HW113898   3.324   0.923   9.513
 4414SOL    HW213899   3.435   1.017   9.586
 4415SOL     OW13900   3.049   1.792  10.926
 4415SOL    HW113901   3.073   1.852  10.850
 4415SOL    HW213902   3.056   1.697  10.896
 4416SOL     OW13903   2.179   0.251  11.111
 4416SOL    HW113904   2.250   0.322  11.117
 4416SOL    HW213905   2.091   0.290  11.139
 4417SOL     OW13906   3.328   1.417  10.263
 4417SOL    HW113907   3.269   1.423  10.343
 4417SOL    HW213908   3.313   1.329  10.217
 4418SOL     OW13909   3.529   1.714   9.882
 4418SOL    HW113910   3.488   1.691   9.794
 4418SOL    HW213911   3.511   1.640   9.947
 4419SOL     OW13912   2.460   0.729   9.580
 4419SOL    HW113913   2.484   0.798   9.512
 4419SOL    HW213914   2.382   0.762   9.634
 4420SOL     OW13915   3.143   0.345  10.254
 4420SOL    HW113916   3.057   0.295  10.241
 4420SOL    HW213917   3.205   0.291  10.310
 4421SOL     OW13918   3.438   1.662   9.617
 4421SOL    HW113919   3.527   1.708   9.620
 4421SOL    HW213920   3.417   1.638   9.522
 4422SOL     OW13921   2.669   0.605  10.775
 4422SOL    HW113922   2.622   0.602  10.864
 4422SOL    HW213923   2.618   0.550  10.709
 4423SOL     OW13924   3.256   0.469  10.984
 4423SOL    HW113925   3.236   0.512  11.072
 4423SOL    HW213926   3.334   0.407  10.993
 4424SOL     OW13927   2.835   0.890  10.882
 4424SOL    HW113928   2.881   0.806  10.853
 4424SOL    HW213929   2.779   0.924  10.807
 4425SOL     OW13930   2.853   0.410  10.552
 4425SOL    HW113931   2.776   0.444  10.606
 4425SOL    HW213932   2.819   0.359  10.473
 4426SOL     OW13933   2.903   0.701   9.739
 4426SOL    HW113934   2.929   0.697   9.835
 4426SOL    HW213935   2.818   0.650   9.725
 4427SOL     OW13936   1.938   0.811  10.099
 4427SOL    HW113937   2.037   0.799  10.108
 4427SOL    HW213938   1.914   0.906  10.120
 4428SOL     OW13939   2.727   0.348   9.505
 4428SOL    HW113940   2.786   0.411   9.456
 4428SOL    HW213941   2.746   0.254   9.476
 4429SOL     OW13942   3.581   0.585  11.141
 4429SOL    HW113943   3.555   0.674  11.105
 4429SOL    HW213944   3.579   0.517  11.068
 4430SOL     OW13945   3.224   1.144   9.855
 4430SOL    HW113946   3.307   1.115   9.807
 4430SOL    HW213947   3.175   1.211   9.799
 4431SOL     OW13948   2.412   0.196  10.195
 4431SOL    HW113949   2.407   0.191  10.295
 4431SOL    HW213950   2.414   0.292  10.166
 4432SOL     OW13951   2.870   1.456   9.787
 4432SOL    HW113952   2.824   1.528   9.735
 4432SOL    HW213953   2.866   1.476   9.885
 4433SOL     OW13954   3.657   1.066  10.183
 4433SOL    HW113955   3.595   1.051  10.107
 4433SOL    HW213956   3.605   1.077  10.268
 4434SOL     OW13957   3.089   1.550  10.816
 4434SOL    HW113958   3.095   1.473  10.880
 4434SOL    HW213959   3.037   1.524  10.736
 4435SOL     OW13960   2.183   0.943   9.552
 4435SOL    HW113961   2.265   0.982   9.510
 4435SOL    HW213962   2.156   0.861   9.503
 4436SOL     OW13963   3.320   0.735  10.038
 4436SOL    HW113964   3.315   0.670  10.113
 4436SOL    HW213965   3.400   0.794  10.051
 4437SOL     OW13966   2.323   1.266  11.037
 4437SOL    HW113967   2.273   1.267  10.951
 4437SOL    HW213968   2.260   1.248  11.113
 4438SOL     OW13969   2.973   1.776   9.547
 4438SOL    HW113970   2.913   1.714   9.597
 4438SOL    HW213971   3.004   1.732   9.462
 4439SOL     OW13972   2.064   0.285  10.808
 4439SOL    HW113973   1.984   0.345  10.795
 4439SOL    HW213974   2.054   0.236  10.894
 4440SOL     OW13975   3.494   1.377   9.391
 4440SOL    HW113976   3.462   1.471   9.381
 4440SOL    HW213977   3.418   1.314   9.379
 4441SOL     OW13978   2.326   1.743   9.633
 4441SOL    HW113979   2.359   1.782   9.719
 4441SOL    HW213980   2.402   1.736   9.568
 4442SOL     OW13981   3.262   0.107   9.736
 4442SOL    HW113982   3.238   0.070   9.646
 4442SOL    HW213983   3.361   0.123   9.740
 4443SOL     OW13984   2.802   1.698  10.214
 4443SOL    HW113985   2.882   1.641  10.235
 4443SOL    HW213986   2.753   1.658  10.137
 4444SOL     OW13987   2.244   0.700   9.790
 4444SOL    HW113988   2.289   0.610   9.787
 4444SOL    HW213989   2.150   0.689   9.823
 4445SOL     OW13990   3.409   0.222  11.039
 4445SOL    HW113991   3.404   0.259  11.131
 4445SOL    HW213992   3.337   0.153  11.027
 4446SOL     OW13993   2.476   0.122   9.427
 4446SOL    HW113994   2.574   0.100   9.434
 4446SOL    HW213995   2.445   0.105   9.334
 4447SOL     OW13996   2.643   0.264  11.059
 4447SOL    HW113997   2.710   0.203  11.102
 4447SOL    HW213998   2.570   0.283  11.124
 4448SOL     OW13999   2.750   1.514  10.505
 4448SOL    HW114000   2.727   1.489  10.411
 4448SOL    HW214001   2.811   1.445  10.544
 4449SOL     OW14002   3.213   0.590  10.743
 4449SOL    HW114003   3.241   0.547  10.828
 4449SOL    HW214004   3.238   0.686  10.744
 4450SOL     OW14005   2.665   1.402  10.234
 4450SOL    HW114006   2.755   1.416  10.192
 4450SOL    HW214007   2.594   1.404  10.163
 4451SOL     OW14008   2.784   0.503  10.209
 4451SOL    HW114009   2.759   0.494  10.113
 4451SOL    HW214010   2.832   0.421  10.240
 4452SOL     OW14011   2.401   0.064   9.822
 4452SOL    HW114012   2.320   0.065   9.880
 4452SOL    HW214013   2.404   0.147   9.767
 4453SOL     OW14014   3.296   1.188   9.351
 4453SOL    HW114015   3.328   1.112   9.408
 4453SOL    HW214016   3.204   1.215   9.381
 4454SOL     OW14017   2.159   0.035   9.481
 4454SOL    HW114018   2.208   0.119   9.460
 4454SOL    HW214019   2.221  -0.030   9.526
 4455SOL     OW14020   2.797   0.236   9.790
 4455SOL    HW114021   2.749   0.277   9.712
 4455SOL    HW214022   2.896   0.234   9.771
 4456SOL     OW14023   2.938   0.683  10.774
 4456SOL    HW114024   2.858   0.622  10.777
 4456SOL    HW214025   3.019   0.630  10.750
 4457SOL     OW14026   3.089   1.570  10.103
 4457SOL    HW114027   3.110   1.644  10.038
 4457SOL    HW214028   3.157   1.570  10.176
 4458SOL     OW14029   2.321   1.152  10.051
 4458SOL    HW114030   2.250   1.125  10.116
 4458SOL    HW214031   2.295   1.124   9.958
 4459SOL     OW14032   3.133   1.797   9.901
 4459SOL    HW114033   3.177   1.861   9.837
 4459SOL    HW214034   3.083   1.849   9.971
 4460SOL     OW14035   2.894   0.549   9.326
 4460SOL    HW114036   2.853   0.631   9.287
 4460SOL    HW214037   2.958   0.575   9.399
 4461SOL     OW14038   1.940   0.556  10.696
 4461SOL    HW114039   2.032   0.555  10.655
 4461SOL    HW214040   1.934   0.630  10.763
 4462SOL     OW14041   2.423   0.222  10.457
 4462SOL    HW114042   2.461   0.138  10.494
 4462SOL    HW214043   2.335   0.241  10.501
 4463SOL     OW14044   2.728   0.454   9.952
 4463SOL    HW114045   2.696   0.526   9.890
 4463SOL    HW214046   2.752   0.373   9.899
 4464SOL     OW14047   2.879   0.039  10.063
 4464SOL    HW114048   2.807   0.044   9.994
 4464SOL    HW214049   2.855  -0.030  10.132
 4465SOL     OW14050   3.291   1.173  10.177
 4465SOL    HW114051   3.236   1.089  10.170
 4465SOL    HW214052   3.317   1.202  10.085
 4466SOL     OW14053   3.328   0.590  10.302
 4466SOL    HW114054   3.298   0.495  10.309
 4466SOL    HW214055   3.401   0.606  10.368
 4467SOL     OW14056   3.719   0.833   9.687
 4467SOL    HW114057   3.761   0.769   9.751
 4467SOL    HW214058   3.681   0.782   9.609
 4468SOL     OW14059   2.350   1.385   9.484
 4468SOL    HW114060   2.263   1.370   9.531
 4468SOL    HW214061   2.333   1.411   9.389
 4469SOL     OW14062   3.526   1.280   9.967
 4469SOL    HW114063   3.625   1.288   9.981
 4469SOL    HW214064   3.481   1.364   9.998
 4470SOL     OW14065   3.252   0.575   9.388
 4470SOL    HW114066   3.198   0.554   9.469
 4470SOL    HW214067   3.343   0.534   9.397
 4471SOL     OW14068   2.389   0.256   9.638
 4471SOL    HW114069   2.416   0.197   9.563
 4471SOL    HW214070   2.389   0.351   9.607
 4472SOL     OW14071   3.616   1.223  10.898
 4472SOL    HW114072   3.707   1.184  10.885
 4472SOL    HW214073   3.624   1.319  10.922
 4473SOL     OW14074   2.926   1.347  10.650
 4473SOL    HW114075   2.846   1.324  10.705
 4473SOL    HW214076   3.009   1.321  10.699
 4474SOL     OW14077   3.454   1.629  10.935
 4474SOL    HW114078   3.481   1.663  10.845
 4474SOL    HW214079   3.533   1.591  10.981
 4475SOL     OW14080   2.973   1.195  10.410
 4475SOL    HW114081   2.933   1.239  10.491
 4475SOL    HW214082   2.932   1.232  10.327
 4476SOL     OW14083   3.500   1.099  10.389
 4476SOL    HW114084   3.505   1.180  10.448
 4476SOL    HW214085   3.414   1.101  10.338
 4477SOL     OW14086   2.777   0.089  10.712
 4477SOL    HW114087   2.802   0.069  10.617
 4477SOL    HW214088   2.849   0.145  10.754
 4478SOL     OW14089   2.842   1.116  11.029
 4478SOL    HW114090   2.743   1.122  11.039
 4478SOL    HW214091   2.865   1.036  10.973
 4479SOL     OW14092   2.567   1.050   9.678
 4479SOL    HW114093   2.553   1.057   9.777
 4479SOL    HW214094   2.651   0.999   9.660
 4480SOL     OW14095   2.272   0.813  10.561
 4480SOL    HW114096   2.358   0.825  10.611
 4480SOL    HW214097   2.230   0.726  10.588
 4481SOL     OW14098   3.136   0.386  10.572
 4481SOL    HW114099   3.157   0.460  10.636
 4481SOL    HW214100   3.047   0.403  10.529
 4482SOL     OW14101   1.926   1.564  10.641
 4482SOL    HW114102   1.880   1.646  10.607
 4482SOL    HW214103   2.024   1.583  10.650
 4483SOL     OW14104   2.229   1.100   9.811
 4483SOL    HW114105   2.222   1.183   9.755
 4483SOL    HW214106   2.233   1.020   9.751
 4484SOL     OW14107   2.428   0.537  10.175
 4484SOL    HW114108   2.440   0.603  10.101
 4484SOL    HW214109   2.474   0.571  10.258
 4485SOL     OW14110   3.114   1.348   9.698
 4485SOL    HW114111   3.164   1.425   9.738
 4485SOL    HW214112   3.019   1.350   9.730
 4486SOL     OW14113   3.134   1.445  10.452
 4486SOL    HW114114   3.181   1.458  10.539
 4486SOL    HW214115   3.068   1.371  10.461
 4487SOL     OW14116   3.444   0.639   9.782
 4487SOL    HW114117   3.413   0.700   9.855
 4487SOL    HW214118   3.494   0.691   9.713
 4488SOL     OW14119   2.216   1.510  10.639
 4488SOL    HW114120   2.195   1.466  10.552
 4488SOL    HW214121   2.313   1.536  10.642
 4489SOL     OW14122   2.264   0.751  10.908
 4489SOL    HW114123   2.332   0.806  10.861
 4489SOL    HW214124   2.304   0.663  10.935
 4490SOL     OW14125   3.449   0.779  10.980
 4490SOL    HW114126   3.357   0.817  10.975
 4490SOL    HW214127   3.509   0.826  10.915
 4491SOL     OW14128   2.875   0.105  11.080
 4491SOL    HW114129   2.881   0.190  11.028
 4491SOL    HW214130   2.907   0.029  11.023
 4492SOL     OW14131   2.366   0.050  11.050
 4492SOL    HW114132   2.324  -0.007  10.980
 4492SOL    HW214133   2.300   0.119  11.082
 4493SOL     OW14134   2.435   0.870  10.339
 4493SOL    HW114135   2.479   0.959  10.330
 4493SOL    HW214136   2.372   0.870  10.416
 4494SOL     OW14137   3.222   0.862  10.355
 4494SOL    HW114138   3.147   0.862  10.289
 4494SOL    HW214139   3.259   0.770  10.364
 4495SOL     OW14140   3.071   0.525   9.585
 4495SOL    HW114141   3.084   0.441   9.639
 4495SOL    HW214142   3.042   0.599   9.645
 4496SOL     OW14143   2.169   0.213  10.541
 4496SOL    HW114144   2.146   0.250  10.631
 4496SOL    HW214145   2.139   0.118  10.535
 4497SOL     OW14146   1.899   1.310  10.592
 4497SOL    HW114147   1.952   1.261  10.660
 4497SOL    HW214148   1.921   1.408  10.597
 4498SOL     OW14149   2.594   0.634  10.374
 4498SOL    HW114150   2.653   0.608  10.298
 4498SOL    HW214151   2.566   0.730  10.363
 4499SOL     OW14152   3.590   0.935  11.164
 4499SOL    HW114153   3.544   0.928  11.075
 4499SOL    HW214154   3.528   0.979  11.230
 4500SOL     OW14155   2.169   0.063   9.928
 4500SOL    HW114156   2.158   0.157   9.961
 4500SOL    HW214157   2.164   0.000  10.005
 4501SOL     OW14158   3.484   0.367   9.684
 4501SOL    HW114159   3.486   0.291   9.748
 4501SOL    HW214160   3.436   0.444   9.724
 4502SOL     OW14161   2.885   0.766  10.276
 4502SOL    HW114162   2.900   0.787  10.372
 4502SOL    HW214163   2.855   0.671  10.267
 4503SOL     OW14164   2.842   1.573  11.010
 4503SOL    HW114165   2.822   1.617  10.922
 4503SOL    HW214166   2.881   1.482  10.994
 4504SOL     OW14167   3.721   1.518  10.915
 4504SOL    HW114168   3.735   1.545  10.820
 4504SOL    HW214169   3.804   1.540  10.968
 4505SOL     OW14170   2.212   0.898  11.114
 4505SOL    HW114171   2.288   0.942  11.162
 4505SOL    HW214172   2.247   0.851  11.032
 4506SOL     OW14173   3.402   0.274   9.435
 4506SOL    HW114174   3.341   0.199   9.458
 4506SOL    HW214175   3.424   0.326   9.518
 4507SOL     OW14176   3.165   0.838   9.352
 4507SOL    HW114177   3.199   0.745   9.367
 4507SOL    HW214178   3.183   0.865   9.257
 4508SOL     OW14179   2.930   1.333  10.159
 4508SOL    HW114180   2.937   1.249  10.104
 4508SOL    HW214181   2.992   1.402  10.123
 4509SOL     OW14182   2.181   0.810  10.259
 4509SOL    HW114183   2.274   0.846  10.264
 4509SOL    HW214184   2.175   0.725  10.311
 4510SOL     OW14185   2.201   0.509  10.316
 4510SOL    HW114186   2.149   0.426  10.299
 4510SOL    HW214187   2.278   0.514  10.252
 4511SOL     OW14188   3.000   0.380  10.988
 4511SOL    HW114189   2.955   0.443  11.052
 4511SOL    HW214190   3.093   0.411  10.971
 4512SOL     OW14191   3.022   0.207  10.787
 4512SOL    HW114192   3.022   0.271  10.864
 4512SOL    HW214193   3.050   0.255  10.704
 4513SOL     OW14194   1.870   1.326   9.510
 4513SOL    HW114195   1.777   1.347   9.479
 4513SOL    HW214196   1.880   1.227   9.523
 4514SOL     OW14197   2.366   1.568  10.220
 4514SOL    HW114198   2.432   1.642  10.229
 4514SOL    HW214199   2.410   1.489  10.178
 4515SOL     OW14200   2.864   0.796  10.548
 4515SOL    HW114201   2.905   0.764  10.634
 4515SOL    HW214202   2.768   0.769  10.545
 4516SOL     OW14203   1.902   0.544  10.424
 4516SOL    HW114204   1.987   0.511  10.383
 4516SOL    HW214205   1.915   0.559  10.522
 4517SOL     OW14206   2.051   0.520  11.032
 4517SOL    HW114207   2.110   0.480  10.962
 4517SOL    HW214208   1.993   0.591  10.991
 4518SOL     OW14209   3.231   0.950  10.970
 4518SOL    HW114210   3.270   1.039  10.990
 4518SOL    HW214211   3.241   0.930  10.873
 4519SOL     OW14212   2.677   0.572   9.635
 4519SOL    HW114213   2.684   0.483   9.589
 4519SOL    HW214214   2.583   0.606   9.627
 4520SOL     OW14215   3.519   0.604  10.516
 4520SOL    HW114216   3.481   0.535  10.578
 4520SOL    HW214217   3.601   0.568  10.472
 4521SOL     OW14218   2.114   1.564  11.054
 4521SOL    HW114219   2.084   1.621  11.130
 4521SOL    HW214220   2.107   1.467  11.080
 4522SOL     OW14221   2.533   0.464  10.579
 4522SOL    HW114222   2.499   0.375  10.549
 4522SOL    HW214223   2.559   0.518  10.499
 4523SOL     OW14224   2.792   1.678  10.775
 4523SOL    HW114225   2.768   1.660  10.680
 4523SOL    HW214226   2.822   1.772  10.785
 4524SOL     OW14227   2.335   0.500   9.501
 4524SOL    HW114228   2.396   0.580   9.505
 4524SOL    HW214229   2.240   0.531   9.508
 4525SOL     OW14230   2.021   1.137  10.776
 4525SOL    HW114231   2.043   1.076  10.852
 4525SOL    HW214232   2.031   1.088  10.690
 4526SOL     OW14233   3.209   1.059  10.544
 4526SOL    HW114234   3.233   0.996  10.470
 4526SOL    HW214235   3.119   1.099  10.526
 4527SOL     OW14236   3.164   0.855   9.619
 4527SOL    HW114237   3.078   0.824   9.661
 4527SOL    HW214238   3.160   0.841   9.520
 4528SOL     OW14239   3.621   1.747  10.464
 4528SOL    HW114240   3.682   1.777  10.391
 4528SOL    HW214241   3.583   1.658  10.442
 4529SOL     OW14242   3.114   1.731  10.438
 4529SOL    HW114243   3.198   1.736  10.384
 4529SOL    HW214244   3.091   1.635  10.456
 4530SOL     OW14245   1.945   1.258  10.332
 4530SOL    HW114246   1.940   1.257  10.432
 4530SOL    HW214247   1.862   1.217  10.294
 4531SOL     OW14248   2.550   1.662  11.026
 4531SOL    HW114249   2.494   1.743  11.035
 4531SOL    HW214250   2.602   1.666  10.940
 4532SOL     OW14251   3.588   0.135   9.833
 4532SOL    HW114252   3.661   0.118   9.766
 4532SOL    HW214253   3.557   0.048   9.871
 4533SOL     OW14254   3.250   1.573   9.787
 4533SOL    HW114255   3.317   1.585   9.713
 4533SOL    HW214256   3.210   1.662   9.810
 4534SOL     OW14257   3.142   0.927   9.982
 4534SOL    HW114258   3.202   0.846   9.984
 4534SOL    HW214259   3.182   0.996   9.922
 4535SOL     OW14260   2.692   1.273  10.732
 4535SOL    HW114261   2.687   1.306  10.827
 4535SOL    HW214262   2.606   1.292  10.686
 4536SOL     OW14263   2.534   1.616   9.464
 4536SOL    HW114264   2.543   1.626   9.365
 4536SOL    HW214265   2.494   1.527   9.485
 4537SOL     OW14266   3.512   1.720  10.704
 4537SOL    HW114267   3.565   1.730  10.620
 4537SOL    HW214268   3.485   1.810  10.738
 4538SOL     OW14269   3.703   0.175  10.273
 4538SOL    HW114270   3.742   0.090  10.237
 4538SOL    HW214271   3.605   0.177  10.254
 4539SOL     OW14272   2.125   0.326  10.030
 4539SOL    HW114273   2.046   0.377   9.996
 4539SOL    HW214274   2.116   0.311  10.128
 4540SOL     OW14275   3.056   1.612   9.341
 4540SOL    HW114276   3.062   1.519   9.378
 4540SOL    HW214277   2.997   1.612   9.261
 4541SOL     OW14278   2.684   1.002  10.682
 4541SOL    HW114279   2.724   1.001  10.590
 4541SOL    HW214280   2.694   1.094  10.722
 4542SOL     OW14281   2.778   0.910   9.601
 4542SOL    HW114282   2.841   0.948   9.533
 4542SOL    HW214283   2.818   0.827   9.640
 4543SOL     OW14284   3.366   1.607   9.354
 4543SOL    HW114285   3.274   1.644   9.361
 4543SOL    HW214286   3.404   1.627   9.264
 4544SOL     OW14287   2.234   1.288  10.800
 4544SOL    HW114288   2.221   1.381  10.766
 4544SOL    HW214289   2.150   1.236  10.787
 4545SOL     OW14290   3.476   1.292  10.599
 4545SOL    HW114291   3.536   1.295  10.679
 4545SOL    HW214292   3.401   1.356  10.612
 4546SOL     OW14293   2.901   1.098  10.006
 4546SOL    HW114294   2.831   1.051  10.060
 4546SOL    HW214295   2.960   1.030   9.963
 4547SOL     OW14296   2.876   0.236  10.281
 4547SOL    HW114297   2.868   0.200  10.188
 4547SOL    HW214298   2.874   0.160  10.346
 4548SOL     OW14299   2.452   1.487   9.801
 4548SOL    HW114300   2.494   1.429   9.731
 4548SOL    HW214301   2.408   1.566   9.757
 4549SOL     OW14302   3.571   0.385  10.691
 4549SOL    HW114303   3.644   0.454  10.695
 4549SOL    HW214304   3.599   0.310  10.632
 4550SOL     OW14305   2.117   1.348   9.600
 4550SOL    HW114306   2.021   1.349   9.573
 4550SOL    HW214307   2.129   1.401   9.684
 4551SOL     OW14308   1.967   1.013  11.036
 4551SOL    HW114309   1.890   0.980  11.090
 4551SOL    HW214310   2.052   0.983  11.078
 4552SOL     OW14311   2.534   0.203  10.799
 4552SOL    HW114312   2.624   0.187  10.759
 4552SOL    HW214313   2.542   0.208  10.898
 4553SOL     OW14314   1.937   0.345   9.343
 4553SOL    HW114315   1.845   0.317   9.314
 4553SOL    HW214316   1.968   0.422   9.287
 4554SOL     OW14317   3.302   0.856  10.708
 4554SOL    HW114318   3.245   0.908  10.645
 4554SOL    HW214319   3.398   0.868  10.684
 4555SOL     OW14320   1.934   0.166   9.628
 4555SOL    HW114321   1.917   0.249   9.574
 4555SOL    HW214322   2.024   0.129   9.606
 4556SOL     OW14323   3.045   1.335   9.429
 4556SOL    HW114324   2.946   1.324   9.431
 4556SOL    HW214325   3.079   1.350   9.522
 4557SOL     OW14326   2.475   0.842  10.741
 4557SOL    HW114327   2.531   0.923  10.724
 4557SOL    HW214328   2.534   0.762  10.744
 4558SOL     OW14329   3.355   1.767  10.269
 4558SOL    HW114330   3.388   1.831  10.200
 4558SOL    HW214331   3.421   1.761  10.344
 4559SOL     OW14332   2.578   0.565  11.018
 4559SOL    HW114333   2.597   0.630  11.092
 4559SOL    HW214334   2.638   0.485  11.027
 4560SOL     OW14335   3.312   1.220  10.943
 4560SOL    HW114336   3.303   1.210  11.042
 4560SOL    HW214337   3.408   1.213  10.917
 4561SOL     OW14338   3.536   0.883  10.564
 4561SOL    HW114339   3.509   0.794  10.527
 4561SOL    HW214340   3.537   0.951  10.491
 4562SOL     OW14341   3.087   0.325   9.759
 4562SOL    HW114342   3.152   0.251   9.748
 4562SOL    HW214343   3.107   0.375   9.843
 4563SOL     OW14344   2.456   0.745   9.962
 4563SOL    HW114345   2.506   0.830   9.943
 4563SOL    HW214346   2.368   0.747   9.914
 4564SOL     OW14347   3.639   0.342  10.952
 4564SOL    HW114348   3.622   0.373  10.858
 4564SOL    HW214349   3.555   0.305  10.990
 4565SOL     OW14350   3.592   0.934  10.827
 4565SOL    HW114351   3.630   1.025  10.842
 4565SOL    HW214352   3.584   0.917  10.728
 4566SOL     OW14353   2.721   1.374   9.326
 4566SOL    HW114354   2.675   1.389   9.414
 4566SOL    HW214355   2.765   1.459   9.296
 4567SOL     OW14356   2.523   1.790  10.263
 4567SOL    HW114357   2.477   1.878  10.250
 4567SOL    HW214358   2.622   1.802  10.256
 4568SOL     OW14359   2.721   0.956  10.171
 4568SOL    HW114360   2.775   0.887  10.219
 4568SOL    HW214361   2.689   1.025  10.237
 4569SOL     OW14362   2.945   0.984   9.397
 4569SOL    HW114363   2.922   1.037   9.315
 4569SOL    HW214364   3.026   0.928   9.378
 4570SOL     OW14365   3.723   1.569  10.161
 4570SOL    HW114366   3.652   1.557  10.091
 4570SOL    HW214367   3.724   1.490  10.221
 4571SOL     OW14368   2.083   1.314  11.154
 4571SOL    HW114369   2.018   1.241  11.133
 4571SOL    HW214370   2.087   1.328  11.252
 4572SOL     OW14371   1.941   1.240   9.963
 4572SOL    HW114372   1.940   1.193  10.051
 4572SOL    HW214373   2.023   1.212   9.912
 4573SOL     OW14374   2.534   1.391  10.934
 4573SOL    HW114375   2.456   1.341  10.972
 4573SOL    HW214376   2.531   1.486  10.965
 4574SOL     OW14377   3.686   0.192  10.537
 4574SOL    HW114378   3.682   0.102  10.581
 4574SOL    HW214379   3.689   0.181  10.438
 4575SOL     OW14380   2.290   0.424   9.830
 4575SOL    HW114381   2.320   0.352   9.768
 4575SOL    HW214382   2.251   0.384   9.913
 4576SOL     OW14383   3.567   1.487  10.414
 4576SOL    HW114384   3.474   1.462  10.387
 4576SOL    HW214385   3.593   1.437  10.496
 4577SOL     OW14386   2.179   0.547  10.590
 4577SOL    HW114387   2.217   0.488  10.662
 4577SOL    HW214388   2.219   0.521  10.502
 4578SOL     OW14389   2.674   1.586   9.997
 4578SOL    HW114390   2.706   1.596   9.903
 4578SOL    HW214391   2.595   1.524   9.999
 4579SOL     OW14392   3.286   0.214  10.422
 4579SOL    HW114393   3.338   0.149  10.477
 4579SOL    HW214394   3.237   0.277  10.483
 4580SOL     OW14395   2.863   0.034  10.464
 4580SOL    HW114396   2.800  -0.038  10.433
 4580SOL    HW214397   2.956  -0.002  10.464
 4581SOL     OW14398   2.632   1.330   9.611
 4581SOL    HW114399   2.586   1.243   9.628
 4581SOL    HW214400   2.723   1.327   9.652
 4582SOL     OW14401   2.480   1.567  10.594
 4582SOL    HW114402   2.475   1.649  10.651
 4582SOL    HW214403   2.569   1.564  10.549
 4583SOL     OW14404   3.214   0.052   9.478
 4583SOL    HW114405   3.249   0.011   9.394
 4583SOL    HW214406   3.124   0.014   9.498
 4584SOL     OW14407   3.162   0.453  10.001
 4584SOL    HW114408   3.103   0.533  10.005
 4584SOL    HW214409   3.177   0.418  10.094
 4585SOL     OW14410   3.455   0.221  10.192
 4585SOL    HW114411   3.371   0.220  10.246
 4585SOL    HW214412   3.457   0.304  10.136
 4586SOL     OW14413   1.901   1.077   9.610
 4586SOL    HW114414   2.000   1.066   9.601
 4586SOL    HW214415   1.861   0.991   9.642
 4587SOL     OW14416   2.737   1.646   9.647
 4587SOL    HW114417   2.660   1.611   9.593
 4587SOL    HW214418   2.705   1.717   9.709
 4588SOL     OW14419   2.092   0.628  11.285
 4588SOL    HW114420   1.999   0.626  11.322
 4588SOL    HW214421   2.093   0.589  11.193
 4589SOL     OW14422   2.087   0.275  12.168
 4589SOL    HW114423   2.122   0.258  12.260
 4589SOL    HW214424   1.999   0.230  12.156
 4590SOL     OW14425   1.881   0.368  11.819
 4590SOL    HW114426   1.799   0.411  11.858
 4590SOL    HW214427   1.853   0.295  11.756
 4591SOL     OW14428   2.431   1.275  12.337
 4591SOL    HW114429   2.338   1.268  12.300
 4591SOL    HW214430   2.442   1.364  12.381
 4592SOL     OW14431   3.417   1.511  11.875
 4592SOL    HW114432   3.360   1.495  11.956
 4592SOL    HW214433   3.358   1.521  11.795
 4593SOL     OW14434   2.997   0.703  11.889
 4593SOL    HW114435   3.054   0.781  11.864
 4593SOL    HW214436   2.937   0.729  11.965
 4594SOL     OW14437   3.617   0.607  11.403
 4594SOL    HW114438   3.605   0.594  11.304
 4594SOL    HW214439   3.587   0.526  11.452
 4595SOL     OW14440   2.630   1.144  12.195
 4595SOL    HW114441   2.552   1.161  12.255
 4595SOL    HW214442   2.664   1.231  12.159
 4596SOL     OW14443   2.712   0.798  12.995
 4596SOL    HW114444   2.708   0.874  13.060
 4596SOL    HW214445   2.734   0.834  12.904
 4597SOL     OW14446   2.547   1.012  11.837
 4597SOL    HW114447   2.616   0.996  11.907
 4597SOL    HW214448   2.474   1.069  11.875
 4598SOL     OW14449   2.548   1.161  12.975
 4598SOL    HW114450   2.608   1.240  12.989
 4598SOL    HW214451   2.462   1.192  12.934
 4599SOL     OW14452   2.197   1.435  12.233
 4599SOL    HW114453   2.119   1.404  12.180
 4599SOL    HW214454   2.255   1.493  12.176
 4600SOL     OW14455   3.322   1.505  12.511
 4600SOL    HW114456   3.346   1.599  12.537
 4600SOL    HW214457   3.306   1.451  12.593
 4601SOL     OW14458   2.300   0.392  12.671
 4601SOL    HW114459   2.382   0.336  12.680
 4601SOL    HW214460   2.219   0.334  12.675
 4602SOL     OW14461   3.465   0.447  11.909
 4602SOL    HW114462   3.391   0.493  11.859
 4602SOL    HW214463   3.516   0.515  11.962
 4603SOL     OW14464   2.989   1.341  12.862
 4603SOL    HW114465   3.036   1.341  12.950
 4603SOL    HW214466   2.941   1.254  12.851
 4604SOL     OW14467   2.092   1.434  11.710
 4604SOL    HW114468   2.066   1.530  11.710
 4604SOL    HW214469   2.021   1.380  11.755
 4605SOL     OW14470   2.102   1.091  12.058
 4605SOL    HW114471   2.116   1.007  12.110
 4605SOL    HW214472   2.047   1.155  12.113
 4606SOL     OW14473   2.482   1.786  12.611
 4606SOL    HW114474   2.390   1.769  12.646
 4606SOL    HW214475   2.510   1.878  12.637
 4607SOL     OW14476   2.468   0.964  11.295
 4607SOL    HW114477   2.475   1.048  11.241
 4607SOL    HW214478   2.514   0.977  11.383
 4608SOL     OW14479   3.456   0.114  12.652
 4608SOL    HW114480   3.438   0.181  12.580
 4608SOL    HW214481   3.453   0.160  12.741
 4609SOL     OW14482   1.984   0.643  11.735
 4609SOL    HW114483   1.939   0.555  11.752
 4609SOL    HW214484   1.983   0.697  11.819
 4610SOL     OW14485   3.704   1.767  11.531
 4610SOL    HW114486   3.758   1.738  11.611
 4610SOL    HW214487   3.734   1.857  11.502
 4611SOL     OW14488   1.889   1.596  11.289
 4611SOL    HW114489   1.870   1.500  11.310
 4611SOL    HW214490   1.856   1.654  11.364
 4612SOL     OW14491   3.551   0.922  11.784
 4612SOL    HW114492   3.646   0.893  11.792
 4612SOL    HW214493   3.543   0.987  11.709
 4613SOL     OW14494   3.503   1.108  11.604
 4613SOL    HW114495   3.589   1.110  11.552
 4613SOL    HW214496   3.517   1.155  11.692
 4614SOL     OW14497   1.975   0.737  12.769
 4614SOL    HW114498   2.063   0.724  12.814
 4614SOL    HW214499   1.962   0.834  12.747
 4615SOL     OW14500   2.475   1.365  11.898
 4615SOL    HW114501   2.426   1.278  11.907
 4615SOL    HW214502   2.452   1.408  11.811
 4616SOL     OW14503   3.155   1.228  12.595
 4616SOL    HW114504   3.192   1.155  12.537
 4616SOL    HW214505   3.207   1.233  12.680
 4617SOL     OW14506   2.671   0.004  11.674
 4617SOL    HW114507   2.711   0.095  11.665
 4617SOL    HW214508   2.571   0.012  11.680
 4618SOL     OW14509   2.059   0.976  12.436
 4618SOL    HW114510   2.148   0.931  12.422
 4618SOL    HW214511   1.986   0.911  12.417
 4619SOL     OW14512   3.387   0.999  11.362
 4619SOL    HW114513   3.324   0.923  11.375
 4619SOL    HW214514   3.435   1.017  11.448
 4620SOL     OW14515   3.049   1.792  12.788
 4620SOL    HW114516   3.073   1.852  12.712
 4620SOL    HW214517   3.056   1.697  12.758
 4621SOL     OW14518   2.179   0.251  12.973
 4621SOL    HW114519   2.250   0.322  12.979
 4621SOL    HW214520   2.091   0.290  13.001
 4622SOL     OW14521   3.328   1.417  12.125
 4622SOL    HW114522   3.269   1.423  12.205
 4622SOL    HW214523   3.313   1.329  12.079
 4623SOL     OW14524   3.529   1.714  11.744
 4623SOL    HW114525   3.488   1.691  11.656
 4623SOL    HW214526   3.511   1.640  11.809
 4624SOL     OW14527   2.460   0.729  11.442
 4624SOL    HW114528   2.484   0.798  11.374
 4624SOL    HW214529   2.382   0.762  11.496
 4625SOL     OW14530   3.143   0.345  12.116
 4625SOL    HW114531   3.057   0.295  12.103
 4625SOL    HW214532   3.205   0.291  12.172
 4626SOL     OW14533   3.438   1.662  11.479
 4626SOL    HW114534   3.527   1.708  11.482
 4626SOL    HW214535   3.417   1.638  11.384
 4627SOL     OW14536   2.669   0.605  12.637
 4627SOL    HW114537   2.622   0.602  12.726
 4627SOL    HW214538   2.618   0.550  12.571
 4628SOL     OW14539   3.256   0.469  12.846
 4628SOL    HW114540   3.236   0.512  12.934
 4628SOL    HW214541   3.334   0.407  12.855
 4629SOL     OW14542   2.835   0.890  12.744
 4629SOL    HW114543   2.881   0.806  12.715
 4629SOL    HW214544   2.779   0.924  12.669
 4630SOL     OW14545   2.853   0.410  12.414
 4630SOL    HW114546   2.776   0.444  12.468
 4630SOL    HW214547   2.819   0.359  12.335
 4631SOL     OW14548   2.903   0.701  11.601
 4631SOL    HW114549   2.929   0.697  11.697
 4631SOL    HW214550   2.818   0.650  11.587
 4632SOL     OW14551   1.938   0.811  11.961
 4632SOL    HW114552   2.037   0.799  11.970
 4632SOL    HW214553   1.914   0.906  11.982
 4633SOL     OW14554   2.727   0.348  11.367
 4633SOL    HW114555   2.786   0.411  11.318
 4633SOL    HW214556   2.746   0.254  11.338
 4634SOL     OW14557   3.581   0.585  13.003
 4634SOL    HW114558   3.555   0.674  12.967
 4634SOL    HW214559   3.579   0.517  12.930
 4635SOL     OW14560   3.224   1.144  11.717
 4635SOL    HW114561   3.307   1.115  11.669
 4635SOL    HW214562   3.175   1.211  11.661
 4636SOL     OW14563   2.412   0.196  12.057
 4636SOL    HW114564   2.407   0.191  12.157
 4636SOL    HW214565   2.414   0.292  12.028
 4637SOL     OW14566   2.870   1.456  11.649
 4637SOL    HW114567   2.824   1.528  11.597
 4637SOL    HW214568   2.866   1.476  11.747
 4638SOL     OW14569   3.657   1.066  12.045
 4638SOL    HW114570   3.595   1.051  11.969
 4638SOL    HW214571   3.605   1.077  12.130
 4639SOL     OW14572   3.089   1.550  12.678
 4639SOL    HW114573   3.095   1.473  12.742
 4639SOL    HW214574   3.037   1.524  12.598
 4640SOL     OW14575   2.183   0.943  11.414
 4640SOL    HW114576   2.265   0.982  11.372
 4640SOL    HW214577   2.156   0.861  11.365
 4641SOL     OW14578   3.320   0.735  11.900
 4641SOL    HW114579   3.315   0.670  11.975
 4641SOL    HW214580   3.400   0.794  11.913
 4642SOL     OW14581   2.323   1.266  12.899
 4642SOL    HW114582   2.273   1.267  12.813
 4642SOL    HW214583   2.260   1.248  12.975
 4643SOL     OW14584   2.973   1.776  11.409
 4643SOL    HW114585   2.913   1.714  11.459
 4643SOL    HW214586   3.004   1.732  11.324
 4644SOL     OW14587   2.064   0.285  12.670
 4644SOL    HW114588   1.984   0.345  12.657
 4644SOL    HW214589   2.054   0.236  12.756
 4645SOL     OW14590   3.494   1.377  11.253
 4645SOL    HW114591   3.462   1.471  11.243
 4645SOL    HW214592   3.418   1.314  11.241
 4646SOL     OW14593   2.326   1.743  11.495
 4646SOL    HW114594   2.359   1.782  11.581
 4646SOL    HW214595   2.402   1.736  11.430
 4647SOL     OW14596   3.262   0.107  11.598
 4647SOL    HW114597   3.238   0.070  11.508
 4647SOL    HW214598   3.361   0.123  11.602
 4648SOL     OW14599   2.802   1.698  12.076
 4648SOL    HW114600   2.882   1.641  12.097
 4648SOL    HW214601   2.753   1.658  11.999
 4649SOL     OW14602   2.244   0.700  11.652
 4649SOL    HW114603   2.289   0.610  11.649
 4649SOL    HW214604   2.150   0.689  11.685
 4650SOL     OW14605   3.409   0.222  12.901
 4650SOL    HW114606   3.404   0.259  12.993
 4650SOL    HW214607   3.337   0.153  12.889
 4651SOL     OW14608   2.476   0.122  11.289
 4651SOL    HW114609   2.574   0.100  11.296
 4651SOL    HW214610   2.445   0.105  11.196
 4652SOL     OW14611   2.643   0.264  12.921
 4652SOL    HW114612   2.710   0.203  12.964
 4652SOL    HW214613   2.570   0.283  12.986
 4653SOL     OW14614   2.750   1.514  12.367
 4653SOL    HW114615   2.727   1.489  12.273
 4653SOL    HW214616   2.811   1.445  12.406
 4654SOL     OW14617   3.213   0.590  12.605
 4654SOL    HW114618   3.241   0.547  12.690
 4654SOL    HW214619   3.238   0.686  12.606
 4655SOL     OW14620   2.665   1.402  12.096
 4655SOL    HW114621   2.755   1.416  12.054
 4655SOL    HW214622   2.594   1.404  12.025
 4656SOL     OW14623   2.784   0.503  12.071
 4656SOL    HW114624   2.759   0.494  11.975
 4656SOL    HW214625   2.832   0.421  12.102
 4657SOL     OW14626   2.401   0.064  11.684
 4657SOL    HW114627   2.320   0.065  11.742
 4657SOL    HW214628   2.404   0.147  11.629
 4658SOL     OW14629   3.296   1.188  11.213
 4658SOL    HW114630   3.328   1.112  11.270
 4658SOL    HW214631   3.204   1.215  11.243
 4659SOL     OW14632   2.159   0.035  11.343
 4659SOL    HW114633   2.208   0.119  11.322
 4659SOL    HW214634   2.221  -0.030  11.388
 4660SOL     OW14635   2.797   0.236  11.652
 4660SOL    HW114636   2.749   0.277  11.574
 4660SOL    HW214637   2.896   0.234  11.633
 4661SOL     OW14638   2.938   0.683  12.636
 4661SOL    HW114639   2.858   0.622  12.639
 4661SOL    HW214640   3.019   0.630  12.612
 4662SOL     OW14641   3.089   1.570  11.965
 4662SOL    HW114642   3.110   1.644  11.900
 4662SOL    HW214643   3.157   1.570  12.038
 4663SOL     OW14644   2.321   1.152  11.913
 4663SOL    HW114645   2.250   1.125  11.978
 4663SOL    HW214646   2.295   1.124  11.820
 4664SOL     OW14647   3.133   1.797  11.763
 4664SOL    HW114648   3.177   1.861  11.699
 4664SOL    HW214649   3.083   1.849  11.833
 4665SOL     OW14650   2.894   0.549  11.188
 4665SOL    HW114651   2.853   0.631  11.149
 4665SOL    HW214652   2.958   0.575  11.261
 4666SOL     OW14653   1.940   0.556  12.558
 4666SOL    HW114654   2.032   0.555  12.517
 4666SOL    HW214655   1.934   0.630  12.625
 4667SOL     OW14656   2.423   0.222  12.319
 4667SOL    HW114657   2.461   0.138  12.356
 4667SOL    HW214658   2.335   0.241  12.363
 4668SOL     OW14659   2.728   0.454  11.814
 4668SOL    HW114660   2.696   0.526  11.752
 4668SOL    HW214661   2.752   0.373  11.761
 4669SOL     OW14662   2.879   0.039  11.925
 4669SOL    HW114663   2.807   0.044  11.856
 4669SOL    HW214664   2.855  -0.030  11.994
 4670SOL     OW14665   3.291   1.173  12.039
 4670SOL    HW114666   3.236   1.089  12.032
 4670SOL    HW214667   3.317   1.202  11.947
 4671SOL     OW14668   3.328   0.590  12.164
 4671SOL    HW114669   3.298   0.495  12.171
 4671SOL    HW214670   3.401   0.606  12.230
 4672SOL     OW14671   3.719   0.833  11.549
 4672SOL    HW114672   3.761   0.769  11.613
 4672SOL    HW214673   3.681   0.782  11.471
 4673SOL     OW14674   2.350   1.385  11.346
 4673SOL    HW114675   2.263   1.370  11.393
 4673SOL    HW214676   2.333   1.411  11.251
 4674SOL     OW14677   3.526   1.280  11.829
 4674SOL    HW114678   3.625   1.288  11.843
 4674SOL    HW214679   3.481   1.364  11.860
 4675SOL     OW14680   3.252   0.575  11.250
 4675SOL    HW114681   3.198   0.554  11.331
 4675SOL    HW214682   3.343   0.534  11.259
 4676SOL     OW14683   2.389   0.256  11.500
 4676SOL    HW114684   2.416   0.197  11.425
 4676SOL    HW214685   2.389   0.351  11.469
 4677SOL     OW14686   3.616   1.223  12.760
 4677SOL    HW114687   3.707   1.184  12.747
 4677SOL    HW214688   3.624   1.319  12.784
 4678SOL     OW14689   2.926   1.347  12.512
 4678SOL    HW114690   2.846   1.324  12.567
 4678SOL    HW214691   3.009   1.321  12.561
 4679SOL     OW14692   3.454   1.629  12.797
 4679SOL    HW114693   3.481   1.663  12.707
 4679SOL    HW214694   3.533   1.591  12.843
 4680SOL     OW14695   2.973   1.195  12.272
 4680SOL    HW114696   2.933   1.239  12.353
 4680SOL    HW214697   2.932   1.232  12.189
 4681SOL     OW14698   3.500   1.099  12.251
 4681SOL    HW114699   3.505   1.180  12.310
 4681SOL    HW214700   3.414   1.101  12.200
 4682SOL     OW14701   2.777   0.089  12.574
 4682SOL    HW114702   2.802   0.069  12.479
 4682SOL    HW214703   2.849   0.145  12.616
 4683SOL     OW14704   2.842   1.116  12.891
 4683SOL    HW114705   2.743   1.122  12.901
 4683SOL    HW214706   2.865   1.036  12.835
 4684SOL     OW14707   2.567   1.050  11.540
 4684SOL    HW114708   2.553   1.057  11.639
 4684SOL    HW214709   2.651   0.999  11.522
 4685SOL     OW14710   2.272   0.813  12.423
 4685SOL    HW114711   2.358   0.825  12.473
 4685SOL    HW214712   2.230   0.726  12.450
 4686SOL     OW14713   3.136   0.386  12.434
 4686SOL    HW114714   3.157   0.460  12.498
 4686SOL    HW214715   3.047   0.403  12.391
 4687SOL     OW14716   1.926   1.564  12.503
 4687SOL    HW114717   1.880   1.646  12.469
 4687SOL    HW214718   2.024   1.583  12.512
 4688SOL     OW14719   2.229   1.100  11.673
 4688SOL    HW114720   2.222   1.183  11.617
 4688SOL    HW214721   2.233   1.020  11.613
 4689SOL     OW14722   2.428   0.537  12.037
 4689SOL    HW114723   2.440   0.603  11.963
 4689SOL    HW214724   2.474   0.571  12.120
 4690SOL     OW14725   3.114   1.348  11.560
 4690SOL    HW114726   3.164   1.425  11.600
 4690SOL    HW214727   3.019   1.350  11.592
 4691SOL     OW14728   3.134   1.445  12.314
 4691SOL    HW114729   3.181   1.458  12.401
 4691SOL    HW214730   3.068   1.371  12.323
 4692SOL     OW14731   3.444   0.639  11.644
 4692SOL    HW114732   3.413   0.700  11.717
 4692SOL    HW214733   3.494   0.691  11.575
 4693SOL     OW14734   2.216   1.510  12.501
 4693SOL    HW114735   2.195   1.466  12.414
 4693SOL    HW214736   2.313   1.536  12.504
 4694SOL     OW14737   2.264   0.751  12.770
 4694SOL    HW114738   2.332   0.806  12.723
 4694SOL    HW214739   2.304   0.663  12.797
 4695SOL     OW14740   3.449   0.779  12.842
 4695SOL    HW114741   3.357   0.817  12.837
 4695SOL    HW214742   3.509   0.826  12.777
 4696SOL     OW14743   2.875   0.105  12.942
 4696SOL    HW114744   2.881   0.190  12.890
 4696SOL    HW214745   2.907   0.029  12.885
 4697SOL     OW14746   2.366   0.050  12.912
 4697SOL    HW114747   2.324  -0.007  12.842
 4697SOL    HW214748   2.300   0.119  12.944
 4698SOL     OW14749   2.435   0.870  12.201
 4698SOL    HW114750   2.479   0.959  12.192
 4698SOL    HW214751   2.372   0.870  12.278
 4699SOL     OW14752   3.222   0.862  12.217
 4699SOL    HW114753   3.147   0.862  12.151
 4699SOL    HW214754   3.259   0.770  12.226
 4700SOL     OW14755   3.071   0.525  11.447
 4700SOL    HW114756   3.084   0.441  11.501
 4700SOL    HW214757   3.042   0.599  11.507
 4701SOL     OW14758   2.169   0.213  12.403
 4701SOL    HW114759   2.146   0.250  12.493
 4701SOL    HW214760   2.139   0.118  12.397
 4702SOL     OW14761   1.899   1.310  12.454
 4702SOL    HW114762   1.952   1.261  12.522
 4702SOL    HW214763   1.921   1.408  12.459
 4703SOL     OW14764   2.594   0.634  12.236
 4703SOL    HW114765   2.653   0.608  12.160
 4703SOL    HW214766   2.566   0.730  12.225
 4704SOL     OW14767   3.590   0.935  13.026
 4704SOL    HW114768   3.544   0.928  12.937
 4704SOL    HW214769   3.528   0.979  13.092
 4705SOL     OW14770   2.169   0.063  11.790
 4705SOL    HW114771   2.158   0.157  11.823
 4705SOL    HW214772   2.164   0.000  11.867
 4706SOL     OW14773   3.484   0.367  11.546
 4706SOL    HW114774   3.486   0.291  11.610
 4706SOL    HW214775   3.436   0.444  11.586
 4707SOL     OW14776   2.885   0.766  12.138
 4707SOL    HW114777   2.900   0.787  12.234
 4707SOL    HW214778   2.855   0.671  12.129
 4708SOL     OW14779   2.842   1.573  12.872
 4708SOL    HW114780   2.822   1.617  12.784
 4708SOL    HW214781   2.881   1.482  12.856
 4709SOL     OW14782   3.721   1.518  12.777
 4709SOL    HW114783   3.735   1.545  12.682
 4709SOL    HW214784   3.804   1.540  12.830
 4710SOL     OW14785   2.212   0.898  12.976
 4710SOL    HW114786   2.288   0.942  13.024
 4710SOL    HW214787   2.247   0.851  12.894
 4711SOL     OW14788   3.402   0.274  11.297
 4711SOL    HW114789   3.341   0.199  11.320
 4711SOL    HW214790   3.424   0.326  11.380
 4712SOL     OW14791   3.165   0.838  11.214
 4712SOL    HW114792   3.199   0.745  11.229
 4712SOL    HW214793   3.183   0.865  11.119
 4713SOL     OW14794   2.930   1.333  12.021
 4713SOL    HW114795   2.937   1.249  11.966
 4713SOL    HW214796   2.992   1.402  11.985
 4714SOL     OW14797   2.181   0.810  12.121
 4714SOL    HW114798   2.274   0.846  12.126
 4714SOL    HW214799   2.175   0.725  12.173
 4715SOL     OW14800   2.201   0.509  12.178
 4715SOL    HW114801   2.149   0.426  12.161
 4715SOL    HW214802   2.278   0.514  12.114
 4716SOL     OW14803   3.000   0.380  12.850
 4716SOL    HW114804   2.955   0.443  12.914
 4716SOL    HW214805   3.093   0.411  12.833
 4717SOL     OW14806   3.022   0.207  12.649
 4717SOL    HW114807   3.022   0.271  12.726
 4717SOL    HW214808   3.050   0.255  12.566
 4718SOL     OW14809   1.870   1.326  11.372
 4718SOL    HW114810   1.777   1.347  11.341
 4718SOL    HW214811   1.880   1.227  11.385
 4719SOL     OW14812   2.366   1.568  12.082
 4719SOL    HW114813   2.432   1.642  12.091
 4719SOL    HW214814   2.410   1.489  12.040
 4720SOL     OW14815   2.864   0.796  12.410
 4720SOL    HW114816   2.905   0.764  12.496
 4720SOL    HW214817   2.768   0.769  12.407
 4721SOL     OW14818   1.902   0.544  12.286
 4721SOL    HW114819   1.987   0.511  12.245
 4721SOL    HW214820   1.915   0.559  12.384
 4722SOL     OW14821   2.051   0.520  12.894
 4722SOL    HW114822   2.110   0.480  12.824
 4722SOL    HW214823   1.993   0.591  12.853
 4723SOL     OW14824   3.231   0.950  12.832
 4723SOL    HW114825   3.270   1.039  12.852
 4723SOL    HW214826   3.241   0.930  12.735
 4724SOL     OW14827   2.677   0.572  11.497
 4724SOL    HW114828   2.684   0.483  11.451
 4724SOL    HW214829   2.583   0.606  11.489
 4725SOL     OW14830   3.519   0.604  12.378
 4725SOL    HW114831   3.481   0.535  12.440
 4725SOL    HW214832   3.601   0.568  12.334
 4726SOL     OW14833   2.114   1.564  12.916
 4726SOL    HW114834   2.084   1.621  12.992
 4726SOL    HW214835   2.107   1.467  12.942
 4727SOL     OW14836   2.533   0.464  12.441
 4727SOL    HW114837   2.499   0.375  12.411
 4727SOL    HW214838   2.559   0.518  12.361
 4728SOL     OW14839   2.792   1.678  12.637
 4728SOL    HW114840   2.768   1.660  12.542
 4728SOL    HW214841   2.822   1.772  12.647
 4729SOL     OW14842   2.335   0.500  11.363
 4729SOL    HW114843   2.396   0.580  11.367
 4729SOL    HW214844   2.240   0.531  11.370
 4730SOL     OW14845   2.021   1.137  12.638
 4730SOL    HW114846   2.043   1.076  12.714
 4730SOL    HW214847   2.031   1.088  12.552
 4731SOL     OW14848   3.209   1.059  12.406
 4731SOL    HW114849   3.233   0.996  12.332
 4731SOL    HW214850   3.119   1.099  12.388
 4732SOL     OW14851   3.164   0.855  11.481
 4732SOL    HW114852   3.078   0.824  11.523
 4732SOL    HW214853   3.160   0.841  11.382
 4733SOL     OW14854   3.621   1.747  12.326
 4733SOL    HW114855   3.682   1.777  12.253
 4733SOL    HW214856   3.583   1.658  12.304
 4734SOL     OW14857   3.114   1.731  12.300
 4734SOL    HW114858   3.198   1.736  12.246
 4734SOL    HW214859   3.091   1.635  12.318
 4735SOL     OW14860   1.945   1.258  12.194
 4735SOL    HW114861   1.940   1.257  12.294
 4735SOL    HW214862   1.862   1.217  12.156
 4736SOL     OW14863   2.550   1.662  12.888
 4736SOL    HW114864   2.494   1.743  12.897
 4736SOL    HW214865   2.602   1.666  12.802
 4737SOL     OW14866   3.588   0.135  11.695
 4737SOL    HW114867   3.661   0.118  11.628
 4737SOL    HW214868   3.557   0.048  11.733
 4738SOL     OW14869   3.250   1.573  11.649
 4738SOL    HW114870   3.317   1.585  11.575
 4738SOL    HW214871   3.210   1.662  11.672
 4739SOL     OW14872   3.142   0.927  11.844
 4739SOL    HW114873   3.202   0.846  11.846
 4739SOL    HW214874   3.182   0.996  11.784
 4740SOL     OW14875   2.692   1.273  12.594
 4740SOL    HW114876   2.687   1.306  12.689
 4740SOL    HW214877   2.606   1.292  12.548
 4741SOL     OW14878   2.534   1.616  11.326
 4741SOL    HW114879   2.543   1.626  11.227
 4741SOL    HW214880   2.494   1.527  11.347
 4742SOL     OW14881   3.512   1.720  12.566
 4742SOL    HW114882   3.565   1.730  12.482
 4742SOL    HW214883   3.485   1.810  12.600
 4743SOL     OW14884   3.703   0.175  12.135
 4743SOL    HW114885   3.742   0.090  12.099
 4743SOL    HW214886   3.605   0.177  12.116
 4744SOL     OW14887   2.125   0.326  11.892
 4744SOL    HW114888   2.046   0.377  11.858
 4744SOL    HW214889   2.116   0.311  11.990
 4745SOL     OW14890   3.056   1.612  11.203
 4745SOL    HW114891   3.062   1.519  11.240
 4745SOL    HW214892   2.997   1.612  11.123
 4746SOL     OW14893   2.684   1.002  12.544
 4746SOL    HW114894   2.724   1.001  12.452
 4746SOL    HW214895   2.694   1.094  12.584
 4747SOL     OW14896   2.778   0.910  11.463
 4747SOL    HW114897   2.841   0.948  11.395
 4747SOL    HW214898   2.818   0.827  11.502
 4748SOL     OW14899   3.366   1.607  11.216
 4748SOL    HW114900   3.274   1.644  11.223
 4748SOL    HW214901   3.404   1.627  11.126
 4749SOL     OW14902   2.234   1.288  12.662
 4749SOL    HW114903   2.221   1.381  12.628
 4749SOL    HW214904   2.150   1.236  12.649
 4750SOL     OW14905   3.476   1.292  12.461
 4750SOL    HW114906   3.536   1.295  12.541
 4750SOL    HW214907   3.401   1.356  12.474
 4751SOL     OW14908   2.901   1.098  11.868
 4751SOL    HW114909   2.831   1.051  11.922
 4751SOL    HW214910   2.960   1.030  11.825
 4752SOL     OW14911   2.876   0.236  12.143
 4752SOL    HW114912   2.868   0.200  12.050
 4752SOL    HW214913   2.874   0.160  12.208
 4753SOL     OW14914   2.452   1.487  11.663
 4753SOL    HW114915   2.494   1.429  11.593
 4753SOL    HW214916   2.408   1.566  11.619
 4754SOL     OW14917   3.571   0.385  12.553
 4754SOL    HW114918   3.644   0.454  12.557
 4754SOL    HW214919   3.599   0.310  12.494
 4755SOL     OW14920   2.117   1.348  11.462
 4755SOL    HW114921   2.021   1.349  11.435
 4755SOL    HW214922   2.129   1.401  11.546
 4756SOL     OW14923   1.967   1.013  12.898
 4756SOL    HW114924   1.890   0.980  12.952
 4756SOL    HW214925   2.052   0.983  12.940
 4757SOL     OW14926   2.534   0.203  12.661
 4757SOL    HW114927   2.624   0.187  12.621
 4757SOL    HW214928   2.542   0.208  12.760
 4758SOL     OW14929   1.937   0.345  11.205
 4758SOL    HW114930   1.845   0.317  11.176
 4758SOL    HW214931   1.968   0.422  11.149
 4759SOL     OW14932   3.302   0.856  12.570
 4759SOL    HW114933   3.245   0.908  12.507
 4759SOL    HW214934   3.398   0.868  12.546
 4760SOL     OW14935   1.934   0.166  11.490
 4760SOL    HW114936   1.917   0.249  11.436
 4760SOL    HW214937   2.024   0.129  11.468
 4761SOL     OW14938   3.045   1.335  11.291
 4761SOL    HW114939   2.946   1.324  11.293
 4761SOL    HW214940   3.079   1.350  11.384
 4762SOL     OW14941   2.475   0.842  12.603
 4762SOL    HW114942   2.531   0.923  12.586
 4762SOL    HW214943   2.534   0.762  12.606
 4763SOL     OW14944   3.355   1.767  12.131
 4763SOL    HW114945   3.388   1.831  12.062
 4763SOL    HW214946   3.421   1.761  12.206
 4764SOL     OW14947   2.578   0.565  12.880
 4764SOL    HW114948   2.597   0.630  12.954
 4764SOL    HW214949   2.638   0.485  12.889
 4765SOL     OW14950   3.312   1.220  12.805
 4765SOL    HW114951   3.303   1.210  12.904
 4765SOL    HW214952   3.408   1.213  12.779
 4766SOL     OW14953   3.536   0.883  12.426
 4766SOL    HW114954   3.509   0.794  12.389
 4766SOL    HW214955   3.537   0.951  12.353
 4767SOL     OW14956   3.087   0.325  11.621
 4767SOL    HW114957   3.152   0.251  11.610
 4767SOL    HW214958   3.107   0.375  11.705
 4768SOL     OW14959   2.456   0.745  11.824
 4768SOL    HW114960   2.506   0.830  11.805
 4768SOL    HW214961   2.368   0.747  11.776
 4769SOL     OW14962   3.639   0.342  12.814
 4769SOL    HW114963   3.622   0.373  12.720
 4769SOL    HW214964   3.555   0.305  12.852
 4770SOL     OW14965   3.592   0.934  12.689
 4770SOL    HW114966   3.630   1.025  12.704
 4770SOL    HW214967   3.584   0.917  12.590
 4771SOL     OW14968   2.721   1.374  11.188
 4771SOL    HW114969   2.675   1.389  11.276
 4771SOL    HW214970   2.765   1.459  11.158
 4772SOL     OW14971   2.523   1.790  12.125
 4772SOL    HW114972   2.477   1.878  12.112
 4772SOL    HW214973   2.622   1.802  12.118
 4773SOL     OW14974   2.721   0.956  12.033
 4773SOL    HW114975   2.775   0.887  12.081
 4773SOL    HW214976   2.689   1.025  12.099
 4774SOL     OW14977   2.945   0.984  11.259
 4774SOL    HW114978   2.922   1.037  11.177
 4774SOL    HW214979   3.026   0.928  11.240
 4775SOL     OW14980   3.723   1.569  12.023
 4775SOL    HW114981   3.652   1.557  11.953
 4775SOL    HW214982   3.724   1.490  12.083
 4776SOL     OW14983   2.083   1.314  13.016
 4776SOL    HW114984   2.018   1.241  12.995
 4776SOL    HW214985   2.087   1.328  13.114
 4777SOL     OW14986   1.941   1.240  11.825
 4777SOL    HW114987   1.940   1.193  11.913
 4777SOL    HW214988   2.023   1.212  11.774
 4778SOL     OW14989   2.534   1.391  12.796
 4778SOL    HW114990   2.456   1.341  12.834
 4778SOL    HW214991   2.531   1.486  12.827
 4779SOL     OW14992   3.686   0.192  12.399
 4779SOL    HW114993   3.682   0.102  12.443
 4779SOL    HW214994   3.689   0.181  12.300
 4780SOL     OW14995   2.290   0.424  11.692
 4780SOL    HW114996   2.320   0.352  11.630
 4780SOL    HW214997   2.251   0.384  11.775
 4781SOL     OW14998   3.567   1.487  12.276
 4781SOL    HW114999   3.474   1.462  12.249
 4781SOL    HW215000   3.593   1.437  12.358
 4782SOL     OW15001   2.179   0.547  12.452
 4782SOL    HW115002   2.217   0.488  12.524
 4782SOL    HW215003   2.219   0.521  12.364
 4783SOL     OW15004   2.674   1.586  11.859
 4783SOL    HW115005   2.706   1.596  11.765
 4783SOL    HW215006   2.595   1.524  11.861
 4784SOL     OW15007   3.286   0.214  12.284
 4784SOL    HW115008   3.338   0.149  12.339
 4784SOL    HW215009   3.237   0.277  12.345
 4785SOL     OW15010   2.863   0.034  12.326
 4785SOL    HW115011   2.800  -0.038  12.295
 4785SOL    HW215012   2.956  -0.002  12.326
 4786SOL     OW15013   2.632   1.330  11.473
 4786SOL    HW115014   2.586   1.243  11.490
 4786SOL    HW215015   2.723   1.327  11.514
 4787SOL     OW15016   2.480   1.567  12.456
 4787SOL    HW115017   2.475   1.649  12.513
 4787SOL    HW215018   2.569   1.564  12.411
 4788SOL     OW15019   3.214   0.052  11.340
 4788SOL    HW115020   3.249   0.011  11.256
 4788SOL    HW215021   3.124   0.014  11.360
 4789SOL     OW15022   3.162   0.453  11.863
 4789SOL    HW115023   3.103   0.533  11.867
 4789SOL    HW215024   3.177   0.418  11.956
 4790SOL     OW15025   3.455   0.221  12.054
 4790SOL    HW115026   3.371   0.220  12.108
 4790SOL    HW215027   3.457   0.304  11.998
 4791SOL     OW15028   1.901   1.077  11.472
 4791SOL    HW115029   2.000   1.066  11.463
 4791SOL    HW215030   1.861   0.991  11.504
 4792SOL     OW15031   2.737   1.646  11.509
 4792SOL    HW115032   2.660   1.611  11.455
 4792SOL    HW215033   2.705   1.717  11.571
 4793SOL     OW15034   2.092   0.628  13.147
 4793SOL    HW115035   1.999   0.626  13.184
 4793SOL    HW215036   2.093   0.589  13.055
 4794SOL     OW15037   2.087   0.275  14.030
 4794SOL    HW115038   2.122   0.258  14.122
 4794SOL    HW215039   1.999   0.230  14.018
 4795SOL     OW15040   1.881   0.368  13.681
 4795SOL    HW115041   1.799   0.411  13.720
 4795SOL    HW215042   1.853   0.295  13.618
 4796SOL     OW15043   3.417   1.511  13.737
 4796SOL    HW115044   3.360   1.495  13.818
 4796SOL    HW215045   3.358   1.521  13.657
 4797SOL     OW15046   2.997   0.703  13.751
 4797SOL    HW115047   3.054   0.781  13.726
 4797SOL    HW215048   2.937   0.729  13.827
 4798SOL     OW15049   3.617   0.607  13.265
 4798SOL    HW115050   3.605   0.594  13.166
 4798SOL    HW215051   3.587   0.526  13.314
 4799SOL     OW15052   2.547   1.012  13.699
 4799SOL    HW115053   2.616   0.996  13.769
 4799SOL    HW215054   2.474   1.069  13.737
 4800SOL     OW15055   3.465   0.447  13.771
 4800SOL    HW115056   3.391   0.493  13.721
 4800SOL    HW215057   3.516   0.515  13.824
 4801SOL     OW15058   2.092   1.434  13.572
 4801SOL    HW115059   2.066   1.530  13.572
 4801SOL    HW215060   2.021   1.380  13.617
 4802SOL     OW15061   2.102   1.091  13.920
 4802SOL    HW115062   2.116   1.007  13.972
 4802SOL    HW215063   2.047   1.155  13.975
 4803SOL     OW15064   2.468   0.964  13.157
 4803SOL    HW115065   2.475   1.048  13.103
 4803SOL    HW215066   2.514   0.977  13.245
 4804SOL     OW15067   1.984   0.643  13.597
 4804SOL    HW115068   1.939   0.555  13.614
 4804SOL    HW215069   1.983   0.697  13.681
 4805SOL     OW15070   3.704   1.767  13.393
 4805SOL    HW115071   3.758   1.738  13.473
 4805SOL    HW215072   3.734   1.857  13.364
 4806SOL     OW15073   1.889   1.596  13.151
 4806SOL    HW115074   1.870   1.500  13.172
 4806SOL    HW215075   1.856   1.654  13.226
 4807SOL     OW15076   3.551   0.922  13.646
 4807SOL    HW115077   3.646   0.893  13.654
 4807SOL    HW215078   3.543   0.987  13.571
 4808SOL     OW15079   3.503   1.108  13.466
 4808SOL    HW115080   3.589   1.110  13.414
 4808SOL    HW215081   3.517   1.155  13.554
 4809SOL     OW15082   2.475   1.365  13.760
 4809SOL    HW115083   2.426   1.278  13.769
 4809SOL    HW215084   2.452   1.408  13.673
 4810SOL     OW15085   2.671   0.004  13.536
 4810SOL    HW115086   2.711   0.095  13.527
 4810SOL    HW215087   2.571   0.012  13.542
 4811SOL     OW15088   3.387   0.999  13.224
 4811SOL    HW115089   3.324   0.923  13.237
 4811SOL    HW215090   3.435   1.017  13.310
 4812SOL     OW15091   3.529   1.714  13.606
 4812SOL    HW115092   3.488   1.691  13.518
 4812SOL    HW215093   3.511   1.640  13.671
 4813SOL     OW15094   2.460   0.729  13.304
 4813SOL    HW115095   2.484   0.798  13.236
 4813SOL    HW215096   2.382   0.762  13.358
 4814SOL     OW15097   3.143   0.345  13.978
 4814SOL    HW115098   3.057   0.295  13.965
 4814SOL    HW215099   3.205   0.291  14.034
 4815SOL     OW15100   3.438   1.662  13.341
 4815SOL    HW115101   3.527   1.708  13.344
 4815SOL    HW215102   3.417   1.638  13.246
 4816SOL     OW15103   2.903   0.701  13.463
 4816SOL    HW115104   2.929   0.697  13.559
 4816SOL    HW215105   2.818   0.650  13.449
 4817SOL     OW15106   1.938   0.811  13.823
 4817SOL    HW115107   2.037   0.799  13.832
 4817SOL    HW215108   1.914   0.906  13.844
 4818SOL     OW15109   2.727   0.348  13.229
 4818SOL    HW115110   2.786   0.411  13.180
 4818SOL    HW215111   2.746   0.254  13.200
 4819SOL     OW15112   3.224   1.144  13.579
 4819SOL    HW115113   3.307   1.115  13.531
 4819SOL    HW215114   3.175   1.211  13.523
 4820SOL     OW15115   2.870   1.456  13.511
 4820SOL    HW115116   2.824   1.528  13.459
 4820SOL    HW215117   2.866   1.476  13.609
 4821SOL     OW15118   2.213   1.801  13.887
 4821SOL    HW115119   2.263   1.715  13.893
 4821SOL    HW215120   2.278   1.878  13.884
 4822SOL     OW15121   3.657   1.066  13.907
 4822SOL    HW115122   3.595   1.051  13.831
 4822SOL    HW215123   3.605   1.077  13.992
 4823SOL     OW15124   2.183   0.943  13.276
 4823SOL    HW115125   2.265   0.982  13.234
 4823SOL    HW215126   2.156   0.861  13.227
 4824SOL     OW15127   3.320   0.735  13.762
 4824SOL    HW115128   3.315   0.670  13.837
 4824SOL    HW215129   3.400   0.794  13.775
 4825SOL     OW15130   2.973   1.776  13.271
 4825SOL    HW115131   2.913   1.714  13.321
 4825SOL    HW215132   3.004   1.732  13.186
 4826SOL     OW15133   3.494   1.377  13.115
 4826SOL    HW115134   3.462   1.471  13.105
 4826SOL    HW215135   3.418   1.314  13.103
 4827SOL     OW15136   2.326   1.743  13.357
 4827SOL    HW115137   2.359   1.782  13.443
 4827SOL    HW215138   2.402   1.736  13.292
 4828SOL     OW15139   3.262   0.107  13.460
 4828SOL    HW115140   3.238   0.070  13.370
 4828SOL    HW215141   3.361   0.123  13.464
 4829SOL     OW15142   2.802   1.698  13.938
 4829SOL    HW115143   2.882   1.641  13.959
 4829SOL    HW215144   2.753   1.658  13.861
 4830SOL     OW15145   2.244   0.700  13.514
 4830SOL    HW115146   2.289   0.610  13.511
 4830SOL    HW215147   2.150   0.689  13.547
 4831SOL     OW15148   2.476   0.122  13.151
 4831SOL    HW115149   2.574   0.100  13.158
 4831SOL    HW215150   2.445   0.105  13.058
 4832SOL     OW15151   2.401   0.064  13.546
 4832SOL    HW115152   2.320   0.065  13.604
 4832SOL    HW215153   2.404   0.147  13.491
 4833SOL     OW15154   3.296   1.188  13.075
 4833SOL    HW115155   3.328   1.112  13.132
 4833SOL    HW215156   3.204   1.215  13.105
 4834SOL     OW15157   2.159   0.035  13.205
 4834SOL    HW115158   2.208   0.119  13.184
 4834SOL    HW215159   2.221  -0.030  13.250
 4835SOL     OW15160   2.797   0.236  13.514
 4835SOL    HW115161   2.749   0.277  13.436
 4835SOL    HW215162   2.896   0.234  13.495
 4836SOL     OW15163   2.321   1.152  13.775
 4836SOL    HW115164   2.250   1.125  13.840
 4836SOL    HW215165   2.295   1.124  13.682
 4837SOL     OW15166   3.133   1.797  13.625
 4837SOL    HW115167   3.177   1.861  13.561
 4837SOL    HW215168   3.083   1.849  13.695
 4838SOL     OW15169   2.894   0.549  13.050
 4838SOL    HW115170   2.853   0.631  13.011
 4838SOL    HW215171   2.958   0.575  13.123
 4839SOL     OW15172   2.728   0.454  13.676
 4839SOL    HW115173   2.696   0.526  13.614
 4839SOL    HW215174   2.752   0.373  13.623
 4840SOL     OW15175   2.879   0.039  13.787
 4840SOL    HW115176   2.807   0.044  13.718
 4840SOL    HW215177   2.855  -0.030  13.856
 4841SOL     OW15178   3.719   0.833  13.411
 4841SOL    HW115179   3.761   0.769  13.475
 4841SOL    HW215180   3.681   0.782  13.333
 4842SOL     OW15181   2.350   1.385  13.208
 4842SOL    HW115182   2.263   1.370  13.255
 4842SOL    HW215183   2.333   1.411  13.113
 4843SOL     OW15184   3.526   1.280  13.691
 4843SOL    HW115185   3.625   1.288  13.705
 4843SOL    HW215186   3.481   1.364  13.722
 4844SOL     OW15187   3.252   0.575  13.112
 4844SOL    HW115188   3.198   0.554  13.193
 4844SOL    HW215189   3.343   0.534  13.121
 4845SOL     OW15190   2.389   0.256  13.362
 4845SOL    HW115191   2.416   0.197  13.287
 4845SOL    HW215192   2.389   0.351  13.331
 4846SOL     OW15193   2.567   1.050  13.402
 4846SOL    HW115194   2.553   1.057  13.501
 4846SOL    HW215195   2.651   0.999  13.384
 4847SOL     OW15196   2.229   1.100  13.535
 4847SOL    HW115197   2.222   1.183  13.479
 4847SOL    HW215198   2.233   1.020  13.475
 4848SOL     OW15199   2.428   0.537  13.899
 4848SOL    HW115200   2.440   0.603  13.825
 4848SOL    HW215201   2.474   0.571  13.982
 4849SOL     OW15202   3.114   1.348  13.422
 4849SOL    HW115203   3.164   1.425  13.462
 4849SOL    HW215204   3.019   1.350  13.454
 4850SOL     OW15205   3.444   0.639  13.506
 4850SOL    HW115206   3.413   0.700  13.579
 4850SOL    HW215207   3.494   0.691  13.437
 4851SOL     OW15208   3.071   0.525  13.309
 4851SOL    HW115209   3.084   0.441  13.363
 4851SOL    HW215210   3.042   0.599  13.369
 4852SOL     OW15211   2.169   0.063  13.652
 4852SOL    HW115212   2.158   0.157  13.685
 4852SOL    HW215213   2.164   0.000  13.729
 4853SOL     OW15214   3.484   0.367  13.408
 4853SOL    HW115215   3.486   0.291  13.472
 4853SOL    HW215216   3.436   0.444  13.448
 4854SOL     OW15217   3.402   0.274  13.159
 4854SOL    HW115218   3.341   0.199  13.182
 4854SOL    HW215219   3.424   0.326  13.242
 4855SOL     OW15220   3.165   0.838  13.076
 4855SOL    HW115221   3.199   0.745  13.091
 4855SOL    HW215222   3.183   0.865  12.981
 4856SOL     OW15223   1.870   1.326  13.234
 4856SOL    HW115224   1.777   1.347  13.203
 4856SOL    HW215225   1.880   1.227  13.247
 4857SOL     OW15226   2.677   0.572  13.359
 4857SOL    HW115227   2.684   0.483  13.313
 4857SOL    HW215228   2.583   0.606  13.351
 4858SOL     OW15229   2.335   0.500  13.225
 4858SOL    HW115230   2.396   0.580  13.229
 4858SOL    HW215231   2.240   0.531  13.232
 4859SOL     OW15232   3.164   0.855  13.343
 4859SOL    HW115233   3.078   0.824  13.385
 4859SOL    HW215234   3.160   0.841  13.244
 4860SOL     OW15235   3.588   0.135  13.557
 4860SOL    HW115236   3.661   0.118  13.490
 4860SOL    HW215237   3.557   0.048  13.595
 4861SOL     OW15238   3.250   1.573  13.511
 4861SOL    HW115239   3.317   1.585  13.437
 4861SOL    HW215240   3.210   1.662  13.534
 4862SOL     OW15241   3.142   0.927  13.706
 4862SOL    HW115242   3.202   0.846  13.708
 4862SOL    HW215243   3.182   0.996  13.646
 4863SOL     OW15244   2.534   1.616  13.188
 4863SOL    HW115245   2.543   1.626  13.089
 4863SOL    HW215246   2.494   1.527  13.209
 4864SOL     OW15247   3.703   0.175  13.997
 4864SOL    HW115248   3.742   0.090  13.961
 4864SOL    HW215249   3.605   0.177  13.978
 4865SOL     OW15250   2.125   0.326  13.754
 4865SOL    HW115251   2.046   0.377  13.720
 4865SOL    HW215252   2.116   0.311  13.852
 4866SOL     OW15253   3.056   1.612  13.065
 4866SOL    HW115254   3.062   1.519  13.102
 4866SOL    HW215255   2.997   1.612  12.985
 4867SOL     OW15256   2.778   0.910  13.325
 4867SOL    HW115257   2.841   0.948  13.257
 4867SOL    HW215258   2.818   0.827  13.364
 4868SOL     OW15259   3.366   1.607  13.078
 4868SOL    HW115260   3.274   1.644  13.085
 4868SOL    HW215261   3.404   1.627  12.988
 4869SOL     OW15262   2.901   1.098  13.730
 4869SOL    HW115263   2.831   1.051  13.784
 4869SOL    HW215264   2.960   1.030  13.687
 4870SOL     OW15265   2.452   1.487  13.525
 4870SOL    HW115266   2.494   1.429  13.455
 4870SOL    HW215267   2.408   1.566  13.481
 4871SOL     OW15268   2.117   1.348  13.324
 4871SOL    HW115269   2.021   1.349  13.297
 4871SOL    HW215270   2.129   1.401  13.408
 4872SOL     OW15271   1.937   0.345  13.067
 4872SOL    HW115272   1.845   0.317  13.038
 4872SOL    HW215273   1.968   0.422  13.011
 4873SOL     OW15274   1.934   0.166  13.352
 4873SOL    HW115275   1.917   0.249  13.298
 4873SOL    HW215276   2.024   0.129  13.330
 4874SOL     OW15277   3.045   1.335  13.153
 4874SOL    HW115278   2.946   1.324  13.155
 4874SOL    HW215279   3.079   1.350  13.246
 4875SOL     OW15280   3.087   0.325  13.483
 4875SOL    HW115281   3.152   0.251  13.472
 4875SOL    HW215282   3.107   0.375  13.567
 4876SOL     OW15283   2.456   0.745  13.686
 4876SOL    HW115284   2.506   0.830  13.667
 4876SOL    HW215285   2.368   0.747  13.638
 4877SOL     OW15286   2.721   1.374  13.050
 4877SOL    HW115287   2.675   1.389  13.138
 4877SOL    HW215288   2.765   1.459  13.020
 4878SOL     OW15289   2.523   1.790  13.987
 4878SOL    HW115290   2.477   1.878  13.974
 4878SOL    HW215291   2.622   1.802  13.980
 4879SOL     OW15292   2.721   0.956  13.895
 4879SOL    HW115293   2.775   0.887  13.943
 4879SOL    HW215294   2.689   1.025  13.961
 4880SOL     OW15295   2.945   0.984  13.121
 4880SOL    HW115296   2.922   1.037  13.039
 4880SOL    HW215297   3.026   0.928  13.102
 4881SOL     OW15298   1.941   1.240  13.687
 4881SOL    HW115299   1.940   1.193  13.775
 4881SOL    HW215300   2.023   1.212  13.636
 4882SOL     OW15301   2.290   0.424  13.554
 4882SOL    HW115302   2.320   0.352  13.492
 4882SOL    HW215303   2.251   0.384  13.637
 4883SOL     OW15304   3.567   1.487  14.138
 4883SOL    HW115305   3.474   1.462  14.111
 4883SOL    HW215306   3.593   1.437  14.220
 4884SOL     OW15307   2.674   1.586  13.721
 4884SOL    HW115308   2.706   1.596  13.627
 4884SOL    HW215309   2.595   1.524  13.723
 4885SOL     OW15310   2.632   1.330  13.335
 4885SOL    HW115311   2.586   1.243  13.352
 4885SOL    HW215312   2.723   1.327  13.376
 4886SOL     OW15313   3.214   0.052  13.202
 4886SOL    HW115314   3.249   0.011  13.118
 4886SOL    HW215315   3.124   0.014  13.222
 4887SOL     OW15316   3.162   0.453  13.725
 4887SOL    HW115317   3.103   0.533  13.729
 4887SOL    HW215318   3.177   0.418  13.818
 4888SOL     OW15319   1.901   1.077  13.334
 4888SOL    HW115320   2.000   1.066  13.325
 4888SOL    HW215321   1.861   0.991  13.366
 4889SOL     OW15322   2.737   1.646  13.371
 4889SOL    HW115323   2.660   1.611  13.317
 4889SOL    HW215324   2.705   1.717  13.433
 4890SOL     OW15325   2.092   2.490   0.113
 4890SOL    HW115326   1.999   2.488   0.150
 4890SOL    HW215327   2.093   2.451   0.021
 4891SOL     OW15328   2.431   3.137   1.165
 4891SOL    HW115329   2.338   3.130   1.128
 4891SOL    HW215330   2.442   3.226   1.209
 4892SOL     OW15331   3.417   3.373   0.703
 4892SOL    HW115332   3.360   3.357   0.784
 4892SOL    HW215333   3.358   3.383   0.623
 4893SOL     OW15334   2.997   2.565   0.717
 4893SOL    HW115335   3.054   2.643   0.692
 4893SOL    HW215336   2.937   2.591   0.793
 4894SOL     OW15337   3.617   2.469   0.231
 4894SOL    HW115338   3.605   2.456   0.132
 4894SOL    HW215339   3.587   2.388   0.280
 4895SOL     OW15340   2.630   3.006   1.023
 4895SOL    HW115341   2.552   3.023   1.083
 4895SOL    HW215342   2.664   3.093   0.987
 4896SOL     OW15343   2.712   2.660   1.823
 4896SOL    HW115344   2.708   2.736   1.888
 4896SOL    HW215345   2.734   2.696   1.732
 4897SOL     OW15346   2.547   2.874   0.665
 4897SOL    HW115347   2.616   2.858   0.735
 4897SOL    HW215348   2.474   2.931   0.703
 4898SOL     OW15349   2.548   3.023   1.803
 4898SOL    HW115350   2.608   3.102   1.817
 4898SOL    HW215351   2.462   3.054   1.762
 4899SOL     OW15352   2.197   3.297   1.061
 4899SOL    HW115353   2.119   3.266   1.008
 4899SOL    HW215354   2.255   3.355   1.004
 4900SOL     OW15355   3.322   3.367   1.339
 4900SOL    HW115356   3.346   3.461   1.365
 4900SOL    HW215357   3.306   3.313   1.421
 4901SOL     OW15358   2.300   2.254   1.499
 4901SOL    HW115359   2.382   2.198   1.508
 4901SOL    HW215360   2.219   2.196   1.503
 4902SOL     OW15361   3.465   2.309   0.737
 4902SOL    HW115362   3.391   2.355   0.687
 4902SOL    HW215363   3.516   2.377   0.790
 4903SOL     OW15364   2.093   3.575   0.483
 4903SOL    HW115365   2.127   3.652   0.537
 4903SOL    HW215366   2.137   3.575   0.393
 4904SOL     OW15367   2.989   3.203   1.690
 4904SOL    HW115368   3.036   3.203   1.778
 4904SOL    HW215369   2.941   3.116   1.679
 4905SOL     OW15370   2.092   3.296   0.538
 4905SOL    HW115371   2.066   3.392   0.538
 4905SOL    HW215372   2.021   3.242   0.583
 4906SOL     OW15373   2.102   2.953   0.886
 4906SOL    HW115374   2.116   2.869   0.938
 4906SOL    HW215375   2.047   3.017   0.941
 4907SOL     OW15376   2.482   3.648   1.439
 4907SOL    HW115377   2.390   3.631   1.474
 4907SOL    HW215378   2.510   3.740   1.465
 4908SOL     OW15379   2.468   2.826   0.123
 4908SOL    HW115380   2.475   2.910   0.069
 4908SOL    HW215381   2.514   2.839   0.211
 4909SOL     OW15382   3.456   1.976   1.480
 4909SOL    HW115383   3.438   2.043   1.408
 4909SOL    HW215384   3.453   2.022   1.569
 4910SOL     OW15385   1.984   2.505   0.563
 4910SOL    HW115386   1.939   2.417   0.580
 4910SOL    HW215387   1.983   2.559   0.647
 4911SOL     OW15388   3.704   3.629   0.359
 4911SOL    HW115389   3.758   3.600   0.439
 4911SOL    HW215390   3.734   3.719   0.330
 4912SOL     OW15391   1.889   3.458   0.117
 4912SOL    HW115392   1.870   3.362   0.138
 4912SOL    HW215393   1.856   3.516   0.192
 4913SOL     OW15394   3.551   2.784   0.612
 4913SOL    HW115395   3.646   2.755   0.620
 4913SOL    HW215396   3.543   2.849   0.537
 4914SOL     OW15397   3.503   2.970   0.432
 4914SOL    HW115398   3.589   2.972   0.380
 4914SOL    HW215399   3.517   3.017   0.520
 4915SOL     OW15400   1.975   2.599   1.597
 4915SOL    HW115401   2.063   2.586   1.642
 4915SOL    HW215402   1.962   2.696   1.575
 4916SOL     OW15403   2.475   3.227   0.726
 4916SOL    HW115404   2.426   3.140   0.735
 4916SOL    HW215405   2.452   3.270   0.639
 4917SOL     OW15406   3.155   3.090   1.423
 4917SOL    HW115407   3.192   3.017   1.365
 4917SOL    HW215408   3.207   3.095   1.508
 4918SOL     OW15409   2.671   1.866   0.502
 4918SOL    HW115410   2.711   1.957   0.493
 4918SOL    HW215411   2.571   1.874   0.508
 4919SOL     OW15412   2.059   2.838   1.264
 4919SOL    HW115413   2.148   2.793   1.250
 4919SOL    HW215414   1.986   2.773   1.245
 4920SOL     OW15415   3.387   2.861   0.190
 4920SOL    HW115416   3.324   2.785   0.203
 4920SOL    HW215417   3.435   2.879   0.276
 4921SOL     OW15418   3.049   3.654   1.616
 4921SOL    HW115419   3.073   3.714   1.540
 4921SOL    HW215420   3.056   3.559   1.586
 4922SOL     OW15421   3.328   3.279   0.953
 4922SOL    HW115422   3.269   3.285   1.033
 4922SOL    HW215423   3.313   3.191   0.907
 4923SOL     OW15424   3.529   3.576   0.572
 4923SOL    HW115425   3.488   3.553   0.484
 4923SOL    HW215426   3.511   3.502   0.637
 4924SOL     OW15427   2.460   2.591   0.270
 4924SOL    HW115428   2.484   2.660   0.202
 4924SOL    HW215429   2.382   2.624   0.324
 4925SOL     OW15430   3.143   2.207   0.944
 4925SOL    HW115431   3.057   2.157   0.931
 4925SOL    HW215432   3.205   2.153   1.000
 4926SOL     OW15433   3.438   3.524   0.307
 4926SOL    HW115434   3.527   3.570   0.310
 4926SOL    HW215435   3.417   3.500   0.212
 4927SOL     OW15436   2.669   2.467   1.465
 4927SOL    HW115437   2.622   2.464   1.554
 4927SOL    HW215438   2.618   2.412   1.399
 4928SOL     OW15439   3.256   2.331   1.674
 4928SOL    HW115440   3.236   2.374   1.762
 4928SOL    HW215441   3.334   2.269   1.683
 4929SOL     OW15442   2.835   2.752   1.572
 4929SOL    HW115443   2.881   2.668   1.543
 4929SOL    HW215444   2.779   2.786   1.497
 4930SOL     OW15445   2.853   2.272   1.242
 4930SOL    HW115446   2.776   2.306   1.296
 4930SOL    HW215447   2.819   2.221   1.163
 4931SOL     OW15448   2.903   2.563   0.429
 4931SOL    HW115449   2.929   2.559   0.525
 4931SOL    HW215450   2.818   2.512   0.415
 4932SOL     OW15451   1.938   2.673   0.789
 4932SOL    HW115452   2.037   2.661   0.798
 4932SOL    HW215453   1.914   2.768   0.810
 4933SOL     OW15454   1.992   3.683   1.571
 4933SOL    HW115455   1.982   3.668   1.670
 4933SOL    HW215456   1.906   3.719   1.535
 4934SOL     OW15457   2.727   2.210   0.195
 4934SOL    HW115458   2.786   2.273   0.146
 4934SOL    HW215459   2.746   2.116   0.166
 4935SOL     OW15460   3.581   2.447   1.831
 4935SOL    HW115461   3.555   2.536   1.795
 4935SOL    HW215462   3.579   2.379   1.758
 4936SOL     OW15463   3.224   3.006   0.545
 4936SOL    HW115464   3.307   2.977   0.497
 4936SOL    HW215465   3.175   3.073   0.489
 4937SOL     OW15466   2.412   2.058   0.885
 4937SOL    HW115467   2.407   2.053   0.985
 4937SOL    HW215468   2.414   2.154   0.856
 4938SOL     OW15469   2.870   3.318   0.477
 4938SOL    HW115470   2.824   3.390   0.425
 4938SOL    HW215471   2.866   3.338   0.575
 4939SOL     OW15472   2.213   3.663   0.853
 4939SOL    HW115473   2.263   3.577   0.859
 4939SOL    HW215474   2.278   3.740   0.850
 4940SOL     OW15475   3.657   2.928   0.873
 4940SOL    HW115476   3.595   2.913   0.797
 4940SOL    HW215477   3.605   2.939   0.958
 4941SOL     OW15478   3.089   3.412   1.506
 4941SOL    HW115479   3.095   3.335   1.570
 4941SOL    HW215480   3.037   3.386   1.426
 4942SOL     OW15481   2.183   2.805   0.242
 4942SOL    HW115482   2.265   2.844   0.200
 4942SOL    HW215483   2.156   2.723   0.193
 4943SOL     OW15484   3.320   2.597   0.728
 4943SOL    HW115485   3.315   2.532   0.803
 4943SOL    HW215486   3.400   2.656   0.741
 4944SOL     OW15487   2.323   3.128   1.727
 4944SOL    HW115488   2.273   3.129   1.641
 4944SOL    HW215489   2.260   3.110   1.803
 4945SOL     OW15490   2.973   3.638   0.237
 4945SOL    HW115491   2.913   3.576   0.287
 4945SOL    HW215492   3.004   3.594   0.152
 4946SOL     OW15493   3.494   3.239   0.081
 4946SOL    HW115494   3.462   3.333   0.071
 4946SOL    HW215495   3.418   3.176   0.069
 4947SOL     OW15496   2.326   3.605   0.323
 4947SOL    HW115497   2.359   3.644   0.409
 4947SOL    HW215498   2.402   3.598   0.258
 4948SOL     OW15499   3.262   1.969   0.426
 4948SOL    HW115500   3.238   1.932   0.336
 4948SOL    HW215501   3.361   1.985   0.430
 4949SOL     OW15502   2.111   3.647   1.241
 4949SOL    HW115503   2.168   3.582   1.291
 4949SOL    HW215504   2.095   3.614   1.148
 4950SOL     OW15505   2.802   3.560   0.904
 4950SOL    HW115506   2.882   3.503   0.925
 4950SOL    HW215507   2.753   3.520   0.827
 4951SOL     OW15508   2.244   2.562   0.480
 4951SOL    HW115509   2.289   2.472   0.477
 4951SOL    HW215510   2.150   2.551   0.513
 4952SOL     OW15511   3.409   2.084   1.729
 4952SOL    HW115512   3.404   2.121   1.821
 4952SOL    HW215513   3.337   2.015   1.717
 4953SOL     OW15514   2.643   2.126   1.749
 4953SOL    HW115515   2.710   2.065   1.792
 4953SOL    HW215516   2.570   2.145   1.814
 4954SOL     OW15517   2.750   3.376   1.195
 4954SOL    HW115518   2.727   3.351   1.101
 4954SOL    HW215519   2.811   3.307   1.234
 4955SOL     OW15520   3.213   2.452   1.433
 4955SOL    HW115521   3.241   2.409   1.518
 4955SOL    HW215522   3.238   2.548   1.434
 4956SOL     OW15523   2.665   3.264   0.924
 4956SOL    HW115524   2.755   3.278   0.882
 4956SOL    HW215525   2.594   3.266   0.853
 4957SOL     OW15526   2.784   2.365   0.899
 4957SOL    HW115527   2.759   2.356   0.803
 4957SOL    HW215528   2.832   2.283   0.930
 4958SOL     OW15529   2.401   1.926   0.512
 4958SOL    HW115530   2.320   1.927   0.570
 4958SOL    HW215531   2.404   2.009   0.457
 4959SOL     OW15532   3.296   3.050   0.041
 4959SOL    HW115533   3.328   2.974   0.098
 4959SOL    HW215534   3.204   3.077   0.071
 4960SOL     OW15535   2.797   2.098   0.480
 4960SOL    HW115536   2.749   2.139   0.402
 4960SOL    HW215537   2.896   2.096   0.461
 4961SOL     OW15538   2.938   2.545   1.464
 4961SOL    HW115539   2.858   2.484   1.467
 4961SOL    HW215540   3.019   2.492   1.440
 4962SOL     OW15541   3.089   3.432   0.793
 4962SOL    HW115542   3.110   3.506   0.728
 4962SOL    HW215543   3.157   3.432   0.866
 4963SOL     OW15544   2.321   3.014   0.741
 4963SOL    HW115545   2.250   2.987   0.806
 4963SOL    HW215546   2.295   2.986   0.648
 4964SOL     OW15547   3.133   3.659   0.591
 4964SOL    HW115548   3.177   3.723   0.527
 4964SOL    HW215549   3.083   3.711   0.661
 4965SOL     OW15550   2.894   2.411   0.016
 4965SOL    HW115551   2.853   2.493  -0.023
 4965SOL    HW215552   2.958   2.437   0.089
 4966SOL     OW15553   1.940   2.418   1.386
 4966SOL    HW115554   2.032   2.417   1.345
 4966SOL    HW215555   1.934   2.492   1.453
 4967SOL     OW15556   2.423   2.084   1.147
 4967SOL    HW115557   2.461   2.000   1.184
 4967SOL    HW215558   2.335   2.103   1.191
 4968SOL     OW15559   2.728   2.316   0.642
 4968SOL    HW115560   2.696   2.388   0.580
 4968SOL    HW215561   2.752   2.235   0.589
 4969SOL     OW15562   2.879   1.901   0.753
 4969SOL    HW115563   2.807   1.906   0.684
 4969SOL    HW215564   2.855   1.832   0.822
 4970SOL     OW15565   3.291   3.035   0.867
 4970SOL    HW115566   3.236   2.951   0.860
 4970SOL    HW215567   3.317   3.064   0.775
 4971SOL     OW15568   3.328   2.452   0.992
 4971SOL    HW115569   3.298   2.357   0.999
 4971SOL    HW215570   3.401   2.468   1.058
 4972SOL     OW15571   3.719   2.695   0.377
 4972SOL    HW115572   3.761   2.631   0.441
 4972SOL    HW215573   3.681   2.644   0.299
 4973SOL     OW15574   2.350   3.247   0.174
 4973SOL    HW115575   2.263   3.232   0.221
 4973SOL    HW215576   2.333   3.273   0.079
 4974SOL     OW15577   3.526   3.142   0.657
 4974SOL    HW115578   3.625   3.150   0.671
 4974SOL    HW215579   3.481   3.226   0.688
 4975SOL     OW15580   3.252   2.437   0.078
 4975SOL    HW115581   3.198   2.416   0.159
 4975SOL    HW215582   3.343   2.396   0.087
 4976SOL     OW15583   2.389   2.118   0.328
 4976SOL    HW115584   2.416   2.059   0.253
 4976SOL    HW215585   2.389   2.213   0.297
 4977SOL     OW15586   3.616   3.085   1.588
 4977SOL    HW115587   3.707   3.046   1.575
 4977SOL    HW215588   3.624   3.181   1.612
 4978SOL     OW15589   2.926   3.209   1.340
 4978SOL    HW115590   2.846   3.186   1.395
 4978SOL    HW215591   3.009   3.183   1.389
 4979SOL     OW15592   3.454   3.491   1.625
 4979SOL    HW115593   3.481   3.525   1.535
 4979SOL    HW215594   3.533   3.453   1.671
 4980SOL     OW15595   2.973   3.057   1.100
 4980SOL    HW115596   2.933   3.101   1.181
 4980SOL    HW215597   2.932   3.094   1.017
 4981SOL     OW15598   3.500   2.961   1.079
 4981SOL    HW115599   3.505   3.042   1.138
 4981SOL    HW215600   3.414   2.963   1.028
 4982SOL     OW15601   2.777   1.951   1.402
 4982SOL    HW115602   2.802   1.931   1.307
 4982SOL    HW215603   2.849   2.007   1.444
 4983SOL     OW15604   2.842   2.978   1.719
 4983SOL    HW115605   2.743   2.984   1.729
 4983SOL    HW215606   2.865   2.898   1.663
 4984SOL     OW15607   2.567   2.912   0.368
 4984SOL    HW115608   2.553   2.919   0.467
 4984SOL    HW215609   2.651   2.861   0.350
 4985SOL     OW15610   2.272   2.675   1.251
 4985SOL    HW115611   2.358   2.687   1.301
 4985SOL    HW215612   2.230   2.588   1.278
 4986SOL     OW15613   3.136   2.248   1.262
 4986SOL    HW115614   3.157   2.322   1.326
 4986SOL    HW215615   3.047   2.265   1.219
 4987SOL     OW15616   1.926   3.426   1.331
 4987SOL    HW115617   1.880   3.508   1.297
 4987SOL    HW215618   2.024   3.445   1.340
 4988SOL     OW15619   2.229   2.962   0.501
 4988SOL    HW115620   2.222   3.045   0.445
 4988SOL    HW215621   2.233   2.882   0.441
 4989SOL     OW15622   2.428   2.399   0.865
 4989SOL    HW115623   2.440   2.465   0.791
 4989SOL    HW215624   2.474   2.433   0.948
 4990SOL     OW15625   3.114   3.210   0.388
 4990SOL    HW115626   3.164   3.287   0.428
 4990SOL    HW215627   3.019   3.212   0.420
 4991SOL     OW15628   3.134   3.307   1.142
 4991SOL    HW115629   3.181   3.320   1.229
 4991SOL    HW215630   3.068   3.233   1.151
 4992SOL     OW15631   3.444   2.501   0.472
 4992SOL    HW115632   3.413   2.562   0.545
 4992SOL    HW215633   3.494   2.553   0.403
 4993SOL     OW15634   2.216   3.372   1.329
 4993SOL    HW115635   2.195   3.328   1.242
 4993SOL    HW215636   2.313   3.398   1.332
 4994SOL     OW15637   2.264   2.613   1.598
 4994SOL    HW115638   2.332   2.668   1.551
 4994SOL    HW215639   2.304   2.525   1.625
 4995SOL     OW15640   3.449   2.641   1.670
 4995SOL    HW115641   3.357   2.679   1.665
 4995SOL    HW215642   3.509   2.688   1.605
 4996SOL     OW15643   2.875   1.967   1.770
 4996SOL    HW115644   2.881   2.052   1.718
 4996SOL    HW215645   2.907   1.891   1.713
 4997SOL     OW15646   2.366   1.912   1.740
 4997SOL    HW115647   2.324   1.855   1.670
 4997SOL    HW215648   2.300   1.981   1.772
 4998SOL     OW15649   2.435   2.732   1.029
 4998SOL    HW115650   2.479   2.821   1.020
 4998SOL    HW215651   2.372   2.732   1.106
 4999SOL     OW15652   3.222   2.724   1.045
 4999SOL    HW115653   3.147   2.724   0.979
 4999SOL    HW215654   3.259   2.632   1.054
 5000SOL     OW15655   3.071   2.387   0.275
 5000SOL    HW115656   3.084   2.303   0.329
 5000SOL    HW215657   3.042   2.461   0.335
 5001SOL     OW15658   1.899   3.172   1.282
 5001SOL    HW115659   1.952   3.123   1.350
 5001SOL    HW215660   1.921   3.270   1.287
 5002SOL     OW15661   2.594   2.496   1.064
 5002SOL    HW115662   2.653   2.470   0.988
 5002SOL    HW215663   2.566   2.592   1.053
 5003SOL     OW15664   3.590   2.797   1.854
 5003SOL    HW115665   3.544   2.790   1.765
 5003SOL    HW215666   3.528   2.841   1.920
 5004SOL     OW15667   3.484   2.229   0.374
 5004SOL    HW115668   3.486   2.153   0.438
 5004SOL    HW215669   3.436   2.306   0.414
 5005SOL     OW15670   2.885   2.628   0.966
 5005SOL    HW115671   2.900   2.649   1.062
 5005SOL    HW215672   2.855   2.533   0.957
 5006SOL     OW15673   2.842   3.435   1.700
 5006SOL    HW115674   2.822   3.479   1.612
 5006SOL    HW215675   2.881   3.344   1.684
 5007SOL     OW15676   3.721   3.380   1.605
 5007SOL    HW115677   3.735   3.407   1.510
 5007SOL    HW215678   3.804   3.402   1.658
 5008SOL     OW15679   2.212   2.760   1.804
 5008SOL    HW115680   2.288   2.804   1.852
 5008SOL    HW215681   2.247   2.713   1.722
 5009SOL     OW15682   3.402   2.136   0.125
 5009SOL    HW115683   3.341   2.061   0.148
 5009SOL    HW215684   3.424   2.188   0.208
 5010SOL     OW15685   3.165   2.700   0.042
 5010SOL    HW115686   3.199   2.607   0.057
 5010SOL    HW215687   3.183   2.727  -0.053
 5011SOL     OW15688   2.930   3.195   0.849
 5011SOL    HW115689   2.937   3.111   0.794
 5011SOL    HW215690   2.992   3.264   0.813
 5012SOL     OW15691   2.181   2.672   0.949
 5012SOL    HW115692   2.274   2.708   0.954
 5012SOL    HW215693   2.175   2.587   1.001
 5013SOL     OW15694   2.201   2.371   1.006
 5013SOL    HW115695   2.149   2.288   0.989
 5013SOL    HW215696   2.278   2.376   0.942
 5014SOL     OW15697   3.000   2.242   1.678
 5014SOL    HW115698   2.955   2.305   1.742
 5014SOL    HW215699   3.093   2.273   1.661
 5015SOL     OW15700   3.022   2.069   1.477
 5015SOL    HW115701   3.022   2.133   1.554
 5015SOL    HW215702   3.050   2.117   1.394
 5016SOL     OW15703   1.870   3.188   0.200
 5016SOL    HW115704   1.777   3.209   0.169
 5016SOL    HW215705   1.880   3.089   0.213
 5017SOL     OW15706   1.950   3.663   0.927
 5017SOL    HW115707   1.908   3.577   0.900
 5017SOL    HW215708   2.044   3.666   0.893
 5018SOL     OW15709   2.366   3.430   0.910
 5018SOL    HW115710   2.432   3.504   0.919
 5018SOL    HW215711   2.410   3.351   0.868
 5019SOL     OW15712   2.864   2.658   1.238
 5019SOL    HW115713   2.905   2.626   1.324
 5019SOL    HW215714   2.768   2.631   1.235
 5020SOL     OW15715   3.231   2.812   1.660
 5020SOL    HW115716   3.270   2.901   1.680
 5020SOL    HW215717   3.241   2.792   1.563
 5021SOL     OW15718   2.677   2.434   0.325
 5021SOL    HW115719   2.684   2.345   0.279
 5021SOL    HW215720   2.583   2.468   0.317
 5022SOL     OW15721   3.519   2.466   1.206
 5022SOL    HW115722   3.481   2.397   1.268
 5022SOL    HW215723   3.601   2.430   1.162
 5023SOL     OW15724   2.114   3.426   1.744
 5023SOL    HW115725   2.084   3.483   1.820
 5023SOL    HW215726   2.107   3.329   1.770
 5024SOL     OW15727   2.533   2.326   1.269
 5024SOL    HW115728   2.499   2.237   1.239
 5024SOL    HW215729   2.559   2.380   1.189
 5025SOL     OW15730   2.792   3.540   1.465
 5025SOL    HW115731   2.768   3.522   1.370
 5025SOL    HW215732   2.822   3.634   1.475
 5026SOL     OW15733   2.335   2.362   0.191
 5026SOL    HW115734   2.396   2.442   0.195
 5026SOL    HW215735   2.240   2.393   0.198
 5027SOL     OW15736   2.021   2.999   1.466
 5027SOL    HW115737   2.043   2.938   1.542
 5027SOL    HW215738   2.031   2.950   1.380
 5028SOL     OW15739   3.209   2.921   1.234
 5028SOL    HW115740   3.233   2.858   1.160
 5028SOL    HW215741   3.119   2.961   1.216
 5029SOL     OW15742   3.164   2.717   0.309
 5029SOL    HW115743   3.078   2.686   0.351
 5029SOL    HW215744   3.160   2.703   0.210
 5030SOL     OW15745   3.621   3.609   1.154
 5030SOL    HW115746   3.682   3.639   1.081
 5030SOL    HW215747   3.583   3.520   1.132
 5031SOL     OW15748   3.114   3.593   1.128
 5031SOL    HW115749   3.198   3.598   1.074
 5031SOL    HW215750   3.091   3.497   1.146
 5032SOL     OW15751   1.945   3.120   1.022
 5032SOL    HW115752   1.940   3.119   1.122
 5032SOL    HW215753   1.862   3.079   0.984
 5033SOL     OW15754   2.550   3.524   1.716
 5033SOL    HW115755   2.494   3.605   1.725
 5033SOL    HW215756   2.602   3.528   1.630
 5034SOL     OW15757   2.765   1.948   0.133
 5034SOL    HW115758   2.816   1.949   0.047
 5034SOL    HW215759   2.821   1.906   0.204
 5035SOL     OW15760   3.588   1.997   0.523
 5035SOL    HW115761   3.661   1.980   0.456
 5035SOL    HW215762   3.557   1.910   0.561
 5036SOL     OW15763   3.250   3.435   0.477
 5036SOL    HW115764   3.317   3.447   0.403
 5036SOL    HW215765   3.210   3.524   0.500
 5037SOL     OW15766   1.992   3.656   1.851
 5037SOL    HW115767   1.951   3.582   1.904
 5037SOL    HW215768   2.056   3.707   1.909
 5038SOL     OW15769   3.142   2.789   0.672
 5038SOL    HW115770   3.202   2.708   0.674
 5038SOL    HW215771   3.182   2.858   0.612
 5039SOL     OW15772   2.692   3.135   1.422
 5039SOL    HW115773   2.687   3.168   1.517
 5039SOL    HW215774   2.606   3.154   1.376
 5040SOL     OW15775   2.534   3.478   0.154
 5040SOL    HW115776   2.543   3.488   0.055
 5040SOL    HW215777   2.494   3.389   0.175
 5041SOL     OW15778   3.512   3.582   1.394
 5041SOL    HW115779   3.565   3.592   1.310
 5041SOL    HW215780   3.485   3.672   1.428
 5042SOL     OW15781   3.703   2.037   0.963
 5042SOL    HW115782   3.742   1.952   0.927
 5042SOL    HW215783   3.605   2.039   0.944
 5043SOL     OW15784   3.056   3.474   0.031
 5043SOL    HW115785   3.062   3.381   0.068
 5043SOL    HW215786   2.997   3.474  -0.049
 5044SOL     OW15787   2.684   2.864   1.372
 5044SOL    HW115788   2.724   2.863   1.280
 5044SOL    HW215789   2.694   2.956   1.412
 5045SOL     OW15790   2.778   2.772   0.291
 5045SOL    HW115791   2.841   2.810   0.223
 5045SOL    HW215792   2.818   2.689   0.330
 5046SOL     OW15793   3.366   3.469   0.044
 5046SOL    HW115794   3.274   3.506   0.051
 5046SOL    HW215795   3.404   3.489  -0.046
 5047SOL     OW15796   2.234   3.150   1.490
 5047SOL    HW115797   2.221   3.243   1.456
 5047SOL    HW215798   2.150   3.098   1.477
 5048SOL     OW15799   3.476   3.154   1.289
 5048SOL    HW115800   3.536   3.157   1.369
 5048SOL    HW215801   3.401   3.218   1.302
 5049SOL     OW15802   2.901   2.960   0.696
 5049SOL    HW115803   2.831   2.913   0.750
 5049SOL    HW215804   2.960   2.892   0.653
 5050SOL     OW15805   2.876   2.098   0.971
 5050SOL    HW115806   2.868   2.062   0.878
 5050SOL    HW215807   2.874   2.022   1.036
 5051SOL     OW15808   2.452   3.349   0.491
 5051SOL    HW115809   2.494   3.291   0.421
 5051SOL    HW215810   2.408   3.428   0.447
 5052SOL     OW15811   3.571   2.247   1.381
 5052SOL    HW115812   3.644   2.316   1.385
 5052SOL    HW215813   3.599   2.172   1.322
 5053SOL     OW15814   2.117   3.210   0.290
 5053SOL    HW115815   2.021   3.211   0.263
 5053SOL    HW215816   2.129   3.263   0.374
 5054SOL     OW15817   1.967   2.875   1.726
 5054SOL    HW115818   1.890   2.842   1.780
 5054SOL    HW215819   2.052   2.845   1.768
 5055SOL     OW15820   2.534   2.065   1.489
 5055SOL    HW115821   2.624   2.049   1.449
 5055SOL    HW215822   2.542   2.070   1.588
 5056SOL     OW15823   3.302   2.718   1.398
 5056SOL    HW115824   3.245   2.770   1.335
 5056SOL    HW215825   3.398   2.730   1.374
 5057SOL     OW15826   3.045   3.197   0.119
 5057SOL    HW115827   2.946   3.186   0.121
 5057SOL    HW215828   3.079   3.212   0.212
 5058SOL     OW15829   2.475   2.704   1.431
 5058SOL    HW115830   2.531   2.785   1.414
 5058SOL    HW215831   2.534   2.624   1.434
 5059SOL     OW15832   3.355   3.629   0.959
 5059SOL    HW115833   3.388   3.693   0.890
 5059SOL    HW215834   3.421   3.623   1.034
 5060SOL     OW15835   2.578   2.427   1.708
 5060SOL    HW115836   2.597   2.492   1.782
 5060SOL    HW215837   2.638   2.347   1.717
 5061SOL     OW15838   3.312   3.082   1.633
 5061SOL    HW115839   3.303   3.072   1.732
 5061SOL    HW215840   3.408   3.075   1.607
 5062SOL     OW15841   2.252   3.603   1.560
 5062SOL    HW115842   2.161   3.644   1.558
 5062SOL    HW215843   2.245   3.509   1.592
 5063SOL     OW15844   3.536   2.745   1.254
 5063SOL    HW115845   3.509   2.656   1.217
 5063SOL    HW215846   3.537   2.813   1.181
 5064SOL     OW15847   3.087   2.187   0.449
 5064SOL    HW115848   3.152   2.113   0.438
 5064SOL    HW215849   3.107   2.237   0.533
 5065SOL     OW15850   2.456   2.607   0.652
 5065SOL    HW115851   2.506   2.692   0.633
 5065SOL    HW215852   2.368   2.609   0.604
 5066SOL     OW15853   3.639   2.204   1.642
 5066SOL    HW115854   3.622   2.235   1.548
 5066SOL    HW215855   3.555   2.167   1.680
 5067SOL     OW15856   3.592   2.796   1.517
 5067SOL    HW115857   3.630   2.887   1.532
 5067SOL    HW215858   3.584   2.779   1.418
 5068SOL     OW15859   2.721   3.236   0.016
 5068SOL    HW115860   2.675   3.251   0.104
 5068SOL    HW215861   2.765   3.321  -0.014
 5069SOL     OW15862   2.523   3.652   0.953
 5069SOL    HW115863   2.477   3.740   0.940
 5069SOL    HW215864   2.622   3.664   0.946
 5070SOL     OW15865   2.721   2.818   0.861
 5070SOL    HW115866   2.775   2.749   0.909
 5070SOL    HW215867   2.689   2.887   0.927
 5071SOL     OW15868   2.945   2.846   0.087
 5071SOL    HW115869   2.922   2.899   0.005
 5071SOL    HW215870   3.026   2.790   0.068
 5072SOL     OW15871   3.723   3.431   0.851
 5072SOL    HW115872   3.652   3.419   0.781
 5072SOL    HW215873   3.724   3.352   0.911
 5073SOL     OW15874   2.083   3.176   1.844
 5073SOL    HW115875   2.018   3.103   1.823
 5073SOL    HW215876   2.087   3.190   1.942
 5074SOL     OW15877   1.941   3.102   0.653
 5074SOL    HW115878   1.940   3.055   0.741
 5074SOL    HW215879   2.023   3.074   0.602
 5075SOL     OW15880   2.534   3.253   1.624
 5075SOL    HW115881   2.456   3.203   1.662
 5075SOL    HW215882   2.531   3.348   1.655
 5076SOL     OW15883   3.686   2.054   1.227
 5076SOL    HW115884   3.682   1.964   1.271
 5076SOL    HW215885   3.689   2.043   1.128
 5077SOL     OW15886   2.290   2.286   0.520
 5077SOL    HW115887   2.320   2.214   0.458
 5077SOL    HW215888   2.251   2.246   0.603
 5078SOL     OW15889   3.567   3.349   1.104
 5078SOL    HW115890   3.474   3.324   1.077
 5078SOL    HW215891   3.593   3.299   1.186
 5079SOL     OW15892   2.179   2.409   1.280
 5079SOL    HW115893   2.217   2.350   1.352
 5079SOL    HW215894   2.219   2.383   1.192
 5080SOL     OW15895   2.674   3.448   0.687
 5080SOL    HW115896   2.706   3.458   0.593
 5080SOL    HW215897   2.595   3.386   0.689
 5081SOL     OW15898   3.286   2.076   1.112
 5081SOL    HW115899   3.338   2.011   1.167
 5081SOL    HW215900   3.237   2.139   1.173
 5082SOL     OW15901   2.863   1.896   1.154
 5082SOL    HW115902   2.800   1.824   1.123
 5082SOL    HW215903   2.956   1.860   1.154
 5083SOL     OW15904   2.632   3.192   0.301
 5083SOL    HW115905   2.586   3.105   0.318
 5083SOL    HW215906   2.723   3.189   0.342
 5084SOL     OW15907   2.480   3.429   1.284
 5084SOL    HW115908   2.475   3.511   1.341
 5084SOL    HW215909   2.569   3.426   1.239
 5085SOL     OW15910   3.214   1.914   0.168
 5085SOL    HW115911   3.249   1.873   0.084
 5085SOL    HW215912   3.124   1.876   0.188
 5086SOL     OW15913   3.162   2.315   0.691
 5086SOL    HW115914   3.103   2.395   0.695
 5086SOL    HW215915   3.177   2.280   0.784
 5087SOL     OW15916   3.455   2.083   0.882
 5087SOL    HW115917   3.371   2.082   0.936
 5087SOL    HW215918   3.457   2.166   0.826
 5088SOL     OW15919   1.901   2.939   0.300
 5088SOL    HW115920   2.000   2.928   0.291
 5088SOL    HW215921   1.861   2.853   0.332
 5089SOL     OW15922   2.737   3.508   0.337
 5089SOL    HW115923   2.660   3.473   0.283
 5089SOL    HW215924   2.705   3.579   0.399
 5090SOL     OW15925   2.092   2.490   1.975
 5090SOL    HW115926   1.999   2.488   2.012
 5090SOL    HW215927   2.093   2.451   1.883
 5091SOL     OW15928   2.431   3.137   3.027
 5091SOL    HW115929   2.338   3.130   2.990
 5091SOL    HW215930   2.442   3.226   3.071
 5092SOL     OW15931   3.417   3.373   2.565
 5092SOL    HW115932   3.360   3.357   2.646
 5092SOL    HW215933   3.358   3.383   2.485
 5093SOL     OW15934   2.997   2.565   2.579
 5093SOL    HW115935   3.054   2.643   2.554
 5093SOL    HW215936   2.937   2.591   2.655
 5094SOL     OW15937   3.617   2.469   2.093
 5094SOL    HW115938   3.605   2.456   1.994
 5094SOL    HW215939   3.587   2.388   2.142
 5095SOL     OW15940   2.630   3.006   2.885
 5095SOL    HW115941   2.552   3.023   2.945
 5095SOL    HW215942   2.664   3.093   2.849
 5096SOL     OW15943   2.712   2.660   3.685
 5096SOL    HW115944   2.708   2.736   3.750
 5096SOL    HW215945   2.734   2.696   3.594
 5097SOL     OW15946   2.547   2.874   2.527
 5097SOL    HW115947   2.616   2.858   2.597
 5097SOL    HW215948   2.474   2.931   2.565
 5098SOL     OW15949   2.548   3.023   3.665
 5098SOL    HW115950   2.608   3.102   3.679
 5098SOL    HW215951   2.462   3.054   3.624
 5099SOL     OW15952   2.197   3.297   2.923
 5099SOL    HW115953   2.119   3.266   2.870
 5099SOL    HW215954   2.255   3.355   2.866
 5100SOL     OW15955   3.322   3.367   3.201
 5100SOL    HW115956   3.346   3.461   3.227
 5100SOL    HW215957   3.306   3.313   3.283
 5101SOL     OW15958   2.300   2.254   3.361
 5101SOL    HW115959   2.382   2.198   3.370
 5101SOL    HW215960   2.219   2.196   3.365
 5102SOL     OW15961   3.465   2.309   2.599
 5102SOL    HW115962   3.391   2.355   2.549
 5102SOL    HW215963   3.516   2.377   2.652
 5103SOL     OW15964   2.093   3.575   2.345
 5103SOL    HW115965   2.127   3.652   2.399
 5103SOL    HW215966   2.137   3.575   2.255
 5104SOL     OW15967   2.989   3.203   3.552
 5104SOL    HW115968   3.036   3.203   3.640
 5104SOL    HW215969   2.941   3.116   3.541
 5105SOL     OW15970   2.092   3.296   2.400
 5105SOL    HW115971   2.066   3.392   2.400
 5105SOL    HW215972   2.021   3.242   2.445
 5106SOL     OW15973   2.102   2.953   2.748
 5106SOL    HW115974   2.116   2.869   2.800
 5106SOL    HW215975   2.047   3.017   2.803
 5107SOL     OW15976   2.482   3.648   3.301
 5107SOL    HW115977   2.390   3.631   3.336
 5107SOL    HW215978   2.510   3.740   3.327
 5108SOL     OW15979   2.468   2.826   1.985
 5108SOL    HW115980   2.475   2.910   1.931
 5108SOL    HW215981   2.514   2.839   2.073
 5109SOL     OW15982   3.456   1.976   3.342
 5109SOL    HW115983   3.438   2.043   3.270
 5109SOL    HW215984   3.453   2.022   3.431
 5110SOL     OW15985   1.984   2.505   2.425
 5110SOL    HW115986   1.939   2.417   2.442
 5110SOL    HW215987   1.983   2.559   2.509
 5111SOL     OW15988   3.704   3.629   2.221
 5111SOL    HW115989   3.758   3.600   2.301
 5111SOL    HW215990   3.734   3.719   2.192
 5112SOL     OW15991   1.889   3.458   1.979
 5112SOL    HW115992   1.870   3.362   2.000
 5112SOL    HW215993   1.856   3.516   2.054
 5113SOL     OW15994   3.551   2.784   2.474
 5113SOL    HW115995   3.646   2.755   2.482
 5113SOL    HW215996   3.543   2.849   2.399
 5114SOL     OW15997   3.503   2.970   2.294
 5114SOL    HW115998   3.589   2.972   2.242
 5114SOL    HW215999   3.517   3.017   2.382
 5115SOL     OW16000   1.975   2.599   3.459
 5115SOL    HW116001   2.063   2.586   3.504
 5115SOL    HW216002   1.962   2.696   3.437
 5116SOL     OW16003   2.475   3.227   2.588
 5116SOL    HW116004   2.426   3.140   2.597
 5116SOL    HW216005   2.452   3.270   2.501
 5117SOL     OW16006   3.155   3.090   3.285
 5117SOL    HW116007   3.192   3.017   3.227
 5117SOL    HW216008   3.207   3.095   3.370
 5118SOL     OW16009   2.671   1.866   2.364
 5118SOL    HW116010   2.711   1.957   2.355
 5118SOL    HW216011   2.571   1.874   2.370
 5119SOL     OW16012   2.059   2.838   3.126
 5119SOL    HW116013   2.148   2.793   3.112
 5119SOL    HW216014   1.986   2.773   3.107
 5120SOL     OW16015   3.387   2.861   2.052
 5120SOL    HW116016   3.324   2.785   2.065
 5120SOL    HW216017   3.435   2.879   2.138
 5121SOL     OW16018   3.049   3.654   3.478
 5121SOL    HW116019   3.073   3.714   3.402
 5121SOL    HW216020   3.056   3.559   3.448
 5122SOL     OW16021   3.328   3.279   2.815
 5122SOL    HW116022   3.269   3.285   2.895
 5122SOL    HW216023   3.313   3.191   2.769
 5123SOL     OW16024   3.529   3.576   2.434
 5123SOL    HW116025   3.488   3.553   2.346
 5123SOL    HW216026   3.511   3.502   2.499
 5124SOL     OW16027   2.460   2.591   2.132
 5124SOL    HW116028   2.484   2.660   2.064
 5124SOL    HW216029   2.382   2.624   2.186
 5125SOL     OW16030   3.143   2.207   2.806
 5125SOL    HW116031   3.057   2.157   2.793
 5125SOL    HW216032   3.205   2.153   2.862
 5126SOL     OW16033   3.438   3.524   2.169
 5126SOL    HW116034   3.527   3.570   2.172
 5126SOL    HW216035   3.417   3.500   2.074
 5127SOL     OW16036   2.669   2.467   3.327
 5127SOL    HW116037   2.622   2.464   3.416
 5127SOL    HW216038   2.618   2.412   3.261
 5128SOL     OW16039   3.256   2.331   3.536
 5128SOL    HW116040   3.236   2.374   3.624
 5128SOL    HW216041   3.334   2.269   3.545
 5129SOL     OW16042   2.835   2.752   3.434
 5129SOL    HW116043   2.881   2.668   3.405
 5129SOL    HW216044   2.779   2.786   3.359
 5130SOL     OW16045   2.853   2.272   3.104
 5130SOL    HW116046   2.776   2.306   3.158
 5130SOL    HW216047   2.819   2.221   3.025
 5131SOL     OW16048   2.903   2.563   2.291
 5131SOL    HW116049   2.929   2.559   2.387
 5131SOL    HW216050   2.818   2.512   2.277
 5132SOL     OW16051   1.938   2.673   2.651
 5132SOL    HW116052   2.037   2.661   2.660
 5132SOL    HW216053   1.914   2.768   2.672
 5133SOL     OW16054   1.992   3.683   3.433
 5133SOL    HW116055   1.982   3.668   3.532
 5133SOL    HW216056   1.906   3.719   3.397
 5134SOL     OW16057   2.727   2.210   2.057
 5134SOL    HW116058   2.786   2.273   2.008
 5134SOL    HW216059   2.746   2.116   2.028
 5135SOL     OW16060   3.581   2.447   3.693
 5135SOL    HW116061   3.555   2.536   3.657
 5135SOL    HW216062   3.579   2.379   3.620
 5136SOL     OW16063   3.224   3.006   2.407
 5136SOL    HW116064   3.307   2.977   2.359
 5136SOL    HW216065   3.175   3.073   2.351
 5137SOL     OW16066   2.412   2.058   2.747
 5137SOL    HW116067   2.407   2.053   2.847
 5137SOL    HW216068   2.414   2.154   2.718
 5138SOL     OW16069   2.870   3.318   2.339
 5138SOL    HW116070   2.824   3.390   2.287
 5138SOL    HW216071   2.866   3.338   2.437
 5139SOL     OW16072   2.213   3.663   2.715
 5139SOL    HW116073   2.263   3.577   2.721
 5139SOL    HW216074   2.278   3.740   2.712
 5140SOL     OW16075   3.657   2.928   2.735
 5140SOL    HW116076   3.595   2.913   2.659
 5140SOL    HW216077   3.605   2.939   2.820
 5141SOL     OW16078   3.089   3.412   3.368
 5141SOL    HW116079   3.095   3.335   3.432
 5141SOL    HW216080   3.037   3.386   3.288
 5142SOL     OW16081   2.183   2.805   2.104
 5142SOL    HW116082   2.265   2.844   2.062
 5142SOL    HW216083   2.156   2.723   2.055
 5143SOL     OW16084   3.320   2.597   2.590
 5143SOL    HW116085   3.315   2.532   2.665
 5143SOL    HW216086   3.400   2.656   2.603
 5144SOL     OW16087   2.323   3.128   3.589
 5144SOL    HW116088   2.273   3.129   3.503
 5144SOL    HW216089   2.260   3.110   3.665
 5145SOL     OW16090   2.973   3.638   2.099
 5145SOL    HW116091   2.913   3.576   2.149
 5145SOL    HW216092   3.004   3.594   2.014
 5146SOL     OW16093   3.494   3.239   1.943
 5146SOL    HW116094   3.462   3.333   1.933
 5146SOL    HW216095   3.418   3.176   1.931
 5147SOL     OW16096   2.326   3.605   2.185
 5147SOL    HW116097   2.359   3.644   2.271
 5147SOL    HW216098   2.402   3.598   2.120
 5148SOL     OW16099   3.262   1.969   2.288
 5148SOL    HW116100   3.238   1.932   2.198
 5148SOL    HW216101   3.361   1.985   2.292
 5149SOL     OW16102   2.111   3.647   3.103
 5149SOL    HW116103   2.168   3.582   3.153
 5149SOL    HW216104   2.095   3.614   3.010
 5150SOL     OW16105   2.802   3.560   2.766
 5150SOL    HW116106   2.882   3.503   2.787
 5150SOL    HW216107   2.753   3.520   2.689
 5151SOL     OW16108   2.244   2.562   2.342
 5151SOL    HW116109   2.289   2.472   2.339
 5151SOL    HW216110   2.150   2.551   2.375
 5152SOL     OW16111   3.409   2.084   3.591
 5152SOL    HW116112   3.404   2.121   3.683
 5152SOL    HW216113   3.337   2.015   3.579
 5153SOL     OW16114   2.476   1.984   1.979
 5153SOL    HW116115   2.574   1.962   1.986
 5153SOL    HW216116   2.445   1.967   1.886
 5154SOL     OW16117   2.643   2.126   3.611
 5154SOL    HW116118   2.710   2.065   3.654
 5154SOL    HW216119   2.570   2.145   3.676
 5155SOL     OW16120   2.750   3.376   3.057
 5155SOL    HW116121   2.727   3.351   2.963
 5155SOL    HW216122   2.811   3.307   3.096
 5156SOL     OW16123   3.213   2.452   3.295
 5156SOL    HW116124   3.241   2.409   3.380
 5156SOL    HW216125   3.238   2.548   3.296
 5157SOL     OW16126   2.665   3.264   2.786
 5157SOL    HW116127   2.755   3.278   2.744
 5157SOL    HW216128   2.594   3.266   2.715
 5158SOL     OW16129   2.784   2.365   2.761
 5158SOL    HW116130   2.759   2.356   2.665
 5158SOL    HW216131   2.832   2.283   2.792
 5159SOL     OW16132   2.401   1.926   2.374
 5159SOL    HW116133   2.320   1.927   2.432
 5159SOL    HW216134   2.404   2.009   2.319
 5160SOL     OW16135   3.296   3.050   1.903
 5160SOL    HW116136   3.328   2.974   1.960
 5160SOL    HW216137   3.204   3.077   1.933
 5161SOL     OW16138   2.797   2.098   2.342
 5161SOL    HW116139   2.749   2.139   2.264
 5161SOL    HW216140   2.896   2.096   2.323
 5162SOL     OW16141   2.938   2.545   3.326
 5162SOL    HW116142   2.858   2.484   3.329
 5162SOL    HW216143   3.019   2.492   3.302
 5163SOL     OW16144   3.089   3.432   2.655
 5163SOL    HW116145   3.110   3.506   2.590
 5163SOL    HW216146   3.157   3.432   2.728
 5164SOL     OW16147   2.321   3.014   2.603
 5164SOL    HW116148   2.250   2.987   2.668
 5164SOL    HW216149   2.295   2.986   2.510
 5165SOL     OW16150   3.133   3.659   2.453
 5165SOL    HW116151   3.177   3.723   2.389
 5165SOL    HW216152   3.083   3.711   2.523
 5166SOL     OW16153   2.894   2.411   1.878
 5166SOL    HW116154   2.853   2.493   1.839
 5166SOL    HW216155   2.958   2.437   1.951
 5167SOL     OW16156   1.940   2.418   3.248
 5167SOL    HW116157   2.032   2.417   3.207
 5167SOL    HW216158   1.934   2.492   3.315
 5168SOL     OW16159   2.423   2.084   3.009
 5168SOL    HW116160   2.461   2.000   3.046
 5168SOL    HW216161   2.335   2.103   3.053
 5169SOL     OW16162   2.728   2.316   2.504
 5169SOL    HW116163   2.696   2.388   2.442
 5169SOL    HW216164   2.752   2.235   2.451
 5170SOL     OW16165   2.879   1.901   2.615
 5170SOL    HW116166   2.807   1.906   2.546
 5170SOL    HW216167   2.855   1.832   2.684
 5171SOL     OW16168   3.291   3.035   2.729
 5171SOL    HW116169   3.236   2.951   2.722
 5171SOL    HW216170   3.317   3.064   2.637
 5172SOL     OW16171   3.328   2.452   2.854
 5172SOL    HW116172   3.298   2.357   2.861
 5172SOL    HW216173   3.401   2.468   2.920
 5173SOL     OW16174   3.719   2.695   2.239
 5173SOL    HW116175   3.761   2.631   2.303
 5173SOL    HW216176   3.681   2.644   2.161
 5174SOL     OW16177   2.350   3.247   2.036
 5174SOL    HW116178   2.263   3.232   2.083
 5174SOL    HW216179   2.333   3.273   1.941
 5175SOL     OW16180   3.526   3.142   2.519
 5175SOL    HW116181   3.625   3.150   2.533
 5175SOL    HW216182   3.481   3.226   2.550
 5176SOL     OW16183   3.252   2.437   1.940
 5176SOL    HW116184   3.198   2.416   2.021
 5176SOL    HW216185   3.343   2.396   1.949
 5177SOL     OW16186   2.389   2.118   2.190
 5177SOL    HW116187   2.416   2.059   2.115
 5177SOL    HW216188   2.389   2.213   2.159
 5178SOL     OW16189   3.616   3.085   3.450
 5178SOL    HW116190   3.707   3.046   3.437
 5178SOL    HW216191   3.624   3.181   3.474
 5179SOL     OW16192   2.926   3.209   3.202
 5179SOL    HW116193   2.846   3.186   3.257
 5179SOL    HW216194   3.009   3.183   3.251
 5180SOL     OW16195   3.454   3.491   3.487
 5180SOL    HW116196   3.481   3.525   3.397
 5180SOL    HW216197   3.533   3.453   3.533
 5181SOL     OW16198   2.973   3.057   2.962
 5181SOL    HW116199   2.933   3.101   3.043
 5181SOL    HW216200   2.932   3.094   2.879
 5182SOL     OW16201   3.500   2.961   2.941
 5182SOL    HW116202   3.505   3.042   3.000
 5182SOL    HW216203   3.414   2.963   2.890
 5183SOL     OW16204   2.777   1.951   3.264
 5183SOL    HW116205   2.802   1.931   3.169
 5183SOL    HW216206   2.849   2.007   3.306
 5184SOL     OW16207   2.842   2.978   3.581
 5184SOL    HW116208   2.743   2.984   3.591
 5184SOL    HW216209   2.865   2.898   3.525
 5185SOL     OW16210   2.567   2.912   2.230
 5185SOL    HW116211   2.553   2.919   2.329
 5185SOL    HW216212   2.651   2.861   2.212
 5186SOL     OW16213   2.272   2.675   3.113
 5186SOL    HW116214   2.358   2.687   3.163
 5186SOL    HW216215   2.230   2.588   3.140
 5187SOL     OW16216   3.136   2.248   3.124
 5187SOL    HW116217   3.157   2.322   3.188
 5187SOL    HW216218   3.047   2.265   3.081
 5188SOL     OW16219   1.926   3.426   3.193
 5188SOL    HW116220   1.880   3.508   3.159
 5188SOL    HW216221   2.024   3.445   3.202
 5189SOL     OW16222   2.229   2.962   2.363
 5189SOL    HW116223   2.222   3.045   2.307
 5189SOL    HW216224   2.233   2.882   2.303
 5190SOL     OW16225   2.428   2.399   2.727
 5190SOL    HW116226   2.440   2.465   2.653
 5190SOL    HW216227   2.474   2.433   2.810
 5191SOL     OW16228   3.114   3.210   2.250
 5191SOL    HW116229   3.164   3.287   2.290
 5191SOL    HW216230   3.019   3.212   2.282
 5192SOL     OW16231   3.134   3.307   3.004
 5192SOL    HW116232   3.181   3.320   3.091
 5192SOL    HW216233   3.068   3.233   3.013
 5193SOL     OW16234   3.444   2.501   2.334
 5193SOL    HW116235   3.413   2.562   2.407
 5193SOL    HW216236   3.494   2.553   2.265
 5194SOL     OW16237   2.216   3.372   3.191
 5194SOL    HW116238   2.195   3.328   3.104
 5194SOL    HW216239   2.313   3.398   3.194
 5195SOL     OW16240   2.264   2.613   3.460
 5195SOL    HW116241   2.332   2.668   3.413
 5195SOL    HW216242   2.304   2.525   3.487
 5196SOL     OW16243   3.449   2.641   3.532
 5196SOL    HW116244   3.357   2.679   3.527
 5196SOL    HW216245   3.509   2.688   3.467
 5197SOL     OW16246   2.875   1.967   3.632
 5197SOL    HW116247   2.881   2.052   3.580
 5197SOL    HW216248   2.907   1.891   3.575
 5198SOL     OW16249   2.366   1.912   3.602
 5198SOL    HW116250   2.324   1.855   3.532
 5198SOL    HW216251   2.300   1.981   3.634
 5199SOL     OW16252   2.435   2.732   2.891
 5199SOL    HW116253   2.479   2.821   2.882
 5199SOL    HW216254   2.372   2.732   2.968
 5200SOL     OW16255   3.222   2.724   2.907
 5200SOL    HW116256   3.147   2.724   2.841
 5200SOL    HW216257   3.259   2.632   2.916
 5201SOL     OW16258   3.071   2.387   2.137
 5201SOL    HW116259   3.084   2.303   2.191
 5201SOL    HW216260   3.042   2.461   2.197
 5202SOL     OW16261   1.899   3.172   3.144
 5202SOL    HW116262   1.952   3.123   3.212
 5202SOL    HW216263   1.921   3.270   3.149
 5203SOL     OW16264   2.594   2.496   2.926
 5203SOL    HW116265   2.653   2.470   2.850
 5203SOL    HW216266   2.566   2.592   2.915
 5204SOL     OW16267   3.590   2.797   3.716
 5204SOL    HW116268   3.544   2.790   3.627
 5204SOL    HW216269   3.528   2.841   3.782
 5205SOL     OW16270   3.484   2.229   2.236
 5205SOL    HW116271   3.486   2.153   2.300
 5205SOL    HW216272   3.436   2.306   2.276
 5206SOL     OW16273   2.885   2.628   2.828
 5206SOL    HW116274   2.900   2.649   2.924
 5206SOL    HW216275   2.855   2.533   2.819
 5207SOL     OW16276   2.842   3.435   3.562
 5207SOL    HW116277   2.822   3.479   3.474
 5207SOL    HW216278   2.881   3.344   3.546
 5208SOL     OW16279   3.721   3.380   3.467
 5208SOL    HW116280   3.735   3.407   3.372
 5208SOL    HW216281   3.804   3.402   3.520
 5209SOL     OW16282   2.212   2.760   3.666
 5209SOL    HW116283   2.288   2.804   3.714
 5209SOL    HW216284   2.247   2.713   3.584
 5210SOL     OW16285   3.402   2.136   1.987
 5210SOL    HW116286   3.341   2.061   2.010
 5210SOL    HW216287   3.424   2.188   2.070
 5211SOL     OW16288   3.165   2.700   1.904
 5211SOL    HW116289   3.199   2.607   1.919
 5211SOL    HW216290   3.183   2.727   1.809
 5212SOL     OW16291   2.930   3.195   2.711
 5212SOL    HW116292   2.937   3.111   2.656
 5212SOL    HW216293   2.992   3.264   2.675
 5213SOL     OW16294   2.181   2.672   2.811
 5213SOL    HW116295   2.274   2.708   2.816
 5213SOL    HW216296   2.175   2.587   2.863
 5214SOL     OW16297   2.201   2.371   2.868
 5214SOL    HW116298   2.149   2.288   2.851
 5214SOL    HW216299   2.278   2.376   2.804
 5215SOL     OW16300   3.000   2.242   3.540
 5215SOL    HW116301   2.955   2.305   3.604
 5215SOL    HW216302   3.093   2.273   3.523
 5216SOL     OW16303   3.022   2.069   3.339
 5216SOL    HW116304   3.022   2.133   3.416
 5216SOL    HW216305   3.050   2.117   3.256
 5217SOL     OW16306   1.870   3.188   2.062
 5217SOL    HW116307   1.777   3.209   2.031
 5217SOL    HW216308   1.880   3.089   2.075
 5218SOL     OW16309   1.950   3.663   2.789
 5218SOL    HW116310   1.908   3.577   2.762
 5218SOL    HW216311   2.044   3.666   2.755
 5219SOL     OW16312   2.366   3.430   2.772
 5219SOL    HW116313   2.432   3.504   2.781
 5219SOL    HW216314   2.410   3.351   2.730
 5220SOL     OW16315   2.864   2.658   3.100
 5220SOL    HW116316   2.905   2.626   3.186
 5220SOL    HW216317   2.768   2.631   3.097
 5221SOL     OW16318   3.231   2.812   3.522
 5221SOL    HW116319   3.270   2.901   3.542
 5221SOL    HW216320   3.241   2.792   3.425
 5222SOL     OW16321   2.677   2.434   2.187
 5222SOL    HW116322   2.684   2.345   2.141
 5222SOL    HW216323   2.583   2.468   2.179
 5223SOL     OW16324   3.519   2.466   3.068
 5223SOL    HW116325   3.481   2.397   3.130
 5223SOL    HW216326   3.601   2.430   3.024
 5224SOL     OW16327   2.114   3.426   3.606
 5224SOL    HW116328   2.084   3.483   3.682
 5224SOL    HW216329   2.107   3.329   3.632
 5225SOL     OW16330   2.533   2.326   3.131
 5225SOL    HW116331   2.499   2.237   3.101
 5225SOL    HW216332   2.559   2.380   3.051
 5226SOL     OW16333   2.792   3.540   3.327
 5226SOL    HW116334   2.768   3.522   3.232
 5226SOL    HW216335   2.822   3.634   3.337
 5227SOL     OW16336   2.335   2.362   2.053
 5227SOL    HW116337   2.396   2.442   2.057
 5227SOL    HW216338   2.240   2.393   2.060
 5228SOL     OW16339   2.021   2.999   3.328
 5228SOL    HW116340   2.043   2.938   3.404
 5228SOL    HW216341   2.031   2.950   3.242
 5229SOL     OW16342   3.209   2.921   3.096
 5229SOL    HW116343   3.233   2.858   3.022
 5229SOL    HW216344   3.119   2.961   3.078
 5230SOL     OW16345   3.164   2.717   2.171
 5230SOL    HW116346   3.078   2.686   2.213
 5230SOL    HW216347   3.160   2.703   2.072
 5231SOL     OW16348   3.621   3.609   3.016
 5231SOL    HW116349   3.682   3.639   2.943
 5231SOL    HW216350   3.583   3.520   2.994
 5232SOL     OW16351   3.114   3.593   2.990
 5232SOL    HW116352   3.198   3.598   2.936
 5232SOL    HW216353   3.091   3.497   3.008
 5233SOL     OW16354   1.945   3.120   2.884
 5233SOL    HW116355   1.940   3.119   2.984
 5233SOL    HW216356   1.862   3.079   2.846
 5234SOL     OW16357   2.550   3.524   3.578
 5234SOL    HW116358   2.494   3.605   3.587
 5234SOL    HW216359   2.602   3.528   3.492
 5235SOL     OW16360   3.588   1.997   2.385
 5235SOL    HW116361   3.661   1.980   2.318
 5235SOL    HW216362   3.557   1.910   2.423
 5236SOL     OW16363   3.250   3.435   2.339
 5236SOL    HW116364   3.317   3.447   2.265
 5236SOL    HW216365   3.210   3.524   2.362
 5237SOL     OW16366   1.992   3.656   3.713
 5237SOL    HW116367   1.951   3.582   3.766
 5237SOL    HW216368   2.056   3.707   3.771
 5238SOL     OW16369   3.142   2.789   2.534
 5238SOL    HW116370   3.202   2.708   2.536
 5238SOL    HW216371   3.182   2.858   2.474
 5239SOL     OW16372   2.692   3.135   3.284
 5239SOL    HW116373   2.687   3.168   3.379
 5239SOL    HW216374   2.606   3.154   3.238
 5240SOL     OW16375   2.534   3.478   2.016
 5240SOL    HW116376   2.543   3.488   1.917
 5240SOL    HW216377   2.494   3.389   2.037
 5241SOL     OW16378   3.512   3.582   3.256
 5241SOL    HW116379   3.565   3.592   3.172
 5241SOL    HW216380   3.485   3.672   3.290
 5242SOL     OW16381   3.703   2.037   2.825
 5242SOL    HW116382   3.742   1.952   2.789
 5242SOL    HW216383   3.605   2.039   2.806
 5243SOL     OW16384   3.056   3.474   1.893
 5243SOL    HW116385   3.062   3.381   1.930
 5243SOL    HW216386   2.997   3.474   1.813
 5244SOL     OW16387   2.684   2.864   3.234
 5244SOL    HW116388   2.724   2.863   3.142
 5244SOL    HW216389   2.694   2.956   3.274
 5245SOL     OW16390   2.778   2.772   2.153
 5245SOL    HW116391   2.841   2.810   2.085
 5245SOL    HW216392   2.818   2.689   2.192
 5246SOL     OW16393   3.366   3.469   1.906
 5246SOL    HW116394   3.274   3.506   1.913
 5246SOL    HW216395   3.404   3.489   1.816
 5247SOL     OW16396   2.234   3.150   3.352
 5247SOL    HW116397   2.221   3.243   3.318
 5247SOL    HW216398   2.150   3.098   3.339
 5248SOL     OW16399   3.476   3.154   3.151
 5248SOL    HW116400   3.536   3.157   3.231
 5248SOL    HW216401   3.401   3.218   3.164
 5249SOL     OW16402   2.901   2.960   2.558
 5249SOL    HW116403   2.831   2.913   2.612
 5249SOL    HW216404   2.960   2.892   2.515
 5250SOL     OW16405   2.876   2.098   2.833
 5250SOL    HW116406   2.868   2.062   2.740
 5250SOL    HW216407   2.874   2.022   2.898
 5251SOL     OW16408   2.452   3.349   2.353
 5251SOL    HW116409   2.494   3.291   2.283
 5251SOL    HW216410   2.408   3.428   2.309
 5252SOL     OW16411   3.571   2.247   3.243
 5252SOL    HW116412   3.644   2.316   3.247
 5252SOL    HW216413   3.599   2.172   3.184
 5253SOL     OW16414   2.117   3.210   2.152
 5253SOL    HW116415   2.021   3.211   2.125
 5253SOL    HW216416   2.129   3.263   2.236
 5254SOL     OW16417   1.967   2.875   3.588
 5254SOL    HW116418   1.890   2.842   3.642
 5254SOL    HW216419   2.052   2.845   3.630
 5255SOL     OW16420   2.534   2.065   3.351
 5255SOL    HW116421   2.624   2.049   3.311
 5255SOL    HW216422   2.542   2.070   3.450
 5256SOL     OW16423   3.302   2.718   3.260
 5256SOL    HW116424   3.245   2.770   3.197
 5256SOL    HW216425   3.398   2.730   3.236
 5257SOL     OW16426   3.045   3.197   1.981
 5257SOL    HW116427   2.946   3.186   1.983
 5257SOL    HW216428   3.079   3.212   2.074
 5258SOL     OW16429   2.475   2.704   3.293
 5258SOL    HW116430   2.531   2.785   3.276
 5258SOL    HW216431   2.534   2.624   3.296
 5259SOL     OW16432   3.355   3.629   2.821
 5259SOL    HW116433   3.388   3.693   2.752
 5259SOL    HW216434   3.421   3.623   2.896
 5260SOL     OW16435   2.578   2.427   3.570
 5260SOL    HW116436   2.597   2.492   3.644
 5260SOL    HW216437   2.638   2.347   3.579
 5261SOL     OW16438   3.312   3.082   3.495
 5261SOL    HW116439   3.303   3.072   3.594
 5261SOL    HW216440   3.408   3.075   3.469
 5262SOL     OW16441   2.252   3.603   3.422
 5262SOL    HW116442   2.161   3.644   3.420
 5262SOL    HW216443   2.245   3.509   3.454
 5263SOL     OW16444   3.536   2.745   3.116
 5263SOL    HW116445   3.509   2.656   3.079
 5263SOL    HW216446   3.537   2.813   3.043
 5264SOL     OW16447   3.087   2.187   2.311
 5264SOL    HW116448   3.152   2.113   2.300
 5264SOL    HW216449   3.107   2.237   2.395
 5265SOL     OW16450   2.456   2.607   2.514
 5265SOL    HW116451   2.506   2.692   2.495
 5265SOL    HW216452   2.368   2.609   2.466
 5266SOL     OW16453   3.639   2.204   3.504
 5266SOL    HW116454   3.622   2.235   3.410
 5266SOL    HW216455   3.555   2.167   3.542
 5267SOL     OW16456   3.592   2.796   3.379
 5267SOL    HW116457   3.630   2.887   3.394
 5267SOL    HW216458   3.584   2.779   3.280
 5268SOL     OW16459   2.721   3.236   1.878
 5268SOL    HW116460   2.675   3.251   1.966
 5268SOL    HW216461   2.765   3.321   1.848
 5269SOL     OW16462   2.523   3.652   2.815
 5269SOL    HW116463   2.477   3.740   2.802
 5269SOL    HW216464   2.622   3.664   2.808
 5270SOL     OW16465   2.721   2.818   2.723
 5270SOL    HW116466   2.775   2.749   2.771
 5270SOL    HW216467   2.689   2.887   2.789
 5271SOL     OW16468   2.945   2.846   1.949
 5271SOL    HW116469   2.922   2.899   1.867
 5271SOL    HW216470   3.026   2.790   1.930
 5272SOL     OW16471   3.723   3.431   2.713
 5272SOL    HW116472   3.652   3.419   2.643
 5272SOL    HW216473   3.724   3.352   2.773
 5273SOL     OW16474   2.083   3.176   3.706
 5273SOL    HW116475   2.018   3.103   3.685
 5273SOL    HW216476   2.087   3.190   3.804
 5274SOL     OW16477   1.941   3.102   2.515
 5274SOL    HW116478   1.940   3.055   2.603
 5274SOL    HW216479   2.023   3.074   2.464
 5275SOL     OW16480   2.534   3.253   3.486
 5275SOL    HW116481   2.456   3.203   3.524
 5275SOL    HW216482   2.531   3.348   3.517
 5276SOL     OW16483   3.686   2.054   3.089
 5276SOL    HW116484   3.682   1.964   3.133
 5276SOL    HW216485   3.689   2.043   2.990
 5277SOL     OW16486   2.290   2.286   2.382
 5277SOL    HW116487   2.320   2.214   2.320
 5277SOL    HW216488   2.251   2.246   2.465
 5278SOL     OW16489   3.567   3.349   2.966
 5278SOL    HW116490   3.474   3.324   2.939
 5278SOL    HW216491   3.593   3.299   3.048
 5279SOL     OW16492   2.179   2.409   3.142
 5279SOL    HW116493   2.217   2.350   3.214
 5279SOL    HW216494   2.219   2.383   3.054
 5280SOL     OW16495   2.674   3.448   2.549
 5280SOL    HW116496   2.706   3.458   2.455
 5280SOL    HW216497   2.595   3.386   2.551
 5281SOL     OW16498   3.286   2.076   2.974
 5281SOL    HW116499   3.338   2.011   3.029
 5281SOL    HW216500   3.237   2.139   3.035
 5282SOL     OW16501   2.863   1.896   3.016
 5282SOL    HW116502   2.800   1.824   2.985
 5282SOL    HW216503   2.956   1.860   3.016
 5283SOL     OW16504   2.632   3.192   2.163
 5283SOL    HW116505   2.586   3.105   2.180
 5283SOL    HW216506   2.723   3.189   2.204
 5284SOL     OW16507   2.480   3.429   3.146
 5284SOL    HW116508   2.475   3.511   3.203
 5284SOL    HW216509   2.569   3.426   3.101
 5285SOL     OW16510   3.214   1.914   2.030
 5285SOL    HW116511   3.249   1.873   1.946
 5285SOL    HW216512   3.124   1.876   2.050
 5286SOL     OW16513   3.162   2.315   2.553
 5286SOL    HW116514   3.103   2.395   2.557
 5286SOL    HW216515   3.177   2.280   2.646
 5287SOL     OW16516   3.455   2.083   2.744
 5287SOL    HW116517   3.371   2.082   2.798
 5287SOL    HW216518   3.457   2.166   2.688
 5288SOL     OW16519   1.901   2.939   2.162
 5288SOL    HW116520   2.000   2.928   2.153
 5288SOL    HW216521   1.861   2.853   2.194
 5289SOL     OW16522   2.737   3.508   2.199
 5289SOL    HW116523   2.660   3.473   2.145
 5289SOL    HW216524   2.705   3.579   2.261
 5290SOL     OW16525   2.092   2.490   3.837
 5290SOL    HW116526   1.999   2.488   3.874
 5290SOL    HW216527   2.093   2.451   3.745
 5291SOL     OW16528   2.431   3.137   4.889
 5291SOL    HW116529   2.338   3.130   4.852
 5291SOL    HW216530   2.442   3.226   4.933
 5292SOL     OW16531   3.417   3.373   4.427
 5292SOL    HW116532   3.360   3.357   4.508
 5292SOL    HW216533   3.358   3.383   4.347
 5293SOL     OW16534   2.997   2.565   4.441
 5293SOL    HW116535   3.054   2.643   4.416
 5293SOL    HW216536   2.937   2.591   4.517
 5294SOL     OW16537   3.617   2.469   3.955
 5294SOL    HW116538   3.605   2.456   3.856
 5294SOL    HW216539   3.587   2.388   4.004
 5295SOL     OW16540   2.630   3.006   4.747
 5295SOL    HW116541   2.552   3.023   4.807
 5295SOL    HW216542   2.664   3.093   4.711
 5296SOL     OW16543   2.712   2.660   5.547
 5296SOL    HW116544   2.708   2.736   5.612
 5296SOL    HW216545   2.734   2.696   5.456
 5297SOL     OW16546   2.547   2.874   4.389
 5297SOL    HW116547   2.616   2.858   4.459
 5297SOL    HW216548   2.474   2.931   4.427
 5298SOL     OW16549   2.548   3.023   5.527
 5298SOL    HW116550   2.608   3.102   5.541
 5298SOL    HW216551   2.462   3.054   5.486
 5299SOL     OW16552   2.197   3.297   4.785
 5299SOL    HW116553   2.119   3.266   4.732
 5299SOL    HW216554   2.255   3.355   4.728
 5300SOL     OW16555   3.322   3.367   5.063
 5300SOL    HW116556   3.346   3.461   5.089
 5300SOL    HW216557   3.306   3.313   5.145
 5301SOL     OW16558   2.300   2.254   5.223
 5301SOL    HW116559   2.382   2.198   5.232
 5301SOL    HW216560   2.219   2.196   5.227
 5302SOL     OW16561   3.465   2.309   4.461
 5302SOL    HW116562   3.391   2.355   4.411
 5302SOL    HW216563   3.516   2.377   4.514
 5303SOL     OW16564   2.093   3.575   4.207
 5303SOL    HW116565   2.127   3.652   4.261
 5303SOL    HW216566   2.137   3.575   4.117
 5304SOL     OW16567   2.989   3.203   5.414
 5304SOL    HW116568   3.036   3.203   5.502
 5304SOL    HW216569   2.941   3.116   5.403
 5305SOL     OW16570   2.092   3.296   4.262
 5305SOL    HW116571   2.066   3.392   4.262
 5305SOL    HW216572   2.021   3.242   4.307
 5306SOL     OW16573   2.102   2.953   4.610
 5306SOL    HW116574   2.116   2.869   4.662
 5306SOL    HW216575   2.047   3.017   4.665
 5307SOL     OW16576   2.482   3.648   5.163
 5307SOL    HW116577   2.390   3.631   5.198
 5307SOL    HW216578   2.510   3.740   5.189
 5308SOL     OW16579   2.468   2.826   3.847
 5308SOL    HW116580   2.475   2.910   3.793
 5308SOL    HW216581   2.514   2.839   3.935
 5309SOL     OW16582   3.456   1.976   5.204
 5309SOL    HW116583   3.438   2.043   5.132
 5309SOL    HW216584   3.453   2.022   5.293
 5310SOL     OW16585   1.984   2.505   4.287
 5310SOL    HW116586   1.939   2.417   4.304
 5310SOL    HW216587   1.983   2.559   4.371
 5311SOL     OW16588   3.704   3.629   4.083
 5311SOL    HW116589   3.758   3.600   4.163
 5311SOL    HW216590   3.734   3.719   4.054
 5312SOL     OW16591   1.889   3.458   3.841
 5312SOL    HW116592   1.870   3.362   3.862
 5312SOL    HW216593   1.856   3.516   3.916
 5313SOL     OW16594   3.551   2.784   4.336
 5313SOL    HW116595   3.646   2.755   4.344
 5313SOL    HW216596   3.543   2.849   4.261
 5314SOL     OW16597   3.503   2.970   4.156
 5314SOL    HW116598   3.589   2.972   4.104
 5314SOL    HW216599   3.517   3.017   4.244
 5315SOL     OW16600   1.975   2.599   5.321
 5315SOL    HW116601   2.063   2.586   5.366
 5315SOL    HW216602   1.962   2.696   5.299
 5316SOL     OW16603   2.475   3.227   4.450
 5316SOL    HW116604   2.426   3.140   4.459
 5316SOL    HW216605   2.452   3.270   4.363
 5317SOL     OW16606   3.155   3.090   5.147
 5317SOL    HW116607   3.192   3.017   5.089
 5317SOL    HW216608   3.207   3.095   5.232
 5318SOL     OW16609   2.671   1.866   4.226
 5318SOL    HW116610   2.711   1.957   4.217
 5318SOL    HW216611   2.571   1.874   4.232
 5319SOL     OW16612   2.059   2.838   4.988
 5319SOL    HW116613   2.148   2.793   4.974
 5319SOL    HW216614   1.986   2.773   4.969
 5320SOL     OW16615   3.387   2.861   3.914
 5320SOL    HW116616   3.324   2.785   3.927
 5320SOL    HW216617   3.435   2.879   4.000
 5321SOL     OW16618   3.049   3.654   5.340
 5321SOL    HW116619   3.073   3.714   5.264
 5321SOL    HW216620   3.056   3.559   5.310
 5322SOL     OW16621   3.328   3.279   4.677
 5322SOL    HW116622   3.269   3.285   4.757
 5322SOL    HW216623   3.313   3.191   4.631
 5323SOL     OW16624   3.529   3.576   4.296
 5323SOL    HW116625   3.488   3.553   4.208
 5323SOL    HW216626   3.511   3.502   4.361
 5324SOL     OW16627   2.460   2.591   3.994
 5324SOL    HW116628   2.484   2.660   3.926
 5324SOL    HW216629   2.382   2.624   4.048
 5325SOL     OW16630   3.143   2.207   4.668
 5325SOL    HW116631   3.057   2.157   4.655
 5325SOL    HW216632   3.205   2.153   4.724
 5326SOL     OW16633   3.438   3.524   4.031
 5326SOL    HW116634   3.527   3.570   4.034
 5326SOL    HW216635   3.417   3.500   3.936
 5327SOL     OW16636   2.669   2.467   5.189
 5327SOL    HW116637   2.622   2.464   5.278
 5327SOL    HW216638   2.618   2.412   5.123
 5328SOL     OW16639   3.256   2.331   5.398
 5328SOL    HW116640   3.236   2.374   5.486
 5328SOL    HW216641   3.334   2.269   5.407
 5329SOL     OW16642   2.835   2.752   5.296
 5329SOL    HW116643   2.881   2.668   5.267
 5329SOL    HW216644   2.779   2.786   5.221
 5330SOL     OW16645   2.853   2.272   4.966
 5330SOL    HW116646   2.776   2.306   5.020
 5330SOL    HW216647   2.819   2.221   4.887
 5331SOL     OW16648   2.903   2.563   4.153
 5331SOL    HW116649   2.929   2.559   4.249
 5331SOL    HW216650   2.818   2.512   4.139
 5332SOL     OW16651   1.938   2.673   4.513
 5332SOL    HW116652   2.037   2.661   4.522
 5332SOL    HW216653   1.914   2.768   4.534
 5333SOL     OW16654   1.992   3.683   5.295
 5333SOL    HW116655   1.982   3.668   5.394
 5333SOL    HW216656   1.906   3.719   5.259
 5334SOL     OW16657   2.727   2.210   3.919
 5334SOL    HW116658   2.786   2.273   3.870
 5334SOL    HW216659   2.746   2.116   3.890
 5335SOL     OW16660   3.581   2.447   5.555
 5335SOL    HW116661   3.555   2.536   5.519
 5335SOL    HW216662   3.579   2.379   5.482
 5336SOL     OW16663   3.224   3.006   4.269
 5336SOL    HW116664   3.307   2.977   4.221
 5336SOL    HW216665   3.175   3.073   4.213
 5337SOL     OW16666   2.412   2.058   4.609
 5337SOL    HW116667   2.407   2.053   4.709
 5337SOL    HW216668   2.414   2.154   4.580
 5338SOL     OW16669   2.870   3.318   4.201
 5338SOL    HW116670   2.824   3.390   4.149
 5338SOL    HW216671   2.866   3.338   4.299
 5339SOL     OW16672   2.213   3.663   4.577
 5339SOL    HW116673   2.263   3.577   4.583
 5339SOL    HW216674   2.278   3.740   4.574
 5340SOL     OW16675   3.657   2.928   4.597
 5340SOL    HW116676   3.595   2.913   4.521
 5340SOL    HW216677   3.605   2.939   4.682
 5341SOL     OW16678   3.089   3.412   5.230
 5341SOL    HW116679   3.095   3.335   5.294
 5341SOL    HW216680   3.037   3.386   5.150
 5342SOL     OW16681   2.183   2.805   3.966
 5342SOL    HW116682   2.265   2.844   3.924
 5342SOL    HW216683   2.156   2.723   3.917
 5343SOL     OW16684   3.320   2.597   4.452
 5343SOL    HW116685   3.315   2.532   4.527
 5343SOL    HW216686   3.400   2.656   4.465
 5344SOL     OW16687   2.323   3.128   5.451
 5344SOL    HW116688   2.273   3.129   5.365
 5344SOL    HW216689   2.260   3.110   5.527
 5345SOL     OW16690   2.973   3.638   3.961
 5345SOL    HW116691   2.913   3.576   4.011
 5345SOL    HW216692   3.004   3.594   3.876
 5346SOL     OW16693   3.494   3.239   3.805
 5346SOL    HW116694   3.462   3.333   3.795
 5346SOL    HW216695   3.418   3.176   3.793
 5347SOL     OW16696   2.326   3.605   4.047
 5347SOL    HW116697   2.359   3.644   4.133
 5347SOL    HW216698   2.402   3.598   3.982
 5348SOL     OW16699   3.262   1.969   4.150
 5348SOL    HW116700   3.238   1.932   4.060
 5348SOL    HW216701   3.361   1.985   4.154
 5349SOL     OW16702   2.111   3.647   4.965
 5349SOL    HW116703   2.168   3.582   5.015
 5349SOL    HW216704   2.095   3.614   4.872
 5350SOL     OW16705   2.802   3.560   4.628
 5350SOL    HW116706   2.882   3.503   4.649
 5350SOL    HW216707   2.753   3.520   4.551
 5351SOL     OW16708   2.244   2.562   4.204
 5351SOL    HW116709   2.289   2.472   4.201
 5351SOL    HW216710   2.150   2.551   4.237
 5352SOL     OW16711   3.409   2.084   5.453
 5352SOL    HW116712   3.404   2.121   5.545
 5352SOL    HW216713   3.337   2.015   5.441
 5353SOL     OW16714   2.476   1.984   3.841
 5353SOL    HW116715   2.574   1.962   3.848
 5353SOL    HW216716   2.445   1.967   3.748
 5354SOL     OW16717   2.643   2.126   5.473
 5354SOL    HW116718   2.710   2.065   5.516
 5354SOL    HW216719   2.570   2.145   5.538
 5355SOL     OW16720   2.750   3.376   4.919
 5355SOL    HW116721   2.727   3.351   4.825
 5355SOL    HW216722   2.811   3.307   4.958
 5356SOL     OW16723   3.213   2.452   5.157
 5356SOL    HW116724   3.241   2.409   5.242
 5356SOL    HW216725   3.238   2.548   5.158
 5357SOL     OW16726   2.665   3.264   4.648
 5357SOL    HW116727   2.755   3.278   4.606
 5357SOL    HW216728   2.594   3.266   4.577
 5358SOL     OW16729   2.784   2.365   4.623
 5358SOL    HW116730   2.759   2.356   4.527
 5358SOL    HW216731   2.832   2.283   4.654
 5359SOL     OW16732   2.401   1.926   4.236
 5359SOL    HW116733   2.320   1.927   4.294
 5359SOL    HW216734   2.404   2.009   4.181
 5360SOL     OW16735   3.296   3.050   3.765
 5360SOL    HW116736   3.328   2.974   3.822
 5360SOL    HW216737   3.204   3.077   3.795
 5361SOL     OW16738   2.797   2.098   4.204
 5361SOL    HW116739   2.749   2.139   4.126
 5361SOL    HW216740   2.896   2.096   4.185
 5362SOL     OW16741   2.938   2.545   5.188
 5362SOL    HW116742   2.858   2.484   5.191
 5362SOL    HW216743   3.019   2.492   5.164
 5363SOL     OW16744   3.089   3.432   4.517
 5363SOL    HW116745   3.110   3.506   4.452
 5363SOL    HW216746   3.157   3.432   4.590
 5364SOL     OW16747   2.321   3.014   4.465
 5364SOL    HW116748   2.250   2.987   4.530
 5364SOL    HW216749   2.295   2.986   4.372
 5365SOL     OW16750   3.133   3.659   4.315
 5365SOL    HW116751   3.177   3.723   4.251
 5365SOL    HW216752   3.083   3.711   4.385
 5366SOL     OW16753   2.894   2.411   3.740
 5366SOL    HW116754   2.853   2.493   3.701
 5366SOL    HW216755   2.958   2.437   3.813
 5367SOL     OW16756   1.940   2.418   5.110
 5367SOL    HW116757   2.032   2.417   5.069
 5367SOL    HW216758   1.934   2.492   5.177
 5368SOL     OW16759   2.423   2.084   4.871
 5368SOL    HW116760   2.461   2.000   4.908
 5368SOL    HW216761   2.335   2.103   4.915
 5369SOL     OW16762   2.728   2.316   4.366
 5369SOL    HW116763   2.696   2.388   4.304
 5369SOL    HW216764   2.752   2.235   4.313
 5370SOL     OW16765   2.879   1.901   4.477
 5370SOL    HW116766   2.807   1.906   4.408
 5370SOL    HW216767   2.855   1.832   4.546
 5371SOL     OW16768   3.291   3.035   4.591
 5371SOL    HW116769   3.236   2.951   4.584
 5371SOL    HW216770   3.317   3.064   4.499
 5372SOL     OW16771   3.328   2.452   4.716
 5372SOL    HW116772   3.298   2.357   4.723
 5372SOL    HW216773   3.401   2.468   4.782
 5373SOL     OW16774   3.719   2.695   4.101
 5373SOL    HW116775   3.761   2.631   4.165
 5373SOL    HW216776   3.681   2.644   4.023
 5374SOL     OW16777   2.350   3.247   3.898
 5374SOL    HW116778   2.263   3.232   3.945
 5374SOL    HW216779   2.333   3.273   3.803
 5375SOL     OW16780   3.526   3.142   4.381
 5375SOL    HW116781   3.625   3.150   4.395
 5375SOL    HW216782   3.481   3.226   4.412
 5376SOL     OW16783   3.252   2.437   3.802
 5376SOL    HW116784   3.198   2.416   3.883
 5376SOL    HW216785   3.343   2.396   3.811
 5377SOL     OW16786   2.389   2.118   4.052
 5377SOL    HW116787   2.416   2.059   3.977
 5377SOL    HW216788   2.389   2.213   4.021
 5378SOL     OW16789   3.616   3.085   5.312
 5378SOL    HW116790   3.707   3.046   5.299
 5378SOL    HW216791   3.624   3.181   5.336
 5379SOL     OW16792   2.926   3.209   5.064
 5379SOL    HW116793   2.846   3.186   5.119
 5379SOL    HW216794   3.009   3.183   5.113
 5380SOL     OW16795   3.454   3.491   5.349
 5380SOL    HW116796   3.481   3.525   5.259
 5380SOL    HW216797   3.533   3.453   5.395
 5381SOL     OW16798   2.973   3.057   4.824
 5381SOL    HW116799   2.933   3.101   4.905
 5381SOL    HW216800   2.932   3.094   4.741
 5382SOL     OW16801   3.500   2.961   4.803
 5382SOL    HW116802   3.505   3.042   4.862
 5382SOL    HW216803   3.414   2.963   4.752
 5383SOL     OW16804   2.777   1.951   5.126
 5383SOL    HW116805   2.802   1.931   5.031
 5383SOL    HW216806   2.849   2.007   5.168
 5384SOL     OW16807   2.842   2.978   5.443
 5384SOL    HW116808   2.743   2.984   5.453
 5384SOL    HW216809   2.865   2.898   5.387
 5385SOL     OW16810   2.567   2.912   4.092
 5385SOL    HW116811   2.553   2.919   4.191
 5385SOL    HW216812   2.651   2.861   4.074
 5386SOL     OW16813   2.272   2.675   4.975
 5386SOL    HW116814   2.358   2.687   5.025
 5386SOL    HW216815   2.230   2.588   5.002
 5387SOL     OW16816   3.136   2.248   4.986
 5387SOL    HW116817   3.157   2.322   5.050
 5387SOL    HW216818   3.047   2.265   4.943
 5388SOL     OW16819   1.926   3.426   5.055
 5388SOL    HW116820   1.880   3.508   5.021
 5388SOL    HW216821   2.024   3.445   5.064
 5389SOL     OW16822   2.229   2.962   4.225
 5389SOL    HW116823   2.222   3.045   4.169
 5389SOL    HW216824   2.233   2.882   4.165
 5390SOL     OW16825   2.428   2.399   4.589
 5390SOL    HW116826   2.440   2.465   4.515
 5390SOL    HW216827   2.474   2.433   4.672
 5391SOL     OW16828   3.114   3.210   4.112
 5391SOL    HW116829   3.164   3.287   4.152
 5391SOL    HW216830   3.019   3.212   4.144
 5392SOL     OW16831   3.134   3.307   4.866
 5392SOL    HW116832   3.181   3.320   4.953
 5392SOL    HW216833   3.068   3.233   4.875
 5393SOL     OW16834   3.444   2.501   4.196
 5393SOL    HW116835   3.413   2.562   4.269
 5393SOL    HW216836   3.494   2.553   4.127
 5394SOL     OW16837   2.216   3.372   5.053
 5394SOL    HW116838   2.195   3.328   4.966
 5394SOL    HW216839   2.313   3.398   5.056
 5395SOL     OW16840   2.264   2.613   5.322
 5395SOL    HW116841   2.332   2.668   5.275
 5395SOL    HW216842   2.304   2.525   5.349
 5396SOL     OW16843   3.449   2.641   5.394
 5396SOL    HW116844   3.357   2.679   5.389
 5396SOL    HW216845   3.509   2.688   5.329
 5397SOL     OW16846   2.875   1.967   5.494
 5397SOL    HW116847   2.881   2.052   5.442
 5397SOL    HW216848   2.907   1.891   5.437
 5398SOL     OW16849   2.366   1.912   5.464
 5398SOL    HW116850   2.324   1.855   5.394
 5398SOL    HW216851   2.300   1.981   5.496
 5399SOL     OW16852   2.435   2.732   4.753
 5399SOL    HW116853   2.479   2.821   4.744
 5399SOL    HW216854   2.372   2.732   4.830
 5400SOL     OW16855   3.222   2.724   4.769
 5400SOL    HW116856   3.147   2.724   4.703
 5400SOL    HW216857   3.259   2.632   4.778
 5401SOL     OW16858   3.071   2.387   3.999
 5401SOL    HW116859   3.084   2.303   4.053
 5401SOL    HW216860   3.042   2.461   4.059
 5402SOL     OW16861   1.899   3.172   5.006
 5402SOL    HW116862   1.952   3.123   5.074
 5402SOL    HW216863   1.921   3.270   5.011
 5403SOL     OW16864   2.594   2.496   4.788
 5403SOL    HW116865   2.653   2.470   4.712
 5403SOL    HW216866   2.566   2.592   4.777
 5404SOL     OW16867   3.590   2.797   5.578
 5404SOL    HW116868   3.544   2.790   5.489
 5404SOL    HW216869   3.528   2.841   5.644
 5405SOL     OW16870   3.484   2.229   4.098
 5405SOL    HW116871   3.486   2.153   4.162
 5405SOL    HW216872   3.436   2.306   4.138
 5406SOL     OW16873   2.885   2.628   4.690
 5406SOL    HW116874   2.900   2.649   4.786
 5406SOL    HW216875   2.855   2.533   4.681
 5407SOL     OW16876   2.842   3.435   5.424
 5407SOL    HW116877   2.822   3.479   5.336
 5407SOL    HW216878   2.881   3.344   5.408
 5408SOL     OW16879   3.721   3.380   5.329
 5408SOL    HW116880   3.735   3.407   5.234
 5408SOL    HW216881   3.804   3.402   5.382
 5409SOL     OW16882   2.212   2.760   5.528
 5409SOL    HW116883   2.288   2.804   5.576
 5409SOL    HW216884   2.247   2.713   5.446
 5410SOL     OW16885   3.402   2.136   3.849
 5410SOL    HW116886   3.341   2.061   3.872
 5410SOL    HW216887   3.424   2.188   3.932
 5411SOL     OW16888   3.165   2.700   3.766
 5411SOL    HW116889   3.199   2.607   3.781
 5411SOL    HW216890   3.183   2.727   3.671
 5412SOL     OW16891   2.930   3.195   4.573
 5412SOL    HW116892   2.937   3.111   4.518
 5412SOL    HW216893   2.992   3.264   4.537
 5413SOL     OW16894   2.181   2.672   4.673
 5413SOL    HW116895   2.274   2.708   4.678
 5413SOL    HW216896   2.175   2.587   4.725
 5414SOL     OW16897   2.201   2.371   4.730
 5414SOL    HW116898   2.149   2.288   4.713
 5414SOL    HW216899   2.278   2.376   4.666
 5415SOL     OW16900   3.000   2.242   5.402
 5415SOL    HW116901   2.955   2.305   5.466
 5415SOL    HW216902   3.093   2.273   5.385
 5416SOL     OW16903   3.022   2.069   5.201
 5416SOL    HW116904   3.022   2.133   5.278
 5416SOL    HW216905   3.050   2.117   5.118
 5417SOL     OW16906   1.870   3.188   3.924
 5417SOL    HW116907   1.777   3.209   3.893
 5417SOL    HW216908   1.880   3.089   3.937
 5418SOL     OW16909   1.950   3.663   4.651
 5418SOL    HW116910   1.908   3.577   4.624
 5418SOL    HW216911   2.044   3.666   4.617
 5419SOL     OW16912   2.366   3.430   4.634
 5419SOL    HW116913   2.432   3.504   4.643
 5419SOL    HW216914   2.410   3.351   4.592
 5420SOL     OW16915   2.864   2.658   4.962
 5420SOL    HW116916   2.905   2.626   5.048
 5420SOL    HW216917   2.768   2.631   4.959
 5421SOL     OW16918   3.231   2.812   5.384
 5421SOL    HW116919   3.270   2.901   5.404
 5421SOL    HW216920   3.241   2.792   5.287
 5422SOL     OW16921   2.677   2.434   4.049
 5422SOL    HW116922   2.684   2.345   4.003
 5422SOL    HW216923   2.583   2.468   4.041
 5423SOL     OW16924   3.519   2.466   4.930
 5423SOL    HW116925   3.481   2.397   4.992
 5423SOL    HW216926   3.601   2.430   4.886
 5424SOL     OW16927   2.114   3.426   5.468
 5424SOL    HW116928   2.084   3.483   5.544
 5424SOL    HW216929   2.107   3.329   5.494
 5425SOL     OW16930   2.533   2.326   4.993
 5425SOL    HW116931   2.499   2.237   4.963
 5425SOL    HW216932   2.559   2.380   4.913
 5426SOL     OW16933   2.792   3.540   5.189
 5426SOL    HW116934   2.768   3.522   5.094
 5426SOL    HW216935   2.822   3.634   5.199
 5427SOL     OW16936   2.335   2.362   3.915
 5427SOL    HW116937   2.396   2.442   3.919
 5427SOL    HW216938   2.240   2.393   3.922
 5428SOL     OW16939   2.021   2.999   5.190
 5428SOL    HW116940   2.043   2.938   5.266
 5428SOL    HW216941   2.031   2.950   5.104
 5429SOL     OW16942   3.209   2.921   4.958
 5429SOL    HW116943   3.233   2.858   4.884
 5429SOL    HW216944   3.119   2.961   4.940
 5430SOL     OW16945   3.164   2.717   4.033
 5430SOL    HW116946   3.078   2.686   4.075
 5430SOL    HW216947   3.160   2.703   3.934
 5431SOL     OW16948   3.621   3.609   4.878
 5431SOL    HW116949   3.682   3.639   4.805
 5431SOL    HW216950   3.583   3.520   4.856
 5432SOL     OW16951   3.114   3.593   4.852
 5432SOL    HW116952   3.198   3.598   4.798
 5432SOL    HW216953   3.091   3.497   4.870
 5433SOL     OW16954   1.945   3.120   4.746
 5433SOL    HW116955   1.940   3.119   4.846
 5433SOL    HW216956   1.862   3.079   4.708
 5434SOL     OW16957   2.550   3.524   5.440
 5434SOL    HW116958   2.494   3.605   5.449
 5434SOL    HW216959   2.602   3.528   5.354
 5435SOL     OW16960   3.588   1.997   4.247
 5435SOL    HW116961   3.661   1.980   4.180
 5435SOL    HW216962   3.557   1.910   4.285
 5436SOL     OW16963   3.250   3.435   4.201
 5436SOL    HW116964   3.317   3.447   4.127
 5436SOL    HW216965   3.210   3.524   4.224
 5437SOL     OW16966   1.992   3.656   5.575
 5437SOL    HW116967   1.951   3.582   5.628
 5437SOL    HW216968   2.056   3.707   5.633
 5438SOL     OW16969   3.142   2.789   4.396
 5438SOL    HW116970   3.202   2.708   4.398
 5438SOL    HW216971   3.182   2.858   4.336
 5439SOL     OW16972   2.692   3.135   5.146
 5439SOL    HW116973   2.687   3.168   5.241
 5439SOL    HW216974   2.606   3.154   5.100
 5440SOL     OW16975   2.534   3.478   3.878
 5440SOL    HW116976   2.543   3.488   3.779
 5440SOL    HW216977   2.494   3.389   3.899
 5441SOL     OW16978   3.512   3.582   5.118
 5441SOL    HW116979   3.565   3.592   5.034
 5441SOL    HW216980   3.485   3.672   5.152
 5442SOL     OW16981   3.703   2.037   4.687
 5442SOL    HW116982   3.742   1.952   4.651
 5442SOL    HW216983   3.605   2.039   4.668
 5443SOL     OW16984   3.056   3.474   3.755
 5443SOL    HW116985   3.062   3.381   3.792
 5443SOL    HW216986   2.997   3.474   3.675
 5444SOL     OW16987   2.684   2.864   5.096
 5444SOL    HW116988   2.724   2.863   5.004
 5444SOL    HW216989   2.694   2.956   5.136
 5445SOL     OW16990   2.778   2.772   4.015
 5445SOL    HW116991   2.841   2.810   3.947
 5445SOL    HW216992   2.818   2.689   4.054
 5446SOL     OW16993   3.366   3.469   3.768
 5446SOL    HW116994   3.274   3.506   3.775
 5446SOL    HW216995   3.404   3.489   3.678
 5447SOL     OW16996   2.234   3.150   5.214
 5447SOL    HW116997   2.221   3.243   5.180
 5447SOL    HW216998   2.150   3.098   5.201
 5448SOL     OW16999   3.476   3.154   5.013
 5448SOL    HW117000   3.536   3.157   5.093
 5448SOL    HW217001   3.401   3.218   5.026
 5449SOL     OW17002   2.901   2.960   4.420
 5449SOL    HW117003   2.831   2.913   4.474
 5449SOL    HW217004   2.960   2.892   4.377
 5450SOL     OW17005   2.876   2.098   4.695
 5450SOL    HW117006   2.868   2.062   4.602
 5450SOL    HW217007   2.874   2.022   4.760
 5451SOL     OW17008   2.452   3.349   4.215
 5451SOL    HW117009   2.494   3.291   4.145
 5451SOL    HW217010   2.408   3.428   4.171
 5452SOL     OW17011   3.571   2.247   5.105
 5452SOL    HW117012   3.644   2.316   5.109
 5452SOL    HW217013   3.599   2.172   5.046
 5453SOL     OW17014   2.117   3.210   4.014
 5453SOL    HW117015   2.021   3.211   3.987
 5453SOL    HW217016   2.129   3.263   4.098
 5454SOL     OW17017   1.967   2.875   5.450
 5454SOL    HW117018   1.890   2.842   5.504
 5454SOL    HW217019   2.052   2.845   5.492
 5455SOL     OW17020   2.534   2.065   5.213
 5455SOL    HW117021   2.624   2.049   5.173
 5455SOL    HW217022   2.542   2.070   5.312
 5456SOL     OW17023   3.302   2.718   5.122
 5456SOL    HW117024   3.245   2.770   5.059
 5456SOL    HW217025   3.398   2.730   5.098
 5457SOL     OW17026   3.045   3.197   3.843
 5457SOL    HW117027   2.946   3.186   3.845
 5457SOL    HW217028   3.079   3.212   3.936
 5458SOL     OW17029   2.475   2.704   5.155
 5458SOL    HW117030   2.531   2.785   5.138
 5458SOL    HW217031   2.534   2.624   5.158
 5459SOL     OW17032   3.355   3.629   4.683
 5459SOL    HW117033   3.388   3.693   4.614
 5459SOL    HW217034   3.421   3.623   4.758
 5460SOL     OW17035   2.578   2.427   5.432
 5460SOL    HW117036   2.597   2.492   5.506
 5460SOL    HW217037   2.638   2.347   5.441
 5461SOL     OW17038   3.312   3.082   5.357
 5461SOL    HW117039   3.303   3.072   5.456
 5461SOL    HW217040   3.408   3.075   5.331
 5462SOL     OW17041   2.252   3.603   5.284
 5462SOL    HW117042   2.161   3.644   5.282
 5462SOL    HW217043   2.245   3.509   5.316
 5463SOL     OW17044   3.536   2.745   4.978
 5463SOL    HW117045   3.509   2.656   4.941
 5463SOL    HW217046   3.537   2.813   4.905
 5464SOL     OW17047   3.087   2.187   4.173
 5464SOL    HW117048   3.152   2.113   4.162
 5464SOL    HW217049   3.107   2.237   4.257
 5465SOL     OW17050   2.456   2.607   4.376
 5465SOL    HW117051   2.506   2.692   4.357
 5465SOL    HW217052   2.368   2.609   4.328
 5466SOL     OW17053   3.639   2.204   5.366
 5466SOL    HW117054   3.622   2.235   5.272
 5466SOL    HW217055   3.555   2.167   5.404
 5467SOL     OW17056   3.592   2.796   5.241
 5467SOL    HW117057   3.630   2.887   5.256
 5467SOL    HW217058   3.584   2.779   5.142
 5468SOL     OW17059   2.721   3.236   3.740
 5468SOL    HW117060   2.675   3.251   3.828
 5468SOL    HW217061   2.765   3.321   3.710
 5469SOL     OW17062   2.523   3.652   4.677
 5469SOL    HW117063   2.477   3.740   4.664
 5469SOL    HW217064   2.622   3.664   4.670
 5470SOL     OW17065   2.721   2.818   4.585
 5470SOL    HW117066   2.775   2.749   4.633
 5470SOL    HW217067   2.689   2.887   4.651
 5471SOL     OW17068   2.945   2.846   3.811
 5471SOL    HW117069   2.922   2.899   3.729
 5471SOL    HW217070   3.026   2.790   3.792
 5472SOL     OW17071   3.723   3.431   4.575
 5472SOL    HW117072   3.652   3.419   4.505
 5472SOL    HW217073   3.724   3.352   4.635
 5473SOL     OW17074   2.083   3.176   5.568
 5473SOL    HW117075   2.018   3.103   5.547
 5473SOL    HW217076   2.087   3.190   5.666
 5474SOL     OW17077   1.941   3.102   4.377
 5474SOL    HW117078   1.940   3.055   4.465
 5474SOL    HW217079   2.023   3.074   4.326
 5475SOL     OW17080   2.534   3.253   5.348
 5475SOL    HW117081   2.456   3.203   5.386
 5475SOL    HW217082   2.531   3.348   5.379
 5476SOL     OW17083   3.686   2.054   4.951
 5476SOL    HW117084   3.682   1.964   4.995
 5476SOL    HW217085   3.689   2.043   4.852
 5477SOL     OW17086   2.290   2.286   4.244
 5477SOL    HW117087   2.320   2.214   4.182
 5477SOL    HW217088   2.251   2.246   4.327
 5478SOL     OW17089   3.567   3.349   4.828
 5478SOL    HW117090   3.474   3.324   4.801
 5478SOL    HW217091   3.593   3.299   4.910
 5479SOL     OW17092   2.179   2.409   5.004
 5479SOL    HW117093   2.217   2.350   5.076
 5479SOL    HW217094   2.219   2.383   4.916
 5480SOL     OW17095   2.674   3.448   4.411
 5480SOL    HW117096   2.706   3.458   4.317
 5480SOL    HW217097   2.595   3.386   4.413
 5481SOL     OW17098   3.286   2.076   4.836
 5481SOL    HW117099   3.338   2.011   4.891
 5481SOL    HW217100   3.237   2.139   4.897
 5482SOL     OW17101   2.863   1.896   4.878
 5482SOL    HW117102   2.800   1.824   4.847
 5482SOL    HW217103   2.956   1.860   4.878
 5483SOL     OW17104   2.632   3.192   4.025
 5483SOL    HW117105   2.586   3.105   4.042
 5483SOL    HW217106   2.723   3.189   4.066
 5484SOL     OW17107   2.480   3.429   5.008
 5484SOL    HW117108   2.475   3.511   5.065
 5484SOL    HW217109   2.569   3.426   4.963
 5485SOL     OW17110   3.214   1.914   3.892
 5485SOL    HW117111   3.249   1.873   3.808
 5485SOL    HW217112   3.124   1.876   3.912
 5486SOL     OW17113   3.162   2.315   4.415
 5486SOL    HW117114   3.103   2.395   4.419
 5486SOL    HW217115   3.177   2.280   4.508
 5487SOL     OW17116   3.455   2.083   4.606
 5487SOL    HW117117   3.371   2.082   4.660
 5487SOL    HW217118   3.457   2.166   4.550
 5488SOL     OW17119   1.901   2.939   4.024
 5488SOL    HW117120   2.000   2.928   4.015
 5488SOL    HW217121   1.861   2.853   4.056
 5489SOL     OW17122   2.737   3.508   4.061
 5489SOL    HW117123   2.660   3.473   4.007
 5489SOL    HW217124   2.705   3.579   4.123
 5490SOL     OW17125   2.092   2.490   5.699
 5490SOL    HW117126   1.999   2.488   5.736
 5490SOL    HW217127   2.093   2.451   5.607
 5491SOL     OW17128   2.431   3.137   6.751
 5491SOL    HW117129   2.338   3.130   6.714
 5491SOL    HW217130   2.442   3.226   6.795
 5492SOL     OW17131   3.417   3.373   6.289
 5492SOL    HW117132   3.360   3.357   6.370
 5492SOL    HW217133   3.358   3.383   6.209
 5493SOL     OW17134   2.997   2.565   6.303
 5493SOL    HW117135   3.054   2.643   6.278
 5493SOL    HW217136   2.937   2.591   6.379
 5494SOL     OW17137   3.617   2.469   5.817
 5494SOL    HW117138   3.605   2.456   5.718
 5494SOL    HW217139   3.587   2.388   5.866
 5495SOL     OW17140   2.630   3.006   6.609
 5495SOL    HW117141   2.552   3.023   6.669
 5495SOL    HW217142   2.664   3.093   6.573
 5496SOL     OW17143   2.712   2.660   7.409
 5496SOL    HW117144   2.708   2.736   7.474
 5496SOL    HW217145   2.734   2.696   7.318
 5497SOL     OW17146   2.547   2.874   6.251
 5497SOL    HW117147   2.616   2.858   6.321
 5497SOL    HW217148   2.474   2.931   6.289
 5498SOL     OW17149   2.548   3.023   7.389
 5498SOL    HW117150   2.608   3.102   7.403
 5498SOL    HW217151   2.462   3.054   7.348
 5499SOL     OW17152   2.197   3.297   6.647
 5499SOL    HW117153   2.119   3.266   6.594
 5499SOL    HW217154   2.255   3.355   6.590
 5500SOL     OW17155   3.322   3.367   6.925
 5500SOL    HW117156   3.346   3.461   6.951
 5500SOL    HW217157   3.306   3.313   7.007
 5501SOL     OW17158   3.465   2.309   6.323
 5501SOL    HW117159   3.391   2.355   6.273
 5501SOL    HW217160   3.516   2.377   6.376
 5502SOL     OW17161   2.093   3.575   6.069
 5502SOL    HW117162   2.127   3.652   6.123
 5502SOL    HW217163   2.137   3.575   5.979
 5503SOL     OW17164   2.989   3.203   7.276
 5503SOL    HW117165   3.036   3.203   7.364
 5503SOL    HW217166   2.941   3.116   7.265
 5504SOL     OW17167   2.092   3.296   6.124
 5504SOL    HW117168   2.066   3.392   6.124
 5504SOL    HW217169   2.021   3.242   6.169
 5505SOL     OW17170   2.102   2.953   6.472
 5505SOL    HW117171   2.116   2.869   6.524
 5505SOL    HW217172   2.047   3.017   6.527
 5506SOL     OW17173   2.482   3.648   7.025
 5506SOL    HW117174   2.390   3.631   7.060
 5506SOL    HW217175   2.510   3.740   7.051
 5507SOL     OW17176   2.468   2.826   5.709
 5507SOL    HW117177   2.475   2.910   5.655
 5507SOL    HW217178   2.514   2.839   5.797
 5508SOL     OW17179   3.456   1.976   7.066
 5508SOL    HW117180   3.438   2.043   6.994
 5508SOL    HW217181   3.453   2.022   7.155
 5509SOL     OW17182   1.984   2.505   6.149
 5509SOL    HW117183   1.939   2.417   6.166
 5509SOL    HW217184   1.983   2.559   6.233
 5510SOL     OW17185   3.704   3.629   5.945
 5510SOL    HW117186   3.758   3.600   6.025
 5510SOL    HW217187   3.734   3.719   5.916
 5511SOL     OW17188   1.889   3.458   5.703
 5511SOL    HW117189   1.870   3.362   5.724
 5511SOL    HW217190   1.856   3.516   5.778
 5512SOL     OW17191   3.551   2.784   6.198
 5512SOL    HW117192   3.646   2.755   6.206
 5512SOL    HW217193   3.543   2.849   6.123
 5513SOL     OW17194   3.503   2.970   6.018
 5513SOL    HW117195   3.589   2.972   5.966
 5513SOL    HW217196   3.517   3.017   6.106
 5514SOL     OW17197   2.475   3.227   6.312
 5514SOL    HW117198   2.426   3.140   6.321
 5514SOL    HW217199   2.452   3.270   6.225
 5515SOL     OW17200   3.155   3.090   7.009
 5515SOL    HW117201   3.192   3.017   6.951
 5515SOL    HW217202   3.207   3.095   7.094
 5516SOL     OW17203   2.671   1.866   6.088
 5516SOL    HW117204   2.711   1.957   6.079
 5516SOL    HW217205   2.571   1.874   6.094
 5517SOL     OW17206   3.387   2.861   5.776
 5517SOL    HW117207   3.324   2.785   5.789
 5517SOL    HW217208   3.435   2.879   5.862
 5518SOL     OW17209   3.049   3.654   7.202
 5518SOL    HW117210   3.073   3.714   7.126
 5518SOL    HW217211   3.056   3.559   7.172
 5519SOL     OW17212   3.328   3.279   6.539
 5519SOL    HW117213   3.269   3.285   6.619
 5519SOL    HW217214   3.313   3.191   6.493
 5520SOL     OW17215   3.529   3.576   6.158
 5520SOL    HW117216   3.488   3.553   6.070
 5520SOL    HW217217   3.511   3.502   6.223
 5521SOL     OW17218   2.460   2.591   5.856
 5521SOL    HW117219   2.484   2.660   5.788
 5521SOL    HW217220   2.382   2.624   5.910
 5522SOL     OW17221   3.143   2.207   6.530
 5522SOL    HW117222   3.057   2.157   6.517
 5522SOL    HW217223   3.205   2.153   6.586
 5523SOL     OW17224   3.438   3.524   5.893
 5523SOL    HW117225   3.527   3.570   5.896
 5523SOL    HW217226   3.417   3.500   5.798
 5524SOL     OW17227   3.256   2.331   7.260
 5524SOL    HW117228   3.236   2.374   7.348
 5524SOL    HW217229   3.334   2.269   7.269
 5525SOL     OW17230   2.835   2.752   7.158
 5525SOL    HW117231   2.881   2.668   7.129
 5525SOL    HW217232   2.779   2.786   7.083
 5526SOL     OW17233   2.903   2.563   6.015
 5526SOL    HW117234   2.929   2.559   6.111
 5526SOL    HW217235   2.818   2.512   6.001
 5527SOL     OW17236   1.992   3.683   7.157
 5527SOL    HW117237   1.982   3.668   7.256
 5527SOL    HW217238   1.906   3.719   7.121
 5528SOL     OW17239   2.727   2.210   5.781
 5528SOL    HW117240   2.786   2.273   5.732
 5528SOL    HW217241   2.746   2.116   5.752
 5529SOL     OW17242   3.581   2.447   7.417
 5529SOL    HW117243   3.555   2.536   7.381
 5529SOL    HW217244   3.579   2.379   7.344
 5530SOL     OW17245   3.224   3.006   6.131
 5530SOL    HW117246   3.307   2.977   6.083
 5530SOL    HW217247   3.175   3.073   6.075
 5531SOL     OW17248   2.412   2.058   6.471
 5531SOL    HW117249   2.407   2.053   6.571
 5531SOL    HW217250   2.414   2.154   6.442
 5532SOL     OW17251   2.870   3.318   6.063
 5532SOL    HW117252   2.824   3.390   6.011
 5532SOL    HW217253   2.866   3.338   6.161
 5533SOL     OW17254   2.213   3.663   6.439
 5533SOL    HW117255   2.263   3.577   6.445
 5533SOL    HW217256   2.278   3.740   6.436
 5534SOL     OW17257   3.657   2.928   6.459
 5534SOL    HW117258   3.595   2.913   6.383
 5534SOL    HW217259   3.605   2.939   6.544
 5535SOL     OW17260   3.089   3.412   7.092
 5535SOL    HW117261   3.095   3.335   7.156
 5535SOL    HW217262   3.037   3.386   7.012
 5536SOL     OW17263   2.183   2.805   5.828
 5536SOL    HW117264   2.265   2.844   5.786
 5536SOL    HW217265   2.156   2.723   5.779
 5537SOL     OW17266   3.320   2.597   6.314
 5537SOL    HW117267   3.315   2.532   6.389
 5537SOL    HW217268   3.400   2.656   6.327
 5538SOL     OW17269   2.323   3.128   7.313
 5538SOL    HW117270   2.273   3.129   7.227
 5538SOL    HW217271   2.260   3.110   7.389
 5539SOL     OW17272   2.973   3.638   5.823
 5539SOL    HW117273   2.913   3.576   5.873
 5539SOL    HW217274   3.004   3.594   5.738
 5540SOL     OW17275   3.494   3.239   5.667
 5540SOL    HW117276   3.462   3.333   5.657
 5540SOL    HW217277   3.418   3.176   5.655
 5541SOL     OW17278   2.326   3.605   5.909
 5541SOL    HW117279   2.359   3.644   5.995
 5541SOL    HW217280   2.402   3.598   5.844
 5542SOL     OW17281   3.262   1.969   6.012
 5542SOL    HW117282   3.238   1.932   5.922
 5542SOL    HW217283   3.361   1.985   6.016
 5543SOL     OW17284   2.111   3.647   6.827
 5543SOL    HW117285   2.168   3.582   6.877
 5543SOL    HW217286   2.095   3.614   6.734
 5544SOL     OW17287   2.802   3.560   6.490
 5544SOL    HW117288   2.882   3.503   6.511
 5544SOL    HW217289   2.753   3.520   6.413
 5545SOL     OW17290   2.244   2.562   6.066
 5545SOL    HW117291   2.289   2.472   6.063
 5545SOL    HW217292   2.150   2.551   6.099
 5546SOL     OW17293   3.409   2.084   7.315
 5546SOL    HW117294   3.404   2.121   7.407
 5546SOL    HW217295   3.337   2.015   7.303
 5547SOL     OW17296   2.476   1.984   5.703
 5547SOL    HW117297   2.574   1.962   5.710
 5547SOL    HW217298   2.445   1.967   5.610
 5548SOL     OW17299   2.750   3.376   6.781
 5548SOL    HW117300   2.727   3.351   6.687
 5548SOL    HW217301   2.811   3.307   6.820
 5549SOL     OW17302   3.213   2.452   7.019
 5549SOL    HW117303   3.241   2.409   7.104
 5549SOL    HW217304   3.238   2.548   7.020
 5550SOL     OW17305   2.665   3.264   6.510
 5550SOL    HW117306   2.755   3.278   6.468
 5550SOL    HW217307   2.594   3.266   6.439
 5551SOL     OW17308   2.784   2.365   6.485
 5551SOL    HW117309   2.759   2.356   6.389
 5551SOL    HW217310   2.832   2.283   6.516
 5552SOL     OW17311   2.401   1.926   6.098
 5552SOL    HW117312   2.320   1.927   6.156
 5552SOL    HW217313   2.404   2.009   6.043
 5553SOL     OW17314   3.296   3.050   5.627
 5553SOL    HW117315   3.328   2.974   5.684
 5553SOL    HW217316   3.204   3.077   5.657
 5554SOL     OW17317   2.797   2.098   6.066
 5554SOL    HW117318   2.749   2.139   5.988
 5554SOL    HW217319   2.896   2.096   6.047
 5555SOL     OW17320   2.938   2.545   7.050
 5555SOL    HW117321   2.858   2.484   7.053
 5555SOL    HW217322   3.019   2.492   7.026
 5556SOL     OW17323   3.089   3.432   6.379
 5556SOL    HW117324   3.110   3.506   6.314
 5556SOL    HW217325   3.157   3.432   6.452
 5557SOL     OW17326   2.321   3.014   6.327
 5557SOL    HW117327   2.250   2.987   6.392
 5557SOL    HW217328   2.295   2.986   6.234
 5558SOL     OW17329   3.133   3.659   6.177
 5558SOL    HW117330   3.177   3.723   6.113
 5558SOL    HW217331   3.083   3.711   6.247
 5559SOL     OW17332   2.894   2.411   5.602
 5559SOL    HW117333   2.853   2.493   5.563
 5559SOL    HW217334   2.958   2.437   5.675
 5560SOL     OW17335   2.728   2.316   6.228
 5560SOL    HW117336   2.696   2.388   6.166
 5560SOL    HW217337   2.752   2.235   6.175
 5561SOL     OW17338   2.879   1.901   6.339
 5561SOL    HW117339   2.807   1.906   6.270
 5561SOL    HW217340   2.855   1.832   6.408
 5562SOL     OW17341   3.291   3.035   6.453
 5562SOL    HW117342   3.236   2.951   6.446
 5562SOL    HW217343   3.317   3.064   6.361
 5563SOL     OW17344   3.328   2.452   6.578
 5563SOL    HW117345   3.298   2.357   6.585
 5563SOL    HW217346   3.401   2.468   6.644
 5564SOL     OW17347   3.719   2.695   5.963
 5564SOL    HW117348   3.761   2.631   6.027
 5564SOL    HW217349   3.681   2.644   5.885
 5565SOL     OW17350   2.350   3.247   5.760
 5565SOL    HW117351   2.263   3.232   5.807
 5565SOL    HW217352   2.333   3.273   5.665
 5566SOL     OW17353   3.526   3.142   6.243
 5566SOL    HW117354   3.625   3.150   6.257
 5566SOL    HW217355   3.481   3.226   6.274
 5567SOL     OW17356   3.252   2.437   5.664
 5567SOL    HW117357   3.198   2.416   5.745
 5567SOL    HW217358   3.343   2.396   5.673
 5568SOL     OW17359   2.389   2.118   5.914
 5568SOL    HW117360   2.416   2.059   5.839
 5568SOL    HW217361   2.389   2.213   5.883
 5569SOL     OW17362   3.616   3.085   7.174
 5569SOL    HW117363   3.707   3.046   7.161
 5569SOL    HW217364   3.624   3.181   7.198
 5570SOL     OW17365   2.926   3.209   6.926
 5570SOL    HW117366   2.846   3.186   6.981
 5570SOL    HW217367   3.009   3.183   6.975
 5571SOL     OW17368   3.454   3.491   7.211
 5571SOL    HW117369   3.481   3.525   7.121
 5571SOL    HW217370   3.533   3.453   7.257
 5572SOL     OW17371   2.973   3.057   6.686
 5572SOL    HW117372   2.933   3.101   6.767
 5572SOL    HW217373   2.932   3.094   6.603
 5573SOL     OW17374   3.500   2.961   6.665
 5573SOL    HW117375   3.505   3.042   6.724
 5573SOL    HW217376   3.414   2.963   6.614
 5574SOL     OW17377   2.842   2.978   7.305
 5574SOL    HW117378   2.743   2.984   7.315
 5574SOL    HW217379   2.865   2.898   7.249
 5575SOL     OW17380   2.567   2.912   5.954
 5575SOL    HW117381   2.553   2.919   6.053
 5575SOL    HW217382   2.651   2.861   5.936
 5576SOL     OW17383   3.136   2.248   6.848
 5576SOL    HW117384   3.157   2.322   6.912
 5576SOL    HW217385   3.047   2.265   6.805
 5577SOL     OW17386   1.926   3.426   6.917
 5577SOL    HW117387   1.880   3.508   6.883
 5577SOL    HW217388   2.024   3.445   6.926
 5578SOL     OW17389   2.229   2.962   6.087
 5578SOL    HW117390   2.222   3.045   6.031
 5578SOL    HW217391   2.233   2.882   6.027
 5579SOL     OW17392   3.114   3.210   5.974
 5579SOL    HW117393   3.164   3.287   6.014
 5579SOL    HW217394   3.019   3.212   6.006
 5580SOL     OW17395   3.134   3.307   6.728
 5580SOL    HW117396   3.181   3.320   6.815
 5580SOL    HW217397   3.068   3.233   6.737
 5581SOL     OW17398   3.444   2.501   6.058
 5581SOL    HW117399   3.413   2.562   6.131
 5581SOL    HW217400   3.494   2.553   5.989
 5582SOL     OW17401   2.216   3.372   6.915
 5582SOL    HW117402   2.195   3.328   6.828
 5582SOL    HW217403   2.313   3.398   6.918
 5583SOL     OW17404   3.449   2.641   7.256
 5583SOL    HW117405   3.357   2.679   7.251
 5583SOL    HW217406   3.509   2.688   7.191
 5584SOL     OW17407   2.875   1.967   7.356
 5584SOL    HW117408   2.881   2.052   7.304
 5584SOL    HW217409   2.907   1.891   7.299
 5585SOL     OW17410   2.435   2.732   6.615
 5585SOL    HW117411   2.479   2.821   6.606
 5585SOL    HW217412   2.372   2.732   6.692
 5586SOL     OW17413   3.222   2.724   6.631
 5586SOL    HW117414   3.147   2.724   6.565
 5586SOL    HW217415   3.259   2.632   6.640
 5587SOL     OW17416   3.071   2.387   5.861
 5587SOL    HW117417   3.084   2.303   5.915
 5587SOL    HW217418   3.042   2.461   5.921
 5588SOL     OW17419   2.169   2.075   6.817
 5588SOL    HW117420   2.146   2.112   6.907
 5588SOL    HW217421   2.139   1.980   6.811
 5589SOL     OW17422   1.899   3.172   6.868
 5589SOL    HW117423   1.952   3.123   6.936
 5589SOL    HW217424   1.921   3.270   6.873
 5590SOL     OW17425   3.590   2.797   7.440
 5590SOL    HW117426   3.544   2.790   7.351
 5590SOL    HW217427   3.528   2.841   7.506
 5591SOL     OW17428   3.484   2.229   5.960
 5591SOL    HW117429   3.486   2.153   6.024
 5591SOL    HW217430   3.436   2.306   6.000
 5592SOL     OW17431   2.885   2.628   6.552
 5592SOL    HW117432   2.900   2.649   6.648
 5592SOL    HW217433   2.855   2.533   6.543
 5593SOL     OW17434   2.842   3.435   7.286
 5593SOL    HW117435   2.822   3.479   7.198
 5593SOL    HW217436   2.881   3.344   7.270
 5594SOL     OW17437   3.721   3.380   7.191
 5594SOL    HW117438   3.735   3.407   7.096
 5594SOL    HW217439   3.804   3.402   7.244
 5595SOL     OW17440   2.212   2.760   7.390
 5595SOL    HW117441   2.288   2.804   7.438
 5595SOL    HW217442   2.247   2.713   7.308
 5596SOL     OW17443   3.402   2.136   5.711
 5596SOL    HW117444   3.341   2.061   5.734
 5596SOL    HW217445   3.424   2.188   5.794
 5597SOL     OW17446   3.165   2.700   5.628
 5597SOL    HW117447   3.199   2.607   5.643
 5597SOL    HW217448   3.183   2.727   5.533
 5598SOL     OW17449   2.930   3.195   6.435
 5598SOL    HW117450   2.937   3.111   6.380
 5598SOL    HW217451   2.992   3.264   6.399
 5599SOL     OW17452   3.000   2.242   7.264
 5599SOL    HW117453   2.955   2.305   7.328
 5599SOL    HW217454   3.093   2.273   7.247
 5600SOL     OW17455   3.022   2.069   7.063
 5600SOL    HW117456   3.022   2.133   7.140
 5600SOL    HW217457   3.050   2.117   6.980
 5601SOL     OW17458   1.870   3.188   5.786
 5601SOL    HW117459   1.777   3.209   5.755
 5601SOL    HW217460   1.880   3.089   5.799
 5602SOL     OW17461   1.950   3.663   6.513
 5602SOL    HW117462   1.908   3.577   6.486
 5602SOL    HW217463   2.044   3.666   6.479
 5603SOL     OW17464   2.366   3.430   6.496
 5603SOL    HW117465   2.432   3.504   6.505
 5603SOL    HW217466   2.410   3.351   6.454
 5604SOL     OW17467   2.864   2.658   6.824
 5604SOL    HW117468   2.905   2.626   6.910
 5604SOL    HW217469   2.768   2.631   6.821
 5605SOL     OW17470   3.231   2.812   7.246
 5605SOL    HW117471   3.270   2.901   7.266
 5605SOL    HW217472   3.241   2.792   7.149
 5606SOL     OW17473   2.677   2.434   5.911
 5606SOL    HW117474   2.684   2.345   5.865
 5606SOL    HW217475   2.583   2.468   5.903
 5607SOL     OW17476   3.519   2.466   6.792
 5607SOL    HW117477   3.481   2.397   6.854
 5607SOL    HW217478   3.601   2.430   6.748
 5608SOL     OW17479   2.114   3.426   7.330
 5608SOL    HW117480   2.084   3.483   7.406
 5608SOL    HW217481   2.107   3.329   7.356
 5609SOL     OW17482   2.792   3.540   7.051
 5609SOL    HW117483   2.768   3.522   6.956
 5609SOL    HW217484   2.822   3.634   7.061
 5610SOL     OW17485   2.335   2.362   5.777
 5610SOL    HW117486   2.396   2.442   5.781
 5610SOL    HW217487   2.240   2.393   5.784
 5611SOL     OW17488   2.021   2.999   7.052
 5611SOL    HW117489   2.043   2.938   7.128
 5611SOL    HW217490   2.031   2.950   6.966
 5612SOL     OW17491   3.209   2.921   6.820
 5612SOL    HW117492   3.233   2.858   6.746
 5612SOL    HW217493   3.119   2.961   6.802
 5613SOL     OW17494   3.164   2.717   5.895
 5613SOL    HW117495   3.078   2.686   5.937
 5613SOL    HW217496   3.160   2.703   5.796
 5614SOL     OW17497   3.621   3.609   6.740
 5614SOL    HW117498   3.682   3.639   6.667
 5614SOL    HW217499   3.583   3.520   6.718
 5615SOL     OW17500   3.114   3.593   6.714
 5615SOL    HW117501   3.198   3.598   6.660
 5615SOL    HW217502   3.091   3.497   6.732
 5616SOL     OW17503   1.945   3.120   6.608
 5616SOL    HW117504   1.940   3.119   6.708
 5616SOL    HW217505   1.862   3.079   6.570
 5617SOL     OW17506   2.550   3.524   7.302
 5617SOL    HW117507   2.494   3.605   7.311
 5617SOL    HW217508   2.602   3.528   7.216
 5618SOL     OW17509   3.588   1.997   6.109
 5618SOL    HW117510   3.661   1.980   6.042
 5618SOL    HW217511   3.557   1.910   6.147
 5619SOL     OW17512   3.250   3.435   6.063
 5619SOL    HW117513   3.317   3.447   5.989
 5619SOL    HW217514   3.210   3.524   6.086
 5620SOL     OW17515   1.992   3.656   7.437
 5620SOL    HW117516   1.951   3.582   7.490
 5620SOL    HW217517   2.056   3.707   7.495
 5621SOL     OW17518   3.142   2.789   6.258
 5621SOL    HW117519   3.202   2.708   6.260
 5621SOL    HW217520   3.182   2.858   6.198
 5622SOL     OW17521   2.692   3.135   7.008
 5622SOL    HW117522   2.687   3.168   7.103
 5622SOL    HW217523   2.606   3.154   6.962
 5623SOL     OW17524   2.534   3.478   5.740
 5623SOL    HW117525   2.543   3.488   5.641
 5623SOL    HW217526   2.494   3.389   5.761
 5624SOL     OW17527   3.512   3.582   6.980
 5624SOL    HW117528   3.565   3.592   6.896
 5624SOL    HW217529   3.485   3.672   7.014
 5625SOL     OW17530   3.703   2.037   6.549
 5625SOL    HW117531   3.742   1.952   6.513
 5625SOL    HW217532   3.605   2.039   6.530
 5626SOL     OW17533   3.056   3.474   5.617
 5626SOL    HW117534   3.062   3.381   5.654
 5626SOL    HW217535   2.997   3.474   5.537
 5627SOL     OW17536   2.684   2.864   6.958
 5627SOL    HW117537   2.724   2.863   6.866
 5627SOL    HW217538   2.694   2.956   6.998
 5628SOL     OW17539   2.778   2.772   5.877
 5628SOL    HW117540   2.841   2.810   5.809
 5628SOL    HW217541   2.818   2.689   5.916
 5629SOL     OW17542   3.366   3.469   5.630
 5629SOL    HW117543   3.274   3.506   5.637
 5629SOL    HW217544   3.404   3.489   5.540
 5630SOL     OW17545   2.234   3.150   7.076
 5630SOL    HW117546   2.221   3.243   7.042
 5630SOL    HW217547   2.150   3.098   7.063
 5631SOL     OW17548   3.476   3.154   6.875
 5631SOL    HW117549   3.536   3.157   6.955
 5631SOL    HW217550   3.401   3.218   6.888
 5632SOL     OW17551   2.901   2.960   6.282
 5632SOL    HW117552   2.831   2.913   6.336
 5632SOL    HW217553   2.960   2.892   6.239
 5633SOL     OW17554   2.452   3.349   6.077
 5633SOL    HW117555   2.494   3.291   6.007
 5633SOL    HW217556   2.408   3.428   6.033
 5634SOL     OW17557   3.571   2.247   6.967
 5634SOL    HW117558   3.644   2.316   6.971
 5634SOL    HW217559   3.599   2.172   6.908
 5635SOL     OW17560   2.117   3.210   5.876
 5635SOL    HW117561   2.021   3.211   5.849
 5635SOL    HW217562   2.129   3.263   5.960
 5636SOL     OW17563   1.967   2.875   7.312
 5636SOL    HW117564   1.890   2.842   7.366
 5636SOL    HW217565   2.052   2.845   7.354
 5637SOL     OW17566   3.302   2.718   6.984
 5637SOL    HW117567   3.245   2.770   6.921
 5637SOL    HW217568   3.398   2.730   6.960
 5638SOL     OW17569   3.045   3.197   5.705
 5638SOL    HW117570   2.946   3.186   5.707
 5638SOL    HW217571   3.079   3.212   5.798
 5639SOL     OW17572   3.355   3.629   6.545
 5639SOL    HW117573   3.388   3.693   6.476
 5639SOL    HW217574   3.421   3.623   6.620
 5640SOL     OW17575   3.312   3.082   7.219
 5640SOL    HW117576   3.303   3.072   7.318
 5640SOL    HW217577   3.408   3.075   7.193
 5641SOL     OW17578   2.252   3.603   7.146
 5641SOL    HW117579   2.161   3.644   7.144
 5641SOL    HW217580   2.245   3.509   7.178
 5642SOL     OW17581   3.536   2.745   6.840
 5642SOL    HW117582   3.509   2.656   6.803
 5642SOL    HW217583   3.537   2.813   6.767
 5643SOL     OW17584   3.087   2.187   6.035
 5643SOL    HW117585   3.152   2.113   6.024
 5643SOL    HW217586   3.107   2.237   6.119
 5644SOL     OW17587   2.456   2.607   6.238
 5644SOL    HW117588   2.506   2.692   6.219
 5644SOL    HW217589   2.368   2.609   6.190
 5645SOL     OW17590   3.639   2.204   7.228
 5645SOL    HW117591   3.622   2.235   7.134
 5645SOL    HW217592   3.555   2.167   7.266
 5646SOL     OW17593   3.592   2.796   7.103
 5646SOL    HW117594   3.630   2.887   7.118
 5646SOL    HW217595   3.584   2.779   7.004
 5647SOL     OW17596   2.721   3.236   5.602
 5647SOL    HW117597   2.675   3.251   5.690
 5647SOL    HW217598   2.765   3.321   5.572
 5648SOL     OW17599   2.523   3.652   6.539
 5648SOL    HW117600   2.477   3.740   6.526
 5648SOL    HW217601   2.622   3.664   6.532
 5649SOL     OW17602   2.721   2.818   6.447
 5649SOL    HW117603   2.775   2.749   6.495
 5649SOL    HW217604   2.689   2.887   6.513
 5650SOL     OW17605   2.945   2.846   5.673
 5650SOL    HW117606   2.922   2.899   5.591
 5650SOL    HW217607   3.026   2.790   5.654
 5651SOL     OW17608   3.723   3.431   6.437
 5651SOL    HW117609   3.652   3.419   6.367
 5651SOL    HW217610   3.724   3.352   6.497
 5652SOL     OW17611   2.083   3.176   7.430
 5652SOL    HW117612   2.018   3.103   7.409
 5652SOL    HW217613   2.087   3.190   7.528
 5653SOL     OW17614   1.941   3.102   6.239
 5653SOL    HW117615   1.940   3.055   6.327
 5653SOL    HW217616   2.023   3.074   6.188
 5654SOL     OW17617   2.534   3.253   7.210
 5654SOL    HW117618   2.456   3.203   7.248
 5654SOL    HW217619   2.531   3.348   7.241
 5655SOL     OW17620   3.686   2.054   6.813
 5655SOL    HW117621   3.682   1.964   6.857
 5655SOL    HW217622   3.689   2.043   6.714
 5656SOL     OW17623   2.290   2.286   6.106
 5656SOL    HW117624   2.320   2.214   6.044
 5656SOL    HW217625   2.251   2.246   6.189
 5657SOL     OW17626   3.567   3.349   6.690
 5657SOL    HW117627   3.474   3.324   6.663
 5657SOL    HW217628   3.593   3.299   6.772
 5658SOL     OW17629   2.674   3.448   6.273
 5658SOL    HW117630   2.706   3.458   6.179
 5658SOL    HW217631   2.595   3.386   6.275
 5659SOL     OW17632   3.286   2.076   6.698
 5659SOL    HW117633   3.338   2.011   6.753
 5659SOL    HW217634   3.237   2.139   6.759
 5660SOL     OW17635   2.632   3.192   5.887
 5660SOL    HW117636   2.586   3.105   5.904
 5660SOL    HW217637   2.723   3.189   5.928
 5661SOL     OW17638   2.480   3.429   6.870
 5661SOL    HW117639   2.475   3.511   6.927
 5661SOL    HW217640   2.569   3.426   6.825
 5662SOL     OW17641   3.214   1.914   5.754
 5662SOL    HW117642   3.249   1.873   5.670
 5662SOL    HW217643   3.124   1.876   5.774
 5663SOL     OW17644   3.162   2.315   6.277
 5663SOL    HW117645   3.103   2.395   6.281
 5663SOL    HW217646   3.177   2.280   6.370
 5664SOL     OW17647   3.455   2.083   6.468
 5664SOL    HW117648   3.371   2.082   6.522
 5664SOL    HW217649   3.457   2.166   6.412
 5665SOL     OW17650   1.901   2.939   5.886
 5665SOL    HW117651   2.000   2.928   5.877
 5665SOL    HW217652   1.861   2.853   5.918
 5666SOL     OW17653   2.737   3.508   5.923
 5666SOL    HW117654   2.660   3.473   5.869
 5666SOL    HW217655   2.705   3.579   5.985
 5667SOL     OW17656   2.431   3.137   8.613
 5667SOL    HW117657   2.338   3.130   8.576
 5667SOL    HW217658   2.442   3.226   8.657
 5668SOL     OW17659   3.417   3.373   8.151
 5668SOL    HW117660   3.360   3.357   8.232
 5668SOL    HW217661   3.358   3.383   8.071
 5669SOL     OW17662   2.997   2.565   8.165
 5669SOL    HW117663   3.054   2.643   8.140
 5669SOL    HW217664   2.937   2.591   8.241
 5670SOL     OW17665   3.617   2.469   7.679
 5670SOL    HW117666   3.605   2.456   7.580
 5670SOL    HW217667   3.587   2.388   7.728
 5671SOL     OW17668   2.630   3.006   8.471
 5671SOL    HW117669   2.552   3.023   8.531
 5671SOL    HW217670   2.664   3.093   8.435
 5672SOL     OW17671   2.712   2.660   9.271
 5672SOL    HW117672   2.708   2.736   9.336
 5672SOL    HW217673   2.734   2.696   9.180
 5673SOL     OW17674   2.547   2.874   8.113
 5673SOL    HW117675   2.616   2.858   8.183
 5673SOL    HW217676   2.474   2.931   8.151
 5674SOL     OW17677   2.548   3.023   9.251
 5674SOL    HW117678   2.608   3.102   9.265
 5674SOL    HW217679   2.462   3.054   9.210
 5675SOL     OW17680   2.197   3.297   8.509
 5675SOL    HW117681   2.119   3.266   8.456
 5675SOL    HW217682   2.255   3.355   8.452
 5676SOL     OW17683   3.322   3.367   8.787
 5676SOL    HW117684   3.346   3.461   8.813
 5676SOL    HW217685   3.306   3.313   8.869
 5677SOL     OW17686   2.300   2.254   8.947
 5677SOL    HW117687   2.382   2.198   8.956
 5677SOL    HW217688   2.219   2.196   8.951
 5678SOL     OW17689   3.465   2.309   8.185
 5678SOL    HW117690   3.391   2.355   8.135
 5678SOL    HW217691   3.516   2.377   8.238
 5679SOL     OW17692   2.093   3.575   7.931
 5679SOL    HW117693   2.127   3.652   7.985
 5679SOL    HW217694   2.137   3.575   7.841
 5680SOL     OW17695   2.989   3.203   9.138
 5680SOL    HW117696   3.036   3.203   9.226
 5680SOL    HW217697   2.941   3.116   9.127
 5681SOL     OW17698   2.092   3.296   7.986
 5681SOL    HW117699   2.066   3.392   7.986
 5681SOL    HW217700   2.021   3.242   8.031
 5682SOL     OW17701   2.102   2.953   8.334
 5682SOL    HW117702   2.116   2.869   8.386
 5682SOL    HW217703   2.047   3.017   8.389
 5683SOL     OW17704   2.482   3.648   8.887
 5683SOL    HW117705   2.390   3.631   8.922
 5683SOL    HW217706   2.510   3.740   8.913
 5684SOL     OW17707   2.468   2.826   7.571
 5684SOL    HW117708   2.475   2.910   7.517
 5684SOL    HW217709   2.514   2.839   7.659
 5685SOL     OW17710   3.456   1.976   8.928
 5685SOL    HW117711   3.438   2.043   8.856
 5685SOL    HW217712   3.453   2.022   9.017
 5686SOL     OW17713   1.984   2.505   8.011
 5686SOL    HW117714   1.939   2.417   8.028
 5686SOL    HW217715   1.983   2.559   8.095
 5687SOL     OW17716   3.704   3.629   7.807
 5687SOL    HW117717   3.758   3.600   7.887
 5687SOL    HW217718   3.734   3.719   7.778
 5688SOL     OW17719   1.889   3.458   7.565
 5688SOL    HW117720   1.870   3.362   7.586
 5688SOL    HW217721   1.856   3.516   7.640
 5689SOL     OW17722   3.551   2.784   8.060
 5689SOL    HW117723   3.646   2.755   8.068
 5689SOL    HW217724   3.543   2.849   7.985
 5690SOL     OW17725   3.503   2.970   7.880
 5690SOL    HW117726   3.589   2.972   7.828
 5690SOL    HW217727   3.517   3.017   7.968
 5691SOL     OW17728   1.975   2.599   9.045
 5691SOL    HW117729   2.063   2.586   9.090
 5691SOL    HW217730   1.962   2.696   9.023
 5692SOL     OW17731   2.475   3.227   8.174
 5692SOL    HW117732   2.426   3.140   8.183
 5692SOL    HW217733   2.452   3.270   8.087
 5693SOL     OW17734   3.155   3.090   8.871
 5693SOL    HW117735   3.192   3.017   8.813
 5693SOL    HW217736   3.207   3.095   8.956
 5694SOL     OW17737   2.671   1.866   7.950
 5694SOL    HW117738   2.711   1.957   7.941
 5694SOL    HW217739   2.571   1.874   7.956
 5695SOL     OW17740   2.059   2.838   8.712
 5695SOL    HW117741   2.148   2.793   8.698
 5695SOL    HW217742   1.986   2.773   8.693
 5696SOL     OW17743   3.387   2.861   7.638
 5696SOL    HW117744   3.324   2.785   7.651
 5696SOL    HW217745   3.435   2.879   7.724
 5697SOL     OW17746   3.049   3.654   9.064
 5697SOL    HW117747   3.073   3.714   8.988
 5697SOL    HW217748   3.056   3.559   9.034
 5698SOL     OW17749   3.328   3.279   8.401
 5698SOL    HW117750   3.269   3.285   8.481
 5698SOL    HW217751   3.313   3.191   8.355
 5699SOL     OW17752   3.529   3.576   8.020
 5699SOL    HW117753   3.488   3.553   7.932
 5699SOL    HW217754   3.511   3.502   8.085
 5700SOL     OW17755   2.460   2.591   7.718
 5700SOL    HW117756   2.484   2.660   7.650
 5700SOL    HW217757   2.382   2.624   7.772
 5701SOL     OW17758   3.143   2.207   8.392
 5701SOL    HW117759   3.057   2.157   8.379
 5701SOL    HW217760   3.205   2.153   8.448
 5702SOL     OW17761   3.438   3.524   7.755
 5702SOL    HW117762   3.527   3.570   7.758
 5702SOL    HW217763   3.417   3.500   7.660
 5703SOL     OW17764   2.669   2.467   8.913
 5703SOL    HW117765   2.622   2.464   9.002
 5703SOL    HW217766   2.618   2.412   8.847
 5704SOL     OW17767   3.256   2.331   9.122
 5704SOL    HW117768   3.236   2.374   9.210
 5704SOL    HW217769   3.334   2.269   9.131
 5705SOL     OW17770   2.835   2.752   9.020
 5705SOL    HW117771   2.881   2.668   8.991
 5705SOL    HW217772   2.779   2.786   8.945
 5706SOL     OW17773   2.853   2.272   8.690
 5706SOL    HW117774   2.776   2.306   8.744
 5706SOL    HW217775   2.819   2.221   8.611
 5707SOL     OW17776   2.903   2.563   7.877
 5707SOL    HW117777   2.929   2.559   7.973
 5707SOL    HW217778   2.818   2.512   7.863
 5708SOL     OW17779   1.938   2.673   8.237
 5708SOL    HW117780   2.037   2.661   8.246
 5708SOL    HW217781   1.914   2.768   8.258
 5709SOL     OW17782   1.992   3.683   9.019
 5709SOL    HW117783   1.982   3.668   9.118
 5709SOL    HW217784   1.906   3.719   8.983
 5710SOL     OW17785   2.727   2.210   7.643
 5710SOL    HW117786   2.786   2.273   7.594
 5710SOL    HW217787   2.746   2.116   7.614
 5711SOL     OW17788   3.581   2.447   9.279
 5711SOL    HW117789   3.555   2.536   9.243
 5711SOL    HW217790   3.579   2.379   9.206
 5712SOL     OW17791   3.224   3.006   7.993
 5712SOL    HW117792   3.307   2.977   7.945
 5712SOL    HW217793   3.175   3.073   7.937
 5713SOL     OW17794   2.412   2.058   8.333
 5713SOL    HW117795   2.407   2.053   8.433
 5713SOL    HW217796   2.414   2.154   8.304
 5714SOL     OW17797   2.870   3.318   7.925
 5714SOL    HW117798   2.824   3.390   7.873
 5714SOL    HW217799   2.866   3.338   8.023
 5715SOL     OW17800   2.213   3.663   8.301
 5715SOL    HW117801   2.263   3.577   8.307
 5715SOL    HW217802   2.278   3.740   8.298
 5716SOL     OW17803   3.657   2.928   8.321
 5716SOL    HW117804   3.595   2.913   8.245
 5716SOL    HW217805   3.605   2.939   8.406
 5717SOL     OW17806   3.089   3.412   8.954
 5717SOL    HW117807   3.095   3.335   9.018
 5717SOL    HW217808   3.037   3.386   8.874
 5718SOL     OW17809   2.183   2.805   7.690
 5718SOL    HW117810   2.265   2.844   7.648
 5718SOL    HW217811   2.156   2.723   7.641
 5719SOL     OW17812   3.320   2.597   8.176
 5719SOL    HW117813   3.315   2.532   8.251
 5719SOL    HW217814   3.400   2.656   8.189
 5720SOL     OW17815   2.323   3.128   9.175
 5720SOL    HW117816   2.273   3.129   9.089
 5720SOL    HW217817   2.260   3.110   9.251
 5721SOL     OW17818   2.973   3.638   7.685
 5721SOL    HW117819   2.913   3.576   7.735
 5721SOL    HW217820   3.004   3.594   7.600
 5722SOL     OW17821   3.494   3.239   7.529
 5722SOL    HW117822   3.462   3.333   7.519
 5722SOL    HW217823   3.418   3.176   7.517
 5723SOL     OW17824   2.326   3.605   7.771
 5723SOL    HW117825   2.359   3.644   7.857
 5723SOL    HW217826   2.402   3.598   7.706
 5724SOL     OW17827   3.262   1.969   7.874
 5724SOL    HW117828   3.238   1.932   7.784
 5724SOL    HW217829   3.361   1.985   7.878
 5725SOL     OW17830   2.111   3.647   8.689
 5725SOL    HW117831   2.168   3.582   8.739
 5725SOL    HW217832   2.095   3.614   8.596
 5726SOL     OW17833   2.802   3.560   8.352
 5726SOL    HW117834   2.882   3.503   8.373
 5726SOL    HW217835   2.753   3.520   8.275
 5727SOL     OW17836   2.244   2.562   7.928
 5727SOL    HW117837   2.289   2.472   7.925
 5727SOL    HW217838   2.150   2.551   7.961
 5728SOL     OW17839   3.409   2.084   9.177
 5728SOL    HW117840   3.404   2.121   9.269
 5728SOL    HW217841   3.337   2.015   9.165
 5729SOL     OW17842   2.476   1.984   7.565
 5729SOL    HW117843   2.574   1.962   7.572
 5729SOL    HW217844   2.445   1.967   7.472
 5730SOL     OW17845   2.643   2.126   9.197
 5730SOL    HW117846   2.710   2.065   9.240
 5730SOL    HW217847   2.570   2.145   9.262
 5731SOL     OW17848   2.750   3.376   8.643
 5731SOL    HW117849   2.727   3.351   8.549
 5731SOL    HW217850   2.811   3.307   8.682
 5732SOL     OW17851   3.213   2.452   8.881
 5732SOL    HW117852   3.241   2.409   8.966
 5732SOL    HW217853   3.238   2.548   8.882
 5733SOL     OW17854   2.665   3.264   8.372
 5733SOL    HW117855   2.755   3.278   8.330
 5733SOL    HW217856   2.594   3.266   8.301
 5734SOL     OW17857   2.784   2.365   8.347
 5734SOL    HW117858   2.759   2.356   8.251
 5734SOL    HW217859   2.832   2.283   8.378
 5735SOL     OW17860   2.401   1.926   7.960
 5735SOL    HW117861   2.320   1.927   8.018
 5735SOL    HW217862   2.404   2.009   7.905
 5736SOL     OW17863   3.296   3.050   7.489
 5736SOL    HW117864   3.328   2.974   7.546
 5736SOL    HW217865   3.204   3.077   7.519
 5737SOL     OW17866   2.797   2.098   7.928
 5737SOL    HW117867   2.749   2.139   7.850
 5737SOL    HW217868   2.896   2.096   7.909
 5738SOL     OW17869   2.938   2.545   8.912
 5738SOL    HW117870   2.858   2.484   8.915
 5738SOL    HW217871   3.019   2.492   8.888
 5739SOL     OW17872   3.089   3.432   8.241
 5739SOL    HW117873   3.110   3.506   8.176
 5739SOL    HW217874   3.157   3.432   8.314
 5740SOL     OW17875   2.321   3.014   8.189
 5740SOL    HW117876   2.250   2.987   8.254
 5740SOL    HW217877   2.295   2.986   8.096
 5741SOL     OW17878   3.133   3.659   8.039
 5741SOL    HW117879   3.177   3.723   7.975
 5741SOL    HW217880   3.083   3.711   8.109
 5742SOL     OW17881   2.894   2.411   7.464
 5742SOL    HW117882   2.853   2.493   7.425
 5742SOL    HW217883   2.958   2.437   7.537
 5743SOL     OW17884   1.940   2.418   8.834
 5743SOL    HW117885   2.032   2.417   8.793
 5743SOL    HW217886   1.934   2.492   8.901
 5744SOL     OW17887   2.423   2.084   8.595
 5744SOL    HW117888   2.461   2.000   8.632
 5744SOL    HW217889   2.335   2.103   8.639
 5745SOL     OW17890   2.728   2.316   8.090
 5745SOL    HW117891   2.696   2.388   8.028
 5745SOL    HW217892   2.752   2.235   8.037
 5746SOL     OW17893   2.879   1.901   8.201
 5746SOL    HW117894   2.807   1.906   8.132
 5746SOL    HW217895   2.855   1.832   8.270
 5747SOL     OW17896   3.291   3.035   8.315
 5747SOL    HW117897   3.236   2.951   8.308
 5747SOL    HW217898   3.317   3.064   8.223
 5748SOL     OW17899   3.328   2.452   8.440
 5748SOL    HW117900   3.298   2.357   8.447
 5748SOL    HW217901   3.401   2.468   8.506
 5749SOL     OW17902   3.719   2.695   7.825
 5749SOL    HW117903   3.761   2.631   7.889
 5749SOL    HW217904   3.681   2.644   7.747
 5750SOL     OW17905   2.350   3.247   7.622
 5750SOL    HW117906   2.263   3.232   7.669
 5750SOL    HW217907   2.333   3.273   7.527
 5751SOL     OW17908   3.526   3.142   8.105
 5751SOL    HW117909   3.625   3.150   8.119
 5751SOL    HW217910   3.481   3.226   8.136
 5752SOL     OW17911   3.252   2.437   7.526
 5752SOL    HW117912   3.198   2.416   7.607
 5752SOL    HW217913   3.343   2.396   7.535
 5753SOL     OW17914   2.389   2.118   7.776
 5753SOL    HW117915   2.416   2.059   7.701
 5753SOL    HW217916   2.389   2.213   7.745
 5754SOL     OW17917   3.616   3.085   9.036
 5754SOL    HW117918   3.707   3.046   9.023
 5754SOL    HW217919   3.624   3.181   9.060
 5755SOL     OW17920   2.926   3.209   8.788
 5755SOL    HW117921   2.846   3.186   8.843
 5755SOL    HW217922   3.009   3.183   8.837
 5756SOL     OW17923   3.454   3.491   9.073
 5756SOL    HW117924   3.481   3.525   8.983
 5756SOL    HW217925   3.533   3.453   9.119
 5757SOL     OW17926   2.973   3.057   8.548
 5757SOL    HW117927   2.933   3.101   8.629
 5757SOL    HW217928   2.932   3.094   8.465
 5758SOL     OW17929   3.500   2.961   8.527
 5758SOL    HW117930   3.505   3.042   8.586
 5758SOL    HW217931   3.414   2.963   8.476
 5759SOL     OW17932   2.777   1.951   8.850
 5759SOL    HW117933   2.802   1.931   8.755
 5759SOL    HW217934   2.849   2.007   8.892
 5760SOL     OW17935   2.842   2.978   9.167
 5760SOL    HW117936   2.743   2.984   9.177
 5760SOL    HW217937   2.865   2.898   9.111
 5761SOL     OW17938   2.567   2.912   7.816
 5761SOL    HW117939   2.553   2.919   7.915
 5761SOL    HW217940   2.651   2.861   7.798
 5762SOL     OW17941   2.272   2.675   8.699
 5762SOL    HW117942   2.358   2.687   8.749
 5762SOL    HW217943   2.230   2.588   8.726
 5763SOL     OW17944   3.136   2.248   8.710
 5763SOL    HW117945   3.157   2.322   8.774
 5763SOL    HW217946   3.047   2.265   8.667
 5764SOL     OW17947   1.926   3.426   8.779
 5764SOL    HW117948   1.880   3.508   8.745
 5764SOL    HW217949   2.024   3.445   8.788
 5765SOL     OW17950   2.229   2.962   7.949
 5765SOL    HW117951   2.222   3.045   7.893
 5765SOL    HW217952   2.233   2.882   7.889
 5766SOL     OW17953   2.428   2.399   8.313
 5766SOL    HW117954   2.440   2.465   8.239
 5766SOL    HW217955   2.474   2.433   8.396
 5767SOL     OW17956   3.114   3.210   7.836
 5767SOL    HW117957   3.164   3.287   7.876
 5767SOL    HW217958   3.019   3.212   7.868
 5768SOL     OW17959   3.134   3.307   8.590
 5768SOL    HW117960   3.181   3.320   8.677
 5768SOL    HW217961   3.068   3.233   8.599
 5769SOL     OW17962   3.444   2.501   7.920
 5769SOL    HW117963   3.413   2.562   7.993
 5769SOL    HW217964   3.494   2.553   7.851
 5770SOL     OW17965   2.216   3.372   8.777
 5770SOL    HW117966   2.195   3.328   8.690
 5770SOL    HW217967   2.313   3.398   8.780
 5771SOL     OW17968   2.264   2.613   9.046
 5771SOL    HW117969   2.332   2.668   8.999
 5771SOL    HW217970   2.304   2.525   9.073
 5772SOL     OW17971   3.449   2.641   9.118
 5772SOL    HW117972   3.357   2.679   9.113
 5772SOL    HW217973   3.509   2.688   9.053
 5773SOL     OW17974   2.875   1.967   9.218
 5773SOL    HW117975   2.881   2.052   9.166
 5773SOL    HW217976   2.907   1.891   9.161
 5774SOL     OW17977   2.366   1.912   9.188
 5774SOL    HW117978   2.324   1.855   9.118
 5774SOL    HW217979   2.300   1.981   9.220
 5775SOL     OW17980   2.435   2.732   8.477
 5775SOL    HW117981   2.479   2.821   8.468
 5775SOL    HW217982   2.372   2.732   8.554
 5776SOL     OW17983   3.222   2.724   8.493
 5776SOL    HW117984   3.147   2.724   8.427
 5776SOL    HW217985   3.259   2.632   8.502
 5777SOL     OW17986   3.071   2.387   7.723
 5777SOL    HW117987   3.084   2.303   7.777
 5777SOL    HW217988   3.042   2.461   7.783
 5778SOL     OW17989   1.899   3.172   8.730
 5778SOL    HW117990   1.952   3.123   8.798
 5778SOL    HW217991   1.921   3.270   8.735
 5779SOL     OW17992   2.594   2.496   8.512
 5779SOL    HW117993   2.653   2.470   8.436
 5779SOL    HW217994   2.566   2.592   8.501
 5780SOL     OW17995   3.590   2.797   9.302
 5780SOL    HW117996   3.544   2.790   9.213
 5780SOL    HW217997   3.528   2.841   9.368
 5781SOL     OW17998   3.484   2.229   7.822
 5781SOL    HW117999   3.486   2.153   7.886
 5781SOL    HW218000   3.436   2.306   7.862
 5782SOL     OW18001   2.885   2.628   8.414
 5782SOL    HW118002   2.900   2.649   8.510
 5782SOL    HW218003   2.855   2.533   8.405
 5783SOL     OW18004   2.842   3.435   9.148
 5783SOL    HW118005   2.822   3.479   9.060
 5783SOL    HW218006   2.881   3.344   9.132
 5784SOL     OW18007   3.721   3.380   9.053
 5784SOL    HW118008   3.735   3.407   8.958
 5784SOL    HW218009   3.804   3.402   9.106
 5785SOL     OW18010   2.212   2.760   9.252
 5785SOL    HW118011   2.288   2.804   9.300
 5785SOL    HW218012   2.247   2.713   9.170
 5786SOL     OW18013   3.402   2.136   7.573
 5786SOL    HW118014   3.341   2.061   7.596
 5786SOL    HW218015   3.424   2.188   7.656
 5787SOL     OW18016   3.165   2.700   7.490
 5787SOL    HW118017   3.199   2.607   7.505
 5787SOL    HW218018   3.183   2.727   7.395
 5788SOL     OW18019   2.930   3.195   8.297
 5788SOL    HW118020   2.937   3.111   8.242
 5788SOL    HW218021   2.992   3.264   8.261
 5789SOL     OW18022   2.181   2.672   8.397
 5789SOL    HW118023   2.274   2.708   8.402
 5789SOL    HW218024   2.175   2.587   8.449
 5790SOL     OW18025   2.201   2.371   8.454
 5790SOL    HW118026   2.149   2.288   8.437
 5790SOL    HW218027   2.278   2.376   8.390
 5791SOL     OW18028   3.000   2.242   9.126
 5791SOL    HW118029   2.955   2.305   9.190
 5791SOL    HW218030   3.093   2.273   9.109
 5792SOL     OW18031   3.022   2.069   8.925
 5792SOL    HW118032   3.022   2.133   9.002
 5792SOL    HW218033   3.050   2.117   8.842
 5793SOL     OW18034   1.870   3.188   7.648
 5793SOL    HW118035   1.777   3.209   7.617
 5793SOL    HW218036   1.880   3.089   7.661
 5794SOL     OW18037   1.950   3.663   8.375
 5794SOL    HW118038   1.908   3.577   8.348
 5794SOL    HW218039   2.044   3.666   8.341
 5795SOL     OW18040   2.366   3.430   8.358
 5795SOL    HW118041   2.432   3.504   8.367
 5795SOL    HW218042   2.410   3.351   8.316
 5796SOL     OW18043   2.864   2.658   8.686
 5796SOL    HW118044   2.905   2.626   8.772
 5796SOL    HW218045   2.768   2.631   8.683
 5797SOL     OW18046   3.231   2.812   9.108
 5797SOL    HW118047   3.270   2.901   9.128
 5797SOL    HW218048   3.241   2.792   9.011
 5798SOL     OW18049   2.677   2.434   7.773
 5798SOL    HW118050   2.684   2.345   7.727
 5798SOL    HW218051   2.583   2.468   7.765
 5799SOL     OW18052   3.519   2.466   8.654
 5799SOL    HW118053   3.481   2.397   8.716
 5799SOL    HW218054   3.601   2.430   8.610
 5800SOL     OW18055   2.114   3.426   9.192
 5800SOL    HW118056   2.084   3.483   9.268
 5800SOL    HW218057   2.107   3.329   9.218
 5801SOL     OW18058   2.533   2.326   8.717
 5801SOL    HW118059   2.499   2.237   8.687
 5801SOL    HW218060   2.559   2.380   8.637
 5802SOL     OW18061   2.792   3.540   8.913
 5802SOL    HW118062   2.768   3.522   8.818
 5802SOL    HW218063   2.822   3.634   8.923
 5803SOL     OW18064   2.335   2.362   7.639
 5803SOL    HW118065   2.396   2.442   7.643
 5803SOL    HW218066   2.240   2.393   7.646
 5804SOL     OW18067   2.021   2.999   8.914
 5804SOL    HW118068   2.043   2.938   8.990
 5804SOL    HW218069   2.031   2.950   8.828
 5805SOL     OW18070   3.209   2.921   8.682
 5805SOL    HW118071   3.233   2.858   8.608
 5805SOL    HW218072   3.119   2.961   8.664
 5806SOL     OW18073   3.164   2.717   7.757
 5806SOL    HW118074   3.078   2.686   7.799
 5806SOL    HW218075   3.160   2.703   7.658
 5807SOL     OW18076   3.621   3.609   8.602
 5807SOL    HW118077   3.682   3.639   8.529
 5807SOL    HW218078   3.583   3.520   8.580
 5808SOL     OW18079   3.114   3.593   8.576
 5808SOL    HW118080   3.198   3.598   8.522
 5808SOL    HW218081   3.091   3.497   8.594
 5809SOL     OW18082   1.945   3.120   8.470
 5809SOL    HW118083   1.940   3.119   8.570
 5809SOL    HW218084   1.862   3.079   8.432
 5810SOL     OW18085   2.550   3.524   9.164
 5810SOL    HW118086   2.494   3.605   9.173
 5810SOL    HW218087   2.602   3.528   9.078
 5811SOL     OW18088   3.588   1.997   7.971
 5811SOL    HW118089   3.661   1.980   7.904
 5811SOL    HW218090   3.557   1.910   8.009
 5812SOL     OW18091   3.250   3.435   7.925
 5812SOL    HW118092   3.317   3.447   7.851
 5812SOL    HW218093   3.210   3.524   7.948
 5813SOL     OW18094   1.992   3.656   9.299
 5813SOL    HW118095   1.951   3.582   9.352
 5813SOL    HW218096   2.056   3.707   9.357
 5814SOL     OW18097   3.142   2.789   8.120
 5814SOL    HW118098   3.202   2.708   8.122
 5814SOL    HW218099   3.182   2.858   8.060
 5815SOL     OW18100   2.692   3.135   8.870
 5815SOL    HW118101   2.687   3.168   8.965
 5815SOL    HW218102   2.606   3.154   8.824
 5816SOL     OW18103   2.534   3.478   7.602
 5816SOL    HW118104   2.543   3.488   7.503
 5816SOL    HW218105   2.494   3.389   7.623
 5817SOL     OW18106   3.512   3.582   8.842
 5817SOL    HW118107   3.565   3.592   8.758
 5817SOL    HW218108   3.485   3.672   8.876
 5818SOL     OW18109   3.703   2.037   8.411
 5818SOL    HW118110   3.742   1.952   8.375
 5818SOL    HW218111   3.605   2.039   8.392
 5819SOL     OW18112   3.056   3.474   7.479
 5819SOL    HW118113   3.062   3.381   7.516
 5819SOL    HW218114   2.997   3.474   7.399
 5820SOL     OW18115   2.684   2.864   8.820
 5820SOL    HW118116   2.724   2.863   8.728
 5820SOL    HW218117   2.694   2.956   8.860
 5821SOL     OW18118   2.778   2.772   7.739
 5821SOL    HW118119   2.841   2.810   7.671
 5821SOL    HW218120   2.818   2.689   7.778
 5822SOL     OW18121   3.366   3.469   7.492
 5822SOL    HW118122   3.274   3.506   7.499
 5822SOL    HW218123   3.404   3.489   7.402
 5823SOL     OW18124   2.234   3.150   8.938
 5823SOL    HW118125   2.221   3.243   8.904
 5823SOL    HW218126   2.150   3.098   8.925
 5824SOL     OW18127   3.476   3.154   8.737
 5824SOL    HW118128   3.536   3.157   8.817
 5824SOL    HW218129   3.401   3.218   8.750
 5825SOL     OW18130   2.901   2.960   8.144
 5825SOL    HW118131   2.831   2.913   8.198
 5825SOL    HW218132   2.960   2.892   8.101
 5826SOL     OW18133   2.876   2.098   8.419
 5826SOL    HW118134   2.868   2.062   8.326
 5826SOL    HW218135   2.874   2.022   8.484
 5827SOL     OW18136   2.452   3.349   7.939
 5827SOL    HW118137   2.494   3.291   7.869
 5827SOL    HW218138   2.408   3.428   7.895
 5828SOL     OW18139   3.571   2.247   8.829
 5828SOL    HW118140   3.644   2.316   8.833
 5828SOL    HW218141   3.599   2.172   8.770
 5829SOL     OW18142   2.117   3.210   7.738
 5829SOL    HW118143   2.021   3.211   7.711
 5829SOL    HW218144   2.129   3.263   7.822
 5830SOL     OW18145   1.967   2.875   9.174
 5830SOL    HW118146   1.890   2.842   9.228
 5830SOL    HW218147   2.052   2.845   9.216
 5831SOL     OW18148   2.534   2.065   8.937
 5831SOL    HW118149   2.624   2.049   8.897
 5831SOL    HW218150   2.542   2.070   9.036
 5832SOL     OW18151   3.302   2.718   8.846
 5832SOL    HW118152   3.245   2.770   8.783
 5832SOL    HW218153   3.398   2.730   8.822
 5833SOL     OW18154   3.045   3.197   7.567
 5833SOL    HW118155   2.946   3.186   7.569
 5833SOL    HW218156   3.079   3.212   7.660
 5834SOL     OW18157   2.475   2.704   8.879
 5834SOL    HW118158   2.531   2.785   8.862
 5834SOL    HW218159   2.534   2.624   8.882
 5835SOL     OW18160   3.355   3.629   8.407
 5835SOL    HW118161   3.388   3.693   8.338
 5835SOL    HW218162   3.421   3.623   8.482
 5836SOL     OW18163   2.578   2.427   9.156
 5836SOL    HW118164   2.597   2.492   9.230
 5836SOL    HW218165   2.638   2.347   9.165
 5837SOL     OW18166   3.312   3.082   9.081
 5837SOL    HW118167   3.303   3.072   9.180
 5837SOL    HW218168   3.408   3.075   9.055
 5838SOL     OW18169   2.252   3.603   9.008
 5838SOL    HW118170   2.161   3.644   9.006
 5838SOL    HW218171   2.245   3.509   9.040
 5839SOL     OW18172   3.536   2.745   8.702
 5839SOL    HW118173   3.509   2.656   8.665
 5839SOL    HW218174   3.537   2.813   8.629
 5840SOL     OW18175   3.087   2.187   7.897
 5840SOL    HW118176   3.152   2.113   7.886
 5840SOL    HW218177   3.107   2.237   7.981
 5841SOL     OW18178   2.456   2.607   8.100
 5841SOL    HW118179   2.506   2.692   8.081
 5841SOL    HW218180   2.368   2.609   8.052
 5842SOL     OW18181   3.639   2.204   9.090
 5842SOL    HW118182   3.622   2.235   8.996
 5842SOL    HW218183   3.555   2.167   9.128
 5843SOL     OW18184   3.592   2.796   8.965
 5843SOL    HW118185   3.630   2.887   8.980
 5843SOL    HW218186   3.584   2.779   8.866
 5844SOL     OW18187   2.721   3.236   7.464
 5844SOL    HW118188   2.675   3.251   7.552
 5844SOL    HW218189   2.765   3.321   7.434
 5845SOL     OW18190   2.523   3.652   8.401
 5845SOL    HW118191   2.477   3.740   8.388
 5845SOL    HW218192   2.622   3.664   8.394
 5846SOL     OW18193   2.721   2.818   8.309
 5846SOL    HW118194   2.775   2.749   8.357
 5846SOL    HW218195   2.689   2.887   8.375
 5847SOL     OW18196   2.945   2.846   7.535
 5847SOL    HW118197   2.922   2.899   7.453
 5847SOL    HW218198   3.026   2.790   7.516
 5848SOL     OW18199   3.723   3.431   8.299
 5848SOL    HW118200   3.652   3.419   8.229
 5848SOL    HW218201   3.724   3.352   8.359
 5849SOL     OW18202   2.083   3.176   9.292
 5849SOL    HW118203   2.018   3.103   9.271
 5849SOL    HW218204   2.087   3.190   9.390
 5850SOL     OW18205   1.941   3.102   8.101
 5850SOL    HW118206   1.940   3.055   8.189
 5850SOL    HW218207   2.023   3.074   8.050
 5851SOL     OW18208   2.534   3.253   9.072
 5851SOL    HW118209   2.456   3.203   9.110
 5851SOL    HW218210   2.531   3.348   9.103
 5852SOL     OW18211   3.686   2.054   8.675
 5852SOL    HW118212   3.682   1.964   8.719
 5852SOL    HW218213   3.689   2.043   8.576
 5853SOL     OW18214   2.290   2.286   7.968
 5853SOL    HW118215   2.320   2.214   7.906
 5853SOL    HW218216   2.251   2.246   8.051
 5854SOL     OW18217   3.567   3.349   8.552
 5854SOL    HW118218   3.474   3.324   8.525
 5854SOL    HW218219   3.593   3.299   8.634
 5855SOL     OW18220   2.179   2.409   8.728
 5855SOL    HW118221   2.217   2.350   8.800
 5855SOL    HW218222   2.219   2.383   8.640
 5856SOL     OW18223   2.674   3.448   8.135
 5856SOL    HW118224   2.706   3.458   8.041
 5856SOL    HW218225   2.595   3.386   8.137
 5857SOL     OW18226   3.286   2.076   8.560
 5857SOL    HW118227   3.338   2.011   8.615
 5857SOL    HW218228   3.237   2.139   8.621
 5858SOL     OW18229   2.863   1.896   8.602
 5858SOL    HW118230   2.800   1.824   8.571
 5858SOL    HW218231   2.956   1.860   8.602
 5859SOL     OW18232   2.632   3.192   7.749
 5859SOL    HW118233   2.586   3.105   7.766
 5859SOL    HW218234   2.723   3.189   7.790
 5860SOL     OW18235   2.480   3.429   8.732
 5860SOL    HW118236   2.475   3.511   8.789
 5860SOL    HW218237   2.569   3.426   8.687
 5861SOL     OW18238   3.214   1.914   7.616
 5861SOL    HW118239   3.249   1.873   7.532
 5861SOL    HW218240   3.124   1.876   7.636
 5862SOL     OW18241   3.162   2.315   8.139
 5862SOL    HW118242   3.103   2.395   8.143
 5862SOL    HW218243   3.177   2.280   8.232
 5863SOL     OW18244   3.455   2.083   8.330
 5863SOL    HW118245   3.371   2.082   8.384
 5863SOL    HW218246   3.457   2.166   8.274
 5864SOL     OW18247   1.901   2.939   7.748
 5864SOL    HW118248   2.000   2.928   7.739
 5864SOL    HW218249   1.861   2.853   7.780
 5865SOL     OW18250   2.737   3.508   7.785
 5865SOL    HW118251   2.660   3.473   7.731
 5865SOL    HW218252   2.705   3.579   7.847
 5866SOL     OW18253   2.092   2.490   9.423
 5866SOL    HW118254   1.999   2.488   9.460
 5866SOL    HW218255   2.093   2.451   9.331
 5867SOL     OW18256   2.431   3.137  10.475
 5867SOL    HW118257   2.338   3.130  10.438
 5867SOL    HW218258   2.442   3.226  10.519
 5868SOL     OW18259   3.417   3.373  10.013
 5868SOL    HW118260   3.360   3.357  10.094
 5868SOL    HW218261   3.358   3.383   9.933
 5869SOL     OW18262   2.997   2.565  10.027
 5869SOL    HW118263   3.054   2.643  10.002
 5869SOL    HW218264   2.937   2.591  10.103
 5870SOL     OW18265   3.617   2.469   9.541
 5870SOL    HW118266   3.605   2.456   9.442
 5870SOL    HW218267   3.587   2.388   9.590
 5871SOL     OW18268   2.630   3.006  10.333
 5871SOL    HW118269   2.552   3.023  10.393
 5871SOL    HW218270   2.664   3.093  10.297
 5872SOL     OW18271   2.712   2.660  11.133
 5872SOL    HW118272   2.708   2.736  11.198
 5872SOL    HW218273   2.734   2.696  11.042
 5873SOL     OW18274   2.547   2.874   9.975
 5873SOL    HW118275   2.616   2.858  10.045
 5873SOL    HW218276   2.474   2.931  10.013
 5874SOL     OW18277   2.548   3.023  11.113
 5874SOL    HW118278   2.608   3.102  11.127
 5874SOL    HW218279   2.462   3.054  11.072
 5875SOL     OW18280   2.197   3.297  10.371
 5875SOL    HW118281   2.119   3.266  10.318
 5875SOL    HW218282   2.255   3.355  10.314
 5876SOL     OW18283   3.322   3.367  10.649
 5876SOL    HW118284   3.346   3.461  10.675
 5876SOL    HW218285   3.306   3.313  10.731
 5877SOL     OW18286   2.300   2.254  10.809
 5877SOL    HW118287   2.382   2.198  10.818
 5877SOL    HW218288   2.219   2.196  10.813
 5878SOL     OW18289   3.465   2.309  10.047
 5878SOL    HW118290   3.391   2.355   9.997
 5878SOL    HW218291   3.516   2.377  10.100
 5879SOL     OW18292   2.093   3.575   9.793
 5879SOL    HW118293   2.127   3.652   9.847
 5879SOL    HW218294   2.137   3.575   9.703
 5880SOL     OW18295   2.989   3.203  11.000
 5880SOL    HW118296   3.036   3.203  11.088
 5880SOL    HW218297   2.941   3.116  10.989
 5881SOL     OW18298   2.092   3.296   9.848
 5881SOL    HW118299   2.066   3.392   9.848
 5881SOL    HW218300   2.021   3.242   9.893
 5882SOL     OW18301   2.102   2.953  10.196
 5882SOL    HW118302   2.116   2.869  10.248
 5882SOL    HW218303   2.047   3.017  10.251
 5883SOL     OW18304   2.482   3.648  10.749
 5883SOL    HW118305   2.390   3.631  10.784
 5883SOL    HW218306   2.510   3.740  10.775
 5884SOL     OW18307   2.468   2.826   9.433
 5884SOL    HW118308   2.475   2.910   9.379
 5884SOL    HW218309   2.514   2.839   9.521
 5885SOL     OW18310   3.456   1.976  10.790
 5885SOL    HW118311   3.438   2.043  10.718
 5885SOL    HW218312   3.453   2.022  10.879
 5886SOL     OW18313   1.984   2.505   9.873
 5886SOL    HW118314   1.939   2.417   9.890
 5886SOL    HW218315   1.983   2.559   9.957
 5887SOL     OW18316   3.704   3.629   9.669
 5887SOL    HW118317   3.758   3.600   9.749
 5887SOL    HW218318   3.734   3.719   9.640
 5888SOL     OW18319   1.889   3.458   9.427
 5888SOL    HW118320   1.870   3.362   9.448
 5888SOL    HW218321   1.856   3.516   9.502
 5889SOL     OW18322   3.551   2.784   9.922
 5889SOL    HW118323   3.646   2.755   9.930
 5889SOL    HW218324   3.543   2.849   9.847
 5890SOL     OW18325   3.503   2.970   9.742
 5890SOL    HW118326   3.589   2.972   9.690
 5890SOL    HW218327   3.517   3.017   9.830
 5891SOL     OW18328   1.975   2.599  10.907
 5891SOL    HW118329   2.063   2.586  10.952
 5891SOL    HW218330   1.962   2.696  10.885
 5892SOL     OW18331   2.475   3.227  10.036
 5892SOL    HW118332   2.426   3.140  10.045
 5892SOL    HW218333   2.452   3.270   9.949
 5893SOL     OW18334   3.155   3.090  10.733
 5893SOL    HW118335   3.192   3.017  10.675
 5893SOL    HW218336   3.207   3.095  10.818
 5894SOL     OW18337   2.671   1.866   9.812
 5894SOL    HW118338   2.711   1.957   9.803
 5894SOL    HW218339   2.571   1.874   9.818
 5895SOL     OW18340   2.059   2.838  10.574
 5895SOL    HW118341   2.148   2.793  10.560
 5895SOL    HW218342   1.986   2.773  10.555
 5896SOL     OW18343   3.387   2.861   9.500
 5896SOL    HW118344   3.324   2.785   9.513
 5896SOL    HW218345   3.435   2.879   9.586
 5897SOL     OW18346   3.049   3.654  10.926
 5897SOL    HW118347   3.073   3.714  10.850
 5897SOL    HW218348   3.056   3.559  10.896
 5898SOL     OW18349   3.328   3.279  10.263
 5898SOL    HW118350   3.269   3.285  10.343
 5898SOL    HW218351   3.313   3.191  10.217
 5899SOL     OW18352   3.529   3.576   9.882
 5899SOL    HW118353   3.488   3.553   9.794
 5899SOL    HW218354   3.511   3.502   9.947
 5900SOL     OW18355   2.460   2.591   9.580
 5900SOL    HW118356   2.484   2.660   9.512
 5900SOL    HW218357   2.382   2.624   9.634
 5901SOL     OW18358   3.143   2.207  10.254
 5901SOL    HW118359   3.057   2.157  10.241
 5901SOL    HW218360   3.205   2.153  10.310
 5902SOL     OW18361   3.438   3.524   9.617
 5902SOL    HW118362   3.527   3.570   9.620
 5902SOL    HW218363   3.417   3.500   9.522
 5903SOL     OW18364   2.669   2.467  10.775
 5903SOL    HW118365   2.622   2.464  10.864
 5903SOL    HW218366   2.618   2.412  10.709
 5904SOL     OW18367   3.256   2.331  10.984
 5904SOL    HW118368   3.236   2.374  11.072
 5904SOL    HW218369   3.334   2.269  10.993
 5905SOL     OW18370   2.835   2.752  10.882
 5905SOL    HW118371   2.881   2.668  10.853
 5905SOL    HW218372   2.779   2.786  10.807
 5906SOL     OW18373   2.853   2.272  10.552
 5906SOL    HW118374   2.776   2.306  10.606
 5906SOL    HW218375   2.819   2.221  10.473
 5907SOL     OW18376   2.903   2.563   9.739
 5907SOL    HW118377   2.929   2.559   9.835
 5907SOL    HW218378   2.818   2.512   9.725
 5908SOL     OW18379   1.938   2.673  10.099
 5908SOL    HW118380   2.037   2.661  10.108
 5908SOL    HW218381   1.914   2.768  10.120
 5909SOL     OW18382   1.992   3.683  10.881
 5909SOL    HW118383   1.982   3.668  10.980
 5909SOL    HW218384   1.906   3.719  10.845
 5910SOL     OW18385   2.727   2.210   9.505
 5910SOL    HW118386   2.786   2.273   9.456
 5910SOL    HW218387   2.746   2.116   9.476
 5911SOL     OW18388   3.581   2.447  11.141
 5911SOL    HW118389   3.555   2.536  11.105
 5911SOL    HW218390   3.579   2.379  11.068
 5912SOL     OW18391   3.224   3.006   9.855
 5912SOL    HW118392   3.307   2.977   9.807
 5912SOL    HW218393   3.175   3.073   9.799
 5913SOL     OW18394   2.412   2.058  10.195
 5913SOL    HW118395   2.407   2.053  10.295
 5913SOL    HW218396   2.414   2.154  10.166
 5914SOL     OW18397   2.870   3.318   9.787
 5914SOL    HW118398   2.824   3.390   9.735
 5914SOL    HW218399   2.866   3.338   9.885
 5915SOL     OW18400   2.213   3.663  10.163
 5915SOL    HW118401   2.263   3.577  10.169
 5915SOL    HW218402   2.278   3.740  10.160
 5916SOL     OW18403   3.657   2.928  10.183
 5916SOL    HW118404   3.595   2.913  10.107
 5916SOL    HW218405   3.605   2.939  10.268
 5917SOL     OW18406   3.089   3.412  10.816
 5917SOL    HW118407   3.095   3.335  10.880
 5917SOL    HW218408   3.037   3.386  10.736
 5918SOL     OW18409   2.183   2.805   9.552
 5918SOL    HW118410   2.265   2.844   9.510
 5918SOL    HW218411   2.156   2.723   9.503
 5919SOL     OW18412   3.320   2.597  10.038
 5919SOL    HW118413   3.315   2.532  10.113
 5919SOL    HW218414   3.400   2.656  10.051
 5920SOL     OW18415   2.323   3.128  11.037
 5920SOL    HW118416   2.273   3.129  10.951
 5920SOL    HW218417   2.260   3.110  11.113
 5921SOL     OW18418   2.973   3.638   9.547
 5921SOL    HW118419   2.913   3.576   9.597
 5921SOL    HW218420   3.004   3.594   9.462
 5922SOL     OW18421   3.494   3.239   9.391
 5922SOL    HW118422   3.462   3.333   9.381
 5922SOL    HW218423   3.418   3.176   9.379
 5923SOL     OW18424   2.326   3.605   9.633
 5923SOL    HW118425   2.359   3.644   9.719
 5923SOL    HW218426   2.402   3.598   9.568
 5924SOL     OW18427   3.262   1.969   9.736
 5924SOL    HW118428   3.238   1.932   9.646
 5924SOL    HW218429   3.361   1.985   9.740
 5925SOL     OW18430   2.111   3.647  10.551
 5925SOL    HW118431   2.168   3.582  10.601
 5925SOL    HW218432   2.095   3.614  10.458
 5926SOL     OW18433   2.802   3.560  10.214
 5926SOL    HW118434   2.882   3.503  10.235
 5926SOL    HW218435   2.753   3.520  10.137
 5927SOL     OW18436   2.244   2.562   9.790
 5927SOL    HW118437   2.289   2.472   9.787
 5927SOL    HW218438   2.150   2.551   9.823
 5928SOL     OW18439   3.409   2.084  11.039
 5928SOL    HW118440   3.404   2.121  11.131
 5928SOL    HW218441   3.337   2.015  11.027
 5929SOL     OW18442   2.476   1.984   9.427
 5929SOL    HW118443   2.574   1.962   9.434
 5929SOL    HW218444   2.445   1.967   9.334
 5930SOL     OW18445   2.643   2.126  11.059
 5930SOL    HW118446   2.710   2.065  11.102
 5930SOL    HW218447   2.570   2.145  11.124
 5931SOL     OW18448   2.750   3.376  10.505
 5931SOL    HW118449   2.727   3.351  10.411
 5931SOL    HW218450   2.811   3.307  10.544
 5932SOL     OW18451   3.213   2.452  10.743
 5932SOL    HW118452   3.241   2.409  10.828
 5932SOL    HW218453   3.238   2.548  10.744
 5933SOL     OW18454   2.665   3.264  10.234
 5933SOL    HW118455   2.755   3.278  10.192
 5933SOL    HW218456   2.594   3.266  10.163
 5934SOL     OW18457   2.784   2.365  10.209
 5934SOL    HW118458   2.759   2.356  10.113
 5934SOL    HW218459   2.832   2.283  10.240
 5935SOL     OW18460   2.401   1.926   9.822
 5935SOL    HW118461   2.320   1.927   9.880
 5935SOL    HW218462   2.404   2.009   9.767
 5936SOL     OW18463   3.296   3.050   9.351
 5936SOL    HW118464   3.328   2.974   9.408
 5936SOL    HW218465   3.204   3.077   9.381
 5937SOL     OW18466   2.797   2.098   9.790
 5937SOL    HW118467   2.749   2.139   9.712
 5937SOL    HW218468   2.896   2.096   9.771
 5938SOL     OW18469   2.938   2.545  10.774
 5938SOL    HW118470   2.858   2.484  10.777
 5938SOL    HW218471   3.019   2.492  10.750
 5939SOL     OW18472   3.089   3.432  10.103
 5939SOL    HW118473   3.110   3.506  10.038
 5939SOL    HW218474   3.157   3.432  10.176
 5940SOL     OW18475   2.321   3.014  10.051
 5940SOL    HW118476   2.250   2.987  10.116
 5940SOL    HW218477   2.295   2.986   9.958
 5941SOL     OW18478   3.133   3.659   9.901
 5941SOL    HW118479   3.177   3.723   9.837
 5941SOL    HW218480   3.083   3.711   9.971
 5942SOL     OW18481   2.894   2.411   9.326
 5942SOL    HW118482   2.853   2.493   9.287
 5942SOL    HW218483   2.958   2.437   9.399
 5943SOL     OW18484   1.940   2.418  10.696
 5943SOL    HW118485   2.032   2.417  10.655
 5943SOL    HW218486   1.934   2.492  10.763
 5944SOL     OW18487   2.423   2.084  10.457
 5944SOL    HW118488   2.461   2.000  10.494
 5944SOL    HW218489   2.335   2.103  10.501
 5945SOL     OW18490   2.728   2.316   9.952
 5945SOL    HW118491   2.696   2.388   9.890
 5945SOL    HW218492   2.752   2.235   9.899
 5946SOL     OW18493   2.879   1.901  10.063
 5946SOL    HW118494   2.807   1.906   9.994
 5946SOL    HW218495   2.855   1.832  10.132
 5947SOL     OW18496   3.291   3.035  10.177
 5947SOL    HW118497   3.236   2.951  10.170
 5947SOL    HW218498   3.317   3.064  10.085
 5948SOL     OW18499   3.328   2.452  10.302
 5948SOL    HW118500   3.298   2.357  10.309
 5948SOL    HW218501   3.401   2.468  10.368
 5949SOL     OW18502   3.719   2.695   9.687
 5949SOL    HW118503   3.761   2.631   9.751
 5949SOL    HW218504   3.681   2.644   9.609
 5950SOL     OW18505   2.350   3.247   9.484
 5950SOL    HW118506   2.263   3.232   9.531
 5950SOL    HW218507   2.333   3.273   9.389
 5951SOL     OW18508   3.526   3.142   9.967
 5951SOL    HW118509   3.625   3.150   9.981
 5951SOL    HW218510   3.481   3.226   9.998
 5952SOL     OW18511   3.252   2.437   9.388
 5952SOL    HW118512   3.198   2.416   9.469
 5952SOL    HW218513   3.343   2.396   9.397
 5953SOL     OW18514   2.389   2.118   9.638
 5953SOL    HW118515   2.416   2.059   9.563
 5953SOL    HW218516   2.389   2.213   9.607
 5954SOL     OW18517   3.616   3.085  10.898
 5954SOL    HW118518   3.707   3.046  10.885
 5954SOL    HW218519   3.624   3.181  10.922
 5955SOL     OW18520   2.926   3.209  10.650
 5955SOL    HW118521   2.846   3.186  10.705
 5955SOL    HW218522   3.009   3.183  10.699
 5956SOL     OW18523   3.454   3.491  10.935
 5956SOL    HW118524   3.481   3.525  10.845
 5956SOL    HW218525   3.533   3.453  10.981
 5957SOL     OW18526   2.973   3.057  10.410
 5957SOL    HW118527   2.933   3.101  10.491
 5957SOL    HW218528   2.932   3.094  10.327
 5958SOL     OW18529   3.500   2.961  10.389
 5958SOL    HW118530   3.505   3.042  10.448
 5958SOL    HW218531   3.414   2.963  10.338
 5959SOL     OW18532   2.777   1.951  10.712
 5959SOL    HW118533   2.802   1.931  10.617
 5959SOL    HW218534   2.849   2.007  10.754
 5960SOL     OW18535   2.842   2.978  11.029
 5960SOL    HW118536   2.743   2.984  11.039
 5960SOL    HW218537   2.865   2.898  10.973
 5961SOL     OW18538   2.567   2.912   9.678
 5961SOL    HW118539   2.553   2.919   9.777
 5961SOL    HW218540   2.651   2.861   9.660
 5962SOL     OW18541   2.272   2.675  10.561
 5962SOL    HW118542   2.358   2.687  10.611
 5962SOL    HW218543   2.230   2.588  10.588
 5963SOL     OW18544   3.136   2.248  10.572
 5963SOL    HW118545   3.157   2.322  10.636
 5963SOL    HW218546   3.047   2.265  10.529
 5964SOL     OW18547   1.926   3.426  10.641
 5964SOL    HW118548   1.880   3.508  10.607
 5964SOL    HW218549   2.024   3.445  10.650
 5965SOL     OW18550   2.229   2.962   9.811
 5965SOL    HW118551   2.222   3.045   9.755
 5965SOL    HW218552   2.233   2.882   9.751
 5966SOL     OW18553   2.428   2.399  10.175
 5966SOL    HW118554   2.440   2.465  10.101
 5966SOL    HW218555   2.474   2.433  10.258
 5967SOL     OW18556   3.114   3.210   9.698
 5967SOL    HW118557   3.164   3.287   9.738
 5967SOL    HW218558   3.019   3.212   9.730
 5968SOL     OW18559   3.134   3.307  10.452
 5968SOL    HW118560   3.181   3.320  10.539
 5968SOL    HW218561   3.068   3.233  10.461
 5969SOL     OW18562   3.444   2.501   9.782
 5969SOL    HW118563   3.413   2.562   9.855
 5969SOL    HW218564   3.494   2.553   9.713
 5970SOL     OW18565   2.216   3.372  10.639
 5970SOL    HW118566   2.195   3.328  10.552
 5970SOL    HW218567   2.313   3.398  10.642
 5971SOL     OW18568   2.264   2.613  10.908
 5971SOL    HW118569   2.332   2.668  10.861
 5971SOL    HW218570   2.304   2.525  10.935
 5972SOL     OW18571   3.449   2.641  10.980
 5972SOL    HW118572   3.357   2.679  10.975
 5972SOL    HW218573   3.509   2.688  10.915
 5973SOL     OW18574   2.875   1.967  11.080
 5973SOL    HW118575   2.881   2.052  11.028
 5973SOL    HW218576   2.907   1.891  11.023
 5974SOL     OW18577   2.366   1.912  11.050
 5974SOL    HW118578   2.324   1.855  10.980
 5974SOL    HW218579   2.300   1.981  11.082
 5975SOL     OW18580   2.435   2.732  10.339
 5975SOL    HW118581   2.479   2.821  10.330
 5975SOL    HW218582   2.372   2.732  10.416
 5976SOL     OW18583   3.222   2.724  10.355
 5976SOL    HW118584   3.147   2.724  10.289
 5976SOL    HW218585   3.259   2.632  10.364
 5977SOL     OW18586   3.071   2.387   9.585
 5977SOL    HW118587   3.084   2.303   9.639
 5977SOL    HW218588   3.042   2.461   9.645
 5978SOL     OW18589   1.899   3.172  10.592
 5978SOL    HW118590   1.952   3.123  10.660
 5978SOL    HW218591   1.921   3.270  10.597
 5979SOL     OW18592   2.594   2.496  10.374
 5979SOL    HW118593   2.653   2.470  10.298
 5979SOL    HW218594   2.566   2.592  10.363
 5980SOL     OW18595   3.590   2.797  11.164
 5980SOL    HW118596   3.544   2.790  11.075
 5980SOL    HW218597   3.528   2.841  11.230
 5981SOL     OW18598   3.484   2.229   9.684
 5981SOL    HW118599   3.486   2.153   9.748
 5981SOL    HW218600   3.436   2.306   9.724
 5982SOL     OW18601   2.885   2.628  10.276
 5982SOL    HW118602   2.900   2.649  10.372
 5982SOL    HW218603   2.855   2.533  10.267
 5983SOL     OW18604   2.842   3.435  11.010
 5983SOL    HW118605   2.822   3.479  10.922
 5983SOL    HW218606   2.881   3.344  10.994
 5984SOL     OW18607   3.721   3.380  10.915
 5984SOL    HW118608   3.735   3.407  10.820
 5984SOL    HW218609   3.804   3.402  10.968
 5985SOL     OW18610   2.212   2.760  11.114
 5985SOL    HW118611   2.288   2.804  11.162
 5985SOL    HW218612   2.247   2.713  11.032
 5986SOL     OW18613   3.402   2.136   9.435
 5986SOL    HW118614   3.341   2.061   9.458
 5986SOL    HW218615   3.424   2.188   9.518
 5987SOL     OW18616   3.165   2.700   9.352
 5987SOL    HW118617   3.199   2.607   9.367
 5987SOL    HW218618   3.183   2.727   9.257
 5988SOL     OW18619   2.930   3.195  10.159
 5988SOL    HW118620   2.937   3.111  10.104
 5988SOL    HW218621   2.992   3.264  10.123
 5989SOL     OW18622   2.181   2.672  10.259
 5989SOL    HW118623   2.274   2.708  10.264
 5989SOL    HW218624   2.175   2.587  10.311
 5990SOL     OW18625   3.000   2.242  10.988
 5990SOL    HW118626   2.955   2.305  11.052
 5990SOL    HW218627   3.093   2.273  10.971
 5991SOL     OW18628   3.022   2.069  10.787
 5991SOL    HW118629   3.022   2.133  10.864
 5991SOL    HW218630   3.050   2.117  10.704
 5992SOL     OW18631   1.870   3.188   9.510
 5992SOL    HW118632   1.777   3.209   9.479
 5992SOL    HW218633   1.880   3.089   9.523
 5993SOL     OW18634   1.950   3.663  10.237
 5993SOL    HW118635   1.908   3.577  10.210
 5993SOL    HW218636   2.044   3.666  10.203
 5994SOL     OW18637   2.366   3.430  10.220
 5994SOL    HW118638   2.432   3.504  10.229
 5994SOL    HW218639   2.410   3.351  10.178
 5995SOL     OW18640   2.864   2.658  10.548
 5995SOL    HW118641   2.905   2.626  10.634
 5995SOL    HW218642   2.768   2.631  10.545
 5996SOL     OW18643   3.231   2.812  10.970
 5996SOL    HW118644   3.270   2.901  10.990
 5996SOL    HW218645   3.241   2.792  10.873
 5997SOL     OW18646   2.677   2.434   9.635
 5997SOL    HW118647   2.684   2.345   9.589
 5997SOL    HW218648   2.583   2.468   9.627
 5998SOL     OW18649   3.519   2.466  10.516
 5998SOL    HW118650   3.481   2.397  10.578
 5998SOL    HW218651   3.601   2.430  10.472
 5999SOL     OW18652   2.114   3.426  11.054
 5999SOL    HW118653   2.084   3.483  11.130
 5999SOL    HW218654   2.107   3.329  11.080
 6000SOL     OW18655   2.533   2.326  10.579
 6000SOL    HW118656   2.499   2.237  10.549
 6000SOL    HW218657   2.559   2.380  10.499
 6001SOL     OW18658   2.792   3.540  10.775
 6001SOL    HW118659   2.768   3.522  10.680
 6001SOL    HW218660   2.822   3.634  10.785
 6002SOL     OW18661   2.335   2.362   9.501
 6002SOL    HW118662   2.396   2.442   9.505
 6002SOL    HW218663   2.240   2.393   9.508
 6003SOL     OW18664   2.021   2.999  10.776
 6003SOL    HW118665   2.043   2.938  10.852
 6003SOL    HW218666   2.031   2.950  10.690
 6004SOL     OW18667   3.209   2.921  10.544
 6004SOL    HW118668   3.233   2.858  10.470
 6004SOL    HW218669   3.119   2.961  10.526
 6005SOL     OW18670   3.164   2.717   9.619
 6005SOL    HW118671   3.078   2.686   9.661
 6005SOL    HW218672   3.160   2.703   9.520
 6006SOL     OW18673   3.621   3.609  10.464
 6006SOL    HW118674   3.682   3.639  10.391
 6006SOL    HW218675   3.583   3.520  10.442
 6007SOL     OW18676   3.114   3.593  10.438
 6007SOL    HW118677   3.198   3.598  10.384
 6007SOL    HW218678   3.091   3.497  10.456
 6008SOL     OW18679   1.945   3.120  10.332
 6008SOL    HW118680   1.940   3.119  10.432
 6008SOL    HW218681   1.862   3.079  10.294
 6009SOL     OW18682   2.550   3.524  11.026
 6009SOL    HW118683   2.494   3.605  11.035
 6009SOL    HW218684   2.602   3.528  10.940
 6010SOL     OW18685   3.588   1.997   9.833
 6010SOL    HW118686   3.661   1.980   9.766
 6010SOL    HW218687   3.557   1.910   9.871
 6011SOL     OW18688   3.250   3.435   9.787
 6011SOL    HW118689   3.317   3.447   9.713
 6011SOL    HW218690   3.210   3.524   9.810
 6012SOL     OW18691   1.992   3.656  11.161
 6012SOL    HW118692   1.951   3.582  11.214
 6012SOL    HW218693   2.056   3.707  11.219
 6013SOL     OW18694   3.142   2.789   9.982
 6013SOL    HW118695   3.202   2.708   9.984
 6013SOL    HW218696   3.182   2.858   9.922
 6014SOL     OW18697   2.692   3.135  10.732
 6014SOL    HW118698   2.687   3.168  10.827
 6014SOL    HW218699   2.606   3.154  10.686
 6015SOL     OW18700   2.534   3.478   9.464
 6015SOL    HW118701   2.543   3.488   9.365
 6015SOL    HW218702   2.494   3.389   9.485
 6016SOL     OW18703   3.512   3.582  10.704
 6016SOL    HW118704   3.565   3.592  10.620
 6016SOL    HW218705   3.485   3.672  10.738
 6017SOL     OW18706   3.703   2.037  10.273
 6017SOL    HW118707   3.742   1.952  10.237
 6017SOL    HW218708   3.605   2.039  10.254
 6018SOL     OW18709   3.056   3.474   9.341
 6018SOL    HW118710   3.062   3.381   9.378
 6018SOL    HW218711   2.997   3.474   9.261
 6019SOL     OW18712   2.684   2.864  10.682
 6019SOL    HW118713   2.724   2.863  10.590
 6019SOL    HW218714   2.694   2.956  10.722
 6020SOL     OW18715   2.778   2.772   9.601
 6020SOL    HW118716   2.841   2.810   9.533
 6020SOL    HW218717   2.818   2.689   9.640
 6021SOL     OW18718   3.366   3.469   9.354
 6021SOL    HW118719   3.274   3.506   9.361
 6021SOL    HW218720   3.404   3.489   9.264
 6022SOL     OW18721   2.234   3.150  10.800
 6022SOL    HW118722   2.221   3.243  10.766
 6022SOL    HW218723   2.150   3.098  10.787
 6023SOL     OW18724   3.476   3.154  10.599
 6023SOL    HW118725   3.536   3.157  10.679
 6023SOL    HW218726   3.401   3.218  10.612
 6024SOL     OW18727   2.901   2.960  10.006
 6024SOL    HW118728   2.831   2.913  10.060
 6024SOL    HW218729   2.960   2.892   9.963
 6025SOL     OW18730   2.876   2.098  10.281
 6025SOL    HW118731   2.868   2.062  10.188
 6025SOL    HW218732   2.874   2.022  10.346
 6026SOL     OW18733   2.452   3.349   9.801
 6026SOL    HW118734   2.494   3.291   9.731
 6026SOL    HW218735   2.408   3.428   9.757
 6027SOL     OW18736   3.571   2.247  10.691
 6027SOL    HW118737   3.644   2.316  10.695
 6027SOL    HW218738   3.599   2.172  10.632
 6028SOL     OW18739   2.117   3.210   9.600
 6028SOL    HW118740   2.021   3.211   9.573
 6028SOL    HW218741   2.129   3.263   9.684
 6029SOL     OW18742   1.967   2.875  11.036
 6029SOL    HW118743   1.890   2.842  11.090
 6029SOL    HW218744   2.052   2.845  11.078
 6030SOL     OW18745   2.534   2.065  10.799
 6030SOL    HW118746   2.624   2.049  10.759
 6030SOL    HW218747   2.542   2.070  10.898
 6031SOL     OW18748   3.302   2.718  10.708
 6031SOL    HW118749   3.245   2.770  10.645
 6031SOL    HW218750   3.398   2.730  10.684
 6032SOL     OW18751   3.045   3.197   9.429
 6032SOL    HW118752   2.946   3.186   9.431
 6032SOL    HW218753   3.079   3.212   9.522
 6033SOL     OW18754   2.475   2.704  10.741
 6033SOL    HW118755   2.531   2.785  10.724
 6033SOL    HW218756   2.534   2.624  10.744
 6034SOL     OW18757   3.355   3.629  10.269
 6034SOL    HW118758   3.388   3.693  10.200
 6034SOL    HW218759   3.421   3.623  10.344
 6035SOL     OW18760   2.578   2.427  11.018
 6035SOL    HW118761   2.597   2.492  11.092
 6035SOL    HW218762   2.638   2.347  11.027
 6036SOL     OW18763   3.312   3.082  10.943
 6036SOL    HW118764   3.303   3.072  11.042
 6036SOL    HW218765   3.408   3.075  10.917
 6037SOL     OW18766   2.252   3.603  10.870
 6037SOL    HW118767   2.161   3.644  10.868
 6037SOL    HW218768   2.245   3.509  10.902
 6038SOL     OW18769   3.536   2.745  10.564
 6038SOL    HW118770   3.509   2.656  10.527
 6038SOL    HW218771   3.537   2.813  10.491
 6039SOL     OW18772   3.087   2.187   9.759
 6039SOL    HW118773   3.152   2.113   9.748
 6039SOL    HW218774   3.107   2.237   9.843
 6040SOL     OW18775   2.456   2.607   9.962
 6040SOL    HW118776   2.506   2.692   9.943
 6040SOL    HW218777   2.368   2.609   9.914
 6041SOL     OW18778   3.639   2.204  10.952
 6041SOL    HW118779   3.622   2.235  10.858
 6041SOL    HW218780   3.555   2.167  10.990
 6042SOL     OW18781   3.592   2.796  10.827
 6042SOL    HW118782   3.630   2.887  10.842
 6042SOL    HW218783   3.584   2.779  10.728
 6043SOL     OW18784   2.721   3.236   9.326
 6043SOL    HW118785   2.675   3.251   9.414
 6043SOL    HW218786   2.765   3.321   9.296
 6044SOL     OW18787   2.523   3.652  10.263
 6044SOL    HW118788   2.477   3.740  10.250
 6044SOL    HW218789   2.622   3.664  10.256
 6045SOL     OW18790   2.721   2.818  10.171
 6045SOL    HW118791   2.775   2.749  10.219
 6045SOL    HW218792   2.689   2.887  10.237
 6046SOL     OW18793   2.945   2.846   9.397
 6046SOL    HW118794   2.922   2.899   9.315
 6046SOL    HW218795   3.026   2.790   9.378
 6047SOL     OW18796   3.723   3.431  10.161
 6047SOL    HW118797   3.652   3.419  10.091
 6047SOL    HW218798   3.724   3.352  10.221
 6048SOL     OW18799   2.083   3.176  11.154
 6048SOL    HW118800   2.018   3.103  11.133
 6048SOL    HW218801   2.087   3.190  11.252
 6049SOL     OW18802   1.941   3.102   9.963
 6049SOL    HW118803   1.940   3.055  10.051
 6049SOL    HW218804   2.023   3.074   9.912
 6050SOL     OW18805   2.534   3.253  10.934
 6050SOL    HW118806   2.456   3.203  10.972
 6050SOL    HW218807   2.531   3.348  10.965
 6051SOL     OW18808   3.686   2.054  10.537
 6051SOL    HW118809   3.682   1.964  10.581
 6051SOL    HW218810   3.689   2.043  10.438
 6052SOL     OW18811   2.290   2.286   9.830
 6052SOL    HW118812   2.320   2.214   9.768
 6052SOL    HW218813   2.251   2.246   9.913
 6053SOL     OW18814   3.567   3.349  10.414
 6053SOL    HW118815   3.474   3.324  10.387
 6053SOL    HW218816   3.593   3.299  10.496
 6054SOL     OW18817   2.179   2.409  10.590
 6054SOL    HW118818   2.217   2.350  10.662
 6054SOL    HW218819   2.219   2.383  10.502
 6055SOL     OW18820   2.674   3.448   9.997
 6055SOL    HW118821   2.706   3.458   9.903
 6055SOL    HW218822   2.595   3.386   9.999
 6056SOL     OW18823   3.286   2.076  10.422
 6056SOL    HW118824   3.338   2.011  10.477
 6056SOL    HW218825   3.237   2.139  10.483
 6057SOL     OW18826   2.863   1.896  10.464
 6057SOL    HW118827   2.800   1.824  10.433
 6057SOL    HW218828   2.956   1.860  10.464
 6058SOL     OW18829   2.632   3.192   9.611
 6058SOL    HW118830   2.586   3.105   9.628
 6058SOL    HW218831   2.723   3.189   9.652
 6059SOL     OW18832   2.480   3.429  10.594
 6059SOL    HW118833   2.475   3.511  10.651
 6059SOL    HW218834   2.569   3.426  10.549
 6060SOL     OW18835   3.214   1.914   9.478
 6060SOL    HW118836   3.249   1.873   9.394
 6060SOL    HW218837   3.124   1.876   9.498
 6061SOL     OW18838   3.162   2.315  10.001
 6061SOL    HW118839   3.103   2.395  10.005
 6061SOL    HW218840   3.177   2.280  10.094
 6062SOL     OW18841   3.455   2.083  10.192
 6062SOL    HW118842   3.371   2.082  10.246
 6062SOL    HW218843   3.457   2.166  10.136
 6063SOL     OW18844   1.901   2.939   9.610
 6063SOL    HW118845   2.000   2.928   9.601
 6063SOL    HW218846   1.861   2.853   9.642
 6064SOL     OW18847   2.737   3.508   9.647
 6064SOL    HW118848   2.660   3.473   9.593
 6064SOL    HW218849   2.705   3.579   9.709
 6065SOL     OW18850   2.092   2.490  11.285
 6065SOL    HW118851   1.999   2.488  11.322
 6065SOL    HW218852   2.093   2.451  11.193
 6066SOL     OW18853   2.431   3.137  12.337
 6066SOL    HW118854   2.338   3.130  12.300
 6066SOL    HW218855   2.442   3.226  12.381
 6067SOL     OW18856   3.417   3.373  11.875
 6067SOL    HW118857   3.360   3.357  11.956
 6067SOL    HW218858   3.358   3.383  11.795
 6068SOL     OW18859   2.997   2.565  11.889
 6068SOL    HW118860   3.054   2.643  11.864
 6068SOL    HW218861   2.937   2.591  11.965
 6069SOL     OW18862   3.617   2.469  11.403
 6069SOL    HW118863   3.605   2.456  11.304
 6069SOL    HW218864   3.587   2.388  11.452
 6070SOL     OW18865   2.630   3.006  12.195
 6070SOL    HW118866   2.552   3.023  12.255
 6070SOL    HW218867   2.664   3.093  12.159
 6071SOL     OW18868   2.712   2.660  12.995
 6071SOL    HW118869   2.708   2.736  13.060
 6071SOL    HW218870   2.734   2.696  12.904
 6072SOL     OW18871   2.547   2.874  11.837
 6072SOL    HW118872   2.616   2.858  11.907
 6072SOL    HW218873   2.474   2.931  11.875
 6073SOL     OW18874   2.548   3.023  12.975
 6073SOL    HW118875   2.608   3.102  12.989
 6073SOL    HW218876   2.462   3.054  12.934
 6074SOL     OW18877   2.197   3.297  12.233
 6074SOL    HW118878   2.119   3.266  12.180
 6074SOL    HW218879   2.255   3.355  12.176
 6075SOL     OW18880   3.322   3.367  12.511
 6075SOL    HW118881   3.346   3.461  12.537
 6075SOL    HW218882   3.306   3.313  12.593
 6076SOL     OW18883   2.300   2.254  12.671
 6076SOL    HW118884   2.382   2.198  12.680
 6076SOL    HW218885   2.219   2.196  12.675
 6077SOL     OW18886   3.465   2.309  11.909
 6077SOL    HW118887   3.391   2.355  11.859
 6077SOL    HW218888   3.516   2.377  11.962
 6078SOL     OW18889   2.093   3.575  11.655
 6078SOL    HW118890   2.127   3.652  11.709
 6078SOL    HW218891   2.137   3.575  11.565
 6079SOL     OW18892   2.989   3.203  12.862
 6079SOL    HW118893   3.036   3.203  12.950
 6079SOL    HW218894   2.941   3.116  12.851
 6080SOL     OW18895   2.092   3.296  11.710
 6080SOL    HW118896   2.066   3.392  11.710
 6080SOL    HW218897   2.021   3.242  11.755
 6081SOL     OW18898   2.102   2.953  12.058
 6081SOL    HW118899   2.116   2.869  12.110
 6081SOL    HW218900   2.047   3.017  12.113
 6082SOL     OW18901   2.482   3.648  12.611
 6082SOL    HW118902   2.390   3.631  12.646
 6082SOL    HW218903   2.510   3.740  12.637
 6083SOL     OW18904   2.468   2.826  11.295
 6083SOL    HW118905   2.475   2.910  11.241
 6083SOL    HW218906   2.514   2.839  11.383
 6084SOL     OW18907   3.456   1.976  12.652
 6084SOL    HW118908   3.438   2.043  12.580
 6084SOL    HW218909   3.453   2.022  12.741
 6085SOL     OW18910   1.984   2.505  11.735
 6085SOL    HW118911   1.939   2.417  11.752
 6085SOL    HW218912   1.983   2.559  11.819
 6086SOL     OW18913   3.704   3.629  11.531
 6086SOL    HW118914   3.758   3.600  11.611
 6086SOL    HW218915   3.734   3.719  11.502
 6087SOL     OW18916   1.889   3.458  11.289
 6087SOL    HW118917   1.870   3.362  11.310
 6087SOL    HW218918   1.856   3.516  11.364
 6088SOL     OW18919   3.551   2.784  11.784
 6088SOL    HW118920   3.646   2.755  11.792
 6088SOL    HW218921   3.543   2.849  11.709
 6089SOL     OW18922   3.503   2.970  11.604
 6089SOL    HW118923   3.589   2.972  11.552
 6089SOL    HW218924   3.517   3.017  11.692
 6090SOL     OW18925   1.975   2.599  12.769
 6090SOL    HW118926   2.063   2.586  12.814
 6090SOL    HW218927   1.962   2.696  12.747
 6091SOL     OW18928   2.475   3.227  11.898
 6091SOL    HW118929   2.426   3.140  11.907
 6091SOL    HW218930   2.452   3.270  11.811
 6092SOL     OW18931   3.155   3.090  12.595
 6092SOL    HW118932   3.192   3.017  12.537
 6092SOL    HW218933   3.207   3.095  12.680
 6093SOL     OW18934   2.671   1.866  11.674
 6093SOL    HW118935   2.711   1.957  11.665
 6093SOL    HW218936   2.571   1.874  11.680
 6094SOL     OW18937   2.059   2.838  12.436
 6094SOL    HW118938   2.148   2.793  12.422
 6094SOL    HW218939   1.986   2.773  12.417
 6095SOL     OW18940   3.387   2.861  11.362
 6095SOL    HW118941   3.324   2.785  11.375
 6095SOL    HW218942   3.435   2.879  11.448
 6096SOL     OW18943   3.049   3.654  12.788
 6096SOL    HW118944   3.073   3.714  12.712
 6096SOL    HW218945   3.056   3.559  12.758
 6097SOL     OW18946   3.328   3.279  12.125
 6097SOL    HW118947   3.269   3.285  12.205
 6097SOL    HW218948   3.313   3.191  12.079
 6098SOL     OW18949   3.529   3.576  11.744
 6098SOL    HW118950   3.488   3.553  11.656
 6098SOL    HW218951   3.511   3.502  11.809
 6099SOL     OW18952   2.460   2.591  11.442
 6099SOL    HW118953   2.484   2.660  11.374
 6099SOL    HW218954   2.382   2.624  11.496
 6100SOL     OW18955   3.143   2.207  12.116
 6100SOL    HW118956   3.057   2.157  12.103
 6100SOL    HW218957   3.205   2.153  12.172
 6101SOL     OW18958   3.438   3.524  11.479
 6101SOL    HW118959   3.527   3.570  11.482
 6101SOL    HW218960   3.417   3.500  11.384
 6102SOL     OW18961   2.669   2.467  12.637
 6102SOL    HW118962   2.622   2.464  12.726
 6102SOL    HW218963   2.618   2.412  12.571
 6103SOL     OW18964   3.256   2.331  12.846
 6103SOL    HW118965   3.236   2.374  12.934
 6103SOL    HW218966   3.334   2.269  12.855
 6104SOL     OW18967   2.835   2.752  12.744
 6104SOL    HW118968   2.881   2.668  12.715
 6104SOL    HW218969   2.779   2.786  12.669
 6105SOL     OW18970   2.853   2.272  12.414
 6105SOL    HW118971   2.776   2.306  12.468
 6105SOL    HW218972   2.819   2.221  12.335
 6106SOL     OW18973   2.903   2.563  11.601
 6106SOL    HW118974   2.929   2.559  11.697
 6106SOL    HW218975   2.818   2.512  11.587
 6107SOL     OW18976   1.938   2.673  11.961
 6107SOL    HW118977   2.037   2.661  11.970
 6107SOL    HW218978   1.914   2.768  11.982
 6108SOL     OW18979   1.992   3.683  12.743
 6108SOL    HW118980   1.982   3.668  12.842
 6108SOL    HW218981   1.906   3.719  12.707
 6109SOL     OW18982   2.727   2.210  11.367
 6109SOL    HW118983   2.786   2.273  11.318
 6109SOL    HW218984   2.746   2.116  11.338
 6110SOL     OW18985   3.581   2.447  13.003
 6110SOL    HW118986   3.555   2.536  12.967
 6110SOL    HW218987   3.579   2.379  12.930
 6111SOL     OW18988   3.224   3.006  11.717
 6111SOL    HW118989   3.307   2.977  11.669
 6111SOL    HW218990   3.175   3.073  11.661
 6112SOL     OW18991   2.412   2.058  12.057
 6112SOL    HW118992   2.407   2.053  12.157
 6112SOL    HW218993   2.414   2.154  12.028
 6113SOL     OW18994   2.870   3.318  11.649
 6113SOL    HW118995   2.824   3.390  11.597
 6113SOL    HW218996   2.866   3.338  11.747
 6114SOL     OW18997   2.213   3.663  12.025
 6114SOL    HW118998   2.263   3.577  12.031
 6114SOL    HW218999   2.278   3.740  12.022
 6115SOL     OW19000   3.657   2.928  12.045
 6115SOL    HW119001   3.595   2.913  11.969
 6115SOL    HW219002   3.605   2.939  12.130
 6116SOL     OW19003   3.089   3.412  12.678
 6116SOL    HW119004   3.095   3.335  12.742
 6116SOL    HW219005   3.037   3.386  12.598
 6117SOL     OW19006   2.183   2.805  11.414
 6117SOL    HW119007   2.265   2.844  11.372
 6117SOL    HW219008   2.156   2.723  11.365
 6118SOL     OW19009   3.320   2.597  11.900
 6118SOL    HW119010   3.315   2.532  11.975
 6118SOL    HW219011   3.400   2.656  11.913
 6119SOL     OW19012   2.323   3.128  12.899
 6119SOL    HW119013   2.273   3.129  12.813
 6119SOL    HW219014   2.260   3.110  12.975
 6120SOL     OW19015   2.973   3.638  11.409
 6120SOL    HW119016   2.913   3.576  11.459
 6120SOL    HW219017   3.004   3.594  11.324
 6121SOL     OW19018   3.494   3.239  11.253
 6121SOL    HW119019   3.462   3.333  11.243
 6121SOL    HW219020   3.418   3.176  11.241
 6122SOL     OW19021   2.326   3.605  11.495
 6122SOL    HW119022   2.359   3.644  11.581
 6122SOL    HW219023   2.402   3.598  11.430
 6123SOL     OW19024   3.262   1.969  11.598
 6123SOL    HW119025   3.238   1.932  11.508
 6123SOL    HW219026   3.361   1.985  11.602
 6124SOL     OW19027   2.111   3.647  12.413
 6124SOL    HW119028   2.168   3.582  12.463
 6124SOL    HW219029   2.095   3.614  12.320
 6125SOL     OW19030   2.802   3.560  12.076
 6125SOL    HW119031   2.882   3.503  12.097
 6125SOL    HW219032   2.753   3.520  11.999
 6126SOL     OW19033   2.244   2.562  11.652
 6126SOL    HW119034   2.289   2.472  11.649
 6126SOL    HW219035   2.150   2.551  11.685
 6127SOL     OW19036   3.409   2.084  12.901
 6127SOL    HW119037   3.404   2.121  12.993
 6127SOL    HW219038   3.337   2.015  12.889
 6128SOL     OW19039   2.476   1.984  11.289
 6128SOL    HW119040   2.574   1.962  11.296
 6128SOL    HW219041   2.445   1.967  11.196
 6129SOL     OW19042   2.643   2.126  12.921
 6129SOL    HW119043   2.710   2.065  12.964
 6129SOL    HW219044   2.570   2.145  12.986
 6130SOL     OW19045   2.750   3.376  12.367
 6130SOL    HW119046   2.727   3.351  12.273
 6130SOL    HW219047   2.811   3.307  12.406
 6131SOL     OW19048   3.213   2.452  12.605
 6131SOL    HW119049   3.241   2.409  12.690
 6131SOL    HW219050   3.238   2.548  12.606
 6132SOL     OW19051   2.665   3.264  12.096
 6132SOL    HW119052   2.755   3.278  12.054
 6132SOL    HW219053   2.594   3.266  12.025
 6133SOL     OW19054   2.784   2.365  12.071
 6133SOL    HW119055   2.759   2.356  11.975
 6133SOL    HW219056   2.832   2.283  12.102
 6134SOL     OW19057   2.401   1.926  11.684
 6134SOL    HW119058   2.320   1.927  11.742
 6134SOL    HW219059   2.404   2.009  11.629
 6135SOL     OW19060   3.296   3.050  11.213
 6135SOL    HW119061   3.328   2.974  11.270
 6135SOL    HW219062   3.204   3.077  11.243
 6136SOL     OW19063   2.797   2.098  11.652
 6136SOL    HW119064   2.749   2.139  11.574
 6136SOL    HW219065   2.896   2.096  11.633
 6137SOL     OW19066   2.938   2.545  12.636
 6137SOL    HW119067   2.858   2.484  12.639
 6137SOL    HW219068   3.019   2.492  12.612
 6138SOL     OW19069   3.089   3.432  11.965
 6138SOL    HW119070   3.110   3.506  11.900
 6138SOL    HW219071   3.157   3.432  12.038
 6139SOL     OW19072   2.321   3.014  11.913
 6139SOL    HW119073   2.250   2.987  11.978
 6139SOL    HW219074   2.295   2.986  11.820
 6140SOL     OW19075   3.133   3.659  11.763
 6140SOL    HW119076   3.177   3.723  11.699
 6140SOL    HW219077   3.083   3.711  11.833
 6141SOL     OW19078   2.894   2.411  11.188
 6141SOL    HW119079   2.853   2.493  11.149
 6141SOL    HW219080   2.958   2.437  11.261
 6142SOL     OW19081   1.940   2.418  12.558
 6142SOL    HW119082   2.032   2.417  12.517
 6142SOL    HW219083   1.934   2.492  12.625
 6143SOL     OW19084   2.423   2.084  12.319
 6143SOL    HW119085   2.461   2.000  12.356
 6143SOL    HW219086   2.335   2.103  12.363
 6144SOL     OW19087   2.728   2.316  11.814
 6144SOL    HW119088   2.696   2.388  11.752
 6144SOL    HW219089   2.752   2.235  11.761
 6145SOL     OW19090   2.879   1.901  11.925
 6145SOL    HW119091   2.807   1.906  11.856
 6145SOL    HW219092   2.855   1.832  11.994
 6146SOL     OW19093   3.291   3.035  12.039
 6146SOL    HW119094   3.236   2.951  12.032
 6146SOL    HW219095   3.317   3.064  11.947
 6147SOL     OW19096   3.328   2.452  12.164
 6147SOL    HW119097   3.298   2.357  12.171
 6147SOL    HW219098   3.401   2.468  12.230
 6148SOL     OW19099   3.719   2.695  11.549
 6148SOL    HW119100   3.761   2.631  11.613
 6148SOL    HW219101   3.681   2.644  11.471
 6149SOL     OW19102   2.350   3.247  11.346
 6149SOL    HW119103   2.263   3.232  11.393
 6149SOL    HW219104   2.333   3.273  11.251
 6150SOL     OW19105   3.526   3.142  11.829
 6150SOL    HW119106   3.625   3.150  11.843
 6150SOL    HW219107   3.481   3.226  11.860
 6151SOL     OW19108   3.252   2.437  11.250
 6151SOL    HW119109   3.198   2.416  11.331
 6151SOL    HW219110   3.343   2.396  11.259
 6152SOL     OW19111   2.389   2.118  11.500
 6152SOL    HW119112   2.416   2.059  11.425
 6152SOL    HW219113   2.389   2.213  11.469
 6153SOL     OW19114   3.616   3.085  12.760
 6153SOL    HW119115   3.707   3.046  12.747
 6153SOL    HW219116   3.624   3.181  12.784
 6154SOL     OW19117   2.926   3.209  12.512
 6154SOL    HW119118   2.846   3.186  12.567
 6154SOL    HW219119   3.009   3.183  12.561
 6155SOL     OW19120   3.454   3.491  12.797
 6155SOL    HW119121   3.481   3.525  12.707
 6155SOL    HW219122   3.533   3.453  12.843
 6156SOL     OW19123   2.973   3.057  12.272
 6156SOL    HW119124   2.933   3.101  12.353
 6156SOL    HW219125   2.932   3.094  12.189
 6157SOL     OW19126   3.500   2.961  12.251
 6157SOL    HW119127   3.505   3.042  12.310
 6157SOL    HW219128   3.414   2.963  12.200
 6158SOL     OW19129   2.777   1.951  12.574
 6158SOL    HW119130   2.802   1.931  12.479
 6158SOL    HW219131   2.849   2.007  12.616
 6159SOL     OW19132   2.842   2.978  12.891
 6159SOL    HW119133   2.743   2.984  12.901
 6159SOL    HW219134   2.865   2.898  12.835
 6160SOL     OW19135   2.567   2.912  11.540
 6160SOL    HW119136   2.553   2.919  11.639
 6160SOL    HW219137   2.651   2.861  11.522
 6161SOL     OW19138   2.272   2.675  12.423
 6161SOL    HW119139   2.358   2.687  12.473
 6161SOL    HW219140   2.230   2.588  12.450
 6162SOL     OW19141   3.136   2.248  12.434
 6162SOL    HW119142   3.157   2.322  12.498
 6162SOL    HW219143   3.047   2.265  12.391
 6163SOL     OW19144   1.926   3.426  12.503
 6163SOL    HW119145   1.880   3.508  12.469
 6163SOL    HW219146   2.024   3.445  12.512
 6164SOL     OW19147   2.229   2.962  11.673
 6164SOL    HW119148   2.222   3.045  11.617
 6164SOL    HW219149   2.233   2.882  11.613
 6165SOL     OW19150   2.428   2.399  12.037
 6165SOL    HW119151   2.440   2.465  11.963
 6165SOL    HW219152   2.474   2.433  12.120
 6166SOL     OW19153   3.114   3.210  11.560
 6166SOL    HW119154   3.164   3.287  11.600
 6166SOL    HW219155   3.019   3.212  11.592
 6167SOL     OW19156   3.134   3.307  12.314
 6167SOL    HW119157   3.181   3.320  12.401
 6167SOL    HW219158   3.068   3.233  12.323
 6168SOL     OW19159   3.444   2.501  11.644
 6168SOL    HW119160   3.413   2.562  11.717
 6168SOL    HW219161   3.494   2.553  11.575
 6169SOL     OW19162   2.216   3.372  12.501
 6169SOL    HW119163   2.195   3.328  12.414
 6169SOL    HW219164   2.313   3.398  12.504
 6170SOL     OW19165   2.264   2.613  12.770
 6170SOL    HW119166   2.332   2.668  12.723
 6170SOL    HW219167   2.304   2.525  12.797
 6171SOL     OW19168   3.449   2.641  12.842
 6171SOL    HW119169   3.357   2.679  12.837
 6171SOL    HW219170   3.509   2.688  12.777
 6172SOL     OW19171   2.875   1.967  12.942
 6172SOL    HW119172   2.881   2.052  12.890
 6172SOL    HW219173   2.907   1.891  12.885
 6173SOL     OW19174   2.366   1.912  12.912
 6173SOL    HW119175   2.324   1.855  12.842
 6173SOL    HW219176   2.300   1.981  12.944
 6174SOL     OW19177   2.435   2.732  12.201
 6174SOL    HW119178   2.479   2.821  12.192
 6174SOL    HW219179   2.372   2.732  12.278
 6175SOL     OW19180   3.222   2.724  12.217
 6175SOL    HW119181   3.147   2.724  12.151
 6175SOL    HW219182   3.259   2.632  12.226
 6176SOL     OW19183   3.071   2.387  11.447
 6176SOL    HW119184   3.084   2.303  11.501
 6176SOL    HW219185   3.042   2.461  11.507
 6177SOL     OW19186   1.899   3.172  12.454
 6177SOL    HW119187   1.952   3.123  12.522
 6177SOL    HW219188   1.921   3.270  12.459
 6178SOL     OW19189   2.594   2.496  12.236
 6178SOL    HW119190   2.653   2.470  12.160
 6178SOL    HW219191   2.566   2.592  12.225
 6179SOL     OW19192   3.590   2.797  13.026
 6179SOL    HW119193   3.544   2.790  12.937
 6179SOL    HW219194   3.528   2.841  13.092
 6180SOL     OW19195   3.484   2.229  11.546
 6180SOL    HW119196   3.486   2.153  11.610
 6180SOL    HW219197   3.436   2.306  11.586
 6181SOL     OW19198   2.885   2.628  12.138
 6181SOL    HW119199   2.900   2.649  12.234
 6181SOL    HW219200   2.855   2.533  12.129
 6182SOL     OW19201   2.842   3.435  12.872
 6182SOL    HW119202   2.822   3.479  12.784
 6182SOL    HW219203   2.881   3.344  12.856
 6183SOL     OW19204   3.721   3.380  12.777
 6183SOL    HW119205   3.735   3.407  12.682
 6183SOL    HW219206   3.804   3.402  12.830
 6184SOL     OW19207   2.212   2.760  12.976
 6184SOL    HW119208   2.288   2.804  13.024
 6184SOL    HW219209   2.247   2.713  12.894
 6185SOL     OW19210   3.402   2.136  11.297
 6185SOL    HW119211   3.341   2.061  11.320
 6185SOL    HW219212   3.424   2.188  11.380
 6186SOL     OW19213   3.165   2.700  11.214
 6186SOL    HW119214   3.199   2.607  11.229
 6186SOL    HW219215   3.183   2.727  11.119
 6187SOL     OW19216   2.930   3.195  12.021
 6187SOL    HW119217   2.937   3.111  11.966
 6187SOL    HW219218   2.992   3.264  11.985
 6188SOL     OW19219   2.181   2.672  12.121
 6188SOL    HW119220   2.274   2.708  12.126
 6188SOL    HW219221   2.175   2.587  12.173
 6189SOL     OW19222   3.000   2.242  12.850
 6189SOL    HW119223   2.955   2.305  12.914
 6189SOL    HW219224   3.093   2.273  12.833
 6190SOL     OW19225   3.022   2.069  12.649
 6190SOL    HW119226   3.022   2.133  12.726
 6190SOL    HW219227   3.050   2.117  12.566
 6191SOL     OW19228   1.870   3.188  11.372
 6191SOL    HW119229   1.777   3.209  11.341
 6191SOL    HW219230   1.880   3.089  11.385
 6192SOL     OW19231   1.950   3.663  12.099
 6192SOL    HW119232   1.908   3.577  12.072
 6192SOL    HW219233   2.044   3.666  12.065
 6193SOL     OW19234   2.366   3.430  12.082
 6193SOL    HW119235   2.432   3.504  12.091
 6193SOL    HW219236   2.410   3.351  12.040
 6194SOL     OW19237   2.864   2.658  12.410
 6194SOL    HW119238   2.905   2.626  12.496
 6194SOL    HW219239   2.768   2.631  12.407
 6195SOL     OW19240   3.231   2.812  12.832
 6195SOL    HW119241   3.270   2.901  12.852
 6195SOL    HW219242   3.241   2.792  12.735
 6196SOL     OW19243   2.677   2.434  11.497
 6196SOL    HW119244   2.684   2.345  11.451
 6196SOL    HW219245   2.583   2.468  11.489
 6197SOL     OW19246   3.519   2.466  12.378
 6197SOL    HW119247   3.481   2.397  12.440
 6197SOL    HW219248   3.601   2.430  12.334
 6198SOL     OW19249   2.114   3.426  12.916
 6198SOL    HW119250   2.084   3.483  12.992
 6198SOL    HW219251   2.107   3.329  12.942
 6199SOL     OW19252   2.533   2.326  12.441
 6199SOL    HW119253   2.499   2.237  12.411
 6199SOL    HW219254   2.559   2.380  12.361
 6200SOL     OW19255   2.792   3.540  12.637
 6200SOL    HW119256   2.768   3.522  12.542
 6200SOL    HW219257   2.822   3.634  12.647
 6201SOL     OW19258   2.335   2.362  11.363
 6201SOL    HW119259   2.396   2.442  11.367
 6201SOL    HW219260   2.240   2.393  11.370
 6202SOL     OW19261   2.021   2.999  12.638
 6202SOL    HW119262   2.043   2.938  12.714
 6202SOL    HW219263   2.031   2.950  12.552
 6203SOL     OW19264   3.209   2.921  12.406
 6203SOL    HW119265   3.233   2.858  12.332
 6203SOL    HW219266   3.119   2.961  12.388
 6204SOL     OW19267   3.164   2.717  11.481
 6204SOL    HW119268   3.078   2.686  11.523
 6204SOL    HW219269   3.160   2.703  11.382
 6205SOL     OW19270   3.621   3.609  12.326
 6205SOL    HW119271   3.682   3.639  12.253
 6205SOL    HW219272   3.583   3.520  12.304
 6206SOL     OW19273   3.114   3.593  12.300
 6206SOL    HW119274   3.198   3.598  12.246
 6206SOL    HW219275   3.091   3.497  12.318
 6207SOL     OW19276   1.945   3.120  12.194
 6207SOL    HW119277   1.940   3.119  12.294
 6207SOL    HW219278   1.862   3.079  12.156
 6208SOL     OW19279   2.550   3.524  12.888
 6208SOL    HW119280   2.494   3.605  12.897
 6208SOL    HW219281   2.602   3.528  12.802
 6209SOL     OW19282   3.588   1.997  11.695
 6209SOL    HW119283   3.661   1.980  11.628
 6209SOL    HW219284   3.557   1.910  11.733
 6210SOL     OW19285   3.250   3.435  11.649
 6210SOL    HW119286   3.317   3.447  11.575
 6210SOL    HW219287   3.210   3.524  11.672
 6211SOL     OW19288   1.992   3.656  13.023
 6211SOL    HW119289   1.951   3.582  13.076
 6211SOL    HW219290   2.056   3.707  13.081
 6212SOL     OW19291   3.142   2.789  11.844
 6212SOL    HW119292   3.202   2.708  11.846
 6212SOL    HW219293   3.182   2.858  11.784
 6213SOL     OW19294   2.692   3.135  12.594
 6213SOL    HW119295   2.687   3.168  12.689
 6213SOL    HW219296   2.606   3.154  12.548
 6214SOL     OW19297   2.534   3.478  11.326
 6214SOL    HW119298   2.543   3.488  11.227
 6214SOL    HW219299   2.494   3.389  11.347
 6215SOL     OW19300   3.512   3.582  12.566
 6215SOL    HW119301   3.565   3.592  12.482
 6215SOL    HW219302   3.485   3.672  12.600
 6216SOL     OW19303   3.703   2.037  12.135
 6216SOL    HW119304   3.742   1.952  12.099
 6216SOL    HW219305   3.605   2.039  12.116
 6217SOL     OW19306   3.056   3.474  11.203
 6217SOL    HW119307   3.062   3.381  11.240
 6217SOL    HW219308   2.997   3.474  11.123
 6218SOL     OW19309   2.684   2.864  12.544
 6218SOL    HW119310   2.724   2.863  12.452
 6218SOL    HW219311   2.694   2.956  12.584
 6219SOL     OW19312   2.778   2.772  11.463
 6219SOL    HW119313   2.841   2.810  11.395
 6219SOL    HW219314   2.818   2.689  11.502
 6220SOL     OW19315   3.366   3.469  11.216
 6220SOL    HW119316   3.274   3.506  11.223
 6220SOL    HW219317   3.404   3.489  11.126
 6221SOL     OW19318   2.234   3.150  12.662
 6221SOL    HW119319   2.221   3.243  12.628
 6221SOL    HW219320   2.150   3.098  12.649
 6222SOL     OW19321   3.476   3.154  12.461
 6222SOL    HW119322   3.536   3.157  12.541
 6222SOL    HW219323   3.401   3.218  12.474
 6223SOL     OW19324   2.901   2.960  11.868
 6223SOL    HW119325   2.831   2.913  11.922
 6223SOL    HW219326   2.960   2.892  11.825
 6224SOL     OW19327   2.876   2.098  12.143
 6224SOL    HW119328   2.868   2.062  12.050
 6224SOL    HW219329   2.874   2.022  12.208
 6225SOL     OW19330   2.452   3.349  11.663
 6225SOL    HW119331   2.494   3.291  11.593
 6225SOL    HW219332   2.408   3.428  11.619
 6226SOL     OW19333   3.571   2.247  12.553
 6226SOL    HW119334   3.644   2.316  12.557
 6226SOL    HW219335   3.599   2.172  12.494
 6227SOL     OW19336   2.117   3.210  11.462
 6227SOL    HW119337   2.021   3.211  11.435
 6227SOL    HW219338   2.129   3.263  11.546
 6228SOL     OW19339   1.967   2.875  12.898
 6228SOL    HW119340   1.890   2.842  12.952
 6228SOL    HW219341   2.052   2.845  12.940
 6229SOL     OW19342   2.534   2.065  12.661
 6229SOL    HW119343   2.624   2.049  12.621
 6229SOL    HW219344   2.542   2.070  12.760
 6230SOL     OW19345   3.302   2.718  12.570
 6230SOL    HW119346   3.245   2.770  12.507
 6230SOL    HW219347   3.398   2.730  12.546
 6231SOL     OW19348   3.045   3.197  11.291
 6231SOL    HW119349   2.946   3.186  11.293
 6231SOL    HW219350   3.079   3.212  11.384
 6232SOL     OW19351   2.475   2.704  12.603
 6232SOL    HW119352   2.531   2.785  12.586
 6232SOL    HW219353   2.534   2.624  12.606
 6233SOL     OW19354   3.355   3.629  12.131
 6233SOL    HW119355   3.388   3.693  12.062
 6233SOL    HW219356   3.421   3.623  12.206
 6234SOL     OW19357   2.578   2.427  12.880
 6234SOL    HW119358   2.597   2.492  12.954
 6234SOL    HW219359   2.638   2.347  12.889
 6235SOL     OW19360   3.312   3.082  12.805
 6235SOL    HW119361   3.303   3.072  12.904
 6235SOL    HW219362   3.408   3.075  12.779
 6236SOL     OW19363   2.252   3.603  12.732
 6236SOL    HW119364   2.161   3.644  12.730
 6236SOL    HW219365   2.245   3.509  12.764
 6237SOL     OW19366   3.536   2.745  12.426
 6237SOL    HW119367   3.509   2.656  12.389
 6237SOL    HW219368   3.537   2.813  12.353
 6238SOL     OW19369   3.087   2.187  11.621
 6238SOL    HW119370   3.152   2.113  11.610
 6238SOL    HW219371   3.107   2.237  11.705
 6239SOL     OW19372   2.456   2.607  11.824
 6239SOL    HW119373   2.506   2.692  11.805
 6239SOL    HW219374   2.368   2.609  11.776
 6240SOL     OW19375   3.639   2.204  12.814
 6240SOL    HW119376   3.622   2.235  12.720
 6240SOL    HW219377   3.555   2.167  12.852
 6241SOL     OW19378   3.592   2.796  12.689
 6241SOL    HW119379   3.630   2.887  12.704
 6241SOL    HW219380   3.584   2.779  12.590
 6242SOL     OW19381   2.721   3.236  11.188
 6242SOL    HW119382   2.675   3.251  11.276
 6242SOL    HW219383   2.765   3.321  11.158
 6243SOL     OW19384   2.523   3.652  12.125
 6243SOL    HW119385   2.477   3.740  12.112
 6243SOL    HW219386   2.622   3.664  12.118
 6244SOL     OW19387   2.721   2.818  12.033
 6244SOL    HW119388   2.775   2.749  12.081
 6244SOL    HW219389   2.689   2.887  12.099
 6245SOL     OW19390   2.945   2.846  11.259
 6245SOL    HW119391   2.922   2.899  11.177
 6245SOL    HW219392   3.026   2.790  11.240
 6246SOL     OW19393   3.723   3.431  12.023
 6246SOL    HW119394   3.652   3.419  11.953
 6246SOL    HW219395   3.724   3.352  12.083
 6247SOL     OW19396   2.083   3.176  13.016
 6247SOL    HW119397   2.018   3.103  12.995
 6247SOL    HW219398   2.087   3.190  13.114
 6248SOL     OW19399   1.941   3.102  11.825
 6248SOL    HW119400   1.940   3.055  11.913
 6248SOL    HW219401   2.023   3.074  11.774
 6249SOL     OW19402   2.534   3.253  12.796
 6249SOL    HW119403   2.456   3.203  12.834
 6249SOL    HW219404   2.531   3.348  12.827
 6250SOL     OW19405   3.686   2.054  12.399
 6250SOL    HW119406   3.682   1.964  12.443
 6250SOL    HW219407   3.689   2.043  12.300
 6251SOL     OW19408   2.290   2.286  11.692
 6251SOL    HW119409   2.320   2.214  11.630
 6251SOL    HW219410   2.251   2.246  11.775
 6252SOL     OW19411   3.567   3.349  12.276
 6252SOL    HW119412   3.474   3.324  12.249
 6252SOL    HW219413   3.593   3.299  12.358
 6253SOL     OW19414   2.179   2.409  12.452
 6253SOL    HW119415   2.217   2.350  12.524
 6253SOL    HW219416   2.219   2.383  12.364
 6254SOL     OW19417   2.674   3.448  11.859
 6254SOL    HW119418   2.706   3.458  11.765
 6254SOL    HW219419   2.595   3.386  11.861
 6255SOL     OW19420   3.286   2.076  12.284
 6255SOL    HW119421   3.338   2.011  12.339
 6255SOL    HW219422   3.237   2.139  12.345
 6256SOL     OW19423   2.863   1.896  12.326
 6256SOL    HW119424   2.800   1.824  12.295
 6256SOL    HW219425   2.956   1.860  12.326
 6257SOL     OW19426   2.632   3.192  11.473
 6257SOL    HW119427   2.586   3.105  11.490
 6257SOL    HW219428   2.723   3.189  11.514
 6258SOL     OW19429   2.480   3.429  12.456
 6258SOL    HW119430   2.475   3.511  12.513
 6258SOL    HW219431   2.569   3.426  12.411
 6259SOL     OW19432   3.214   1.914  11.340
 6259SOL    HW119433   3.249   1.873  11.256
 6259SOL    HW219434   3.124   1.876  11.360
 6260SOL     OW19435   3.162   2.315  11.863
 6260SOL    HW119436   3.103   2.395  11.867
 6260SOL    HW219437   3.177   2.280  11.956
 6261SOL     OW19438   3.455   2.083  12.054
 6261SOL    HW119439   3.371   2.082  12.108
 6261SOL    HW219440   3.457   2.166  11.998
 6262SOL     OW19441   1.901   2.939  11.472
 6262SOL    HW119442   2.000   2.928  11.463
 6262SOL    HW219443   1.861   2.853  11.504
 6263SOL     OW19444   2.737   3.508  11.509
 6263SOL    HW119445   2.660   3.473  11.455
 6263SOL    HW219446   2.705   3.579  11.571
 6264SOL     OW19447   2.092   2.490  13.147
 6264SOL    HW119448   1.999   2.488  13.184
 6264SOL    HW219449   2.093   2.451  13.055
 6265SOL     OW19450   3.417   3.373  13.737
 6265SOL    HW119451   3.360   3.357  13.818
 6265SOL    HW219452   3.358   3.383  13.657
 6266SOL     OW19453   2.997   2.565  13.751
 6266SOL    HW119454   3.054   2.643  13.726
 6266SOL    HW219455   2.937   2.591  13.827
 6267SOL     OW19456   3.617   2.469  13.265
 6267SOL    HW119457   3.605   2.456  13.166
 6267SOL    HW219458   3.587   2.388  13.314
 6268SOL     OW19459   2.547   2.874  13.699
 6268SOL    HW119460   2.616   2.858  13.769
 6268SOL    HW219461   2.474   2.931  13.737
 6269SOL     OW19462   3.465   2.309  13.771
 6269SOL    HW119463   3.391   2.355  13.721
 6269SOL    HW219464   3.516   2.377  13.824
 6270SOL     OW19465   2.093   3.575  13.517
 6270SOL    HW119466   2.127   3.652  13.571
 6270SOL    HW219467   2.137   3.575  13.427
 6271SOL     OW19468   2.092   3.296  13.572
 6271SOL    HW119469   2.066   3.392  13.572
 6271SOL    HW219470   2.021   3.242  13.617
 6272SOL     OW19471   2.102   2.953  13.920
 6272SOL    HW119472   2.116   2.869  13.972
 6272SOL    HW219473   2.047   3.017  13.975
 6273SOL     OW19474   2.468   2.826  13.157
 6273SOL    HW119475   2.475   2.910  13.103
 6273SOL    HW219476   2.514   2.839  13.245
 6274SOL     OW19477   1.984   2.505  13.597
 6274SOL    HW119478   1.939   2.417  13.614
 6274SOL    HW219479   1.983   2.559  13.681
 6275SOL     OW19480   3.704   3.629  13.393
 6275SOL    HW119481   3.758   3.600  13.473
 6275SOL    HW219482   3.734   3.719  13.364
 6276SOL     OW19483   1.889   3.458  13.151
 6276SOL    HW119484   1.870   3.362  13.172
 6276SOL    HW219485   1.856   3.516  13.226
 6277SOL     OW19486   3.551   2.784  13.646
 6277SOL    HW119487   3.646   2.755  13.654
 6277SOL    HW219488   3.543   2.849  13.571
 6278SOL     OW19489   3.503   2.970  13.466
 6278SOL    HW119490   3.589   2.972  13.414
 6278SOL    HW219491   3.517   3.017  13.554
 6279SOL     OW19492   2.475   3.227  13.760
 6279SOL    HW119493   2.426   3.140  13.769
 6279SOL    HW219494   2.452   3.270  13.673
 6280SOL     OW19495   2.671   1.866  13.536
 6280SOL    HW119496   2.711   1.957  13.527
 6280SOL    HW219497   2.571   1.874  13.542
 6281SOL     OW19498   3.387   2.861  13.224
 6281SOL    HW119499   3.324   2.785  13.237
 6281SOL    HW219500   3.435   2.879  13.310
 6282SOL     OW19501   3.529   3.576  13.606
 6282SOL    HW119502   3.488   3.553  13.518
 6282SOL    HW219503   3.511   3.502  13.671
 6283SOL     OW19504   2.460   2.591  13.304
 6283SOL    HW119505   2.484   2.660  13.236
 6283SOL    HW219506   2.382   2.624  13.358
 6284SOL     OW19507   3.143   2.207  13.978
 6284SOL    HW119508   3.057   2.157  13.965
 6284SOL    HW219509   3.205   2.153  14.034
 6285SOL     OW19510   3.438   3.524  13.341
 6285SOL    HW119511   3.527   3.570  13.344
 6285SOL    HW219512   3.417   3.500  13.246
 6286SOL     OW19513   2.903   2.563  13.463
 6286SOL    HW119514   2.929   2.559  13.559
 6286SOL    HW219515   2.818   2.512  13.449
 6287SOL     OW19516   1.938   2.673  13.823
 6287SOL    HW119517   2.037   2.661  13.832
 6287SOL    HW219518   1.914   2.768  13.844
 6288SOL     OW19519   2.727   2.210  13.229
 6288SOL    HW119520   2.786   2.273  13.180
 6288SOL    HW219521   2.746   2.116  13.200
 6289SOL     OW19522   3.224   3.006  13.579
 6289SOL    HW119523   3.307   2.977  13.531
 6289SOL    HW219524   3.175   3.073  13.523
 6290SOL     OW19525   2.870   3.318  13.511
 6290SOL    HW119526   2.824   3.390  13.459
 6290SOL    HW219527   2.866   3.338  13.609
 6291SOL     OW19528   2.213   3.663  13.887
 6291SOL    HW119529   2.263   3.577  13.893
 6291SOL    HW219530   2.278   3.740  13.884
 6292SOL     OW19531   3.657   2.928  13.907
 6292SOL    HW119532   3.595   2.913  13.831
 6292SOL    HW219533   3.605   2.939  13.992
 6293SOL     OW19534   2.183   2.805  13.276
 6293SOL    HW119535   2.265   2.844  13.234
 6293SOL    HW219536   2.156   2.723  13.227
 6294SOL     OW19537   3.320   2.597  13.762
 6294SOL    HW119538   3.315   2.532  13.837
 6294SOL    HW219539   3.400   2.656  13.775
 6295SOL     OW19540   2.973   3.638  13.271
 6295SOL    HW119541   2.913   3.576  13.321
 6295SOL    HW219542   3.004   3.594  13.186
 6296SOL     OW19543   3.494   3.239  13.115
 6296SOL    HW119544   3.462   3.333  13.105
 6296SOL    HW219545   3.418   3.176  13.103
 6297SOL     OW19546   2.326   3.605  13.357
 6297SOL    HW119547   2.359   3.644  13.443
 6297SOL    HW219548   2.402   3.598  13.292
 6298SOL     OW19549   3.262   1.969  13.460
 6298SOL    HW119550   3.238   1.932  13.370
 6298SOL    HW219551   3.361   1.985  13.464
 6299SOL     OW19552   2.802   3.560  13.938
 6299SOL    HW119553   2.882   3.503  13.959
 6299SOL    HW219554   2.753   3.520  13.861
 6300SOL     OW19555   2.244   2.562  13.514
 6300SOL    HW119556   2.289   2.472  13.511
 6300SOL    HW219557   2.150   2.551  13.547
 6301SOL     OW19558   2.476   1.984  13.151
 6301SOL    HW119559   2.574   1.962  13.158
 6301SOL    HW219560   2.445   1.967  13.058
 6302SOL     OW19561   2.401   1.926  13.546
 6302SOL    HW119562   2.320   1.927  13.604
 6302SOL    HW219563   2.404   2.009  13.491
 6303SOL     OW19564   3.296   3.050  13.075
 6303SOL    HW119565   3.328   2.974  13.132
 6303SOL    HW219566   3.204   3.077  13.105
 6304SOL     OW19567   2.797   2.098  13.514
 6304SOL    HW119568   2.749   2.139  13.436
 6304SOL    HW219569   2.896   2.096  13.495
 6305SOL     OW19570   2.321   3.014  13.775
 6305SOL    HW119571   2.250   2.987  13.840
 6305SOL    HW219572   2.295   2.986  13.682
 6306SOL     OW19573   3.133   3.659  13.625
 6306SOL    HW119574   3.177   3.723  13.561
 6306SOL    HW219575   3.083   3.711  13.695
 6307SOL     OW19576   2.894   2.411  13.050
 6307SOL    HW119577   2.853   2.493  13.011
 6307SOL    HW219578   2.958   2.437  13.123
 6308SOL     OW19579   2.728   2.316  13.676
 6308SOL    HW119580   2.696   2.388  13.614
 6308SOL    HW219581   2.752   2.235  13.623
 6309SOL     OW19582   2.879   1.901  13.787
 6309SOL    HW119583   2.807   1.906  13.718
 6309SOL    HW219584   2.855   1.832  13.856
 6310SOL     OW19585   3.719   2.695  13.411
 6310SOL    HW119586   3.761   2.631  13.475
 6310SOL    HW219587   3.681   2.644  13.333
 6311SOL     OW19588   2.350   3.247  13.208
 6311SOL    HW119589   2.263   3.232  13.255
 6311SOL    HW219590   2.333   3.273  13.113
 6312SOL     OW19591   3.526   3.142  13.691
 6312SOL    HW119592   3.625   3.150  13.705
 6312SOL    HW219593   3.481   3.226  13.722
 6313SOL     OW19594   3.252   2.437  13.112
 6313SOL    HW119595   3.198   2.416  13.193
 6313SOL    HW219596   3.343   2.396  13.121
 6314SOL     OW19597   2.389   2.118  13.362
 6314SOL    HW119598   2.416   2.059  13.287
 6314SOL    HW219599   2.389   2.213  13.331
 6315SOL     OW19600   2.567   2.912  13.402
 6315SOL    HW119601   2.553   2.919  13.501
 6315SOL    HW219602   2.651   2.861  13.384
 6316SOL     OW19603   2.229   2.962  13.535
 6316SOL    HW119604   2.222   3.045  13.479
 6316SOL    HW219605   2.233   2.882  13.475
 6317SOL     OW19606   2.428   2.399  13.899
 6317SOL    HW119607   2.440   2.465  13.825
 6317SOL    HW219608   2.474   2.433  13.982
 6318SOL     OW19609   3.114   3.210  13.422
 6318SOL    HW119610   3.164   3.287  13.462
 6318SOL    HW219611   3.019   3.212  13.454
 6319SOL     OW19612   3.444   2.501  13.506
 6319SOL    HW119613   3.413   2.562  13.579
 6319SOL    HW219614   3.494   2.553  13.437
 6320SOL     OW19615   3.071   2.387  13.309
 6320SOL    HW119616   3.084   2.303  13.363
 6320SOL    HW219617   3.042   2.461  13.369
 6321SOL     OW19618   3.484   2.229  13.408
 6321SOL    HW119619   3.486   2.153  13.472
 6321SOL    HW219620   3.436   2.306  13.448
 6322SOL     OW19621   3.402   2.136  13.159
 6322SOL    HW119622   3.341   2.061  13.182
 6322SOL    HW219623   3.424   2.188  13.242
 6323SOL     OW19624   3.165   2.700  13.076
 6323SOL    HW119625   3.199   2.607  13.091
 6323SOL    HW219626   3.183   2.727  12.981
 6324SOL     OW19627   1.870   3.188  13.234
 6324SOL    HW119628   1.777   3.209  13.203
 6324SOL    HW219629   1.880   3.089  13.247
 6325SOL     OW19630   2.677   2.434  13.359
 6325SOL    HW119631   2.684   2.345  13.313
 6325SOL    HW219632   2.583   2.468  13.351
 6326SOL     OW19633   2.335   2.362  13.225
 6326SOL    HW119634   2.396   2.442  13.229
 6326SOL    HW219635   2.240   2.393  13.232
 6327SOL     OW19636   3.164   2.717  13.343
 6327SOL    HW119637   3.078   2.686  13.385
 6327SOL    HW219638   3.160   2.703  13.244
 6328SOL     OW19639   3.588   1.997  13.557
 6328SOL    HW119640   3.661   1.980  13.490
 6328SOL    HW219641   3.557   1.910  13.595
 6329SOL     OW19642   3.250   3.435  13.511
 6329SOL    HW119643   3.317   3.447  13.437
 6329SOL    HW219644   3.210   3.524  13.534
 6330SOL     OW19645   3.142   2.789  13.706
 6330SOL    HW119646   3.202   2.708  13.708
 6330SOL    HW219647   3.182   2.858  13.646
 6331SOL     OW19648   2.534   3.478  13.188
 6331SOL    HW119649   2.543   3.488  13.089
 6331SOL    HW219650   2.494   3.389  13.209
 6332SOL     OW19651   3.703   2.037  13.997
 6332SOL    HW119652   3.742   1.952  13.961
 6332SOL    HW219653   3.605   2.039  13.978
 6333SOL     OW19654   3.056   3.474  13.065
 6333SOL    HW119655   3.062   3.381  13.102
 6333SOL    HW219656   2.997   3.474  12.985
 6334SOL     OW19657   2.778   2.772  13.325
 6334SOL    HW119658   2.841   2.810  13.257
 6334SOL    HW219659   2.818   2.689  13.364
 6335SOL     OW19660   3.366   3.469  13.078
 6335SOL    HW119661   3.274   3.506  13.085
 6335SOL    HW219662   3.404   3.489  12.988
 6336SOL     OW19663   2.901   2.960  13.730
 6336SOL    HW119664   2.831   2.913  13.784
 6336SOL    HW219665   2.960   2.892  13.687
 6337SOL     OW19666   2.452   3.349  13.525
 6337SOL    HW119667   2.494   3.291  13.455
 6337SOL    HW219668   2.408   3.428  13.481
 6338SOL     OW19669   2.117   3.210  13.324
 6338SOL    HW119670   2.021   3.211  13.297
 6338SOL    HW219671   2.129   3.263  13.408
 6339SOL     OW19672   3.045   3.197  13.153
 6339SOL    HW119673   2.946   3.186  13.155
 6339SOL    HW219674   3.079   3.212  13.246
 6340SOL     OW19675   3.087   2.187  13.483
 6340SOL    HW119676   3.152   2.113  13.472
 6340SOL    HW219677   3.107   2.237  13.567
 6341SOL     OW19678   2.456   2.607  13.686
 6341SOL    HW119679   2.506   2.692  13.667
 6341SOL    HW219680   2.368   2.609  13.638
 6342SOL     OW19681   2.721   3.236  13.050
 6342SOL    HW119682   2.675   3.251  13.138
 6342SOL    HW219683   2.765   3.321  13.020
 6343SOL     OW19684   2.523   3.652  13.987
 6343SOL    HW119685   2.477   3.740  13.974
 6343SOL    HW219686   2.622   3.664  13.980
 6344SOL     OW19687   2.721   2.818  13.895
 6344SOL    HW119688   2.775   2.749  13.943
 6344SOL    HW219689   2.689   2.887  13.961
 6345SOL     OW19690   2.945   2.846  13.121
 6345SOL    HW119691   2.922   2.899  13.039
 6345SOL    HW219692   3.026   2.790  13.102
 6346SOL     OW19693   1.941   3.102  13.687
 6346SOL    HW119694   1.940   3.055  13.775
 6346SOL    HW219695   2.023   3.074  13.636
 6347SOL     OW19696   2.290   2.286  13.554
 6347SOL    HW119697   2.320   2.214  13.492
 6347SOL    HW219698   2.251   2.246  13.637
 6348SOL     OW19699   3.567   3.349  14.138
 6348SOL    HW119700   3.474   3.324  14.111
 6348SOL    HW219701   3.593   3.299  14.220
 6349SOL     OW19702   2.674   3.448  13.721
 6349SOL    HW119703   2.706   3.458  13.627
 6349SOL    HW219704   2.595   3.386  13.723
 6350SOL     OW19705   2.632   3.192  13.335
 6350SOL    HW119706   2.586   3.105  13.352
 6350SOL    HW219707   2.723   3.189  13.376
 6351SOL     OW19708   3.214   1.914  13.202
 6351SOL    HW119709   3.249   1.873  13.118
 6351SOL    HW219710   3.124   1.876  13.222
 6352SOL     OW19711   3.162   2.315  13.725
 6352SOL    HW119712   3.103   2.395  13.729
 6352SOL    HW219713   3.177   2.280  13.818
 6353SOL     OW19714   1.901   2.939  13.334
 6353SOL    HW119715   2.000   2.928  13.325
 6353SOL    HW219716   1.861   2.853  13.366
 6354SOL     OW19717   2.737   3.508  13.371
 6354SOL    HW119718   2.660   3.473  13.317
 6354SOL    HW219719   2.705   3.579  13.433
 6355SOL     OW19720   2.087   3.999   0.996
 6355SOL    HW119721   2.122   3.982   1.088
 6355SOL    HW219722   1.999   3.954   0.984
 6356SOL     OW19723   1.881   4.092   0.647
 6356SOL    HW119724   1.799   4.135   0.686
 6356SOL    HW219725   1.853   4.019   0.584
 6357SOL     OW19726   3.617   4.331   0.231
 6357SOL    HW119727   3.605   4.318   0.132
 6357SOL    HW219728   3.587   4.250   0.280
 6358SOL     OW19729   2.300   4.116   1.499
 6358SOL    HW119730   2.382   4.060   1.508
 6358SOL    HW219731   2.219   4.058   1.503
 6359SOL     OW19732   3.456   3.838   1.480
 6359SOL    HW119733   3.438   3.905   1.408
 6359SOL    HW219734   3.453   3.884   1.569
 6360SOL     OW19735   2.671   3.728   0.502
 6360SOL    HW119736   2.711   3.819   0.493
 6360SOL    HW219737   2.571   3.736   0.508
 6361SOL     OW19738   3.143   4.069   0.944
 6361SOL    HW119739   3.057   4.019   0.931
 6361SOL    HW219740   3.205   4.015   1.000
 6362SOL     OW19741   2.412   3.920   0.885
 6362SOL    HW119742   2.407   3.915   0.985
 6362SOL    HW219743   2.414   4.016   0.856
 6363SOL     OW19744   2.064   4.009   1.498
 6363SOL    HW119745   1.984   4.069   1.485
 6363SOL    HW219746   2.054   3.960   1.584
 6364SOL     OW19747   3.262   3.831   0.426
 6364SOL    HW119748   3.238   3.794   0.336
 6364SOL    HW219749   3.361   3.847   0.430
 6365SOL     OW19750   3.409   3.946   1.729
 6365SOL    HW119751   3.404   3.983   1.821
 6365SOL    HW219752   3.337   3.877   1.717
 6366SOL     OW19753   2.643   3.988   1.749
 6366SOL    HW119754   2.710   3.927   1.792
 6366SOL    HW219755   2.570   4.007   1.814
 6367SOL     OW19756   2.401   3.788   0.512
 6367SOL    HW119757   2.320   3.789   0.570
 6367SOL    HW219758   2.404   3.871   0.457
 6368SOL     OW19759   2.159   3.759   0.171
 6368SOL    HW119760   2.208   3.843   0.150
 6368SOL    HW219761   2.221   3.694   0.216
 6369SOL     OW19762   2.423   3.946   1.147
 6369SOL    HW119763   2.461   3.862   1.184
 6369SOL    HW219764   2.335   3.965   1.191
 6370SOL     OW19765   2.879   3.763   0.753
 6370SOL    HW119766   2.807   3.768   0.684
 6370SOL    HW219767   2.855   3.694   0.822
 6371SOL     OW19768   2.777   3.813   1.402
 6371SOL    HW119769   2.802   3.793   1.307
 6371SOL    HW219770   2.849   3.869   1.444
 6372SOL     OW19771   3.136   4.110   1.262
 6372SOL    HW119772   3.157   4.184   1.326
 6372SOL    HW219773   3.047   4.127   1.219
 6373SOL     OW19774   2.366   3.774   1.740
 6373SOL    HW119775   2.324   3.717   1.670
 6373SOL    HW219776   2.300   3.843   1.772
 6374SOL     OW19777   2.169   3.937   1.231
 6374SOL    HW119778   2.146   3.974   1.321
 6374SOL    HW219779   2.139   3.842   1.225
 6375SOL     OW19780   3.402   3.998   0.125
 6375SOL    HW119781   3.341   3.923   0.148
 6375SOL    HW219782   3.424   4.050   0.208
 6376SOL     OW19783   3.022   3.931   1.477
 6376SOL    HW119784   3.022   3.995   1.554
 6376SOL    HW219785   3.050   3.979   1.394
 6377SOL     OW19786   2.765   3.810   0.133
 6377SOL    HW119787   2.816   3.811   0.047
 6377SOL    HW219788   2.821   3.768   0.204
 6378SOL     OW19789   3.588   3.859   0.523
 6378SOL    HW119790   3.661   3.842   0.456
 6378SOL    HW219791   3.557   3.772   0.561
 6379SOL     OW19792   3.703   3.899   0.963
 6379SOL    HW119793   3.742   3.814   0.927
 6379SOL    HW219794   3.605   3.901   0.944
 6380SOL     OW19795   2.534   3.927   1.489
 6380SOL    HW119796   2.624   3.911   1.449
 6380SOL    HW219797   2.542   3.932   1.588
 6381SOL     OW19798   1.934   3.890   0.318
 6381SOL    HW119799   1.917   3.973   0.264
 6381SOL    HW219800   2.024   3.853   0.296
 6382SOL     OW19801   3.087   4.049   0.449
 6382SOL    HW119802   3.152   3.975   0.438
 6382SOL    HW219803   3.107   4.099   0.533
 6383SOL     OW19804   3.639   4.066   1.642
 6383SOL    HW119805   3.622   4.097   1.548
 6383SOL    HW219806   3.555   4.029   1.680
 6384SOL     OW19807   3.686   3.916   1.227
 6384SOL    HW119808   3.682   3.826   1.271
 6384SOL    HW219809   3.689   3.905   1.128
 6385SOL     OW19810   3.286   3.938   1.112
 6385SOL    HW119811   3.338   3.873   1.167
 6385SOL    HW219812   3.237   4.001   1.173
 6386SOL     OW19813   2.863   3.758   1.154
 6386SOL    HW119814   2.800   3.686   1.123
 6386SOL    HW219815   2.956   3.722   1.154
 6387SOL     OW19816   3.214   3.776   0.168
 6387SOL    HW119817   3.249   3.735   0.084
 6387SOL    HW219818   3.124   3.738   0.188
 6388SOL     OW19819   3.162   4.177   0.691
 6388SOL    HW119820   3.103   4.257   0.695
 6388SOL    HW219821   3.177   4.142   0.784
 6389SOL     OW19822   3.455   3.945   0.882
 6389SOL    HW119823   3.371   3.944   0.936
 6389SOL    HW219824   3.457   4.028   0.826
 6390SOL     OW19825   2.087   3.999   2.858
 6390SOL    HW119826   2.122   3.982   2.950
 6390SOL    HW219827   1.999   3.954   2.846
 6391SOL     OW19828   1.881   4.092   2.509
 6391SOL    HW119829   1.799   4.135   2.548
 6391SOL    HW219830   1.853   4.019   2.446
 6392SOL     OW19831   3.617   4.331   2.093
 6392SOL    HW119832   3.605   4.318   1.994
 6392SOL    HW219833   3.587   4.250   2.142
 6393SOL     OW19834   2.300   4.116   3.361
 6393SOL    HW119835   2.382   4.060   3.370
 6393SOL    HW219836   2.219   4.058   3.365
 6394SOL     OW19837   3.456   3.838   3.342
 6394SOL    HW119838   3.438   3.905   3.270
 6394SOL    HW219839   3.453   3.884   3.431
 6395SOL     OW19840   2.671   3.728   2.364
 6395SOL    HW119841   2.711   3.819   2.355
 6395SOL    HW219842   2.571   3.736   2.370
 6396SOL     OW19843   3.143   4.069   2.806
 6396SOL    HW119844   3.057   4.019   2.793
 6396SOL    HW219845   3.205   4.015   2.862
 6397SOL     OW19846   2.412   3.920   2.747
 6397SOL    HW119847   2.407   3.915   2.847
 6397SOL    HW219848   2.414   4.016   2.718
 6398SOL     OW19849   2.064   4.009   3.360
 6398SOL    HW119850   1.984   4.069   3.347
 6398SOL    HW219851   2.054   3.960   3.446
 6399SOL     OW19852   3.262   3.831   2.288
 6399SOL    HW119853   3.238   3.794   2.198
 6399SOL    HW219854   3.361   3.847   2.292
 6400SOL     OW19855   3.409   3.946   3.591
 6400SOL    HW119856   3.404   3.983   3.683
 6400SOL    HW219857   3.337   3.877   3.579
 6401SOL     OW19858   2.476   3.846   1.979
 6401SOL    HW119859   2.574   3.824   1.986
 6401SOL    HW219860   2.445   3.829   1.886
 6402SOL     OW19861   2.643   3.988   3.611
 6402SOL    HW119862   2.710   3.927   3.654
 6402SOL    HW219863   2.570   4.007   3.676
 6403SOL     OW19864   2.401   3.788   2.374
 6403SOL    HW119865   2.320   3.789   2.432
 6403SOL    HW219866   2.404   3.871   2.319
 6404SOL     OW19867   2.159   3.759   2.033
 6404SOL    HW119868   2.208   3.843   2.012
 6404SOL    HW219869   2.221   3.694   2.078
 6405SOL     OW19870   2.423   3.946   3.009
 6405SOL    HW119871   2.461   3.862   3.046
 6405SOL    HW219872   2.335   3.965   3.053
 6406SOL     OW19873   2.879   3.763   2.615
 6406SOL    HW119874   2.807   3.768   2.546
 6406SOL    HW219875   2.855   3.694   2.684
 6407SOL     OW19876   2.777   3.813   3.264
 6407SOL    HW119877   2.802   3.793   3.169
 6407SOL    HW219878   2.849   3.869   3.306
 6408SOL     OW19879   3.136   4.110   3.124
 6408SOL    HW119880   3.157   4.184   3.188
 6408SOL    HW219881   3.047   4.127   3.081
 6409SOL     OW19882   2.366   3.774   3.602
 6409SOL    HW119883   2.324   3.717   3.532
 6409SOL    HW219884   2.300   3.843   3.634
 6410SOL     OW19885   2.169   3.937   3.093
 6410SOL    HW119886   2.146   3.974   3.183
 6410SOL    HW219887   2.139   3.842   3.087
 6411SOL     OW19888   3.402   3.998   1.987
 6411SOL    HW119889   3.341   3.923   2.010
 6411SOL    HW219890   3.424   4.050   2.070
 6412SOL     OW19891   3.022   3.931   3.339
 6412SOL    HW119892   3.022   3.995   3.416
 6412SOL    HW219893   3.050   3.979   3.256
 6413SOL     OW19894   2.765   3.810   1.995
 6413SOL    HW119895   2.816   3.811   1.909
 6413SOL    HW219896   2.821   3.768   2.066
 6414SOL     OW19897   3.588   3.859   2.385
 6414SOL    HW119898   3.661   3.842   2.318
 6414SOL    HW219899   3.557   3.772   2.423
 6415SOL     OW19900   3.703   3.899   2.825
 6415SOL    HW119901   3.742   3.814   2.789
 6415SOL    HW219902   3.605   3.901   2.806
 6416SOL     OW19903   2.534   3.927   3.351
 6416SOL    HW119904   2.624   3.911   3.311
 6416SOL    HW219905   2.542   3.932   3.450
 6417SOL     OW19906   1.937   4.069   1.895
 6417SOL    HW119907   1.845   4.041   1.866
 6417SOL    HW219908   1.968   4.146   1.839
 6418SOL     OW19909   1.934   3.890   2.180
 6418SOL    HW119910   1.917   3.973   2.126
 6418SOL    HW219911   2.024   3.853   2.158
 6419SOL     OW19912   3.087   4.049   2.311
 6419SOL    HW119913   3.152   3.975   2.300
 6419SOL    HW219914   3.107   4.099   2.395
 6420SOL     OW19915   3.639   4.066   3.504
 6420SOL    HW119916   3.622   4.097   3.410
 6420SOL    HW219917   3.555   4.029   3.542
 6421SOL     OW19918   3.686   3.916   3.089
 6421SOL    HW119919   3.682   3.826   3.133
 6421SOL    HW219920   3.689   3.905   2.990
 6422SOL     OW19921   3.286   3.938   2.974
 6422SOL    HW119922   3.338   3.873   3.029
 6422SOL    HW219923   3.237   4.001   3.035
 6423SOL     OW19924   2.863   3.758   3.016
 6423SOL    HW119925   2.800   3.686   2.985
 6423SOL    HW219926   2.956   3.722   3.016
 6424SOL     OW19927   3.214   3.776   2.030
 6424SOL    HW119928   3.249   3.735   1.946
 6424SOL    HW219929   3.124   3.738   2.050
 6425SOL     OW19930   3.162   4.177   2.553
 6425SOL    HW119931   3.103   4.257   2.557
 6425SOL    HW219932   3.177   4.142   2.646
 6426SOL     OW19933   3.455   3.945   2.744
 6426SOL    HW119934   3.371   3.944   2.798
 6426SOL    HW219935   3.457   4.028   2.688
 6427SOL     OW19936   2.087   3.999   4.720
 6427SOL    HW119937   2.122   3.982   4.812
 6427SOL    HW219938   1.999   3.954   4.708
 6428SOL     OW19939   1.881   4.092   4.371
 6428SOL    HW119940   1.799   4.135   4.410
 6428SOL    HW219941   1.853   4.019   4.308
 6429SOL     OW19942   3.617   4.331   3.955
 6429SOL    HW119943   3.605   4.318   3.856
 6429SOL    HW219944   3.587   4.250   4.004
 6430SOL     OW19945   2.300   4.116   5.223
 6430SOL    HW119946   2.382   4.060   5.232
 6430SOL    HW219947   2.219   4.058   5.227
 6431SOL     OW19948   3.456   3.838   5.204
 6431SOL    HW119949   3.438   3.905   5.132
 6431SOL    HW219950   3.453   3.884   5.293
 6432SOL     OW19951   2.671   3.728   4.226
 6432SOL    HW119952   2.711   3.819   4.217
 6432SOL    HW219953   2.571   3.736   4.232
 6433SOL     OW19954   3.143   4.069   4.668
 6433SOL    HW119955   3.057   4.019   4.655
 6433SOL    HW219956   3.205   4.015   4.724
 6434SOL     OW19957   2.412   3.920   4.609
 6434SOL    HW119958   2.407   3.915   4.709
 6434SOL    HW219959   2.414   4.016   4.580
 6435SOL     OW19960   2.064   4.009   5.222
 6435SOL    HW119961   1.984   4.069   5.209
 6435SOL    HW219962   2.054   3.960   5.308
 6436SOL     OW19963   3.262   3.831   4.150
 6436SOL    HW119964   3.238   3.794   4.060
 6436SOL    HW219965   3.361   3.847   4.154
 6437SOL     OW19966   3.409   3.946   5.453
 6437SOL    HW119967   3.404   3.983   5.545
 6437SOL    HW219968   3.337   3.877   5.441
 6438SOL     OW19969   2.476   3.846   3.841
 6438SOL    HW119970   2.574   3.824   3.848
 6438SOL    HW219971   2.445   3.829   3.748
 6439SOL     OW19972   2.643   3.988   5.473
 6439SOL    HW119973   2.710   3.927   5.516
 6439SOL    HW219974   2.570   4.007   5.538
 6440SOL     OW19975   2.401   3.788   4.236
 6440SOL    HW119976   2.320   3.789   4.294
 6440SOL    HW219977   2.404   3.871   4.181
 6441SOL     OW19978   2.159   3.759   3.895
 6441SOL    HW119979   2.208   3.843   3.874
 6441SOL    HW219980   2.221   3.694   3.940
 6442SOL     OW19981   2.423   3.946   4.871
 6442SOL    HW119982   2.461   3.862   4.908
 6442SOL    HW219983   2.335   3.965   4.915
 6443SOL     OW19984   2.879   3.763   4.477
 6443SOL    HW119985   2.807   3.768   4.408
 6443SOL    HW219986   2.855   3.694   4.546
 6444SOL     OW19987   2.777   3.813   5.126
 6444SOL    HW119988   2.802   3.793   5.031
 6444SOL    HW219989   2.849   3.869   5.168
 6445SOL     OW19990   3.136   4.110   4.986
 6445SOL    HW119991   3.157   4.184   5.050
 6445SOL    HW219992   3.047   4.127   4.943
 6446SOL     OW19993   2.366   3.774   5.464
 6446SOL    HW119994   2.324   3.717   5.394
 6446SOL    HW219995   2.300   3.843   5.496
 6447SOL     OW19996   2.169   3.937   4.955
 6447SOL    HW119997   2.146   3.974   5.045
 6447SOL    HW219998   2.139   3.842   4.949
 6448SOL     OW19999   3.402   3.998   3.849
 6448SOL    HW120000   3.341   3.923   3.872
 6448SOL    HW220001   3.424   4.050   3.932
 6449SOL     OW20002   3.022   3.931   5.201
 6449SOL    HW120003   3.022   3.995   5.278
 6449SOL    HW220004   3.050   3.979   5.118
 6450SOL     OW20005   2.765   3.810   3.857
 6450SOL    HW120006   2.816   3.811   3.771
 6450SOL    HW220007   2.821   3.768   3.928
 6451SOL     OW20008   3.588   3.859   4.247
 6451SOL    HW120009   3.661   3.842   4.180
 6451SOL    HW220010   3.557   3.772   4.285
 6452SOL     OW20011   3.703   3.899   4.687
 6452SOL    HW120012   3.742   3.814   4.651
 6452SOL    HW220013   3.605   3.901   4.668
 6453SOL     OW20014   2.534   3.927   5.213
 6453SOL    HW120015   2.624   3.911   5.173
 6453SOL    HW220016   2.542   3.932   5.312
 6454SOL     OW20017   1.937   4.069   3.757
 6454SOL    HW120018   1.845   4.041   3.728
 6454SOL    HW220019   1.968   4.146   3.701
 6455SOL     OW20020   1.934   3.890   4.042
 6455SOL    HW120021   1.917   3.973   3.988
 6455SOL    HW220022   2.024   3.853   4.020
 6456SOL     OW20023   3.087   4.049   4.173
 6456SOL    HW120024   3.152   3.975   4.162
 6456SOL    HW220025   3.107   4.099   4.257
 6457SOL     OW20026   3.639   4.066   5.366
 6457SOL    HW120027   3.622   4.097   5.272
 6457SOL    HW220028   3.555   4.029   5.404
 6458SOL     OW20029   3.686   3.916   4.951
 6458SOL    HW120030   3.682   3.826   4.995
 6458SOL    HW220031   3.689   3.905   4.852
 6459SOL     OW20032   3.286   3.938   4.836
 6459SOL    HW120033   3.338   3.873   4.891
 6459SOL    HW220034   3.237   4.001   4.897
 6460SOL     OW20035   2.863   3.758   4.878
 6460SOL    HW120036   2.800   3.686   4.847
 6460SOL    HW220037   2.956   3.722   4.878
 6461SOL     OW20038   3.214   3.776   3.892
 6461SOL    HW120039   3.249   3.735   3.808
 6461SOL    HW220040   3.124   3.738   3.912
 6462SOL     OW20041   3.162   4.177   4.415
 6462SOL    HW120042   3.103   4.257   4.419
 6462SOL    HW220043   3.177   4.142   4.508
 6463SOL     OW20044   3.455   3.945   4.606
 6463SOL    HW120045   3.371   3.944   4.660
 6463SOL    HW220046   3.457   4.028   4.550
 6464SOL     OW20047   2.087   3.999   6.582
 6464SOL    HW120048   2.122   3.982   6.674
 6464SOL    HW220049   1.999   3.954   6.570
 6465SOL     OW20050   1.881   4.092   6.233
 6465SOL    HW120051   1.799   4.135   6.272
 6465SOL    HW220052   1.853   4.019   6.170
 6466SOL     OW20053   3.617   4.331   5.817
 6466SOL    HW120054   3.605   4.318   5.718
 6466SOL    HW220055   3.587   4.250   5.866
 6467SOL     OW20056   2.300   4.116   7.085
 6467SOL    HW120057   2.382   4.060   7.094
 6467SOL    HW220058   2.219   4.058   7.089
 6468SOL     OW20059   3.456   3.838   7.066
 6468SOL    HW120060   3.438   3.905   6.994
 6468SOL    HW220061   3.453   3.884   7.155
 6469SOL     OW20062   2.671   3.728   6.088
 6469SOL    HW120063   2.711   3.819   6.079
 6469SOL    HW220064   2.571   3.736   6.094
 6470SOL     OW20065   3.143   4.069   6.530
 6470SOL    HW120066   3.057   4.019   6.517
 6470SOL    HW220067   3.205   4.015   6.586
 6471SOL     OW20068   2.412   3.920   6.471
 6471SOL    HW120069   2.407   3.915   6.571
 6471SOL    HW220070   2.414   4.016   6.442
 6472SOL     OW20071   2.064   4.009   7.084
 6472SOL    HW120072   1.984   4.069   7.071
 6472SOL    HW220073   2.054   3.960   7.170
 6473SOL     OW20074   3.262   3.831   6.012
 6473SOL    HW120075   3.238   3.794   5.922
 6473SOL    HW220076   3.361   3.847   6.016
 6474SOL     OW20077   3.409   3.946   7.315
 6474SOL    HW120078   3.404   3.983   7.407
 6474SOL    HW220079   3.337   3.877   7.303
 6475SOL     OW20080   2.476   3.846   5.703
 6475SOL    HW120081   2.574   3.824   5.710
 6475SOL    HW220082   2.445   3.829   5.610
 6476SOL     OW20083   2.643   3.988   7.335
 6476SOL    HW120084   2.710   3.927   7.378
 6476SOL    HW220085   2.570   4.007   7.400
 6477SOL     OW20086   2.401   3.788   6.098
 6477SOL    HW120087   2.320   3.789   6.156
 6477SOL    HW220088   2.404   3.871   6.043
 6478SOL     OW20089   2.159   3.759   5.757
 6478SOL    HW120090   2.208   3.843   5.736
 6478SOL    HW220091   2.221   3.694   5.802
 6479SOL     OW20092   2.423   3.946   6.733
 6479SOL    HW120093   2.461   3.862   6.770
 6479SOL    HW220094   2.335   3.965   6.777
 6480SOL     OW20095   2.879   3.763   6.339
 6480SOL    HW120096   2.807   3.768   6.270
 6480SOL    HW220097   2.855   3.694   6.408
 6481SOL     OW20098   2.777   3.813   6.988
 6481SOL    HW120099   2.802   3.793   6.893
 6481SOL    HW220100   2.849   3.869   7.030
 6482SOL     OW20101   3.136   4.110   6.848
 6482SOL    HW120102   3.157   4.184   6.912
 6482SOL    HW220103   3.047   4.127   6.805
 6483SOL     OW20104   2.366   3.774   7.326
 6483SOL    HW120105   2.324   3.717   7.256
 6483SOL    HW220106   2.300   3.843   7.358
 6484SOL     OW20107   2.169   3.937   6.817
 6484SOL    HW120108   2.146   3.974   6.907
 6484SOL    HW220109   2.139   3.842   6.811
 6485SOL     OW20110   3.402   3.998   5.711
 6485SOL    HW120111   3.341   3.923   5.734
 6485SOL    HW220112   3.424   4.050   5.794
 6486SOL     OW20113   3.022   3.931   7.063
 6486SOL    HW120114   3.022   3.995   7.140
 6486SOL    HW220115   3.050   3.979   6.980
 6487SOL     OW20116   2.765   3.810   5.719
 6487SOL    HW120117   2.816   3.811   5.633
 6487SOL    HW220118   2.821   3.768   5.790
 6488SOL     OW20119   3.588   3.859   6.109
 6488SOL    HW120120   3.661   3.842   6.042
 6488SOL    HW220121   3.557   3.772   6.147
 6489SOL     OW20122   3.703   3.899   6.549
 6489SOL    HW120123   3.742   3.814   6.513
 6489SOL    HW220124   3.605   3.901   6.530
 6490SOL     OW20125   2.534   3.927   7.075
 6490SOL    HW120126   2.624   3.911   7.035
 6490SOL    HW220127   2.542   3.932   7.174
 6491SOL     OW20128   1.937   4.069   5.619
 6491SOL    HW120129   1.845   4.041   5.590
 6491SOL    HW220130   1.968   4.146   5.563
 6492SOL     OW20131   1.934   3.890   5.904
 6492SOL    HW120132   1.917   3.973   5.850
 6492SOL    HW220133   2.024   3.853   5.882
 6493SOL     OW20134   3.087   4.049   6.035
 6493SOL    HW120135   3.152   3.975   6.024
 6493SOL    HW220136   3.107   4.099   6.119
 6494SOL     OW20137   3.639   4.066   7.228
 6494SOL    HW120138   3.622   4.097   7.134
 6494SOL    HW220139   3.555   4.029   7.266
 6495SOL     OW20140   3.686   3.916   6.813
 6495SOL    HW120141   3.682   3.826   6.857
 6495SOL    HW220142   3.689   3.905   6.714
 6496SOL     OW20143   3.286   3.938   6.698
 6496SOL    HW120144   3.338   3.873   6.753
 6496SOL    HW220145   3.237   4.001   6.759
 6497SOL     OW20146   2.863   3.758   6.740
 6497SOL    HW120147   2.800   3.686   6.709
 6497SOL    HW220148   2.956   3.722   6.740
 6498SOL     OW20149   3.214   3.776   5.754
 6498SOL    HW120150   3.249   3.735   5.670
 6498SOL    HW220151   3.124   3.738   5.774
 6499SOL     OW20152   3.162   4.177   6.277
 6499SOL    HW120153   3.103   4.257   6.281
 6499SOL    HW220154   3.177   4.142   6.370
 6500SOL     OW20155   3.455   3.945   6.468
 6500SOL    HW120156   3.371   3.944   6.522
 6500SOL    HW220157   3.457   4.028   6.412
 6501SOL     OW20158   2.087   3.999   8.444
 6501SOL    HW120159   2.122   3.982   8.536
 6501SOL    HW220160   1.999   3.954   8.432
 6502SOL     OW20161   1.881   4.092   8.095
 6502SOL    HW120162   1.799   4.135   8.134
 6502SOL    HW220163   1.853   4.019   8.032
 6503SOL     OW20164   3.617   4.331   7.679
 6503SOL    HW120165   3.605   4.318   7.580
 6503SOL    HW220166   3.587   4.250   7.728
 6504SOL     OW20167   2.300   4.116   8.947
 6504SOL    HW120168   2.382   4.060   8.956
 6504SOL    HW220169   2.219   4.058   8.951
 6505SOL     OW20170   3.456   3.838   8.928
 6505SOL    HW120171   3.438   3.905   8.856
 6505SOL    HW220172   3.453   3.884   9.017
 6506SOL     OW20173   2.671   3.728   7.950
 6506SOL    HW120174   2.711   3.819   7.941
 6506SOL    HW220175   2.571   3.736   7.956
 6507SOL     OW20176   3.143   4.069   8.392
 6507SOL    HW120177   3.057   4.019   8.379
 6507SOL    HW220178   3.205   4.015   8.448
 6508SOL     OW20179   2.412   3.920   8.333
 6508SOL    HW120180   2.407   3.915   8.433
 6508SOL    HW220181   2.414   4.016   8.304
 6509SOL     OW20182   2.064   4.009   8.946
 6509SOL    HW120183   1.984   4.069   8.933
 6509SOL    HW220184   2.054   3.960   9.032
 6510SOL     OW20185   3.262   3.831   7.874
 6510SOL    HW120186   3.238   3.794   7.784
 6510SOL    HW220187   3.361   3.847   7.878
 6511SOL     OW20188   3.409   3.946   9.177
 6511SOL    HW120189   3.404   3.983   9.269
 6511SOL    HW220190   3.337   3.877   9.165
 6512SOL     OW20191   2.476   3.846   7.565
 6512SOL    HW120192   2.574   3.824   7.572
 6512SOL    HW220193   2.445   3.829   7.472
 6513SOL     OW20194   2.643   3.988   9.197
 6513SOL    HW120195   2.710   3.927   9.240
 6513SOL    HW220196   2.570   4.007   9.262
 6514SOL     OW20197   2.401   3.788   7.960
 6514SOL    HW120198   2.320   3.789   8.018
 6514SOL    HW220199   2.404   3.871   7.905
 6515SOL     OW20200   2.159   3.759   7.619
 6515SOL    HW120201   2.208   3.843   7.598
 6515SOL    HW220202   2.221   3.694   7.664
 6516SOL     OW20203   2.423   3.946   8.595
 6516SOL    HW120204   2.461   3.862   8.632
 6516SOL    HW220205   2.335   3.965   8.639
 6517SOL     OW20206   2.879   3.763   8.201
 6517SOL    HW120207   2.807   3.768   8.132
 6517SOL    HW220208   2.855   3.694   8.270
 6518SOL     OW20209   2.777   3.813   8.850
 6518SOL    HW120210   2.802   3.793   8.755
 6518SOL    HW220211   2.849   3.869   8.892
 6519SOL     OW20212   3.136   4.110   8.710
 6519SOL    HW120213   3.157   4.184   8.774
 6519SOL    HW220214   3.047   4.127   8.667
 6520SOL     OW20215   2.366   3.774   9.188
 6520SOL    HW120216   2.324   3.717   9.118
 6520SOL    HW220217   2.300   3.843   9.220
 6521SOL     OW20218   2.169   3.937   8.679
 6521SOL    HW120219   2.146   3.974   8.769
 6521SOL    HW220220   2.139   3.842   8.673
 6522SOL     OW20221   3.402   3.998   7.573
 6522SOL    HW120222   3.341   3.923   7.596
 6522SOL    HW220223   3.424   4.050   7.656
 6523SOL     OW20224   3.022   3.931   8.925
 6523SOL    HW120225   3.022   3.995   9.002
 6523SOL    HW220226   3.050   3.979   8.842
 6524SOL     OW20227   2.765   3.810   7.581
 6524SOL    HW120228   2.816   3.811   7.495
 6524SOL    HW220229   2.821   3.768   7.652
 6525SOL     OW20230   3.588   3.859   7.971
 6525SOL    HW120231   3.661   3.842   7.904
 6525SOL    HW220232   3.557   3.772   8.009
 6526SOL     OW20233   3.703   3.899   8.411
 6526SOL    HW120234   3.742   3.814   8.375
 6526SOL    HW220235   3.605   3.901   8.392
 6527SOL     OW20236   2.534   3.927   8.937
 6527SOL    HW120237   2.624   3.911   8.897
 6527SOL    HW220238   2.542   3.932   9.036
 6528SOL     OW20239   1.937   4.069   7.481
 6528SOL    HW120240   1.845   4.041   7.452
 6528SOL    HW220241   1.968   4.146   7.425
 6529SOL     OW20242   1.934   3.890   7.766
 6529SOL    HW120243   1.917   3.973   7.712
 6529SOL    HW220244   2.024   3.853   7.744
 6530SOL     OW20245   3.087   4.049   7.897
 6530SOL    HW120246   3.152   3.975   7.886
 6530SOL    HW220247   3.107   4.099   7.981
 6531SOL     OW20248   3.639   4.066   9.090
 6531SOL    HW120249   3.622   4.097   8.996
 6531SOL    HW220250   3.555   4.029   9.128
 6532SOL     OW20251   3.686   3.916   8.675
 6532SOL    HW120252   3.682   3.826   8.719
 6532SOL    HW220253   3.689   3.905   8.576
 6533SOL     OW20254   3.286   3.938   8.560
 6533SOL    HW120255   3.338   3.873   8.615
 6533SOL    HW220256   3.237   4.001   8.621
 6534SOL     OW20257   2.863   3.758   8.602
 6534SOL    HW120258   2.800   3.686   8.571
 6534SOL    HW220259   2.956   3.722   8.602
 6535SOL     OW20260   3.214   3.776   7.616
 6535SOL    HW120261   3.249   3.735   7.532
 6535SOL    HW220262   3.124   3.738   7.636
 6536SOL     OW20263   3.162   4.177   8.139
 6536SOL    HW120264   3.103   4.257   8.143
 6536SOL    HW220265   3.177   4.142   8.232
 6537SOL     OW20266   3.455   3.945   8.330
 6537SOL    HW120267   3.371   3.944   8.384
 6537SOL    HW220268   3.457   4.028   8.274
 6538SOL     OW20269   2.087   3.999  10.306
 6538SOL    HW120270   2.122   3.982  10.398
 6538SOL    HW220271   1.999   3.954  10.294
 6539SOL     OW20272   1.881   4.092   9.957
 6539SOL    HW120273   1.799   4.135   9.996
 6539SOL    HW220274   1.853   4.019   9.894
 6540SOL     OW20275   3.617   4.331   9.541
 6540SOL    HW120276   3.605   4.318   9.442
 6540SOL    HW220277   3.587   4.250   9.590
 6541SOL     OW20278   2.300   4.116  10.809
 6541SOL    HW120279   2.382   4.060  10.818
 6541SOL    HW220280   2.219   4.058  10.813
 6542SOL     OW20281   3.456   3.838  10.790
 6542SOL    HW120282   3.438   3.905  10.718
 6542SOL    HW220283   3.453   3.884  10.879
 6543SOL     OW20284   2.671   3.728   9.812
 6543SOL    HW120285   2.711   3.819   9.803
 6543SOL    HW220286   2.571   3.736   9.818
 6544SOL     OW20287   3.143   4.069  10.254
 6544SOL    HW120288   3.057   4.019  10.241
 6544SOL    HW220289   3.205   4.015  10.310
 6545SOL     OW20290   2.412   3.920  10.195
 6545SOL    HW120291   2.407   3.915  10.295
 6545SOL    HW220292   2.414   4.016  10.166
 6546SOL     OW20293   2.064   4.009  10.808
 6546SOL    HW120294   1.984   4.069  10.795
 6546SOL    HW220295   2.054   3.960  10.894
 6547SOL     OW20296   3.262   3.831   9.736
 6547SOL    HW120297   3.238   3.794   9.646
 6547SOL    HW220298   3.361   3.847   9.740
 6548SOL     OW20299   3.409   3.946  11.039
 6548SOL    HW120300   3.404   3.983  11.131
 6548SOL    HW220301   3.337   3.877  11.027
 6549SOL     OW20302   2.476   3.846   9.427
 6549SOL    HW120303   2.574   3.824   9.434
 6549SOL    HW220304   2.445   3.829   9.334
 6550SOL     OW20305   2.643   3.988  11.059
 6550SOL    HW120306   2.710   3.927  11.102
 6550SOL    HW220307   2.570   4.007  11.124
 6551SOL     OW20308   2.401   3.788   9.822
 6551SOL    HW120309   2.320   3.789   9.880
 6551SOL    HW220310   2.404   3.871   9.767
 6552SOL     OW20311   2.159   3.759   9.481
 6552SOL    HW120312   2.208   3.843   9.460
 6552SOL    HW220313   2.221   3.694   9.526
 6553SOL     OW20314   2.423   3.946  10.457
 6553SOL    HW120315   2.461   3.862  10.494
 6553SOL    HW220316   2.335   3.965  10.501
 6554SOL     OW20317   2.879   3.763  10.063
 6554SOL    HW120318   2.807   3.768   9.994
 6554SOL    HW220319   2.855   3.694  10.132
 6555SOL     OW20320   2.777   3.813  10.712
 6555SOL    HW120321   2.802   3.793  10.617
 6555SOL    HW220322   2.849   3.869  10.754
 6556SOL     OW20323   3.136   4.110  10.572
 6556SOL    HW120324   3.157   4.184  10.636
 6556SOL    HW220325   3.047   4.127  10.529
 6557SOL     OW20326   2.366   3.774  11.050
 6557SOL    HW120327   2.324   3.717  10.980
 6557SOL    HW220328   2.300   3.843  11.082
 6558SOL     OW20329   2.169   3.937  10.541
 6558SOL    HW120330   2.146   3.974  10.631
 6558SOL    HW220331   2.139   3.842  10.535
 6559SOL     OW20332   3.402   3.998   9.435
 6559SOL    HW120333   3.341   3.923   9.458
 6559SOL    HW220334   3.424   4.050   9.518
 6560SOL     OW20335   3.022   3.931  10.787
 6560SOL    HW120336   3.022   3.995  10.864
 6560SOL    HW220337   3.050   3.979  10.704
 6561SOL     OW20338   2.765   3.810   9.443
 6561SOL    HW120339   2.816   3.811   9.357
 6561SOL    HW220340   2.821   3.768   9.514
 6562SOL     OW20341   3.588   3.859   9.833
 6562SOL    HW120342   3.661   3.842   9.766
 6562SOL    HW220343   3.557   3.772   9.871
 6563SOL     OW20344   3.703   3.899  10.273
 6563SOL    HW120345   3.742   3.814  10.237
 6563SOL    HW220346   3.605   3.901  10.254
 6564SOL     OW20347   2.534   3.927  10.799
 6564SOL    HW120348   2.624   3.911  10.759
 6564SOL    HW220349   2.542   3.932  10.898
 6565SOL     OW20350   1.937   4.069   9.343
 6565SOL    HW120351   1.845   4.041   9.314
 6565SOL    HW220352   1.968   4.146   9.287
 6566SOL     OW20353   1.934   3.890   9.628
 6566SOL    HW120354   1.917   3.973   9.574
 6566SOL    HW220355   2.024   3.853   9.606
 6567SOL     OW20356   3.087   4.049   9.759
 6567SOL    HW120357   3.152   3.975   9.748
 6567SOL    HW220358   3.107   4.099   9.843
 6568SOL     OW20359   3.639   4.066  10.952
 6568SOL    HW120360   3.622   4.097  10.858
 6568SOL    HW220361   3.555   4.029  10.990
 6569SOL     OW20362   3.686   3.916  10.537
 6569SOL    HW120363   3.682   3.826  10.581
 6569SOL    HW220364   3.689   3.905  10.438
 6570SOL     OW20365   3.286   3.938  10.422
 6570SOL    HW120366   3.338   3.873  10.477
 6570SOL    HW220367   3.237   4.001  10.483
 6571SOL     OW20368   2.863   3.758  10.464
 6571SOL    HW120369   2.800   3.686  10.433
 6571SOL    HW220370   2.956   3.722  10.464
 6572SOL     OW20371   3.214   3.776   9.478
 6572SOL    HW120372   3.249   3.735   9.394
 6572SOL    HW220373   3.124   3.738   9.498
 6573SOL     OW20374   3.162   4.177  10.001
 6573SOL    HW120375   3.103   4.257  10.005
 6573SOL    HW220376   3.177   4.142  10.094
 6574SOL     OW20377   3.455   3.945  10.192
 6574SOL    HW120378   3.371   3.944  10.246
 6574SOL    HW220379   3.457   4.028  10.136
 6575SOL     OW20380   2.087   3.999  12.168
 6575SOL    HW120381   2.122   3.982  12.260
 6575SOL    HW220382   1.999   3.954  12.156
 6576SOL     OW20383   1.881   4.092  11.819
 6576SOL    HW120384   1.799   4.135  11.858
 6576SOL    HW220385   1.853   4.019  11.756
 6577SOL     OW20386   3.617   4.331  11.403
 6577SOL    HW120387   3.605   4.318  11.304
 6577SOL    HW220388   3.587   4.250  11.452
 6578SOL     OW20389   2.300   4.116  12.671
 6578SOL    HW120390   2.382   4.060  12.680
 6578SOL    HW220391   2.219   4.058  12.675
 6579SOL     OW20392   3.456   3.838  12.652
 6579SOL    HW120393   3.438   3.905  12.580
 6579SOL    HW220394   3.453   3.884  12.741
 6580SOL     OW20395   2.671   3.728  11.674
 6580SOL    HW120396   2.711   3.819  11.665
 6580SOL    HW220397   2.571   3.736  11.680
 6581SOL     OW20398   3.143   4.069  12.116
 6581SOL    HW120399   3.057   4.019  12.103
 6581SOL    HW220400   3.205   4.015  12.172
 6582SOL     OW20401   2.412   3.920  12.057
 6582SOL    HW120402   2.407   3.915  12.157
 6582SOL    HW220403   2.414   4.016  12.028
 6583SOL     OW20404   2.064   4.009  12.670
 6583SOL    HW120405   1.984   4.069  12.657
 6583SOL    HW220406   2.054   3.960  12.756
 6584SOL     OW20407   3.262   3.831  11.598
 6584SOL    HW120408   3.238   3.794  11.508
 6584SOL    HW220409   3.361   3.847  11.602
 6585SOL     OW20410   3.409   3.946  12.901
 6585SOL    HW120411   3.404   3.983  12.993
 6585SOL    HW220412   3.337   3.877  12.889
 6586SOL     OW20413   2.476   3.846  11.289
 6586SOL    HW120414   2.574   3.824  11.296
 6586SOL    HW220415   2.445   3.829  11.196
 6587SOL     OW20416   2.643   3.988  12.921
 6587SOL    HW120417   2.710   3.927  12.964
 6587SOL    HW220418   2.570   4.007  12.986
 6588SOL     OW20419   2.401   3.788  11.684
 6588SOL    HW120420   2.320   3.789  11.742
 6588SOL    HW220421   2.404   3.871  11.629
 6589SOL     OW20422   2.159   3.759  11.343
 6589SOL    HW120423   2.208   3.843  11.322
 6589SOL    HW220424   2.221   3.694  11.388
 6590SOL     OW20425   2.423   3.946  12.319
 6590SOL    HW120426   2.461   3.862  12.356
 6590SOL    HW220427   2.335   3.965  12.363
 6591SOL     OW20428   2.879   3.763  11.925
 6591SOL    HW120429   2.807   3.768  11.856
 6591SOL    HW220430   2.855   3.694  11.994
 6592SOL     OW20431   2.777   3.813  12.574
 6592SOL    HW120432   2.802   3.793  12.479
 6592SOL    HW220433   2.849   3.869  12.616
 6593SOL     OW20434   3.136   4.110  12.434
 6593SOL    HW120435   3.157   4.184  12.498
 6593SOL    HW220436   3.047   4.127  12.391
 6594SOL     OW20437   2.366   3.774  12.912
 6594SOL    HW120438   2.324   3.717  12.842
 6594SOL    HW220439   2.300   3.843  12.944
 6595SOL     OW20440   2.169   3.937  12.403
 6595SOL    HW120441   2.146   3.974  12.493
 6595SOL    HW220442   2.139   3.842  12.397
 6596SOL     OW20443   3.402   3.998  11.297
 6596SOL    HW120444   3.341   3.923  11.320
 6596SOL    HW220445   3.424   4.050  11.380
 6597SOL     OW20446   3.022   3.931  12.649
 6597SOL    HW120447   3.022   3.995  12.726
 6597SOL    HW220448   3.050   3.979  12.566
 6598SOL     OW20449   2.765   3.810  11.305
 6598SOL    HW120450   2.816   3.811  11.219
 6598SOL    HW220451   2.821   3.768  11.376
 6599SOL     OW20452   3.588   3.859  11.695
 6599SOL    HW120453   3.661   3.842  11.628
 6599SOL    HW220454   3.557   3.772  11.733
 6600SOL     OW20455   3.703   3.899  12.135
 6600SOL    HW120456   3.742   3.814  12.099
 6600SOL    HW220457   3.605   3.901  12.116
 6601SOL     OW20458   2.534   3.927  12.661
 6601SOL    HW120459   2.624   3.911  12.621
 6601SOL    HW220460   2.542   3.932  12.760
 6602SOL     OW20461   1.937   4.069  11.205
 6602SOL    HW120462   1.845   4.041  11.176
 6602SOL    HW220463   1.968   4.146  11.149
 6603SOL     OW20464   1.934   3.890  11.490
 6603SOL    HW120465   1.917   3.973  11.436
 6603SOL    HW220466   2.024   3.853  11.468
 6604SOL     OW20467   3.087   4.049  11.621
 6604SOL    HW120468   3.152   3.975  11.610
 6604SOL    HW220469   3.107   4.099  11.705
 6605SOL     OW20470   3.639   4.066  12.814
 6605SOL    HW120471   3.622   4.097  12.720
 6605SOL    HW220472   3.555   4.029  12.852
 6606SOL     OW20473   3.686   3.916  12.399
 6606SOL    HW120474   3.682   3.826  12.443
 6606SOL    HW220475   3.689   3.905  12.300
 6607SOL     OW20476   3.286   3.938  12.284
 6607SOL    HW120477   3.338   3.873  12.339
 6607SOL    HW220478   3.237   4.001  12.345
 6608SOL     OW20479   2.863   3.758  12.326
 6608SOL    HW120480   2.800   3.686  12.295
 6608SOL    HW220481   2.956   3.722  12.326
 6609SOL     OW20482   3.214   3.776  11.340
 6609SOL    HW120483   3.249   3.735  11.256
 6609SOL    HW220484   3.124   3.738  11.360
 6610SOL     OW20485   3.162   4.177  11.863
 6610SOL    HW120486   3.103   4.257  11.867
 6610SOL    HW220487   3.177   4.142  11.956
 6611SOL     OW20488   3.455   3.945  12.054
 6611SOL    HW120489   3.371   3.944  12.108
 6611SOL    HW220490   3.457   4.028  11.998
 6612SOL     OW20491   1.881   4.092  13.681
 6612SOL    HW120492   1.799   4.135  13.720
 6612SOL    HW220493   1.853   4.019  13.618
 6613SOL     OW20494   3.617   4.331  13.265
 6613SOL    HW120495   3.605   4.318  13.166
 6613SOL    HW220496   3.587   4.250  13.314
 6614SOL     OW20497   3.465   4.171  13.771
 6614SOL    HW120498   3.391   4.217  13.721
 6614SOL    HW220499   3.516   4.239  13.824
 6615SOL     OW20500   2.671   3.728  13.536
 6615SOL    HW120501   2.711   3.819  13.527
 6615SOL    HW220502   2.571   3.736  13.542
 6616SOL     OW20503   3.262   3.831  13.460
 6616SOL    HW120504   3.238   3.794  13.370
 6616SOL    HW220505   3.361   3.847  13.464
 6617SOL     OW20506   2.476   3.846  13.151
 6617SOL    HW120507   2.574   3.824  13.158
 6617SOL    HW220508   2.445   3.829  13.058
 6618SOL     OW20509   2.401   3.788  13.546
 6618SOL    HW120510   2.320   3.789  13.604
 6618SOL    HW220511   2.404   3.871  13.491
 6619SOL     OW20512   2.159   3.759  13.205
 6619SOL    HW120513   2.208   3.843  13.184
 6619SOL    HW220514   2.221   3.694  13.250
 6620SOL     OW20515   2.879   3.763  13.787
 6620SOL    HW120516   2.807   3.768  13.718
 6620SOL    HW220517   2.855   3.694  13.856
 6621SOL     OW20518   3.402   3.998  13.159
 6621SOL    HW120519   3.341   3.923  13.182
 6621SOL    HW220520   3.424   4.050  13.242
 6622SOL     OW20521   2.765   3.810  13.167
 6622SOL    HW120522   2.816   3.811  13.081
 6622SOL    HW220523   2.821   3.768  13.238
 6623SOL     OW20524   3.588   3.859  13.557
 6623SOL    HW120525   3.661   3.842  13.490
 6623SOL    HW220526   3.557   3.772  13.595
 6624SOL     OW20527   3.703   3.899  13.997
 6624SOL    HW120528   3.742   3.814  13.961
 6624SOL    HW220529   3.605   3.901  13.978
 6625SOL     OW20530   1.937   4.069  13.067
 6625SOL    HW120531   1.845   4.041  13.038
 6625SOL    HW220532   1.968   4.146  13.011
 6626SOL     OW20533   1.934   3.890  13.352
 6626SOL    HW120534   1.917   3.973  13.298
 6626SOL    HW220535   2.024   3.853  13.330
 6627SOL     OW20536   3.087   4.049  13.483
 6627SOL    HW120537   3.152   3.975  13.472
 6627SOL    HW220538   3.107   4.099  13.567
 6628SOL     OW20539   3.214   3.776  13.202
 6628SOL    HW120540   3.249   3.735  13.118
 6628SOL    HW220541   3.124   3.738  13.222
 6629SOL     OW20542   3.162   4.177  13.725
 6629SOL    HW120543   3.103   4.257  13.729
 6629SOL    HW220544   3.177   4.142  13.818
 6630SOL     OW20545   3.954   0.628   0.113
 6630SOL    HW120546   3.861   0.626   0.150
 6630SOL    HW220547   3.955   0.589   0.021
 6631SOL     OW20548   3.949   0.275   0.996
 6631SOL    HW120549   3.984   0.258   1.088
 6631SOL    HW220550   3.861   0.230   0.984
 6632SOL     OW20551   3.743   0.368   0.647
 6632SOL    HW120552   3.661   0.411   0.686
 6632SOL    HW220553   3.715   0.295   0.584
 6633SOL     OW20554   4.059   1.435   1.061
 6633SOL    HW120555   3.981   1.404   1.008
 6633SOL    HW220556   4.117   1.493   1.004
 6634SOL     OW20557   3.955   1.713   0.483
 6634SOL    HW120558   3.989   1.790   0.537
 6634SOL    HW220559   3.999   1.713   0.393
 6635SOL     OW20560   3.954   1.434   0.538
 6635SOL    HW120561   3.928   1.530   0.538
 6635SOL    HW220562   3.883   1.380   0.583
 6636SOL     OW20563   3.846   0.643   0.563
 6636SOL    HW120564   3.801   0.555   0.580
 6636SOL    HW220565   3.845   0.697   0.647
 6637SOL     OW20566   3.751   1.596   0.117
 6637SOL    HW120567   3.732   1.500   0.138
 6637SOL    HW220568   3.718   1.654   0.192
 6638SOL     OW20569   3.837   0.737   1.597
 6638SOL    HW120570   3.925   0.724   1.642
 6638SOL    HW220571   3.824   0.834   1.575
 6639SOL     OW20572   3.800   0.811   0.789
 6639SOL    HW120573   3.899   0.799   0.798
 6639SOL    HW220574   3.776   0.906   0.810
 6640SOL     OW20575   3.854   1.821   1.571
 6640SOL    HW120576   3.844   1.806   1.670
 6640SOL    HW220577   3.768   1.857   1.535
 6641SOL     OW20578   3.926   0.285   1.498
 6641SOL    HW120579   3.846   0.345   1.485
 6641SOL    HW220580   3.916   0.236   1.584
 6642SOL     OW20581   3.802   0.556   1.386
 6642SOL    HW120582   3.894   0.555   1.345
 6642SOL    HW220583   3.796   0.630   1.453
 6643SOL     OW20584   3.788   1.564   1.331
 6643SOL    HW120585   3.742   1.646   1.297
 6643SOL    HW220586   3.886   1.583   1.340
 6644SOL     OW20587   4.091   1.100   0.501
 6644SOL    HW120588   4.084   1.183   0.445
 6644SOL    HW220589   4.095   1.020   0.441
 6645SOL     OW20590   4.031   0.213   1.231
 6645SOL    HW120591   4.008   0.250   1.321
 6645SOL    HW220592   4.001   0.118   1.225
 6646SOL     OW20593   3.761   1.310   1.282
 6646SOL    HW120594   3.814   1.261   1.350
 6646SOL    HW220595   3.783   1.408   1.287
 6647SOL     OW20596   3.732   1.326   0.200
 6647SOL    HW120597   3.639   1.347   0.169
 6647SOL    HW220598   3.742   1.227   0.213
 6648SOL     OW20599   3.812   1.801   0.927
 6648SOL    HW120600   3.770   1.715   0.900
 6648SOL    HW220601   3.906   1.804   0.893
 6649SOL     OW20602   4.228   1.568   0.910
 6649SOL    HW120603   4.294   1.642   0.919
 6649SOL    HW220604   4.272   1.489   0.868
 6650SOL     OW20605   3.764   0.544   1.114
 6650SOL    HW120606   3.849   0.511   1.073
 6650SOL    HW220607   3.777   0.559   1.212
 6651SOL     OW20608   3.913   0.520   1.722
 6651SOL    HW120609   3.972   0.480   1.652
 6651SOL    HW220610   3.855   0.591   1.681
 6652SOL     OW20611   3.976   1.564   1.744
 6652SOL    HW120612   3.946   1.621   1.820
 6652SOL    HW220613   3.969   1.467   1.770
 6653SOL     OW20614   3.883   1.137   1.466
 6653SOL    HW120615   3.905   1.076   1.542
 6653SOL    HW220616   3.893   1.088   1.380
 6654SOL     OW20617   3.807   1.258   1.022
 6654SOL    HW120618   3.802   1.257   1.122
 6654SOL    HW220619   3.724   1.217   0.984
 6655SOL     OW20620   3.854   1.794   1.851
 6655SOL    HW120621   3.813   1.720   1.904
 6655SOL    HW220622   3.918   1.845   1.909
 6656SOL     OW20623   3.799   0.345   0.033
 6656SOL    HW120624   3.707   0.317   0.004
 6656SOL    HW220625   3.830   0.422  -0.023
 6657SOL     OW20626   3.796   0.166   0.318
 6657SOL    HW120627   3.779   0.249   0.264
 6657SOL    HW220628   3.886   0.129   0.296
 6658SOL     OW20629   3.803   1.240   0.653
 6658SOL    HW120630   3.802   1.193   0.741
 6658SOL    HW220631   3.885   1.212   0.602
 6659SOL     OW20632   3.763   1.077   0.300
 6659SOL    HW120633   3.862   1.066   0.291
 6659SOL    HW220634   3.723   0.991   0.332
 6660SOL     OW20635   3.954   0.628   1.975
 6660SOL    HW120636   3.861   0.626   2.012
 6660SOL    HW220637   3.955   0.589   1.883
 6661SOL     OW20638   3.949   0.275   2.858
 6661SOL    HW120639   3.984   0.258   2.950
 6661SOL    HW220640   3.861   0.230   2.846
 6662SOL     OW20641   3.743   0.368   2.509
 6662SOL    HW120642   3.661   0.411   2.548
 6662SOL    HW220643   3.715   0.295   2.446
 6663SOL     OW20644   4.059   1.435   2.923
 6663SOL    HW120645   3.981   1.404   2.870
 6663SOL    HW220646   4.117   1.493   2.866
 6664SOL     OW20647   3.955   1.713   2.345
 6664SOL    HW120648   3.989   1.790   2.399
 6664SOL    HW220649   3.999   1.713   2.255
 6665SOL     OW20650   3.954   1.434   2.400
 6665SOL    HW120651   3.928   1.530   2.400
 6665SOL    HW220652   3.883   1.380   2.445
 6666SOL     OW20653   3.846   0.643   2.425
 6666SOL    HW120654   3.801   0.555   2.442
 6666SOL    HW220655   3.845   0.697   2.509
 6667SOL     OW20656   3.751   1.596   1.979
 6667SOL    HW120657   3.732   1.500   2.000
 6667SOL    HW220658   3.718   1.654   2.054
 6668SOL     OW20659   3.837   0.737   3.459
 6668SOL    HW120660   3.925   0.724   3.504
 6668SOL    HW220661   3.824   0.834   3.437
 6669SOL     OW20662   3.800   0.811   2.651
 6669SOL    HW120663   3.899   0.799   2.660
 6669SOL    HW220664   3.776   0.906   2.672
 6670SOL     OW20665   3.854   1.821   3.433
 6670SOL    HW120666   3.844   1.806   3.532
 6670SOL    HW220667   3.768   1.857   3.397
 6671SOL     OW20668   3.926   0.285   3.360
 6671SOL    HW120669   3.846   0.345   3.347
 6671SOL    HW220670   3.916   0.236   3.446
 6672SOL     OW20671   3.802   0.556   3.248
 6672SOL    HW120672   3.894   0.555   3.207
 6672SOL    HW220673   3.796   0.630   3.315
 6673SOL     OW20674   4.251   0.256   2.190
 6673SOL    HW120675   4.278   0.197   2.115
 6673SOL    HW220676   4.251   0.351   2.159
 6674SOL     OW20677   3.788   1.564   3.193
 6674SOL    HW120678   3.742   1.646   3.159
 6674SOL    HW220679   3.886   1.583   3.202
 6675SOL     OW20680   4.091   1.100   2.363
 6675SOL    HW120681   4.084   1.183   2.307
 6675SOL    HW220682   4.095   1.020   2.303
 6676SOL     OW20683   4.031   0.213   3.093
 6676SOL    HW120684   4.008   0.250   3.183
 6676SOL    HW220685   4.001   0.118   3.087
 6677SOL     OW20686   3.761   1.310   3.144
 6677SOL    HW120687   3.814   1.261   3.212
 6677SOL    HW220688   3.783   1.408   3.149
 6678SOL     OW20689   3.732   1.326   2.062
 6678SOL    HW120690   3.639   1.347   2.031
 6678SOL    HW220691   3.742   1.227   2.075
 6679SOL     OW20692   3.812   1.801   2.789
 6679SOL    HW120693   3.770   1.715   2.762
 6679SOL    HW220694   3.906   1.804   2.755
 6680SOL     OW20695   4.228   1.568   2.772
 6680SOL    HW120696   4.294   1.642   2.781
 6680SOL    HW220697   4.272   1.489   2.730
 6681SOL     OW20698   3.764   0.544   2.976
 6681SOL    HW120699   3.849   0.511   2.935
 6681SOL    HW220700   3.777   0.559   3.074
 6682SOL     OW20701   3.913   0.520   3.584
 6682SOL    HW120702   3.972   0.480   3.514
 6682SOL    HW220703   3.855   0.591   3.543
 6683SOL     OW20704   3.976   1.564   3.606
 6683SOL    HW120705   3.946   1.621   3.682
 6683SOL    HW220706   3.969   1.467   3.632
 6684SOL     OW20707   3.883   1.137   3.328
 6684SOL    HW120708   3.905   1.076   3.404
 6684SOL    HW220709   3.893   1.088   3.242
 6685SOL     OW20710   3.807   1.258   2.884
 6685SOL    HW120711   3.802   1.257   2.984
 6685SOL    HW220712   3.724   1.217   2.846
 6686SOL     OW20713   3.854   1.794   3.713
 6686SOL    HW120714   3.813   1.720   3.766
 6686SOL    HW220715   3.918   1.845   3.771
 6687SOL     OW20716   3.799   0.345   1.895
 6687SOL    HW120717   3.707   0.317   1.866
 6687SOL    HW220718   3.830   0.422   1.839
 6688SOL     OW20719   3.796   0.166   2.180
 6688SOL    HW120720   3.779   0.249   2.126
 6688SOL    HW220721   3.886   0.129   2.158
 6689SOL     OW20722   3.803   1.240   2.515
 6689SOL    HW120723   3.802   1.193   2.603
 6689SOL    HW220724   3.885   1.212   2.464
 6690SOL     OW20725   3.763   1.077   2.162
 6690SOL    HW120726   3.862   1.066   2.153
 6690SOL    HW220727   3.723   0.991   2.194
 6691SOL     OW20728   3.954   0.628   3.837
 6691SOL    HW120729   3.861   0.626   3.874
 6691SOL    HW220730   3.955   0.589   3.745
 6692SOL     OW20731   3.949   0.275   4.720
 6692SOL    HW120732   3.984   0.258   4.812
 6692SOL    HW220733   3.861   0.230   4.708
 6693SOL     OW20734   3.743   0.368   4.371
 6693SOL    HW120735   3.661   0.411   4.410
 6693SOL    HW220736   3.715   0.295   4.308
 6694SOL     OW20737   4.059   1.435   4.785
 6694SOL    HW120738   3.981   1.404   4.732
 6694SOL    HW220739   4.117   1.493   4.728
 6695SOL     OW20740   3.955   1.713   4.207
 6695SOL    HW120741   3.989   1.790   4.261
 6695SOL    HW220742   3.999   1.713   4.117
 6696SOL     OW20743   3.954   1.434   4.262
 6696SOL    HW120744   3.928   1.530   4.262
 6696SOL    HW220745   3.883   1.380   4.307
 6697SOL     OW20746   3.846   0.643   4.287
 6697SOL    HW120747   3.801   0.555   4.304
 6697SOL    HW220748   3.845   0.697   4.371
 6698SOL     OW20749   3.751   1.596   3.841
 6698SOL    HW120750   3.732   1.500   3.862
 6698SOL    HW220751   3.718   1.654   3.916
 6699SOL     OW20752   3.837   0.737   5.321
 6699SOL    HW120753   3.925   0.724   5.366
 6699SOL    HW220754   3.824   0.834   5.299
 6700SOL     OW20755   3.800   0.811   4.513
 6700SOL    HW120756   3.899   0.799   4.522
 6700SOL    HW220757   3.776   0.906   4.534
 6701SOL     OW20758   3.854   1.821   5.295
 6701SOL    HW120759   3.844   1.806   5.394
 6701SOL    HW220760   3.768   1.857   5.259
 6702SOL     OW20761   3.926   0.285   5.222
 6702SOL    HW120762   3.846   0.345   5.209
 6702SOL    HW220763   3.916   0.236   5.308
 6703SOL     OW20764   3.802   0.556   5.110
 6703SOL    HW120765   3.894   0.555   5.069
 6703SOL    HW220766   3.796   0.630   5.177
 6704SOL     OW20767   4.251   0.256   4.052
 6704SOL    HW120768   4.278   0.197   3.977
 6704SOL    HW220769   4.251   0.351   4.021
 6705SOL     OW20770   3.788   1.564   5.055
 6705SOL    HW120771   3.742   1.646   5.021
 6705SOL    HW220772   3.886   1.583   5.064
 6706SOL     OW20773   4.091   1.100   4.225
 6706SOL    HW120774   4.084   1.183   4.169
 6706SOL    HW220775   4.095   1.020   4.165
 6707SOL     OW20776   4.031   0.213   4.955
 6707SOL    HW120777   4.008   0.250   5.045
 6707SOL    HW220778   4.001   0.118   4.949
 6708SOL     OW20779   3.761   1.310   5.006
 6708SOL    HW120780   3.814   1.261   5.074
 6708SOL    HW220781   3.783   1.408   5.011
 6709SOL     OW20782   3.732   1.326   3.924
 6709SOL    HW120783   3.639   1.347   3.893
 6709SOL    HW220784   3.742   1.227   3.937
 6710SOL     OW20785   3.812   1.801   4.651
 6710SOL    HW120786   3.770   1.715   4.624
 6710SOL    HW220787   3.906   1.804   4.617
 6711SOL     OW20788   4.228   1.568   4.634
 6711SOL    HW120789   4.294   1.642   4.643
 6711SOL    HW220790   4.272   1.489   4.592
 6712SOL     OW20791   3.764   0.544   4.838
 6712SOL    HW120792   3.849   0.511   4.797
 6712SOL    HW220793   3.777   0.559   4.936
 6713SOL     OW20794   3.913   0.520   5.446
 6713SOL    HW120795   3.972   0.480   5.376
 6713SOL    HW220796   3.855   0.591   5.405
 6714SOL     OW20797   3.976   1.564   5.468
 6714SOL    HW120798   3.946   1.621   5.544
 6714SOL    HW220799   3.969   1.467   5.494
 6715SOL     OW20800   3.883   1.137   5.190
 6715SOL    HW120801   3.905   1.076   5.266
 6715SOL    HW220802   3.893   1.088   5.104
 6716SOL     OW20803   3.807   1.258   4.746
 6716SOL    HW120804   3.802   1.257   4.846
 6716SOL    HW220805   3.724   1.217   4.708
 6717SOL     OW20806   3.854   1.794   5.575
 6717SOL    HW120807   3.813   1.720   5.628
 6717SOL    HW220808   3.918   1.845   5.633
 6718SOL     OW20809   3.799   0.345   3.757
 6718SOL    HW120810   3.707   0.317   3.728
 6718SOL    HW220811   3.830   0.422   3.701
 6719SOL     OW20812   3.796   0.166   4.042
 6719SOL    HW120813   3.779   0.249   3.988
 6719SOL    HW220814   3.886   0.129   4.020
 6720SOL     OW20815   3.803   1.240   4.377
 6720SOL    HW120816   3.802   1.193   4.465
 6720SOL    HW220817   3.885   1.212   4.326
 6721SOL     OW20818   3.763   1.077   4.024
 6721SOL    HW120819   3.862   1.066   4.015
 6721SOL    HW220820   3.723   0.991   4.056
 6722SOL     OW20821   3.954   0.628   5.699
 6722SOL    HW120822   3.861   0.626   5.736
 6722SOL    HW220823   3.955   0.589   5.607
 6723SOL     OW20824   3.949   0.275   6.582
 6723SOL    HW120825   3.984   0.258   6.674
 6723SOL    HW220826   3.861   0.230   6.570
 6724SOL     OW20827   3.743   0.368   6.233
 6724SOL    HW120828   3.661   0.411   6.272
 6724SOL    HW220829   3.715   0.295   6.170
 6725SOL     OW20830   4.059   1.435   6.647
 6725SOL    HW120831   3.981   1.404   6.594
 6725SOL    HW220832   4.117   1.493   6.590
 6726SOL     OW20833   3.955   1.713   6.069
 6726SOL    HW120834   3.989   1.790   6.123
 6726SOL    HW220835   3.999   1.713   5.979
 6727SOL     OW20836   3.954   1.434   6.124
 6727SOL    HW120837   3.928   1.530   6.124
 6727SOL    HW220838   3.883   1.380   6.169
 6728SOL     OW20839   3.846   0.643   6.149
 6728SOL    HW120840   3.801   0.555   6.166
 6728SOL    HW220841   3.845   0.697   6.233
 6729SOL     OW20842   3.751   1.596   5.703
 6729SOL    HW120843   3.732   1.500   5.724
 6729SOL    HW220844   3.718   1.654   5.778
 6730SOL     OW20845   3.837   0.737   7.183
 6730SOL    HW120846   3.925   0.724   7.228
 6730SOL    HW220847   3.824   0.834   7.161
 6731SOL     OW20848   3.800   0.811   6.375
 6731SOL    HW120849   3.899   0.799   6.384
 6731SOL    HW220850   3.776   0.906   6.396
 6732SOL     OW20851   3.854   1.821   7.157
 6732SOL    HW120852   3.844   1.806   7.256
 6732SOL    HW220853   3.768   1.857   7.121
 6733SOL     OW20854   3.926   0.285   7.084
 6733SOL    HW120855   3.846   0.345   7.071
 6733SOL    HW220856   3.916   0.236   7.170
 6734SOL     OW20857   3.802   0.556   6.972
 6734SOL    HW120858   3.894   0.555   6.931
 6734SOL    HW220859   3.796   0.630   7.039
 6735SOL     OW20860   4.251   0.256   5.914
 6735SOL    HW120861   4.278   0.197   5.839
 6735SOL    HW220862   4.251   0.351   5.883
 6736SOL     OW20863   3.788   1.564   6.917
 6736SOL    HW120864   3.742   1.646   6.883
 6736SOL    HW220865   3.886   1.583   6.926
 6737SOL     OW20866   4.091   1.100   6.087
 6737SOL    HW120867   4.084   1.183   6.031
 6737SOL    HW220868   4.095   1.020   6.027
 6738SOL     OW20869   4.031   0.213   6.817
 6738SOL    HW120870   4.008   0.250   6.907
 6738SOL    HW220871   4.001   0.118   6.811
 6739SOL     OW20872   3.761   1.310   6.868
 6739SOL    HW120873   3.814   1.261   6.936
 6739SOL    HW220874   3.783   1.408   6.873
 6740SOL     OW20875   3.732   1.326   5.786
 6740SOL    HW120876   3.639   1.347   5.755
 6740SOL    HW220877   3.742   1.227   5.799
 6741SOL     OW20878   3.812   1.801   6.513
 6741SOL    HW120879   3.770   1.715   6.486
 6741SOL    HW220880   3.906   1.804   6.479
 6742SOL     OW20881   4.228   1.568   6.496
 6742SOL    HW120882   4.294   1.642   6.505
 6742SOL    HW220883   4.272   1.489   6.454
 6743SOL     OW20884   3.764   0.544   6.700
 6743SOL    HW120885   3.849   0.511   6.659
 6743SOL    HW220886   3.777   0.559   6.798
 6744SOL     OW20887   3.913   0.520   7.308
 6744SOL    HW120888   3.972   0.480   7.238
 6744SOL    HW220889   3.855   0.591   7.267
 6745SOL     OW20890   3.976   1.564   7.330
 6745SOL    HW120891   3.946   1.621   7.406
 6745SOL    HW220892   3.969   1.467   7.356
 6746SOL     OW20893   3.883   1.137   7.052
 6746SOL    HW120894   3.905   1.076   7.128
 6746SOL    HW220895   3.893   1.088   6.966
 6747SOL     OW20896   3.807   1.258   6.608
 6747SOL    HW120897   3.802   1.257   6.708
 6747SOL    HW220898   3.724   1.217   6.570
 6748SOL     OW20899   3.854   1.794   7.437
 6748SOL    HW120900   3.813   1.720   7.490
 6748SOL    HW220901   3.918   1.845   7.495
 6749SOL     OW20902   3.799   0.345   5.619
 6749SOL    HW120903   3.707   0.317   5.590
 6749SOL    HW220904   3.830   0.422   5.563
 6750SOL     OW20905   3.796   0.166   5.904
 6750SOL    HW120906   3.779   0.249   5.850
 6750SOL    HW220907   3.886   0.129   5.882
 6751SOL     OW20908   3.803   1.240   6.239
 6751SOL    HW120909   3.802   1.193   6.327
 6751SOL    HW220910   3.885   1.212   6.188
 6752SOL     OW20911   3.763   1.077   5.886
 6752SOL    HW120912   3.862   1.066   5.877
 6752SOL    HW220913   3.723   0.991   5.918
 6753SOL     OW20914   3.954   0.628   7.561
 6753SOL    HW120915   3.861   0.626   7.598
 6753SOL    HW220916   3.955   0.589   7.469
 6754SOL     OW20917   3.949   0.275   8.444
 6754SOL    HW120918   3.984   0.258   8.536
 6754SOL    HW220919   3.861   0.230   8.432
 6755SOL     OW20920   3.743   0.368   8.095
 6755SOL    HW120921   3.661   0.411   8.134
 6755SOL    HW220922   3.715   0.295   8.032
 6756SOL     OW20923   4.059   1.435   8.509
 6756SOL    HW120924   3.981   1.404   8.456
 6756SOL    HW220925   4.117   1.493   8.452
 6757SOL     OW20926   3.955   1.713   7.931
 6757SOL    HW120927   3.989   1.790   7.985
 6757SOL    HW220928   3.999   1.713   7.841
 6758SOL     OW20929   3.954   1.434   7.986
 6758SOL    HW120930   3.928   1.530   7.986
 6758SOL    HW220931   3.883   1.380   8.031
 6759SOL     OW20932   3.846   0.643   8.011
 6759SOL    HW120933   3.801   0.555   8.028
 6759SOL    HW220934   3.845   0.697   8.095
 6760SOL     OW20935   3.751   1.596   7.565
 6760SOL    HW120936   3.732   1.500   7.586
 6760SOL    HW220937   3.718   1.654   7.640
 6761SOL     OW20938   3.837   0.737   9.045
 6761SOL    HW120939   3.925   0.724   9.090
 6761SOL    HW220940   3.824   0.834   9.023
 6762SOL     OW20941   3.800   0.811   8.237
 6762SOL    HW120942   3.899   0.799   8.246
 6762SOL    HW220943   3.776   0.906   8.258
 6763SOL     OW20944   3.854   1.821   9.019
 6763SOL    HW120945   3.844   1.806   9.118
 6763SOL    HW220946   3.768   1.857   8.983
 6764SOL     OW20947   3.926   0.285   8.946
 6764SOL    HW120948   3.846   0.345   8.933
 6764SOL    HW220949   3.916   0.236   9.032
 6765SOL     OW20950   3.802   0.556   8.834
 6765SOL    HW120951   3.894   0.555   8.793
 6765SOL    HW220952   3.796   0.630   8.901
 6766SOL     OW20953   4.251   0.256   7.776
 6766SOL    HW120954   4.278   0.197   7.701
 6766SOL    HW220955   4.251   0.351   7.745
 6767SOL     OW20956   3.788   1.564   8.779
 6767SOL    HW120957   3.742   1.646   8.745
 6767SOL    HW220958   3.886   1.583   8.788
 6768SOL     OW20959   4.091   1.100   7.949
 6768SOL    HW120960   4.084   1.183   7.893
 6768SOL    HW220961   4.095   1.020   7.889
 6769SOL     OW20962   4.031   0.213   8.679
 6769SOL    HW120963   4.008   0.250   8.769
 6769SOL    HW220964   4.001   0.118   8.673
 6770SOL     OW20965   3.761   1.310   8.730
 6770SOL    HW120966   3.814   1.261   8.798
 6770SOL    HW220967   3.783   1.408   8.735
 6771SOL     OW20968   3.732   1.326   7.648
 6771SOL    HW120969   3.639   1.347   7.617
 6771SOL    HW220970   3.742   1.227   7.661
 6772SOL     OW20971   3.812   1.801   8.375
 6772SOL    HW120972   3.770   1.715   8.348
 6772SOL    HW220973   3.906   1.804   8.341
 6773SOL     OW20974   4.228   1.568   8.358
 6773SOL    HW120975   4.294   1.642   8.367
 6773SOL    HW220976   4.272   1.489   8.316
 6774SOL     OW20977   3.764   0.544   8.562
 6774SOL    HW120978   3.849   0.511   8.521
 6774SOL    HW220979   3.777   0.559   8.660
 6775SOL     OW20980   3.913   0.520   9.170
 6775SOL    HW120981   3.972   0.480   9.100
 6775SOL    HW220982   3.855   0.591   9.129
 6776SOL     OW20983   3.976   1.564   9.192
 6776SOL    HW120984   3.946   1.621   9.268
 6776SOL    HW220985   3.969   1.467   9.218
 6777SOL     OW20986   3.883   1.137   8.914
 6777SOL    HW120987   3.905   1.076   8.990
 6777SOL    HW220988   3.893   1.088   8.828
 6778SOL     OW20989   3.807   1.258   8.470
 6778SOL    HW120990   3.802   1.257   8.570
 6778SOL    HW220991   3.724   1.217   8.432
 6779SOL     OW20992   3.854   1.794   9.299
 6779SOL    HW120993   3.813   1.720   9.352
 6779SOL    HW220994   3.918   1.845   9.357
 6780SOL     OW20995   3.799   0.345   7.481
 6780SOL    HW120996   3.707   0.317   7.452
 6780SOL    HW220997   3.830   0.422   7.425
 6781SOL     OW20998   3.796   0.166   7.766
 6781SOL    HW120999   3.779   0.249   7.712
 6781SOL    HW221000   3.886   0.129   7.744
 6782SOL     OW21001   3.803   1.240   8.101
 6782SOL    HW121002   3.802   1.193   8.189
 6782SOL    HW221003   3.885   1.212   8.050
 6783SOL     OW21004   3.763   1.077   7.748
 6783SOL    HW121005   3.862   1.066   7.739
 6783SOL    HW221006   3.723   0.991   7.780
 6784SOL     OW21007   3.954   0.628   9.423
 6784SOL    HW121008   3.861   0.626   9.460
 6784SOL    HW221009   3.955   0.589   9.331
 6785SOL     OW21010   3.949   0.275  10.306
 6785SOL    HW121011   3.984   0.258  10.398
 6785SOL    HW221012   3.861   0.230  10.294
 6786SOL     OW21013   3.743   0.368   9.957
 6786SOL    HW121014   3.661   0.411   9.996
 6786SOL    HW221015   3.715   0.295   9.894
 6787SOL     OW21016   4.059   1.435  10.371
 6787SOL    HW121017   3.981   1.404  10.318
 6787SOL    HW221018   4.117   1.493  10.314
 6788SOL     OW21019   3.955   1.713   9.793
 6788SOL    HW121020   3.989   1.790   9.847
 6788SOL    HW221021   3.999   1.713   9.703
 6789SOL     OW21022   3.954   1.434   9.848
 6789SOL    HW121023   3.928   1.530   9.848
 6789SOL    HW221024   3.883   1.380   9.893
 6790SOL     OW21025   3.846   0.643   9.873
 6790SOL    HW121026   3.801   0.555   9.890
 6790SOL    HW221027   3.845   0.697   9.957
 6791SOL     OW21028   3.751   1.596   9.427
 6791SOL    HW121029   3.732   1.500   9.448
 6791SOL    HW221030   3.718   1.654   9.502
 6792SOL     OW21031   3.837   0.737  10.907
 6792SOL    HW121032   3.925   0.724  10.952
 6792SOL    HW221033   3.824   0.834  10.885
 6793SOL     OW21034   3.800   0.811  10.099
 6793SOL    HW121035   3.899   0.799  10.108
 6793SOL    HW221036   3.776   0.906  10.120
 6794SOL     OW21037   3.854   1.821  10.881
 6794SOL    HW121038   3.844   1.806  10.980
 6794SOL    HW221039   3.768   1.857  10.845
 6795SOL     OW21040   3.926   0.285  10.808
 6795SOL    HW121041   3.846   0.345  10.795
 6795SOL    HW221042   3.916   0.236  10.894
 6796SOL     OW21043   3.802   0.556  10.696
 6796SOL    HW121044   3.894   0.555  10.655
 6796SOL    HW221045   3.796   0.630  10.763
 6797SOL     OW21046   4.251   0.256   9.638
 6797SOL    HW121047   4.278   0.197   9.563
 6797SOL    HW221048   4.251   0.351   9.607
 6798SOL     OW21049   3.788   1.564  10.641
 6798SOL    HW121050   3.742   1.646  10.607
 6798SOL    HW221051   3.886   1.583  10.650
 6799SOL     OW21052   4.091   1.100   9.811
 6799SOL    HW121053   4.084   1.183   9.755
 6799SOL    HW221054   4.095   1.020   9.751
 6800SOL     OW21055   4.031   0.213  10.541
 6800SOL    HW121056   4.008   0.250  10.631
 6800SOL    HW221057   4.001   0.118  10.535
 6801SOL     OW21058   3.761   1.310  10.592
 6801SOL    HW121059   3.814   1.261  10.660
 6801SOL    HW221060   3.783   1.408  10.597
 6802SOL     OW21061   3.732   1.326   9.510
 6802SOL    HW121062   3.639   1.347   9.479
 6802SOL    HW221063   3.742   1.227   9.523
 6803SOL     OW21064   3.812   1.801  10.237
 6803SOL    HW121065   3.770   1.715  10.210
 6803SOL    HW221066   3.906   1.804  10.203
 6804SOL     OW21067   4.228   1.568  10.220
 6804SOL    HW121068   4.294   1.642  10.229
 6804SOL    HW221069   4.272   1.489  10.178
 6805SOL     OW21070   3.764   0.544  10.424
 6805SOL    HW121071   3.849   0.511  10.383
 6805SOL    HW221072   3.777   0.559  10.522
 6806SOL     OW21073   3.913   0.520  11.032
 6806SOL    HW121074   3.972   0.480  10.962
 6806SOL    HW221075   3.855   0.591  10.991
 6807SOL     OW21076   3.976   1.564  11.054
 6807SOL    HW121077   3.946   1.621  11.130
 6807SOL    HW221078   3.969   1.467  11.080
 6808SOL     OW21079   3.883   1.137  10.776
 6808SOL    HW121080   3.905   1.076  10.852
 6808SOL    HW221081   3.893   1.088  10.690
 6809SOL     OW21082   3.807   1.258  10.332
 6809SOL    HW121083   3.802   1.257  10.432
 6809SOL    HW221084   3.724   1.217  10.294
 6810SOL     OW21085   3.854   1.794  11.161
 6810SOL    HW121086   3.813   1.720  11.214
 6810SOL    HW221087   3.918   1.845  11.219
 6811SOL     OW21088   3.799   0.345   9.343
 6811SOL    HW121089   3.707   0.317   9.314
 6811SOL    HW221090   3.830   0.422   9.287
 6812SOL     OW21091   3.796   0.166   9.628
 6812SOL    HW121092   3.779   0.249   9.574
 6812SOL    HW221093   3.886   0.129   9.606
 6813SOL     OW21094   3.803   1.240   9.963
 6813SOL    HW121095   3.802   1.193  10.051
 6813SOL    HW221096   3.885   1.212   9.912
 6814SOL     OW21097   3.763   1.077   9.610
 6814SOL    HW121098   3.862   1.066   9.601
 6814SOL    HW221099   3.723   0.991   9.642
 6815SOL     OW21100   3.954   0.628  11.285
 6815SOL    HW121101   3.861   0.626  11.322
 6815SOL    HW221102   3.955   0.589  11.193
 6816SOL     OW21103   3.949   0.275  12.168
 6816SOL    HW121104   3.984   0.258  12.260
 6816SOL    HW221105   3.861   0.230  12.156
 6817SOL     OW21106   3.743   0.368  11.819
 6817SOL    HW121107   3.661   0.411  11.858
 6817SOL    HW221108   3.715   0.295  11.756
 6818SOL     OW21109   4.059   1.435  12.233
 6818SOL    HW121110   3.981   1.404  12.180
 6818SOL    HW221111   4.117   1.493  12.176
 6819SOL     OW21112   3.955   1.713  11.655
 6819SOL    HW121113   3.989   1.790  11.709
 6819SOL    HW221114   3.999   1.713  11.565
 6820SOL     OW21115   3.954   1.434  11.710
 6820SOL    HW121116   3.928   1.530  11.710
 6820SOL    HW221117   3.883   1.380  11.755
 6821SOL     OW21118   3.846   0.643  11.735
 6821SOL    HW121119   3.801   0.555  11.752
 6821SOL    HW221120   3.845   0.697  11.819
 6822SOL     OW21121   3.751   1.596  11.289
 6822SOL    HW121122   3.732   1.500  11.310
 6822SOL    HW221123   3.718   1.654  11.364
 6823SOL     OW21124   3.837   0.737  12.769
 6823SOL    HW121125   3.925   0.724  12.814
 6823SOL    HW221126   3.824   0.834  12.747
 6824SOL     OW21127   3.800   0.811  11.961
 6824SOL    HW121128   3.899   0.799  11.970
 6824SOL    HW221129   3.776   0.906  11.982
 6825SOL     OW21130   3.854   1.821  12.743
 6825SOL    HW121131   3.844   1.806  12.842
 6825SOL    HW221132   3.768   1.857  12.707
 6826SOL     OW21133   3.926   0.285  12.670
 6826SOL    HW121134   3.846   0.345  12.657
 6826SOL    HW221135   3.916   0.236  12.756
 6827SOL     OW21136   3.802   0.556  12.558
 6827SOL    HW121137   3.894   0.555  12.517
 6827SOL    HW221138   3.796   0.630  12.625
 6828SOL     OW21139   4.251   0.256  11.500
 6828SOL    HW121140   4.278   0.197  11.425
 6828SOL    HW221141   4.251   0.351  11.469
 6829SOL     OW21142   3.788   1.564  12.503
 6829SOL    HW121143   3.742   1.646  12.469
 6829SOL    HW221144   3.886   1.583  12.512
 6830SOL     OW21145   4.091   1.100  11.673
 6830SOL    HW121146   4.084   1.183  11.617
 6830SOL    HW221147   4.095   1.020  11.613
 6831SOL     OW21148   4.031   0.213  12.403
 6831SOL    HW121149   4.008   0.250  12.493
 6831SOL    HW221150   4.001   0.118  12.397
 6832SOL     OW21151   3.761   1.310  12.454
 6832SOL    HW121152   3.814   1.261  12.522
 6832SOL    HW221153   3.783   1.408  12.459
 6833SOL     OW21154   3.732   1.326  11.372
 6833SOL    HW121155   3.639   1.347  11.341
 6833SOL    HW221156   3.742   1.227  11.385
 6834SOL     OW21157   3.812   1.801  12.099
 6834SOL    HW121158   3.770   1.715  12.072
 6834SOL    HW221159   3.906   1.804  12.065
 6835SOL     OW21160   4.228   1.568  12.082
 6835SOL    HW121161   4.294   1.642  12.091
 6835SOL    HW221162   4.272   1.489  12.040
 6836SOL     OW21163   3.764   0.544  12.286
 6836SOL    HW121164   3.849   0.511  12.245
 6836SOL    HW221165   3.777   0.559  12.384
 6837SOL     OW21166   3.913   0.520  12.894
 6837SOL    HW121167   3.972   0.480  12.824
 6837SOL    HW221168   3.855   0.591  12.853
 6838SOL     OW21169   3.976   1.564  12.916
 6838SOL    HW121170   3.946   1.621  12.992
 6838SOL    HW221171   3.969   1.467  12.942
 6839SOL     OW21172   3.883   1.137  12.638
 6839SOL    HW121173   3.905   1.076  12.714
 6839SOL    HW221174   3.893   1.088  12.552
 6840SOL     OW21175   3.807   1.258  12.194
 6840SOL    HW121176   3.802   1.257  12.294
 6840SOL    HW221177   3.724   1.217  12.156
 6841SOL     OW21178   3.854   1.794  13.023
 6841SOL    HW121179   3.813   1.720  13.076
 6841SOL    HW221180   3.918   1.845  13.081
 6842SOL     OW21181   3.799   0.345  11.205
 6842SOL    HW121182   3.707   0.317  11.176
 6842SOL    HW221183   3.830   0.422  11.149
 6843SOL     OW21184   3.796   0.166  11.490
 6843SOL    HW121185   3.779   0.249  11.436
 6843SOL    HW221186   3.886   0.129  11.468
 6844SOL     OW21187   3.803   1.240  11.825
 6844SOL    HW121188   3.802   1.193  11.913
 6844SOL    HW221189   3.885   1.212  11.774
 6845SOL     OW21190   3.763   1.077  11.472
 6845SOL    HW121191   3.862   1.066  11.463
 6845SOL    HW221192   3.723   0.991  11.504
 6846SOL     OW21193   3.954   0.628  13.147
 6846SOL    HW121194   3.861   0.626  13.184
 6846SOL    HW221195   3.955   0.589  13.055
 6847SOL     OW21196   3.743   0.368  13.681
 6847SOL    HW121197   3.661   0.411  13.720
 6847SOL    HW221198   3.715   0.295  13.618
 6848SOL     OW21199   3.955   1.713  13.517
 6848SOL    HW121200   3.989   1.790  13.571
 6848SOL    HW221201   3.999   1.713  13.427
 6849SOL     OW21202   3.954   1.434  13.572
 6849SOL    HW121203   3.928   1.530  13.572
 6849SOL    HW221204   3.883   1.380  13.617
 6850SOL     OW21205   3.964   1.091  13.920
 6850SOL    HW121206   3.978   1.007  13.972
 6850SOL    HW221207   3.909   1.155  13.975
 6851SOL     OW21208   3.846   0.643  13.597
 6851SOL    HW121209   3.801   0.555  13.614
 6851SOL    HW221210   3.845   0.697  13.681
 6852SOL     OW21211   3.751   1.596  13.151
 6852SOL    HW121212   3.732   1.500  13.172
 6852SOL    HW221213   3.718   1.654  13.226
 6853SOL     OW21214   3.800   0.811  13.823
 6853SOL    HW121215   3.899   0.799  13.832
 6853SOL    HW221216   3.776   0.906  13.844
 6854SOL     OW21217   4.075   1.801  13.887
 6854SOL    HW121218   4.125   1.715  13.893
 6854SOL    HW221219   4.140   1.878  13.884
 6855SOL     OW21220   4.251   0.256  13.362
 6855SOL    HW121221   4.278   0.197  13.287
 6855SOL    HW221222   4.251   0.351  13.331
 6856SOL     OW21223   4.091   1.100  13.535
 6856SOL    HW121224   4.084   1.183  13.479
 6856SOL    HW221225   4.095   1.020  13.475
 6857SOL     OW21226   3.732   1.326  13.234
 6857SOL    HW121227   3.639   1.347  13.203
 6857SOL    HW221228   3.742   1.227  13.247
 6858SOL     OW21229   4.228   1.568  13.944
 6858SOL    HW121230   4.294   1.642  13.953
 6858SOL    HW221231   4.272   1.489  13.902
 6859SOL     OW21232   3.799   0.345  13.067
 6859SOL    HW121233   3.707   0.317  13.038
 6859SOL    HW221234   3.830   0.422  13.011
 6860SOL     OW21235   3.796   0.166  13.352
 6860SOL    HW121236   3.779   0.249  13.298
 6860SOL    HW221237   3.886   0.129  13.330
 6861SOL     OW21238   3.803   1.240  13.687
 6861SOL    HW121239   3.802   1.193  13.775
 6861SOL    HW221240   3.885   1.212  13.636
 6862SOL     OW21241   3.763   1.077  13.334
 6862SOL    HW121242   3.862   1.066  13.325
 6862SOL    HW221243   3.723   0.991  13.366
 6863SOL     OW21244   3.954   2.490   0.113
 6863SOL    HW121245   3.861   2.488   0.150
 6863SOL    HW221246   3.955   2.451   0.021
 6864SOL     OW21247   3.949   2.137   0.996
 6864SOL    HW121248   3.984   2.120   1.088
 6864SOL    HW221249   3.861   2.092   0.984
 6865SOL     OW21250   3.743   2.230   0.647
 6865SOL    HW121251   3.661   2.273   0.686
 6865SOL    HW221252   3.715   2.157   0.584
 6866SOL     OW21253   4.059   3.297   1.061
 6866SOL    HW121254   3.981   3.266   1.008
 6866SOL    HW221255   4.117   3.355   1.004
 6867SOL     OW21256   3.955   3.575   0.483
 6867SOL    HW121257   3.989   3.652   0.537
 6867SOL    HW221258   3.999   3.575   0.393
 6868SOL     OW21259   3.954   3.296   0.538
 6868SOL    HW121260   3.928   3.392   0.538
 6868SOL    HW221261   3.883   3.242   0.583
 6869SOL     OW21262   3.846   2.505   0.563
 6869SOL    HW121263   3.801   2.417   0.580
 6869SOL    HW221264   3.845   2.559   0.647
 6870SOL     OW21265   3.751   3.458   0.117
 6870SOL    HW121266   3.732   3.362   0.138
 6870SOL    HW221267   3.718   3.516   0.192
 6871SOL     OW21268   3.837   2.599   1.597
 6871SOL    HW121269   3.925   2.586   1.642
 6871SOL    HW221270   3.824   2.696   1.575
 6872SOL     OW21271   3.800   2.673   0.789
 6872SOL    HW121272   3.899   2.661   0.798
 6872SOL    HW221273   3.776   2.768   0.810
 6873SOL     OW21274   3.854   3.683   1.571
 6873SOL    HW121275   3.844   3.668   1.670
 6873SOL    HW221276   3.768   3.719   1.535
 6874SOL     OW21277   3.926   2.147   1.498
 6874SOL    HW121278   3.846   2.207   1.485
 6874SOL    HW221279   3.916   2.098   1.584
 6875SOL     OW21280   3.802   2.418   1.386
 6875SOL    HW121281   3.894   2.417   1.345
 6875SOL    HW221282   3.796   2.492   1.453
 6876SOL     OW21283   3.788   3.426   1.331
 6876SOL    HW121284   3.742   3.508   1.297
 6876SOL    HW221285   3.886   3.445   1.340
 6877SOL     OW21286   4.091   2.962   0.501
 6877SOL    HW121287   4.084   3.045   0.445
 6877SOL    HW221288   4.095   2.882   0.441
 6878SOL     OW21289   4.031   2.075   1.231
 6878SOL    HW121290   4.008   2.112   1.321
 6878SOL    HW221291   4.001   1.980   1.225
 6879SOL     OW21292   3.761   3.172   1.282
 6879SOL    HW121293   3.814   3.123   1.350
 6879SOL    HW221294   3.783   3.270   1.287
 6880SOL     OW21295   4.031   1.925   0.618
 6880SOL    HW121296   4.020   2.019   0.651
 6880SOL    HW221297   4.026   1.862   0.695
 6881SOL     OW21298   3.732   3.188   0.200
 6881SOL    HW121299   3.639   3.209   0.169
 6881SOL    HW221300   3.742   3.089   0.213
 6882SOL     OW21301   3.812   3.663   0.927
 6882SOL    HW121302   3.770   3.577   0.900
 6882SOL    HW221303   3.906   3.666   0.893
 6883SOL     OW21304   4.228   3.430   0.910
 6883SOL    HW121305   4.294   3.504   0.919
 6883SOL    HW221306   4.272   3.351   0.868
 6884SOL     OW21307   3.764   2.406   1.114
 6884SOL    HW121308   3.849   2.373   1.073
 6884SOL    HW221309   3.777   2.421   1.212
 6885SOL     OW21310   3.913   2.382   1.722
 6885SOL    HW121311   3.972   2.342   1.652
 6885SOL    HW221312   3.855   2.453   1.681
 6886SOL     OW21313   3.976   3.426   1.744
 6886SOL    HW121314   3.946   3.483   1.820
 6886SOL    HW221315   3.969   3.329   1.770
 6887SOL     OW21316   3.883   2.999   1.466
 6887SOL    HW121317   3.905   2.938   1.542
 6887SOL    HW221318   3.893   2.950   1.380
 6888SOL     OW21319   3.807   3.120   1.022
 6888SOL    HW121320   3.802   3.119   1.122
 6888SOL    HW221321   3.724   3.079   0.984
 6889SOL     OW21322   3.854   3.656   1.851
 6889SOL    HW121323   3.813   3.582   1.904
 6889SOL    HW221324   3.918   3.707   1.909
 6890SOL     OW21325   3.799   2.207   0.033
 6890SOL    HW121326   3.707   2.179   0.004
 6890SOL    HW221327   3.830   2.284  -0.023
 6891SOL     OW21328   3.796   2.028   0.318
 6891SOL    HW121329   3.779   2.111   0.264
 6891SOL    HW221330   3.886   1.991   0.296
 6892SOL     OW21331   3.803   3.102   0.653
 6892SOL    HW121332   3.802   3.055   0.741
 6892SOL    HW221333   3.885   3.074   0.602
 6893SOL     OW21334   3.763   2.939   0.300
 6893SOL    HW121335   3.862   2.928   0.291
 6893SOL    HW221336   3.723   2.853   0.332
 6894SOL     OW21337   3.954   2.490   1.975
 6894SOL    HW121338   3.861   2.488   2.012
 6894SOL    HW221339   3.955   2.451   1.883
 6895SOL     OW21340   3.949   2.137   2.858
 6895SOL    HW121341   3.984   2.120   2.950
 6895SOL    HW221342   3.861   2.092   2.846
 6896SOL     OW21343   3.743   2.230   2.509
 6896SOL    HW121344   3.661   2.273   2.548
 6896SOL    HW221345   3.715   2.157   2.446
 6897SOL     OW21346   4.059   3.297   2.923
 6897SOL    HW121347   3.981   3.266   2.870
 6897SOL    HW221348   4.117   3.355   2.866
 6898SOL     OW21349   3.955   3.575   2.345
 6898SOL    HW121350   3.989   3.652   2.399
 6898SOL    HW221351   3.999   3.575   2.255
 6899SOL     OW21352   3.954   3.296   2.400
 6899SOL    HW121353   3.928   3.392   2.400
 6899SOL    HW221354   3.883   3.242   2.445
 6900SOL     OW21355   3.846   2.505   2.425
 6900SOL    HW121356   3.801   2.417   2.442
 6900SOL    HW221357   3.845   2.559   2.509
 6901SOL     OW21358   3.751   3.458   1.979
 6901SOL    HW121359   3.732   3.362   2.000
 6901SOL    HW221360   3.718   3.516   2.054
 6902SOL     OW21361   3.837   2.599   3.459
 6902SOL    HW121362   3.925   2.586   3.504
 6902SOL    HW221363   3.824   2.696   3.437
 6903SOL     OW21364   3.800   2.673   2.651
 6903SOL    HW121365   3.899   2.661   2.660
 6903SOL    HW221366   3.776   2.768   2.672
 6904SOL     OW21367   3.854   3.683   3.433
 6904SOL    HW121368   3.844   3.668   3.532
 6904SOL    HW221369   3.768   3.719   3.397
 6905SOL     OW21370   3.926   2.147   3.360
 6905SOL    HW121371   3.846   2.207   3.347
 6905SOL    HW221372   3.916   2.098   3.446
 6906SOL     OW21373   4.021   1.897   2.033
 6906SOL    HW121374   4.070   1.981   2.012
 6906SOL    HW221375   4.083   1.832   2.078
 6907SOL     OW21376   3.802   2.418   3.248
 6907SOL    HW121377   3.894   2.417   3.207
 6907SOL    HW221378   3.796   2.492   3.315
 6908SOL     OW21379   4.251   2.118   2.190
 6908SOL    HW121380   4.278   2.059   2.115
 6908SOL    HW221381   4.251   2.213   2.159
 6909SOL     OW21382   3.788   3.426   3.193
 6909SOL    HW121383   3.742   3.508   3.159
 6909SOL    HW221384   3.886   3.445   3.202
 6910SOL     OW21385   4.091   2.962   2.363
 6910SOL    HW121386   4.084   3.045   2.307
 6910SOL    HW221387   4.095   2.882   2.303
 6911SOL     OW21388   4.031   2.075   3.093
 6911SOL    HW121389   4.008   2.112   3.183
 6911SOL    HW221390   4.001   1.980   3.087
 6912SOL     OW21391   3.761   3.172   3.144
 6912SOL    HW121392   3.814   3.123   3.212
 6912SOL    HW221393   3.783   3.270   3.149
 6913SOL     OW21394   4.031   1.925   2.480
 6913SOL    HW121395   4.020   2.019   2.513
 6913SOL    HW221396   4.026   1.862   2.557
 6914SOL     OW21397   3.732   3.188   2.062
 6914SOL    HW121398   3.639   3.209   2.031
 6914SOL    HW221399   3.742   3.089   2.075
 6915SOL     OW21400   3.812   3.663   2.789
 6915SOL    HW121401   3.770   3.577   2.762
 6915SOL    HW221402   3.906   3.666   2.755
 6916SOL     OW21403   4.228   3.430   2.772
 6916SOL    HW121404   4.294   3.504   2.781
 6916SOL    HW221405   4.272   3.351   2.730
 6917SOL     OW21406   3.764   2.406   2.976
 6917SOL    HW121407   3.849   2.373   2.935
 6917SOL    HW221408   3.777   2.421   3.074
 6918SOL     OW21409   3.913   2.382   3.584
 6918SOL    HW121410   3.972   2.342   3.514
 6918SOL    HW221411   3.855   2.453   3.543
 6919SOL     OW21412   3.976   3.426   3.606
 6919SOL    HW121413   3.946   3.483   3.682
 6919SOL    HW221414   3.969   3.329   3.632
 6920SOL     OW21415   3.883   2.999   3.328
 6920SOL    HW121416   3.905   2.938   3.404
 6920SOL    HW221417   3.893   2.950   3.242
 6921SOL     OW21418   3.807   3.120   2.884
 6921SOL    HW121419   3.802   3.119   2.984
 6921SOL    HW221420   3.724   3.079   2.846
 6922SOL     OW21421   3.854   3.656   3.713
 6922SOL    HW121422   3.813   3.582   3.766
 6922SOL    HW221423   3.918   3.707   3.771
 6923SOL     OW21424   3.799   2.207   1.895
 6923SOL    HW121425   3.707   2.179   1.866
 6923SOL    HW221426   3.830   2.284   1.839
 6924SOL     OW21427   3.796   2.028   2.180
 6924SOL    HW121428   3.779   2.111   2.126
 6924SOL    HW221429   3.886   1.991   2.158
 6925SOL     OW21430   3.803   3.102   2.515
 6925SOL    HW121431   3.802   3.055   2.603
 6925SOL    HW221432   3.885   3.074   2.464
 6926SOL     OW21433   3.763   2.939   2.162
 6926SOL    HW121434   3.862   2.928   2.153
 6926SOL    HW221435   3.723   2.853   2.194
 6927SOL     OW21436   3.954   2.490   3.837
 6927SOL    HW121437   3.861   2.488   3.874
 6927SOL    HW221438   3.955   2.451   3.745
 6928SOL     OW21439   3.949   2.137   4.720
 6928SOL    HW121440   3.984   2.120   4.812
 6928SOL    HW221441   3.861   2.092   4.708
 6929SOL     OW21442   3.743   2.230   4.371
 6929SOL    HW121443   3.661   2.273   4.410
 6929SOL    HW221444   3.715   2.157   4.308
 6930SOL     OW21445   4.059   3.297   4.785
 6930SOL    HW121446   3.981   3.266   4.732
 6930SOL    HW221447   4.117   3.355   4.728
 6931SOL     OW21448   3.955   3.575   4.207
 6931SOL    HW121449   3.989   3.652   4.261
 6931SOL    HW221450   3.999   3.575   4.117
 6932SOL     OW21451   3.954   3.296   4.262
 6932SOL    HW121452   3.928   3.392   4.262
 6932SOL    HW221453   3.883   3.242   4.307
 6933SOL     OW21454   3.846   2.505   4.287
 6933SOL    HW121455   3.801   2.417   4.304
 6933SOL    HW221456   3.845   2.559   4.371
 6934SOL     OW21457   3.751   3.458   3.841
 6934SOL    HW121458   3.732   3.362   3.862
 6934SOL    HW221459   3.718   3.516   3.916
 6935SOL     OW21460   3.837   2.599   5.321
 6935SOL    HW121461   3.925   2.586   5.366
 6935SOL    HW221462   3.824   2.696   5.299
 6936SOL     OW21463   3.800   2.673   4.513
 6936SOL    HW121464   3.899   2.661   4.522
 6936SOL    HW221465   3.776   2.768   4.534
 6937SOL     OW21466   3.854   3.683   5.295
 6937SOL    HW121467   3.844   3.668   5.394
 6937SOL    HW221468   3.768   3.719   5.259
 6938SOL     OW21469   3.926   2.147   5.222
 6938SOL    HW121470   3.846   2.207   5.209
 6938SOL    HW221471   3.916   2.098   5.308
 6939SOL     OW21472   4.021   1.897   3.895
 6939SOL    HW121473   4.070   1.981   3.874
 6939SOL    HW221474   4.083   1.832   3.940
 6940SOL     OW21475   3.802   2.418   5.110
 6940SOL    HW121476   3.894   2.417   5.069
 6940SOL    HW221477   3.796   2.492   5.177
 6941SOL     OW21478   4.251   2.118   4.052
 6941SOL    HW121479   4.278   2.059   3.977
 6941SOL    HW221480   4.251   2.213   4.021
 6942SOL     OW21481   3.788   3.426   5.055
 6942SOL    HW121482   3.742   3.508   5.021
 6942SOL    HW221483   3.886   3.445   5.064
 6943SOL     OW21484   4.091   2.962   4.225
 6943SOL    HW121485   4.084   3.045   4.169
 6943SOL    HW221486   4.095   2.882   4.165
 6944SOL     OW21487   4.031   2.075   4.955
 6944SOL    HW121488   4.008   2.112   5.045
 6944SOL    HW221489   4.001   1.980   4.949
 6945SOL     OW21490   3.761   3.172   5.006
 6945SOL    HW121491   3.814   3.123   5.074
 6945SOL    HW221492   3.783   3.270   5.011
 6946SOL     OW21493   4.031   1.925   4.342
 6946SOL    HW121494   4.020   2.019   4.375
 6946SOL    HW221495   4.026   1.862   4.419
 6947SOL     OW21496   3.732   3.188   3.924
 6947SOL    HW121497   3.639   3.209   3.893
 6947SOL    HW221498   3.742   3.089   3.937
 6948SOL     OW21499   3.812   3.663   4.651
 6948SOL    HW121500   3.770   3.577   4.624
 6948SOL    HW221501   3.906   3.666   4.617
 6949SOL     OW21502   4.228   3.430   4.634
 6949SOL    HW121503   4.294   3.504   4.643
 6949SOL    HW221504   4.272   3.351   4.592
 6950SOL     OW21505   3.764   2.406   4.838
 6950SOL    HW121506   3.849   2.373   4.797
 6950SOL    HW221507   3.777   2.421   4.936
 6951SOL     OW21508   3.913   2.382   5.446
 6951SOL    HW121509   3.972   2.342   5.376
 6951SOL    HW221510   3.855   2.453   5.405
 6952SOL     OW21511   3.976   3.426   5.468
 6952SOL    HW121512   3.946   3.483   5.544
 6952SOL    HW221513   3.969   3.329   5.494
 6953SOL     OW21514   3.883   2.999   5.190
 6953SOL    HW121515   3.905   2.938   5.266
 6953SOL    HW221516   3.893   2.950   5.104
 6954SOL     OW21517   3.807   3.120   4.746
 6954SOL    HW121518   3.802   3.119   4.846
 6954SOL    HW221519   3.724   3.079   4.708
 6955SOL     OW21520   3.854   3.656   5.575
 6955SOL    HW121521   3.813   3.582   5.628
 6955SOL    HW221522   3.918   3.707   5.633
 6956SOL     OW21523   3.799   2.207   3.757
 6956SOL    HW121524   3.707   2.179   3.728
 6956SOL    HW221525   3.830   2.284   3.701
 6957SOL     OW21526   3.796   2.028   4.042
 6957SOL    HW121527   3.779   2.111   3.988
 6957SOL    HW221528   3.886   1.991   4.020
 6958SOL     OW21529   3.803   3.102   4.377
 6958SOL    HW121530   3.802   3.055   4.465
 6958SOL    HW221531   3.885   3.074   4.326
 6959SOL     OW21532   3.763   2.939   4.024
 6959SOL    HW121533   3.862   2.928   4.015
 6959SOL    HW221534   3.723   2.853   4.056
 6960SOL     OW21535   3.954   2.490   5.699
 6960SOL    HW121536   3.861   2.488   5.736
 6960SOL    HW221537   3.955   2.451   5.607
 6961SOL     OW21538   3.949   2.137   6.582
 6961SOL    HW121539   3.984   2.120   6.674
 6961SOL    HW221540   3.861   2.092   6.570
 6962SOL     OW21541   3.743   2.230   6.233
 6962SOL    HW121542   3.661   2.273   6.272
 6962SOL    HW221543   3.715   2.157   6.170
 6963SOL     OW21544   4.059   3.297   6.647
 6963SOL    HW121545   3.981   3.266   6.594
 6963SOL    HW221546   4.117   3.355   6.590
 6964SOL     OW21547   3.955   3.575   6.069
 6964SOL    HW121548   3.989   3.652   6.123
 6964SOL    HW221549   3.999   3.575   5.979
 6965SOL     OW21550   3.954   3.296   6.124
 6965SOL    HW121551   3.928   3.392   6.124
 6965SOL    HW221552   3.883   3.242   6.169
 6966SOL     OW21553   3.846   2.505   6.149
 6966SOL    HW121554   3.801   2.417   6.166
 6966SOL    HW221555   3.845   2.559   6.233
 6967SOL     OW21556   3.751   3.458   5.703
 6967SOL    HW121557   3.732   3.362   5.724
 6967SOL    HW221558   3.718   3.516   5.778
 6968SOL     OW21559   3.837   2.599   7.183
 6968SOL    HW121560   3.925   2.586   7.228
 6968SOL    HW221561   3.824   2.696   7.161
 6969SOL     OW21562   3.800   2.673   6.375
 6969SOL    HW121563   3.899   2.661   6.384
 6969SOL    HW221564   3.776   2.768   6.396
 6970SOL     OW21565   3.854   3.683   7.157
 6970SOL    HW121566   3.844   3.668   7.256
 6970SOL    HW221567   3.768   3.719   7.121
 6971SOL     OW21568   3.926   2.147   7.084
 6971SOL    HW121569   3.846   2.207   7.071
 6971SOL    HW221570   3.916   2.098   7.170
 6972SOL     OW21571   4.021   1.897   5.757
 6972SOL    HW121572   4.070   1.981   5.736
 6972SOL    HW221573   4.083   1.832   5.802
 6973SOL     OW21574   3.802   2.418   6.972
 6973SOL    HW121575   3.894   2.417   6.931
 6973SOL    HW221576   3.796   2.492   7.039
 6974SOL     OW21577   4.251   2.118   5.914
 6974SOL    HW121578   4.278   2.059   5.839
 6974SOL    HW221579   4.251   2.213   5.883
 6975SOL     OW21580   3.788   3.426   6.917
 6975SOL    HW121581   3.742   3.508   6.883
 6975SOL    HW221582   3.886   3.445   6.926
 6976SOL     OW21583   4.091   2.962   6.087
 6976SOL    HW121584   4.084   3.045   6.031
 6976SOL    HW221585   4.095   2.882   6.027
 6977SOL     OW21586   4.031   2.075   6.817
 6977SOL    HW121587   4.008   2.112   6.907
 6977SOL    HW221588   4.001   1.980   6.811
 6978SOL     OW21589   3.761   3.172   6.868
 6978SOL    HW121590   3.814   3.123   6.936
 6978SOL    HW221591   3.783   3.270   6.873
 6979SOL     OW21592   4.031   1.925   6.204
 6979SOL    HW121593   4.020   2.019   6.237
 6979SOL    HW221594   4.026   1.862   6.281
 6980SOL     OW21595   3.732   3.188   5.786
 6980SOL    HW121596   3.639   3.209   5.755
 6980SOL    HW221597   3.742   3.089   5.799
 6981SOL     OW21598   3.812   3.663   6.513
 6981SOL    HW121599   3.770   3.577   6.486
 6981SOL    HW221600   3.906   3.666   6.479
 6982SOL     OW21601   4.228   3.430   6.496
 6982SOL    HW121602   4.294   3.504   6.505
 6982SOL    HW221603   4.272   3.351   6.454
 6983SOL     OW21604   3.764   2.406   6.700
 6983SOL    HW121605   3.849   2.373   6.659
 6983SOL    HW221606   3.777   2.421   6.798
 6984SOL     OW21607   3.913   2.382   7.308
 6984SOL    HW121608   3.972   2.342   7.238
 6984SOL    HW221609   3.855   2.453   7.267
 6985SOL     OW21610   3.976   3.426   7.330
 6985SOL    HW121611   3.946   3.483   7.406
 6985SOL    HW221612   3.969   3.329   7.356
 6986SOL     OW21613   3.883   2.999   7.052
 6986SOL    HW121614   3.905   2.938   7.128
 6986SOL    HW221615   3.893   2.950   6.966
 6987SOL     OW21616   3.807   3.120   6.608
 6987SOL    HW121617   3.802   3.119   6.708
 6987SOL    HW221618   3.724   3.079   6.570
 6988SOL     OW21619   3.854   3.656   7.437
 6988SOL    HW121620   3.813   3.582   7.490
 6988SOL    HW221621   3.918   3.707   7.495
 6989SOL     OW21622   3.799   2.207   5.619
 6989SOL    HW121623   3.707   2.179   5.590
 6989SOL    HW221624   3.830   2.284   5.563
 6990SOL     OW21625   3.796   2.028   5.904
 6990SOL    HW121626   3.779   2.111   5.850
 6990SOL    HW221627   3.886   1.991   5.882
 6991SOL     OW21628   3.803   3.102   6.239
 6991SOL    HW121629   3.802   3.055   6.327
 6991SOL    HW221630   3.885   3.074   6.188
 6992SOL     OW21631   3.763   2.939   5.886
 6992SOL    HW121632   3.862   2.928   5.877
 6992SOL    HW221633   3.723   2.853   5.918
 6993SOL     OW21634   3.954   2.490   7.561
 6993SOL    HW121635   3.861   2.488   7.598
 6993SOL    HW221636   3.955   2.451   7.469
 6994SOL     OW21637   3.949   2.137   8.444
 6994SOL    HW121638   3.984   2.120   8.536
 6994SOL    HW221639   3.861   2.092   8.432
 6995SOL     OW21640   3.743   2.230   8.095
 6995SOL    HW121641   3.661   2.273   8.134
 6995SOL    HW221642   3.715   2.157   8.032
 6996SOL     OW21643   4.059   3.297   8.509
 6996SOL    HW121644   3.981   3.266   8.456
 6996SOL    HW221645   4.117   3.355   8.452
 6997SOL     OW21646   3.955   3.575   7.931
 6997SOL    HW121647   3.989   3.652   7.985
 6997SOL    HW221648   3.999   3.575   7.841
 6998SOL     OW21649   3.954   3.296   7.986
 6998SOL    HW121650   3.928   3.392   7.986
 6998SOL    HW221651   3.883   3.242   8.031
 6999SOL     OW21652   3.846   2.505   8.011
 6999SOL    HW121653   3.801   2.417   8.028
 6999SOL    HW221654   3.845   2.559   8.095
 7000SOL     OW21655   3.751   3.458   7.565
 7000SOL    HW121656   3.732   3.362   7.586
 7000SOL    HW221657   3.718   3.516   7.640
 7001SOL     OW21658   3.837   2.599   9.045
 7001SOL    HW121659   3.925   2.586   9.090
 7001SOL    HW221660   3.824   2.696   9.023
 7002SOL     OW21661   3.800   2.673   8.237
 7002SOL    HW121662   3.899   2.661   8.246
 7002SOL    HW221663   3.776   2.768   8.258
 7003SOL     OW21664   3.854   3.683   9.019
 7003SOL    HW121665   3.844   3.668   9.118
 7003SOL    HW221666   3.768   3.719   8.983
 7004SOL     OW21667   3.926   2.147   8.946
 7004SOL    HW121668   3.846   2.207   8.933
 7004SOL    HW221669   3.916   2.098   9.032
 7005SOL     OW21670   4.021   1.897   7.619
 7005SOL    HW121671   4.070   1.981   7.598
 7005SOL    HW221672   4.083   1.832   7.664
 7006SOL     OW21673   3.802   2.418   8.834
 7006SOL    HW121674   3.894   2.417   8.793
 7006SOL    HW221675   3.796   2.492   8.901
 7007SOL     OW21676   4.251   2.118   7.776
 7007SOL    HW121677   4.278   2.059   7.701
 7007SOL    HW221678   4.251   2.213   7.745
 7008SOL     OW21679   3.788   3.426   8.779
 7008SOL    HW121680   3.742   3.508   8.745
 7008SOL    HW221681   3.886   3.445   8.788
 7009SOL     OW21682   4.091   2.962   7.949
 7009SOL    HW121683   4.084   3.045   7.893
 7009SOL    HW221684   4.095   2.882   7.889
 7010SOL     OW21685   4.031   2.075   8.679
 7010SOL    HW121686   4.008   2.112   8.769
 7010SOL    HW221687   4.001   1.980   8.673
 7011SOL     OW21688   3.761   3.172   8.730
 7011SOL    HW121689   3.814   3.123   8.798
 7011SOL    HW221690   3.783   3.270   8.735
 7012SOL     OW21691   4.031   1.925   8.066
 7012SOL    HW121692   4.020   2.019   8.099
 7012SOL    HW221693   4.026   1.862   8.143
 7013SOL     OW21694   3.732   3.188   7.648
 7013SOL    HW121695   3.639   3.209   7.617
 7013SOL    HW221696   3.742   3.089   7.661
 7014SOL     OW21697   3.812   3.663   8.375
 7014SOL    HW121698   3.770   3.577   8.348
 7014SOL    HW221699   3.906   3.666   8.341
 7015SOL     OW21700   4.228   3.430   8.358
 7015SOL    HW121701   4.294   3.504   8.367
 7015SOL    HW221702   4.272   3.351   8.316
 7016SOL     OW21703   3.764   2.406   8.562
 7016SOL    HW121704   3.849   2.373   8.521
 7016SOL    HW221705   3.777   2.421   8.660
 7017SOL     OW21706   3.913   2.382   9.170
 7017SOL    HW121707   3.972   2.342   9.100
 7017SOL    HW221708   3.855   2.453   9.129
 7018SOL     OW21709   3.976   3.426   9.192
 7018SOL    HW121710   3.946   3.483   9.268
 7018SOL    HW221711   3.969   3.329   9.218
 7019SOL     OW21712   3.883   2.999   8.914
 7019SOL    HW121713   3.905   2.938   8.990
 7019SOL    HW221714   3.893   2.950   8.828
 7020SOL     OW21715   3.807   3.120   8.470
 7020SOL    HW121716   3.802   3.119   8.570
 7020SOL    HW221717   3.724   3.079   8.432
 7021SOL     OW21718   3.854   3.656   9.299
 7021SOL    HW121719   3.813   3.582   9.352
 7021SOL    HW221720   3.918   3.707   9.357
 7022SOL     OW21721   3.799   2.207   7.481
 7022SOL    HW121722   3.707   2.179   7.452
 7022SOL    HW221723   3.830   2.284   7.425
 7023SOL     OW21724   3.796   2.028   7.766
 7023SOL    HW121725   3.779   2.111   7.712
 7023SOL    HW221726   3.886   1.991   7.744
 7024SOL     OW21727   3.803   3.102   8.101
 7024SOL    HW121728   3.802   3.055   8.189
 7024SOL    HW221729   3.885   3.074   8.050
 7025SOL     OW21730   3.763   2.939   7.748
 7025SOL    HW121731   3.862   2.928   7.739
 7025SOL    HW221732   3.723   2.853   7.780
 7026SOL     OW21733   3.954   2.490   9.423
 7026SOL    HW121734   3.861   2.488   9.460
 7026SOL    HW221735   3.955   2.451   9.331
 7027SOL     OW21736   3.949   2.137  10.306
 7027SOL    HW121737   3.984   2.120  10.398
 7027SOL    HW221738   3.861   2.092  10.294
 7028SOL     OW21739   3.743   2.230   9.957
 7028SOL    HW121740   3.661   2.273   9.996
 7028SOL    HW221741   3.715   2.157   9.894
 7029SOL     OW21742   4.059   3.297  10.371
 7029SOL    HW121743   3.981   3.266  10.318
 7029SOL    HW221744   4.117   3.355  10.314
 7030SOL     OW21745   3.955   3.575   9.793
 7030SOL    HW121746   3.989   3.652   9.847
 7030SOL    HW221747   3.999   3.575   9.703
 7031SOL     OW21748   3.954   3.296   9.848
 7031SOL    HW121749   3.928   3.392   9.848
 7031SOL    HW221750   3.883   3.242   9.893
 7032SOL     OW21751   3.846   2.505   9.873
 7032SOL    HW121752   3.801   2.417   9.890
 7032SOL    HW221753   3.845   2.559   9.957
 7033SOL     OW21754   3.751   3.458   9.427
 7033SOL    HW121755   3.732   3.362   9.448
 7033SOL    HW221756   3.718   3.516   9.502
 7034SOL     OW21757   3.837   2.599  10.907
 7034SOL    HW121758   3.925   2.586  10.952
 7034SOL    HW221759   3.824   2.696  10.885
 7035SOL     OW21760   3.800   2.673  10.099
 7035SOL    HW121761   3.899   2.661  10.108
 7035SOL    HW221762   3.776   2.768  10.120
 7036SOL     OW21763   3.854   3.683  10.881
 7036SOL    HW121764   3.844   3.668  10.980
 7036SOL    HW221765   3.768   3.719  10.845
 7037SOL     OW21766   3.926   2.147  10.808
 7037SOL    HW121767   3.846   2.207  10.795
 7037SOL    HW221768   3.916   2.098  10.894
 7038SOL     OW21769   4.021   1.897   9.481
 7038SOL    HW121770   4.070   1.981   9.460
 7038SOL    HW221771   4.083   1.832   9.526
 7039SOL     OW21772   3.802   2.418  10.696
 7039SOL    HW121773   3.894   2.417  10.655
 7039SOL    HW221774   3.796   2.492  10.763
 7040SOL     OW21775   4.251   2.118   9.638
 7040SOL    HW121776   4.278   2.059   9.563
 7040SOL    HW221777   4.251   2.213   9.607
 7041SOL     OW21778   3.788   3.426  10.641
 7041SOL    HW121779   3.742   3.508  10.607
 7041SOL    HW221780   3.886   3.445  10.650
 7042SOL     OW21781   4.091   2.962   9.811
 7042SOL    HW121782   4.084   3.045   9.755
 7042SOL    HW221783   4.095   2.882   9.751
 7043SOL     OW21784   4.031   2.075  10.541
 7043SOL    HW121785   4.008   2.112  10.631
 7043SOL    HW221786   4.001   1.980  10.535
 7044SOL     OW21787   3.761   3.172  10.592
 7044SOL    HW121788   3.814   3.123  10.660
 7044SOL    HW221789   3.783   3.270  10.597
 7045SOL     OW21790   4.031   1.925   9.928
 7045SOL    HW121791   4.020   2.019   9.961
 7045SOL    HW221792   4.026   1.862  10.005
 7046SOL     OW21793   3.732   3.188   9.510
 7046SOL    HW121794   3.639   3.209   9.479
 7046SOL    HW221795   3.742   3.089   9.523
 7047SOL     OW21796   3.812   3.663  10.237
 7047SOL    HW121797   3.770   3.577  10.210
 7047SOL    HW221798   3.906   3.666  10.203
 7048SOL     OW21799   4.228   3.430  10.220
 7048SOL    HW121800   4.294   3.504  10.229
 7048SOL    HW221801   4.272   3.351  10.178
 7049SOL     OW21802   3.764   2.406  10.424
 7049SOL    HW121803   3.849   2.373  10.383
 7049SOL    HW221804   3.777   2.421  10.522
 7050SOL     OW21805   3.913   2.382  11.032
 7050SOL    HW121806   3.972   2.342  10.962
 7050SOL    HW221807   3.855   2.453  10.991
 7051SOL     OW21808   3.976   3.426  11.054
 7051SOL    HW121809   3.946   3.483  11.130
 7051SOL    HW221810   3.969   3.329  11.080
 7052SOL     OW21811   3.883   2.999  10.776
 7052SOL    HW121812   3.905   2.938  10.852
 7052SOL    HW221813   3.893   2.950  10.690
 7053SOL     OW21814   3.807   3.120  10.332
 7053SOL    HW121815   3.802   3.119  10.432
 7053SOL    HW221816   3.724   3.079  10.294
 7054SOL     OW21817   3.854   3.656  11.161
 7054SOL    HW121818   3.813   3.582  11.214
 7054SOL    HW221819   3.918   3.707  11.219
 7055SOL     OW21820   3.799   2.207   9.343
 7055SOL    HW121821   3.707   2.179   9.314
 7055SOL    HW221822   3.830   2.284   9.287
 7056SOL     OW21823   3.796   2.028   9.628
 7056SOL    HW121824   3.779   2.111   9.574
 7056SOL    HW221825   3.886   1.991   9.606
 7057SOL     OW21826   3.803   3.102   9.963
 7057SOL    HW121827   3.802   3.055  10.051
 7057SOL    HW221828   3.885   3.074   9.912
 7058SOL     OW21829   3.763   2.939   9.610
 7058SOL    HW121830   3.862   2.928   9.601
 7058SOL    HW221831   3.723   2.853   9.642
 7059SOL     OW21832   3.954   2.490  11.285
 7059SOL    HW121833   3.861   2.488  11.322
 7059SOL    HW221834   3.955   2.451  11.193
 7060SOL     OW21835   3.949   2.137  12.168
 7060SOL    HW121836   3.984   2.120  12.260
 7060SOL    HW221837   3.861   2.092  12.156
 7061SOL     OW21838   3.743   2.230  11.819
 7061SOL    HW121839   3.661   2.273  11.858
 7061SOL    HW221840   3.715   2.157  11.756
 7062SOL     OW21841   4.059   3.297  12.233
 7062SOL    HW121842   3.981   3.266  12.180
 7062SOL    HW221843   4.117   3.355  12.176
 7063SOL     OW21844   3.955   3.575  11.655
 7063SOL    HW121845   3.989   3.652  11.709
 7063SOL    HW221846   3.999   3.575  11.565
 7064SOL     OW21847   3.954   3.296  11.710
 7064SOL    HW121848   3.928   3.392  11.710
 7064SOL    HW221849   3.883   3.242  11.755
 7065SOL     OW21850   3.846   2.505  11.735
 7065SOL    HW121851   3.801   2.417  11.752
 7065SOL    HW221852   3.845   2.559  11.819
 7066SOL     OW21853   3.751   3.458  11.289
 7066SOL    HW121854   3.732   3.362  11.310
 7066SOL    HW221855   3.718   3.516  11.364
 7067SOL     OW21856   3.837   2.599  12.769
 7067SOL    HW121857   3.925   2.586  12.814
 7067SOL    HW221858   3.824   2.696  12.747
 7068SOL     OW21859   3.800   2.673  11.961
 7068SOL    HW121860   3.899   2.661  11.970
 7068SOL    HW221861   3.776   2.768  11.982
 7069SOL     OW21862   3.854   3.683  12.743
 7069SOL    HW121863   3.844   3.668  12.842
 7069SOL    HW221864   3.768   3.719  12.707
 7070SOL     OW21865   3.926   2.147  12.670
 7070SOL    HW121866   3.846   2.207  12.657
 7070SOL    HW221867   3.916   2.098  12.756
 7071SOL     OW21868   4.021   1.897  11.343
 7071SOL    HW121869   4.070   1.981  11.322
 7071SOL    HW221870   4.083   1.832  11.388
 7072SOL     OW21871   3.802   2.418  12.558
 7072SOL    HW121872   3.894   2.417  12.517
 7072SOL    HW221873   3.796   2.492  12.625
 7073SOL     OW21874   4.251   2.118  11.500
 7073SOL    HW121875   4.278   2.059  11.425
 7073SOL    HW221876   4.251   2.213  11.469
 7074SOL     OW21877   3.788   3.426  12.503
 7074SOL    HW121878   3.742   3.508  12.469
 7074SOL    HW221879   3.886   3.445  12.512
 7075SOL     OW21880   4.091   2.962  11.673
 7075SOL    HW121881   4.084   3.045  11.617
 7075SOL    HW221882   4.095   2.882  11.613
 7076SOL     OW21883   4.031   2.075  12.403
 7076SOL    HW121884   4.008   2.112  12.493
 7076SOL    HW221885   4.001   1.980  12.397
 7077SOL     OW21886   3.761   3.172  12.454
 7077SOL    HW121887   3.814   3.123  12.522
 7077SOL    HW221888   3.783   3.270  12.459
 7078SOL     OW21889   4.031   1.925  11.790
 7078SOL    HW121890   4.020   2.019  11.823
 7078SOL    HW221891   4.026   1.862  11.867
 7079SOL     OW21892   3.732   3.188  11.372
 7079SOL    HW121893   3.639   3.209  11.341
 7079SOL    HW221894   3.742   3.089  11.385
 7080SOL     OW21895   3.812   3.663  12.099
 7080SOL    HW121896   3.770   3.577  12.072
 7080SOL    HW221897   3.906   3.666  12.065
 7081SOL     OW21898   4.228   3.430  12.082
 7081SOL    HW121899   4.294   3.504  12.091
 7081SOL    HW221900   4.272   3.351  12.040
 7082SOL     OW21901   3.764   2.406  12.286
 7082SOL    HW121902   3.849   2.373  12.245
 7082SOL    HW221903   3.777   2.421  12.384
 7083SOL     OW21904   3.913   2.382  12.894
 7083SOL    HW121905   3.972   2.342  12.824
 7083SOL    HW221906   3.855   2.453  12.853
 7084SOL     OW21907   3.976   3.426  12.916
 7084SOL    HW121908   3.946   3.483  12.992
 7084SOL    HW221909   3.969   3.329  12.942
 7085SOL     OW21910   3.883   2.999  12.638
 7085SOL    HW121911   3.905   2.938  12.714
 7085SOL    HW221912   3.893   2.950  12.552
 7086SOL     OW21913   3.807   3.120  12.194
 7086SOL    HW121914   3.802   3.119  12.294
 7086SOL    HW221915   3.724   3.079  12.156
 7087SOL     OW21916   3.854   3.656  13.023
 7087SOL    HW121917   3.813   3.582  13.076
 7087SOL    HW221918   3.918   3.707  13.081
 7088SOL     OW21919   3.799   2.207  11.205
 7088SOL    HW121920   3.707   2.179  11.176
 7088SOL    HW221921   3.830   2.284  11.149
 7089SOL     OW21922   3.796   2.028  11.490
 7089SOL    HW121923   3.779   2.111  11.436
 7089SOL    HW221924   3.886   1.991  11.468
 7090SOL     OW21925   3.803   3.102  11.825
 7090SOL    HW121926   3.802   3.055  11.913
 7090SOL    HW221927   3.885   3.074  11.774
 7091SOL     OW21928   3.763   2.939  11.472
 7091SOL    HW121929   3.862   2.928  11.463
 7091SOL    HW221930   3.723   2.853  11.504
 7092SOL     OW21931   3.954   2.490  13.147
 7092SOL    HW121932   3.861   2.488  13.184
 7092SOL    HW221933   3.955   2.451  13.055
 7093SOL     OW21934   3.743   2.230  13.681
 7093SOL    HW121935   3.661   2.273  13.720
 7093SOL    HW221936   3.715   2.157  13.618
 7094SOL     OW21937   3.955   3.575  13.517
 7094SOL    HW121938   3.989   3.652  13.571
 7094SOL    HW221939   3.999   3.575  13.427
 7095SOL     OW21940   3.954   3.296  13.572
 7095SOL    HW121941   3.928   3.392  13.572
 7095SOL    HW221942   3.883   3.242  13.617
 7096SOL     OW21943   3.964   2.953  13.920
 7096SOL    HW121944   3.978   2.869  13.972
 7096SOL    HW221945   3.909   3.017  13.975
 7097SOL     OW21946   3.846   2.505  13.597
 7097SOL    HW121947   3.801   2.417  13.614
 7097SOL    HW221948   3.845   2.559  13.681
 7098SOL     OW21949   3.751   3.458  13.151
 7098SOL    HW121950   3.732   3.362  13.172
 7098SOL    HW221951   3.718   3.516  13.226
 7099SOL     OW21952   3.800   2.673  13.823
 7099SOL    HW121953   3.899   2.661  13.832
 7099SOL    HW221954   3.776   2.768  13.844
 7100SOL     OW21955   4.075   3.663  13.887
 7100SOL    HW121956   4.125   3.577  13.893
 7100SOL    HW221957   4.140   3.740  13.884
 7101SOL     OW21958   4.021   1.897  13.205
 7101SOL    HW121959   4.070   1.981  13.184
 7101SOL    HW221960   4.083   1.832  13.250
 7102SOL     OW21961   4.251   2.118  13.362
 7102SOL    HW121962   4.278   2.059  13.287
 7102SOL    HW221963   4.251   2.213  13.331
 7103SOL     OW21964   4.091   2.962  13.535
 7103SOL    HW121965   4.084   3.045  13.479
 7103SOL    HW221966   4.095   2.882  13.475
 7104SOL     OW21967   4.031   1.925  13.652
 7104SOL    HW121968   4.020   2.019  13.685
 7104SOL    HW221969   4.026   1.862  13.729
 7105SOL     OW21970   3.732   3.188  13.234
 7105SOL    HW121971   3.639   3.209  13.203
 7105SOL    HW221972   3.742   3.089  13.247
 7106SOL     OW21973   4.228   3.430  13.944
 7106SOL    HW121974   4.294   3.504  13.953
 7106SOL    HW221975   4.272   3.351  13.902
 7107SOL     OW21976   3.799   2.207  13.067
 7107SOL    HW121977   3.707   2.179  13.038
 7107SOL    HW221978   3.830   2.284  13.011
 7108SOL     OW21979   3.796   2.028  13.352
 7108SOL    HW121980   3.779   2.111  13.298
 7108SOL    HW221981   3.886   1.991  13.330
 7109SOL     OW21982   3.803   3.102  13.687
 7109SOL    HW121983   3.802   3.055  13.775
 7109SOL    HW221984   3.885   3.074  13.636
 7110SOL     OW21985   3.763   2.939  13.334
 7110SOL    HW121986   3.862   2.928  13.325
 7110SOL    HW221987   3.723   2.853  13.366
 7111SOL     OW21988   3.949   3.999   0.996
 7111SOL    HW121989   3.984   3.982   1.088
 7111SOL    HW221990   3.861   3.954   0.984
 7112SOL     OW21991   3.743   4.092   0.647
 7112SOL    HW121992   3.661   4.135   0.686
 7112SOL    HW221993   3.715   4.019   0.584
 7113SOL     OW21994   3.926   4.009   1.498
 7113SOL    HW121995   3.846   4.069   1.485
 7113SOL    HW221996   3.916   3.960   1.584
 7114SOL     OW21997   4.021   3.759   0.171
 7114SOL    HW121998   4.070   3.843   0.150
 7114SOL    HW221999   4.083   3.694   0.216
 7115SOL     OW22000   4.031   3.937   1.231
 7115SOL    HW122001   4.008   3.974   1.321
 7115SOL    HW222002   4.001   3.842   1.225
 7116SOL     OW22003   4.031   3.787   0.618
 7116SOL    HW122004   4.020   3.881   0.651
 7116SOL    HW222005   4.026   3.724   0.695
 7117SOL     OW22006   3.796   3.890   0.318
 7117SOL    HW122007   3.779   3.973   0.264
 7117SOL    HW222008   3.886   3.853   0.296
 7118SOL     OW22009   3.949   3.999   2.858
 7118SOL    HW122010   3.984   3.982   2.950
 7118SOL    HW222011   3.861   3.954   2.846
 7119SOL     OW22012   3.743   4.092   2.509
 7119SOL    HW122013   3.661   4.135   2.548
 7119SOL    HW222014   3.715   4.019   2.446
 7120SOL     OW22015   3.926   4.009   3.360
 7120SOL    HW122016   3.846   4.069   3.347
 7120SOL    HW222017   3.916   3.960   3.446
 7121SOL     OW22018   4.021   3.759   2.033
 7121SOL    HW122019   4.070   3.843   2.012
 7121SOL    HW222020   4.083   3.694   2.078
 7122SOL     OW22021   4.031   3.937   3.093
 7122SOL    HW122022   4.008   3.974   3.183
 7122SOL    HW222023   4.001   3.842   3.087
 7123SOL     OW22024   4.031   3.787   2.480
 7123SOL    HW122025   4.020   3.881   2.513
 7123SOL    HW222026   4.026   3.724   2.557
 7124SOL     OW22027   3.799   4.069   1.895
 7124SOL    HW122028   3.707   4.041   1.866
 7124SOL    HW222029   3.830   4.146   1.839
 7125SOL     OW22030   3.796   3.890   2.180
 7125SOL    HW122031   3.779   3.973   2.126
 7125SOL    HW222032   3.886   3.853   2.158
 7126SOL     OW22033   3.949   3.999   4.720
 7126SOL    HW122034   3.984   3.982   4.812
 7126SOL    HW222035   3.861   3.954   4.708
 7127SOL     OW22036   3.743   4.092   4.371
 7127SOL    HW122037   3.661   4.135   4.410
 7127SOL    HW222038   3.715   4.019   4.308
 7128SOL     OW22039   3.926   4.009   5.222
 7128SOL    HW122040   3.846   4.069   5.209
 7128SOL    HW222041   3.916   3.960   5.308
 7129SOL     OW22042   4.021   3.759   3.895
 7129SOL    HW122043   4.070   3.843   3.874
 7129SOL    HW222044   4.083   3.694   3.940
 7130SOL     OW22045   4.031   3.937   4.955
 7130SOL    HW122046   4.008   3.974   5.045
 7130SOL    HW222047   4.001   3.842   4.949
 7131SOL     OW22048   4.031   3.787   4.342
 7131SOL    HW122049   4.020   3.881   4.375
 7131SOL    HW222050   4.026   3.724   4.419
 7132SOL     OW22051   3.799   4.069   3.757
 7132SOL    HW122052   3.707   4.041   3.728
 7132SOL    HW222053   3.830   4.146   3.701
 7133SOL     OW22054   3.796   3.890   4.042
 7133SOL    HW122055   3.779   3.973   3.988
 7133SOL    HW222056   3.886   3.853   4.020
 7134SOL     OW22057   3.949   3.999   6.582
 7134SOL    HW122058   3.984   3.982   6.674
 7134SOL    HW222059   3.861   3.954   6.570
 7135SOL     OW22060   3.743   4.092   6.233
 7135SOL    HW122061   3.661   4.135   6.272
 7135SOL    HW222062   3.715   4.019   6.170
 7136SOL     OW22063   3.926   4.009   7.084
 7136SOL    HW122064   3.846   4.069   7.071
 7136SOL    HW222065   3.916   3.960   7.170
 7137SOL     OW22066   4.021   3.759   5.757
 7137SOL    HW122067   4.070   3.843   5.736
 7137SOL    HW222068   4.083   3.694   5.802
 7138SOL     OW22069   4.031   3.937   6.817
 7138SOL    HW122070   4.008   3.974   6.907
 7138SOL    HW222071   4.001   3.842   6.811
 7139SOL     OW22072   4.031   3.787   6.204
 7139SOL    HW122073   4.020   3.881   6.237
 7139SOL    HW222074   4.026   3.724   6.281
 7140SOL     OW22075   3.799   4.069   5.619
 7140SOL    HW122076   3.707   4.041   5.590
 7140SOL    HW222077   3.830   4.146   5.563
 7141SOL     OW22078   3.796   3.890   5.904
 7141SOL    HW122079   3.779   3.973   5.850
 7141SOL    HW222080   3.886   3.853   5.882
 7142SOL     OW22081   3.949   3.999   8.444
 7142SOL    HW122082   3.984   3.982   8.536
 7142SOL    HW222083   3.861   3.954   8.432
 7143SOL     OW22084   3.743   4.092   8.095
 7143SOL    HW122085   3.661   4.135   8.134
 7143SOL    HW222086   3.715   4.019   8.032
 7144SOL     OW22087   3.926   4.009   8.946
 7144SOL    HW122088   3.846   4.069   8.933
 7144SOL    HW222089   3.916   3.960   9.032
 7145SOL     OW22090   4.021   3.759   7.619
 7145SOL    HW122091   4.070   3.843   7.598
 7145SOL    HW222092   4.083   3.694   7.664
 7146SOL     OW22093   4.031   3.937   8.679
 7146SOL    HW122094   4.008   3.974   8.769
 7146SOL    HW222095   4.001   3.842   8.673
 7147SOL     OW22096   4.031   3.787   8.066
 7147SOL    HW122097   4.020   3.881   8.099
 7147SOL    HW222098   4.026   3.724   8.143
 7148SOL     OW22099   3.799   4.069   7.481
 7148SOL    HW122100   3.707   4.041   7.452
 7148SOL    HW222101   3.830   4.146   7.425
 7149SOL     OW22102   3.796   3.890   7.766
 7149SOL    HW122103   3.779   3.973   7.712
 7149SOL    HW222104   3.886   3.853   7.744
 7150SOL     OW22105   3.949   3.999  10.306
 7150SOL    HW122106   3.984   3.982  10.398
 7150SOL    HW222107   3.861   3.954  10.294
 7151SOL     OW22108   3.743   4.092   9.957
 7151SOL    HW122109   3.661   4.135   9.996
 7151SOL    HW222110   3.715   4.019   9.894
 7152SOL     OW22111   3.926   4.009  10.808
 7152SOL    HW122112   3.846   4.069  10.795
 7152SOL    HW222113   3.916   3.960  10.894
 7153SOL     OW22114   4.021   3.759   9.481
 7153SOL    HW122115   4.070   3.843   9.460
 7153SOL    HW222116   4.083   3.694   9.526
 7154SOL     OW22117   4.031   3.937  10.541
 7154SOL    HW122118   4.008   3.974  10.631
 7154SOL    HW222119   4.001   3.842  10.535
 7155SOL     OW22120   4.031   3.787   9.928
 7155SOL    HW122121   4.020   3.881   9.961
 7155SOL    HW222122   4.026   3.724  10.005
 7156SOL     OW22123   3.799   4.069   9.343
 7156SOL    HW122124   3.707   4.041   9.314
 7156SOL    HW222125   3.830   4.146   9.287
 7157SOL     OW22126   3.796   3.890   9.628
 7157SOL    HW122127   3.779   3.973   9.574
 7157SOL    HW222128   3.886   3.853   9.606
 7158SOL     OW22129   3.949   3.999  12.168
 7158SOL    HW122130   3.984   3.982  12.260
 7158SOL    HW222131   3.861   3.954  12.156
 7159SOL     OW22132   3.743   4.092  11.819
 7159SOL    HW122133   3.661   4.135  11.858
 7159SOL    HW222134   3.715   4.019  11.756
 7160SOL     OW22135   3.926   4.009  12.670
 7160SOL    HW122136   3.846   4.069  12.657
 7160SOL    HW222137   3.916   3.960  12.756
 7161SOL     OW22138   4.021   3.759  11.343
 7161SOL    HW122139   4.070   3.843  11.322
 7161SOL    HW222140   4.083   3.694  11.388
 7162SOL     OW22141   4.031   3.937  12.403
 7162SOL    HW122142   4.008   3.974  12.493
 7162SOL    HW222143   4.001   3.842  12.397
 7163SOL     OW22144   4.031   3.787  11.790
 7163SOL    HW122145   4.020   3.881  11.823
 7163SOL    HW222146   4.026   3.724  11.867
 7164SOL     OW22147   3.799   4.069  11.205
 7164SOL    HW122148   3.707   4.041  11.176
 7164SOL    HW222149   3.830   4.146  11.149
 7165SOL     OW22150   3.796   3.890  11.490
 7165SOL    HW122151   3.779   3.973  11.436
 7165SOL    HW222152   3.886   3.853  11.468
 7166SOL     OW22153   3.743   4.092  13.681
 7166SOL    HW122154   3.661   4.135  13.720
 7166SOL    HW222155   3.715   4.019  13.618
 7167SOL     OW22156   4.021   3.759  13.205
 7167SOL    HW122157   4.070   3.843  13.184
 7167SOL    HW222158   4.083   3.694  13.250
 7168SOL     OW22159   4.031   3.787  13.652
 7168SOL    HW122160   4.020   3.881  13.685
 7168SOL    HW222161   4.026   3.724  13.729
 7169SOL     OW22162   3.799   4.069  13.067
 7169SOL    HW122163   3.707   4.041  13.038
 7169SOL    HW222164   3.830   4.146  13.011
 7170SOL     OW22165   3.796   3.890  13.352
 7170SOL    HW122166   3.779   3.973  13.298
 7170SOL    HW222167   3.886   3.853  13.330
   4.00000   4.00000  13.90000
