Built with Packmol
21981
    1LIG      O    1   2.227   2.370   0.053
    1LIG      C    2   2.292   2.420   0.173
    1LIG     C1    3   2.221   2.367   0.301
    1LIG     O1    4   2.285   2.417   0.423
    1LIG     C2    5   2.220   2.368   0.544
    1LIG     C3    6   2.291   2.423   0.670
    1LIG     O2    7   2.227   2.375   0.791
    1LIG     C4    8   2.290   2.425   0.912
    1LIG     C5    9   2.218   2.370   1.038
    1LIG     O3   10   2.281   2.420   1.160
    1LIG     C6   11   2.216   2.371   1.280
    1LIG     C7   12   2.288   2.427   1.406
    1LIG     O4   13   2.224   2.379   1.528
    1LIG     C8   14   2.288   2.429   1.649
    1LIG     C9   15   2.215   2.373   1.774
    1LIG     O5   16   2.279   2.423   1.895
    1LIG    C10   17   2.215   2.374   2.016
    1LIG    C11   18   2.287   2.430   2.141
    1LIG     O6   19   2.223   2.381   2.263
    1LIG    C12   20   2.286   2.430   2.384
    1LIG    C13   21   2.213   2.375   2.509
    1LIG     O7   22   2.277   2.424   2.630
    1LIG    C14   23   2.213   2.375   2.752
    1LIG    C15   24   2.285   2.430   2.878
    1LIG     O8   25   2.221   2.381   3.000
    1LIG    C16   26   2.285   2.431   3.121
    1LIG    C17   27   2.214   2.376   3.247
    1LIG     O9   28   2.277   2.425   3.369
    1LIG    C18   29   2.212   2.376   3.489
    1LIG    C19   30   2.284   2.431   3.614
    1LIG    O10   31   2.221   2.382   3.736
    1LIG    C20   32   2.285   2.432   3.857
    1LIG    C21   33   2.212   2.376   3.982
    1LIG    O11   34   2.276   2.425   4.103
    1LIG    C22   35   2.212   2.376   4.224
    1LIG    C23   36   2.284   2.432   4.350
    1LIG    O12   37   2.220   2.383   4.471
    1LIG    C24   38   2.284   2.432   4.593
    1LIG    C25   39   2.212   2.377   4.719
    1LIG    O13   40   2.275   2.426   4.840
    1LIG    C26   41   2.211   2.377   4.961
    1LIG    C27   42   2.283   2.432   5.086
    1LIG    O14   43   2.219   2.383   5.208
    1LIG    C28   44   2.284   2.432   5.329
    1LIG    C29   45   2.212   2.376   5.455
    1LIG    O15   46   2.276   2.425   5.577
    1LIG    C30   47   2.212   2.376   5.697
    1LIG    C31   48   2.284   2.431   5.822
    1LIG    O16   49   2.220   2.382   5.943
    1LIG    C32   50   2.284   2.431   6.065
    1LIG    C33   51   2.212   2.376   6.190
    1LIG    O17   52   2.276   2.425   6.312
    1LIG    C34   53   2.212   2.375   6.433
    1LIG    C35   54   2.284   2.430   6.559
    1LIG    O18   55   2.220   2.381   6.680
    1LIG    C36   56   2.284   2.430   6.801
    1LIG    C37   57   2.213   2.375   6.927
    1LIG    O19   58   2.277   2.424   7.049
    1LIG    C38   59   2.213   2.374   7.169
    1LIG    C39   60   2.284   2.429   7.295
    1LIG    O20   61   2.221   2.380   7.417
    1LIG    C40   62   2.285   2.429   7.538
    1LIG    C41   63   2.214   2.374   7.664
    1LIG    O21   64   2.277   2.423   7.785
    1LIG    C42   65   2.213   2.373   7.906
    1LIG    C43   66   2.285   2.428   8.031
    1LIG    O22   67   2.222   2.379   8.153
    1LIG    C44   68   2.286   2.428   8.274
    1LIG    C45   69   2.214   2.372   8.399
    1LIG    O23   70   2.278   2.421   8.521
    1LIG    C46   71   2.214   2.372   8.642
    1LIG    C47   72   2.287   2.428   8.767
    1LIG    O24   73   2.223   2.378   8.888
    1LIG    C48   74   2.286   2.427   9.010
    1LIG    C49   75   2.214   2.371   9.135
    1LIG    O25   76   2.278   2.420   9.256
    1LIG    C50   77   2.215   2.371   9.378
    1LIG    C51   78   2.287   2.427   9.503
    1LIG    O26   79   2.224   2.377   9.624
    1LIG    C52   80   2.287   2.426   9.745
    1LIG    C53   81   2.215   2.369   9.870
    1LIG    O27   82   2.279   2.419   9.991
    1LIG    C54   83   2.216   2.369  10.113
    1LIG    C55   84   2.288   2.425  10.240
    1LIG    O28   85   2.224   2.375  10.361
    1LIG    C56   86   2.288   2.424  10.482
    1LIG    C57   87   2.217   2.368  10.609
    1LIG    O29   88   2.281   2.417  10.731
    1LIG    C58   89   2.217   2.367  10.852
    1LIG    C59   90   2.288   2.422  10.978
    1LIG      H   91   2.289   2.530   0.171
    1LIG     H1   92   2.397   2.389   0.172
    1LIG     H2   93   2.224   2.258   0.301
    1LIG     H3   94   2.116   2.398   0.300
    1LIG     H4   95   2.223   2.258   0.546
    1LIG     H5   96   2.115   2.399   0.545
    1LIG     H6   97   2.289   2.533   0.667
    1LIG     H7   98   2.397   2.392   0.669
    1LIG     H8   99   2.288   2.534   0.913
    1LIG     H9  100   2.395   2.394   0.914
    1LIG    H10  101   2.221   2.261   1.037
    1LIG    H11  102   2.113   2.401   1.036
    1LIG    H12  103   2.219   2.262   1.282
    1LIG    H13  104   2.111   2.402   1.281
    1LIG    H14  105   2.285   2.537   1.404
    1LIG    H15  106   2.393   2.396   1.405
    1LIG    H16  107   2.285   2.538   1.650
    1LIG    H17  108   2.393   2.398   1.651
    1LIG    H18  109   2.218   2.264   1.772
    1LIG    H19  110   2.110   2.404   1.772
    1LIG    H20  111   2.217   2.264   2.018
    1LIG    H21  112   2.109   2.405   2.018
    1LIG    H22  113   2.284   2.539   2.140
    1LIG    H23  114   2.392   2.399   2.140
    1LIG    H24  115   2.283   2.539   2.385
    1LIG    H25  116   2.391   2.399   2.386
    1LIG    H26  117   2.216   2.265   2.508
    1LIG    H27  118   2.108   2.406   2.508
    1LIG    H28  119   2.216   2.265   2.754
    1LIG    H29  120   2.108   2.406   2.753
    1LIG    H30  121   2.282   2.540   2.877
    1LIG    H31  122   2.390   2.399   2.877
    1LIG    H32  123   2.282   2.541   3.122
    1LIG    H33  124   2.390   2.400   3.122
    1LIG    H34  125   2.216   2.267   3.245
    1LIG    H35  126   2.108   2.407   3.245
    1LIG    H36  127   2.215   2.266   3.490
    1LIG    H37  128   2.107   2.407   3.490
    1LIG    H38  129   2.281   2.541   3.613
    1LIG    H39  130   2.389   2.400   3.613
    1LIG    H40  131   2.282   2.541   3.858
    1LIG    H41  132   2.390   2.401   3.858
    1LIG    H42  133   2.215   2.267   3.980
    1LIG    H43  134   2.107   2.407   3.980
    1LIG    H44  135   2.215   2.267   4.226
    1LIG    H45  136   2.107   2.407   4.226
    1LIG    H46  137   2.281   2.542   4.348
    1LIG    H47  138   2.390   2.401   4.348
    1LIG    H48  139   2.281   2.541   4.594
    1LIG    H49  140   2.389   2.401   4.594
    1LIG    H50  141   2.215   2.267   4.717
    1LIG    H51  142   2.107   2.408   4.717
    1LIG    H52  143   2.214   2.267   4.963
    1LIG    H53  144   2.106   2.408   4.963
    1LIG    H54  145   2.280   2.542   5.085
    1LIG    H55  146   2.388   2.401   5.085
    1LIG    H56  147   2.281   2.541   5.331
    1LIG    H57  148   2.389   2.401   5.330
    1LIG    H58  149   2.215   2.267   5.453
    1LIG    H59  150   2.107   2.407   5.454
    1LIG    H60  151   2.215   2.266   5.699
    1LIG    H61  152   2.107   2.407   5.699
    1LIG    H62  153   2.281   2.541   5.821
    1LIG    H63  154   2.389   2.400   5.821
    1LIG    H64  155   2.281   2.540   6.066
    1LIG    H65  156   2.389   2.400   6.066
    1LIG    H66  157   2.215   2.266   6.189
    1LIG    H67  158   2.107   2.407   6.189
    1LIG    H68  159   2.215   2.266   6.434
    1LIG    H69  160   2.107   2.406   6.434
    1LIG    H70  161   2.281   2.540   6.558
    1LIG    H71  162   2.389   2.400   6.557
    1LIG    H72  163   2.281   2.540   6.802
    1LIG    H73  164   2.390   2.400   6.802
    1LIG    H74  165   2.216   2.266   6.926
    1LIG    H75  166   2.108   2.406   6.926
    1LIG    H76  167   2.216   2.265   7.170
    1LIG    H77  168   2.108   2.405   7.171
    1LIG    H78  169   2.281   2.538   7.294
    1LIG    H79  170   2.390   2.398   7.294
    1LIG    H80  171   2.282   2.539   7.539
    1LIG    H81  172   2.390   2.399   7.539
    1LIG    H82  173   2.217   2.264   7.662
    1LIG    H83  174   2.108   2.404   7.663
    1LIG    H84  175   2.217   2.263   7.907
    1LIG    H85  176   2.108   2.403   7.907
    1LIG    H86  177   2.282   2.538   8.030
    1LIG    H87  178   2.391   2.398   8.029
    1LIG    H88  179   2.283   2.538   8.276
    1LIG    H89  180   2.391   2.398   8.275
    1LIG    H90  181   2.217   2.263   8.397
    1LIG    H91  182   2.109   2.403   8.398
    1LIG    H92  183   2.218   2.262   8.644
    1LIG    H93  184   2.109   2.402   8.644
    1LIG    H94  185   2.283   2.537   8.766
    1LIG    H95  186   2.392   2.397   8.766
    1LIG    H96  187   2.283   2.536   9.012
    1LIG    H97  188   2.391   2.396   9.011
    1LIG    H98  189   2.218   2.261   9.133
    1LIG    H99  190   2.109   2.401   9.134
    1LIG   H100  191   2.218   2.261   9.379
    1LIG   H101  192   2.110   2.401   9.380
    1LIG   H102  193   2.284   2.536   9.502
    1LIG   H103  194   2.392   2.396   9.501
    1LIG   H104  195   2.284   2.535   9.747
    1LIG   H105  196   2.392   2.395   9.747
    1LIG   H106  197   2.219   2.260   9.869
    1LIG   H107  198   2.110   2.400   9.869
    1LIG   H108  199   2.220   2.260  10.114
    1LIG   H109  200   2.111   2.400  10.115
    1LIG   H110  201   2.284   2.534  10.238
    1LIG   H111  202   2.393   2.394  10.238
    1LIG   H112  203   2.285   2.534  10.484
    1LIG   H113  204   2.394   2.394  10.483
    1LIG   H114  205   2.221   2.259  10.607
    1LIG   H115  206   2.112   2.399  10.608
    1LIG   H116  207   2.221   2.257  10.852
    1LIG   H117  208   2.112   2.399  10.853
    1LIG   H118  209   2.393   2.392  10.978
    1LIG   H119  210   2.241   2.385  11.073
    1LIG      O  211   2.227   2.070   0.053
    1LIG      C  212   2.292   2.120   0.173
    1LIG     C1  213   2.221   2.067   0.301
    1LIG     O1  214   2.285   2.117   0.423
    1LIG     C2  215   2.220   2.068   0.544
    1LIG     C3  216   2.291   2.123   0.670
    1LIG     O2  217   2.227   2.075   0.791
    1LIG     C4  218   2.290   2.125   0.912
    1LIG     C5  219   2.218   2.070   1.038
    1LIG     O3  220   2.281   2.120   1.160
    1LIG     C6  221   2.216   2.071   1.280
    1LIG     C7  222   2.288   2.127   1.406
    1LIG     O4  223   2.224   2.079   1.528
    1LIG     C8  224   2.288   2.129   1.649
    1LIG     C9  225   2.215   2.073   1.774
    1LIG     O5  226   2.279   2.123   1.895
    1LIG    C10  227   2.215   2.074   2.016
    1LIG    C11  228   2.287   2.130   2.141
    1LIG     O6  229   2.223   2.081   2.263
    1LIG    C12  230   2.286   2.130   2.384
    1LIG    C13  231   2.213   2.075   2.509
    1LIG     O7  232   2.277   2.124   2.630
    1LIG    C14  233   2.213   2.075   2.752
    1LIG    C15  234   2.285   2.130   2.878
    1LIG     O8  235   2.221   2.081   3.000
    1LIG    C16  236   2.285   2.131   3.121
    1LIG    C17  237   2.214   2.076   3.247
    1LIG     O9  238   2.277   2.125   3.369
    1LIG    C18  239   2.212   2.076   3.489
    1LIG    C19  240   2.284   2.131   3.614
    1LIG    O10  241   2.221   2.082   3.736
    1LIG    C20  242   2.285   2.132   3.857
    1LIG    C21  243   2.212   2.076   3.982
    1LIG    O11  244   2.276   2.125   4.103
    1LIG    C22  245   2.212   2.076   4.224
    1LIG    C23  246   2.284   2.132   4.350
    1LIG    O12  247   2.220   2.083   4.471
    1LIG    C24  248   2.284   2.132   4.593
    1LIG    C25  249   2.212   2.077   4.719
    1LIG    O13  250   2.275   2.126   4.840
    1LIG    C26  251   2.211   2.077   4.961
    1LIG    C27  252   2.283   2.132   5.086
    1LIG    O14  253   2.219   2.083   5.208
    1LIG    C28  254   2.284   2.132   5.329
    1LIG    C29  255   2.212   2.076   5.455
    1LIG    O15  256   2.276   2.125   5.577
    1LIG    C30  257   2.212   2.076   5.697
    1LIG    C31  258   2.284   2.131   5.822
    1LIG    O16  259   2.220   2.082   5.943
    1LIG    C32  260   2.284   2.131   6.065
    1LIG    C33  261   2.212   2.076   6.190
    1LIG    O17  262   2.276   2.125   6.312
    1LIG    C34  263   2.212   2.075   6.433
    1LIG    C35  264   2.284   2.130   6.559
    1LIG    O18  265   2.220   2.081   6.680
    1LIG    C36  266   2.284   2.130   6.801
    1LIG    C37  267   2.213   2.075   6.927
    1LIG    O19  268   2.277   2.124   7.049
    1LIG    C38  269   2.213   2.074   7.169
    1LIG    C39  270   2.284   2.129   7.295
    1LIG    O20  271   2.221   2.080   7.417
    1LIG    C40  272   2.285   2.129   7.538
    1LIG    C41  273   2.214   2.074   7.664
    1LIG    O21  274   2.277   2.123   7.785
    1LIG    C42  275   2.213   2.073   7.906
    1LIG    C43  276   2.285   2.128   8.031
    1LIG    O22  277   2.222   2.079   8.153
    1LIG    C44  278   2.286   2.128   8.274
    1LIG    C45  279   2.214   2.072   8.399
    1LIG    O23  280   2.278   2.121   8.521
    1LIG    C46  281   2.214   2.072   8.642
    1LIG    C47  282   2.287   2.128   8.767
    1LIG    O24  283   2.223   2.078   8.888
    1LIG    C48  284   2.286   2.127   9.010
    1LIG    C49  285   2.214   2.071   9.135
    1LIG    O25  286   2.278   2.120   9.256
    1LIG    C50  287   2.215   2.071   9.378
    1LIG    C51  288   2.287   2.127   9.503
    1LIG    O26  289   2.224   2.077   9.624
    1LIG    C52  290   2.287   2.126   9.745
    1LIG    C53  291   2.215   2.069   9.870
    1LIG    O27  292   2.279   2.119   9.991
    1LIG    C54  293   2.216   2.069  10.113
    1LIG    C55  294   2.288   2.125  10.240
    1LIG    O28  295   2.224   2.075  10.361
    1LIG    C56  296   2.288   2.124  10.482
    1LIG    C57  297   2.217   2.068  10.609
    1LIG    O29  298   2.281   2.117  10.731
    1LIG    C58  299   2.217   2.067  10.852
    1LIG    C59  300   2.288   2.122  10.978
    1LIG      H  301   2.289   2.230   0.171
    1LIG     H1  302   2.397   2.089   0.172
    1LIG     H2  303   2.224   1.958   0.301
    1LIG     H3  304   2.116   2.098   0.300
    1LIG     H4  305   2.223   1.958   0.546
    1LIG     H5  306   2.115   2.099   0.545
    1LIG     H6  307   2.289   2.233   0.667
    1LIG     H7  308   2.397   2.092   0.669
    1LIG     H8  309   2.288   2.234   0.913
    1LIG     H9  310   2.395   2.094   0.914
    1LIG    H10  311   2.221   1.961   1.037
    1LIG    H11  312   2.113   2.101   1.036
    1LIG    H12  313   2.219   1.962   1.282
    1LIG    H13  314   2.111   2.102   1.281
    1LIG    H14  315   2.285   2.237   1.404
    1LIG    H15  316   2.393   2.096   1.405
    1LIG    H16  317   2.285   2.238   1.650
    1LIG    H17  318   2.393   2.098   1.651
    1LIG    H18  319   2.218   1.964   1.772
    1LIG    H19  320   2.110   2.104   1.772
    1LIG    H20  321   2.217   1.964   2.018
    1LIG    H21  322   2.109   2.105   2.018
    1LIG    H22  323   2.284   2.239   2.140
    1LIG    H23  324   2.392   2.099   2.140
    1LIG    H24  325   2.283   2.239   2.385
    1LIG    H25  326   2.391   2.099   2.386
    1LIG    H26  327   2.216   1.965   2.508
    1LIG    H27  328   2.108   2.106   2.508
    1LIG    H28  329   2.216   1.965   2.754
    1LIG    H29  330   2.108   2.106   2.753
    1LIG    H30  331   2.282   2.240   2.877
    1LIG    H31  332   2.390   2.099   2.877
    1LIG    H32  333   2.282   2.241   3.122
    1LIG    H33  334   2.390   2.100   3.122
    1LIG    H34  335   2.216   1.967   3.245
    1LIG    H35  336   2.108   2.107   3.245
    1LIG    H36  337   2.215   1.966   3.490
    1LIG    H37  338   2.107   2.107   3.490
    1LIG    H38  339   2.281   2.241   3.613
    1LIG    H39  340   2.389   2.100   3.613
    1LIG    H40  341   2.282   2.241   3.858
    1LIG    H41  342   2.390   2.101   3.858
    1LIG    H42  343   2.215   1.967   3.980
    1LIG    H43  344   2.107   2.107   3.980
    1LIG    H44  345   2.215   1.967   4.226
    1LIG    H45  346   2.107   2.107   4.226
    1LIG    H46  347   2.281   2.242   4.348
    1LIG    H47  348   2.390   2.101   4.348
    1LIG    H48  349   2.281   2.241   4.594
    1LIG    H49  350   2.389   2.101   4.594
    1LIG    H50  351   2.215   1.967   4.717
    1LIG    H51  352   2.107   2.108   4.717
    1LIG    H52  353   2.214   1.967   4.963
    1LIG    H53  354   2.106   2.108   4.963
    1LIG    H54  355   2.280   2.242   5.085
    1LIG    H55  356   2.388   2.101   5.085
    1LIG    H56  357   2.281   2.241   5.331
    1LIG    H57  358   2.389   2.101   5.330
    1LIG    H58  359   2.215   1.967   5.453
    1LIG    H59  360   2.107   2.107   5.454
    1LIG    H60  361   2.215   1.966   5.699
    1LIG    H61  362   2.107   2.107   5.699
    1LIG    H62  363   2.281   2.241   5.821
    1LIG    H63  364   2.389   2.100   5.821
    1LIG    H64  365   2.281   2.240   6.066
    1LIG    H65  366   2.389   2.100   6.066
    1LIG    H66  367   2.215   1.966   6.189
    1LIG    H67  368   2.107   2.107   6.189
    1LIG    H68  369   2.215   1.966   6.434
    1LIG    H69  370   2.107   2.106   6.434
    1LIG    H70  371   2.281   2.240   6.558
    1LIG    H71  372   2.389   2.100   6.557
    1LIG    H72  373   2.281   2.240   6.802
    1LIG    H73  374   2.390   2.100   6.802
    1LIG    H74  375   2.216   1.966   6.926
    1LIG    H75  376   2.108   2.106   6.926
    1LIG    H76  377   2.216   1.965   7.170
    1LIG    H77  378   2.108   2.105   7.171
    1LIG    H78  379   2.281   2.238   7.294
    1LIG    H79  380   2.390   2.098   7.294
    1LIG    H80  381   2.282   2.239   7.539
    1LIG    H81  382   2.390   2.099   7.539
    1LIG    H82  383   2.217   1.964   7.662
    1LIG    H83  384   2.108   2.104   7.663
    1LIG    H84  385   2.217   1.963   7.907
    1LIG    H85  386   2.108   2.103   7.907
    1LIG    H86  387   2.282   2.238   8.030
    1LIG    H87  388   2.391   2.098   8.029
    1LIG    H88  389   2.283   2.238   8.276
    1LIG    H89  390   2.391   2.098   8.275
    1LIG    H90  391   2.217   1.963   8.397
    1LIG    H91  392   2.109   2.103   8.398
    1LIG    H92  393   2.218   1.962   8.644
    1LIG    H93  394   2.109   2.102   8.644
    1LIG    H94  395   2.283   2.237   8.766
    1LIG    H95  396   2.392   2.097   8.766
    1LIG    H96  397   2.283   2.236   9.012
    1LIG    H97  398   2.391   2.096   9.011
    1LIG    H98  399   2.218   1.961   9.133
    1LIG    H99  400   2.109   2.101   9.134
    1LIG   H100  401   2.218   1.961   9.379
    1LIG   H101  402   2.110   2.101   9.380
    1LIG   H102  403   2.284   2.236   9.502
    1LIG   H103  404   2.392   2.096   9.501
    1LIG   H104  405   2.284   2.235   9.747
    1LIG   H105  406   2.392   2.095   9.747
    1LIG   H106  407   2.219   1.960   9.869
    1LIG   H107  408   2.110   2.100   9.869
    1LIG   H108  409   2.220   1.960  10.114
    1LIG   H109  410   2.111   2.100  10.115
    1LIG   H110  411   2.284   2.234  10.238
    1LIG   H111  412   2.393   2.094  10.238
    1LIG   H112  413   2.285   2.234  10.484
    1LIG   H113  414   2.394   2.094  10.483
    1LIG   H114  415   2.221   1.959  10.607
    1LIG   H115  416   2.112   2.099  10.608
    1LIG   H116  417   2.221   1.957  10.852
    1LIG   H117  418   2.112   2.099  10.853
    1LIG   H118  419   2.393   2.092  10.978
    1LIG   H119  420   2.241   2.085  11.073
    1MOL     C1  421   1.729   1.797   5.446
    1MOL     H1  422   1.707   1.690   5.436
    1MOL     O1  423   1.683   1.830   5.576
    1MOL     C2  424   1.703   1.968   5.612
    1MOL     H2  425   1.809   1.995   5.598
    1MOL     C3  426   1.672   1.981   5.760
    1MOL     H3  427   1.705   2.080   5.795
    1MOL     H4  428   1.728   1.904   5.815
    1MOL     O2  429   1.532   1.966   5.782
    1MOL     C4  430   1.497   1.983   5.918
    1MOL     C5  431   1.647   1.878   5.343
    1MOL     H5  432   1.544   1.842   5.351
    1MOL     O3  433   1.693   1.863   5.210
    1MOL     C6  434   1.663   1.739   5.150
    1MOL     C7  435   1.646   2.029   5.373
    1MOL     H6  436   1.744   2.071   5.349
    1MOL     O4  437   1.544   2.089   5.295
    1MOL     C8  438   1.591   2.180   5.197
    1MOL     C9  439   1.616   2.057   5.521
    1MOL     H7  440   1.511   2.033   5.540
    1MOL     O5  441   1.641   2.196   5.543
    1MOL    C10  442   1.555   2.265   5.632
    1MOL     H8  443   1.477   2.198   5.667
    1MOL     O6  444   1.624   2.305   5.749
    1MOL    C11  445   1.735   2.393   5.725
    1MOL     H9  446   1.805   2.345   5.655
    1MOL    C12  447   1.808   2.412   5.857
    1MOL    H10  448   1.904   2.460   5.838
    1MOL    H11  449   1.826   2.313   5.902
    1MOL     O7  450   1.730   2.492   5.944
    1MOL    C13  451   1.796   2.520   6.065
    1MOL    C14  452   1.495   2.389   5.563
    1MOL    H12  453   1.420   2.430   5.632
    1MOL     O8  454   1.435   2.361   5.438
    1MOL    C15  455   1.311   2.294   5.445
    1MOL    C16  456   1.599   2.499   5.538
    1MOL    H13  457   1.665   2.466   5.457
    1MOL     O9  458   1.533   2.619   5.504
    1MOL    C17  459   1.547   2.659   5.369
    1MOL    C18  460   1.685   2.525   5.662
    1MOL    H14  461   1.624   2.577   5.736
    1MOL    O10  462   1.794   2.607   5.621
    1MOL    C19  463   1.835   2.712   5.706
    1MOL    H15  464   1.768   2.719   5.792
    1MOL    O11  465   1.963   2.686   5.763
    1MOL    C20  466   2.068   2.672   5.668
    1MOL    H16  467   2.042   2.593   5.595
    1MOL    C21  468   2.191   2.623   5.743
    1MOL    H17  469   2.267   2.591   5.670
    1MOL    H18  470   2.162   2.536   5.803
    1MOL    O12  471   2.241   2.726   5.827
    1MOL    C22  472   2.342   2.680   5.914
    1MOL    C23  473   1.841   2.845   5.628
    1MOL    H19  474   1.863   2.924   5.702
    1MOL    O13  475   1.722   2.875   5.559
    1MOL    C24  476   1.614   2.916   5.642
    1MOL    C25  477   1.955   2.845   5.526
    1MOL    H20  478   1.932   2.773   5.446
    1MOL    O14  479   1.969   2.976   5.471
    1MOL    C26  480   1.913   2.992   5.341
    1MOL    C27  481   2.088   2.804   5.591
    1MOL    H21  482   2.122   2.881   5.661
    1MOL    O15  483   2.188   2.780   5.491
    1MOL    C28  484   2.260   2.894   5.448
    1MOL    H22  485   2.194   2.980   5.444
    1MOL    O16  486   2.363   2.931   5.538
    1MOL    C29  487   2.463   2.831   5.561
    1MOL    H23  488   2.417   2.741   5.604
    1MOL    C30  489   2.557   2.889   5.666
    1MOL    H24  490   2.621   2.809   5.707
    1MOL    H25  491   2.495   2.930   5.747
    1MOL    O17  492   2.638   2.990   5.608
    1MOL    C31  493   2.722   3.052   5.703
    1MOL    C32  494   2.320   2.864   5.310
    1MOL    H26  495   2.369   2.956   5.276
    1MOL    O18  496   2.216   2.827   5.221
    1MOL    C33  497   2.230   2.879   5.090
    1MOL    C34  498   2.428   2.755   5.321
    1MOL    H27  499   2.379   2.661   5.349
    1MOL    O19  500   2.491   2.742   5.194
    1MOL    C35  501   2.506   2.608   5.148
    1MOL    C36  502   2.532   2.792   5.428
    1MOL    H28  503   2.589   2.878   5.391
    1MOL    O20  504   2.619   2.679   5.444
    1MOL    C37  505   2.753   2.705   5.479
    1MOL    H29  506   2.771   2.813   5.481
    1MOL    O21  507   2.782   2.662   5.611
    1MOL    C38  508   2.765   2.521   5.632
    1MOL    H30  509   2.663   2.493   5.603
    1MOL    C39  510   2.778   2.496   5.782
    1MOL    H31  511   2.745   2.394   5.804
    1MOL    H32  512   2.713   2.567   5.836
    1MOL    O22  513   2.913   2.513   5.821
    1MOL    C40  514   2.934   2.480   5.957
    1MOL    C41  515   2.850   2.635   5.381
    1MOL    H33  516   2.951   2.673   5.404
    1MOL    O23  517   2.819   2.660   5.245
    1MOL    C42  518   2.851   2.790   5.198
    1MOL    C43  519   2.854   2.483   5.399
    1MOL    H34  520   2.761   2.440   5.359
    1MOL    O24  521   2.966   2.432   5.329
    1MOL    C44  522   2.935   2.352   5.216
    1MOL    C45  523   2.866   2.444   5.546
    1MOL    H35  524   2.967   2.469   5.581
    1MOL    O25  525   2.845   2.302   5.554
    1MOL    C46  526   2.927   2.229   5.644
    1MOL    H36  527   3.002   2.295   5.688
    1MOL    O26  528   2.853   2.180   5.754
    1MOL    C47  529   2.747   2.090   5.721
    1MOL    H37  530   2.678   2.138   5.650
    1MOL    C48  531   2.669   2.061   5.849
    1MOL    H38  532   2.574   2.013   5.824
    1MOL    H39  533   2.647   2.158   5.898
    1MOL    O27  534   2.746   1.979   5.934
    1MOL    C49  535   2.673   1.939   6.049
    1MOL    C50  536   2.993   2.110   5.571
    1MOL    H40  537   3.066   2.067   5.641
    1MOL    O28  538   3.059   2.147   5.451
    1MOL    C51  539   3.181   2.217   5.469
    1MOL    C52  540   2.893   2.000   5.535
    1MOL    H41  541   2.828   2.036   5.454
    1MOL    O29  542   2.964   1.884   5.494
    1MOL    C53  543   2.959   1.858   5.355
    1MOL    C54  544   2.806   1.964   5.655
    1MOL    H42  545   2.868   1.913   5.730
    1MOL    O30  546   2.703   1.875   5.610
    1MOL    C55  547   2.679   1.758   5.684
    1MOL    H43  548   2.759   1.743   5.757
    1MOL    O31  549   2.561   1.765   5.761
    1MOL    C56  550   2.439   1.784   5.687
    1MOL    H44  551   2.443   1.879   5.632
    1MOL    C57  552   2.328   1.789   5.790
    1MOL    H45  553   2.343   1.707   5.863
    1MOL    H46  554   2.231   1.773   5.742
    1MOL    O32  555   2.331   1.915   5.856
    1MOL    C58  556   2.230   1.926   5.954
    1MOL    C59  557   2.669   1.636   5.589
    1MOL    H47  558   2.658   1.547   5.654
    1MOL    O33  559   2.781   1.619   5.505
    1MOL    C60  560   2.898   1.572   5.570
    1MOL    C61  561   2.544   1.644   5.501
    1MOL    H48  562   2.555   1.728   5.431
    1MOL    O34  563   2.524   1.522   5.431
    1MOL    C62  564   2.576   1.519   5.299
    1MOL    C63  565   2.418   1.669   5.586
    1MOL    H49  566   2.395   1.577   5.641
    1MOL    O35  567   2.308   1.704   5.501
    1MOL    C64  568   2.225   1.597   5.462
    1MOL    H50  569   2.282   1.504   5.463
    1MOL    O36  570   2.119   1.576   5.554
    1MOL    C65  571   2.024   1.682   5.566
    1MOL    H51  572   2.074   1.775   5.595
    1MOL    C66  573   1.929   1.641   5.678
    1MOL    H52  574   1.904   1.534   5.665
    1MOL    H53  575   1.837   1.699   5.675
    1MOL    O37  576   1.996   1.661   5.802
    1MOL    C67  577   1.923   1.609   5.911
    1MOL    C68  578   2.167   1.621   5.322
    1MOL    H54  579   2.117   1.528   5.294
    1MOL    O38  580   2.272   1.650   5.230
    1MOL    C69  581   2.260   1.582   5.106
    1MOL    C70  582   2.062   1.733   5.323
    1MOL    H55  583   2.112   1.828   5.346
    1MOL    O39  584   2.002   1.739   5.194
    1MOL    C71  585   2.009   1.866   5.132
    1MOL    C72  586   1.955   1.706   5.430
    1MOL    H56  587   1.898   1.617   5.401
    1MOL    O40  588   1.867   1.820   5.431
    1MOL    H57  589   1.388   1.969   5.924
    1MOL    H58  590   1.546   1.908   5.982
    1MOL    H59  591   1.523   2.083   5.954
    1MOL    H60  592   1.981   1.630   6.001
    1MOL    H61  593   1.824   1.657   5.921
    1MOL    H62  594   1.908   1.501   5.903
    1MOL    H63  595   2.235   2.028   5.994
    1MOL    H64  596   2.130   1.908   5.911
    1MOL    H65  597   2.246   1.855   6.036
    1MOL    H66  598   2.738   1.872   6.106
    1MOL    H67  599   2.647   2.025   6.112
    1MOL    H68  600   2.582   1.885   6.021
    1MOL    H69  601   3.040   2.496   5.979
    1MOL    H70  602   2.874   2.544   6.024
    1MOL    H71  603   2.908   2.375   5.977
    1MOL    H72  604   2.780   3.128   5.650
    1MOL    H73  605   2.664   3.101   5.783
    1MOL    H74  606   2.791   2.980   5.750
    1MOL    H75  607   2.374   2.766   5.974
    1MOL    H76  608   2.304   2.601   5.981
    1MOL    H77  609   2.429   2.640   5.860
    1MOL    H78  610   1.729   2.582   6.125
    1MOL    H79  611   1.819   2.428   6.121
    1MOL    H80  612   1.890   2.575   6.048
    1MOL    H81  613   1.489   2.751   5.357
    1MOL    H82  614   1.652   2.681   5.345
    1MOL    H83  615   1.508   2.583   5.300
    1MOL    H84  616   1.270   2.293   5.344
    1MOL    H85  617   1.321   2.190   5.479
    1MOL    H86  618   1.240   2.346   5.511
    1MOL    H87  619   1.502   2.218   5.144
    1MOL    H88  620   1.642   2.266   5.243
    1MOL    H89  621   1.657   2.131   5.124
    1MOL    H90  622   1.684   1.749   5.044
    1MOL    H91  623   1.725   1.657   5.190
    1MOL    H92  624   1.557   1.713   5.163
    1MOL    H93  625   1.962   1.856   5.033
    1MOL    H94  626   1.953   1.942   5.189
    1MOL    H95  627   2.113   1.898   5.118
    1MOL    H96  628   2.345   1.615   5.045
    1MOL    H97  629   2.266   1.473   5.119
    1MOL    H98  630   2.167   1.607   5.055
    1MOL    H99  631   2.547   1.423   5.257
    1MOL   H100  632   2.533   1.599   5.238
    1MOL   H101  633   2.685   1.528   5.299
    1MOL   H102  634   2.968   1.544   5.492
    1MOL   H103  635   2.945   1.650   5.632
    1MOL   H104  636   2.876   1.484   5.632
    1MOL   H105  637   3.022   1.769   5.338
    1MOL   H106  638   2.857   1.835   5.322
    1MOL   H107  639   3.000   1.942   5.297
    1MOL   H108  640   3.229   2.223   5.371
    1MOL   H109  641   3.166   2.319   5.507
    1MOL   H110  642   3.248   2.162   5.538
    1MOL   H111  643   3.030   2.322   5.172
    1MOL   H112  644   2.880   2.262   5.245
    1MOL   H113  645   2.877   2.409   5.142
    1MOL   H114  646   2.836   2.789   5.090
    1MOL   H115  647   2.785   2.866   5.241
    1MOL   H116  648   2.956   2.815   5.220
    1MOL   H117  649   2.553   2.614   5.050
    1MOL   H118  650   2.569   2.549   5.215
    1MOL   H119  651   2.408   2.559   5.137
    1MOL   H120  652   2.144   2.843   5.033
    1MOL   H121  653   2.229   2.990   5.090
    1MOL   H122  654   2.323   2.845   5.042
    1MOL   H123  655   1.929   3.097   5.313
    1MOL   H124  656   1.963   2.927   5.268
    1MOL   H125  657   1.805   2.971   5.342
    1MOL   H126  658   1.536   2.952   5.575
    1MOL   H127  659   1.573   2.833   5.701
    1MOL   H128  660   1.644   2.998   5.709
    2SOL     OW  661   0.230   0.628   0.113
    2SOL    HW1  662   0.137   0.626   0.150
    2SOL    HW2  663   0.231   0.589   0.021
    3SOL     OW  664   0.225   0.275   0.996
    3SOL    HW1  665   0.260   0.258   1.088
    3SOL    HW2  666   0.137   0.230   0.984
    4SOL     OW  667   0.019   0.368   0.647
    4SOL    HW1  668  -0.063   0.411   0.686
    4SOL    HW2  669  -0.009   0.295   0.584
    5SOL     OW  670   0.569   1.275   1.165
    5SOL    HW1  671   0.476   1.268   1.128
    5SOL    HW2  672   0.580   1.364   1.209
    6SOL     OW  673   1.555   1.511   0.703
    6SOL    HW1  674   1.498   1.495   0.784
    6SOL    HW2  675   1.496   1.521   0.623
    7SOL     OW  676   1.135   0.703   0.717
    7SOL    HW1  677   1.192   0.781   0.692
    7SOL    HW2  678   1.075   0.729   0.793
    8SOL     OW  679   1.755   0.607   0.231
    8SOL    HW1  680   1.743   0.594   0.132
    8SOL    HW2  681   1.725   0.526   0.280
    9SOL     OW  682   0.768   1.144   1.023
    9SOL    HW1  683   0.690   1.161   1.083
    9SOL    HW2  684   0.802   1.231   0.987
   10SOL     OW  685   0.850   0.798   1.823
   10SOL    HW1  686   0.846   0.874   1.888
   10SOL    HW2  687   0.872   0.834   1.732
   11SOL     OW  688   0.685   1.012   0.665
   11SOL    HW1  689   0.754   0.996   0.735
   11SOL    HW2  690   0.612   1.069   0.703
   12SOL     OW  691   0.686   1.161   1.803
   12SOL    HW1  692   0.746   1.240   1.817
   12SOL    HW2  693   0.600   1.192   1.762
   13SOL     OW  694   0.335   1.435   1.061
   13SOL    HW1  695   0.257   1.404   1.008
   13SOL    HW2  696   0.393   1.493   1.004
   14SOL     OW  697   1.460   1.505   1.339
   14SOL    HW1  698   1.484   1.599   1.365
   14SOL    HW2  699   1.444   1.451   1.421
   15SOL     OW  700   0.438   0.392   1.499
   15SOL    HW1  701   0.520   0.336   1.508
   15SOL    HW2  702   0.357   0.334   1.503
   16SOL     OW  703   1.603   0.447   0.737
   16SOL    HW1  704   1.529   0.493   0.687
   16SOL    HW2  705   1.654   0.515   0.790
   17SOL     OW  706   0.231   1.713   0.483
   17SOL    HW1  707   0.265   1.790   0.537
   17SOL    HW2  708   0.275   1.713   0.393
   18SOL     OW  709   1.127   1.341   1.690
   18SOL    HW1  710   1.174   1.341   1.778
   18SOL    HW2  711   1.079   1.254   1.679
   19SOL     OW  712   0.230   1.434   0.538
   19SOL    HW1  713   0.204   1.530   0.538
   19SOL    HW2  714   0.159   1.380   0.583
   20SOL     OW  715   0.240   1.091   0.886
   20SOL    HW1  716   0.254   1.007   0.938
   20SOL    HW2  717   0.185   1.155   0.941
   21SOL     OW  718   0.620   1.786   1.439
   21SOL    HW1  719   0.528   1.769   1.474
   21SOL    HW2  720   0.648   1.878   1.465
   22SOL     OW  721   0.606   0.964   0.123
   22SOL    HW1  722   0.613   1.048   0.069
   22SOL    HW2  723   0.652   0.977   0.211
   23SOL     OW  724   1.594   0.114   1.480
   23SOL    HW1  725   1.576   0.181   1.408
   23SOL    HW2  726   1.591   0.160   1.569
   24SOL     OW  727   0.122   0.643   0.563
   24SOL    HW1  728   0.077   0.555   0.580
   24SOL    HW2  729   0.121   0.697   0.647
   25SOL     OW  730   1.842   1.767   0.359
   25SOL    HW1  731   1.896   1.738   0.439
   25SOL    HW2  732   1.872   1.857   0.330
   26SOL     OW  733   0.027   1.596   0.117
   26SOL    HW1  734   0.008   1.500   0.138
   26SOL    HW2  735  -0.006   1.654   0.192
   27SOL     OW  736   1.689   0.922   0.612
   27SOL    HW1  737   1.784   0.893   0.620
   27SOL    HW2  738   1.681   0.987   0.537
   28SOL     OW  739   1.641   1.108   0.432
   28SOL    HW1  740   1.727   1.110   0.380
   28SOL    HW2  741   1.655   1.155   0.520
   29SOL     OW  742   0.113   0.737   1.597
   29SOL    HW1  743   0.201   0.724   1.642
   29SOL    HW2  744   0.100   0.834   1.575
   30SOL     OW  745   0.613   1.365   0.726
   30SOL    HW1  746   0.564   1.278   0.735
   30SOL    HW2  747   0.590   1.408   0.639
   31SOL     OW  748   1.293   1.228   1.423
   31SOL    HW1  749   1.330   1.155   1.365
   31SOL    HW2  750   1.345   1.233   1.508
   32SOL     OW  751   0.809   0.004   0.502
   32SOL    HW1  752   0.849   0.095   0.493
   32SOL    HW2  753   0.709   0.012   0.508
   33SOL     OW  754   0.197   0.976   1.264
   33SOL    HW1  755   0.286   0.931   1.250
   33SOL    HW2  756   0.124   0.911   1.245
   34SOL     OW  757   1.525   0.999   0.190
   34SOL    HW1  758   1.462   0.923   0.203
   34SOL    HW2  759   1.573   1.017   0.276
   35SOL     OW  760   1.187   1.792   1.616
   35SOL    HW1  761   1.211   1.852   1.540
   35SOL    HW2  762   1.194   1.697   1.586
   36SOL     OW  763   0.317   0.251   1.801
   36SOL    HW1  764   0.388   0.322   1.807
   36SOL    HW2  765   0.229   0.290   1.829
   37SOL     OW  766   1.466   1.417   0.953
   37SOL    HW1  767   1.407   1.423   1.033
   37SOL    HW2  768   1.451   1.329   0.907
   38SOL     OW  769   1.667   1.714   0.572
   38SOL    HW1  770   1.626   1.691   0.484
   38SOL    HW2  771   1.649   1.640   0.637
   39SOL     OW  772   0.598   0.729   0.270
   39SOL    HW1  773   0.622   0.798   0.202
   39SOL    HW2  774   0.520   0.762   0.324
   40SOL     OW  775   1.281   0.345   0.944
   40SOL    HW1  776   1.195   0.295   0.931
   40SOL    HW2  777   1.343   0.291   1.000
   41SOL     OW  778   1.576   1.662   0.307
   41SOL    HW1  779   1.665   1.708   0.310
   41SOL    HW2  780   1.555   1.638   0.212
   42SOL     OW  781   0.807   0.605   1.465
   42SOL    HW1  782   0.760   0.602   1.554
   42SOL    HW2  783   0.756   0.550   1.399
   43SOL     OW  784   1.394   0.469   1.674
   43SOL    HW1  785   1.374   0.512   1.762
   43SOL    HW2  786   1.472   0.407   1.683
   44SOL     OW  787   0.973   0.890   1.572
   44SOL    HW1  788   1.019   0.806   1.543
   44SOL    HW2  789   0.917   0.924   1.497
   45SOL     OW  790   0.991   0.410   1.242
   45SOL    HW1  791   0.914   0.444   1.296
   45SOL    HW2  792   0.957   0.359   1.163
   46SOL     OW  793   1.041   0.701   0.429
   46SOL    HW1  794   1.067   0.697   0.525
   46SOL    HW2  795   0.956   0.650   0.415
   47SOL     OW  796   0.076   0.811   0.789
   47SOL    HW1  797   0.175   0.799   0.798
   47SOL    HW2  798   0.052   0.906   0.810
   48SOL     OW  799   0.130   1.821   1.571
   48SOL    HW1  800   0.120   1.806   1.670
   48SOL    HW2  801   0.044   1.857   1.535
   49SOL     OW  802   0.865   0.348   0.195
   49SOL    HW1  803   0.924   0.411   0.146
   49SOL    HW2  804   0.884   0.254   0.166
   50SOL     OW  805   1.719   0.585   1.831
   50SOL    HW1  806   1.693   0.674   1.795
   50SOL    HW2  807   1.717   0.517   1.758
   51SOL     OW  808   1.362   1.144   0.545
   51SOL    HW1  809   1.445   1.115   0.497
   51SOL    HW2  810   1.313   1.211   0.489
   52SOL     OW  811   0.550   0.196   0.885
   52SOL    HW1  812   0.545   0.191   0.985
   52SOL    HW2  813   0.552   0.292   0.856
   53SOL     OW  814   1.008   1.456   0.477
   53SOL    HW1  815   0.962   1.528   0.425
   53SOL    HW2  816   1.004   1.476   0.575
   54SOL     OW  817   0.351   1.801   0.853
   54SOL    HW1  818   0.401   1.715   0.859
   54SOL    HW2  819   0.416   1.878   0.850
   55SOL     OW  820   1.795   1.066   0.873
   55SOL    HW1  821   1.733   1.051   0.797
   55SOL    HW2  822   1.743   1.077   0.958
   56SOL     OW  823   1.227   1.550   1.506
   56SOL    HW1  824   1.233   1.473   1.570
   56SOL    HW2  825   1.175   1.524   1.426
   57SOL     OW  826   0.321   0.943   0.242
   57SOL    HW1  827   0.403   0.982   0.200
   57SOL    HW2  828   0.294   0.861   0.193
   58SOL     OW  829   1.458   0.735   0.728
   58SOL    HW1  830   1.453   0.670   0.803
   58SOL    HW2  831   1.538   0.794   0.741
   59SOL     OW  832   0.461   1.266   1.727
   59SOL    HW1  833   0.411   1.267   1.641
   59SOL    HW2  834   0.398   1.248   1.803
   60SOL     OW  835   1.111   1.776   0.237
   60SOL    HW1  836   1.051   1.714   0.287
   60SOL    HW2  837   1.142   1.732   0.152
   61SOL     OW  838   0.202   0.285   1.498
   61SOL    HW1  839   0.122   0.345   1.485
   61SOL    HW2  840   0.192   0.236   1.584
   62SOL     OW  841   1.632   1.377   0.081
   62SOL    HW1  842   1.600   1.471   0.071
   62SOL    HW2  843   1.556   1.314   0.069
   63SOL     OW  844   0.464   1.743   0.323
   63SOL    HW1  845   0.497   1.782   0.409
   63SOL    HW2  846   0.540   1.736   0.258
   64SOL     OW  847   1.400   0.107   0.426
   64SOL    HW1  848   1.376   0.070   0.336
   64SOL    HW2  849   1.499   0.123   0.430
   65SOL     OW  850   0.249   1.785   1.241
   65SOL    HW1  851   0.306   1.720   1.291
   65SOL    HW2  852   0.233   1.752   1.148
   66SOL     OW  853   0.940   1.698   0.904
   66SOL    HW1  854   1.020   1.641   0.925
   66SOL    HW2  855   0.891   1.658   0.827
   67SOL     OW  856   0.382   0.700   0.480
   67SOL    HW1  857   0.427   0.610   0.477
   67SOL    HW2  858   0.288   0.689   0.513
   68SOL     OW  859   1.547   0.222   1.729
   68SOL    HW1  860   1.542   0.259   1.821
   68SOL    HW2  861   1.475   0.153   1.717
   69SOL     OW  862   0.614   0.122   0.117
   69SOL    HW1  863   0.712   0.100   0.124
   69SOL    HW2  864   0.583   0.105   0.024
   70SOL     OW  865   0.781   0.264   1.749
   70SOL    HW1  866   0.848   0.203   1.792
   70SOL    HW2  867   0.708   0.283   1.814
   71SOL     OW  868   0.888   1.514   1.195
   71SOL    HW1  869   0.865   1.489   1.101
   71SOL    HW2  870   0.949   1.445   1.234
   72SOL     OW  871   1.351   0.590   1.433
   72SOL    HW1  872   1.379   0.547   1.518
   72SOL    HW2  873   1.376   0.686   1.434
   73SOL     OW  874   0.803   1.402   0.924
   73SOL    HW1  875   0.893   1.416   0.882
   73SOL    HW2  876   0.732   1.404   0.853
   74SOL     OW  877   0.922   0.503   0.899
   74SOL    HW1  878   0.897   0.494   0.803
   74SOL    HW2  879   0.970   0.421   0.930
   75SOL     OW  880   0.539   0.064   0.512
   75SOL    HW1  881   0.458   0.065   0.570
   75SOL    HW2  882   0.542   0.147   0.457
   76SOL     OW  883   1.434   1.188   0.041
   76SOL    HW1  884   1.466   1.112   0.098
   76SOL    HW2  885   1.342   1.215   0.071
   77SOL     OW  886   0.297   0.035   0.171
   77SOL    HW1  887   0.346   0.119   0.150
   77SOL    HW2  888   0.359  -0.030   0.216
   78SOL     OW  889   0.935   0.236   0.480
   78SOL    HW1  890   0.887   0.277   0.402
   78SOL    HW2  891   1.034   0.234   0.461
   79SOL     OW  892   1.076   0.683   1.464
   79SOL    HW1  893   0.996   0.622   1.467
   79SOL    HW2  894   1.157   0.630   1.440
   80SOL     OW  895   1.227   1.570   0.793
   80SOL    HW1  896   1.248   1.644   0.728
   80SOL    HW2  897   1.295   1.570   0.866
   81SOL     OW  898   0.459   1.152   0.741
   81SOL    HW1  899   0.388   1.125   0.806
   81SOL    HW2  900   0.433   1.124   0.648
   82SOL     OW  901   1.271   1.797   0.591
   82SOL    HW1  902   1.315   1.861   0.527
   82SOL    HW2  903   1.221   1.849   0.661
   83SOL     OW  904   1.032   0.549   0.016
   83SOL    HW1  905   0.991   0.631  -0.023
   83SOL    HW2  906   1.096   0.575   0.089
   84SOL     OW  907   0.078   0.556   1.386
   84SOL    HW1  908   0.170   0.555   1.345
   84SOL    HW2  909   0.072   0.630   1.453
   85SOL     OW  910   0.561   0.222   1.147
   85SOL    HW1  911   0.599   0.138   1.184
   85SOL    HW2  912   0.473   0.241   1.191
   86SOL     OW  913   0.866   0.454   0.642
   86SOL    HW1  914   0.834   0.526   0.580
   86SOL    HW2  915   0.890   0.373   0.589
   87SOL     OW  916   1.017   0.039   0.753
   87SOL    HW1  917   0.945   0.044   0.684
   87SOL    HW2  918   0.993  -0.030   0.822
   88SOL     OW  919   1.429   1.173   0.867
   88SOL    HW1  920   1.374   1.089   0.860
   88SOL    HW2  921   1.455   1.202   0.775
   89SOL     OW  922   1.466   0.590   0.992
   89SOL    HW1  923   1.436   0.495   0.999
   89SOL    HW2  924   1.539   0.606   1.058
   90SOL     OW  925   1.857   0.833   0.377
   90SOL    HW1  926   1.899   0.769   0.441
   90SOL    HW2  927   1.819   0.782   0.299
   91SOL     OW  928   0.488   1.385   0.174
   91SOL    HW1  929   0.401   1.370   0.221
   91SOL    HW2  930   0.471   1.411   0.079
   92SOL     OW  931   1.664   1.280   0.657
   92SOL    HW1  932   1.763   1.288   0.671
   92SOL    HW2  933   1.619   1.364   0.688
   93SOL     OW  934   1.390   0.575   0.078
   93SOL    HW1  935   1.336   0.554   0.159
   93SOL    HW2  936   1.481   0.534   0.087
   94SOL     OW  937   0.527   0.256   0.328
   94SOL    HW1  938   0.554   0.197   0.253
   94SOL    HW2  939   0.527   0.351   0.297
   95SOL     OW  940   1.754   1.223   1.588
   95SOL    HW1  941   1.845   1.184   1.575
   95SOL    HW2  942   1.762   1.319   1.612
   96SOL     OW  943   1.064   1.347   1.340
   96SOL    HW1  944   0.984   1.324   1.395
   96SOL    HW2  945   1.147   1.321   1.389
   97SOL     OW  946   1.592   1.629   1.625
   97SOL    HW1  947   1.619   1.663   1.535
   97SOL    HW2  948   1.671   1.591   1.671
   98SOL     OW  949   1.111   1.195   1.100
   98SOL    HW1  950   1.071   1.239   1.181
   98SOL    HW2  951   1.070   1.232   1.017
   99SOL     OW  952   1.638   1.099   1.079
   99SOL    HW1  953   1.643   1.180   1.138
   99SOL    HW2  954   1.552   1.101   1.028
  100SOL     OW  955   0.915   0.089   1.402
  100SOL    HW1  956   0.940   0.069   1.307
  100SOL    HW2  957   0.987   0.145   1.444
  101SOL     OW  958   0.980   1.116   1.719
  101SOL    HW1  959   0.881   1.122   1.729
  101SOL    HW2  960   1.003   1.036   1.663
  102SOL     OW  961   0.705   1.050   0.368
  102SOL    HW1  962   0.691   1.057   0.467
  102SOL    HW2  963   0.789   0.999   0.350
  103SOL     OW  964   0.410   0.813   1.251
  103SOL    HW1  965   0.496   0.825   1.301
  103SOL    HW2  966   0.368   0.726   1.278
  104SOL     OW  967   1.274   0.386   1.262
  104SOL    HW1  968   1.295   0.460   1.326
  104SOL    HW2  969   1.185   0.403   1.219
  105SOL     OW  970   0.064   1.564   1.331
  105SOL    HW1  971   0.018   1.646   1.297
  105SOL    HW2  972   0.162   1.583   1.340
  106SOL     OW  973   0.367   1.100   0.501
  106SOL    HW1  974   0.360   1.183   0.445
  106SOL    HW2  975   0.371   1.020   0.441
  107SOL     OW  976   0.566   0.537   0.865
  107SOL    HW1  977   0.578   0.603   0.791
  107SOL    HW2  978   0.612   0.571   0.948
  108SOL     OW  979   1.252   1.348   0.388
  108SOL    HW1  980   1.302   1.425   0.428
  108SOL    HW2  981   1.157   1.350   0.420
  109SOL     OW  982   1.272   1.445   1.142
  109SOL    HW1  983   1.319   1.458   1.229
  109SOL    HW2  984   1.206   1.371   1.151
  110SOL     OW  985   1.582   0.639   0.472
  110SOL    HW1  986   1.551   0.700   0.545
  110SOL    HW2  987   1.632   0.691   0.403
  111SOL     OW  988   0.354   1.510   1.329
  111SOL    HW1  989   0.333   1.466   1.242
  111SOL    HW2  990   0.451   1.536   1.332
  112SOL     OW  991   0.402   0.751   1.598
  112SOL    HW1  992   0.470   0.806   1.551
  112SOL    HW2  993   0.442   0.663   1.625
  113SOL     OW  994   1.587   0.779   1.670
  113SOL    HW1  995   1.495   0.817   1.665
  113SOL    HW2  996   1.647   0.826   1.605
  114SOL     OW  997   1.013   0.105   1.770
  114SOL    HW1  998   1.019   0.190   1.718
  114SOL    HW2  999   1.045   0.029   1.713
  115SOL     OW 1000   0.504   0.050   1.740
  115SOL    HW1 1001   0.462  -0.007   1.670
  115SOL    HW2 1002   0.438   0.119   1.772
  116SOL     OW 1003   0.573   0.870   1.029
  116SOL    HW1 1004   0.617   0.959   1.020
  116SOL    HW2 1005   0.510   0.870   1.106
  117SOL     OW 1006   1.360   0.862   1.045
  117SOL    HW1 1007   1.285   0.862   0.979
  117SOL    HW2 1008   1.397   0.770   1.054
  118SOL     OW 1009   1.209   0.525   0.275
  118SOL    HW1 1010   1.222   0.441   0.329
  118SOL    HW2 1011   1.180   0.599   0.335
  119SOL     OW 1012   0.307   0.213   1.231
  119SOL    HW1 1013   0.284   0.250   1.321
  119SOL    HW2 1014   0.277   0.118   1.225
  120SOL     OW 1015   0.037   1.310   1.282
  120SOL    HW1 1016   0.090   1.261   1.350
  120SOL    HW2 1017   0.059   1.408   1.287
  121SOL     OW 1018   0.732   0.634   1.064
  121SOL    HW1 1019   0.791   0.608   0.988
  121SOL    HW2 1020   0.704   0.730   1.053
  122SOL     OW 1021   1.728   0.935   1.854
  122SOL    HW1 1022   1.682   0.928   1.765
  122SOL    HW2 1023   1.666   0.979   1.920
  123SOL     OW 1024   0.307   0.063   0.618
  123SOL    HW1 1025   0.296   0.157   0.651
  123SOL    HW2 1026   0.302   0.000   0.695
  124SOL     OW 1027   1.622   0.367   0.374
  124SOL    HW1 1028   1.624   0.291   0.438
  124SOL    HW2 1029   1.574   0.444   0.414
  125SOL     OW 1030   1.023   0.766   0.966
  125SOL    HW1 1031   1.038   0.787   1.062
  125SOL    HW2 1032   0.993   0.671   0.957
  126SOL     OW 1033   0.980   1.573   1.700
  126SOL    HW1 1034   0.960   1.617   1.612
  126SOL    HW2 1035   1.019   1.482   1.684
  127SOL     OW 1036   1.859   1.518   1.605
  127SOL    HW1 1037   1.873   1.545   1.510
  127SOL    HW2 1038   1.942   1.540   1.658
  128SOL     OW 1039   0.350   0.898   1.804
  128SOL    HW1 1040   0.426   0.942   1.852
  128SOL    HW2 1041   0.385   0.851   1.722
  129SOL     OW 1042   1.540   0.274   0.125
  129SOL    HW1 1043   1.479   0.199   0.148
  129SOL    HW2 1044   1.562   0.326   0.208
  130SOL     OW 1045   1.303   0.838   0.042
  130SOL    HW1 1046   1.337   0.745   0.057
  130SOL    HW2 1047   1.321   0.865  -0.053
  131SOL     OW 1048   1.068   1.333   0.849
  131SOL    HW1 1049   1.075   1.249   0.794
  131SOL    HW2 1050   1.130   1.402   0.813
  132SOL     OW 1051   0.319   0.810   0.949
  132SOL    HW1 1052   0.412   0.846   0.954
  132SOL    HW2 1053   0.313   0.725   1.001
  133SOL     OW 1054   0.339   0.509   1.006
  133SOL    HW1 1055   0.287   0.426   0.989
  133SOL    HW2 1056   0.416   0.514   0.942
  134SOL     OW 1057   1.138   0.380   1.678
  134SOL    HW1 1058   1.093   0.443   1.742
  134SOL    HW2 1059   1.231   0.411   1.661
  135SOL     OW 1060   1.160   0.207   1.477
  135SOL    HW1 1061   1.160   0.271   1.554
  135SOL    HW2 1062   1.188   0.255   1.394
  136SOL     OW 1063   0.008   1.326   0.200
  136SOL    HW1 1064  -0.085   1.347   0.169
  136SOL    HW2 1065   0.018   1.227   0.213
  137SOL     OW 1066   0.088   1.801   0.927
  137SOL    HW1 1067   0.046   1.715   0.900
  137SOL    HW2 1068   0.182   1.804   0.893
  138SOL     OW 1069   0.504   1.568   0.910
  138SOL    HW1 1070   0.570   1.642   0.919
  138SOL    HW2 1071   0.548   1.489   0.868
  139SOL     OW 1072   1.002   0.796   1.238
  139SOL    HW1 1073   1.043   0.764   1.324
  139SOL    HW2 1074   0.906   0.769   1.235
  140SOL     OW 1075   0.040   0.544   1.114
  140SOL    HW1 1076   0.125   0.511   1.073
  140SOL    HW2 1077   0.053   0.559   1.212
  141SOL     OW 1078   0.189   0.520   1.722
  141SOL    HW1 1079   0.248   0.480   1.652
  141SOL    HW2 1080   0.131   0.591   1.681
  142SOL     OW 1081   1.369   0.950   1.660
  142SOL    HW1 1082   1.408   1.039   1.680
  142SOL    HW2 1083   1.379   0.930   1.563
  143SOL     OW 1084   0.815   0.572   0.325
  143SOL    HW1 1085   0.822   0.483   0.279
  143SOL    HW2 1086   0.721   0.606   0.317
  144SOL     OW 1087   1.657   0.604   1.206
  144SOL    HW1 1088   1.619   0.535   1.268
  144SOL    HW2 1089   1.739   0.568   1.162
  145SOL     OW 1090   0.252   1.564   1.744
  145SOL    HW1 1091   0.222   1.621   1.820
  145SOL    HW2 1092   0.245   1.467   1.770
  146SOL     OW 1093   0.671   0.464   1.269
  146SOL    HW1 1094   0.637   0.375   1.239
  146SOL    HW2 1095   0.697   0.518   1.189
  147SOL     OW 1096   0.930   1.678   1.465
  147SOL    HW1 1097   0.906   1.660   1.370
  147SOL    HW2 1098   0.960   1.772   1.475
  148SOL     OW 1099   0.473   0.500   0.191
  148SOL    HW1 1100   0.534   0.580   0.195
  148SOL    HW2 1101   0.378   0.531   0.198
  149SOL     OW 1102   0.159   1.137   1.466
  149SOL    HW1 1103   0.181   1.076   1.542
  149SOL    HW2 1104   0.169   1.088   1.380
  150SOL     OW 1105   1.347   1.059   1.234
  150SOL    HW1 1106   1.371   0.996   1.160
  150SOL    HW2 1107   1.257   1.099   1.216
  151SOL     OW 1108   1.302   0.855   0.309
  151SOL    HW1 1109   1.216   0.824   0.351
  151SOL    HW2 1110   1.298   0.841   0.210
  152SOL     OW 1111   1.759   1.747   1.154
  152SOL    HW1 1112   1.820   1.777   1.081
  152SOL    HW2 1113   1.721   1.658   1.132
  153SOL     OW 1114   1.252   1.731   1.128
  153SOL    HW1 1115   1.336   1.736   1.074
  153SOL    HW2 1116   1.229   1.635   1.146
  154SOL     OW 1117   0.083   1.258   1.022
  154SOL    HW1 1118   0.078   1.257   1.122
  154SOL    HW2 1119   0.000   1.217   0.984
  155SOL     OW 1120   0.688   1.662   1.716
  155SOL    HW1 1121   0.632   1.743   1.725
  155SOL    HW2 1122   0.740   1.666   1.630
  156SOL     OW 1123   0.903   0.086   0.133
  156SOL    HW1 1124   0.954   0.087   0.047
  156SOL    HW2 1125   0.959   0.044   0.204
  157SOL     OW 1126   1.726   0.135   0.523
  157SOL    HW1 1127   1.799   0.118   0.456
  157SOL    HW2 1128   1.695   0.048   0.561
  158SOL     OW 1129   1.388   1.573   0.477
  158SOL    HW1 1130   1.455   1.585   0.403
  158SOL    HW2 1131   1.348   1.662   0.500
  159SOL     OW 1132   0.130   1.794   1.851
  159SOL    HW1 1133   0.089   1.720   1.904
  159SOL    HW2 1134   0.194   1.845   1.909
  160SOL     OW 1135   1.280   0.927   0.672
  160SOL    HW1 1136   1.340   0.846   0.674
  160SOL    HW2 1137   1.320   0.996   0.612
  161SOL     OW 1138   0.830   1.273   1.422
  161SOL    HW1 1139   0.825   1.306   1.517
  161SOL    HW2 1140   0.744   1.292   1.376
  162SOL     OW 1141   0.672   1.616   0.154
  162SOL    HW1 1142   0.681   1.626   0.055
  162SOL    HW2 1143   0.632   1.527   0.175
  163SOL     OW 1144   1.650   1.720   1.394
  163SOL    HW1 1145   1.703   1.730   1.310
  163SOL    HW2 1146   1.623   1.810   1.428
  164SOL     OW 1147   1.841   0.175   0.963
  164SOL    HW1 1148   1.880   0.090   0.927
  164SOL    HW2 1149   1.743   0.177   0.944
  165SOL     OW 1150   0.263   0.326   0.720
  165SOL    HW1 1151   0.184   0.377   0.686
  165SOL    HW2 1152   0.254   0.311   0.818
  166SOL     OW 1153   1.194   1.612   0.031
  166SOL    HW1 1154   1.200   1.519   0.068
  166SOL    HW2 1155   1.135   1.612  -0.049
  167SOL     OW 1156   0.822   1.002   1.372
  167SOL    HW1 1157   0.862   1.001   1.280
  167SOL    HW2 1158   0.832   1.094   1.412
  168SOL     OW 1159   0.916   0.910   0.291
  168SOL    HW1 1160   0.979   0.948   0.223
  168SOL    HW2 1161   0.956   0.827   0.330
  169SOL     OW 1162   1.504   1.607   0.044
  169SOL    HW1 1163   1.412   1.644   0.051
  169SOL    HW2 1164   1.542   1.627  -0.046
  170SOL     OW 1165   0.372   1.288   1.490
  170SOL    HW1 1166   0.359   1.381   1.456
  170SOL    HW2 1167   0.288   1.236   1.477
  171SOL     OW 1168   1.614   1.292   1.289
  171SOL    HW1 1169   1.674   1.295   1.369
  171SOL    HW2 1170   1.539   1.356   1.302
  172SOL     OW 1171   1.039   1.098   0.696
  172SOL    HW1 1172   0.969   1.051   0.750
  172SOL    HW2 1173   1.098   1.030   0.653
  173SOL     OW 1174   1.014   0.236   0.971
  173SOL    HW1 1175   1.006   0.200   0.878
  173SOL    HW2 1176   1.012   0.160   1.036
  174SOL     OW 1177   0.590   1.487   0.491
  174SOL    HW1 1178   0.632   1.429   0.421
  174SOL    HW2 1179   0.546   1.566   0.447
  175SOL     OW 1180   1.709   0.385   1.381
  175SOL    HW1 1181   1.782   0.454   1.385
  175SOL    HW2 1182   1.737   0.310   1.322
  176SOL     OW 1183   0.255   1.348   0.290
  176SOL    HW1 1184   0.159   1.349   0.263
  176SOL    HW2 1185   0.267   1.401   0.374
  177SOL     OW 1186   0.105   1.013   1.726
  177SOL    HW1 1187   0.028   0.980   1.780
  177SOL    HW2 1188   0.190   0.983   1.768
  178SOL     OW 1189   0.672   0.203   1.489
  178SOL    HW1 1190   0.762   0.187   1.449
  178SOL    HW2 1191   0.680   0.208   1.588
  179SOL     OW 1192   0.075   0.345   0.033
  179SOL    HW1 1193  -0.017   0.317   0.004
  179SOL    HW2 1194   0.106   0.422  -0.023
  180SOL     OW 1195   1.440   0.856   1.398
  180SOL    HW1 1196   1.383   0.908   1.335
  180SOL    HW2 1197   1.536   0.868   1.374
  181SOL     OW 1198   0.072   0.166   0.318
  181SOL    HW1 1199   0.055   0.249   0.264
  181SOL    HW2 1200   0.162   0.129   0.296
  182SOL     OW 1201   1.183   1.335   0.119
  182SOL    HW1 1202   1.084   1.324   0.121
  182SOL    HW2 1203   1.217   1.350   0.212
  183SOL     OW 1204   0.613   0.842   1.431
  183SOL    HW1 1205   0.669   0.923   1.414
  183SOL    HW2 1206   0.672   0.762   1.434
  184SOL     OW 1207   1.493   1.767   0.959
  184SOL    HW1 1208   1.526   1.831   0.890
  184SOL    HW2 1209   1.559   1.761   1.034
  185SOL     OW 1210   0.716   0.565   1.708
  185SOL    HW1 1211   0.735   0.630   1.782
  185SOL    HW2 1212   0.776   0.485   1.717
  186SOL     OW 1213   1.450   1.220   1.633
  186SOL    HW1 1214   1.441   1.210   1.732
  186SOL    HW2 1215   1.546   1.213   1.607
  187SOL     OW 1216   0.390   1.741   1.560
  187SOL    HW1 1217   0.299   1.782   1.558
  187SOL    HW2 1218   0.383   1.647   1.592
  188SOL     OW 1219   1.674   0.883   1.254
  188SOL    HW1 1220   1.647   0.794   1.217
  188SOL    HW2 1221   1.675   0.951   1.181
  189SOL     OW 1222   1.225   0.325   0.449
  189SOL    HW1 1223   1.290   0.251   0.438
  189SOL    HW2 1224   1.245   0.375   0.533
  190SOL     OW 1225   0.594   0.745   0.652
  190SOL    HW1 1226   0.644   0.830   0.633
  190SOL    HW2 1227   0.506   0.747   0.604
  191SOL     OW 1228   1.777   0.342   1.642
  191SOL    HW1 1229   1.760   0.373   1.548
  191SOL    HW2 1230   1.693   0.305   1.680
  192SOL     OW 1231   1.730   0.934   1.517
  192SOL    HW1 1232   1.768   1.025   1.532
  192SOL    HW2 1233   1.722   0.917   1.418
  193SOL     OW 1234   0.859   1.374   0.016
  193SOL    HW1 1235   0.813   1.389   0.104
  193SOL    HW2 1236   0.903   1.459  -0.014
  194SOL     OW 1237   0.661   1.790   0.953
  194SOL    HW1 1238   0.615   1.878   0.940
  194SOL    HW2 1239   0.760   1.802   0.946
  195SOL     OW 1240   0.859   0.956   0.861
  195SOL    HW1 1241   0.913   0.887   0.909
  195SOL    HW2 1242   0.827   1.025   0.927
  196SOL     OW 1243   1.083   0.984   0.087
  196SOL    HW1 1244   1.060   1.037   0.005
  196SOL    HW2 1245   1.164   0.928   0.068
  197SOL     OW 1246   1.861   1.569   0.851
  197SOL    HW1 1247   1.790   1.557   0.781
  197SOL    HW2 1248   1.862   1.490   0.911
  198SOL     OW 1249   0.221   1.314   1.844
  198SOL    HW1 1250   0.156   1.241   1.823
  198SOL    HW2 1251   0.225   1.328   1.942
  199SOL     OW 1252   0.079   1.240   0.653
  199SOL    HW1 1253   0.078   1.193   0.741
  199SOL    HW2 1254   0.161   1.212   0.602
  200SOL     OW 1255   0.672   1.391   1.624
  200SOL    HW1 1256   0.594   1.341   1.662
  200SOL    HW2 1257   0.669   1.486   1.655
  201SOL     OW 1258   1.824   0.192   1.227
  201SOL    HW1 1259   1.820   0.102   1.271
  201SOL    HW2 1260   1.827   0.181   1.128
  202SOL     OW 1261   0.428   0.424   0.520
  202SOL    HW1 1262   0.458   0.352   0.458
  202SOL    HW2 1263   0.389   0.384   0.603
  203SOL     OW 1264   1.705   1.487   1.104
  203SOL    HW1 1265   1.612   1.462   1.077
  203SOL    HW2 1266   1.731   1.437   1.186
  204SOL     OW 1267   0.317   0.547   1.280
  204SOL    HW1 1268   0.355   0.488   1.352
  204SOL    HW2 1269   0.357   0.521   1.192
  205SOL     OW 1270   0.812   1.586   0.687
  205SOL    HW1 1271   0.844   1.596   0.593
  205SOL    HW2 1272   0.733   1.524   0.689
  206SOL     OW 1273   1.424   0.214   1.112
  206SOL    HW1 1274   1.476   0.149   1.167
  206SOL    HW2 1275   1.375   0.277   1.173
  207SOL     OW 1276   1.001   0.034   1.154
  207SOL    HW1 1277   0.938  -0.038   1.123
  207SOL    HW2 1278   1.094  -0.002   1.154
  208SOL     OW 1279   0.770   1.330   0.301
  208SOL    HW1 1280   0.724   1.243   0.318
  208SOL    HW2 1281   0.861   1.327   0.342
  209SOL     OW 1282   0.618   1.567   1.284
  209SOL    HW1 1283   0.613   1.649   1.341
  209SOL    HW2 1284   0.707   1.564   1.239
  210SOL     OW 1285   1.352   0.052   0.168
  210SOL    HW1 1286   1.387   0.011   0.084
  210SOL    HW2 1287   1.262   0.014   0.188
  211SOL     OW 1288   1.300   0.453   0.691
  211SOL    HW1 1289   1.241   0.533   0.695
  211SOL    HW2 1290   1.315   0.418   0.784
  212SOL     OW 1291   1.593   0.221   0.882
  212SOL    HW1 1292   1.509   0.220   0.936
  212SOL    HW2 1293   1.595   0.304   0.826
  213SOL     OW 1294   0.039   1.077   0.300
  213SOL    HW1 1295   0.138   1.066   0.291
  213SOL    HW2 1296  -0.001   0.991   0.332
  214SOL     OW 1297   0.875   1.646   0.337
  214SOL    HW1 1298   0.798   1.611   0.283
  214SOL    HW2 1299   0.843   1.717   0.399
  215SOL     OW 1300   0.230   0.628   1.975
  215SOL    HW1 1301   0.137   0.626   2.012
  215SOL    HW2 1302   0.231   0.589   1.883
  216SOL     OW 1303   0.225   0.275   2.858
  216SOL    HW1 1304   0.260   0.258   2.950
  216SOL    HW2 1305   0.137   0.230   2.846
  217SOL     OW 1306   0.019   0.368   2.509
  217SOL    HW1 1307  -0.063   0.411   2.548
  217SOL    HW2 1308  -0.009   0.295   2.446
  218SOL     OW 1309   0.569   1.275   3.027
  218SOL    HW1 1310   0.476   1.268   2.990
  218SOL    HW2 1311   0.580   1.364   3.071
  219SOL     OW 1312   1.555   1.511   2.565
  219SOL    HW1 1313   1.498   1.495   2.646
  219SOL    HW2 1314   1.496   1.521   2.485
  220SOL     OW 1315   1.135   0.703   2.579
  220SOL    HW1 1316   1.192   0.781   2.554
  220SOL    HW2 1317   1.075   0.729   2.655
  221SOL     OW 1318   1.755   0.607   2.093
  221SOL    HW1 1319   1.743   0.594   1.994
  221SOL    HW2 1320   1.725   0.526   2.142
  222SOL     OW 1321   0.768   1.144   2.885
  222SOL    HW1 1322   0.690   1.161   2.945
  222SOL    HW2 1323   0.802   1.231   2.849
  223SOL     OW 1324   0.850   0.798   3.685
  223SOL    HW1 1325   0.846   0.874   3.750
  223SOL    HW2 1326   0.872   0.834   3.594
  224SOL     OW 1327   0.685   1.012   2.527
  224SOL    HW1 1328   0.754   0.996   2.597
  224SOL    HW2 1329   0.612   1.069   2.565
  225SOL     OW 1330   0.686   1.161   3.665
  225SOL    HW1 1331   0.746   1.240   3.679
  225SOL    HW2 1332   0.600   1.192   3.624
  226SOL     OW 1333   0.335   1.435   2.923
  226SOL    HW1 1334   0.257   1.404   2.870
  226SOL    HW2 1335   0.393   1.493   2.866
  227SOL     OW 1336   1.460   1.505   3.201
  227SOL    HW1 1337   1.484   1.599   3.227
  227SOL    HW2 1338   1.444   1.451   3.283
  228SOL     OW 1339   0.438   0.392   3.361
  228SOL    HW1 1340   0.520   0.336   3.370
  228SOL    HW2 1341   0.357   0.334   3.365
  229SOL     OW 1342   1.603   0.447   2.599
  229SOL    HW1 1343   1.529   0.493   2.549
  229SOL    HW2 1344   1.654   0.515   2.652
  230SOL     OW 1345   0.231   1.713   2.345
  230SOL    HW1 1346   0.265   1.790   2.399
  230SOL    HW2 1347   0.275   1.713   2.255
  231SOL     OW 1348   1.127   1.341   3.552
  231SOL    HW1 1349   1.174   1.341   3.640
  231SOL    HW2 1350   1.079   1.254   3.541
  232SOL     OW 1351   0.230   1.434   2.400
  232SOL    HW1 1352   0.204   1.530   2.400
  232SOL    HW2 1353   0.159   1.380   2.445
  233SOL     OW 1354   0.240   1.091   2.748
  233SOL    HW1 1355   0.254   1.007   2.800
  233SOL    HW2 1356   0.185   1.155   2.803
  234SOL     OW 1357   0.620   1.786   3.301
  234SOL    HW1 1358   0.528   1.769   3.336
  234SOL    HW2 1359   0.648   1.878   3.327
  235SOL     OW 1360   0.606   0.964   1.985
  235SOL    HW1 1361   0.613   1.048   1.931
  235SOL    HW2 1362   0.652   0.977   2.073
  236SOL     OW 1363   1.594   0.114   3.342
  236SOL    HW1 1364   1.576   0.181   3.270
  236SOL    HW2 1365   1.591   0.160   3.431
  237SOL     OW 1366   0.122   0.643   2.425
  237SOL    HW1 1367   0.077   0.555   2.442
  237SOL    HW2 1368   0.121   0.697   2.509
  238SOL     OW 1369   1.842   1.767   2.221
  238SOL    HW1 1370   1.896   1.738   2.301
  238SOL    HW2 1371   1.872   1.857   2.192
  239SOL     OW 1372   0.027   1.596   1.979
  239SOL    HW1 1373   0.008   1.500   2.000
  239SOL    HW2 1374  -0.006   1.654   2.054
  240SOL     OW 1375   1.689   0.922   2.474
  240SOL    HW1 1376   1.784   0.893   2.482
  240SOL    HW2 1377   1.681   0.987   2.399
  241SOL     OW 1378   1.641   1.108   2.294
  241SOL    HW1 1379   1.727   1.110   2.242
  241SOL    HW2 1380   1.655   1.155   2.382
  242SOL     OW 1381   0.113   0.737   3.459
  242SOL    HW1 1382   0.201   0.724   3.504
  242SOL    HW2 1383   0.100   0.834   3.437
  243SOL     OW 1384   0.613   1.365   2.588
  243SOL    HW1 1385   0.564   1.278   2.597
  243SOL    HW2 1386   0.590   1.408   2.501
  244SOL     OW 1387   1.293   1.228   3.285
  244SOL    HW1 1388   1.330   1.155   3.227
  244SOL    HW2 1389   1.345   1.233   3.370
  245SOL     OW 1390   0.809   0.004   2.364
  245SOL    HW1 1391   0.849   0.095   2.355
  245SOL    HW2 1392   0.709   0.012   2.370
  246SOL     OW 1393   0.197   0.976   3.126
  246SOL    HW1 1394   0.286   0.931   3.112
  246SOL    HW2 1395   0.124   0.911   3.107
  247SOL     OW 1396   1.525   0.999   2.052
  247SOL    HW1 1397   1.462   0.923   2.065
  247SOL    HW2 1398   1.573   1.017   2.138
  248SOL     OW 1399   1.187   1.792   3.478
  248SOL    HW1 1400   1.211   1.852   3.402
  248SOL    HW2 1401   1.194   1.697   3.448
  249SOL     OW 1402   0.317   0.251   3.663
  249SOL    HW1 1403   0.388   0.322   3.669
  249SOL    HW2 1404   0.229   0.290   3.691
  250SOL     OW 1405   1.466   1.417   2.815
  250SOL    HW1 1406   1.407   1.423   2.895
  250SOL    HW2 1407   1.451   1.329   2.769
  251SOL     OW 1408   1.667   1.714   2.434
  251SOL    HW1 1409   1.626   1.691   2.346
  251SOL    HW2 1410   1.649   1.640   2.499
  252SOL     OW 1411   0.598   0.729   2.132
  252SOL    HW1 1412   0.622   0.798   2.064
  252SOL    HW2 1413   0.520   0.762   2.186
  253SOL     OW 1414   1.281   0.345   2.806
  253SOL    HW1 1415   1.195   0.295   2.793
  253SOL    HW2 1416   1.343   0.291   2.862
  254SOL     OW 1417   1.576   1.662   2.169
  254SOL    HW1 1418   1.665   1.708   2.172
  254SOL    HW2 1419   1.555   1.638   2.074
  255SOL     OW 1420   0.807   0.605   3.327
  255SOL    HW1 1421   0.760   0.602   3.416
  255SOL    HW2 1422   0.756   0.550   3.261
  256SOL     OW 1423   1.394   0.469   3.536
  256SOL    HW1 1424   1.374   0.512   3.624
  256SOL    HW2 1425   1.472   0.407   3.545
  257SOL     OW 1426   0.973   0.890   3.434
  257SOL    HW1 1427   1.019   0.806   3.405
  257SOL    HW2 1428   0.917   0.924   3.359
  258SOL     OW 1429   0.991   0.410   3.104
  258SOL    HW1 1430   0.914   0.444   3.158
  258SOL    HW2 1431   0.957   0.359   3.025
  259SOL     OW 1432   1.041   0.701   2.291
  259SOL    HW1 1433   1.067   0.697   2.387
  259SOL    HW2 1434   0.956   0.650   2.277
  260SOL     OW 1435   0.076   0.811   2.651
  260SOL    HW1 1436   0.175   0.799   2.660
  260SOL    HW2 1437   0.052   0.906   2.672
  261SOL     OW 1438   0.130   1.821   3.433
  261SOL    HW1 1439   0.120   1.806   3.532
  261SOL    HW2 1440   0.044   1.857   3.397
  262SOL     OW 1441   0.865   0.348   2.057
  262SOL    HW1 1442   0.924   0.411   2.008
  262SOL    HW2 1443   0.884   0.254   2.028
  263SOL     OW 1444   1.719   0.585   3.693
  263SOL    HW1 1445   1.693   0.674   3.657
  263SOL    HW2 1446   1.717   0.517   3.620
  264SOL     OW 1447   1.362   1.144   2.407
  264SOL    HW1 1448   1.445   1.115   2.359
  264SOL    HW2 1449   1.313   1.211   2.351
  265SOL     OW 1450   0.550   0.196   2.747
  265SOL    HW1 1451   0.545   0.191   2.847
  265SOL    HW2 1452   0.552   0.292   2.718
  266SOL     OW 1453   1.008   1.456   2.339
  266SOL    HW1 1454   0.962   1.528   2.287
  266SOL    HW2 1455   1.004   1.476   2.437
  267SOL     OW 1456   0.351   1.801   2.715
  267SOL    HW1 1457   0.401   1.715   2.721
  267SOL    HW2 1458   0.416   1.878   2.712
  268SOL     OW 1459   1.795   1.066   2.735
  268SOL    HW1 1460   1.733   1.051   2.659
  268SOL    HW2 1461   1.743   1.077   2.820
  269SOL     OW 1462   1.227   1.550   3.368
  269SOL    HW1 1463   1.233   1.473   3.432
  269SOL    HW2 1464   1.175   1.524   3.288
  270SOL     OW 1465   0.321   0.943   2.104
  270SOL    HW1 1466   0.403   0.982   2.062
  270SOL    HW2 1467   0.294   0.861   2.055
  271SOL     OW 1468   1.458   0.735   2.590
  271SOL    HW1 1469   1.453   0.670   2.665
  271SOL    HW2 1470   1.538   0.794   2.603
  272SOL     OW 1471   0.461   1.266   3.589
  272SOL    HW1 1472   0.411   1.267   3.503
  272SOL    HW2 1473   0.398   1.248   3.665
  273SOL     OW 1474   1.111   1.776   2.099
  273SOL    HW1 1475   1.051   1.714   2.149
  273SOL    HW2 1476   1.142   1.732   2.014
  274SOL     OW 1477   0.202   0.285   3.360
  274SOL    HW1 1478   0.122   0.345   3.347
  274SOL    HW2 1479   0.192   0.236   3.446
  275SOL     OW 1480   1.632   1.377   1.943
  275SOL    HW1 1481   1.600   1.471   1.933
  275SOL    HW2 1482   1.556   1.314   1.931
  276SOL     OW 1483   0.464   1.743   2.185
  276SOL    HW1 1484   0.497   1.782   2.271
  276SOL    HW2 1485   0.540   1.736   2.120
  277SOL     OW 1486   1.400   0.107   2.288
  277SOL    HW1 1487   1.376   0.070   2.198
  277SOL    HW2 1488   1.499   0.123   2.292
  278SOL     OW 1489   0.249   1.785   3.103
  278SOL    HW1 1490   0.306   1.720   3.153
  278SOL    HW2 1491   0.233   1.752   3.010
  279SOL     OW 1492   0.940   1.698   2.766
  279SOL    HW1 1493   1.020   1.641   2.787
  279SOL    HW2 1494   0.891   1.658   2.689
  280SOL     OW 1495   0.382   0.700   2.342
  280SOL    HW1 1496   0.427   0.610   2.339
  280SOL    HW2 1497   0.288   0.689   2.375
  281SOL     OW 1498   1.547   0.222   3.591
  281SOL    HW1 1499   1.542   0.259   3.683
  281SOL    HW2 1500   1.475   0.153   3.579
  282SOL     OW 1501   0.614   0.122   1.979
  282SOL    HW1 1502   0.712   0.100   1.986
  282SOL    HW2 1503   0.583   0.105   1.886
  283SOL     OW 1504   0.781   0.264   3.611
  283SOL    HW1 1505   0.848   0.203   3.654
  283SOL    HW2 1506   0.708   0.283   3.676
  284SOL     OW 1507   0.888   1.514   3.057
  284SOL    HW1 1508   0.865   1.489   2.963
  284SOL    HW2 1509   0.949   1.445   3.096
  285SOL     OW 1510   1.351   0.590   3.295
  285SOL    HW1 1511   1.379   0.547   3.380
  285SOL    HW2 1512   1.376   0.686   3.296
  286SOL     OW 1513   0.803   1.402   2.786
  286SOL    HW1 1514   0.893   1.416   2.744
  286SOL    HW2 1515   0.732   1.404   2.715
  287SOL     OW 1516   0.922   0.503   2.761
  287SOL    HW1 1517   0.897   0.494   2.665
  287SOL    HW2 1518   0.970   0.421   2.792
  288SOL     OW 1519   0.539   0.064   2.374
  288SOL    HW1 1520   0.458   0.065   2.432
  288SOL    HW2 1521   0.542   0.147   2.319
  289SOL     OW 1522   1.434   1.188   1.903
  289SOL    HW1 1523   1.466   1.112   1.960
  289SOL    HW2 1524   1.342   1.215   1.933
  290SOL     OW 1525   0.297   0.035   2.033
  290SOL    HW1 1526   0.346   0.119   2.012
  290SOL    HW2 1527   0.359  -0.030   2.078
  291SOL     OW 1528   0.935   0.236   2.342
  291SOL    HW1 1529   0.887   0.277   2.264
  291SOL    HW2 1530   1.034   0.234   2.323
  292SOL     OW 1531   1.076   0.683   3.326
  292SOL    HW1 1532   0.996   0.622   3.329
  292SOL    HW2 1533   1.157   0.630   3.302
  293SOL     OW 1534   1.227   1.570   2.655
  293SOL    HW1 1535   1.248   1.644   2.590
  293SOL    HW2 1536   1.295   1.570   2.728
  294SOL     OW 1537   0.459   1.152   2.603
  294SOL    HW1 1538   0.388   1.125   2.668
  294SOL    HW2 1539   0.433   1.124   2.510
  295SOL     OW 1540   1.271   1.797   2.453
  295SOL    HW1 1541   1.315   1.861   2.389
  295SOL    HW2 1542   1.221   1.849   2.523
  296SOL     OW 1543   1.032   0.549   1.878
  296SOL    HW1 1544   0.991   0.631   1.839
  296SOL    HW2 1545   1.096   0.575   1.951
  297SOL     OW 1546   0.078   0.556   3.248
  297SOL    HW1 1547   0.170   0.555   3.207
  297SOL    HW2 1548   0.072   0.630   3.315
  298SOL     OW 1549   0.561   0.222   3.009
  298SOL    HW1 1550   0.599   0.138   3.046
  298SOL    HW2 1551   0.473   0.241   3.053
  299SOL     OW 1552   0.866   0.454   2.504
  299SOL    HW1 1553   0.834   0.526   2.442
  299SOL    HW2 1554   0.890   0.373   2.451
  300SOL     OW 1555   1.017   0.039   2.615
  300SOL    HW1 1556   0.945   0.044   2.546
  300SOL    HW2 1557   0.993  -0.030   2.684
  301SOL     OW 1558   1.429   1.173   2.729
  301SOL    HW1 1559   1.374   1.089   2.722
  301SOL    HW2 1560   1.455   1.202   2.637
  302SOL     OW 1561   1.466   0.590   2.854
  302SOL    HW1 1562   1.436   0.495   2.861
  302SOL    HW2 1563   1.539   0.606   2.920
  303SOL     OW 1564   1.857   0.833   2.239
  303SOL    HW1 1565   1.899   0.769   2.303
  303SOL    HW2 1566   1.819   0.782   2.161
  304SOL     OW 1567   0.488   1.385   2.036
  304SOL    HW1 1568   0.401   1.370   2.083
  304SOL    HW2 1569   0.471   1.411   1.941
  305SOL     OW 1570   1.664   1.280   2.519
  305SOL    HW1 1571   1.763   1.288   2.533
  305SOL    HW2 1572   1.619   1.364   2.550
  306SOL     OW 1573   1.390   0.575   1.940
  306SOL    HW1 1574   1.336   0.554   2.021
  306SOL    HW2 1575   1.481   0.534   1.949
  307SOL     OW 1576   0.527   0.256   2.190
  307SOL    HW1 1577   0.554   0.197   2.115
  307SOL    HW2 1578   0.527   0.351   2.159
  308SOL     OW 1579   1.754   1.223   3.450
  308SOL    HW1 1580   1.845   1.184   3.437
  308SOL    HW2 1581   1.762   1.319   3.474
  309SOL     OW 1582   1.064   1.347   3.202
  309SOL    HW1 1583   0.984   1.324   3.257
  309SOL    HW2 1584   1.147   1.321   3.251
  310SOL     OW 1585   1.592   1.629   3.487
  310SOL    HW1 1586   1.619   1.663   3.397
  310SOL    HW2 1587   1.671   1.591   3.533
  311SOL     OW 1588   1.111   1.195   2.962
  311SOL    HW1 1589   1.071   1.239   3.043
  311SOL    HW2 1590   1.070   1.232   2.879
  312SOL     OW 1591   1.638   1.099   2.941
  312SOL    HW1 1592   1.643   1.180   3.000
  312SOL    HW2 1593   1.552   1.101   2.890
  313SOL     OW 1594   0.915   0.089   3.264
  313SOL    HW1 1595   0.940   0.069   3.169
  313SOL    HW2 1596   0.987   0.145   3.306
  314SOL     OW 1597   0.980   1.116   3.581
  314SOL    HW1 1598   0.881   1.122   3.591
  314SOL    HW2 1599   1.003   1.036   3.525
  315SOL     OW 1600   0.705   1.050   2.230
  315SOL    HW1 1601   0.691   1.057   2.329
  315SOL    HW2 1602   0.789   0.999   2.212
  316SOL     OW 1603   0.410   0.813   3.113
  316SOL    HW1 1604   0.496   0.825   3.163
  316SOL    HW2 1605   0.368   0.726   3.140
  317SOL     OW 1606   1.274   0.386   3.124
  317SOL    HW1 1607   1.295   0.460   3.188
  317SOL    HW2 1608   1.185   0.403   3.081
  318SOL     OW 1609   0.064   1.564   3.193
  318SOL    HW1 1610   0.018   1.646   3.159
  318SOL    HW2 1611   0.162   1.583   3.202
  319SOL     OW 1612   0.367   1.100   2.363
  319SOL    HW1 1613   0.360   1.183   2.307
  319SOL    HW2 1614   0.371   1.020   2.303
  320SOL     OW 1615   0.566   0.537   2.727
  320SOL    HW1 1616   0.578   0.603   2.653
  320SOL    HW2 1617   0.612   0.571   2.810
  321SOL     OW 1618   1.252   1.348   2.250
  321SOL    HW1 1619   1.302   1.425   2.290
  321SOL    HW2 1620   1.157   1.350   2.282
  322SOL     OW 1621   1.272   1.445   3.004
  322SOL    HW1 1622   1.319   1.458   3.091
  322SOL    HW2 1623   1.206   1.371   3.013
  323SOL     OW 1624   1.582   0.639   2.334
  323SOL    HW1 1625   1.551   0.700   2.407
  323SOL    HW2 1626   1.632   0.691   2.265
  324SOL     OW 1627   0.354   1.510   3.191
  324SOL    HW1 1628   0.333   1.466   3.104
  324SOL    HW2 1629   0.451   1.536   3.194
  325SOL     OW 1630   0.402   0.751   3.460
  325SOL    HW1 1631   0.470   0.806   3.413
  325SOL    HW2 1632   0.442   0.663   3.487
  326SOL     OW 1633   1.587   0.779   3.532
  326SOL    HW1 1634   1.495   0.817   3.527
  326SOL    HW2 1635   1.647   0.826   3.467
  327SOL     OW 1636   1.013   0.105   3.632
  327SOL    HW1 1637   1.019   0.190   3.580
  327SOL    HW2 1638   1.045   0.029   3.575
  328SOL     OW 1639   0.504   0.050   3.602
  328SOL    HW1 1640   0.462  -0.007   3.532
  328SOL    HW2 1641   0.438   0.119   3.634
  329SOL     OW 1642   0.573   0.870   2.891
  329SOL    HW1 1643   0.617   0.959   2.882
  329SOL    HW2 1644   0.510   0.870   2.968
  330SOL     OW 1645   1.360   0.862   2.907
  330SOL    HW1 1646   1.285   0.862   2.841
  330SOL    HW2 1647   1.397   0.770   2.916
  331SOL     OW 1648   1.209   0.525   2.137
  331SOL    HW1 1649   1.222   0.441   2.191
  331SOL    HW2 1650   1.180   0.599   2.197
  332SOL     OW 1651   0.307   0.213   3.093
  332SOL    HW1 1652   0.284   0.250   3.183
  332SOL    HW2 1653   0.277   0.118   3.087
  333SOL     OW 1654   0.037   1.310   3.144
  333SOL    HW1 1655   0.090   1.261   3.212
  333SOL    HW2 1656   0.059   1.408   3.149
  334SOL     OW 1657   0.732   0.634   2.926
  334SOL    HW1 1658   0.791   0.608   2.850
  334SOL    HW2 1659   0.704   0.730   2.915
  335SOL     OW 1660   1.728   0.935   3.716
  335SOL    HW1 1661   1.682   0.928   3.627
  335SOL    HW2 1662   1.666   0.979   3.782
  336SOL     OW 1663   0.307   0.063   2.480
  336SOL    HW1 1664   0.296   0.157   2.513
  336SOL    HW2 1665   0.302   0.000   2.557
  337SOL     OW 1666   1.622   0.367   2.236
  337SOL    HW1 1667   1.624   0.291   2.300
  337SOL    HW2 1668   1.574   0.444   2.276
  338SOL     OW 1669   1.023   0.766   2.828
  338SOL    HW1 1670   1.038   0.787   2.924
  338SOL    HW2 1671   0.993   0.671   2.819
  339SOL     OW 1672   0.980   1.573   3.562
  339SOL    HW1 1673   0.960   1.617   3.474
  339SOL    HW2 1674   1.019   1.482   3.546
  340SOL     OW 1675   1.859   1.518   3.467
  340SOL    HW1 1676   1.873   1.545   3.372
  340SOL    HW2 1677   1.942   1.540   3.520
  341SOL     OW 1678   0.350   0.898   3.666
  341SOL    HW1 1679   0.426   0.942   3.714
  341SOL    HW2 1680   0.385   0.851   3.584
  342SOL     OW 1681   1.540   0.274   1.987
  342SOL    HW1 1682   1.479   0.199   2.010
  342SOL    HW2 1683   1.562   0.326   2.070
  343SOL     OW 1684   1.303   0.838   1.904
  343SOL    HW1 1685   1.337   0.745   1.919
  343SOL    HW2 1686   1.321   0.865   1.809
  344SOL     OW 1687   1.068   1.333   2.711
  344SOL    HW1 1688   1.075   1.249   2.656
  344SOL    HW2 1689   1.130   1.402   2.675
  345SOL     OW 1690   0.319   0.810   2.811
  345SOL    HW1 1691   0.412   0.846   2.816
  345SOL    HW2 1692   0.313   0.725   2.863
  346SOL     OW 1693   0.339   0.509   2.868
  346SOL    HW1 1694   0.287   0.426   2.851
  346SOL    HW2 1695   0.416   0.514   2.804
  347SOL     OW 1696   1.138   0.380   3.540
  347SOL    HW1 1697   1.093   0.443   3.604
  347SOL    HW2 1698   1.231   0.411   3.523
  348SOL     OW 1699   1.160   0.207   3.339
  348SOL    HW1 1700   1.160   0.271   3.416
  348SOL    HW2 1701   1.188   0.255   3.256
  349SOL     OW 1702   0.008   1.326   2.062
  349SOL    HW1 1703  -0.085   1.347   2.031
  349SOL    HW2 1704   0.018   1.227   2.075
  350SOL     OW 1705   0.088   1.801   2.789
  350SOL    HW1 1706   0.046   1.715   2.762
  350SOL    HW2 1707   0.182   1.804   2.755
  351SOL     OW 1708   0.504   1.568   2.772
  351SOL    HW1 1709   0.570   1.642   2.781
  351SOL    HW2 1710   0.548   1.489   2.730
  352SOL     OW 1711   1.002   0.796   3.100
  352SOL    HW1 1712   1.043   0.764   3.186
  352SOL    HW2 1713   0.906   0.769   3.097
  353SOL     OW 1714   0.040   0.544   2.976
  353SOL    HW1 1715   0.125   0.511   2.935
  353SOL    HW2 1716   0.053   0.559   3.074
  354SOL     OW 1717   0.189   0.520   3.584
  354SOL    HW1 1718   0.248   0.480   3.514
  354SOL    HW2 1719   0.131   0.591   3.543
  355SOL     OW 1720   1.369   0.950   3.522
  355SOL    HW1 1721   1.408   1.039   3.542
  355SOL    HW2 1722   1.379   0.930   3.425
  356SOL     OW 1723   0.815   0.572   2.187
  356SOL    HW1 1724   0.822   0.483   2.141
  356SOL    HW2 1725   0.721   0.606   2.179
  357SOL     OW 1726   1.657   0.604   3.068
  357SOL    HW1 1727   1.619   0.535   3.130
  357SOL    HW2 1728   1.739   0.568   3.024
  358SOL     OW 1729   0.252   1.564   3.606
  358SOL    HW1 1730   0.222   1.621   3.682
  358SOL    HW2 1731   0.245   1.467   3.632
  359SOL     OW 1732   0.671   0.464   3.131
  359SOL    HW1 1733   0.637   0.375   3.101
  359SOL    HW2 1734   0.697   0.518   3.051
  360SOL     OW 1735   0.930   1.678   3.327
  360SOL    HW1 1736   0.906   1.660   3.232
  360SOL    HW2 1737   0.960   1.772   3.337
  361SOL     OW 1738   0.473   0.500   2.053
  361SOL    HW1 1739   0.534   0.580   2.057
  361SOL    HW2 1740   0.378   0.531   2.060
  362SOL     OW 1741   0.159   1.137   3.328
  362SOL    HW1 1742   0.181   1.076   3.404
  362SOL    HW2 1743   0.169   1.088   3.242
  363SOL     OW 1744   1.347   1.059   3.096
  363SOL    HW1 1745   1.371   0.996   3.022
  363SOL    HW2 1746   1.257   1.099   3.078
  364SOL     OW 1747   1.302   0.855   2.171
  364SOL    HW1 1748   1.216   0.824   2.213
  364SOL    HW2 1749   1.298   0.841   2.072
  365SOL     OW 1750   1.759   1.747   3.016
  365SOL    HW1 1751   1.820   1.777   2.943
  365SOL    HW2 1752   1.721   1.658   2.994
  366SOL     OW 1753   1.252   1.731   2.990
  366SOL    HW1 1754   1.336   1.736   2.936
  366SOL    HW2 1755   1.229   1.635   3.008
  367SOL     OW 1756   0.083   1.258   2.884
  367SOL    HW1 1757   0.078   1.257   2.984
  367SOL    HW2 1758   0.000   1.217   2.846
  368SOL     OW 1759   0.688   1.662   3.578
  368SOL    HW1 1760   0.632   1.743   3.587
  368SOL    HW2 1761   0.740   1.666   3.492
  369SOL     OW 1762   1.726   0.135   2.385
  369SOL    HW1 1763   1.799   0.118   2.318
  369SOL    HW2 1764   1.695   0.048   2.423
  370SOL     OW 1765   1.388   1.573   2.339
  370SOL    HW1 1766   1.455   1.585   2.265
  370SOL    HW2 1767   1.348   1.662   2.362
  371SOL     OW 1768   0.130   1.794   3.713
  371SOL    HW1 1769   0.089   1.720   3.766
  371SOL    HW2 1770   0.194   1.845   3.771
  372SOL     OW 1771   1.280   0.927   2.534
  372SOL    HW1 1772   1.340   0.846   2.536
  372SOL    HW2 1773   1.320   0.996   2.474
  373SOL     OW 1774   0.830   1.273   3.284
  373SOL    HW1 1775   0.825   1.306   3.379
  373SOL    HW2 1776   0.744   1.292   3.238
  374SOL     OW 1777   0.672   1.616   2.016
  374SOL    HW1 1778   0.681   1.626   1.917
  374SOL    HW2 1779   0.632   1.527   2.037
  375SOL     OW 1780   1.650   1.720   3.256
  375SOL    HW1 1781   1.703   1.730   3.172
  375SOL    HW2 1782   1.623   1.810   3.290
  376SOL     OW 1783   1.841   0.175   2.825
  376SOL    HW1 1784   1.880   0.090   2.789
  376SOL    HW2 1785   1.743   0.177   2.806
  377SOL     OW 1786   0.263   0.326   2.582
  377SOL    HW1 1787   0.184   0.377   2.548
  377SOL    HW2 1788   0.254   0.311   2.680
  378SOL     OW 1789   1.194   1.612   1.893
  378SOL    HW1 1790   1.200   1.519   1.930
  378SOL    HW2 1791   1.135   1.612   1.813
  379SOL     OW 1792   0.822   1.002   3.234
  379SOL    HW1 1793   0.862   1.001   3.142
  379SOL    HW2 1794   0.832   1.094   3.274
  380SOL     OW 1795   0.916   0.910   2.153
  380SOL    HW1 1796   0.979   0.948   2.085
  380SOL    HW2 1797   0.956   0.827   2.192
  381SOL     OW 1798   1.504   1.607   1.906
  381SOL    HW1 1799   1.412   1.644   1.913
  381SOL    HW2 1800   1.542   1.627   1.816
  382SOL     OW 1801   0.372   1.288   3.352
  382SOL    HW1 1802   0.359   1.381   3.318
  382SOL    HW2 1803   0.288   1.236   3.339
  383SOL     OW 1804   1.614   1.292   3.151
  383SOL    HW1 1805   1.674   1.295   3.231
  383SOL    HW2 1806   1.539   1.356   3.164
  384SOL     OW 1807   1.039   1.098   2.558
  384SOL    HW1 1808   0.969   1.051   2.612
  384SOL    HW2 1809   1.098   1.030   2.515
  385SOL     OW 1810   1.014   0.236   2.833
  385SOL    HW1 1811   1.006   0.200   2.740
  385SOL    HW2 1812   1.012   0.160   2.898
  386SOL     OW 1813   0.590   1.487   2.353
  386SOL    HW1 1814   0.632   1.429   2.283
  386SOL    HW2 1815   0.546   1.566   2.309
  387SOL     OW 1816   1.709   0.385   3.243
  387SOL    HW1 1817   1.782   0.454   3.247
  387SOL    HW2 1818   1.737   0.310   3.184
  388SOL     OW 1819   0.255   1.348   2.152
  388SOL    HW1 1820   0.159   1.349   2.125
  388SOL    HW2 1821   0.267   1.401   2.236
  389SOL     OW 1822   0.105   1.013   3.588
  389SOL    HW1 1823   0.028   0.980   3.642
  389SOL    HW2 1824   0.190   0.983   3.630
  390SOL     OW 1825   0.672   0.203   3.351
  390SOL    HW1 1826   0.762   0.187   3.311
  390SOL    HW2 1827   0.680   0.208   3.450
  391SOL     OW 1828   0.075   0.345   1.895
  391SOL    HW1 1829  -0.017   0.317   1.866
  391SOL    HW2 1830   0.106   0.422   1.839
  392SOL     OW 1831   1.440   0.856   3.260
  392SOL    HW1 1832   1.383   0.908   3.197
  392SOL    HW2 1833   1.536   0.868   3.236
  393SOL     OW 1834   0.072   0.166   2.180
  393SOL    HW1 1835   0.055   0.249   2.126
  393SOL    HW2 1836   0.162   0.129   2.158
  394SOL     OW 1837   1.183   1.335   1.981
  394SOL    HW1 1838   1.084   1.324   1.983
  394SOL    HW2 1839   1.217   1.350   2.074
  395SOL     OW 1840   0.613   0.842   3.293
  395SOL    HW1 1841   0.669   0.923   3.276
  395SOL    HW2 1842   0.672   0.762   3.296
  396SOL     OW 1843   1.493   1.767   2.821
  396SOL    HW1 1844   1.526   1.831   2.752
  396SOL    HW2 1845   1.559   1.761   2.896
  397SOL     OW 1846   0.716   0.565   3.570
  397SOL    HW1 1847   0.735   0.630   3.644
  397SOL    HW2 1848   0.776   0.485   3.579
  398SOL     OW 1849   1.450   1.220   3.495
  398SOL    HW1 1850   1.441   1.210   3.594
  398SOL    HW2 1851   1.546   1.213   3.469
  399SOL     OW 1852   0.390   1.741   3.422
  399SOL    HW1 1853   0.299   1.782   3.420
  399SOL    HW2 1854   0.383   1.647   3.454
  400SOL     OW 1855   1.674   0.883   3.116
  400SOL    HW1 1856   1.647   0.794   3.079
  400SOL    HW2 1857   1.675   0.951   3.043
  401SOL     OW 1858   1.225   0.325   2.311
  401SOL    HW1 1859   1.290   0.251   2.300
  401SOL    HW2 1860   1.245   0.375   2.395
  402SOL     OW 1861   0.594   0.745   2.514
  402SOL    HW1 1862   0.644   0.830   2.495
  402SOL    HW2 1863   0.506   0.747   2.466
  403SOL     OW 1864   1.777   0.342   3.504
  403SOL    HW1 1865   1.760   0.373   3.410
  403SOL    HW2 1866   1.693   0.305   3.542
  404SOL     OW 1867   1.730   0.934   3.379
  404SOL    HW1 1868   1.768   1.025   3.394
  404SOL    HW2 1869   1.722   0.917   3.280
  405SOL     OW 1870   0.859   1.374   1.878
  405SOL    HW1 1871   0.813   1.389   1.966
  405SOL    HW2 1872   0.903   1.459   1.848
  406SOL     OW 1873   0.661   1.790   2.815
  406SOL    HW1 1874   0.615   1.878   2.802
  406SOL    HW2 1875   0.760   1.802   2.808
  407SOL     OW 1876   0.859   0.956   2.723
  407SOL    HW1 1877   0.913   0.887   2.771
  407SOL    HW2 1878   0.827   1.025   2.789
  408SOL     OW 1879   1.083   0.984   1.949
  408SOL    HW1 1880   1.060   1.037   1.867
  408SOL    HW2 1881   1.164   0.928   1.930
  409SOL     OW 1882   1.861   1.569   2.713
  409SOL    HW1 1883   1.790   1.557   2.643
  409SOL    HW2 1884   1.862   1.490   2.773
  410SOL     OW 1885   0.221   1.314   3.706
  410SOL    HW1 1886   0.156   1.241   3.685
  410SOL    HW2 1887   0.225   1.328   3.804
  411SOL     OW 1888   0.079   1.240   2.515
  411SOL    HW1 1889   0.078   1.193   2.603
  411SOL    HW2 1890   0.161   1.212   2.464
  412SOL     OW 1891   0.672   1.391   3.486
  412SOL    HW1 1892   0.594   1.341   3.524
  412SOL    HW2 1893   0.669   1.486   3.517
  413SOL     OW 1894   1.824   0.192   3.089
  413SOL    HW1 1895   1.820   0.102   3.133
  413SOL    HW2 1896   1.827   0.181   2.990
  414SOL     OW 1897   0.428   0.424   2.382
  414SOL    HW1 1898   0.458   0.352   2.320
  414SOL    HW2 1899   0.389   0.384   2.465
  415SOL     OW 1900   1.705   1.487   2.966
  415SOL    HW1 1901   1.612   1.462   2.939
  415SOL    HW2 1902   1.731   1.437   3.048
  416SOL     OW 1903   0.317   0.547   3.142
  416SOL    HW1 1904   0.355   0.488   3.214
  416SOL    HW2 1905   0.357   0.521   3.054
  417SOL     OW 1906   0.812   1.586   2.549
  417SOL    HW1 1907   0.844   1.596   2.455
  417SOL    HW2 1908   0.733   1.524   2.551
  418SOL     OW 1909   1.424   0.214   2.974
  418SOL    HW1 1910   1.476   0.149   3.029
  418SOL    HW2 1911   1.375   0.277   3.035
  419SOL     OW 1912   1.001   0.034   3.016
  419SOL    HW1 1913   0.938  -0.038   2.985
  419SOL    HW2 1914   1.094  -0.002   3.016
  420SOL     OW 1915   0.770   1.330   2.163
  420SOL    HW1 1916   0.724   1.243   2.180
  420SOL    HW2 1917   0.861   1.327   2.204
  421SOL     OW 1918   0.618   1.567   3.146
  421SOL    HW1 1919   0.613   1.649   3.203
  421SOL    HW2 1920   0.707   1.564   3.101
  422SOL     OW 1921   1.352   0.052   2.030
  422SOL    HW1 1922   1.387   0.011   1.946
  422SOL    HW2 1923   1.262   0.014   2.050
  423SOL     OW 1924   1.300   0.453   2.553
  423SOL    HW1 1925   1.241   0.533   2.557
  423SOL    HW2 1926   1.315   0.418   2.646
  424SOL     OW 1927   1.593   0.221   2.744
  424SOL    HW1 1928   1.509   0.220   2.798
  424SOL    HW2 1929   1.595   0.304   2.688
  425SOL     OW 1930   0.039   1.077   2.162
  425SOL    HW1 1931   0.138   1.066   2.153
  425SOL    HW2 1932  -0.001   0.991   2.194
  426SOL     OW 1933   0.875   1.646   2.199
  426SOL    HW1 1934   0.798   1.611   2.145
  426SOL    HW2 1935   0.843   1.717   2.261
  427SOL     OW 1936   0.230   0.628   3.837
  427SOL    HW1 1937   0.137   0.626   3.874
  427SOL    HW2 1938   0.231   0.589   3.745
  428SOL     OW 1939   0.225   0.275   4.720
  428SOL    HW1 1940   0.260   0.258   4.812
  428SOL    HW2 1941   0.137   0.230   4.708
  429SOL     OW 1942   0.019   0.368   4.371
  429SOL    HW1 1943  -0.063   0.411   4.410
  429SOL    HW2 1944  -0.009   0.295   4.308
  430SOL     OW 1945   0.569   1.275   4.889
  430SOL    HW1 1946   0.476   1.268   4.852
  430SOL    HW2 1947   0.580   1.364   4.933
  431SOL     OW 1948   1.555   1.511   4.427
  431SOL    HW1 1949   1.498   1.495   4.508
  431SOL    HW2 1950   1.496   1.521   4.347
  432SOL     OW 1951   1.135   0.703   4.441
  432SOL    HW1 1952   1.192   0.781   4.416
  432SOL    HW2 1953   1.075   0.729   4.517
  433SOL     OW 1954   1.755   0.607   3.955
  433SOL    HW1 1955   1.743   0.594   3.856
  433SOL    HW2 1956   1.725   0.526   4.004
  434SOL     OW 1957   0.768   1.144   4.747
  434SOL    HW1 1958   0.690   1.161   4.807
  434SOL    HW2 1959   0.802   1.231   4.711
  435SOL     OW 1960   0.850   0.798   5.547
  435SOL    HW1 1961   0.846   0.874   5.612
  435SOL    HW2 1962   0.872   0.834   5.456
  436SOL     OW 1963   0.685   1.012   4.389
  436SOL    HW1 1964   0.754   0.996   4.459
  436SOL    HW2 1965   0.612   1.069   4.427
  437SOL     OW 1966   0.686   1.161   5.527
  437SOL    HW1 1967   0.746   1.240   5.541
  437SOL    HW2 1968   0.600   1.192   5.486
  438SOL     OW 1969   0.335   1.435   4.785
  438SOL    HW1 1970   0.257   1.404   4.732
  438SOL    HW2 1971   0.393   1.493   4.728
  439SOL     OW 1972   1.460   1.505   5.063
  439SOL    HW1 1973   1.484   1.599   5.089
  439SOL    HW2 1974   1.444   1.451   5.145
  440SOL     OW 1975   0.438   0.392   5.223
  440SOL    HW1 1976   0.520   0.336   5.232
  440SOL    HW2 1977   0.357   0.334   5.227
  441SOL     OW 1978   1.603   0.447   4.461
  441SOL    HW1 1979   1.529   0.493   4.411
  441SOL    HW2 1980   1.654   0.515   4.514
  442SOL     OW 1981   0.231   1.713   4.207
  442SOL    HW1 1982   0.265   1.790   4.261
  442SOL    HW2 1983   0.275   1.713   4.117
  443SOL     OW 1984   1.127   1.341   5.414
  443SOL    HW1 1985   1.174   1.341   5.502
  443SOL    HW2 1986   1.079   1.254   5.403
  444SOL     OW 1987   0.230   1.434   4.262
  444SOL    HW1 1988   0.204   1.530   4.262
  444SOL    HW2 1989   0.159   1.380   4.307
  445SOL     OW 1990   0.240   1.091   4.610
  445SOL    HW1 1991   0.254   1.007   4.662
  445SOL    HW2 1992   0.185   1.155   4.665
  446SOL     OW 1993   0.620   1.786   5.163
  446SOL    HW1 1994   0.528   1.769   5.198
  446SOL    HW2 1995   0.648   1.878   5.189
  447SOL     OW 1996   0.606   0.964   3.847
  447SOL    HW1 1997   0.613   1.048   3.793
  447SOL    HW2 1998   0.652   0.977   3.935
  448SOL     OW 1999   1.594   0.114   5.204
  448SOL    HW1 2000   1.576   0.181   5.132
  448SOL    HW2 2001   1.591   0.160   5.293
  449SOL     OW 2002   0.122   0.643   4.287
  449SOL    HW1 2003   0.077   0.555   4.304
  449SOL    HW2 2004   0.121   0.697   4.371
  450SOL     OW 2005   1.842   1.767   4.083
  450SOL    HW1 2006   1.896   1.738   4.163
  450SOL    HW2 2007   1.872   1.857   4.054
  451SOL     OW 2008   0.027   1.596   3.841
  451SOL    HW1 2009   0.008   1.500   3.862
  451SOL    HW2 2010  -0.006   1.654   3.916
  452SOL     OW 2011   1.689   0.922   4.336
  452SOL    HW1 2012   1.784   0.893   4.344
  452SOL    HW2 2013   1.681   0.987   4.261
  453SOL     OW 2014   1.641   1.108   4.156
  453SOL    HW1 2015   1.727   1.110   4.104
  453SOL    HW2 2016   1.655   1.155   4.244
  454SOL     OW 2017   0.113   0.737   5.321
  454SOL    HW1 2018   0.201   0.724   5.366
  454SOL    HW2 2019   0.100   0.834   5.299
  455SOL     OW 2020   0.613   1.365   4.450
  455SOL    HW1 2021   0.564   1.278   4.459
  455SOL    HW2 2022   0.590   1.408   4.363
  456SOL     OW 2023   1.293   1.228   5.147
  456SOL    HW1 2024   1.330   1.155   5.089
  456SOL    HW2 2025   1.345   1.233   5.232
  457SOL     OW 2026   0.809   0.004   4.226
  457SOL    HW1 2027   0.849   0.095   4.217
  457SOL    HW2 2028   0.709   0.012   4.232
  458SOL     OW 2029   0.197   0.976   4.988
  458SOL    HW1 2030   0.286   0.931   4.974
  458SOL    HW2 2031   0.124   0.911   4.969
  459SOL     OW 2032   1.525   0.999   3.914
  459SOL    HW1 2033   1.462   0.923   3.927
  459SOL    HW2 2034   1.573   1.017   4.000
  460SOL     OW 2035   1.187   1.792   5.340
  460SOL    HW1 2036   1.211   1.852   5.264
  460SOL    HW2 2037   1.194   1.697   5.310
  461SOL     OW 2038   0.317   0.251   5.525
  461SOL    HW1 2039   0.388   0.322   5.531
  461SOL    HW2 2040   0.229   0.290   5.553
  462SOL     OW 2041   1.466   1.417   4.677
  462SOL    HW1 2042   1.407   1.423   4.757
  462SOL    HW2 2043   1.451   1.329   4.631
  463SOL     OW 2044   1.667   1.714   4.296
  463SOL    HW1 2045   1.626   1.691   4.208
  463SOL    HW2 2046   1.649   1.640   4.361
  464SOL     OW 2047   0.598   0.729   3.994
  464SOL    HW1 2048   0.622   0.798   3.926
  464SOL    HW2 2049   0.520   0.762   4.048
  465SOL     OW 2050   1.281   0.345   4.668
  465SOL    HW1 2051   1.195   0.295   4.655
  465SOL    HW2 2052   1.343   0.291   4.724
  466SOL     OW 2053   1.576   1.662   4.031
  466SOL    HW1 2054   1.665   1.708   4.034
  466SOL    HW2 2055   1.555   1.638   3.936
  467SOL     OW 2056   0.807   0.605   5.189
  467SOL    HW1 2057   0.760   0.602   5.278
  467SOL    HW2 2058   0.756   0.550   5.123
  468SOL     OW 2059   1.394   0.469   5.398
  468SOL    HW1 2060   1.374   0.512   5.486
  468SOL    HW2 2061   1.472   0.407   5.407
  469SOL     OW 2062   0.973   0.890   5.296
  469SOL    HW1 2063   1.019   0.806   5.267
  469SOL    HW2 2064   0.917   0.924   5.221
  470SOL     OW 2065   0.991   0.410   4.966
  470SOL    HW1 2066   0.914   0.444   5.020
  470SOL    HW2 2067   0.957   0.359   4.887
  471SOL     OW 2068   1.041   0.701   4.153
  471SOL    HW1 2069   1.067   0.697   4.249
  471SOL    HW2 2070   0.956   0.650   4.139
  472SOL     OW 2071   0.076   0.811   4.513
  472SOL    HW1 2072   0.175   0.799   4.522
  472SOL    HW2 2073   0.052   0.906   4.534
  473SOL     OW 2074   0.130   1.821   5.295
  473SOL    HW1 2075   0.120   1.806   5.394
  473SOL    HW2 2076   0.044   1.857   5.259
  474SOL     OW 2077   0.865   0.348   3.919
  474SOL    HW1 2078   0.924   0.411   3.870
  474SOL    HW2 2079   0.884   0.254   3.890
  475SOL     OW 2080   1.719   0.585   5.555
  475SOL    HW1 2081   1.693   0.674   5.519
  475SOL    HW2 2082   1.717   0.517   5.482
  476SOL     OW 2083   1.362   1.144   4.269
  476SOL    HW1 2084   1.445   1.115   4.221
  476SOL    HW2 2085   1.313   1.211   4.213
  477SOL     OW 2086   0.550   0.196   4.609
  477SOL    HW1 2087   0.545   0.191   4.709
  477SOL    HW2 2088   0.552   0.292   4.580
  478SOL     OW 2089   1.008   1.456   4.201
  478SOL    HW1 2090   0.962   1.528   4.149
  478SOL    HW2 2091   1.004   1.476   4.299
  479SOL     OW 2092   0.351   1.801   4.577
  479SOL    HW1 2093   0.401   1.715   4.583
  479SOL    HW2 2094   0.416   1.878   4.574
  480SOL     OW 2095   1.795   1.066   4.597
  480SOL    HW1 2096   1.733   1.051   4.521
  480SOL    HW2 2097   1.743   1.077   4.682
  481SOL     OW 2098   1.227   1.550   5.230
  481SOL    HW1 2099   1.233   1.473   5.294
  481SOL    HW2 2100   1.175   1.524   5.150
  482SOL     OW 2101   0.321   0.943   3.966
  482SOL    HW1 2102   0.403   0.982   3.924
  482SOL    HW2 2103   0.294   0.861   3.917
  483SOL     OW 2104   1.458   0.735   4.452
  483SOL    HW1 2105   1.453   0.670   4.527
  483SOL    HW2 2106   1.538   0.794   4.465
  484SOL     OW 2107   0.461   1.266   5.451
  484SOL    HW1 2108   0.411   1.267   5.365
  484SOL    HW2 2109   0.398   1.248   5.527
  485SOL     OW 2110   1.111   1.776   3.961
  485SOL    HW1 2111   1.051   1.714   4.011
  485SOL    HW2 2112   1.142   1.732   3.876
  486SOL     OW 2113   0.202   0.285   5.222
  486SOL    HW1 2114   0.122   0.345   5.209
  486SOL    HW2 2115   0.192   0.236   5.308
  487SOL     OW 2116   1.632   1.377   3.805
  487SOL    HW1 2117   1.600   1.471   3.795
  487SOL    HW2 2118   1.556   1.314   3.793
  488SOL     OW 2119   0.464   1.743   4.047
  488SOL    HW1 2120   0.497   1.782   4.133
  488SOL    HW2 2121   0.540   1.736   3.982
  489SOL     OW 2122   1.400   0.107   4.150
  489SOL    HW1 2123   1.376   0.070   4.060
  489SOL    HW2 2124   1.499   0.123   4.154
  490SOL     OW 2125   0.249   1.785   4.965
  490SOL    HW1 2126   0.306   1.720   5.015
  490SOL    HW2 2127   0.233   1.752   4.872
  491SOL     OW 2128   0.940   1.698   4.628
  491SOL    HW1 2129   1.020   1.641   4.649
  491SOL    HW2 2130   0.891   1.658   4.551
  492SOL     OW 2131   0.382   0.700   4.204
  492SOL    HW1 2132   0.427   0.610   4.201
  492SOL    HW2 2133   0.288   0.689   4.237
  493SOL     OW 2134   1.547   0.222   5.453
  493SOL    HW1 2135   1.542   0.259   5.545
  493SOL    HW2 2136   1.475   0.153   5.441
  494SOL     OW 2137   0.614   0.122   3.841
  494SOL    HW1 2138   0.712   0.100   3.848
  494SOL    HW2 2139   0.583   0.105   3.748
  495SOL     OW 2140   0.781   0.264   5.473
  495SOL    HW1 2141   0.848   0.203   5.516
  495SOL    HW2 2142   0.708   0.283   5.538
  496SOL     OW 2143   0.888   1.514   4.919
  496SOL    HW1 2144   0.865   1.489   4.825
  496SOL    HW2 2145   0.949   1.445   4.958
  497SOL     OW 2146   1.351   0.590   5.157
  497SOL    HW1 2147   1.379   0.547   5.242
  497SOL    HW2 2148   1.376   0.686   5.158
  498SOL     OW 2149   0.803   1.402   4.648
  498SOL    HW1 2150   0.893   1.416   4.606
  498SOL    HW2 2151   0.732   1.404   4.577
  499SOL     OW 2152   0.922   0.503   4.623
  499SOL    HW1 2153   0.897   0.494   4.527
  499SOL    HW2 2154   0.970   0.421   4.654
  500SOL     OW 2155   0.539   0.064   4.236
  500SOL    HW1 2156   0.458   0.065   4.294
  500SOL    HW2 2157   0.542   0.147   4.181
  501SOL     OW 2158   1.434   1.188   3.765
  501SOL    HW1 2159   1.466   1.112   3.822
  501SOL    HW2 2160   1.342   1.215   3.795
  502SOL     OW 2161   0.297   0.035   3.895
  502SOL    HW1 2162   0.346   0.119   3.874
  502SOL    HW2 2163   0.359  -0.030   3.940
  503SOL     OW 2164   0.935   0.236   4.204
  503SOL    HW1 2165   0.887   0.277   4.126
  503SOL    HW2 2166   1.034   0.234   4.185
  504SOL     OW 2167   1.076   0.683   5.188
  504SOL    HW1 2168   0.996   0.622   5.191
  504SOL    HW2 2169   1.157   0.630   5.164
  505SOL     OW 2170   1.227   1.570   4.517
  505SOL    HW1 2171   1.248   1.644   4.452
  505SOL    HW2 2172   1.295   1.570   4.590
  506SOL     OW 2173   0.459   1.152   4.465
  506SOL    HW1 2174   0.388   1.125   4.530
  506SOL    HW2 2175   0.433   1.124   4.372
  507SOL     OW 2176   1.271   1.797   4.315
  507SOL    HW1 2177   1.315   1.861   4.251
  507SOL    HW2 2178   1.221   1.849   4.385
  508SOL     OW 2179   1.032   0.549   3.740
  508SOL    HW1 2180   0.991   0.631   3.701
  508SOL    HW2 2181   1.096   0.575   3.813
  509SOL     OW 2182   0.078   0.556   5.110
  509SOL    HW1 2183   0.170   0.555   5.069
  509SOL    HW2 2184   0.072   0.630   5.177
  510SOL     OW 2185   0.561   0.222   4.871
  510SOL    HW1 2186   0.599   0.138   4.908
  510SOL    HW2 2187   0.473   0.241   4.915
  511SOL     OW 2188   0.866   0.454   4.366
  511SOL    HW1 2189   0.834   0.526   4.304
  511SOL    HW2 2190   0.890   0.373   4.313
  512SOL     OW 2191   1.017   0.039   4.477
  512SOL    HW1 2192   0.945   0.044   4.408
  512SOL    HW2 2193   0.993  -0.030   4.546
  513SOL     OW 2194   1.429   1.173   4.591
  513SOL    HW1 2195   1.374   1.089   4.584
  513SOL    HW2 2196   1.455   1.202   4.499
  514SOL     OW 2197   1.466   0.590   4.716
  514SOL    HW1 2198   1.436   0.495   4.723
  514SOL    HW2 2199   1.539   0.606   4.782
  515SOL     OW 2200   1.857   0.833   4.101
  515SOL    HW1 2201   1.899   0.769   4.165
  515SOL    HW2 2202   1.819   0.782   4.023
  516SOL     OW 2203   0.488   1.385   3.898
  516SOL    HW1 2204   0.401   1.370   3.945
  516SOL    HW2 2205   0.471   1.411   3.803
  517SOL     OW 2206   1.664   1.280   4.381
  517SOL    HW1 2207   1.763   1.288   4.395
  517SOL    HW2 2208   1.619   1.364   4.412
  518SOL     OW 2209   1.390   0.575   3.802
  518SOL    HW1 2210   1.336   0.554   3.883
  518SOL    HW2 2211   1.481   0.534   3.811
  519SOL     OW 2212   0.527   0.256   4.052
  519SOL    HW1 2213   0.554   0.197   3.977
  519SOL    HW2 2214   0.527   0.351   4.021
  520SOL     OW 2215   1.754   1.223   5.312
  520SOL    HW1 2216   1.845   1.184   5.299
  520SOL    HW2 2217   1.762   1.319   5.336
  521SOL     OW 2218   1.064   1.347   5.064
  521SOL    HW1 2219   0.984   1.324   5.119
  521SOL    HW2 2220   1.147   1.321   5.113
  522SOL     OW 2221   1.111   1.195   4.824
  522SOL    HW1 2222   1.071   1.239   4.905
  522SOL    HW2 2223   1.070   1.232   4.741
  523SOL     OW 2224   1.638   1.099   4.803
  523SOL    HW1 2225   1.643   1.180   4.862
  523SOL    HW2 2226   1.552   1.101   4.752
  524SOL     OW 2227   0.915   0.089   5.126
  524SOL    HW1 2228   0.940   0.069   5.031
  524SOL    HW2 2229   0.987   0.145   5.168
  525SOL     OW 2230   0.980   1.116   5.443
  525SOL    HW1 2231   0.881   1.122   5.453
  525SOL    HW2 2232   1.003   1.036   5.387
  526SOL     OW 2233   0.705   1.050   4.092
  526SOL    HW1 2234   0.691   1.057   4.191
  526SOL    HW2 2235   0.789   0.999   4.074
  527SOL     OW 2236   0.410   0.813   4.975
  527SOL    HW1 2237   0.496   0.825   5.025
  527SOL    HW2 2238   0.368   0.726   5.002
  528SOL     OW 2239   1.274   0.386   4.986
  528SOL    HW1 2240   1.295   0.460   5.050
  528SOL    HW2 2241   1.185   0.403   4.943
  529SOL     OW 2242   0.064   1.564   5.055
  529SOL    HW1 2243   0.018   1.646   5.021
  529SOL    HW2 2244   0.162   1.583   5.064
  530SOL     OW 2245   0.367   1.100   4.225
  530SOL    HW1 2246   0.360   1.183   4.169
  530SOL    HW2 2247   0.371   1.020   4.165
  531SOL     OW 2248   0.566   0.537   4.589
  531SOL    HW1 2249   0.578   0.603   4.515
  531SOL    HW2 2250   0.612   0.571   4.672
  532SOL     OW 2251   1.252   1.348   4.112
  532SOL    HW1 2252   1.302   1.425   4.152
  532SOL    HW2 2253   1.157   1.350   4.144
  533SOL     OW 2254   1.272   1.445   4.866
  533SOL    HW1 2255   1.319   1.458   4.953
  533SOL    HW2 2256   1.206   1.371   4.875
  534SOL     OW 2257   1.582   0.639   4.196
  534SOL    HW1 2258   1.551   0.700   4.269
  534SOL    HW2 2259   1.632   0.691   4.127
  535SOL     OW 2260   0.354   1.510   5.053
  535SOL    HW1 2261   0.333   1.466   4.966
  535SOL    HW2 2262   0.451   1.536   5.056
  536SOL     OW 2263   0.402   0.751   5.322
  536SOL    HW1 2264   0.470   0.806   5.275
  536SOL    HW2 2265   0.442   0.663   5.349
  537SOL     OW 2266   1.587   0.779   5.394
  537SOL    HW1 2267   1.495   0.817   5.389
  537SOL    HW2 2268   1.647   0.826   5.329
  538SOL     OW 2269   1.013   0.105   5.494
  538SOL    HW1 2270   1.019   0.190   5.442
  538SOL    HW2 2271   1.045   0.029   5.437
  539SOL     OW 2272   0.504   0.050   5.464
  539SOL    HW1 2273   0.462  -0.007   5.394
  539SOL    HW2 2274   0.438   0.119   5.496
  540SOL     OW 2275   0.573   0.870   4.753
  540SOL    HW1 2276   0.617   0.959   4.744
  540SOL    HW2 2277   0.510   0.870   4.830
  541SOL     OW 2278   1.360   0.862   4.769
  541SOL    HW1 2279   1.285   0.862   4.703
  541SOL    HW2 2280   1.397   0.770   4.778
  542SOL     OW 2281   1.209   0.525   3.999
  542SOL    HW1 2282   1.222   0.441   4.053
  542SOL    HW2 2283   1.180   0.599   4.059
  543SOL     OW 2284   0.307   0.213   4.955
  543SOL    HW1 2285   0.284   0.250   5.045
  543SOL    HW2 2286   0.277   0.118   4.949
  544SOL     OW 2287   0.037   1.310   5.006
  544SOL    HW1 2288   0.090   1.261   5.074
  544SOL    HW2 2289   0.059   1.408   5.011
  545SOL     OW 2290   0.732   0.634   4.788
  545SOL    HW1 2291   0.791   0.608   4.712
  545SOL    HW2 2292   0.704   0.730   4.777
  546SOL     OW 2293   1.728   0.935   5.578
  546SOL    HW1 2294   1.682   0.928   5.489
  546SOL    HW2 2295   1.666   0.979   5.644
  547SOL     OW 2296   0.307   0.063   4.342
  547SOL    HW1 2297   0.296   0.157   4.375
  547SOL    HW2 2298   0.302   0.000   4.419
  548SOL     OW 2299   1.622   0.367   4.098
  548SOL    HW1 2300   1.624   0.291   4.162
  548SOL    HW2 2301   1.574   0.444   4.138
  549SOL     OW 2302   1.023   0.766   4.690
  549SOL    HW1 2303   1.038   0.787   4.786
  549SOL    HW2 2304   0.993   0.671   4.681
  550SOL     OW 2305   0.980   1.573   5.424
  550SOL    HW1 2306   0.960   1.617   5.336
  550SOL    HW2 2307   1.019   1.482   5.408
  551SOL     OW 2308   0.350   0.898   5.528
  551SOL    HW1 2309   0.426   0.942   5.576
  551SOL    HW2 2310   0.385   0.851   5.446
  552SOL     OW 2311   1.540   0.274   3.849
  552SOL    HW1 2312   1.479   0.199   3.872
  552SOL    HW2 2313   1.562   0.326   3.932
  553SOL     OW 2314   1.303   0.838   3.766
  553SOL    HW1 2315   1.337   0.745   3.781
  553SOL    HW2 2316   1.321   0.865   3.671
  554SOL     OW 2317   1.068   1.333   4.573
  554SOL    HW1 2318   1.075   1.249   4.518
  554SOL    HW2 2319   1.130   1.402   4.537
  555SOL     OW 2320   0.319   0.810   4.673
  555SOL    HW1 2321   0.412   0.846   4.678
  555SOL    HW2 2322   0.313   0.725   4.725
  556SOL     OW 2323   0.339   0.509   4.730
  556SOL    HW1 2324   0.287   0.426   4.713
  556SOL    HW2 2325   0.416   0.514   4.666
  557SOL     OW 2326   1.138   0.380   5.402
  557SOL    HW1 2327   1.093   0.443   5.466
  557SOL    HW2 2328   1.231   0.411   5.385
  558SOL     OW 2329   1.160   0.207   5.201
  558SOL    HW1 2330   1.160   0.271   5.278
  558SOL    HW2 2331   1.188   0.255   5.118
  559SOL     OW 2332   0.008   1.326   3.924
  559SOL    HW1 2333  -0.085   1.347   3.893
  559SOL    HW2 2334   0.018   1.227   3.937
  560SOL     OW 2335   0.088   1.801   4.651
  560SOL    HW1 2336   0.046   1.715   4.624
  560SOL    HW2 2337   0.182   1.804   4.617
  561SOL     OW 2338   0.504   1.568   4.634
  561SOL    HW1 2339   0.570   1.642   4.643
  561SOL    HW2 2340   0.548   1.489   4.592
  562SOL     OW 2341   1.002   0.796   4.962
  562SOL    HW1 2342   1.043   0.764   5.048
  562SOL    HW2 2343   0.906   0.769   4.959
  563SOL     OW 2344   0.040   0.544   4.838
  563SOL    HW1 2345   0.125   0.511   4.797
  563SOL    HW2 2346   0.053   0.559   4.936
  564SOL     OW 2347   0.189   0.520   5.446
  564SOL    HW1 2348   0.248   0.480   5.376
  564SOL    HW2 2349   0.131   0.591   5.405
  565SOL     OW 2350   1.369   0.950   5.384
  565SOL    HW1 2351   1.408   1.039   5.404
  565SOL    HW2 2352   1.379   0.930   5.287
  566SOL     OW 2353   0.815   0.572   4.049
  566SOL    HW1 2354   0.822   0.483   4.003
  566SOL    HW2 2355   0.721   0.606   4.041
  567SOL     OW 2356   1.657   0.604   4.930
  567SOL    HW1 2357   1.619   0.535   4.992
  567SOL    HW2 2358   1.739   0.568   4.886
  568SOL     OW 2359   0.252   1.564   5.468
  568SOL    HW1 2360   0.222   1.621   5.544
  568SOL    HW2 2361   0.245   1.467   5.494
  569SOL     OW 2362   0.671   0.464   4.993
  569SOL    HW1 2363   0.637   0.375   4.963
  569SOL    HW2 2364   0.697   0.518   4.913
  570SOL     OW 2365   0.930   1.678   5.189
  570SOL    HW1 2366   0.906   1.660   5.094
  570SOL    HW2 2367   0.960   1.772   5.199
  571SOL     OW 2368   0.473   0.500   3.915
  571SOL    HW1 2369   0.534   0.580   3.919
  571SOL    HW2 2370   0.378   0.531   3.922
  572SOL     OW 2371   0.159   1.137   5.190
  572SOL    HW1 2372   0.181   1.076   5.266
  572SOL    HW2 2373   0.169   1.088   5.104
  573SOL     OW 2374   1.347   1.059   4.958
  573SOL    HW1 2375   1.371   0.996   4.884
  573SOL    HW2 2376   1.257   1.099   4.940
  574SOL     OW 2377   1.302   0.855   4.033
  574SOL    HW1 2378   1.216   0.824   4.075
  574SOL    HW2 2379   1.298   0.841   3.934
  575SOL     OW 2380   1.759   1.747   4.878
  575SOL    HW1 2381   1.820   1.777   4.805
  575SOL    HW2 2382   1.721   1.658   4.856
  576SOL     OW 2383   1.252   1.731   4.852
  576SOL    HW1 2384   1.336   1.736   4.798
  576SOL    HW2 2385   1.229   1.635   4.870
  577SOL     OW 2386   0.083   1.258   4.746
  577SOL    HW1 2387   0.078   1.257   4.846
  577SOL    HW2 2388   0.000   1.217   4.708
  578SOL     OW 2389   0.688   1.662   5.440
  578SOL    HW1 2390   0.632   1.743   5.449
  578SOL    HW2 2391   0.740   1.666   5.354
  579SOL     OW 2392   1.726   0.135   4.247
  579SOL    HW1 2393   1.799   0.118   4.180
  579SOL    HW2 2394   1.695   0.048   4.285
  580SOL     OW 2395   1.388   1.573   4.201
  580SOL    HW1 2396   1.455   1.585   4.127
  580SOL    HW2 2397   1.348   1.662   4.224
  581SOL     OW 2398   0.130   1.794   5.575
  581SOL    HW1 2399   0.089   1.720   5.628
  581SOL    HW2 2400   0.194   1.845   5.633
  582SOL     OW 2401   1.280   0.927   4.396
  582SOL    HW1 2402   1.340   0.846   4.398
  582SOL    HW2 2403   1.320   0.996   4.336
  583SOL     OW 2404   0.830   1.273   5.146
  583SOL    HW1 2405   0.825   1.306   5.241
  583SOL    HW2 2406   0.744   1.292   5.100
  584SOL     OW 2407   0.672   1.616   3.878
  584SOL    HW1 2408   0.681   1.626   3.779
  584SOL    HW2 2409   0.632   1.527   3.899
  585SOL     OW 2410   1.841   0.175   4.687
  585SOL    HW1 2411   1.880   0.090   4.651
  585SOL    HW2 2412   1.743   0.177   4.668
  586SOL     OW 2413   0.263   0.326   4.444
  586SOL    HW1 2414   0.184   0.377   4.410
  586SOL    HW2 2415   0.254   0.311   4.542
  587SOL     OW 2416   1.194   1.612   3.755
  587SOL    HW1 2417   1.200   1.519   3.792
  587SOL    HW2 2418   1.135   1.612   3.675
  588SOL     OW 2419   0.822   1.002   5.096
  588SOL    HW1 2420   0.862   1.001   5.004
  588SOL    HW2 2421   0.832   1.094   5.136
  589SOL     OW 2422   0.916   0.910   4.015
  589SOL    HW1 2423   0.979   0.948   3.947
  589SOL    HW2 2424   0.956   0.827   4.054
  590SOL     OW 2425   1.504   1.607   3.768
  590SOL    HW1 2426   1.412   1.644   3.775
  590SOL    HW2 2427   1.542   1.627   3.678
  591SOL     OW 2428   0.372   1.288   5.214
  591SOL    HW1 2429   0.359   1.381   5.180
  591SOL    HW2 2430   0.288   1.236   5.201
  592SOL     OW 2431   1.614   1.292   5.013
  592SOL    HW1 2432   1.674   1.295   5.093
  592SOL    HW2 2433   1.539   1.356   5.026
  593SOL     OW 2434   1.039   1.098   4.420
  593SOL    HW1 2435   0.969   1.051   4.474
  593SOL    HW2 2436   1.098   1.030   4.377
  594SOL     OW 2437   1.014   0.236   4.695
  594SOL    HW1 2438   1.006   0.200   4.602
  594SOL    HW2 2439   1.012   0.160   4.760
  595SOL     OW 2440   0.590   1.487   4.215
  595SOL    HW1 2441   0.632   1.429   4.145
  595SOL    HW2 2442   0.546   1.566   4.171
  596SOL     OW 2443   1.709   0.385   5.105
  596SOL    HW1 2444   1.782   0.454   5.109
  596SOL    HW2 2445   1.737   0.310   5.046
  597SOL     OW 2446   0.255   1.348   4.014
  597SOL    HW1 2447   0.159   1.349   3.987
  597SOL    HW2 2448   0.267   1.401   4.098
  598SOL     OW 2449   0.105   1.013   5.450
  598SOL    HW1 2450   0.028   0.980   5.504
  598SOL    HW2 2451   0.190   0.983   5.492
  599SOL     OW 2452   0.672   0.203   5.213
  599SOL    HW1 2453   0.762   0.187   5.173
  599SOL    HW2 2454   0.680   0.208   5.312
  600SOL     OW 2455   0.075   0.345   3.757
  600SOL    HW1 2456  -0.017   0.317   3.728
  600SOL    HW2 2457   0.106   0.422   3.701
  601SOL     OW 2458   1.440   0.856   5.122
  601SOL    HW1 2459   1.383   0.908   5.059
  601SOL    HW2 2460   1.536   0.868   5.098
  602SOL     OW 2461   0.072   0.166   4.042
  602SOL    HW1 2462   0.055   0.249   3.988
  602SOL    HW2 2463   0.162   0.129   4.020
  603SOL     OW 2464   1.183   1.335   3.843
  603SOL    HW1 2465   1.084   1.324   3.845
  603SOL    HW2 2466   1.217   1.350   3.936
  604SOL     OW 2467   0.613   0.842   5.155
  604SOL    HW1 2468   0.669   0.923   5.138
  604SOL    HW2 2469   0.672   0.762   5.158
  605SOL     OW 2470   1.493   1.767   4.683
  605SOL    HW1 2471   1.526   1.831   4.614
  605SOL    HW2 2472   1.559   1.761   4.758
  606SOL     OW 2473   0.716   0.565   5.432
  606SOL    HW1 2474   0.735   0.630   5.506
  606SOL    HW2 2475   0.776   0.485   5.441
  607SOL     OW 2476   1.450   1.220   5.357
  607SOL    HW1 2477   1.441   1.210   5.456
  607SOL    HW2 2478   1.546   1.213   5.331
  608SOL     OW 2479   0.390   1.741   5.284
  608SOL    HW1 2480   0.299   1.782   5.282
  608SOL    HW2 2481   0.383   1.647   5.316
  609SOL     OW 2482   1.674   0.883   4.978
  609SOL    HW1 2483   1.647   0.794   4.941
  609SOL    HW2 2484   1.675   0.951   4.905
  610SOL     OW 2485   1.225   0.325   4.173
  610SOL    HW1 2486   1.290   0.251   4.162
  610SOL    HW2 2487   1.245   0.375   4.257
  611SOL     OW 2488   0.594   0.745   4.376
  611SOL    HW1 2489   0.644   0.830   4.357
  611SOL    HW2 2490   0.506   0.747   4.328
  612SOL     OW 2491   1.777   0.342   5.366
  612SOL    HW1 2492   1.760   0.373   5.272
  612SOL    HW2 2493   1.693   0.305   5.404
  613SOL     OW 2494   1.730   0.934   5.241
  613SOL    HW1 2495   1.768   1.025   5.256
  613SOL    HW2 2496   1.722   0.917   5.142
  614SOL     OW 2497   0.859   1.374   3.740
  614SOL    HW1 2498   0.813   1.389   3.828
  614SOL    HW2 2499   0.903   1.459   3.710
  615SOL     OW 2500   0.661   1.790   4.677
  615SOL    HW1 2501   0.615   1.878   4.664
  615SOL    HW2 2502   0.760   1.802   4.670
  616SOL     OW 2503   0.859   0.956   4.585
  616SOL    HW1 2504   0.913   0.887   4.633
  616SOL    HW2 2505   0.827   1.025   4.651
  617SOL     OW 2506   1.083   0.984   3.811
  617SOL    HW1 2507   1.060   1.037   3.729
  617SOL    HW2 2508   1.164   0.928   3.792
  618SOL     OW 2509   1.861   1.569   4.575
  618SOL    HW1 2510   1.790   1.557   4.505
  618SOL    HW2 2511   1.862   1.490   4.635
  619SOL     OW 2512   0.221   1.314   5.568
  619SOL    HW1 2513   0.156   1.241   5.547
  619SOL    HW2 2514   0.225   1.328   5.666
  620SOL     OW 2515   0.079   1.240   4.377
  620SOL    HW1 2516   0.078   1.193   4.465
  620SOL    HW2 2517   0.161   1.212   4.326
  621SOL     OW 2518   0.672   1.391   5.348
  621SOL    HW1 2519   0.594   1.341   5.386
  621SOL    HW2 2520   0.669   1.486   5.379
  622SOL     OW 2521   1.824   0.192   4.951
  622SOL    HW1 2522   1.820   0.102   4.995
  622SOL    HW2 2523   1.827   0.181   4.852
  623SOL     OW 2524   0.428   0.424   4.244
  623SOL    HW1 2525   0.458   0.352   4.182
  623SOL    HW2 2526   0.389   0.384   4.327
  624SOL     OW 2527   1.705   1.487   4.828
  624SOL    HW1 2528   1.612   1.462   4.801
  624SOL    HW2 2529   1.731   1.437   4.910
  625SOL     OW 2530   0.317   0.547   5.004
  625SOL    HW1 2531   0.355   0.488   5.076
  625SOL    HW2 2532   0.357   0.521   4.916
  626SOL     OW 2533   0.812   1.586   4.411
  626SOL    HW1 2534   0.844   1.596   4.317
  626SOL    HW2 2535   0.733   1.524   4.413
  627SOL     OW 2536   1.424   0.214   4.836
  627SOL    HW1 2537   1.476   0.149   4.891
  627SOL    HW2 2538   1.375   0.277   4.897
  628SOL     OW 2539   1.001   0.034   4.878
  628SOL    HW1 2540   0.938  -0.038   4.847
  628SOL    HW2 2541   1.094  -0.002   4.878
  629SOL     OW 2542   0.770   1.330   4.025
  629SOL    HW1 2543   0.724   1.243   4.042
  629SOL    HW2 2544   0.861   1.327   4.066
  630SOL     OW 2545   0.618   1.567   5.008
  630SOL    HW1 2546   0.613   1.649   5.065
  630SOL    HW2 2547   0.707   1.564   4.963
  631SOL     OW 2548   1.352   0.052   3.892
  631SOL    HW1 2549   1.387   0.011   3.808
  631SOL    HW2 2550   1.262   0.014   3.912
  632SOL     OW 2551   1.300   0.453   4.415
  632SOL    HW1 2552   1.241   0.533   4.419
  632SOL    HW2 2553   1.315   0.418   4.508
  633SOL     OW 2554   1.593   0.221   4.606
  633SOL    HW1 2555   1.509   0.220   4.660
  633SOL    HW2 2556   1.595   0.304   4.550
  634SOL     OW 2557   0.039   1.077   4.024
  634SOL    HW1 2558   0.138   1.066   4.015
  634SOL    HW2 2559  -0.001   0.991   4.056
  635SOL     OW 2560   0.875   1.646   4.061
  635SOL    HW1 2561   0.798   1.611   4.007
  635SOL    HW2 2562   0.843   1.717   4.123
  636SOL     OW 2563   0.230   0.628   5.699
  636SOL    HW1 2564   0.137   0.626   5.736
  636SOL    HW2 2565   0.231   0.589   5.607
  637SOL     OW 2566   0.225   0.275   6.582
  637SOL    HW1 2567   0.260   0.258   6.674
  637SOL    HW2 2568   0.137   0.230   6.570
  638SOL     OW 2569   0.019   0.368   6.233
  638SOL    HW1 2570  -0.063   0.411   6.272
  638SOL    HW2 2571  -0.009   0.295   6.170
  639SOL     OW 2572   0.569   1.275   6.751
  639SOL    HW1 2573   0.476   1.268   6.714
  639SOL    HW2 2574   0.580   1.364   6.795
  640SOL     OW 2575   1.555   1.511   6.289
  640SOL    HW1 2576   1.498   1.495   6.370
  640SOL    HW2 2577   1.496   1.521   6.209
  641SOL     OW 2578   1.135   0.703   6.303
  641SOL    HW1 2579   1.192   0.781   6.278
  641SOL    HW2 2580   1.075   0.729   6.379
  642SOL     OW 2581   1.755   0.607   5.817
  642SOL    HW1 2582   1.743   0.594   5.718
  642SOL    HW2 2583   1.725   0.526   5.866
  643SOL     OW 2584   0.768   1.144   6.609
  643SOL    HW1 2585   0.690   1.161   6.669
  643SOL    HW2 2586   0.802   1.231   6.573
  644SOL     OW 2587   0.850   0.798   7.409
  644SOL    HW1 2588   0.846   0.874   7.474
  644SOL    HW2 2589   0.872   0.834   7.318
  645SOL     OW 2590   0.685   1.012   6.251
  645SOL    HW1 2591   0.754   0.996   6.321
  645SOL    HW2 2592   0.612   1.069   6.289
  646SOL     OW 2593   0.686   1.161   7.389
  646SOL    HW1 2594   0.746   1.240   7.403
  646SOL    HW2 2595   0.600   1.192   7.348
  647SOL     OW 2596   0.335   1.435   6.647
  647SOL    HW1 2597   0.257   1.404   6.594
  647SOL    HW2 2598   0.393   1.493   6.590
  648SOL     OW 2599   1.460   1.505   6.925
  648SOL    HW1 2600   1.484   1.599   6.951
  648SOL    HW2 2601   1.444   1.451   7.007
  649SOL     OW 2602   0.438   0.392   7.085
  649SOL    HW1 2603   0.520   0.336   7.094
  649SOL    HW2 2604   0.357   0.334   7.089
  650SOL     OW 2605   1.603   0.447   6.323
  650SOL    HW1 2606   1.529   0.493   6.273
  650SOL    HW2 2607   1.654   0.515   6.376
  651SOL     OW 2608   0.231   1.713   6.069
  651SOL    HW1 2609   0.265   1.790   6.123
  651SOL    HW2 2610   0.275   1.713   5.979
  652SOL     OW 2611   1.127   1.341   7.276
  652SOL    HW1 2612   1.174   1.341   7.364
  652SOL    HW2 2613   1.079   1.254   7.265
  653SOL     OW 2614   0.230   1.434   6.124
  653SOL    HW1 2615   0.204   1.530   6.124
  653SOL    HW2 2616   0.159   1.380   6.169
  654SOL     OW 2617   0.240   1.091   6.472
  654SOL    HW1 2618   0.254   1.007   6.524
  654SOL    HW2 2619   0.185   1.155   6.527
  655SOL     OW 2620   0.620   1.786   7.025
  655SOL    HW1 2621   0.528   1.769   7.060
  655SOL    HW2 2622   0.648   1.878   7.051
  656SOL     OW 2623   0.606   0.964   5.709
  656SOL    HW1 2624   0.613   1.048   5.655
  656SOL    HW2 2625   0.652   0.977   5.797
  657SOL     OW 2626   1.594   0.114   7.066
  657SOL    HW1 2627   1.576   0.181   6.994
  657SOL    HW2 2628   1.591   0.160   7.155
  658SOL     OW 2629   0.122   0.643   6.149
  658SOL    HW1 2630   0.077   0.555   6.166
  658SOL    HW2 2631   0.121   0.697   6.233
  659SOL     OW 2632   0.027   1.596   5.703
  659SOL    HW1 2633   0.008   1.500   5.724
  659SOL    HW2 2634  -0.006   1.654   5.778
  660SOL     OW 2635   1.689   0.922   6.198
  660SOL    HW1 2636   1.784   0.893   6.206
  660SOL    HW2 2637   1.681   0.987   6.123
  661SOL     OW 2638   1.641   1.108   6.018
  661SOL    HW1 2639   1.727   1.110   5.966
  661SOL    HW2 2640   1.655   1.155   6.106
  662SOL     OW 2641   0.113   0.737   7.183
  662SOL    HW1 2642   0.201   0.724   7.228
  662SOL    HW2 2643   0.100   0.834   7.161
  663SOL     OW 2644   0.613   1.365   6.312
  663SOL    HW1 2645   0.564   1.278   6.321
  663SOL    HW2 2646   0.590   1.408   6.225
  664SOL     OW 2647   1.293   1.228   7.009
  664SOL    HW1 2648   1.330   1.155   6.951
  664SOL    HW2 2649   1.345   1.233   7.094
  665SOL     OW 2650   0.809   0.004   6.088
  665SOL    HW1 2651   0.849   0.095   6.079
  665SOL    HW2 2652   0.709   0.012   6.094
  666SOL     OW 2653   0.197   0.976   6.850
  666SOL    HW1 2654   0.286   0.931   6.836
  666SOL    HW2 2655   0.124   0.911   6.831
  667SOL     OW 2656   1.525   0.999   5.776
  667SOL    HW1 2657   1.462   0.923   5.789
  667SOL    HW2 2658   1.573   1.017   5.862
  668SOL     OW 2659   1.187   1.792   7.202
  668SOL    HW1 2660   1.211   1.852   7.126
  668SOL    HW2 2661   1.194   1.697   7.172
  669SOL     OW 2662   0.317   0.251   7.387
  669SOL    HW1 2663   0.388   0.322   7.393
  669SOL    HW2 2664   0.229   0.290   7.415
  670SOL     OW 2665   1.466   1.417   6.539
  670SOL    HW1 2666   1.407   1.423   6.619
  670SOL    HW2 2667   1.451   1.329   6.493
  671SOL     OW 2668   1.667   1.714   6.158
  671SOL    HW1 2669   1.626   1.691   6.070
  671SOL    HW2 2670   1.649   1.640   6.223
  672SOL     OW 2671   0.598   0.729   5.856
  672SOL    HW1 2672   0.622   0.798   5.788
  672SOL    HW2 2673   0.520   0.762   5.910
  673SOL     OW 2674   1.281   0.345   6.530
  673SOL    HW1 2675   1.195   0.295   6.517
  673SOL    HW2 2676   1.343   0.291   6.586
  674SOL     OW 2677   1.576   1.662   5.893
  674SOL    HW1 2678   1.665   1.708   5.896
  674SOL    HW2 2679   1.555   1.638   5.798
  675SOL     OW 2680   0.807   0.605   7.051
  675SOL    HW1 2681   0.760   0.602   7.140
  675SOL    HW2 2682   0.756   0.550   6.985
  676SOL     OW 2683   1.394   0.469   7.260
  676SOL    HW1 2684   1.374   0.512   7.348
  676SOL    HW2 2685   1.472   0.407   7.269
  677SOL     OW 2686   0.973   0.890   7.158
  677SOL    HW1 2687   1.019   0.806   7.129
  677SOL    HW2 2688   0.917   0.924   7.083
  678SOL     OW 2689   0.991   0.410   6.828
  678SOL    HW1 2690   0.914   0.444   6.882
  678SOL    HW2 2691   0.957   0.359   6.749
  679SOL     OW 2692   1.041   0.701   6.015
  679SOL    HW1 2693   1.067   0.697   6.111
  679SOL    HW2 2694   0.956   0.650   6.001
  680SOL     OW 2695   0.076   0.811   6.375
  680SOL    HW1 2696   0.175   0.799   6.384
  680SOL    HW2 2697   0.052   0.906   6.396
  681SOL     OW 2698   0.130   1.821   7.157
  681SOL    HW1 2699   0.120   1.806   7.256
  681SOL    HW2 2700   0.044   1.857   7.121
  682SOL     OW 2701   0.865   0.348   5.781
  682SOL    HW1 2702   0.924   0.411   5.732
  682SOL    HW2 2703   0.884   0.254   5.752
  683SOL     OW 2704   1.719   0.585   7.417
  683SOL    HW1 2705   1.693   0.674   7.381
  683SOL    HW2 2706   1.717   0.517   7.344
  684SOL     OW 2707   1.362   1.144   6.131
  684SOL    HW1 2708   1.445   1.115   6.083
  684SOL    HW2 2709   1.313   1.211   6.075
  685SOL     OW 2710   0.550   0.196   6.471
  685SOL    HW1 2711   0.545   0.191   6.571
  685SOL    HW2 2712   0.552   0.292   6.442
  686SOL     OW 2713   1.008   1.456   6.063
  686SOL    HW1 2714   0.962   1.528   6.011
  686SOL    HW2 2715   1.004   1.476   6.161
  687SOL     OW 2716   0.351   1.801   6.439
  687SOL    HW1 2717   0.401   1.715   6.445
  687SOL    HW2 2718   0.416   1.878   6.436
  688SOL     OW 2719   1.795   1.066   6.459
  688SOL    HW1 2720   1.733   1.051   6.383
  688SOL    HW2 2721   1.743   1.077   6.544
  689SOL     OW 2722   1.227   1.550   7.092
  689SOL    HW1 2723   1.233   1.473   7.156
  689SOL    HW2 2724   1.175   1.524   7.012
  690SOL     OW 2725   0.321   0.943   5.828
  690SOL    HW1 2726   0.403   0.982   5.786
  690SOL    HW2 2727   0.294   0.861   5.779
  691SOL     OW 2728   1.458   0.735   6.314
  691SOL    HW1 2729   1.453   0.670   6.389
  691SOL    HW2 2730   1.538   0.794   6.327
  692SOL     OW 2731   0.461   1.266   7.313
  692SOL    HW1 2732   0.411   1.267   7.227
  692SOL    HW2 2733   0.398   1.248   7.389
  693SOL     OW 2734   1.111   1.776   5.823
  693SOL    HW1 2735   1.051   1.714   5.873
  693SOL    HW2 2736   1.142   1.732   5.738
  694SOL     OW 2737   0.202   0.285   7.084
  694SOL    HW1 2738   0.122   0.345   7.071
  694SOL    HW2 2739   0.192   0.236   7.170
  695SOL     OW 2740   1.632   1.377   5.667
  695SOL    HW1 2741   1.600   1.471   5.657
  695SOL    HW2 2742   1.556   1.314   5.655
  696SOL     OW 2743   0.464   1.743   5.909
  696SOL    HW1 2744   0.497   1.782   5.995
  696SOL    HW2 2745   0.540   1.736   5.844
  697SOL     OW 2746   1.400   0.107   6.012
  697SOL    HW1 2747   1.376   0.070   5.922
  697SOL    HW2 2748   1.499   0.123   6.016
  698SOL     OW 2749   0.249   1.785   6.827
  698SOL    HW1 2750   0.306   1.720   6.877
  698SOL    HW2 2751   0.233   1.752   6.734
  699SOL     OW 2752   0.940   1.698   6.490
  699SOL    HW1 2753   1.020   1.641   6.511
  699SOL    HW2 2754   0.891   1.658   6.413
  700SOL     OW 2755   0.382   0.700   6.066
  700SOL    HW1 2756   0.427   0.610   6.063
  700SOL    HW2 2757   0.288   0.689   6.099
  701SOL     OW 2758   1.547   0.222   7.315
  701SOL    HW1 2759   1.542   0.259   7.407
  701SOL    HW2 2760   1.475   0.153   7.303
  702SOL     OW 2761   0.614   0.122   5.703
  702SOL    HW1 2762   0.712   0.100   5.710
  702SOL    HW2 2763   0.583   0.105   5.610
  703SOL     OW 2764   0.781   0.264   7.335
  703SOL    HW1 2765   0.848   0.203   7.378
  703SOL    HW2 2766   0.708   0.283   7.400
  704SOL     OW 2767   0.888   1.514   6.781
  704SOL    HW1 2768   0.865   1.489   6.687
  704SOL    HW2 2769   0.949   1.445   6.820
  705SOL     OW 2770   1.351   0.590   7.019
  705SOL    HW1 2771   1.379   0.547   7.104
  705SOL    HW2 2772   1.376   0.686   7.020
  706SOL     OW 2773   0.803   1.402   6.510
  706SOL    HW1 2774   0.893   1.416   6.468
  706SOL    HW2 2775   0.732   1.404   6.439
  707SOL     OW 2776   0.922   0.503   6.485
  707SOL    HW1 2777   0.897   0.494   6.389
  707SOL    HW2 2778   0.970   0.421   6.516
  708SOL     OW 2779   0.539   0.064   6.098
  708SOL    HW1 2780   0.458   0.065   6.156
  708SOL    HW2 2781   0.542   0.147   6.043
  709SOL     OW 2782   1.434   1.188   5.627
  709SOL    HW1 2783   1.466   1.112   5.684
  709SOL    HW2 2784   1.342   1.215   5.657
  710SOL     OW 2785   0.297   0.035   5.757
  710SOL    HW1 2786   0.346   0.119   5.736
  710SOL    HW2 2787   0.359  -0.030   5.802
  711SOL     OW 2788   0.935   0.236   6.066
  711SOL    HW1 2789   0.887   0.277   5.988
  711SOL    HW2 2790   1.034   0.234   6.047
  712SOL     OW 2791   1.076   0.683   7.050
  712SOL    HW1 2792   0.996   0.622   7.053
  712SOL    HW2 2793   1.157   0.630   7.026
  713SOL     OW 2794   1.227   1.570   6.379
  713SOL    HW1 2795   1.248   1.644   6.314
  713SOL    HW2 2796   1.295   1.570   6.452
  714SOL     OW 2797   0.459   1.152   6.327
  714SOL    HW1 2798   0.388   1.125   6.392
  714SOL    HW2 2799   0.433   1.124   6.234
  715SOL     OW 2800   1.271   1.797   6.177
  715SOL    HW1 2801   1.315   1.861   6.113
  715SOL    HW2 2802   1.221   1.849   6.247
  716SOL     OW 2803   1.032   0.549   5.602
  716SOL    HW1 2804   0.991   0.631   5.563
  716SOL    HW2 2805   1.096   0.575   5.675
  717SOL     OW 2806   0.078   0.556   6.972
  717SOL    HW1 2807   0.170   0.555   6.931
  717SOL    HW2 2808   0.072   0.630   7.039
  718SOL     OW 2809   0.561   0.222   6.733
  718SOL    HW1 2810   0.599   0.138   6.770
  718SOL    HW2 2811   0.473   0.241   6.777
  719SOL     OW 2812   0.866   0.454   6.228
  719SOL    HW1 2813   0.834   0.526   6.166
  719SOL    HW2 2814   0.890   0.373   6.175
  720SOL     OW 2815   1.017   0.039   6.339
  720SOL    HW1 2816   0.945   0.044   6.270
  720SOL    HW2 2817   0.993  -0.030   6.408
  721SOL     OW 2818   1.429   1.173   6.453
  721SOL    HW1 2819   1.374   1.089   6.446
  721SOL    HW2 2820   1.455   1.202   6.361
  722SOL     OW 2821   1.466   0.590   6.578
  722SOL    HW1 2822   1.436   0.495   6.585
  722SOL    HW2 2823   1.539   0.606   6.644
  723SOL     OW 2824   1.857   0.833   5.963
  723SOL    HW1 2825   1.899   0.769   6.027
  723SOL    HW2 2826   1.819   0.782   5.885
  724SOL     OW 2827   0.488   1.385   5.760
  724SOL    HW1 2828   0.401   1.370   5.807
  724SOL    HW2 2829   0.471   1.411   5.665
  725SOL     OW 2830   1.664   1.280   6.243
  725SOL    HW1 2831   1.763   1.288   6.257
  725SOL    HW2 2832   1.619   1.364   6.274
  726SOL     OW 2833   1.390   0.575   5.664
  726SOL    HW1 2834   1.336   0.554   5.745
  726SOL    HW2 2835   1.481   0.534   5.673
  727SOL     OW 2836   0.527   0.256   5.914
  727SOL    HW1 2837   0.554   0.197   5.839
  727SOL    HW2 2838   0.527   0.351   5.883
  728SOL     OW 2839   1.754   1.223   7.174
  728SOL    HW1 2840   1.845   1.184   7.161
  728SOL    HW2 2841   1.762   1.319   7.198
  729SOL     OW 2842   1.064   1.347   6.926
  729SOL    HW1 2843   0.984   1.324   6.981
  729SOL    HW2 2844   1.147   1.321   6.975
  730SOL     OW 2845   1.592   1.629   7.211
  730SOL    HW1 2846   1.619   1.663   7.121
  730SOL    HW2 2847   1.671   1.591   7.257
  731SOL     OW 2848   1.111   1.195   6.686
  731SOL    HW1 2849   1.071   1.239   6.767
  731SOL    HW2 2850   1.070   1.232   6.603
  732SOL     OW 2851   1.638   1.099   6.665
  732SOL    HW1 2852   1.643   1.180   6.724
  732SOL    HW2 2853   1.552   1.101   6.614
  733SOL     OW 2854   0.915   0.089   6.988
  733SOL    HW1 2855   0.940   0.069   6.893
  733SOL    HW2 2856   0.987   0.145   7.030
  734SOL     OW 2857   0.980   1.116   7.305
  734SOL    HW1 2858   0.881   1.122   7.315
  734SOL    HW2 2859   1.003   1.036   7.249
  735SOL     OW 2860   0.705   1.050   5.954
  735SOL    HW1 2861   0.691   1.057   6.053
  735SOL    HW2 2862   0.789   0.999   5.936
  736SOL     OW 2863   0.410   0.813   6.837
  736SOL    HW1 2864   0.496   0.825   6.887
  736SOL    HW2 2865   0.368   0.726   6.864
  737SOL     OW 2866   1.274   0.386   6.848
  737SOL    HW1 2867   1.295   0.460   6.912
  737SOL    HW2 2868   1.185   0.403   6.805
  738SOL     OW 2869   0.064   1.564   6.917
  738SOL    HW1 2870   0.018   1.646   6.883
  738SOL    HW2 2871   0.162   1.583   6.926
  739SOL     OW 2872   0.367   1.100   6.087
  739SOL    HW1 2873   0.360   1.183   6.031
  739SOL    HW2 2874   0.371   1.020   6.027
  740SOL     OW 2875   0.566   0.537   6.451
  740SOL    HW1 2876   0.578   0.603   6.377
  740SOL    HW2 2877   0.612   0.571   6.534
  741SOL     OW 2878   1.252   1.348   5.974
  741SOL    HW1 2879   1.302   1.425   6.014
  741SOL    HW2 2880   1.157   1.350   6.006
  742SOL     OW 2881   1.272   1.445   6.728
  742SOL    HW1 2882   1.319   1.458   6.815
  742SOL    HW2 2883   1.206   1.371   6.737
  743SOL     OW 2884   1.582   0.639   6.058
  743SOL    HW1 2885   1.551   0.700   6.131
  743SOL    HW2 2886   1.632   0.691   5.989
  744SOL     OW 2887   0.354   1.510   6.915
  744SOL    HW1 2888   0.333   1.466   6.828
  744SOL    HW2 2889   0.451   1.536   6.918
  745SOL     OW 2890   0.402   0.751   7.184
  745SOL    HW1 2891   0.470   0.806   7.137
  745SOL    HW2 2892   0.442   0.663   7.211
  746SOL     OW 2893   1.587   0.779   7.256
  746SOL    HW1 2894   1.495   0.817   7.251
  746SOL    HW2 2895   1.647   0.826   7.191
  747SOL     OW 2896   1.013   0.105   7.356
  747SOL    HW1 2897   1.019   0.190   7.304
  747SOL    HW2 2898   1.045   0.029   7.299
  748SOL     OW 2899   0.504   0.050   7.326
  748SOL    HW1 2900   0.462  -0.007   7.256
  748SOL    HW2 2901   0.438   0.119   7.358
  749SOL     OW 2902   0.573   0.870   6.615
  749SOL    HW1 2903   0.617   0.959   6.606
  749SOL    HW2 2904   0.510   0.870   6.692
  750SOL     OW 2905   1.360   0.862   6.631
  750SOL    HW1 2906   1.285   0.862   6.565
  750SOL    HW2 2907   1.397   0.770   6.640
  751SOL     OW 2908   1.209   0.525   5.861
  751SOL    HW1 2909   1.222   0.441   5.915
  751SOL    HW2 2910   1.180   0.599   5.921
  752SOL     OW 2911   0.307   0.213   6.817
  752SOL    HW1 2912   0.284   0.250   6.907
  752SOL    HW2 2913   0.277   0.118   6.811
  753SOL     OW 2914   0.037   1.310   6.868
  753SOL    HW1 2915   0.090   1.261   6.936
  753SOL    HW2 2916   0.059   1.408   6.873
  754SOL     OW 2917   0.732   0.634   6.650
  754SOL    HW1 2918   0.791   0.608   6.574
  754SOL    HW2 2919   0.704   0.730   6.639
  755SOL     OW 2920   1.728   0.935   7.440
  755SOL    HW1 2921   1.682   0.928   7.351
  755SOL    HW2 2922   1.666   0.979   7.506
  756SOL     OW 2923   0.307   0.063   6.204
  756SOL    HW1 2924   0.296   0.157   6.237
  756SOL    HW2 2925   0.302   0.000   6.281
  757SOL     OW 2926   1.622   0.367   5.960
  757SOL    HW1 2927   1.624   0.291   6.024
  757SOL    HW2 2928   1.574   0.444   6.000
  758SOL     OW 2929   1.023   0.766   6.552
  758SOL    HW1 2930   1.038   0.787   6.648
  758SOL    HW2 2931   0.993   0.671   6.543
  759SOL     OW 2932   0.980   1.573   7.286
  759SOL    HW1 2933   0.960   1.617   7.198
  759SOL    HW2 2934   1.019   1.482   7.270
  760SOL     OW 2935   1.859   1.518   7.191
  760SOL    HW1 2936   1.873   1.545   7.096
  760SOL    HW2 2937   1.942   1.540   7.244
  761SOL     OW 2938   0.350   0.898   7.390
  761SOL    HW1 2939   0.426   0.942   7.438
  761SOL    HW2 2940   0.385   0.851   7.308
  762SOL     OW 2941   1.540   0.274   5.711
  762SOL    HW1 2942   1.479   0.199   5.734
  762SOL    HW2 2943   1.562   0.326   5.794
  763SOL     OW 2944   1.303   0.838   5.628
  763SOL    HW1 2945   1.337   0.745   5.643
  763SOL    HW2 2946   1.321   0.865   5.533
  764SOL     OW 2947   1.068   1.333   6.435
  764SOL    HW1 2948   1.075   1.249   6.380
  764SOL    HW2 2949   1.130   1.402   6.399
  765SOL     OW 2950   0.319   0.810   6.535
  765SOL    HW1 2951   0.412   0.846   6.540
  765SOL    HW2 2952   0.313   0.725   6.587
  766SOL     OW 2953   0.339   0.509   6.592
  766SOL    HW1 2954   0.287   0.426   6.575
  766SOL    HW2 2955   0.416   0.514   6.528
  767SOL     OW 2956   1.138   0.380   7.264
  767SOL    HW1 2957   1.093   0.443   7.328
  767SOL    HW2 2958   1.231   0.411   7.247
  768SOL     OW 2959   1.160   0.207   7.063
  768SOL    HW1 2960   1.160   0.271   7.140
  768SOL    HW2 2961   1.188   0.255   6.980
  769SOL     OW 2962   0.008   1.326   5.786
  769SOL    HW1 2963  -0.085   1.347   5.755
  769SOL    HW2 2964   0.018   1.227   5.799
  770SOL     OW 2965   0.088   1.801   6.513
  770SOL    HW1 2966   0.046   1.715   6.486
  770SOL    HW2 2967   0.182   1.804   6.479
  771SOL     OW 2968   0.504   1.568   6.496
  771SOL    HW1 2969   0.570   1.642   6.505
  771SOL    HW2 2970   0.548   1.489   6.454
  772SOL     OW 2971   1.002   0.796   6.824
  772SOL    HW1 2972   1.043   0.764   6.910
  772SOL    HW2 2973   0.906   0.769   6.821
  773SOL     OW 2974   0.040   0.544   6.700
  773SOL    HW1 2975   0.125   0.511   6.659
  773SOL    HW2 2976   0.053   0.559   6.798
  774SOL     OW 2977   0.189   0.520   7.308
  774SOL    HW1 2978   0.248   0.480   7.238
  774SOL    HW2 2979   0.131   0.591   7.267
  775SOL     OW 2980   1.369   0.950   7.246
  775SOL    HW1 2981   1.408   1.039   7.266
  775SOL    HW2 2982   1.379   0.930   7.149
  776SOL     OW 2983   0.815   0.572   5.911
  776SOL    HW1 2984   0.822   0.483   5.865
  776SOL    HW2 2985   0.721   0.606   5.903
  777SOL     OW 2986   1.657   0.604   6.792
  777SOL    HW1 2987   1.619   0.535   6.854
  777SOL    HW2 2988   1.739   0.568   6.748
  778SOL     OW 2989   0.252   1.564   7.330
  778SOL    HW1 2990   0.222   1.621   7.406
  778SOL    HW2 2991   0.245   1.467   7.356
  779SOL     OW 2992   0.671   0.464   6.855
  779SOL    HW1 2993   0.637   0.375   6.825
  779SOL    HW2 2994   0.697   0.518   6.775
  780SOL     OW 2995   0.930   1.678   7.051
  780SOL    HW1 2996   0.906   1.660   6.956
  780SOL    HW2 2997   0.960   1.772   7.061
  781SOL     OW 2998   0.473   0.500   5.777
  781SOL    HW1 2999   0.534   0.580   5.781
  781SOL    HW2 3000   0.378   0.531   5.784
  782SOL     OW 3001   0.159   1.137   7.052
  782SOL    HW1 3002   0.181   1.076   7.128
  782SOL    HW2 3003   0.169   1.088   6.966
  783SOL     OW 3004   1.347   1.059   6.820
  783SOL    HW1 3005   1.371   0.996   6.746
  783SOL    HW2 3006   1.257   1.099   6.802
  784SOL     OW 3007   1.302   0.855   5.895
  784SOL    HW1 3008   1.216   0.824   5.937
  784SOL    HW2 3009   1.298   0.841   5.796
  785SOL     OW 3010   1.759   1.747   6.740
  785SOL    HW1 3011   1.820   1.777   6.667
  785SOL    HW2 3012   1.721   1.658   6.718
  786SOL     OW 3013   1.252   1.731   6.714
  786SOL    HW1 3014   1.336   1.736   6.660
  786SOL    HW2 3015   1.229   1.635   6.732
  787SOL     OW 3016   0.083   1.258   6.608
  787SOL    HW1 3017   0.078   1.257   6.708
  787SOL    HW2 3018   0.000   1.217   6.570
  788SOL     OW 3019   0.688   1.662   7.302
  788SOL    HW1 3020   0.632   1.743   7.311
  788SOL    HW2 3021   0.740   1.666   7.216
  789SOL     OW 3022   1.726   0.135   6.109
  789SOL    HW1 3023   1.799   0.118   6.042
  789SOL    HW2 3024   1.695   0.048   6.147
  790SOL     OW 3025   1.388   1.573   6.063
  790SOL    HW1 3026   1.455   1.585   5.989
  790SOL    HW2 3027   1.348   1.662   6.086
  791SOL     OW 3028   0.130   1.794   7.437
  791SOL    HW1 3029   0.089   1.720   7.490
  791SOL    HW2 3030   0.194   1.845   7.495
  792SOL     OW 3031   1.280   0.927   6.258
  792SOL    HW1 3032   1.340   0.846   6.260
  792SOL    HW2 3033   1.320   0.996   6.198
  793SOL     OW 3034   0.830   1.273   7.008
  793SOL    HW1 3035   0.825   1.306   7.103
  793SOL    HW2 3036   0.744   1.292   6.962
  794SOL     OW 3037   0.672   1.616   5.740
  794SOL    HW1 3038   0.681   1.626   5.641
  794SOL    HW2 3039   0.632   1.527   5.761
  795SOL     OW 3040   1.650   1.720   6.980
  795SOL    HW1 3041   1.703   1.730   6.896
  795SOL    HW2 3042   1.623   1.810   7.014
  796SOL     OW 3043   1.841   0.175   6.549
  796SOL    HW1 3044   1.880   0.090   6.513
  796SOL    HW2 3045   1.743   0.177   6.530
  797SOL     OW 3046   0.263   0.326   6.306
  797SOL    HW1 3047   0.184   0.377   6.272
  797SOL    HW2 3048   0.254   0.311   6.404
  798SOL     OW 3049   1.194   1.612   5.617
  798SOL    HW1 3050   1.200   1.519   5.654
  798SOL    HW2 3051   1.135   1.612   5.537
  799SOL     OW 3052   0.822   1.002   6.958
  799SOL    HW1 3053   0.862   1.001   6.866
  799SOL    HW2 3054   0.832   1.094   6.998
  800SOL     OW 3055   0.916   0.910   5.877
  800SOL    HW1 3056   0.979   0.948   5.809
  800SOL    HW2 3057   0.956   0.827   5.916
  801SOL     OW 3058   1.504   1.607   5.630
  801SOL    HW1 3059   1.412   1.644   5.637
  801SOL    HW2 3060   1.542   1.627   5.540
  802SOL     OW 3061   0.372   1.288   7.076
  802SOL    HW1 3062   0.359   1.381   7.042
  802SOL    HW2 3063   0.288   1.236   7.063
  803SOL     OW 3064   1.614   1.292   6.875
  803SOL    HW1 3065   1.674   1.295   6.955
  803SOL    HW2 3066   1.539   1.356   6.888
  804SOL     OW 3067   1.039   1.098   6.282
  804SOL    HW1 3068   0.969   1.051   6.336
  804SOL    HW2 3069   1.098   1.030   6.239
  805SOL     OW 3070   1.014   0.236   6.557
  805SOL    HW1 3071   1.006   0.200   6.464
  805SOL    HW2 3072   1.012   0.160   6.622
  806SOL     OW 3073   0.590   1.487   6.077
  806SOL    HW1 3074   0.632   1.429   6.007
  806SOL    HW2 3075   0.546   1.566   6.033
  807SOL     OW 3076   1.709   0.385   6.967
  807SOL    HW1 3077   1.782   0.454   6.971
  807SOL    HW2 3078   1.737   0.310   6.908
  808SOL     OW 3079   0.255   1.348   5.876
  808SOL    HW1 3080   0.159   1.349   5.849
  808SOL    HW2 3081   0.267   1.401   5.960
  809SOL     OW 3082   0.105   1.013   7.312
  809SOL    HW1 3083   0.028   0.980   7.366
  809SOL    HW2 3084   0.190   0.983   7.354
  810SOL     OW 3085   0.672   0.203   7.075
  810SOL    HW1 3086   0.762   0.187   7.035
  810SOL    HW2 3087   0.680   0.208   7.174
  811SOL     OW 3088   0.075   0.345   5.619
  811SOL    HW1 3089  -0.017   0.317   5.590
  811SOL    HW2 3090   0.106   0.422   5.563
  812SOL     OW 3091   1.440   0.856   6.984
  812SOL    HW1 3092   1.383   0.908   6.921
  812SOL    HW2 3093   1.536   0.868   6.960
  813SOL     OW 3094   0.072   0.166   5.904
  813SOL    HW1 3095   0.055   0.249   5.850
  813SOL    HW2 3096   0.162   0.129   5.882
  814SOL     OW 3097   1.183   1.335   5.705
  814SOL    HW1 3098   1.084   1.324   5.707
  814SOL    HW2 3099   1.217   1.350   5.798
  815SOL     OW 3100   0.613   0.842   7.017
  815SOL    HW1 3101   0.669   0.923   7.000
  815SOL    HW2 3102   0.672   0.762   7.020
  816SOL     OW 3103   1.493   1.767   6.545
  816SOL    HW1 3104   1.526   1.831   6.476
  816SOL    HW2 3105   1.559   1.761   6.620
  817SOL     OW 3106   0.716   0.565   7.294
  817SOL    HW1 3107   0.735   0.630   7.368
  817SOL    HW2 3108   0.776   0.485   7.303
  818SOL     OW 3109   1.450   1.220   7.219
  818SOL    HW1 3110   1.441   1.210   7.318
  818SOL    HW2 3111   1.546   1.213   7.193
  819SOL     OW 3112   0.390   1.741   7.146
  819SOL    HW1 3113   0.299   1.782   7.144
  819SOL    HW2 3114   0.383   1.647   7.178
  820SOL     OW 3115   1.674   0.883   6.840
  820SOL    HW1 3116   1.647   0.794   6.803
  820SOL    HW2 3117   1.675   0.951   6.767
  821SOL     OW 3118   1.225   0.325   6.035
  821SOL    HW1 3119   1.290   0.251   6.024
  821SOL    HW2 3120   1.245   0.375   6.119
  822SOL     OW 3121   0.594   0.745   6.238
  822SOL    HW1 3122   0.644   0.830   6.219
  822SOL    HW2 3123   0.506   0.747   6.190
  823SOL     OW 3124   1.777   0.342   7.228
  823SOL    HW1 3125   1.760   0.373   7.134
  823SOL    HW2 3126   1.693   0.305   7.266
  824SOL     OW 3127   1.730   0.934   7.103
  824SOL    HW1 3128   1.768   1.025   7.118
  824SOL    HW2 3129   1.722   0.917   7.004
  825SOL     OW 3130   0.859   1.374   5.602
  825SOL    HW1 3131   0.813   1.389   5.690
  825SOL    HW2 3132   0.903   1.459   5.572
  826SOL     OW 3133   0.661   1.790   6.539
  826SOL    HW1 3134   0.615   1.878   6.526
  826SOL    HW2 3135   0.760   1.802   6.532
  827SOL     OW 3136   0.859   0.956   6.447
  827SOL    HW1 3137   0.913   0.887   6.495
  827SOL    HW2 3138   0.827   1.025   6.513
  828SOL     OW 3139   1.083   0.984   5.673
  828SOL    HW1 3140   1.060   1.037   5.591
  828SOL    HW2 3141   1.164   0.928   5.654
  829SOL     OW 3142   1.861   1.569   6.437
  829SOL    HW1 3143   1.790   1.557   6.367
  829SOL    HW2 3144   1.862   1.490   6.497
  830SOL     OW 3145   0.221   1.314   7.430
  830SOL    HW1 3146   0.156   1.241   7.409
  830SOL    HW2 3147   0.225   1.328   7.528
  831SOL     OW 3148   0.079   1.240   6.239
  831SOL    HW1 3149   0.078   1.193   6.327
  831SOL    HW2 3150   0.161   1.212   6.188
  832SOL     OW 3151   0.672   1.391   7.210
  832SOL    HW1 3152   0.594   1.341   7.248
  832SOL    HW2 3153   0.669   1.486   7.241
  833SOL     OW 3154   1.824   0.192   6.813
  833SOL    HW1 3155   1.820   0.102   6.857
  833SOL    HW2 3156   1.827   0.181   6.714
  834SOL     OW 3157   0.428   0.424   6.106
  834SOL    HW1 3158   0.458   0.352   6.044
  834SOL    HW2 3159   0.389   0.384   6.189
  835SOL     OW 3160   1.705   1.487   6.690
  835SOL    HW1 3161   1.612   1.462   6.663
  835SOL    HW2 3162   1.731   1.437   6.772
  836SOL     OW 3163   0.317   0.547   6.866
  836SOL    HW1 3164   0.355   0.488   6.938
  836SOL    HW2 3165   0.357   0.521   6.778
  837SOL     OW 3166   0.812   1.586   6.273
  837SOL    HW1 3167   0.844   1.596   6.179
  837SOL    HW2 3168   0.733   1.524   6.275
  838SOL     OW 3169   1.424   0.214   6.698
  838SOL    HW1 3170   1.476   0.149   6.753
  838SOL    HW2 3171   1.375   0.277   6.759
  839SOL     OW 3172   1.001   0.034   6.740
  839SOL    HW1 3173   0.938  -0.038   6.709
  839SOL    HW2 3174   1.094  -0.002   6.740
  840SOL     OW 3175   0.770   1.330   5.887
  840SOL    HW1 3176   0.724   1.243   5.904
  840SOL    HW2 3177   0.861   1.327   5.928
  841SOL     OW 3178   0.618   1.567   6.870
  841SOL    HW1 3179   0.613   1.649   6.927
  841SOL    HW2 3180   0.707   1.564   6.825
  842SOL     OW 3181   1.352   0.052   5.754
  842SOL    HW1 3182   1.387   0.011   5.670
  842SOL    HW2 3183   1.262   0.014   5.774
  843SOL     OW 3184   1.300   0.453   6.277
  843SOL    HW1 3185   1.241   0.533   6.281
  843SOL    HW2 3186   1.315   0.418   6.370
  844SOL     OW 3187   1.593   0.221   6.468
  844SOL    HW1 3188   1.509   0.220   6.522
  844SOL    HW2 3189   1.595   0.304   6.412
  845SOL     OW 3190   0.039   1.077   5.886
  845SOL    HW1 3191   0.138   1.066   5.877
  845SOL    HW2 3192  -0.001   0.991   5.918
  846SOL     OW 3193   0.875   1.646   5.923
  846SOL    HW1 3194   0.798   1.611   5.869
  846SOL    HW2 3195   0.843   1.717   5.985
  847SOL     OW 3196   0.230   0.628   7.561
  847SOL    HW1 3197   0.137   0.626   7.598
  847SOL    HW2 3198   0.231   0.589   7.469
  848SOL     OW 3199   0.225   0.275   8.444
  848SOL    HW1 3200   0.260   0.258   8.536
  848SOL    HW2 3201   0.137   0.230   8.432
  849SOL     OW 3202   0.019   0.368   8.095
  849SOL    HW1 3203  -0.063   0.411   8.134
  849SOL    HW2 3204  -0.009   0.295   8.032
  850SOL     OW 3205   0.569   1.275   8.613
  850SOL    HW1 3206   0.476   1.268   8.576
  850SOL    HW2 3207   0.580   1.364   8.657
  851SOL     OW 3208   1.555   1.511   8.151
  851SOL    HW1 3209   1.498   1.495   8.232
  851SOL    HW2 3210   1.496   1.521   8.071
  852SOL     OW 3211   1.135   0.703   8.165
  852SOL    HW1 3212   1.192   0.781   8.140
  852SOL    HW2 3213   1.075   0.729   8.241
  853SOL     OW 3214   1.755   0.607   7.679
  853SOL    HW1 3215   1.743   0.594   7.580
  853SOL    HW2 3216   1.725   0.526   7.728
  854SOL     OW 3217   0.768   1.144   8.471
  854SOL    HW1 3218   0.690   1.161   8.531
  854SOL    HW2 3219   0.802   1.231   8.435
  855SOL     OW 3220   0.850   0.798   9.271
  855SOL    HW1 3221   0.846   0.874   9.336
  855SOL    HW2 3222   0.872   0.834   9.180
  856SOL     OW 3223   0.685   1.012   8.113
  856SOL    HW1 3224   0.754   0.996   8.183
  856SOL    HW2 3225   0.612   1.069   8.151
  857SOL     OW 3226   0.686   1.161   9.251
  857SOL    HW1 3227   0.746   1.240   9.265
  857SOL    HW2 3228   0.600   1.192   9.210
  858SOL     OW 3229   0.335   1.435   8.509
  858SOL    HW1 3230   0.257   1.404   8.456
  858SOL    HW2 3231   0.393   1.493   8.452
  859SOL     OW 3232   1.460   1.505   8.787
  859SOL    HW1 3233   1.484   1.599   8.813
  859SOL    HW2 3234   1.444   1.451   8.869
  860SOL     OW 3235   0.438   0.392   8.947
  860SOL    HW1 3236   0.520   0.336   8.956
  860SOL    HW2 3237   0.357   0.334   8.951
  861SOL     OW 3238   1.603   0.447   8.185
  861SOL    HW1 3239   1.529   0.493   8.135
  861SOL    HW2 3240   1.654   0.515   8.238
  862SOL     OW 3241   0.231   1.713   7.931
  862SOL    HW1 3242   0.265   1.790   7.985
  862SOL    HW2 3243   0.275   1.713   7.841
  863SOL     OW 3244   1.127   1.341   9.138
  863SOL    HW1 3245   1.174   1.341   9.226
  863SOL    HW2 3246   1.079   1.254   9.127
  864SOL     OW 3247   0.230   1.434   7.986
  864SOL    HW1 3248   0.204   1.530   7.986
  864SOL    HW2 3249   0.159   1.380   8.031
  865SOL     OW 3250   0.240   1.091   8.334
  865SOL    HW1 3251   0.254   1.007   8.386
  865SOL    HW2 3252   0.185   1.155   8.389
  866SOL     OW 3253   0.620   1.786   8.887
  866SOL    HW1 3254   0.528   1.769   8.922
  866SOL    HW2 3255   0.648   1.878   8.913
  867SOL     OW 3256   0.606   0.964   7.571
  867SOL    HW1 3257   0.613   1.048   7.517
  867SOL    HW2 3258   0.652   0.977   7.659
  868SOL     OW 3259   1.594   0.114   8.928
  868SOL    HW1 3260   1.576   0.181   8.856
  868SOL    HW2 3261   1.591   0.160   9.017
  869SOL     OW 3262   0.122   0.643   8.011
  869SOL    HW1 3263   0.077   0.555   8.028
  869SOL    HW2 3264   0.121   0.697   8.095
  870SOL     OW 3265   1.842   1.767   7.807
  870SOL    HW1 3266   1.896   1.738   7.887
  870SOL    HW2 3267   1.872   1.857   7.778
  871SOL     OW 3268   0.027   1.596   7.565
  871SOL    HW1 3269   0.008   1.500   7.586
  871SOL    HW2 3270  -0.006   1.654   7.640
  872SOL     OW 3271   1.689   0.922   8.060
  872SOL    HW1 3272   1.784   0.893   8.068
  872SOL    HW2 3273   1.681   0.987   7.985
  873SOL     OW 3274   1.641   1.108   7.880
  873SOL    HW1 3275   1.727   1.110   7.828
  873SOL    HW2 3276   1.655   1.155   7.968
  874SOL     OW 3277   0.113   0.737   9.045
  874SOL    HW1 3278   0.201   0.724   9.090
  874SOL    HW2 3279   0.100   0.834   9.023
  875SOL     OW 3280   0.613   1.365   8.174
  875SOL    HW1 3281   0.564   1.278   8.183
  875SOL    HW2 3282   0.590   1.408   8.087
  876SOL     OW 3283   1.293   1.228   8.871
  876SOL    HW1 3284   1.330   1.155   8.813
  876SOL    HW2 3285   1.345   1.233   8.956
  877SOL     OW 3286   0.809   0.004   7.950
  877SOL    HW1 3287   0.849   0.095   7.941
  877SOL    HW2 3288   0.709   0.012   7.956
  878SOL     OW 3289   0.197   0.976   8.712
  878SOL    HW1 3290   0.286   0.931   8.698
  878SOL    HW2 3291   0.124   0.911   8.693
  879SOL     OW 3292   1.525   0.999   7.638
  879SOL    HW1 3293   1.462   0.923   7.651
  879SOL    HW2 3294   1.573   1.017   7.724
  880SOL     OW 3295   1.187   1.792   9.064
  880SOL    HW1 3296   1.211   1.852   8.988
  880SOL    HW2 3297   1.194   1.697   9.034
  881SOL     OW 3298   0.317   0.251   9.249
  881SOL    HW1 3299   0.388   0.322   9.255
  881SOL    HW2 3300   0.229   0.290   9.277
  882SOL     OW 3301   1.466   1.417   8.401
  882SOL    HW1 3302   1.407   1.423   8.481
  882SOL    HW2 3303   1.451   1.329   8.355
  883SOL     OW 3304   1.667   1.714   8.020
  883SOL    HW1 3305   1.626   1.691   7.932
  883SOL    HW2 3306   1.649   1.640   8.085
  884SOL     OW 3307   0.598   0.729   7.718
  884SOL    HW1 3308   0.622   0.798   7.650
  884SOL    HW2 3309   0.520   0.762   7.772
  885SOL     OW 3310   1.281   0.345   8.392
  885SOL    HW1 3311   1.195   0.295   8.379
  885SOL    HW2 3312   1.343   0.291   8.448
  886SOL     OW 3313   1.576   1.662   7.755
  886SOL    HW1 3314   1.665   1.708   7.758
  886SOL    HW2 3315   1.555   1.638   7.660
  887SOL     OW 3316   0.807   0.605   8.913
  887SOL    HW1 3317   0.760   0.602   9.002
  887SOL    HW2 3318   0.756   0.550   8.847
  888SOL     OW 3319   1.394   0.469   9.122
  888SOL    HW1 3320   1.374   0.512   9.210
  888SOL    HW2 3321   1.472   0.407   9.131
  889SOL     OW 3322   0.973   0.890   9.020
  889SOL    HW1 3323   1.019   0.806   8.991
  889SOL    HW2 3324   0.917   0.924   8.945
  890SOL     OW 3325   0.991   0.410   8.690
  890SOL    HW1 3326   0.914   0.444   8.744
  890SOL    HW2 3327   0.957   0.359   8.611
  891SOL     OW 3328   1.041   0.701   7.877
  891SOL    HW1 3329   1.067   0.697   7.973
  891SOL    HW2 3330   0.956   0.650   7.863
  892SOL     OW 3331   0.076   0.811   8.237
  892SOL    HW1 3332   0.175   0.799   8.246
  892SOL    HW2 3333   0.052   0.906   8.258
  893SOL     OW 3334   0.130   1.821   9.019
  893SOL    HW1 3335   0.120   1.806   9.118
  893SOL    HW2 3336   0.044   1.857   8.983
  894SOL     OW 3337   0.865   0.348   7.643
  894SOL    HW1 3338   0.924   0.411   7.594
  894SOL    HW2 3339   0.884   0.254   7.614
  895SOL     OW 3340   1.719   0.585   9.279
  895SOL    HW1 3341   1.693   0.674   9.243
  895SOL    HW2 3342   1.717   0.517   9.206
  896SOL     OW 3343   1.362   1.144   7.993
  896SOL    HW1 3344   1.445   1.115   7.945
  896SOL    HW2 3345   1.313   1.211   7.937
  897SOL     OW 3346   0.550   0.196   8.333
  897SOL    HW1 3347   0.545   0.191   8.433
  897SOL    HW2 3348   0.552   0.292   8.304
  898SOL     OW 3349   1.008   1.456   7.925
  898SOL    HW1 3350   0.962   1.528   7.873
  898SOL    HW2 3351   1.004   1.476   8.023
  899SOL     OW 3352   0.351   1.801   8.301
  899SOL    HW1 3353   0.401   1.715   8.307
  899SOL    HW2 3354   0.416   1.878   8.298
  900SOL     OW 3355   1.795   1.066   8.321
  900SOL    HW1 3356   1.733   1.051   8.245
  900SOL    HW2 3357   1.743   1.077   8.406
  901SOL     OW 3358   1.227   1.550   8.954
  901SOL    HW1 3359   1.233   1.473   9.018
  901SOL    HW2 3360   1.175   1.524   8.874
  902SOL     OW 3361   0.321   0.943   7.690
  902SOL    HW1 3362   0.403   0.982   7.648
  902SOL    HW2 3363   0.294   0.861   7.641
  903SOL     OW 3364   1.458   0.735   8.176
  903SOL    HW1 3365   1.453   0.670   8.251
  903SOL    HW2 3366   1.538   0.794   8.189
  904SOL     OW 3367   0.461   1.266   9.175
  904SOL    HW1 3368   0.411   1.267   9.089
  904SOL    HW2 3369   0.398   1.248   9.251
  905SOL     OW 3370   1.111   1.776   7.685
  905SOL    HW1 3371   1.051   1.714   7.735
  905SOL    HW2 3372   1.142   1.732   7.600
  906SOL     OW 3373   0.202   0.285   8.946
  906SOL    HW1 3374   0.122   0.345   8.933
  906SOL    HW2 3375   0.192   0.236   9.032
  907SOL     OW 3376   1.632   1.377   7.529
  907SOL    HW1 3377   1.600   1.471   7.519
  907SOL    HW2 3378   1.556   1.314   7.517
  908SOL     OW 3379   0.464   1.743   7.771
  908SOL    HW1 3380   0.497   1.782   7.857
  908SOL    HW2 3381   0.540   1.736   7.706
  909SOL     OW 3382   1.400   0.107   7.874
  909SOL    HW1 3383   1.376   0.070   7.784
  909SOL    HW2 3384   1.499   0.123   7.878
  910SOL     OW 3385   0.249   1.785   8.689
  910SOL    HW1 3386   0.306   1.720   8.739
  910SOL    HW2 3387   0.233   1.752   8.596
  911SOL     OW 3388   0.940   1.698   8.352
  911SOL    HW1 3389   1.020   1.641   8.373
  911SOL    HW2 3390   0.891   1.658   8.275
  912SOL     OW 3391   0.382   0.700   7.928
  912SOL    HW1 3392   0.427   0.610   7.925
  912SOL    HW2 3393   0.288   0.689   7.961
  913SOL     OW 3394   1.547   0.222   9.177
  913SOL    HW1 3395   1.542   0.259   9.269
  913SOL    HW2 3396   1.475   0.153   9.165
  914SOL     OW 3397   0.614   0.122   7.565
  914SOL    HW1 3398   0.712   0.100   7.572
  914SOL    HW2 3399   0.583   0.105   7.472
  915SOL     OW 3400   0.781   0.264   9.197
  915SOL    HW1 3401   0.848   0.203   9.240
  915SOL    HW2 3402   0.708   0.283   9.262
  916SOL     OW 3403   0.888   1.514   8.643
  916SOL    HW1 3404   0.865   1.489   8.549
  916SOL    HW2 3405   0.949   1.445   8.682
  917SOL     OW 3406   1.351   0.590   8.881
  917SOL    HW1 3407   1.379   0.547   8.966
  917SOL    HW2 3408   1.376   0.686   8.882
  918SOL     OW 3409   0.803   1.402   8.372
  918SOL    HW1 3410   0.893   1.416   8.330
  918SOL    HW2 3411   0.732   1.404   8.301
  919SOL     OW 3412   0.922   0.503   8.347
  919SOL    HW1 3413   0.897   0.494   8.251
  919SOL    HW2 3414   0.970   0.421   8.378
  920SOL     OW 3415   0.539   0.064   7.960
  920SOL    HW1 3416   0.458   0.065   8.018
  920SOL    HW2 3417   0.542   0.147   7.905
  921SOL     OW 3418   1.434   1.188   7.489
  921SOL    HW1 3419   1.466   1.112   7.546
  921SOL    HW2 3420   1.342   1.215   7.519
  922SOL     OW 3421   0.297   0.035   7.619
  922SOL    HW1 3422   0.346   0.119   7.598
  922SOL    HW2 3423   0.359  -0.030   7.664
  923SOL     OW 3424   0.935   0.236   7.928
  923SOL    HW1 3425   0.887   0.277   7.850
  923SOL    HW2 3426   1.034   0.234   7.909
  924SOL     OW 3427   1.076   0.683   8.912
  924SOL    HW1 3428   0.996   0.622   8.915
  924SOL    HW2 3429   1.157   0.630   8.888
  925SOL     OW 3430   1.227   1.570   8.241
  925SOL    HW1 3431   1.248   1.644   8.176
  925SOL    HW2 3432   1.295   1.570   8.314
  926SOL     OW 3433   0.459   1.152   8.189
  926SOL    HW1 3434   0.388   1.125   8.254
  926SOL    HW2 3435   0.433   1.124   8.096
  927SOL     OW 3436   1.271   1.797   8.039
  927SOL    HW1 3437   1.315   1.861   7.975
  927SOL    HW2 3438   1.221   1.849   8.109
  928SOL     OW 3439   1.032   0.549   7.464
  928SOL    HW1 3440   0.991   0.631   7.425
  928SOL    HW2 3441   1.096   0.575   7.537
  929SOL     OW 3442   0.078   0.556   8.834
  929SOL    HW1 3443   0.170   0.555   8.793
  929SOL    HW2 3444   0.072   0.630   8.901
  930SOL     OW 3445   0.561   0.222   8.595
  930SOL    HW1 3446   0.599   0.138   8.632
  930SOL    HW2 3447   0.473   0.241   8.639
  931SOL     OW 3448   0.866   0.454   8.090
  931SOL    HW1 3449   0.834   0.526   8.028
  931SOL    HW2 3450   0.890   0.373   8.037
  932SOL     OW 3451   1.017   0.039   8.201
  932SOL    HW1 3452   0.945   0.044   8.132
  932SOL    HW2 3453   0.993  -0.030   8.270
  933SOL     OW 3454   1.429   1.173   8.315
  933SOL    HW1 3455   1.374   1.089   8.308
  933SOL    HW2 3456   1.455   1.202   8.223
  934SOL     OW 3457   1.466   0.590   8.440
  934SOL    HW1 3458   1.436   0.495   8.447
  934SOL    HW2 3459   1.539   0.606   8.506
  935SOL     OW 3460   1.857   0.833   7.825
  935SOL    HW1 3461   1.899   0.769   7.889
  935SOL    HW2 3462   1.819   0.782   7.747
  936SOL     OW 3463   0.488   1.385   7.622
  936SOL    HW1 3464   0.401   1.370   7.669
  936SOL    HW2 3465   0.471   1.411   7.527
  937SOL     OW 3466   1.664   1.280   8.105
  937SOL    HW1 3467   1.763   1.288   8.119
  937SOL    HW2 3468   1.619   1.364   8.136
  938SOL     OW 3469   1.390   0.575   7.526
  938SOL    HW1 3470   1.336   0.554   7.607
  938SOL    HW2 3471   1.481   0.534   7.535
  939SOL     OW 3472   0.527   0.256   7.776
  939SOL    HW1 3473   0.554   0.197   7.701
  939SOL    HW2 3474   0.527   0.351   7.745
  940SOL     OW 3475   1.754   1.223   9.036
  940SOL    HW1 3476   1.845   1.184   9.023
  940SOL    HW2 3477   1.762   1.319   9.060
  941SOL     OW 3478   1.064   1.347   8.788
  941SOL    HW1 3479   0.984   1.324   8.843
  941SOL    HW2 3480   1.147   1.321   8.837
  942SOL     OW 3481   1.592   1.629   9.073
  942SOL    HW1 3482   1.619   1.663   8.983
  942SOL    HW2 3483   1.671   1.591   9.119
  943SOL     OW 3484   1.111   1.195   8.548
  943SOL    HW1 3485   1.071   1.239   8.629
  943SOL    HW2 3486   1.070   1.232   8.465
  944SOL     OW 3487   1.638   1.099   8.527
  944SOL    HW1 3488   1.643   1.180   8.586
  944SOL    HW2 3489   1.552   1.101   8.476
  945SOL     OW 3490   0.915   0.089   8.850
  945SOL    HW1 3491   0.940   0.069   8.755
  945SOL    HW2 3492   0.987   0.145   8.892
  946SOL     OW 3493   0.980   1.116   9.167
  946SOL    HW1 3494   0.881   1.122   9.177
  946SOL    HW2 3495   1.003   1.036   9.111
  947SOL     OW 3496   0.705   1.050   7.816
  947SOL    HW1 3497   0.691   1.057   7.915
  947SOL    HW2 3498   0.789   0.999   7.798
  948SOL     OW 3499   0.410   0.813   8.699
  948SOL    HW1 3500   0.496   0.825   8.749
  948SOL    HW2 3501   0.368   0.726   8.726
  949SOL     OW 3502   1.274   0.386   8.710
  949SOL    HW1 3503   1.295   0.460   8.774
  949SOL    HW2 3504   1.185   0.403   8.667
  950SOL     OW 3505   0.064   1.564   8.779
  950SOL    HW1 3506   0.018   1.646   8.745
  950SOL    HW2 3507   0.162   1.583   8.788
  951SOL     OW 3508   0.367   1.100   7.949
  951SOL    HW1 3509   0.360   1.183   7.893
  951SOL    HW2 3510   0.371   1.020   7.889
  952SOL     OW 3511   0.566   0.537   8.313
  952SOL    HW1 3512   0.578   0.603   8.239
  952SOL    HW2 3513   0.612   0.571   8.396
  953SOL     OW 3514   1.252   1.348   7.836
  953SOL    HW1 3515   1.302   1.425   7.876
  953SOL    HW2 3516   1.157   1.350   7.868
  954SOL     OW 3517   1.272   1.445   8.590
  954SOL    HW1 3518   1.319   1.458   8.677
  954SOL    HW2 3519   1.206   1.371   8.599
  955SOL     OW 3520   1.582   0.639   7.920
  955SOL    HW1 3521   1.551   0.700   7.993
  955SOL    HW2 3522   1.632   0.691   7.851
  956SOL     OW 3523   0.354   1.510   8.777
  956SOL    HW1 3524   0.333   1.466   8.690
  956SOL    HW2 3525   0.451   1.536   8.780
  957SOL     OW 3526   0.402   0.751   9.046
  957SOL    HW1 3527   0.470   0.806   8.999
  957SOL    HW2 3528   0.442   0.663   9.073
  958SOL     OW 3529   1.587   0.779   9.118
  958SOL    HW1 3530   1.495   0.817   9.113
  958SOL    HW2 3531   1.647   0.826   9.053
  959SOL     OW 3532   1.013   0.105   9.218
  959SOL    HW1 3533   1.019   0.190   9.166
  959SOL    HW2 3534   1.045   0.029   9.161
  960SOL     OW 3535   0.504   0.050   9.188
  960SOL    HW1 3536   0.462  -0.007   9.118
  960SOL    HW2 3537   0.438   0.119   9.220
  961SOL     OW 3538   0.573   0.870   8.477
  961SOL    HW1 3539   0.617   0.959   8.468
  961SOL    HW2 3540   0.510   0.870   8.554
  962SOL     OW 3541   1.360   0.862   8.493
  962SOL    HW1 3542   1.285   0.862   8.427
  962SOL    HW2 3543   1.397   0.770   8.502
  963SOL     OW 3544   1.209   0.525   7.723
  963SOL    HW1 3545   1.222   0.441   7.777
  963SOL    HW2 3546   1.180   0.599   7.783
  964SOL     OW 3547   0.307   0.213   8.679
  964SOL    HW1 3548   0.284   0.250   8.769
  964SOL    HW2 3549   0.277   0.118   8.673
  965SOL     OW 3550   0.037   1.310   8.730
  965SOL    HW1 3551   0.090   1.261   8.798
  965SOL    HW2 3552   0.059   1.408   8.735
  966SOL     OW 3553   0.732   0.634   8.512
  966SOL    HW1 3554   0.791   0.608   8.436
  966SOL    HW2 3555   0.704   0.730   8.501
  967SOL     OW 3556   1.728   0.935   9.302
  967SOL    HW1 3557   1.682   0.928   9.213
  967SOL    HW2 3558   1.666   0.979   9.368
  968SOL     OW 3559   0.307   0.063   8.066
  968SOL    HW1 3560   0.296   0.157   8.099
  968SOL    HW2 3561   0.302   0.000   8.143
  969SOL     OW 3562   1.622   0.367   7.822
  969SOL    HW1 3563   1.624   0.291   7.886
  969SOL    HW2 3564   1.574   0.444   7.862
  970SOL     OW 3565   1.023   0.766   8.414
  970SOL    HW1 3566   1.038   0.787   8.510
  970SOL    HW2 3567   0.993   0.671   8.405
  971SOL     OW 3568   0.980   1.573   9.148
  971SOL    HW1 3569   0.960   1.617   9.060
  971SOL    HW2 3570   1.019   1.482   9.132
  972SOL     OW 3571   1.859   1.518   9.053
  972SOL    HW1 3572   1.873   1.545   8.958
  972SOL    HW2 3573   1.942   1.540   9.106
  973SOL     OW 3574   0.350   0.898   9.252
  973SOL    HW1 3575   0.426   0.942   9.300
  973SOL    HW2 3576   0.385   0.851   9.170
  974SOL     OW 3577   1.540   0.274   7.573
  974SOL    HW1 3578   1.479   0.199   7.596
  974SOL    HW2 3579   1.562   0.326   7.656
  975SOL     OW 3580   1.303   0.838   7.490
  975SOL    HW1 3581   1.337   0.745   7.505
  975SOL    HW2 3582   1.321   0.865   7.395
  976SOL     OW 3583   1.068   1.333   8.297
  976SOL    HW1 3584   1.075   1.249   8.242
  976SOL    HW2 3585   1.130   1.402   8.261
  977SOL     OW 3586   0.319   0.810   8.397
  977SOL    HW1 3587   0.412   0.846   8.402
  977SOL    HW2 3588   0.313   0.725   8.449
  978SOL     OW 3589   0.339   0.509   8.454
  978SOL    HW1 3590   0.287   0.426   8.437
  978SOL    HW2 3591   0.416   0.514   8.390
  979SOL     OW 3592   1.138   0.380   9.126
  979SOL    HW1 3593   1.093   0.443   9.190
  979SOL    HW2 3594   1.231   0.411   9.109
  980SOL     OW 3595   1.160   0.207   8.925
  980SOL    HW1 3596   1.160   0.271   9.002
  980SOL    HW2 3597   1.188   0.255   8.842
  981SOL     OW 3598   0.008   1.326   7.648
  981SOL    HW1 3599  -0.085   1.347   7.617
  981SOL    HW2 3600   0.018   1.227   7.661
  982SOL     OW 3601   0.088   1.801   8.375
  982SOL    HW1 3602   0.046   1.715   8.348
  982SOL    HW2 3603   0.182   1.804   8.341
  983SOL     OW 3604   0.504   1.568   8.358
  983SOL    HW1 3605   0.570   1.642   8.367
  983SOL    HW2 3606   0.548   1.489   8.316
  984SOL     OW 3607   1.002   0.796   8.686
  984SOL    HW1 3608   1.043   0.764   8.772
  984SOL    HW2 3609   0.906   0.769   8.683
  985SOL     OW 3610   0.040   0.544   8.562
  985SOL    HW1 3611   0.125   0.511   8.521
  985SOL    HW2 3612   0.053   0.559   8.660
  986SOL     OW 3613   0.189   0.520   9.170
  986SOL    HW1 3614   0.248   0.480   9.100
  986SOL    HW2 3615   0.131   0.591   9.129
  987SOL     OW 3616   1.369   0.950   9.108
  987SOL    HW1 3617   1.408   1.039   9.128
  987SOL    HW2 3618   1.379   0.930   9.011
  988SOL     OW 3619   0.815   0.572   7.773
  988SOL    HW1 3620   0.822   0.483   7.727
  988SOL    HW2 3621   0.721   0.606   7.765
  989SOL     OW 3622   1.657   0.604   8.654
  989SOL    HW1 3623   1.619   0.535   8.716
  989SOL    HW2 3624   1.739   0.568   8.610
  990SOL     OW 3625   0.252   1.564   9.192
  990SOL    HW1 3626   0.222   1.621   9.268
  990SOL    HW2 3627   0.245   1.467   9.218
  991SOL     OW 3628   0.671   0.464   8.717
  991SOL    HW1 3629   0.637   0.375   8.687
  991SOL    HW2 3630   0.697   0.518   8.637
  992SOL     OW 3631   0.930   1.678   8.913
  992SOL    HW1 3632   0.906   1.660   8.818
  992SOL    HW2 3633   0.960   1.772   8.923
  993SOL     OW 3634   0.473   0.500   7.639
  993SOL    HW1 3635   0.534   0.580   7.643
  993SOL    HW2 3636   0.378   0.531   7.646
  994SOL     OW 3637   0.159   1.137   8.914
  994SOL    HW1 3638   0.181   1.076   8.990
  994SOL    HW2 3639   0.169   1.088   8.828
  995SOL     OW 3640   1.347   1.059   8.682
  995SOL    HW1 3641   1.371   0.996   8.608
  995SOL    HW2 3642   1.257   1.099   8.664
  996SOL     OW 3643   1.302   0.855   7.757
  996SOL    HW1 3644   1.216   0.824   7.799
  996SOL    HW2 3645   1.298   0.841   7.658
  997SOL     OW 3646   1.759   1.747   8.602
  997SOL    HW1 3647   1.820   1.777   8.529
  997SOL    HW2 3648   1.721   1.658   8.580
  998SOL     OW 3649   1.252   1.731   8.576
  998SOL    HW1 3650   1.336   1.736   8.522
  998SOL    HW2 3651   1.229   1.635   8.594
  999SOL     OW 3652   0.083   1.258   8.470
  999SOL    HW1 3653   0.078   1.257   8.570
  999SOL    HW2 3654   0.000   1.217   8.432
 1000SOL     OW 3655   0.688   1.662   9.164
 1000SOL    HW1 3656   0.632   1.743   9.173
 1000SOL    HW2 3657   0.740   1.666   9.078
 1001SOL     OW 3658   1.726   0.135   7.971
 1001SOL    HW1 3659   1.799   0.118   7.904
 1001SOL    HW2 3660   1.695   0.048   8.009
 1002SOL     OW 3661   1.388   1.573   7.925
 1002SOL    HW1 3662   1.455   1.585   7.851
 1002SOL    HW2 3663   1.348   1.662   7.948
 1003SOL     OW 3664   0.130   1.794   9.299
 1003SOL    HW1 3665   0.089   1.720   9.352
 1003SOL    HW2 3666   0.194   1.845   9.357
 1004SOL     OW 3667   1.280   0.927   8.120
 1004SOL    HW1 3668   1.340   0.846   8.122
 1004SOL    HW2 3669   1.320   0.996   8.060
 1005SOL     OW 3670   0.830   1.273   8.870
 1005SOL    HW1 3671   0.825   1.306   8.965
 1005SOL    HW2 3672   0.744   1.292   8.824
 1006SOL     OW 3673   0.672   1.616   7.602
 1006SOL    HW1 3674   0.681   1.626   7.503
 1006SOL    HW2 3675   0.632   1.527   7.623
 1007SOL     OW 3676   1.650   1.720   8.842
 1007SOL    HW1 3677   1.703   1.730   8.758
 1007SOL    HW2 3678   1.623   1.810   8.876
 1008SOL     OW 3679   1.841   0.175   8.411
 1008SOL    HW1 3680   1.880   0.090   8.375
 1008SOL    HW2 3681   1.743   0.177   8.392
 1009SOL     OW 3682   0.263   0.326   8.168
 1009SOL    HW1 3683   0.184   0.377   8.134
 1009SOL    HW2 3684   0.254   0.311   8.266
 1010SOL     OW 3685   1.194   1.612   7.479
 1010SOL    HW1 3686   1.200   1.519   7.516
 1010SOL    HW2 3687   1.135   1.612   7.399
 1011SOL     OW 3688   0.822   1.002   8.820
 1011SOL    HW1 3689   0.862   1.001   8.728
 1011SOL    HW2 3690   0.832   1.094   8.860
 1012SOL     OW 3691   0.916   0.910   7.739
 1012SOL    HW1 3692   0.979   0.948   7.671
 1012SOL    HW2 3693   0.956   0.827   7.778
 1013SOL     OW 3694   1.504   1.607   7.492
 1013SOL    HW1 3695   1.412   1.644   7.499
 1013SOL    HW2 3696   1.542   1.627   7.402
 1014SOL     OW 3697   0.372   1.288   8.938
 1014SOL    HW1 3698   0.359   1.381   8.904
 1014SOL    HW2 3699   0.288   1.236   8.925
 1015SOL     OW 3700   1.614   1.292   8.737
 1015SOL    HW1 3701   1.674   1.295   8.817
 1015SOL    HW2 3702   1.539   1.356   8.750
 1016SOL     OW 3703   1.039   1.098   8.144
 1016SOL    HW1 3704   0.969   1.051   8.198
 1016SOL    HW2 3705   1.098   1.030   8.101
 1017SOL     OW 3706   1.014   0.236   8.419
 1017SOL    HW1 3707   1.006   0.200   8.326
 1017SOL    HW2 3708   1.012   0.160   8.484
 1018SOL     OW 3709   0.590   1.487   7.939
 1018SOL    HW1 3710   0.632   1.429   7.869
 1018SOL    HW2 3711   0.546   1.566   7.895
 1019SOL     OW 3712   1.709   0.385   8.829
 1019SOL    HW1 3713   1.782   0.454   8.833
 1019SOL    HW2 3714   1.737   0.310   8.770
 1020SOL     OW 3715   0.255   1.348   7.738
 1020SOL    HW1 3716   0.159   1.349   7.711
 1020SOL    HW2 3717   0.267   1.401   7.822
 1021SOL     OW 3718   0.105   1.013   9.174
 1021SOL    HW1 3719   0.028   0.980   9.228
 1021SOL    HW2 3720   0.190   0.983   9.216
 1022SOL     OW 3721   0.672   0.203   8.937
 1022SOL    HW1 3722   0.762   0.187   8.897
 1022SOL    HW2 3723   0.680   0.208   9.036
 1023SOL     OW 3724   0.075   0.345   7.481
 1023SOL    HW1 3725  -0.017   0.317   7.452
 1023SOL    HW2 3726   0.106   0.422   7.425
 1024SOL     OW 3727   1.440   0.856   8.846
 1024SOL    HW1 3728   1.383   0.908   8.783
 1024SOL    HW2 3729   1.536   0.868   8.822
 1025SOL     OW 3730   0.072   0.166   7.766
 1025SOL    HW1 3731   0.055   0.249   7.712
 1025SOL    HW2 3732   0.162   0.129   7.744
 1026SOL     OW 3733   1.183   1.335   7.567
 1026SOL    HW1 3734   1.084   1.324   7.569
 1026SOL    HW2 3735   1.217   1.350   7.660
 1027SOL     OW 3736   0.613   0.842   8.879
 1027SOL    HW1 3737   0.669   0.923   8.862
 1027SOL    HW2 3738   0.672   0.762   8.882
 1028SOL     OW 3739   1.493   1.767   8.407
 1028SOL    HW1 3740   1.526   1.831   8.338
 1028SOL    HW2 3741   1.559   1.761   8.482
 1029SOL     OW 3742   0.716   0.565   9.156
 1029SOL    HW1 3743   0.735   0.630   9.230
 1029SOL    HW2 3744   0.776   0.485   9.165
 1030SOL     OW 3745   1.450   1.220   9.081
 1030SOL    HW1 3746   1.441   1.210   9.180
 1030SOL    HW2 3747   1.546   1.213   9.055
 1031SOL     OW 3748   0.390   1.741   9.008
 1031SOL    HW1 3749   0.299   1.782   9.006
 1031SOL    HW2 3750   0.383   1.647   9.040
 1032SOL     OW 3751   1.674   0.883   8.702
 1032SOL    HW1 3752   1.647   0.794   8.665
 1032SOL    HW2 3753   1.675   0.951   8.629
 1033SOL     OW 3754   1.225   0.325   7.897
 1033SOL    HW1 3755   1.290   0.251   7.886
 1033SOL    HW2 3756   1.245   0.375   7.981
 1034SOL     OW 3757   0.594   0.745   8.100
 1034SOL    HW1 3758   0.644   0.830   8.081
 1034SOL    HW2 3759   0.506   0.747   8.052
 1035SOL     OW 3760   1.777   0.342   9.090
 1035SOL    HW1 3761   1.760   0.373   8.996
 1035SOL    HW2 3762   1.693   0.305   9.128
 1036SOL     OW 3763   1.730   0.934   8.965
 1036SOL    HW1 3764   1.768   1.025   8.980
 1036SOL    HW2 3765   1.722   0.917   8.866
 1037SOL     OW 3766   0.859   1.374   7.464
 1037SOL    HW1 3767   0.813   1.389   7.552
 1037SOL    HW2 3768   0.903   1.459   7.434
 1038SOL     OW 3769   0.661   1.790   8.401
 1038SOL    HW1 3770   0.615   1.878   8.388
 1038SOL    HW2 3771   0.760   1.802   8.394
 1039SOL     OW 3772   0.859   0.956   8.309
 1039SOL    HW1 3773   0.913   0.887   8.357
 1039SOL    HW2 3774   0.827   1.025   8.375
 1040SOL     OW 3775   1.083   0.984   7.535
 1040SOL    HW1 3776   1.060   1.037   7.453
 1040SOL    HW2 3777   1.164   0.928   7.516
 1041SOL     OW 3778   1.861   1.569   8.299
 1041SOL    HW1 3779   1.790   1.557   8.229
 1041SOL    HW2 3780   1.862   1.490   8.359
 1042SOL     OW 3781   0.221   1.314   9.292
 1042SOL    HW1 3782   0.156   1.241   9.271
 1042SOL    HW2 3783   0.225   1.328   9.390
 1043SOL     OW 3784   0.079   1.240   8.101
 1043SOL    HW1 3785   0.078   1.193   8.189
 1043SOL    HW2 3786   0.161   1.212   8.050
 1044SOL     OW 3787   0.672   1.391   9.072
 1044SOL    HW1 3788   0.594   1.341   9.110
 1044SOL    HW2 3789   0.669   1.486   9.103
 1045SOL     OW 3790   1.824   0.192   8.675
 1045SOL    HW1 3791   1.820   0.102   8.719
 1045SOL    HW2 3792   1.827   0.181   8.576
 1046SOL     OW 3793   0.428   0.424   7.968
 1046SOL    HW1 3794   0.458   0.352   7.906
 1046SOL    HW2 3795   0.389   0.384   8.051
 1047SOL     OW 3796   1.705   1.487   8.552
 1047SOL    HW1 3797   1.612   1.462   8.525
 1047SOL    HW2 3798   1.731   1.437   8.634
 1048SOL     OW 3799   0.317   0.547   8.728
 1048SOL    HW1 3800   0.355   0.488   8.800
 1048SOL    HW2 3801   0.357   0.521   8.640
 1049SOL     OW 3802   0.812   1.586   8.135
 1049SOL    HW1 3803   0.844   1.596   8.041
 1049SOL    HW2 3804   0.733   1.524   8.137
 1050SOL     OW 3805   1.424   0.214   8.560
 1050SOL    HW1 3806   1.476   0.149   8.615
 1050SOL    HW2 3807   1.375   0.277   8.621
 1051SOL     OW 3808   1.001   0.034   8.602
 1051SOL    HW1 3809   0.938  -0.038   8.571
 1051SOL    HW2 3810   1.094  -0.002   8.602
 1052SOL     OW 3811   0.770   1.330   7.749
 1052SOL    HW1 3812   0.724   1.243   7.766
 1052SOL    HW2 3813   0.861   1.327   7.790
 1053SOL     OW 3814   0.618   1.567   8.732
 1053SOL    HW1 3815   0.613   1.649   8.789
 1053SOL    HW2 3816   0.707   1.564   8.687
 1054SOL     OW 3817   1.352   0.052   7.616
 1054SOL    HW1 3818   1.387   0.011   7.532
 1054SOL    HW2 3819   1.262   0.014   7.636
 1055SOL     OW 3820   1.300   0.453   8.139
 1055SOL    HW1 3821   1.241   0.533   8.143
 1055SOL    HW2 3822   1.315   0.418   8.232
 1056SOL     OW 3823   1.593   0.221   8.330
 1056SOL    HW1 3824   1.509   0.220   8.384
 1056SOL    HW2 3825   1.595   0.304   8.274
 1057SOL     OW 3826   0.039   1.077   7.748
 1057SOL    HW1 3827   0.138   1.066   7.739
 1057SOL    HW2 3828  -0.001   0.991   7.780
 1058SOL     OW 3829   0.875   1.646   7.785
 1058SOL    HW1 3830   0.798   1.611   7.731
 1058SOL    HW2 3831   0.843   1.717   7.847
 1059SOL     OW 3832   0.230   0.628   9.423
 1059SOL    HW1 3833   0.137   0.626   9.460
 1059SOL    HW2 3834   0.231   0.589   9.331
 1060SOL     OW 3835   0.225   0.275  10.306
 1060SOL    HW1 3836   0.260   0.258  10.398
 1060SOL    HW2 3837   0.137   0.230  10.294
 1061SOL     OW 3838   0.019   0.368   9.957
 1061SOL    HW1 3839  -0.063   0.411   9.996
 1061SOL    HW2 3840  -0.009   0.295   9.894
 1062SOL     OW 3841   0.569   1.275  10.475
 1062SOL    HW1 3842   0.476   1.268  10.438
 1062SOL    HW2 3843   0.580   1.364  10.519
 1063SOL     OW 3844   1.555   1.511  10.013
 1063SOL    HW1 3845   1.498   1.495  10.094
 1063SOL    HW2 3846   1.496   1.521   9.933
 1064SOL     OW 3847   1.135   0.703  10.027
 1064SOL    HW1 3848   1.192   0.781  10.002
 1064SOL    HW2 3849   1.075   0.729  10.103
 1065SOL     OW 3850   1.755   0.607   9.541
 1065SOL    HW1 3851   1.743   0.594   9.442
 1065SOL    HW2 3852   1.725   0.526   9.590
 1066SOL     OW 3853   0.768   1.144  10.333
 1066SOL    HW1 3854   0.690   1.161  10.393
 1066SOL    HW2 3855   0.802   1.231  10.297
 1067SOL     OW 3856   0.850   0.798  11.133
 1067SOL    HW1 3857   0.846   0.874  11.198
 1067SOL    HW2 3858   0.872   0.834  11.042
 1068SOL     OW 3859   0.685   1.012   9.975
 1068SOL    HW1 3860   0.754   0.996  10.045
 1068SOL    HW2 3861   0.612   1.069  10.013
 1069SOL     OW 3862   0.335   1.435  10.371
 1069SOL    HW1 3863   0.257   1.404  10.318
 1069SOL    HW2 3864   0.393   1.493  10.314
 1070SOL     OW 3865   1.460   1.505  10.649
 1070SOL    HW1 3866   1.484   1.599  10.675
 1070SOL    HW2 3867   1.444   1.451  10.731
 1071SOL     OW 3868   0.438   0.392  10.809
 1071SOL    HW1 3869   0.520   0.336  10.818
 1071SOL    HW2 3870   0.357   0.334  10.813
 1072SOL     OW 3871   1.603   0.447  10.047
 1072SOL    HW1 3872   1.529   0.493   9.997
 1072SOL    HW2 3873   1.654   0.515  10.100
 1073SOL     OW 3874   0.231   1.713   9.793
 1073SOL    HW1 3875   0.265   1.790   9.847
 1073SOL    HW2 3876   0.275   1.713   9.703
 1074SOL     OW 3877   0.230   1.434   9.848
 1074SOL    HW1 3878   0.204   1.530   9.848
 1074SOL    HW2 3879   0.159   1.380   9.893
 1075SOL     OW 3880   0.240   1.091  10.196
 1075SOL    HW1 3881   0.254   1.007  10.248
 1075SOL    HW2 3882   0.185   1.155  10.251
 1076SOL     OW 3883   0.620   1.786  10.749
 1076SOL    HW1 3884   0.528   1.769  10.784
 1076SOL    HW2 3885   0.648   1.878  10.775
 1077SOL     OW 3886   0.606   0.964   9.433
 1077SOL    HW1 3887   0.613   1.048   9.379
 1077SOL    HW2 3888   0.652   0.977   9.521
 1078SOL     OW 3889   1.594   0.114  10.790
 1078SOL    HW1 3890   1.576   0.181  10.718
 1078SOL    HW2 3891   1.591   0.160  10.879
 1079SOL     OW 3892   0.122   0.643   9.873
 1079SOL    HW1 3893   0.077   0.555   9.890
 1079SOL    HW2 3894   0.121   0.697   9.957
 1080SOL     OW 3895   1.842   1.767   9.669
 1080SOL    HW1 3896   1.896   1.738   9.749
 1080SOL    HW2 3897   1.872   1.857   9.640
 1081SOL     OW 3898   0.027   1.596   9.427
 1081SOL    HW1 3899   0.008   1.500   9.448
 1081SOL    HW2 3900  -0.006   1.654   9.502
 1082SOL     OW 3901   1.689   0.922   9.922
 1082SOL    HW1 3902   1.784   0.893   9.930
 1082SOL    HW2 3903   1.681   0.987   9.847
 1083SOL     OW 3904   1.641   1.108   9.742
 1083SOL    HW1 3905   1.727   1.110   9.690
 1083SOL    HW2 3906   1.655   1.155   9.830
 1084SOL     OW 3907   0.113   0.737  10.907
 1084SOL    HW1 3908   0.201   0.724  10.952
 1084SOL    HW2 3909   0.100   0.834  10.885
 1085SOL     OW 3910   0.613   1.365  10.036
 1085SOL    HW1 3911   0.564   1.278  10.045
 1085SOL    HW2 3912   0.590   1.408   9.949
 1086SOL     OW 3913   1.293   1.228  10.733
 1086SOL    HW1 3914   1.330   1.155  10.675
 1086SOL    HW2 3915   1.345   1.233  10.818
 1087SOL     OW 3916   0.809   0.004   9.812
 1087SOL    HW1 3917   0.849   0.095   9.803
 1087SOL    HW2 3918   0.709   0.012   9.818
 1088SOL     OW 3919   0.197   0.976  10.574
 1088SOL    HW1 3920   0.286   0.931  10.560
 1088SOL    HW2 3921   0.124   0.911  10.555
 1089SOL     OW 3922   1.525   0.999   9.500
 1089SOL    HW1 3923   1.462   0.923   9.513
 1089SOL    HW2 3924   1.573   1.017   9.586
 1090SOL     OW 3925   1.187   1.792  10.926
 1090SOL    HW1 3926   1.211   1.852  10.850
 1090SOL    HW2 3927   1.194   1.697  10.896
 1091SOL     OW 3928   0.317   0.251  11.111
 1091SOL    HW1 3929   0.388   0.322  11.117
 1091SOL    HW2 3930   0.229   0.290  11.139
 1092SOL     OW 3931   1.466   1.417  10.263
 1092SOL    HW1 3932   1.407   1.423  10.343
 1092SOL    HW2 3933   1.451   1.329  10.217
 1093SOL     OW 3934   1.667   1.714   9.882
 1093SOL    HW1 3935   1.626   1.691   9.794
 1093SOL    HW2 3936   1.649   1.640   9.947
 1094SOL     OW 3937   0.598   0.729   9.580
 1094SOL    HW1 3938   0.622   0.798   9.512
 1094SOL    HW2 3939   0.520   0.762   9.634
 1095SOL     OW 3940   1.281   0.345  10.254
 1095SOL    HW1 3941   1.195   0.295  10.241
 1095SOL    HW2 3942   1.343   0.291  10.310
 1096SOL     OW 3943   1.576   1.662   9.617
 1096SOL    HW1 3944   1.665   1.708   9.620
 1096SOL    HW2 3945   1.555   1.638   9.522
 1097SOL     OW 3946   0.807   0.605  10.775
 1097SOL    HW1 3947   0.760   0.602  10.864
 1097SOL    HW2 3948   0.756   0.550  10.709
 1098SOL     OW 3949   0.973   0.890  10.882
 1098SOL    HW1 3950   1.019   0.806  10.853
 1098SOL    HW2 3951   0.917   0.924  10.807
 1099SOL     OW 3952   0.991   0.410  10.552
 1099SOL    HW1 3953   0.914   0.444  10.606
 1099SOL    HW2 3954   0.957   0.359  10.473
 1100SOL     OW 3955   1.041   0.701   9.739
 1100SOL    HW1 3956   1.067   0.697   9.835
 1100SOL    HW2 3957   0.956   0.650   9.725
 1101SOL     OW 3958   0.076   0.811  10.099
 1101SOL    HW1 3959   0.175   0.799  10.108
 1101SOL    HW2 3960   0.052   0.906  10.120
 1102SOL     OW 3961   0.130   1.821  10.881
 1102SOL    HW1 3962   0.120   1.806  10.980
 1102SOL    HW2 3963   0.044   1.857  10.845
 1103SOL     OW 3964   0.865   0.348   9.505
 1103SOL    HW1 3965   0.924   0.411   9.456
 1103SOL    HW2 3966   0.884   0.254   9.476
 1104SOL     OW 3967   1.362   1.144   9.855
 1104SOL    HW1 3968   1.445   1.115   9.807
 1104SOL    HW2 3969   1.313   1.211   9.799
 1105SOL     OW 3970   0.550   0.196  10.195
 1105SOL    HW1 3971   0.545   0.191  10.295
 1105SOL    HW2 3972   0.552   0.292  10.166
 1106SOL     OW 3973   1.008   1.456   9.787
 1106SOL    HW1 3974   0.962   1.528   9.735
 1106SOL    HW2 3975   1.004   1.476   9.885
 1107SOL     OW 3976   0.351   1.801  10.163
 1107SOL    HW1 3977   0.401   1.715  10.169
 1107SOL    HW2 3978   0.416   1.878  10.160
 1108SOL     OW 3979   1.795   1.066  10.183
 1108SOL    HW1 3980   1.733   1.051  10.107
 1108SOL    HW2 3981   1.743   1.077  10.268
 1109SOL     OW 3982   1.227   1.550  10.816
 1109SOL    HW1 3983   1.233   1.473  10.880
 1109SOL    HW2 3984   1.175   1.524  10.736
 1110SOL     OW 3985   0.321   0.943   9.552
 1110SOL    HW1 3986   0.403   0.982   9.510
 1110SOL    HW2 3987   0.294   0.861   9.503
 1111SOL     OW 3988   1.458   0.735  10.038
 1111SOL    HW1 3989   1.453   0.670  10.113
 1111SOL    HW2 3990   1.538   0.794  10.051
 1112SOL     OW 3991   0.461   1.266  11.037
 1112SOL    HW1 3992   0.411   1.267  10.951
 1112SOL    HW2 3993   0.398   1.248  11.113
 1113SOL     OW 3994   1.111   1.776   9.547
 1113SOL    HW1 3995   1.051   1.714   9.597
 1113SOL    HW2 3996   1.142   1.732   9.462
 1114SOL     OW 3997   0.202   0.285  10.808
 1114SOL    HW1 3998   0.122   0.345  10.795
 1114SOL    HW2 3999   0.192   0.236  10.894
 1115SOL     OW 4000   1.632   1.377   9.391
 1115SOL    HW1 4001   1.600   1.471   9.381
 1115SOL    HW2 4002   1.556   1.314   9.379
 1116SOL     OW 4003   0.464   1.743   9.633
 1116SOL    HW1 4004   0.497   1.782   9.719
 1116SOL    HW2 4005   0.540   1.736   9.568
 1117SOL     OW 4006   1.400   0.107   9.736
 1117SOL    HW1 4007   1.376   0.070   9.646
 1117SOL    HW2 4008   1.499   0.123   9.740
 1118SOL     OW 4009   0.249   1.785  10.551
 1118SOL    HW1 4010   0.306   1.720  10.601
 1118SOL    HW2 4011   0.233   1.752  10.458
 1119SOL     OW 4012   0.940   1.698  10.214
 1119SOL    HW1 4013   1.020   1.641  10.235
 1119SOL    HW2 4014   0.891   1.658  10.137
 1120SOL     OW 4015   0.382   0.700   9.790
 1120SOL    HW1 4016   0.427   0.610   9.787
 1120SOL    HW2 4017   0.288   0.689   9.823
 1121SOL     OW 4018   0.614   0.122   9.427
 1121SOL    HW1 4019   0.712   0.100   9.434
 1121SOL    HW2 4020   0.583   0.105   9.334
 1122SOL     OW 4021   0.781   0.264  11.059
 1122SOL    HW1 4022   0.848   0.203  11.102
 1122SOL    HW2 4023   0.708   0.283  11.124
 1123SOL     OW 4024   0.888   1.514  10.505
 1123SOL    HW1 4025   0.865   1.489  10.411
 1123SOL    HW2 4026   0.949   1.445  10.544
 1124SOL     OW 4027   1.351   0.590  10.743
 1124SOL    HW1 4028   1.379   0.547  10.828
 1124SOL    HW2 4029   1.376   0.686  10.744
 1125SOL     OW 4030   0.803   1.402  10.234
 1125SOL    HW1 4031   0.893   1.416  10.192
 1125SOL    HW2 4032   0.732   1.404  10.163
 1126SOL     OW 4033   0.922   0.503  10.209
 1126SOL    HW1 4034   0.897   0.494  10.113
 1126SOL    HW2 4035   0.970   0.421  10.240
 1127SOL     OW 4036   0.539   0.064   9.822
 1127SOL    HW1 4037   0.458   0.065   9.880
 1127SOL    HW2 4038   0.542   0.147   9.767
 1128SOL     OW 4039   1.434   1.188   9.351
 1128SOL    HW1 4040   1.466   1.112   9.408
 1128SOL    HW2 4041   1.342   1.215   9.381
 1129SOL     OW 4042   0.297   0.035   9.481
 1129SOL    HW1 4043   0.346   0.119   9.460
 1129SOL    HW2 4044   0.359  -0.030   9.526
 1130SOL     OW 4045   0.935   0.236   9.790
 1130SOL    HW1 4046   0.887   0.277   9.712
 1130SOL    HW2 4047   1.034   0.234   9.771
 1131SOL     OW 4048   1.076   0.683  10.774
 1131SOL    HW1 4049   0.996   0.622  10.777
 1131SOL    HW2 4050   1.157   0.630  10.750
 1132SOL     OW 4051   1.227   1.570  10.103
 1132SOL    HW1 4052   1.248   1.644  10.038
 1132SOL    HW2 4053   1.295   1.570  10.176
 1133SOL     OW 4054   0.459   1.152  10.051
 1133SOL    HW1 4055   0.388   1.125  10.116
 1133SOL    HW2 4056   0.433   1.124   9.958
 1134SOL     OW 4057   1.271   1.797   9.901
 1134SOL    HW1 4058   1.315   1.861   9.837
 1134SOL    HW2 4059   1.221   1.849   9.971
 1135SOL     OW 4060   1.032   0.549   9.326
 1135SOL    HW1 4061   0.991   0.631   9.287
 1135SOL    HW2 4062   1.096   0.575   9.399
 1136SOL     OW 4063   0.078   0.556  10.696
 1136SOL    HW1 4064   0.170   0.555  10.655
 1136SOL    HW2 4065   0.072   0.630  10.763
 1137SOL     OW 4066   0.561   0.222  10.457
 1137SOL    HW1 4067   0.599   0.138  10.494
 1137SOL    HW2 4068   0.473   0.241  10.501
 1138SOL     OW 4069   0.866   0.454   9.952
 1138SOL    HW1 4070   0.834   0.526   9.890
 1138SOL    HW2 4071   0.890   0.373   9.899
 1139SOL     OW 4072   1.017   0.039  10.063
 1139SOL    HW1 4073   0.945   0.044   9.994
 1139SOL    HW2 4074   0.993  -0.030  10.132
 1140SOL     OW 4075   1.429   1.173  10.177
 1140SOL    HW1 4076   1.374   1.089  10.170
 1140SOL    HW2 4077   1.455   1.202  10.085
 1141SOL     OW 4078   1.466   0.590  10.302
 1141SOL    HW1 4079   1.436   0.495  10.309
 1141SOL    HW2 4080   1.539   0.606  10.368
 1142SOL     OW 4081   1.857   0.833   9.687
 1142SOL    HW1 4082   1.899   0.769   9.751
 1142SOL    HW2 4083   1.819   0.782   9.609
 1143SOL     OW 4084   0.488   1.385   9.484
 1143SOL    HW1 4085   0.401   1.370   9.531
 1143SOL    HW2 4086   0.471   1.411   9.389
 1144SOL     OW 4087   1.664   1.280   9.967
 1144SOL    HW1 4088   1.763   1.288   9.981
 1144SOL    HW2 4089   1.619   1.364   9.998
 1145SOL     OW 4090   1.390   0.575   9.388
 1145SOL    HW1 4091   1.336   0.554   9.469
 1145SOL    HW2 4092   1.481   0.534   9.397
 1146SOL     OW 4093   0.527   0.256   9.638
 1146SOL    HW1 4094   0.554   0.197   9.563
 1146SOL    HW2 4095   0.527   0.351   9.607
 1147SOL     OW 4096   1.754   1.223  10.898
 1147SOL    HW1 4097   1.845   1.184  10.885
 1147SOL    HW2 4098   1.762   1.319  10.922
 1148SOL     OW 4099   1.064   1.347  10.650
 1148SOL    HW1 4100   0.984   1.324  10.705
 1148SOL    HW2 4101   1.147   1.321  10.699
 1149SOL     OW 4102   1.111   1.195  10.410
 1149SOL    HW1 4103   1.071   1.239  10.491
 1149SOL    HW2 4104   1.070   1.232  10.327
 1150SOL     OW 4105   1.638   1.099  10.389
 1150SOL    HW1 4106   1.643   1.180  10.448
 1150SOL    HW2 4107   1.552   1.101  10.338
 1151SOL     OW 4108   0.915   0.089  10.712
 1151SOL    HW1 4109   0.940   0.069  10.617
 1151SOL    HW2 4110   0.987   0.145  10.754
 1152SOL     OW 4111   0.705   1.050   9.678
 1152SOL    HW1 4112   0.691   1.057   9.777
 1152SOL    HW2 4113   0.789   0.999   9.660
 1153SOL     OW 4114   0.410   0.813  10.561
 1153SOL    HW1 4115   0.496   0.825  10.611
 1153SOL    HW2 4116   0.368   0.726  10.588
 1154SOL     OW 4117   1.274   0.386  10.572
 1154SOL    HW1 4118   1.295   0.460  10.636
 1154SOL    HW2 4119   1.185   0.403  10.529
 1155SOL     OW 4120   0.064   1.564  10.641
 1155SOL    HW1 4121   0.018   1.646  10.607
 1155SOL    HW2 4122   0.162   1.583  10.650
 1156SOL     OW 4123   0.367   1.100   9.811
 1156SOL    HW1 4124   0.360   1.183   9.755
 1156SOL    HW2 4125   0.371   1.020   9.751
 1157SOL     OW 4126   0.566   0.537  10.175
 1157SOL    HW1 4127   0.578   0.603  10.101
 1157SOL    HW2 4128   0.612   0.571  10.258
 1158SOL     OW 4129   1.252   1.348   9.698
 1158SOL    HW1 4130   1.302   1.425   9.738
 1158SOL    HW2 4131   1.157   1.350   9.730
 1159SOL     OW 4132   1.272   1.445  10.452
 1159SOL    HW1 4133   1.319   1.458  10.539
 1159SOL    HW2 4134   1.206   1.371  10.461
 1160SOL     OW 4135   1.582   0.639   9.782
 1160SOL    HW1 4136   1.551   0.700   9.855
 1160SOL    HW2 4137   1.632   0.691   9.713
 1161SOL     OW 4138   0.354   1.510  10.639
 1161SOL    HW1 4139   0.333   1.466  10.552
 1161SOL    HW2 4140   0.451   1.536  10.642
 1162SOL     OW 4141   0.402   0.751  10.908
 1162SOL    HW1 4142   0.470   0.806  10.861
 1162SOL    HW2 4143   0.442   0.663  10.935
 1163SOL     OW 4144   1.587   0.779  10.980
 1163SOL    HW1 4145   1.495   0.817  10.975
 1163SOL    HW2 4146   1.647   0.826  10.915
 1164SOL     OW 4147   0.573   0.870  10.339
 1164SOL    HW1 4148   0.617   0.959  10.330
 1164SOL    HW2 4149   0.510   0.870  10.416
 1165SOL     OW 4150   1.360   0.862  10.355
 1165SOL    HW1 4151   1.285   0.862  10.289
 1165SOL    HW2 4152   1.397   0.770  10.364
 1166SOL     OW 4153   1.209   0.525   9.585
 1166SOL    HW1 4154   1.222   0.441   9.639
 1166SOL    HW2 4155   1.180   0.599   9.645
 1167SOL     OW 4156   0.307   0.213  10.541
 1167SOL    HW1 4157   0.284   0.250  10.631
 1167SOL    HW2 4158   0.277   0.118  10.535
 1168SOL     OW 4159   0.037   1.310  10.592
 1168SOL    HW1 4160   0.090   1.261  10.660
 1168SOL    HW2 4161   0.059   1.408  10.597
 1169SOL     OW 4162   0.732   0.634  10.374
 1169SOL    HW1 4163   0.791   0.608  10.298
 1169SOL    HW2 4164   0.704   0.730  10.363
 1170SOL     OW 4165   0.307   0.063   9.928
 1170SOL    HW1 4166   0.296   0.157   9.961
 1170SOL    HW2 4167   0.302   0.000  10.005
 1171SOL     OW 4168   1.622   0.367   9.684
 1171SOL    HW1 4169   1.624   0.291   9.748
 1171SOL    HW2 4170   1.574   0.444   9.724
 1172SOL     OW 4171   1.023   0.766  10.276
 1172SOL    HW1 4172   1.038   0.787  10.372
 1172SOL    HW2 4173   0.993   0.671  10.267
 1173SOL     OW 4174   0.980   1.573  11.010
 1173SOL    HW1 4175   0.960   1.617  10.922
 1173SOL    HW2 4176   1.019   1.482  10.994
 1174SOL     OW 4177   1.859   1.518  10.915
 1174SOL    HW1 4178   1.873   1.545  10.820
 1174SOL    HW2 4179   1.942   1.540  10.968
 1175SOL     OW 4180   0.350   0.898  11.114
 1175SOL    HW1 4181   0.426   0.942  11.162
 1175SOL    HW2 4182   0.385   0.851  11.032
 1176SOL     OW 4183   1.540   0.274   9.435
 1176SOL    HW1 4184   1.479   0.199   9.458
 1176SOL    HW2 4185   1.562   0.326   9.518
 1177SOL     OW 4186   1.303   0.838   9.352
 1177SOL    HW1 4187   1.337   0.745   9.367
 1177SOL    HW2 4188   1.321   0.865   9.257
 1178SOL     OW 4189   1.068   1.333  10.159
 1178SOL    HW1 4190   1.075   1.249  10.104
 1178SOL    HW2 4191   1.130   1.402  10.123
 1179SOL     OW 4192   0.319   0.810  10.259
 1179SOL    HW1 4193   0.412   0.846  10.264
 1179SOL    HW2 4194   0.313   0.725  10.311
 1180SOL     OW 4195   0.339   0.509  10.316
 1180SOL    HW1 4196   0.287   0.426  10.299
 1180SOL    HW2 4197   0.416   0.514  10.252
 1181SOL     OW 4198   1.160   0.207  10.787
 1181SOL    HW1 4199   1.160   0.271  10.864
 1181SOL    HW2 4200   1.188   0.255  10.704
 1182SOL     OW 4201   0.008   1.326   9.510
 1182SOL    HW1 4202  -0.085   1.347   9.479
 1182SOL    HW2 4203   0.018   1.227   9.523
 1183SOL     OW 4204   0.088   1.801  10.237
 1183SOL    HW1 4205   0.046   1.715  10.210
 1183SOL    HW2 4206   0.182   1.804  10.203
 1184SOL     OW 4207   0.504   1.568  10.220
 1184SOL    HW1 4208   0.570   1.642  10.229
 1184SOL    HW2 4209   0.548   1.489  10.178
 1185SOL     OW 4210   1.002   0.796  10.548
 1185SOL    HW1 4211   1.043   0.764  10.634
 1185SOL    HW2 4212   0.906   0.769  10.545
 1186SOL     OW 4213   0.040   0.544  10.424
 1186SOL    HW1 4214   0.125   0.511  10.383
 1186SOL    HW2 4215   0.053   0.559  10.522
 1187SOL     OW 4216   0.815   0.572   9.635
 1187SOL    HW1 4217   0.822   0.483   9.589
 1187SOL    HW2 4218   0.721   0.606   9.627
 1188SOL     OW 4219   1.657   0.604  10.516
 1188SOL    HW1 4220   1.619   0.535  10.578
 1188SOL    HW2 4221   1.739   0.568  10.472
 1189SOL     OW 4222   0.252   1.564  11.054
 1189SOL    HW1 4223   0.222   1.621  11.130
 1189SOL    HW2 4224   0.245   1.467  11.080
 1190SOL     OW 4225   0.671   0.464  10.579
 1190SOL    HW1 4226   0.637   0.375  10.549
 1190SOL    HW2 4227   0.697   0.518  10.499
 1191SOL     OW 4228   0.930   1.678  10.775
 1191SOL    HW1 4229   0.906   1.660  10.680
 1191SOL    HW2 4230   0.960   1.772  10.785
 1192SOL     OW 4231   0.473   0.500   9.501
 1192SOL    HW1 4232   0.534   0.580   9.505
 1192SOL    HW2 4233   0.378   0.531   9.508
 1193SOL     OW 4234   0.159   1.137  10.776
 1193SOL    HW1 4235   0.181   1.076  10.852
 1193SOL    HW2 4236   0.169   1.088  10.690
 1194SOL     OW 4237   1.347   1.059  10.544
 1194SOL    HW1 4238   1.371   0.996  10.470
 1194SOL    HW2 4239   1.257   1.099  10.526
 1195SOL     OW 4240   1.302   0.855   9.619
 1195SOL    HW1 4241   1.216   0.824   9.661
 1195SOL    HW2 4242   1.298   0.841   9.520
 1196SOL     OW 4243   1.759   1.747  10.464
 1196SOL    HW1 4244   1.820   1.777  10.391
 1196SOL    HW2 4245   1.721   1.658  10.442
 1197SOL     OW 4246   1.252   1.731  10.438
 1197SOL    HW1 4247   1.336   1.736  10.384
 1197SOL    HW2 4248   1.229   1.635  10.456
 1198SOL     OW 4249   0.083   1.258  10.332
 1198SOL    HW1 4250   0.078   1.257  10.432
 1198SOL    HW2 4251   0.000   1.217  10.294
 1199SOL     OW 4252   1.726   0.135   9.833
 1199SOL    HW1 4253   1.799   0.118   9.766
 1199SOL    HW2 4254   1.695   0.048   9.871
 1200SOL     OW 4255   1.388   1.573   9.787
 1200SOL    HW1 4256   1.455   1.585   9.713
 1200SOL    HW2 4257   1.348   1.662   9.810
 1201SOL     OW 4258   1.280   0.927   9.982
 1201SOL    HW1 4259   1.340   0.846   9.984
 1201SOL    HW2 4260   1.320   0.996   9.922
 1202SOL     OW 4261   0.830   1.273  10.732
 1202SOL    HW1 4262   0.825   1.306  10.827
 1202SOL    HW2 4263   0.744   1.292  10.686
 1203SOL     OW 4264   0.672   1.616   9.464
 1203SOL    HW1 4265   0.681   1.626   9.365
 1203SOL    HW2 4266   0.632   1.527   9.485
 1204SOL     OW 4267   1.650   1.720  10.704
 1204SOL    HW1 4268   1.703   1.730  10.620
 1204SOL    HW2 4269   1.623   1.810  10.738
 1205SOL     OW 4270   1.841   0.175  10.273
 1205SOL    HW1 4271   1.880   0.090  10.237
 1205SOL    HW2 4272   1.743   0.177  10.254
 1206SOL     OW 4273   0.263   0.326  10.030
 1206SOL    HW1 4274   0.184   0.377   9.996
 1206SOL    HW2 4275   0.254   0.311  10.128
 1207SOL     OW 4276   1.194   1.612   9.341
 1207SOL    HW1 4277   1.200   1.519   9.378
 1207SOL    HW2 4278   1.135   1.612   9.261
 1208SOL     OW 4279   0.822   1.002  10.682
 1208SOL    HW1 4280   0.862   1.001  10.590
 1208SOL    HW2 4281   0.832   1.094  10.722
 1209SOL     OW 4282   0.916   0.910   9.601
 1209SOL    HW1 4283   0.979   0.948   9.533
 1209SOL    HW2 4284   0.956   0.827   9.640
 1210SOL     OW 4285   1.504   1.607   9.354
 1210SOL    HW1 4286   1.412   1.644   9.361
 1210SOL    HW2 4287   1.542   1.627   9.264
 1211SOL     OW 4288   0.372   1.288  10.800
 1211SOL    HW1 4289   0.359   1.381  10.766
 1211SOL    HW2 4290   0.288   1.236  10.787
 1212SOL     OW 4291   1.614   1.292  10.599
 1212SOL    HW1 4292   1.674   1.295  10.679
 1212SOL    HW2 4293   1.539   1.356  10.612
 1213SOL     OW 4294   1.039   1.098  10.006
 1213SOL    HW1 4295   0.969   1.051  10.060
 1213SOL    HW2 4296   1.098   1.030   9.963
 1214SOL     OW 4297   1.014   0.236  10.281
 1214SOL    HW1 4298   1.006   0.200  10.188
 1214SOL    HW2 4299   1.012   0.160  10.346
 1215SOL     OW 4300   0.590   1.487   9.801
 1215SOL    HW1 4301   0.632   1.429   9.731
 1215SOL    HW2 4302   0.546   1.566   9.757
 1216SOL     OW 4303   1.709   0.385  10.691
 1216SOL    HW1 4304   1.782   0.454  10.695
 1216SOL    HW2 4305   1.737   0.310  10.632
 1217SOL     OW 4306   0.255   1.348   9.600
 1217SOL    HW1 4307   0.159   1.349   9.573
 1217SOL    HW2 4308   0.267   1.401   9.684
 1218SOL     OW 4309   0.105   1.013  11.036
 1218SOL    HW1 4310   0.028   0.980  11.090
 1218SOL    HW2 4311   0.190   0.983  11.078
 1219SOL     OW 4312   0.672   0.203  10.799
 1219SOL    HW1 4313   0.762   0.187  10.759
 1219SOL    HW2 4314   0.680   0.208  10.898
 1220SOL     OW 4315   0.075   0.345   9.343
 1220SOL    HW1 4316  -0.017   0.317   9.314
 1220SOL    HW2 4317   0.106   0.422   9.287
 1221SOL     OW 4318   1.440   0.856  10.708
 1221SOL    HW1 4319   1.383   0.908  10.645
 1221SOL    HW2 4320   1.536   0.868  10.684
 1222SOL     OW 4321   0.072   0.166   9.628
 1222SOL    HW1 4322   0.055   0.249   9.574
 1222SOL    HW2 4323   0.162   0.129   9.606
 1223SOL     OW 4324   1.183   1.335   9.429
 1223SOL    HW1 4325   1.084   1.324   9.431
 1223SOL    HW2 4326   1.217   1.350   9.522
 1224SOL     OW 4327   0.613   0.842  10.741
 1224SOL    HW1 4328   0.669   0.923  10.724
 1224SOL    HW2 4329   0.672   0.762  10.744
 1225SOL     OW 4330   1.493   1.767  10.269
 1225SOL    HW1 4331   1.526   1.831  10.200
 1225SOL    HW2 4332   1.559   1.761  10.344
 1226SOL     OW 4333   0.716   0.565  11.018
 1226SOL    HW1 4334   0.735   0.630  11.092
 1226SOL    HW2 4335   0.776   0.485  11.027
 1227SOL     OW 4336   0.390   1.741  10.870
 1227SOL    HW1 4337   0.299   1.782  10.868
 1227SOL    HW2 4338   0.383   1.647  10.902
 1228SOL     OW 4339   1.674   0.883  10.564
 1228SOL    HW1 4340   1.647   0.794  10.527
 1228SOL    HW2 4341   1.675   0.951  10.491
 1229SOL     OW 4342   1.225   0.325   9.759
 1229SOL    HW1 4343   1.290   0.251   9.748
 1229SOL    HW2 4344   1.245   0.375   9.843
 1230SOL     OW 4345   0.594   0.745   9.962
 1230SOL    HW1 4346   0.644   0.830   9.943
 1230SOL    HW2 4347   0.506   0.747   9.914
 1231SOL     OW 4348   1.777   0.342  10.952
 1231SOL    HW1 4349   1.760   0.373  10.858
 1231SOL    HW2 4350   1.693   0.305  10.990
 1232SOL     OW 4351   1.730   0.934  10.827
 1232SOL    HW1 4352   1.768   1.025  10.842
 1232SOL    HW2 4353   1.722   0.917  10.728
 1233SOL     OW 4354   0.859   1.374   9.326
 1233SOL    HW1 4355   0.813   1.389   9.414
 1233SOL    HW2 4356   0.903   1.459   9.296
 1234SOL     OW 4357   0.661   1.790  10.263
 1234SOL    HW1 4358   0.615   1.878  10.250
 1234SOL    HW2 4359   0.760   1.802  10.256
 1235SOL     OW 4360   0.859   0.956  10.171
 1235SOL    HW1 4361   0.913   0.887  10.219
 1235SOL    HW2 4362   0.827   1.025  10.237
 1236SOL     OW 4363   1.083   0.984   9.397
 1236SOL    HW1 4364   1.060   1.037   9.315
 1236SOL    HW2 4365   1.164   0.928   9.378
 1237SOL     OW 4366   1.861   1.569  10.161
 1237SOL    HW1 4367   1.790   1.557  10.091
 1237SOL    HW2 4368   1.862   1.490  10.221
 1238SOL     OW 4369   0.079   1.240   9.963
 1238SOL    HW1 4370   0.078   1.193  10.051
 1238SOL    HW2 4371   0.161   1.212   9.912
 1239SOL     OW 4372   0.672   1.391  10.934
 1239SOL    HW1 4373   0.594   1.341  10.972
 1239SOL    HW2 4374   0.669   1.486  10.965
 1240SOL     OW 4375   1.824   0.192  10.537
 1240SOL    HW1 4376   1.820   0.102  10.581
 1240SOL    HW2 4377   1.827   0.181  10.438
 1241SOL     OW 4378   0.428   0.424   9.830
 1241SOL    HW1 4379   0.458   0.352   9.768
 1241SOL    HW2 4380   0.389   0.384   9.913
 1242SOL     OW 4381   1.705   1.487  10.414
 1242SOL    HW1 4382   1.612   1.462  10.387
 1242SOL    HW2 4383   1.731   1.437  10.496
 1243SOL     OW 4384   0.317   0.547  10.590
 1243SOL    HW1 4385   0.355   0.488  10.662
 1243SOL    HW2 4386   0.357   0.521  10.502
 1244SOL     OW 4387   0.812   1.586   9.997
 1244SOL    HW1 4388   0.844   1.596   9.903
 1244SOL    HW2 4389   0.733   1.524   9.999
 1245SOL     OW 4390   1.424   0.214  10.422
 1245SOL    HW1 4391   1.476   0.149  10.477
 1245SOL    HW2 4392   1.375   0.277  10.483
 1246SOL     OW 4393   1.001   0.034  10.464
 1246SOL    HW1 4394   0.938  -0.038  10.433
 1246SOL    HW2 4395   1.094  -0.002  10.464
 1247SOL     OW 4396   0.770   1.330   9.611
 1247SOL    HW1 4397   0.724   1.243   9.628
 1247SOL    HW2 4398   0.861   1.327   9.652
 1248SOL     OW 4399   0.618   1.567  10.594
 1248SOL    HW1 4400   0.613   1.649  10.651
 1248SOL    HW2 4401   0.707   1.564  10.549
 1249SOL     OW 4402   1.352   0.052   9.478
 1249SOL    HW1 4403   1.387   0.011   9.394
 1249SOL    HW2 4404   1.262   0.014   9.498
 1250SOL     OW 4405   1.300   0.453  10.001
 1250SOL    HW1 4406   1.241   0.533  10.005
 1250SOL    HW2 4407   1.315   0.418  10.094
 1251SOL     OW 4408   1.593   0.221  10.192
 1251SOL    HW1 4409   1.509   0.220  10.246
 1251SOL    HW2 4410   1.595   0.304  10.136
 1252SOL     OW 4411   0.039   1.077   9.610
 1252SOL    HW1 4412   0.138   1.066   9.601
 1252SOL    HW2 4413  -0.001   0.991   9.642
 1253SOL     OW 4414   0.875   1.646   9.647
 1253SOL    HW1 4415   0.798   1.611   9.593
 1253SOL    HW2 4416   0.843   1.717   9.709
 1254SOL     OW 4417   0.230   2.490   0.113
 1254SOL    HW1 4418   0.137   2.488   0.150
 1254SOL    HW2 4419   0.231   2.451   0.021
 1255SOL     OW 4420   0.225   2.137   0.996
 1255SOL    HW1 4421   0.260   2.120   1.088
 1255SOL    HW2 4422   0.137   2.092   0.984
 1256SOL     OW 4423   0.019   2.230   0.647
 1256SOL    HW1 4424  -0.063   2.273   0.686
 1256SOL    HW2 4425  -0.009   2.157   0.584
 1257SOL     OW 4426   0.569   3.137   1.165
 1257SOL    HW1 4427   0.476   3.130   1.128
 1257SOL    HW2 4428   0.580   3.226   1.209
 1258SOL     OW 4429   1.555   3.373   0.703
 1258SOL    HW1 4430   1.498   3.357   0.784
 1258SOL    HW2 4431   1.496   3.383   0.623
 1259SOL     OW 4432   1.135   2.565   0.717
 1259SOL    HW1 4433   1.192   2.643   0.692
 1259SOL    HW2 4434   1.075   2.591   0.793
 1260SOL     OW 4435   1.755   2.469   0.231
 1260SOL    HW1 4436   1.743   2.456   0.132
 1260SOL    HW2 4437   1.725   2.388   0.280
 1261SOL     OW 4438   0.768   3.006   1.023
 1261SOL    HW1 4439   0.690   3.023   1.083
 1261SOL    HW2 4440   0.802   3.093   0.987
 1262SOL     OW 4441   0.850   2.660   1.823
 1262SOL    HW1 4442   0.846   2.736   1.888
 1262SOL    HW2 4443   0.872   2.696   1.732
 1263SOL     OW 4444   0.685   2.874   0.665
 1263SOL    HW1 4445   0.754   2.858   0.735
 1263SOL    HW2 4446   0.612   2.931   0.703
 1264SOL     OW 4447   0.686   3.023   1.803
 1264SOL    HW1 4448   0.746   3.102   1.817
 1264SOL    HW2 4449   0.600   3.054   1.762
 1265SOL     OW 4450   0.335   3.297   1.061
 1265SOL    HW1 4451   0.257   3.266   1.008
 1265SOL    HW2 4452   0.393   3.355   1.004
 1266SOL     OW 4453   1.460   3.367   1.339
 1266SOL    HW1 4454   1.484   3.461   1.365
 1266SOL    HW2 4455   1.444   3.313   1.421
 1267SOL     OW 4456   0.438   2.254   1.499
 1267SOL    HW1 4457   0.520   2.198   1.508
 1267SOL    HW2 4458   0.357   2.196   1.503
 1268SOL     OW 4459   1.603   2.309   0.737
 1268SOL    HW1 4460   1.529   2.355   0.687
 1268SOL    HW2 4461   1.654   2.377   0.790
 1269SOL     OW 4462   0.231   3.575   0.483
 1269SOL    HW1 4463   0.265   3.652   0.537
 1269SOL    HW2 4464   0.275   3.575   0.393
 1270SOL     OW 4465   1.127   3.203   1.690
 1270SOL    HW1 4466   1.174   3.203   1.778
 1270SOL    HW2 4467   1.079   3.116   1.679
 1271SOL     OW 4468   0.230   3.296   0.538
 1271SOL    HW1 4469   0.204   3.392   0.538
 1271SOL    HW2 4470   0.159   3.242   0.583
 1272SOL     OW 4471   0.240   2.953   0.886
 1272SOL    HW1 4472   0.254   2.869   0.938
 1272SOL    HW2 4473   0.185   3.017   0.941
 1273SOL     OW 4474   0.620   3.648   1.439
 1273SOL    HW1 4475   0.528   3.631   1.474
 1273SOL    HW2 4476   0.648   3.740   1.465
 1274SOL     OW 4477   0.606   2.826   0.123
 1274SOL    HW1 4478   0.613   2.910   0.069
 1274SOL    HW2 4479   0.652   2.839   0.211
 1275SOL     OW 4480   1.594   1.976   1.480
 1275SOL    HW1 4481   1.576   2.043   1.408
 1275SOL    HW2 4482   1.591   2.022   1.569
 1276SOL     OW 4483   0.122   2.505   0.563
 1276SOL    HW1 4484   0.077   2.417   0.580
 1276SOL    HW2 4485   0.121   2.559   0.647
 1277SOL     OW 4486   1.842   3.629   0.359
 1277SOL    HW1 4487   1.896   3.600   0.439
 1277SOL    HW2 4488   1.872   3.719   0.330
 1278SOL     OW 4489   0.027   3.458   0.117
 1278SOL    HW1 4490   0.008   3.362   0.138
 1278SOL    HW2 4491  -0.006   3.516   0.192
 1279SOL     OW 4492   1.689   2.784   0.612
 1279SOL    HW1 4493   1.784   2.755   0.620
 1279SOL    HW2 4494   1.681   2.849   0.537
 1280SOL     OW 4495   1.641   2.970   0.432
 1280SOL    HW1 4496   1.727   2.972   0.380
 1280SOL    HW2 4497   1.655   3.017   0.520
 1281SOL     OW 4498   0.113   2.599   1.597
 1281SOL    HW1 4499   0.201   2.586   1.642
 1281SOL    HW2 4500   0.100   2.696   1.575
 1282SOL     OW 4501   0.613   3.227   0.726
 1282SOL    HW1 4502   0.564   3.140   0.735
 1282SOL    HW2 4503   0.590   3.270   0.639
 1283SOL     OW 4504   1.293   3.090   1.423
 1283SOL    HW1 4505   1.330   3.017   1.365
 1283SOL    HW2 4506   1.345   3.095   1.508
 1284SOL     OW 4507   0.809   1.866   0.502
 1284SOL    HW1 4508   0.849   1.957   0.493
 1284SOL    HW2 4509   0.709   1.874   0.508
 1285SOL     OW 4510   0.197   2.838   1.264
 1285SOL    HW1 4511   0.286   2.793   1.250
 1285SOL    HW2 4512   0.124   2.773   1.245
 1286SOL     OW 4513   1.525   2.861   0.190
 1286SOL    HW1 4514   1.462   2.785   0.203
 1286SOL    HW2 4515   1.573   2.879   0.276
 1287SOL     OW 4516   1.187   3.654   1.616
 1287SOL    HW1 4517   1.211   3.714   1.540
 1287SOL    HW2 4518   1.194   3.559   1.586
 1288SOL     OW 4519   0.317   2.113   1.801
 1288SOL    HW1 4520   0.388   2.184   1.807
 1288SOL    HW2 4521   0.229   2.152   1.829
 1289SOL     OW 4522   1.466   3.279   0.953
 1289SOL    HW1 4523   1.407   3.285   1.033
 1289SOL    HW2 4524   1.451   3.191   0.907
 1290SOL     OW 4525   1.667   3.576   0.572
 1290SOL    HW1 4526   1.626   3.553   0.484
 1290SOL    HW2 4527   1.649   3.502   0.637
 1291SOL     OW 4528   0.598   2.591   0.270
 1291SOL    HW1 4529   0.622   2.660   0.202
 1291SOL    HW2 4530   0.520   2.624   0.324
 1292SOL     OW 4531   1.281   2.207   0.944
 1292SOL    HW1 4532   1.195   2.157   0.931
 1292SOL    HW2 4533   1.343   2.153   1.000
 1293SOL     OW 4534   1.576   3.524   0.307
 1293SOL    HW1 4535   1.665   3.570   0.310
 1293SOL    HW2 4536   1.555   3.500   0.212
 1294SOL     OW 4537   0.807   2.467   1.465
 1294SOL    HW1 4538   0.760   2.464   1.554
 1294SOL    HW2 4539   0.756   2.412   1.399
 1295SOL     OW 4540   1.394   2.331   1.674
 1295SOL    HW1 4541   1.374   2.374   1.762
 1295SOL    HW2 4542   1.472   2.269   1.683
 1296SOL     OW 4543   0.973   2.752   1.572
 1296SOL    HW1 4544   1.019   2.668   1.543
 1296SOL    HW2 4545   0.917   2.786   1.497
 1297SOL     OW 4546   0.991   2.272   1.242
 1297SOL    HW1 4547   0.914   2.306   1.296
 1297SOL    HW2 4548   0.957   2.221   1.163
 1298SOL     OW 4549   1.041   2.563   0.429
 1298SOL    HW1 4550   1.067   2.559   0.525
 1298SOL    HW2 4551   0.956   2.512   0.415
 1299SOL     OW 4552   0.076   2.673   0.789
 1299SOL    HW1 4553   0.175   2.661   0.798
 1299SOL    HW2 4554   0.052   2.768   0.810
 1300SOL     OW 4555   0.130   3.683   1.571
 1300SOL    HW1 4556   0.120   3.668   1.670
 1300SOL    HW2 4557   0.044   3.719   1.535
 1301SOL     OW 4558   0.865   2.210   0.195
 1301SOL    HW1 4559   0.924   2.273   0.146
 1301SOL    HW2 4560   0.884   2.116   0.166
 1302SOL     OW 4561   1.719   2.447   1.831
 1302SOL    HW1 4562   1.693   2.536   1.795
 1302SOL    HW2 4563   1.717   2.379   1.758
 1303SOL     OW 4564   1.362   3.006   0.545
 1303SOL    HW1 4565   1.445   2.977   0.497
 1303SOL    HW2 4566   1.313   3.073   0.489
 1304SOL     OW 4567   0.550   2.058   0.885
 1304SOL    HW1 4568   0.545   2.053   0.985
 1304SOL    HW2 4569   0.552   2.154   0.856
 1305SOL     OW 4570   1.008   3.318   0.477
 1305SOL    HW1 4571   0.962   3.390   0.425
 1305SOL    HW2 4572   1.004   3.338   0.575
 1306SOL     OW 4573   0.351   3.663   0.853
 1306SOL    HW1 4574   0.401   3.577   0.859
 1306SOL    HW2 4575   0.416   3.740   0.850
 1307SOL     OW 4576   1.795   2.928   0.873
 1307SOL    HW1 4577   1.733   2.913   0.797
 1307SOL    HW2 4578   1.743   2.939   0.958
 1308SOL     OW 4579   1.227   3.412   1.506
 1308SOL    HW1 4580   1.233   3.335   1.570
 1308SOL    HW2 4581   1.175   3.386   1.426
 1309SOL     OW 4582   0.321   2.805   0.242
 1309SOL    HW1 4583   0.403   2.844   0.200
 1309SOL    HW2 4584   0.294   2.723   0.193
 1310SOL     OW 4585   1.458   2.597   0.728
 1310SOL    HW1 4586   1.453   2.532   0.803
 1310SOL    HW2 4587   1.538   2.656   0.741
 1311SOL     OW 4588   0.461   3.128   1.727
 1311SOL    HW1 4589   0.411   3.129   1.641
 1311SOL    HW2 4590   0.398   3.110   1.803
 1312SOL     OW 4591   1.111   3.638   0.237
 1312SOL    HW1 4592   1.051   3.576   0.287
 1312SOL    HW2 4593   1.142   3.594   0.152
 1313SOL     OW 4594   0.202   2.147   1.498
 1313SOL    HW1 4595   0.122   2.207   1.485
 1313SOL    HW2 4596   0.192   2.098   1.584
 1314SOL     OW 4597   1.632   3.239   0.081
 1314SOL    HW1 4598   1.600   3.333   0.071
 1314SOL    HW2 4599   1.556   3.176   0.069
 1315SOL     OW 4600   0.464   3.605   0.323
 1315SOL    HW1 4601   0.497   3.644   0.409
 1315SOL    HW2 4602   0.540   3.598   0.258
 1316SOL     OW 4603   1.400   1.969   0.426
 1316SOL    HW1 4604   1.376   1.932   0.336
 1316SOL    HW2 4605   1.499   1.985   0.430
 1317SOL     OW 4606   0.249   3.647   1.241
 1317SOL    HW1 4607   0.306   3.582   1.291
 1317SOL    HW2 4608   0.233   3.614   1.148
 1318SOL     OW 4609   0.940   3.560   0.904
 1318SOL    HW1 4610   1.020   3.503   0.925
 1318SOL    HW2 4611   0.891   3.520   0.827
 1319SOL     OW 4612   0.382   2.562   0.480
 1319SOL    HW1 4613   0.427   2.472   0.477
 1319SOL    HW2 4614   0.288   2.551   0.513
 1320SOL     OW 4615   1.547   2.084   1.729
 1320SOL    HW1 4616   1.542   2.121   1.821
 1320SOL    HW2 4617   1.475   2.015   1.717
 1321SOL     OW 4618   0.614   1.984   0.117
 1321SOL    HW1 4619   0.712   1.962   0.124
 1321SOL    HW2 4620   0.583   1.967   0.024
 1322SOL     OW 4621   0.781   2.126   1.749
 1322SOL    HW1 4622   0.848   2.065   1.792
 1322SOL    HW2 4623   0.708   2.145   1.814
 1323SOL     OW 4624   0.888   3.376   1.195
 1323SOL    HW1 4625   0.865   3.351   1.101
 1323SOL    HW2 4626   0.949   3.307   1.234
 1324SOL     OW 4627   1.351   2.452   1.433
 1324SOL    HW1 4628   1.379   2.409   1.518
 1324SOL    HW2 4629   1.376   2.548   1.434
 1325SOL     OW 4630   0.803   3.264   0.924
 1325SOL    HW1 4631   0.893   3.278   0.882
 1325SOL    HW2 4632   0.732   3.266   0.853
 1326SOL     OW 4633   0.922   2.365   0.899
 1326SOL    HW1 4634   0.897   2.356   0.803
 1326SOL    HW2 4635   0.970   2.283   0.930
 1327SOL     OW 4636   0.539   1.926   0.512
 1327SOL    HW1 4637   0.458   1.927   0.570
 1327SOL    HW2 4638   0.542   2.009   0.457
 1328SOL     OW 4639   1.434   3.050   0.041
 1328SOL    HW1 4640   1.466   2.974   0.098
 1328SOL    HW2 4641   1.342   3.077   0.071
 1329SOL     OW 4642   0.297   1.897   0.171
 1329SOL    HW1 4643   0.346   1.981   0.150
 1329SOL    HW2 4644   0.359   1.832   0.216
 1330SOL     OW 4645   0.935   2.098   0.480
 1330SOL    HW1 4646   0.887   2.139   0.402
 1330SOL    HW2 4647   1.034   2.096   0.461
 1331SOL     OW 4648   1.076   2.545   1.464
 1331SOL    HW1 4649   0.996   2.484   1.467
 1331SOL    HW2 4650   1.157   2.492   1.440
 1332SOL     OW 4651   1.227   3.432   0.793
 1332SOL    HW1 4652   1.248   3.506   0.728
 1332SOL    HW2 4653   1.295   3.432   0.866
 1333SOL     OW 4654   0.459   3.014   0.741
 1333SOL    HW1 4655   0.388   2.987   0.806
 1333SOL    HW2 4656   0.433   2.986   0.648
 1334SOL     OW 4657   1.271   3.659   0.591
 1334SOL    HW1 4658   1.315   3.723   0.527
 1334SOL    HW2 4659   1.221   3.711   0.661
 1335SOL     OW 4660   1.032   2.411   0.016
 1335SOL    HW1 4661   0.991   2.493  -0.023
 1335SOL    HW2 4662   1.096   2.437   0.089
 1336SOL     OW 4663   0.078   2.418   1.386
 1336SOL    HW1 4664   0.170   2.417   1.345
 1336SOL    HW2 4665   0.072   2.492   1.453
 1337SOL     OW 4666   0.561   2.084   1.147
 1337SOL    HW1 4667   0.599   2.000   1.184
 1337SOL    HW2 4668   0.473   2.103   1.191
 1338SOL     OW 4669   0.866   2.316   0.642
 1338SOL    HW1 4670   0.834   2.388   0.580
 1338SOL    HW2 4671   0.890   2.235   0.589
 1339SOL     OW 4672   1.017   1.901   0.753
 1339SOL    HW1 4673   0.945   1.906   0.684
 1339SOL    HW2 4674   0.993   1.832   0.822
 1340SOL     OW 4675   1.429   3.035   0.867
 1340SOL    HW1 4676   1.374   2.951   0.860
 1340SOL    HW2 4677   1.455   3.064   0.775
 1341SOL     OW 4678   1.466   2.452   0.992
 1341SOL    HW1 4679   1.436   2.357   0.999
 1341SOL    HW2 4680   1.539   2.468   1.058
 1342SOL     OW 4681   1.857   2.695   0.377
 1342SOL    HW1 4682   1.899   2.631   0.441
 1342SOL    HW2 4683   1.819   2.644   0.299
 1343SOL     OW 4684   0.488   3.247   0.174
 1343SOL    HW1 4685   0.401   3.232   0.221
 1343SOL    HW2 4686   0.471   3.273   0.079
 1344SOL     OW 4687   1.664   3.142   0.657
 1344SOL    HW1 4688   1.763   3.150   0.671
 1344SOL    HW2 4689   1.619   3.226   0.688
 1345SOL     OW 4690   1.390   2.437   0.078
 1345SOL    HW1 4691   1.336   2.416   0.159
 1345SOL    HW2 4692   1.481   2.396   0.087
 1346SOL     OW 4693   0.527   2.118   0.328
 1346SOL    HW1 4694   0.554   2.059   0.253
 1346SOL    HW2 4695   0.527   2.213   0.297
 1347SOL     OW 4696   1.754   3.085   1.588
 1347SOL    HW1 4697   1.845   3.046   1.575
 1347SOL    HW2 4698   1.762   3.181   1.612
 1348SOL     OW 4699   1.064   3.209   1.340
 1348SOL    HW1 4700   0.984   3.186   1.395
 1348SOL    HW2 4701   1.147   3.183   1.389
 1349SOL     OW 4702   1.592   3.491   1.625
 1349SOL    HW1 4703   1.619   3.525   1.535
 1349SOL    HW2 4704   1.671   3.453   1.671
 1350SOL     OW 4705   1.111   3.057   1.100
 1350SOL    HW1 4706   1.071   3.101   1.181
 1350SOL    HW2 4707   1.070   3.094   1.017
 1351SOL     OW 4708   1.638   2.961   1.079
 1351SOL    HW1 4709   1.643   3.042   1.138
 1351SOL    HW2 4710   1.552   2.963   1.028
 1352SOL     OW 4711   0.915   1.951   1.402
 1352SOL    HW1 4712   0.940   1.931   1.307
 1352SOL    HW2 4713   0.987   2.007   1.444
 1353SOL     OW 4714   0.980   2.978   1.719
 1353SOL    HW1 4715   0.881   2.984   1.729
 1353SOL    HW2 4716   1.003   2.898   1.663
 1354SOL     OW 4717   0.705   2.912   0.368
 1354SOL    HW1 4718   0.691   2.919   0.467
 1354SOL    HW2 4719   0.789   2.861   0.350
 1355SOL     OW 4720   0.410   2.675   1.251
 1355SOL    HW1 4721   0.496   2.687   1.301
 1355SOL    HW2 4722   0.368   2.588   1.278
 1356SOL     OW 4723   1.274   2.248   1.262
 1356SOL    HW1 4724   1.295   2.322   1.326
 1356SOL    HW2 4725   1.185   2.265   1.219
 1357SOL     OW 4726   0.064   3.426   1.331
 1357SOL    HW1 4727   0.018   3.508   1.297
 1357SOL    HW2 4728   0.162   3.445   1.340
 1358SOL     OW 4729   0.367   2.962   0.501
 1358SOL    HW1 4730   0.360   3.045   0.445
 1358SOL    HW2 4731   0.371   2.882   0.441
 1359SOL     OW 4732   0.566   2.399   0.865
 1359SOL    HW1 4733   0.578   2.465   0.791
 1359SOL    HW2 4734   0.612   2.433   0.948
 1360SOL     OW 4735   1.252   3.210   0.388
 1360SOL    HW1 4736   1.302   3.287   0.428
 1360SOL    HW2 4737   1.157   3.212   0.420
 1361SOL     OW 4738   1.272   3.307   1.142
 1361SOL    HW1 4739   1.319   3.320   1.229
 1361SOL    HW2 4740   1.206   3.233   1.151
 1362SOL     OW 4741   1.582   2.501   0.472
 1362SOL    HW1 4742   1.551   2.562   0.545
 1362SOL    HW2 4743   1.632   2.553   0.403
 1363SOL     OW 4744   0.354   3.372   1.329
 1363SOL    HW1 4745   0.333   3.328   1.242
 1363SOL    HW2 4746   0.451   3.398   1.332
 1364SOL     OW 4747   0.402   2.613   1.598
 1364SOL    HW1 4748   0.470   2.668   1.551
 1364SOL    HW2 4749   0.442   2.525   1.625
 1365SOL     OW 4750   1.587   2.641   1.670
 1365SOL    HW1 4751   1.495   2.679   1.665
 1365SOL    HW2 4752   1.647   2.688   1.605
 1366SOL     OW 4753   1.013   1.967   1.770
 1366SOL    HW1 4754   1.019   2.052   1.718
 1366SOL    HW2 4755   1.045   1.891   1.713
 1367SOL     OW 4756   0.504   1.912   1.740
 1367SOL    HW1 4757   0.462   1.855   1.670
 1367SOL    HW2 4758   0.438   1.981   1.772
 1368SOL     OW 4759   0.573   2.732   1.029
 1368SOL    HW1 4760   0.617   2.821   1.020
 1368SOL    HW2 4761   0.510   2.732   1.106
 1369SOL     OW 4762   1.360   2.724   1.045
 1369SOL    HW1 4763   1.285   2.724   0.979
 1369SOL    HW2 4764   1.397   2.632   1.054
 1370SOL     OW 4765   1.209   2.387   0.275
 1370SOL    HW1 4766   1.222   2.303   0.329
 1370SOL    HW2 4767   1.180   2.461   0.335
 1371SOL     OW 4768   0.307   2.075   1.231
 1371SOL    HW1 4769   0.284   2.112   1.321
 1371SOL    HW2 4770   0.277   1.980   1.225
 1372SOL     OW 4771   0.037   3.172   1.282
 1372SOL    HW1 4772   0.090   3.123   1.350
 1372SOL    HW2 4773   0.059   3.270   1.287
 1373SOL     OW 4774   0.732   2.496   1.064
 1373SOL    HW1 4775   0.791   2.470   0.988
 1373SOL    HW2 4776   0.704   2.592   1.053
 1374SOL     OW 4777   1.728   2.797   1.854
 1374SOL    HW1 4778   1.682   2.790   1.765
 1374SOL    HW2 4779   1.666   2.841   1.920
 1375SOL     OW 4780   0.307   1.925   0.618
 1375SOL    HW1 4781   0.296   2.019   0.651
 1375SOL    HW2 4782   0.302   1.862   0.695
 1376SOL     OW 4783   1.622   2.229   0.374
 1376SOL    HW1 4784   1.624   2.153   0.438
 1376SOL    HW2 4785   1.574   2.306   0.414
 1377SOL     OW 4786   1.023   2.628   0.966
 1377SOL    HW1 4787   1.038   2.649   1.062
 1377SOL    HW2 4788   0.993   2.533   0.957
 1378SOL     OW 4789   0.980   3.435   1.700
 1378SOL    HW1 4790   0.960   3.479   1.612
 1378SOL    HW2 4791   1.019   3.344   1.684
 1379SOL     OW 4792   1.859   3.380   1.605
 1379SOL    HW1 4793   1.873   3.407   1.510
 1379SOL    HW2 4794   1.942   3.402   1.658
 1380SOL     OW 4795   0.350   2.760   1.804
 1380SOL    HW1 4796   0.426   2.804   1.852
 1380SOL    HW2 4797   0.385   2.713   1.722
 1381SOL     OW 4798   1.540   2.136   0.125
 1381SOL    HW1 4799   1.479   2.061   0.148
 1381SOL    HW2 4800   1.562   2.188   0.208
 1382SOL     OW 4801   1.303   2.700   0.042
 1382SOL    HW1 4802   1.337   2.607   0.057
 1382SOL    HW2 4803   1.321   2.727  -0.053
 1383SOL     OW 4804   1.068   3.195   0.849
 1383SOL    HW1 4805   1.075   3.111   0.794
 1383SOL    HW2 4806   1.130   3.264   0.813
 1384SOL     OW 4807   0.319   2.672   0.949
 1384SOL    HW1 4808   0.412   2.708   0.954
 1384SOL    HW2 4809   0.313   2.587   1.001
 1385SOL     OW 4810   0.339   2.371   1.006
 1385SOL    HW1 4811   0.287   2.288   0.989
 1385SOL    HW2 4812   0.416   2.376   0.942
 1386SOL     OW 4813   1.138   2.242   1.678
 1386SOL    HW1 4814   1.093   2.305   1.742
 1386SOL    HW2 4815   1.231   2.273   1.661
 1387SOL     OW 4816   1.160   2.069   1.477
 1387SOL    HW1 4817   1.160   2.133   1.554
 1387SOL    HW2 4818   1.188   2.117   1.394
 1388SOL     OW 4819   0.008   3.188   0.200
 1388SOL    HW1 4820  -0.085   3.209   0.169
 1388SOL    HW2 4821   0.018   3.089   0.213
 1389SOL     OW 4822   0.088   3.663   0.927
 1389SOL    HW1 4823   0.046   3.577   0.900
 1389SOL    HW2 4824   0.182   3.666   0.893
 1390SOL     OW 4825   0.504   3.430   0.910
 1390SOL    HW1 4826   0.570   3.504   0.919
 1390SOL    HW2 4827   0.548   3.351   0.868
 1391SOL     OW 4828   1.002   2.658   1.238
 1391SOL    HW1 4829   1.043   2.626   1.324
 1391SOL    HW2 4830   0.906   2.631   1.235
 1392SOL     OW 4831   0.040   2.406   1.114
 1392SOL    HW1 4832   0.125   2.373   1.073
 1392SOL    HW2 4833   0.053   2.421   1.212
 1393SOL     OW 4834   0.189   2.382   1.722
 1393SOL    HW1 4835   0.248   2.342   1.652
 1393SOL    HW2 4836   0.131   2.453   1.681
 1394SOL     OW 4837   1.369   2.812   1.660
 1394SOL    HW1 4838   1.408   2.901   1.680
 1394SOL    HW2 4839   1.379   2.792   1.563
 1395SOL     OW 4840   0.815   2.434   0.325
 1395SOL    HW1 4841   0.822   2.345   0.279
 1395SOL    HW2 4842   0.721   2.468   0.317
 1396SOL     OW 4843   1.657   2.466   1.206
 1396SOL    HW1 4844   1.619   2.397   1.268
 1396SOL    HW2 4845   1.739   2.430   1.162
 1397SOL     OW 4846   0.252   3.426   1.744
 1397SOL    HW1 4847   0.222   3.483   1.820
 1397SOL    HW2 4848   0.245   3.329   1.770
 1398SOL     OW 4849   0.671   2.326   1.269
 1398SOL    HW1 4850   0.637   2.237   1.239
 1398SOL    HW2 4851   0.697   2.380   1.189
 1399SOL     OW 4852   0.930   3.540   1.465
 1399SOL    HW1 4853   0.906   3.522   1.370
 1399SOL    HW2 4854   0.960   3.634   1.475
 1400SOL     OW 4855   0.473   2.362   0.191
 1400SOL    HW1 4856   0.534   2.442   0.195
 1400SOL    HW2 4857   0.378   2.393   0.198
 1401SOL     OW 4858   0.159   2.999   1.466
 1401SOL    HW1 4859   0.181   2.938   1.542
 1401SOL    HW2 4860   0.169   2.950   1.380
 1402SOL     OW 4861   1.347   2.921   1.234
 1402SOL    HW1 4862   1.371   2.858   1.160
 1402SOL    HW2 4863   1.257   2.961   1.216
 1403SOL     OW 4864   1.302   2.717   0.309
 1403SOL    HW1 4865   1.216   2.686   0.351
 1403SOL    HW2 4866   1.298   2.703   0.210
 1404SOL     OW 4867   1.759   3.609   1.154
 1404SOL    HW1 4868   1.820   3.639   1.081
 1404SOL    HW2 4869   1.721   3.520   1.132
 1405SOL     OW 4870   1.252   3.593   1.128
 1405SOL    HW1 4871   1.336   3.598   1.074
 1405SOL    HW2 4872   1.229   3.497   1.146
 1406SOL     OW 4873   0.083   3.120   1.022
 1406SOL    HW1 4874   0.078   3.119   1.122
 1406SOL    HW2 4875   0.000   3.079   0.984
 1407SOL     OW 4876   0.688   3.524   1.716
 1407SOL    HW1 4877   0.632   3.605   1.725
 1407SOL    HW2 4878   0.740   3.528   1.630
 1408SOL     OW 4879   0.903   1.948   0.133
 1408SOL    HW1 4880   0.954   1.949   0.047
 1408SOL    HW2 4881   0.959   1.906   0.204
 1409SOL     OW 4882   1.726   1.997   0.523
 1409SOL    HW1 4883   1.799   1.980   0.456
 1409SOL    HW2 4884   1.695   1.910   0.561
 1410SOL     OW 4885   1.388   3.435   0.477
 1410SOL    HW1 4886   1.455   3.447   0.403
 1410SOL    HW2 4887   1.348   3.524   0.500
 1411SOL     OW 4888   0.130   3.656   1.851
 1411SOL    HW1 4889   0.089   3.582   1.904
 1411SOL    HW2 4890   0.194   3.707   1.909
 1412SOL     OW 4891   1.280   2.789   0.672
 1412SOL    HW1 4892   1.340   2.708   0.674
 1412SOL    HW2 4893   1.320   2.858   0.612
 1413SOL     OW 4894   0.830   3.135   1.422
 1413SOL    HW1 4895   0.825   3.168   1.517
 1413SOL    HW2 4896   0.744   3.154   1.376
 1414SOL     OW 4897   0.672   3.478   0.154
 1414SOL    HW1 4898   0.681   3.488   0.055
 1414SOL    HW2 4899   0.632   3.389   0.175
 1415SOL     OW 4900   1.650   3.582   1.394
 1415SOL    HW1 4901   1.703   3.592   1.310
 1415SOL    HW2 4902   1.623   3.672   1.428
 1416SOL     OW 4903   1.841   2.037   0.963
 1416SOL    HW1 4904   1.880   1.952   0.927
 1416SOL    HW2 4905   1.743   2.039   0.944
 1417SOL     OW 4906   0.263   2.188   0.720
 1417SOL    HW1 4907   0.184   2.239   0.686
 1417SOL    HW2 4908   0.254   2.173   0.818
 1418SOL     OW 4909   1.194   3.474   0.031
 1418SOL    HW1 4910   1.200   3.381   0.068
 1418SOL    HW2 4911   1.135   3.474  -0.049
 1419SOL     OW 4912   0.822   2.864   1.372
 1419SOL    HW1 4913   0.862   2.863   1.280
 1419SOL    HW2 4914   0.832   2.956   1.412
 1420SOL     OW 4915   0.916   2.772   0.291
 1420SOL    HW1 4916   0.979   2.810   0.223
 1420SOL    HW2 4917   0.956   2.689   0.330
 1421SOL     OW 4918   1.504   3.469   0.044
 1421SOL    HW1 4919   1.412   3.506   0.051
 1421SOL    HW2 4920   1.542   3.489  -0.046
 1422SOL     OW 4921   0.372   3.150   1.490
 1422SOL    HW1 4922   0.359   3.243   1.456
 1422SOL    HW2 4923   0.288   3.098   1.477
 1423SOL     OW 4924   1.614   3.154   1.289
 1423SOL    HW1 4925   1.674   3.157   1.369
 1423SOL    HW2 4926   1.539   3.218   1.302
 1424SOL     OW 4927   1.039   2.960   0.696
 1424SOL    HW1 4928   0.969   2.913   0.750
 1424SOL    HW2 4929   1.098   2.892   0.653
 1425SOL     OW 4930   1.014   2.098   0.971
 1425SOL    HW1 4931   1.006   2.062   0.878
 1425SOL    HW2 4932   1.012   2.022   1.036
 1426SOL     OW 4933   0.590   3.349   0.491
 1426SOL    HW1 4934   0.632   3.291   0.421
 1426SOL    HW2 4935   0.546   3.428   0.447
 1427SOL     OW 4936   1.709   2.247   1.381
 1427SOL    HW1 4937   1.782   2.316   1.385
 1427SOL    HW2 4938   1.737   2.172   1.322
 1428SOL     OW 4939   0.255   3.210   0.290
 1428SOL    HW1 4940   0.159   3.211   0.263
 1428SOL    HW2 4941   0.267   3.263   0.374
 1429SOL     OW 4942   0.105   2.875   1.726
 1429SOL    HW1 4943   0.028   2.842   1.780
 1429SOL    HW2 4944   0.190   2.845   1.768
 1430SOL     OW 4945   0.672   2.065   1.489
 1430SOL    HW1 4946   0.762   2.049   1.449
 1430SOL    HW2 4947   0.680   2.070   1.588
 1431SOL     OW 4948   0.075   2.207   0.033
 1431SOL    HW1 4949  -0.017   2.179   0.004
 1431SOL    HW2 4950   0.106   2.284  -0.023
 1432SOL     OW 4951   1.440   2.718   1.398
 1432SOL    HW1 4952   1.383   2.770   1.335
 1432SOL    HW2 4953   1.536   2.730   1.374
 1433SOL     OW 4954   0.072   2.028   0.318
 1433SOL    HW1 4955   0.055   2.111   0.264
 1433SOL    HW2 4956   0.162   1.991   0.296
 1434SOL     OW 4957   1.183   3.197   0.119
 1434SOL    HW1 4958   1.084   3.186   0.121
 1434SOL    HW2 4959   1.217   3.212   0.212
 1435SOL     OW 4960   0.613   2.704   1.431
 1435SOL    HW1 4961   0.669   2.785   1.414
 1435SOL    HW2 4962   0.672   2.624   1.434
 1436SOL     OW 4963   1.493   3.629   0.959
 1436SOL    HW1 4964   1.526   3.693   0.890
 1436SOL    HW2 4965   1.559   3.623   1.034
 1437SOL     OW 4966   0.716   2.427   1.708
 1437SOL    HW1 4967   0.735   2.492   1.782
 1437SOL    HW2 4968   0.776   2.347   1.717
 1438SOL     OW 4969   1.450   3.082   1.633
 1438SOL    HW1 4970   1.441   3.072   1.732
 1438SOL    HW2 4971   1.546   3.075   1.607
 1439SOL     OW 4972   0.390   3.603   1.560
 1439SOL    HW1 4973   0.299   3.644   1.558
 1439SOL    HW2 4974   0.383   3.509   1.592
 1440SOL     OW 4975   1.674   2.745   1.254
 1440SOL    HW1 4976   1.647   2.656   1.217
 1440SOL    HW2 4977   1.675   2.813   1.181
 1441SOL     OW 4978   1.225   2.187   0.449
 1441SOL    HW1 4979   1.290   2.113   0.438
 1441SOL    HW2 4980   1.245   2.237   0.533
 1442SOL     OW 4981   0.594   2.607   0.652
 1442SOL    HW1 4982   0.644   2.692   0.633
 1442SOL    HW2 4983   0.506   2.609   0.604
 1443SOL     OW 4984   1.777   2.204   1.642
 1443SOL    HW1 4985   1.760   2.235   1.548
 1443SOL    HW2 4986   1.693   2.167   1.680
 1444SOL     OW 4987   1.730   2.796   1.517
 1444SOL    HW1 4988   1.768   2.887   1.532
 1444SOL    HW2 4989   1.722   2.779   1.418
 1445SOL     OW 4990   0.859   3.236   0.016
 1445SOL    HW1 4991   0.813   3.251   0.104
 1445SOL    HW2 4992   0.903   3.321  -0.014
 1446SOL     OW 4993   0.661   3.652   0.953
 1446SOL    HW1 4994   0.615   3.740   0.940
 1446SOL    HW2 4995   0.760   3.664   0.946
 1447SOL     OW 4996   0.859   2.818   0.861
 1447SOL    HW1 4997   0.913   2.749   0.909
 1447SOL    HW2 4998   0.827   2.887   0.927
 1448SOL     OW 4999   1.083   2.846   0.087
 1448SOL    HW1 5000   1.060   2.899   0.005
 1448SOL    HW2 5001   1.164   2.790   0.068
 1449SOL     OW 5002   1.861   3.431   0.851
 1449SOL    HW1 5003   1.790   3.419   0.781
 1449SOL    HW2 5004   1.862   3.352   0.911
 1450SOL     OW 5005   0.221   3.176   1.844
 1450SOL    HW1 5006   0.156   3.103   1.823
 1450SOL    HW2 5007   0.225   3.190   1.942
 1451SOL     OW 5008   0.079   3.102   0.653
 1451SOL    HW1 5009   0.078   3.055   0.741
 1451SOL    HW2 5010   0.161   3.074   0.602
 1452SOL     OW 5011   0.672   3.253   1.624
 1452SOL    HW1 5012   0.594   3.203   1.662
 1452SOL    HW2 5013   0.669   3.348   1.655
 1453SOL     OW 5014   1.824   2.054   1.227
 1453SOL    HW1 5015   1.820   1.964   1.271
 1453SOL    HW2 5016   1.827   2.043   1.128
 1454SOL     OW 5017   0.428   2.286   0.520
 1454SOL    HW1 5018   0.458   2.214   0.458
 1454SOL    HW2 5019   0.389   2.246   0.603
 1455SOL     OW 5020   1.705   3.349   1.104
 1455SOL    HW1 5021   1.612   3.324   1.077
 1455SOL    HW2 5022   1.731   3.299   1.186
 1456SOL     OW 5023   0.317   2.409   1.280
 1456SOL    HW1 5024   0.355   2.350   1.352
 1456SOL    HW2 5025   0.357   2.383   1.192
 1457SOL     OW 5026   0.812   3.448   0.687
 1457SOL    HW1 5027   0.844   3.458   0.593
 1457SOL    HW2 5028   0.733   3.386   0.689
 1458SOL     OW 5029   1.424   2.076   1.112
 1458SOL    HW1 5030   1.476   2.011   1.167
 1458SOL    HW2 5031   1.375   2.139   1.173
 1459SOL     OW 5032   1.001   1.896   1.154
 1459SOL    HW1 5033   0.938   1.824   1.123
 1459SOL    HW2 5034   1.094   1.860   1.154
 1460SOL     OW 5035   0.770   3.192   0.301
 1460SOL    HW1 5036   0.724   3.105   0.318
 1460SOL    HW2 5037   0.861   3.189   0.342
 1461SOL     OW 5038   0.618   3.429   1.284
 1461SOL    HW1 5039   0.613   3.511   1.341
 1461SOL    HW2 5040   0.707   3.426   1.239
 1462SOL     OW 5041   1.352   1.914   0.168
 1462SOL    HW1 5042   1.387   1.873   0.084
 1462SOL    HW2 5043   1.262   1.876   0.188
 1463SOL     OW 5044   1.300   2.315   0.691
 1463SOL    HW1 5045   1.241   2.395   0.695
 1463SOL    HW2 5046   1.315   2.280   0.784
 1464SOL     OW 5047   1.593   2.083   0.882
 1464SOL    HW1 5048   1.509   2.082   0.936
 1464SOL    HW2 5049   1.595   2.166   0.826
 1465SOL     OW 5050   0.039   2.939   0.300
 1465SOL    HW1 5051   0.138   2.928   0.291
 1465SOL    HW2 5052  -0.001   2.853   0.332
 1466SOL     OW 5053   0.875   3.508   0.337
 1466SOL    HW1 5054   0.798   3.473   0.283
 1466SOL    HW2 5055   0.843   3.579   0.399
 1467SOL     OW 5056   0.230   2.490   1.975
 1467SOL    HW1 5057   0.137   2.488   2.012
 1467SOL    HW2 5058   0.231   2.451   1.883
 1468SOL     OW 5059   0.225   2.137   2.858
 1468SOL    HW1 5060   0.260   2.120   2.950
 1468SOL    HW2 5061   0.137   2.092   2.846
 1469SOL     OW 5062   0.019   2.230   2.509
 1469SOL    HW1 5063  -0.063   2.273   2.548
 1469SOL    HW2 5064  -0.009   2.157   2.446
 1470SOL     OW 5065   0.569   3.137   3.027
 1470SOL    HW1 5066   0.476   3.130   2.990
 1470SOL    HW2 5067   0.580   3.226   3.071
 1471SOL     OW 5068   1.555   3.373   2.565
 1471SOL    HW1 5069   1.498   3.357   2.646
 1471SOL    HW2 5070   1.496   3.383   2.485
 1472SOL     OW 5071   1.135   2.565   2.579
 1472SOL    HW1 5072   1.192   2.643   2.554
 1472SOL    HW2 5073   1.075   2.591   2.655
 1473SOL     OW 5074   1.755   2.469   2.093
 1473SOL    HW1 5075   1.743   2.456   1.994
 1473SOL    HW2 5076   1.725   2.388   2.142
 1474SOL     OW 5077   0.768   3.006   2.885
 1474SOL    HW1 5078   0.690   3.023   2.945
 1474SOL    HW2 5079   0.802   3.093   2.849
 1475SOL     OW 5080   0.850   2.660   3.685
 1475SOL    HW1 5081   0.846   2.736   3.750
 1475SOL    HW2 5082   0.872   2.696   3.594
 1476SOL     OW 5083   0.685   2.874   2.527
 1476SOL    HW1 5084   0.754   2.858   2.597
 1476SOL    HW2 5085   0.612   2.931   2.565
 1477SOL     OW 5086   0.686   3.023   3.665
 1477SOL    HW1 5087   0.746   3.102   3.679
 1477SOL    HW2 5088   0.600   3.054   3.624
 1478SOL     OW 5089   0.335   3.297   2.923
 1478SOL    HW1 5090   0.257   3.266   2.870
 1478SOL    HW2 5091   0.393   3.355   2.866
 1479SOL     OW 5092   1.460   3.367   3.201
 1479SOL    HW1 5093   1.484   3.461   3.227
 1479SOL    HW2 5094   1.444   3.313   3.283
 1480SOL     OW 5095   0.438   2.254   3.361
 1480SOL    HW1 5096   0.520   2.198   3.370
 1480SOL    HW2 5097   0.357   2.196   3.365
 1481SOL     OW 5098   1.603   2.309   2.599
 1481SOL    HW1 5099   1.529   2.355   2.549
 1481SOL    HW2 5100   1.654   2.377   2.652
 1482SOL     OW 5101   0.231   3.575   2.345
 1482SOL    HW1 5102   0.265   3.652   2.399
 1482SOL    HW2 5103   0.275   3.575   2.255
 1483SOL     OW 5104   1.127   3.203   3.552
 1483SOL    HW1 5105   1.174   3.203   3.640
 1483SOL    HW2 5106   1.079   3.116   3.541
 1484SOL     OW 5107   0.230   3.296   2.400
 1484SOL    HW1 5108   0.204   3.392   2.400
 1484SOL    HW2 5109   0.159   3.242   2.445
 1485SOL     OW 5110   0.240   2.953   2.748
 1485SOL    HW1 5111   0.254   2.869   2.800
 1485SOL    HW2 5112   0.185   3.017   2.803
 1486SOL     OW 5113   0.620   3.648   3.301
 1486SOL    HW1 5114   0.528   3.631   3.336
 1486SOL    HW2 5115   0.648   3.740   3.327
 1487SOL     OW 5116   0.606   2.826   1.985
 1487SOL    HW1 5117   0.613   2.910   1.931
 1487SOL    HW2 5118   0.652   2.839   2.073
 1488SOL     OW 5119   1.594   1.976   3.342
 1488SOL    HW1 5120   1.576   2.043   3.270
 1488SOL    HW2 5121   1.591   2.022   3.431
 1489SOL     OW 5122   0.122   2.505   2.425
 1489SOL    HW1 5123   0.077   2.417   2.442
 1489SOL    HW2 5124   0.121   2.559   2.509
 1490SOL     OW 5125   1.842   3.629   2.221
 1490SOL    HW1 5126   1.896   3.600   2.301
 1490SOL    HW2 5127   1.872   3.719   2.192
 1491SOL     OW 5128   0.027   3.458   1.979
 1491SOL    HW1 5129   0.008   3.362   2.000
 1491SOL    HW2 5130  -0.006   3.516   2.054
 1492SOL     OW 5131   1.689   2.784   2.474
 1492SOL    HW1 5132   1.784   2.755   2.482
 1492SOL    HW2 5133   1.681   2.849   2.399
 1493SOL     OW 5134   1.641   2.970   2.294
 1493SOL    HW1 5135   1.727   2.972   2.242
 1493SOL    HW2 5136   1.655   3.017   2.382
 1494SOL     OW 5137   0.113   2.599   3.459
 1494SOL    HW1 5138   0.201   2.586   3.504
 1494SOL    HW2 5139   0.100   2.696   3.437
 1495SOL     OW 5140   0.613   3.227   2.588
 1495SOL    HW1 5141   0.564   3.140   2.597
 1495SOL    HW2 5142   0.590   3.270   2.501
 1496SOL     OW 5143   1.293   3.090   3.285
 1496SOL    HW1 5144   1.330   3.017   3.227
 1496SOL    HW2 5145   1.345   3.095   3.370
 1497SOL     OW 5146   0.809   1.866   2.364
 1497SOL    HW1 5147   0.849   1.957   2.355
 1497SOL    HW2 5148   0.709   1.874   2.370
 1498SOL     OW 5149   0.197   2.838   3.126
 1498SOL    HW1 5150   0.286   2.793   3.112
 1498SOL    HW2 5151   0.124   2.773   3.107
 1499SOL     OW 5152   1.525   2.861   2.052
 1499SOL    HW1 5153   1.462   2.785   2.065
 1499SOL    HW2 5154   1.573   2.879   2.138
 1500SOL     OW 5155   1.187   3.654   3.478
 1500SOL    HW1 5156   1.211   3.714   3.402
 1500SOL    HW2 5157   1.194   3.559   3.448
 1501SOL     OW 5158   0.317   2.113   3.663
 1501SOL    HW1 5159   0.388   2.184   3.669
 1501SOL    HW2 5160   0.229   2.152   3.691
 1502SOL     OW 5161   1.466   3.279   2.815
 1502SOL    HW1 5162   1.407   3.285   2.895
 1502SOL    HW2 5163   1.451   3.191   2.769
 1503SOL     OW 5164   1.667   3.576   2.434
 1503SOL    HW1 5165   1.626   3.553   2.346
 1503SOL    HW2 5166   1.649   3.502   2.499
 1504SOL     OW 5167   0.598   2.591   2.132
 1504SOL    HW1 5168   0.622   2.660   2.064
 1504SOL    HW2 5169   0.520   2.624   2.186
 1505SOL     OW 5170   1.281   2.207   2.806
 1505SOL    HW1 5171   1.195   2.157   2.793
 1505SOL    HW2 5172   1.343   2.153   2.862
 1506SOL     OW 5173   1.576   3.524   2.169
 1506SOL    HW1 5174   1.665   3.570   2.172
 1506SOL    HW2 5175   1.555   3.500   2.074
 1507SOL     OW 5176   0.807   2.467   3.327
 1507SOL    HW1 5177   0.760   2.464   3.416
 1507SOL    HW2 5178   0.756   2.412   3.261
 1508SOL     OW 5179   1.394   2.331   3.536
 1508SOL    HW1 5180   1.374   2.374   3.624
 1508SOL    HW2 5181   1.472   2.269   3.545
 1509SOL     OW 5182   0.973   2.752   3.434
 1509SOL    HW1 5183   1.019   2.668   3.405
 1509SOL    HW2 5184   0.917   2.786   3.359
 1510SOL     OW 5185   0.991   2.272   3.104
 1510SOL    HW1 5186   0.914   2.306   3.158
 1510SOL    HW2 5187   0.957   2.221   3.025
 1511SOL     OW 5188   1.041   2.563   2.291
 1511SOL    HW1 5189   1.067   2.559   2.387
 1511SOL    HW2 5190   0.956   2.512   2.277
 1512SOL     OW 5191   0.076   2.673   2.651
 1512SOL    HW1 5192   0.175   2.661   2.660
 1512SOL    HW2 5193   0.052   2.768   2.672
 1513SOL     OW 5194   0.130   3.683   3.433
 1513SOL    HW1 5195   0.120   3.668   3.532
 1513SOL    HW2 5196   0.044   3.719   3.397
 1514SOL     OW 5197   0.865   2.210   2.057
 1514SOL    HW1 5198   0.924   2.273   2.008
 1514SOL    HW2 5199   0.884   2.116   2.028
 1515SOL     OW 5200   1.719   2.447   3.693
 1515SOL    HW1 5201   1.693   2.536   3.657
 1515SOL    HW2 5202   1.717   2.379   3.620
 1516SOL     OW 5203   1.362   3.006   2.407
 1516SOL    HW1 5204   1.445   2.977   2.359
 1516SOL    HW2 5205   1.313   3.073   2.351
 1517SOL     OW 5206   0.550   2.058   2.747
 1517SOL    HW1 5207   0.545   2.053   2.847
 1517SOL    HW2 5208   0.552   2.154   2.718
 1518SOL     OW 5209   1.008   3.318   2.339
 1518SOL    HW1 5210   0.962   3.390   2.287
 1518SOL    HW2 5211   1.004   3.338   2.437
 1519SOL     OW 5212   0.351   3.663   2.715
 1519SOL    HW1 5213   0.401   3.577   2.721
 1519SOL    HW2 5214   0.416   3.740   2.712
 1520SOL     OW 5215   1.795   2.928   2.735
 1520SOL    HW1 5216   1.733   2.913   2.659
 1520SOL    HW2 5217   1.743   2.939   2.820
 1521SOL     OW 5218   1.227   3.412   3.368
 1521SOL    HW1 5219   1.233   3.335   3.432
 1521SOL    HW2 5220   1.175   3.386   3.288
 1522SOL     OW 5221   0.321   2.805   2.104
 1522SOL    HW1 5222   0.403   2.844   2.062
 1522SOL    HW2 5223   0.294   2.723   2.055
 1523SOL     OW 5224   1.458   2.597   2.590
 1523SOL    HW1 5225   1.453   2.532   2.665
 1523SOL    HW2 5226   1.538   2.656   2.603
 1524SOL     OW 5227   0.461   3.128   3.589
 1524SOL    HW1 5228   0.411   3.129   3.503
 1524SOL    HW2 5229   0.398   3.110   3.665
 1525SOL     OW 5230   1.111   3.638   2.099
 1525SOL    HW1 5231   1.051   3.576   2.149
 1525SOL    HW2 5232   1.142   3.594   2.014
 1526SOL     OW 5233   0.202   2.147   3.360
 1526SOL    HW1 5234   0.122   2.207   3.347
 1526SOL    HW2 5235   0.192   2.098   3.446
 1527SOL     OW 5236   1.632   3.239   1.943
 1527SOL    HW1 5237   1.600   3.333   1.933
 1527SOL    HW2 5238   1.556   3.176   1.931
 1528SOL     OW 5239   0.464   3.605   2.185
 1528SOL    HW1 5240   0.497   3.644   2.271
 1528SOL    HW2 5241   0.540   3.598   2.120
 1529SOL     OW 5242   1.400   1.969   2.288
 1529SOL    HW1 5243   1.376   1.932   2.198
 1529SOL    HW2 5244   1.499   1.985   2.292
 1530SOL     OW 5245   0.249   3.647   3.103
 1530SOL    HW1 5246   0.306   3.582   3.153
 1530SOL    HW2 5247   0.233   3.614   3.010
 1531SOL     OW 5248   0.940   3.560   2.766
 1531SOL    HW1 5249   1.020   3.503   2.787
 1531SOL    HW2 5250   0.891   3.520   2.689
 1532SOL     OW 5251   0.382   2.562   2.342
 1532SOL    HW1 5252   0.427   2.472   2.339
 1532SOL    HW2 5253   0.288   2.551   2.375
 1533SOL     OW 5254   1.547   2.084   3.591
 1533SOL    HW1 5255   1.542   2.121   3.683
 1533SOL    HW2 5256   1.475   2.015   3.579
 1534SOL     OW 5257   0.614   1.984   1.979
 1534SOL    HW1 5258   0.712   1.962   1.986
 1534SOL    HW2 5259   0.583   1.967   1.886
 1535SOL     OW 5260   0.781   2.126   3.611
 1535SOL    HW1 5261   0.848   2.065   3.654
 1535SOL    HW2 5262   0.708   2.145   3.676
 1536SOL     OW 5263   0.888   3.376   3.057
 1536SOL    HW1 5264   0.865   3.351   2.963
 1536SOL    HW2 5265   0.949   3.307   3.096
 1537SOL     OW 5266   1.351   2.452   3.295
 1537SOL    HW1 5267   1.379   2.409   3.380
 1537SOL    HW2 5268   1.376   2.548   3.296
 1538SOL     OW 5269   0.803   3.264   2.786
 1538SOL    HW1 5270   0.893   3.278   2.744
 1538SOL    HW2 5271   0.732   3.266   2.715
 1539SOL     OW 5272   0.922   2.365   2.761
 1539SOL    HW1 5273   0.897   2.356   2.665
 1539SOL    HW2 5274   0.970   2.283   2.792
 1540SOL     OW 5275   0.539   1.926   2.374
 1540SOL    HW1 5276   0.458   1.927   2.432
 1540SOL    HW2 5277   0.542   2.009   2.319
 1541SOL     OW 5278   1.434   3.050   1.903
 1541SOL    HW1 5279   1.466   2.974   1.960
 1541SOL    HW2 5280   1.342   3.077   1.933
 1542SOL     OW 5281   0.297   1.897   2.033
 1542SOL    HW1 5282   0.346   1.981   2.012
 1542SOL    HW2 5283   0.359   1.832   2.078
 1543SOL     OW 5284   0.935   2.098   2.342
 1543SOL    HW1 5285   0.887   2.139   2.264
 1543SOL    HW2 5286   1.034   2.096   2.323
 1544SOL     OW 5287   1.076   2.545   3.326
 1544SOL    HW1 5288   0.996   2.484   3.329
 1544SOL    HW2 5289   1.157   2.492   3.302
 1545SOL     OW 5290   1.227   3.432   2.655
 1545SOL    HW1 5291   1.248   3.506   2.590
 1545SOL    HW2 5292   1.295   3.432   2.728
 1546SOL     OW 5293   0.459   3.014   2.603
 1546SOL    HW1 5294   0.388   2.987   2.668
 1546SOL    HW2 5295   0.433   2.986   2.510
 1547SOL     OW 5296   1.271   3.659   2.453
 1547SOL    HW1 5297   1.315   3.723   2.389
 1547SOL    HW2 5298   1.221   3.711   2.523
 1548SOL     OW 5299   1.032   2.411   1.878
 1548SOL    HW1 5300   0.991   2.493   1.839
 1548SOL    HW2 5301   1.096   2.437   1.951
 1549SOL     OW 5302   0.078   2.418   3.248
 1549SOL    HW1 5303   0.170   2.417   3.207
 1549SOL    HW2 5304   0.072   2.492   3.315
 1550SOL     OW 5305   0.561   2.084   3.009
 1550SOL    HW1 5306   0.599   2.000   3.046
 1550SOL    HW2 5307   0.473   2.103   3.053
 1551SOL     OW 5308   0.866   2.316   2.504
 1551SOL    HW1 5309   0.834   2.388   2.442
 1551SOL    HW2 5310   0.890   2.235   2.451
 1552SOL     OW 5311   1.017   1.901   2.615
 1552SOL    HW1 5312   0.945   1.906   2.546
 1552SOL    HW2 5313   0.993   1.832   2.684
 1553SOL     OW 5314   1.429   3.035   2.729
 1553SOL    HW1 5315   1.374   2.951   2.722
 1553SOL    HW2 5316   1.455   3.064   2.637
 1554SOL     OW 5317   1.466   2.452   2.854
 1554SOL    HW1 5318   1.436   2.357   2.861
 1554SOL    HW2 5319   1.539   2.468   2.920
 1555SOL     OW 5320   1.857   2.695   2.239
 1555SOL    HW1 5321   1.899   2.631   2.303
 1555SOL    HW2 5322   1.819   2.644   2.161
 1556SOL     OW 5323   0.488   3.247   2.036
 1556SOL    HW1 5324   0.401   3.232   2.083
 1556SOL    HW2 5325   0.471   3.273   1.941
 1557SOL     OW 5326   1.664   3.142   2.519
 1557SOL    HW1 5327   1.763   3.150   2.533
 1557SOL    HW2 5328   1.619   3.226   2.550
 1558SOL     OW 5329   1.390   2.437   1.940
 1558SOL    HW1 5330   1.336   2.416   2.021
 1558SOL    HW2 5331   1.481   2.396   1.949
 1559SOL     OW 5332   0.527   2.118   2.190
 1559SOL    HW1 5333   0.554   2.059   2.115
 1559SOL    HW2 5334   0.527   2.213   2.159
 1560SOL     OW 5335   1.754   3.085   3.450
 1560SOL    HW1 5336   1.845   3.046   3.437
 1560SOL    HW2 5337   1.762   3.181   3.474
 1561SOL     OW 5338   1.064   3.209   3.202
 1561SOL    HW1 5339   0.984   3.186   3.257
 1561SOL    HW2 5340   1.147   3.183   3.251
 1562SOL     OW 5341   1.592   3.491   3.487
 1562SOL    HW1 5342   1.619   3.525   3.397
 1562SOL    HW2 5343   1.671   3.453   3.533
 1563SOL     OW 5344   1.111   3.057   2.962
 1563SOL    HW1 5345   1.071   3.101   3.043
 1563SOL    HW2 5346   1.070   3.094   2.879
 1564SOL     OW 5347   1.638   2.961   2.941
 1564SOL    HW1 5348   1.643   3.042   3.000
 1564SOL    HW2 5349   1.552   2.963   2.890
 1565SOL     OW 5350   0.915   1.951   3.264
 1565SOL    HW1 5351   0.940   1.931   3.169
 1565SOL    HW2 5352   0.987   2.007   3.306
 1566SOL     OW 5353   0.980   2.978   3.581
 1566SOL    HW1 5354   0.881   2.984   3.591
 1566SOL    HW2 5355   1.003   2.898   3.525
 1567SOL     OW 5356   0.705   2.912   2.230
 1567SOL    HW1 5357   0.691   2.919   2.329
 1567SOL    HW2 5358   0.789   2.861   2.212
 1568SOL     OW 5359   0.410   2.675   3.113
 1568SOL    HW1 5360   0.496   2.687   3.163
 1568SOL    HW2 5361   0.368   2.588   3.140
 1569SOL     OW 5362   1.274   2.248   3.124
 1569SOL    HW1 5363   1.295   2.322   3.188
 1569SOL    HW2 5364   1.185   2.265   3.081
 1570SOL     OW 5365   0.064   3.426   3.193
 1570SOL    HW1 5366   0.018   3.508   3.159
 1570SOL    HW2 5367   0.162   3.445   3.202
 1571SOL     OW 5368   0.367   2.962   2.363
 1571SOL    HW1 5369   0.360   3.045   2.307
 1571SOL    HW2 5370   0.371   2.882   2.303
 1572SOL     OW 5371   0.566   2.399   2.727
 1572SOL    HW1 5372   0.578   2.465   2.653
 1572SOL    HW2 5373   0.612   2.433   2.810
 1573SOL     OW 5374   1.252   3.210   2.250
 1573SOL    HW1 5375   1.302   3.287   2.290
 1573SOL    HW2 5376   1.157   3.212   2.282
 1574SOL     OW 5377   1.272   3.307   3.004
 1574SOL    HW1 5378   1.319   3.320   3.091
 1574SOL    HW2 5379   1.206   3.233   3.013
 1575SOL     OW 5380   1.582   2.501   2.334
 1575SOL    HW1 5381   1.551   2.562   2.407
 1575SOL    HW2 5382   1.632   2.553   2.265
 1576SOL     OW 5383   0.354   3.372   3.191
 1576SOL    HW1 5384   0.333   3.328   3.104
 1576SOL    HW2 5385   0.451   3.398   3.194
 1577SOL     OW 5386   0.402   2.613   3.460
 1577SOL    HW1 5387   0.470   2.668   3.413
 1577SOL    HW2 5388   0.442   2.525   3.487
 1578SOL     OW 5389   1.587   2.641   3.532
 1578SOL    HW1 5390   1.495   2.679   3.527
 1578SOL    HW2 5391   1.647   2.688   3.467
 1579SOL     OW 5392   1.013   1.967   3.632
 1579SOL    HW1 5393   1.019   2.052   3.580
 1579SOL    HW2 5394   1.045   1.891   3.575
 1580SOL     OW 5395   0.504   1.912   3.602
 1580SOL    HW1 5396   0.462   1.855   3.532
 1580SOL    HW2 5397   0.438   1.981   3.634
 1581SOL     OW 5398   0.573   2.732   2.891
 1581SOL    HW1 5399   0.617   2.821   2.882
 1581SOL    HW2 5400   0.510   2.732   2.968
 1582SOL     OW 5401   1.360   2.724   2.907
 1582SOL    HW1 5402   1.285   2.724   2.841
 1582SOL    HW2 5403   1.397   2.632   2.916
 1583SOL     OW 5404   1.209   2.387   2.137
 1583SOL    HW1 5405   1.222   2.303   2.191
 1583SOL    HW2 5406   1.180   2.461   2.197
 1584SOL     OW 5407   0.307   2.075   3.093
 1584SOL    HW1 5408   0.284   2.112   3.183
 1584SOL    HW2 5409   0.277   1.980   3.087
 1585SOL     OW 5410   0.037   3.172   3.144
 1585SOL    HW1 5411   0.090   3.123   3.212
 1585SOL    HW2 5412   0.059   3.270   3.149
 1586SOL     OW 5413   0.732   2.496   2.926
 1586SOL    HW1 5414   0.791   2.470   2.850
 1586SOL    HW2 5415   0.704   2.592   2.915
 1587SOL     OW 5416   1.728   2.797   3.716
 1587SOL    HW1 5417   1.682   2.790   3.627
 1587SOL    HW2 5418   1.666   2.841   3.782
 1588SOL     OW 5419   0.307   1.925   2.480
 1588SOL    HW1 5420   0.296   2.019   2.513
 1588SOL    HW2 5421   0.302   1.862   2.557
 1589SOL     OW 5422   1.622   2.229   2.236
 1589SOL    HW1 5423   1.624   2.153   2.300
 1589SOL    HW2 5424   1.574   2.306   2.276
 1590SOL     OW 5425   1.023   2.628   2.828
 1590SOL    HW1 5426   1.038   2.649   2.924
 1590SOL    HW2 5427   0.993   2.533   2.819
 1591SOL     OW 5428   0.980   3.435   3.562
 1591SOL    HW1 5429   0.960   3.479   3.474
 1591SOL    HW2 5430   1.019   3.344   3.546
 1592SOL     OW 5431   1.859   3.380   3.467
 1592SOL    HW1 5432   1.873   3.407   3.372
 1592SOL    HW2 5433   1.942   3.402   3.520
 1593SOL     OW 5434   0.350   2.760   3.666
 1593SOL    HW1 5435   0.426   2.804   3.714
 1593SOL    HW2 5436   0.385   2.713   3.584
 1594SOL     OW 5437   1.540   2.136   1.987
 1594SOL    HW1 5438   1.479   2.061   2.010
 1594SOL    HW2 5439   1.562   2.188   2.070
 1595SOL     OW 5440   1.303   2.700   1.904
 1595SOL    HW1 5441   1.337   2.607   1.919
 1595SOL    HW2 5442   1.321   2.727   1.809
 1596SOL     OW 5443   1.068   3.195   2.711
 1596SOL    HW1 5444   1.075   3.111   2.656
 1596SOL    HW2 5445   1.130   3.264   2.675
 1597SOL     OW 5446   0.319   2.672   2.811
 1597SOL    HW1 5447   0.412   2.708   2.816
 1597SOL    HW2 5448   0.313   2.587   2.863
 1598SOL     OW 5449   0.339   2.371   2.868
 1598SOL    HW1 5450   0.287   2.288   2.851
 1598SOL    HW2 5451   0.416   2.376   2.804
 1599SOL     OW 5452   1.138   2.242   3.540
 1599SOL    HW1 5453   1.093   2.305   3.604
 1599SOL    HW2 5454   1.231   2.273   3.523
 1600SOL     OW 5455   1.160   2.069   3.339
 1600SOL    HW1 5456   1.160   2.133   3.416
 1600SOL    HW2 5457   1.188   2.117   3.256
 1601SOL     OW 5458   0.008   3.188   2.062
 1601SOL    HW1 5459  -0.085   3.209   2.031
 1601SOL    HW2 5460   0.018   3.089   2.075
 1602SOL     OW 5461   0.088   3.663   2.789
 1602SOL    HW1 5462   0.046   3.577   2.762
 1602SOL    HW2 5463   0.182   3.666   2.755
 1603SOL     OW 5464   0.504   3.430   2.772
 1603SOL    HW1 5465   0.570   3.504   2.781
 1603SOL    HW2 5466   0.548   3.351   2.730
 1604SOL     OW 5467   1.002   2.658   3.100
 1604SOL    HW1 5468   1.043   2.626   3.186
 1604SOL    HW2 5469   0.906   2.631   3.097
 1605SOL     OW 5470   0.040   2.406   2.976
 1605SOL    HW1 5471   0.125   2.373   2.935
 1605SOL    HW2 5472   0.053   2.421   3.074
 1606SOL     OW 5473   0.189   2.382   3.584
 1606SOL    HW1 5474   0.248   2.342   3.514
 1606SOL    HW2 5475   0.131   2.453   3.543
 1607SOL     OW 5476   1.369   2.812   3.522
 1607SOL    HW1 5477   1.408   2.901   3.542
 1607SOL    HW2 5478   1.379   2.792   3.425
 1608SOL     OW 5479   0.815   2.434   2.187
 1608SOL    HW1 5480   0.822   2.345   2.141
 1608SOL    HW2 5481   0.721   2.468   2.179
 1609SOL     OW 5482   1.657   2.466   3.068
 1609SOL    HW1 5483   1.619   2.397   3.130
 1609SOL    HW2 5484   1.739   2.430   3.024
 1610SOL     OW 5485   0.252   3.426   3.606
 1610SOL    HW1 5486   0.222   3.483   3.682
 1610SOL    HW2 5487   0.245   3.329   3.632
 1611SOL     OW 5488   0.671   2.326   3.131
 1611SOL    HW1 5489   0.637   2.237   3.101
 1611SOL    HW2 5490   0.697   2.380   3.051
 1612SOL     OW 5491   0.930   3.540   3.327
 1612SOL    HW1 5492   0.906   3.522   3.232
 1612SOL    HW2 5493   0.960   3.634   3.337
 1613SOL     OW 5494   0.473   2.362   2.053
 1613SOL    HW1 5495   0.534   2.442   2.057
 1613SOL    HW2 5496   0.378   2.393   2.060
 1614SOL     OW 5497   0.159   2.999   3.328
 1614SOL    HW1 5498   0.181   2.938   3.404
 1614SOL    HW2 5499   0.169   2.950   3.242
 1615SOL     OW 5500   1.347   2.921   3.096
 1615SOL    HW1 5501   1.371   2.858   3.022
 1615SOL    HW2 5502   1.257   2.961   3.078
 1616SOL     OW 5503   1.302   2.717   2.171
 1616SOL    HW1 5504   1.216   2.686   2.213
 1616SOL    HW2 5505   1.298   2.703   2.072
 1617SOL     OW 5506   1.759   3.609   3.016
 1617SOL    HW1 5507   1.820   3.639   2.943
 1617SOL    HW2 5508   1.721   3.520   2.994
 1618SOL     OW 5509   1.252   3.593   2.990
 1618SOL    HW1 5510   1.336   3.598   2.936
 1618SOL    HW2 5511   1.229   3.497   3.008
 1619SOL     OW 5512   0.083   3.120   2.884
 1619SOL    HW1 5513   0.078   3.119   2.984
 1619SOL    HW2 5514   0.000   3.079   2.846
 1620SOL     OW 5515   0.688   3.524   3.578
 1620SOL    HW1 5516   0.632   3.605   3.587
 1620SOL    HW2 5517   0.740   3.528   3.492
 1621SOL     OW 5518   1.726   1.997   2.385
 1621SOL    HW1 5519   1.799   1.980   2.318
 1621SOL    HW2 5520   1.695   1.910   2.423
 1622SOL     OW 5521   1.388   3.435   2.339
 1622SOL    HW1 5522   1.455   3.447   2.265
 1622SOL    HW2 5523   1.348   3.524   2.362
 1623SOL     OW 5524   0.130   3.656   3.713
 1623SOL    HW1 5525   0.089   3.582   3.766
 1623SOL    HW2 5526   0.194   3.707   3.771
 1624SOL     OW 5527   1.280   2.789   2.534
 1624SOL    HW1 5528   1.340   2.708   2.536
 1624SOL    HW2 5529   1.320   2.858   2.474
 1625SOL     OW 5530   0.830   3.135   3.284
 1625SOL    HW1 5531   0.825   3.168   3.379
 1625SOL    HW2 5532   0.744   3.154   3.238
 1626SOL     OW 5533   0.672   3.478   2.016
 1626SOL    HW1 5534   0.681   3.488   1.917
 1626SOL    HW2 5535   0.632   3.389   2.037
 1627SOL     OW 5536   1.650   3.582   3.256
 1627SOL    HW1 5537   1.703   3.592   3.172
 1627SOL    HW2 5538   1.623   3.672   3.290
 1628SOL     OW 5539   1.841   2.037   2.825
 1628SOL    HW1 5540   1.880   1.952   2.789
 1628SOL    HW2 5541   1.743   2.039   2.806
 1629SOL     OW 5542   0.263   2.188   2.582
 1629SOL    HW1 5543   0.184   2.239   2.548
 1629SOL    HW2 5544   0.254   2.173   2.680
 1630SOL     OW 5545   1.194   3.474   1.893
 1630SOL    HW1 5546   1.200   3.381   1.930
 1630SOL    HW2 5547   1.135   3.474   1.813
 1631SOL     OW 5548   0.822   2.864   3.234
 1631SOL    HW1 5549   0.862   2.863   3.142
 1631SOL    HW2 5550   0.832   2.956   3.274
 1632SOL     OW 5551   0.916   2.772   2.153
 1632SOL    HW1 5552   0.979   2.810   2.085
 1632SOL    HW2 5553   0.956   2.689   2.192
 1633SOL     OW 5554   1.504   3.469   1.906
 1633SOL    HW1 5555   1.412   3.506   1.913
 1633SOL    HW2 5556   1.542   3.489   1.816
 1634SOL     OW 5557   0.372   3.150   3.352
 1634SOL    HW1 5558   0.359   3.243   3.318
 1634SOL    HW2 5559   0.288   3.098   3.339
 1635SOL     OW 5560   1.614   3.154   3.151
 1635SOL    HW1 5561   1.674   3.157   3.231
 1635SOL    HW2 5562   1.539   3.218   3.164
 1636SOL     OW 5563   1.039   2.960   2.558
 1636SOL    HW1 5564   0.969   2.913   2.612
 1636SOL    HW2 5565   1.098   2.892   2.515
 1637SOL     OW 5566   1.014   2.098   2.833
 1637SOL    HW1 5567   1.006   2.062   2.740
 1637SOL    HW2 5568   1.012   2.022   2.898
 1638SOL     OW 5569   0.590   3.349   2.353
 1638SOL    HW1 5570   0.632   3.291   2.283
 1638SOL    HW2 5571   0.546   3.428   2.309
 1639SOL     OW 5572   1.709   2.247   3.243
 1639SOL    HW1 5573   1.782   2.316   3.247
 1639SOL    HW2 5574   1.737   2.172   3.184
 1640SOL     OW 5575   0.255   3.210   2.152
 1640SOL    HW1 5576   0.159   3.211   2.125
 1640SOL    HW2 5577   0.267   3.263   2.236
 1641SOL     OW 5578   0.105   2.875   3.588
 1641SOL    HW1 5579   0.028   2.842   3.642
 1641SOL    HW2 5580   0.190   2.845   3.630
 1642SOL     OW 5581   0.672   2.065   3.351
 1642SOL    HW1 5582   0.762   2.049   3.311
 1642SOL    HW2 5583   0.680   2.070   3.450
 1643SOL     OW 5584   0.075   2.207   1.895
 1643SOL    HW1 5585  -0.017   2.179   1.866
 1643SOL    HW2 5586   0.106   2.284   1.839
 1644SOL     OW 5587   1.440   2.718   3.260
 1644SOL    HW1 5588   1.383   2.770   3.197
 1644SOL    HW2 5589   1.536   2.730   3.236
 1645SOL     OW 5590   0.072   2.028   2.180
 1645SOL    HW1 5591   0.055   2.111   2.126
 1645SOL    HW2 5592   0.162   1.991   2.158
 1646SOL     OW 5593   1.183   3.197   1.981
 1646SOL    HW1 5594   1.084   3.186   1.983
 1646SOL    HW2 5595   1.217   3.212   2.074
 1647SOL     OW 5596   0.613   2.704   3.293
 1647SOL    HW1 5597   0.669   2.785   3.276
 1647SOL    HW2 5598   0.672   2.624   3.296
 1648SOL     OW 5599   1.493   3.629   2.821
 1648SOL    HW1 5600   1.526   3.693   2.752
 1648SOL    HW2 5601   1.559   3.623   2.896
 1649SOL     OW 5602   0.716   2.427   3.570
 1649SOL    HW1 5603   0.735   2.492   3.644
 1649SOL    HW2 5604   0.776   2.347   3.579
 1650SOL     OW 5605   1.450   3.082   3.495
 1650SOL    HW1 5606   1.441   3.072   3.594
 1650SOL    HW2 5607   1.546   3.075   3.469
 1651SOL     OW 5608   0.390   3.603   3.422
 1651SOL    HW1 5609   0.299   3.644   3.420
 1651SOL    HW2 5610   0.383   3.509   3.454
 1652SOL     OW 5611   1.674   2.745   3.116
 1652SOL    HW1 5612   1.647   2.656   3.079
 1652SOL    HW2 5613   1.675   2.813   3.043
 1653SOL     OW 5614   1.225   2.187   2.311
 1653SOL    HW1 5615   1.290   2.113   2.300
 1653SOL    HW2 5616   1.245   2.237   2.395
 1654SOL     OW 5617   0.594   2.607   2.514
 1654SOL    HW1 5618   0.644   2.692   2.495
 1654SOL    HW2 5619   0.506   2.609   2.466
 1655SOL     OW 5620   1.777   2.204   3.504
 1655SOL    HW1 5621   1.760   2.235   3.410
 1655SOL    HW2 5622   1.693   2.167   3.542
 1656SOL     OW 5623   1.730   2.796   3.379
 1656SOL    HW1 5624   1.768   2.887   3.394
 1656SOL    HW2 5625   1.722   2.779   3.280
 1657SOL     OW 5626   0.859   3.236   1.878
 1657SOL    HW1 5627   0.813   3.251   1.966
 1657SOL    HW2 5628   0.903   3.321   1.848
 1658SOL     OW 5629   0.661   3.652   2.815
 1658SOL    HW1 5630   0.615   3.740   2.802
 1658SOL    HW2 5631   0.760   3.664   2.808
 1659SOL     OW 5632   0.859   2.818   2.723
 1659SOL    HW1 5633   0.913   2.749   2.771
 1659SOL    HW2 5634   0.827   2.887   2.789
 1660SOL     OW 5635   1.083   2.846   1.949
 1660SOL    HW1 5636   1.060   2.899   1.867
 1660SOL    HW2 5637   1.164   2.790   1.930
 1661SOL     OW 5638   1.861   3.431   2.713
 1661SOL    HW1 5639   1.790   3.419   2.643
 1661SOL    HW2 5640   1.862   3.352   2.773
 1662SOL     OW 5641   0.221   3.176   3.706
 1662SOL    HW1 5642   0.156   3.103   3.685
 1662SOL    HW2 5643   0.225   3.190   3.804
 1663SOL     OW 5644   0.079   3.102   2.515
 1663SOL    HW1 5645   0.078   3.055   2.603
 1663SOL    HW2 5646   0.161   3.074   2.464
 1664SOL     OW 5647   0.672   3.253   3.486
 1664SOL    HW1 5648   0.594   3.203   3.524
 1664SOL    HW2 5649   0.669   3.348   3.517
 1665SOL     OW 5650   1.824   2.054   3.089
 1665SOL    HW1 5651   1.820   1.964   3.133
 1665SOL    HW2 5652   1.827   2.043   2.990
 1666SOL     OW 5653   0.428   2.286   2.382
 1666SOL    HW1 5654   0.458   2.214   2.320
 1666SOL    HW2 5655   0.389   2.246   2.465
 1667SOL     OW 5656   1.705   3.349   2.966
 1667SOL    HW1 5657   1.612   3.324   2.939
 1667SOL    HW2 5658   1.731   3.299   3.048
 1668SOL     OW 5659   0.317   2.409   3.142
 1668SOL    HW1 5660   0.355   2.350   3.214
 1668SOL    HW2 5661   0.357   2.383   3.054
 1669SOL     OW 5662   0.812   3.448   2.549
 1669SOL    HW1 5663   0.844   3.458   2.455
 1669SOL    HW2 5664   0.733   3.386   2.551
 1670SOL     OW 5665   1.424   2.076   2.974
 1670SOL    HW1 5666   1.476   2.011   3.029
 1670SOL    HW2 5667   1.375   2.139   3.035
 1671SOL     OW 5668   1.001   1.896   3.016
 1671SOL    HW1 5669   0.938   1.824   2.985
 1671SOL    HW2 5670   1.094   1.860   3.016
 1672SOL     OW 5671   0.770   3.192   2.163
 1672SOL    HW1 5672   0.724   3.105   2.180
 1672SOL    HW2 5673   0.861   3.189   2.204
 1673SOL     OW 5674   0.618   3.429   3.146
 1673SOL    HW1 5675   0.613   3.511   3.203
 1673SOL    HW2 5676   0.707   3.426   3.101
 1674SOL     OW 5677   1.352   1.914   2.030
 1674SOL    HW1 5678   1.387   1.873   1.946
 1674SOL    HW2 5679   1.262   1.876   2.050
 1675SOL     OW 5680   1.300   2.315   2.553
 1675SOL    HW1 5681   1.241   2.395   2.557
 1675SOL    HW2 5682   1.315   2.280   2.646
 1676SOL     OW 5683   1.593   2.083   2.744
 1676SOL    HW1 5684   1.509   2.082   2.798
 1676SOL    HW2 5685   1.595   2.166   2.688
 1677SOL     OW 5686   0.039   2.939   2.162
 1677SOL    HW1 5687   0.138   2.928   2.153
 1677SOL    HW2 5688  -0.001   2.853   2.194
 1678SOL     OW 5689   0.875   3.508   2.199
 1678SOL    HW1 5690   0.798   3.473   2.145
 1678SOL    HW2 5691   0.843   3.579   2.261
 1679SOL     OW 5692   0.230   2.490   3.837
 1679SOL    HW1 5693   0.137   2.488   3.874
 1679SOL    HW2 5694   0.231   2.451   3.745
 1680SOL     OW 5695   0.225   2.137   4.720
 1680SOL    HW1 5696   0.260   2.120   4.812
 1680SOL    HW2 5697   0.137   2.092   4.708
 1681SOL     OW 5698   0.019   2.230   4.371
 1681SOL    HW1 5699  -0.063   2.273   4.410
 1681SOL    HW2 5700  -0.009   2.157   4.308
 1682SOL     OW 5701   0.569   3.137   4.889
 1682SOL    HW1 5702   0.476   3.130   4.852
 1682SOL    HW2 5703   0.580   3.226   4.933
 1683SOL     OW 5704   1.555   3.373   4.427
 1683SOL    HW1 5705   1.498   3.357   4.508
 1683SOL    HW2 5706   1.496   3.383   4.347
 1684SOL     OW 5707   1.135   2.565   4.441
 1684SOL    HW1 5708   1.192   2.643   4.416
 1684SOL    HW2 5709   1.075   2.591   4.517
 1685SOL     OW 5710   1.755   2.469   3.955
 1685SOL    HW1 5711   1.743   2.456   3.856
 1685SOL    HW2 5712   1.725   2.388   4.004
 1686SOL     OW 5713   0.768   3.006   4.747
 1686SOL    HW1 5714   0.690   3.023   4.807
 1686SOL    HW2 5715   0.802   3.093   4.711
 1687SOL     OW 5716   0.850   2.660   5.547
 1687SOL    HW1 5717   0.846   2.736   5.612
 1687SOL    HW2 5718   0.872   2.696   5.456
 1688SOL     OW 5719   0.685   2.874   4.389
 1688SOL    HW1 5720   0.754   2.858   4.459
 1688SOL    HW2 5721   0.612   2.931   4.427
 1689SOL     OW 5722   0.686   3.023   5.527
 1689SOL    HW1 5723   0.746   3.102   5.541
 1689SOL    HW2 5724   0.600   3.054   5.486
 1690SOL     OW 5725   0.335   3.297   4.785
 1690SOL    HW1 5726   0.257   3.266   4.732
 1690SOL    HW2 5727   0.393   3.355   4.728
 1691SOL     OW 5728   1.460   3.367   5.063
 1691SOL    HW1 5729   1.484   3.461   5.089
 1691SOL    HW2 5730   1.444   3.313   5.145
 1692SOL     OW 5731   0.438   2.254   5.223
 1692SOL    HW1 5732   0.520   2.198   5.232
 1692SOL    HW2 5733   0.357   2.196   5.227
 1693SOL     OW 5734   1.603   2.309   4.461
 1693SOL    HW1 5735   1.529   2.355   4.411
 1693SOL    HW2 5736   1.654   2.377   4.514
 1694SOL     OW 5737   0.231   3.575   4.207
 1694SOL    HW1 5738   0.265   3.652   4.261
 1694SOL    HW2 5739   0.275   3.575   4.117
 1695SOL     OW 5740   1.127   3.203   5.414
 1695SOL    HW1 5741   1.174   3.203   5.502
 1695SOL    HW2 5742   1.079   3.116   5.403
 1696SOL     OW 5743   0.230   3.296   4.262
 1696SOL    HW1 5744   0.204   3.392   4.262
 1696SOL    HW2 5745   0.159   3.242   4.307
 1697SOL     OW 5746   0.240   2.953   4.610
 1697SOL    HW1 5747   0.254   2.869   4.662
 1697SOL    HW2 5748   0.185   3.017   4.665
 1698SOL     OW 5749   0.620   3.648   5.163
 1698SOL    HW1 5750   0.528   3.631   5.198
 1698SOL    HW2 5751   0.648   3.740   5.189
 1699SOL     OW 5752   0.606   2.826   3.847
 1699SOL    HW1 5753   0.613   2.910   3.793
 1699SOL    HW2 5754   0.652   2.839   3.935
 1700SOL     OW 5755   0.122   2.505   4.287
 1700SOL    HW1 5756   0.077   2.417   4.304
 1700SOL    HW2 5757   0.121   2.559   4.371
 1701SOL     OW 5758   1.842   3.629   4.083
 1701SOL    HW1 5759   1.896   3.600   4.163
 1701SOL    HW2 5760   1.872   3.719   4.054
 1702SOL     OW 5761   0.027   3.458   3.841
 1702SOL    HW1 5762   0.008   3.362   3.862
 1702SOL    HW2 5763  -0.006   3.516   3.916
 1703SOL     OW 5764   1.689   2.784   4.336
 1703SOL    HW1 5765   1.784   2.755   4.344
 1703SOL    HW2 5766   1.681   2.849   4.261
 1704SOL     OW 5767   1.641   2.970   4.156
 1704SOL    HW1 5768   1.727   2.972   4.104
 1704SOL    HW2 5769   1.655   3.017   4.244
 1705SOL     OW 5770   0.113   2.599   5.321
 1705SOL    HW1 5771   0.201   2.586   5.366
 1705SOL    HW2 5772   0.100   2.696   5.299
 1706SOL     OW 5773   0.613   3.227   4.450
 1706SOL    HW1 5774   0.564   3.140   4.459
 1706SOL    HW2 5775   0.590   3.270   4.363
 1707SOL     OW 5776   1.293   3.090   5.147
 1707SOL    HW1 5777   1.330   3.017   5.089
 1707SOL    HW2 5778   1.345   3.095   5.232
 1708SOL     OW 5779   0.809   1.866   4.226
 1708SOL    HW1 5780   0.849   1.957   4.217
 1708SOL    HW2 5781   0.709   1.874   4.232
 1709SOL     OW 5782   0.197   2.838   4.988
 1709SOL    HW1 5783   0.286   2.793   4.974
 1709SOL    HW2 5784   0.124   2.773   4.969
 1710SOL     OW 5785   1.525   2.861   3.914
 1710SOL    HW1 5786   1.462   2.785   3.927
 1710SOL    HW2 5787   1.573   2.879   4.000
 1711SOL     OW 5788   1.187   3.654   5.340
 1711SOL    HW1 5789   1.211   3.714   5.264
 1711SOL    HW2 5790   1.194   3.559   5.310
 1712SOL     OW 5791   0.317   2.113   5.525
 1712SOL    HW1 5792   0.388   2.184   5.531
 1712SOL    HW2 5793   0.229   2.152   5.553
 1713SOL     OW 5794   1.466   3.279   4.677
 1713SOL    HW1 5795   1.407   3.285   4.757
 1713SOL    HW2 5796   1.451   3.191   4.631
 1714SOL     OW 5797   1.667   3.576   4.296
 1714SOL    HW1 5798   1.626   3.553   4.208
 1714SOL    HW2 5799   1.649   3.502   4.361
 1715SOL     OW 5800   0.598   2.591   3.994
 1715SOL    HW1 5801   0.622   2.660   3.926
 1715SOL    HW2 5802   0.520   2.624   4.048
 1716SOL     OW 5803   1.281   2.207   4.668
 1716SOL    HW1 5804   1.195   2.157   4.655
 1716SOL    HW2 5805   1.343   2.153   4.724
 1717SOL     OW 5806   1.576   3.524   4.031
 1717SOL    HW1 5807   1.665   3.570   4.034
 1717SOL    HW2 5808   1.555   3.500   3.936
 1718SOL     OW 5809   0.807   2.467   5.189
 1718SOL    HW1 5810   0.760   2.464   5.278
 1718SOL    HW2 5811   0.756   2.412   5.123
 1719SOL     OW 5812   0.973   2.752   5.296
 1719SOL    HW1 5813   1.019   2.668   5.267
 1719SOL    HW2 5814   0.917   2.786   5.221
 1720SOL     OW 5815   0.991   2.272   4.966
 1720SOL    HW1 5816   0.914   2.306   5.020
 1720SOL    HW2 5817   0.957   2.221   4.887
 1721SOL     OW 5818   1.041   2.563   4.153
 1721SOL    HW1 5819   1.067   2.559   4.249
 1721SOL    HW2 5820   0.956   2.512   4.139
 1722SOL     OW 5821   0.076   2.673   4.513
 1722SOL    HW1 5822   0.175   2.661   4.522
 1722SOL    HW2 5823   0.052   2.768   4.534
 1723SOL     OW 5824   0.130   3.683   5.295
 1723SOL    HW1 5825   0.120   3.668   5.394
 1723SOL    HW2 5826   0.044   3.719   5.259
 1724SOL     OW 5827   0.865   2.210   3.919
 1724SOL    HW1 5828   0.924   2.273   3.870
 1724SOL    HW2 5829   0.884   2.116   3.890
 1725SOL     OW 5830   1.362   3.006   4.269
 1725SOL    HW1 5831   1.445   2.977   4.221
 1725SOL    HW2 5832   1.313   3.073   4.213
 1726SOL     OW 5833   0.550   2.058   4.609
 1726SOL    HW1 5834   0.545   2.053   4.709
 1726SOL    HW2 5835   0.552   2.154   4.580
 1727SOL     OW 5836   1.008   3.318   4.201
 1727SOL    HW1 5837   0.962   3.390   4.149
 1727SOL    HW2 5838   1.004   3.338   4.299
 1728SOL     OW 5839   0.351   3.663   4.577
 1728SOL    HW1 5840   0.401   3.577   4.583
 1728SOL    HW2 5841   0.416   3.740   4.574
 1729SOL     OW 5842   1.795   2.928   4.597
 1729SOL    HW1 5843   1.733   2.913   4.521
 1729SOL    HW2 5844   1.743   2.939   4.682
 1730SOL     OW 5845   1.227   3.412   5.230
 1730SOL    HW1 5846   1.233   3.335   5.294
 1730SOL    HW2 5847   1.175   3.386   5.150
 1731SOL     OW 5848   0.321   2.805   3.966
 1731SOL    HW1 5849   0.403   2.844   3.924
 1731SOL    HW2 5850   0.294   2.723   3.917
 1732SOL     OW 5851   1.458   2.597   4.452
 1732SOL    HW1 5852   1.453   2.532   4.527
 1732SOL    HW2 5853   1.538   2.656   4.465
 1733SOL     OW 5854   0.461   3.128   5.451
 1733SOL    HW1 5855   0.411   3.129   5.365
 1733SOL    HW2 5856   0.398   3.110   5.527
 1734SOL     OW 5857   1.111   3.638   3.961
 1734SOL    HW1 5858   1.051   3.576   4.011
 1734SOL    HW2 5859   1.142   3.594   3.876
 1735SOL     OW 5860   0.202   2.147   5.222
 1735SOL    HW1 5861   0.122   2.207   5.209
 1735SOL    HW2 5862   0.192   2.098   5.308
 1736SOL     OW 5863   1.632   3.239   3.805
 1736SOL    HW1 5864   1.600   3.333   3.795
 1736SOL    HW2 5865   1.556   3.176   3.793
 1737SOL     OW 5866   0.464   3.605   4.047
 1737SOL    HW1 5867   0.497   3.644   4.133
 1737SOL    HW2 5868   0.540   3.598   3.982
 1738SOL     OW 5869   1.400   1.969   4.150
 1738SOL    HW1 5870   1.376   1.932   4.060
 1738SOL    HW2 5871   1.499   1.985   4.154
 1739SOL     OW 5872   0.249   3.647   4.965
 1739SOL    HW1 5873   0.306   3.582   5.015
 1739SOL    HW2 5874   0.233   3.614   4.872
 1740SOL     OW 5875   0.940   3.560   4.628
 1740SOL    HW1 5876   1.020   3.503   4.649
 1740SOL    HW2 5877   0.891   3.520   4.551
 1741SOL     OW 5878   0.382   2.562   4.204
 1741SOL    HW1 5879   0.427   2.472   4.201
 1741SOL    HW2 5880   0.288   2.551   4.237
 1742SOL     OW 5881   0.614   1.984   3.841
 1742SOL    HW1 5882   0.712   1.962   3.848
 1742SOL    HW2 5883   0.583   1.967   3.748
 1743SOL     OW 5884   0.781   2.126   5.473
 1743SOL    HW1 5885   0.848   2.065   5.516
 1743SOL    HW2 5886   0.708   2.145   5.538
 1744SOL     OW 5887   0.888   3.376   4.919
 1744SOL    HW1 5888   0.865   3.351   4.825
 1744SOL    HW2 5889   0.949   3.307   4.958
 1745SOL     OW 5890   1.351   2.452   5.157
 1745SOL    HW1 5891   1.379   2.409   5.242
 1745SOL    HW2 5892   1.376   2.548   5.158
 1746SOL     OW 5893   0.803   3.264   4.648
 1746SOL    HW1 5894   0.893   3.278   4.606
 1746SOL    HW2 5895   0.732   3.266   4.577
 1747SOL     OW 5896   0.922   2.365   4.623
 1747SOL    HW1 5897   0.897   2.356   4.527
 1747SOL    HW2 5898   0.970   2.283   4.654
 1748SOL     OW 5899   0.539   1.926   4.236
 1748SOL    HW1 5900   0.458   1.927   4.294
 1748SOL    HW2 5901   0.542   2.009   4.181
 1749SOL     OW 5902   1.434   3.050   3.765
 1749SOL    HW1 5903   1.466   2.974   3.822
 1749SOL    HW2 5904   1.342   3.077   3.795
 1750SOL     OW 5905   0.297   1.897   3.895
 1750SOL    HW1 5906   0.346   1.981   3.874
 1750SOL    HW2 5907   0.359   1.832   3.940
 1751SOL     OW 5908   0.935   2.098   4.204
 1751SOL    HW1 5909   0.887   2.139   4.126
 1751SOL    HW2 5910   1.034   2.096   4.185
 1752SOL     OW 5911   1.076   2.545   5.188
 1752SOL    HW1 5912   0.996   2.484   5.191
 1752SOL    HW2 5913   1.157   2.492   5.164
 1753SOL     OW 5914   1.227   3.432   4.517
 1753SOL    HW1 5915   1.248   3.506   4.452
 1753SOL    HW2 5916   1.295   3.432   4.590
 1754SOL     OW 5917   0.459   3.014   4.465
 1754SOL    HW1 5918   0.388   2.987   4.530
 1754SOL    HW2 5919   0.433   2.986   4.372
 1755SOL     OW 5920   1.271   3.659   4.315
 1755SOL    HW1 5921   1.315   3.723   4.251
 1755SOL    HW2 5922   1.221   3.711   4.385
 1756SOL     OW 5923   1.032   2.411   3.740
 1756SOL    HW1 5924   0.991   2.493   3.701
 1756SOL    HW2 5925   1.096   2.437   3.813
 1757SOL     OW 5926   0.078   2.418   5.110
 1757SOL    HW1 5927   0.170   2.417   5.069
 1757SOL    HW2 5928   0.072   2.492   5.177
 1758SOL     OW 5929   0.561   2.084   4.871
 1758SOL    HW1 5930   0.599   2.000   4.908
 1758SOL    HW2 5931   0.473   2.103   4.915
 1759SOL     OW 5932   0.866   2.316   4.366
 1759SOL    HW1 5933   0.834   2.388   4.304
 1759SOL    HW2 5934   0.890   2.235   4.313
 1760SOL     OW 5935   1.017   1.901   4.477
 1760SOL    HW1 5936   0.945   1.906   4.408
 1760SOL    HW2 5937   0.993   1.832   4.546
 1761SOL     OW 5938   1.429   3.035   4.591
 1761SOL    HW1 5939   1.374   2.951   4.584
 1761SOL    HW2 5940   1.455   3.064   4.499
 1762SOL     OW 5941   1.466   2.452   4.716
 1762SOL    HW1 5942   1.436   2.357   4.723
 1762SOL    HW2 5943   1.539   2.468   4.782
 1763SOL     OW 5944   1.857   2.695   4.101
 1763SOL    HW1 5945   1.899   2.631   4.165
 1763SOL    HW2 5946   1.819   2.644   4.023
 1764SOL     OW 5947   0.488   3.247   3.898
 1764SOL    HW1 5948   0.401   3.232   3.945
 1764SOL    HW2 5949   0.471   3.273   3.803
 1765SOL     OW 5950   1.664   3.142   4.381
 1765SOL    HW1 5951   1.763   3.150   4.395
 1765SOL    HW2 5952   1.619   3.226   4.412
 1766SOL     OW 5953   1.390   2.437   3.802
 1766SOL    HW1 5954   1.336   2.416   3.883
 1766SOL    HW2 5955   1.481   2.396   3.811
 1767SOL     OW 5956   0.527   2.118   4.052
 1767SOL    HW1 5957   0.554   2.059   3.977
 1767SOL    HW2 5958   0.527   2.213   4.021
 1768SOL     OW 5959   1.064   3.209   5.064
 1768SOL    HW1 5960   0.984   3.186   5.119
 1768SOL    HW2 5961   1.147   3.183   5.113
 1769SOL     OW 5962   1.592   3.491   5.349
 1769SOL    HW1 5963   1.619   3.525   5.259
 1769SOL    HW2 5964   1.671   3.453   5.395
 1770SOL     OW 5965   1.111   3.057   4.824
 1770SOL    HW1 5966   1.071   3.101   4.905
 1770SOL    HW2 5967   1.070   3.094   4.741
 1771SOL     OW 5968   1.638   2.961   4.803
 1771SOL    HW1 5969   1.643   3.042   4.862
 1771SOL    HW2 5970   1.552   2.963   4.752
 1772SOL     OW 5971   0.915   1.951   5.126
 1772SOL    HW1 5972   0.940   1.931   5.031
 1772SOL    HW2 5973   0.987   2.007   5.168
 1773SOL     OW 5974   0.980   2.978   5.443
 1773SOL    HW1 5975   0.881   2.984   5.453
 1773SOL    HW2 5976   1.003   2.898   5.387
 1774SOL     OW 5977   0.705   2.912   4.092
 1774SOL    HW1 5978   0.691   2.919   4.191
 1774SOL    HW2 5979   0.789   2.861   4.074
 1775SOL     OW 5980   0.410   2.675   4.975
 1775SOL    HW1 5981   0.496   2.687   5.025
 1775SOL    HW2 5982   0.368   2.588   5.002
 1776SOL     OW 5983   1.274   2.248   4.986
 1776SOL    HW1 5984   1.295   2.322   5.050
 1776SOL    HW2 5985   1.185   2.265   4.943
 1777SOL     OW 5986   0.064   3.426   5.055
 1777SOL    HW1 5987   0.018   3.508   5.021
 1777SOL    HW2 5988   0.162   3.445   5.064
 1778SOL     OW 5989   0.367   2.962   4.225
 1778SOL    HW1 5990   0.360   3.045   4.169
 1778SOL    HW2 5991   0.371   2.882   4.165
 1779SOL     OW 5992   0.566   2.399   4.589
 1779SOL    HW1 5993   0.578   2.465   4.515
 1779SOL    HW2 5994   0.612   2.433   4.672
 1780SOL     OW 5995   1.252   3.210   4.112
 1780SOL    HW1 5996   1.302   3.287   4.152
 1780SOL    HW2 5997   1.157   3.212   4.144
 1781SOL     OW 5998   1.272   3.307   4.866
 1781SOL    HW1 5999   1.319   3.320   4.953
 1781SOL    HW2 6000   1.206   3.233   4.875
 1782SOL     OW 6001   1.582   2.501   4.196
 1782SOL    HW1 6002   1.551   2.562   4.269
 1782SOL    HW2 6003   1.632   2.553   4.127
 1783SOL     OW 6004   0.354   3.372   5.053
 1783SOL    HW1 6005   0.333   3.328   4.966
 1783SOL    HW2 6006   0.451   3.398   5.056
 1784SOL     OW 6007   0.402   2.613   5.322
 1784SOL    HW1 6008   0.470   2.668   5.275
 1784SOL    HW2 6009   0.442   2.525   5.349
 1785SOL     OW 6010   1.013   1.967   5.494
 1785SOL    HW1 6011   1.019   2.052   5.442
 1785SOL    HW2 6012   1.045   1.891   5.437
 1786SOL     OW 6013   0.504   1.912   5.464
 1786SOL    HW1 6014   0.462   1.855   5.394
 1786SOL    HW2 6015   0.438   1.981   5.496
 1787SOL     OW 6016   0.573   2.732   4.753
 1787SOL    HW1 6017   0.617   2.821   4.744
 1787SOL    HW2 6018   0.510   2.732   4.830
 1788SOL     OW 6019   1.360   2.724   4.769
 1788SOL    HW1 6020   1.285   2.724   4.703
 1788SOL    HW2 6021   1.397   2.632   4.778
 1789SOL     OW 6022   1.209   2.387   3.999
 1789SOL    HW1 6023   1.222   2.303   4.053
 1789SOL    HW2 6024   1.180   2.461   4.059
 1790SOL     OW 6025   0.307   2.075   4.955
 1790SOL    HW1 6026   0.284   2.112   5.045
 1790SOL    HW2 6027   0.277   1.980   4.949
 1791SOL     OW 6028   0.037   3.172   5.006
 1791SOL    HW1 6029   0.090   3.123   5.074
 1791SOL    HW2 6030   0.059   3.270   5.011
 1792SOL     OW 6031   0.732   2.496   4.788
 1792SOL    HW1 6032   0.791   2.470   4.712
 1792SOL    HW2 6033   0.704   2.592   4.777
 1793SOL     OW 6034   0.307   1.925   4.342
 1793SOL    HW1 6035   0.296   2.019   4.375
 1793SOL    HW2 6036   0.302   1.862   4.419
 1794SOL     OW 6037   1.622   2.229   4.098
 1794SOL    HW1 6038   1.624   2.153   4.162
 1794SOL    HW2 6039   1.574   2.306   4.138
 1795SOL     OW 6040   1.023   2.628   4.690
 1795SOL    HW1 6041   1.038   2.649   4.786
 1795SOL    HW2 6042   0.993   2.533   4.681
 1796SOL     OW 6043   0.980   3.435   5.424
 1796SOL    HW1 6044   0.960   3.479   5.336
 1796SOL    HW2 6045   1.019   3.344   5.408
 1797SOL     OW 6046   1.859   3.380   5.329
 1797SOL    HW1 6047   1.873   3.407   5.234
 1797SOL    HW2 6048   1.942   3.402   5.382
 1798SOL     OW 6049   0.350   2.760   5.528
 1798SOL    HW1 6050   0.426   2.804   5.576
 1798SOL    HW2 6051   0.385   2.713   5.446
 1799SOL     OW 6052   1.540   2.136   3.849
 1799SOL    HW1 6053   1.479   2.061   3.872
 1799SOL    HW2 6054   1.562   2.188   3.932
 1800SOL     OW 6055   1.303   2.700   3.766
 1800SOL    HW1 6056   1.337   2.607   3.781
 1800SOL    HW2 6057   1.321   2.727   3.671
 1801SOL     OW 6058   1.068   3.195   4.573
 1801SOL    HW1 6059   1.075   3.111   4.518
 1801SOL    HW2 6060   1.130   3.264   4.537
 1802SOL     OW 6061   0.319   2.672   4.673
 1802SOL    HW1 6062   0.412   2.708   4.678
 1802SOL    HW2 6063   0.313   2.587   4.725
 1803SOL     OW 6064   0.339   2.371   4.730
 1803SOL    HW1 6065   0.287   2.288   4.713
 1803SOL    HW2 6066   0.416   2.376   4.666
 1804SOL     OW 6067   1.160   2.069   5.201
 1804SOL    HW1 6068   1.160   2.133   5.278
 1804SOL    HW2 6069   1.188   2.117   5.118
 1805SOL     OW 6070   0.008   3.188   3.924
 1805SOL    HW1 6071  -0.085   3.209   3.893
 1805SOL    HW2 6072   0.018   3.089   3.937
 1806SOL     OW 6073   0.088   3.663   4.651
 1806SOL    HW1 6074   0.046   3.577   4.624
 1806SOL    HW2 6075   0.182   3.666   4.617
 1807SOL     OW 6076   0.504   3.430   4.634
 1807SOL    HW1 6077   0.570   3.504   4.643
 1807SOL    HW2 6078   0.548   3.351   4.592
 1808SOL     OW 6079   1.002   2.658   4.962
 1808SOL    HW1 6080   1.043   2.626   5.048
 1808SOL    HW2 6081   0.906   2.631   4.959
 1809SOL     OW 6082   0.040   2.406   4.838
 1809SOL    HW1 6083   0.125   2.373   4.797
 1809SOL    HW2 6084   0.053   2.421   4.936
 1810SOL     OW 6085   0.189   2.382   5.446
 1810SOL    HW1 6086   0.248   2.342   5.376
 1810SOL    HW2 6087   0.131   2.453   5.405
 1811SOL     OW 6088   0.815   2.434   4.049
 1811SOL    HW1 6089   0.822   2.345   4.003
 1811SOL    HW2 6090   0.721   2.468   4.041
 1812SOL     OW 6091   1.657   2.466   4.930
 1812SOL    HW1 6092   1.619   2.397   4.992
 1812SOL    HW2 6093   1.739   2.430   4.886
 1813SOL     OW 6094   0.252   3.426   5.468
 1813SOL    HW1 6095   0.222   3.483   5.544
 1813SOL    HW2 6096   0.245   3.329   5.494
 1814SOL     OW 6097   0.671   2.326   4.993
 1814SOL    HW1 6098   0.637   2.237   4.963
 1814SOL    HW2 6099   0.697   2.380   4.913
 1815SOL     OW 6100   0.930   3.540   5.189
 1815SOL    HW1 6101   0.906   3.522   5.094
 1815SOL    HW2 6102   0.960   3.634   5.199
 1816SOL     OW 6103   0.473   2.362   3.915
 1816SOL    HW1 6104   0.534   2.442   3.919
 1816SOL    HW2 6105   0.378   2.393   3.922
 1817SOL     OW 6106   0.159   2.999   5.190
 1817SOL    HW1 6107   0.181   2.938   5.266
 1817SOL    HW2 6108   0.169   2.950   5.104
 1818SOL     OW 6109   1.347   2.921   4.958
 1818SOL    HW1 6110   1.371   2.858   4.884
 1818SOL    HW2 6111   1.257   2.961   4.940
 1819SOL     OW 6112   1.302   2.717   4.033
 1819SOL    HW1 6113   1.216   2.686   4.075
 1819SOL    HW2 6114   1.298   2.703   3.934
 1820SOL     OW 6115   1.759   3.609   4.878
 1820SOL    HW1 6116   1.820   3.639   4.805
 1820SOL    HW2 6117   1.721   3.520   4.856
 1821SOL     OW 6118   1.252   3.593   4.852
 1821SOL    HW1 6119   1.336   3.598   4.798
 1821SOL    HW2 6120   1.229   3.497   4.870
 1822SOL     OW 6121   0.083   3.120   4.746
 1822SOL    HW1 6122   0.078   3.119   4.846
 1822SOL    HW2 6123   0.000   3.079   4.708
 1823SOL     OW 6124   0.688   3.524   5.440
 1823SOL    HW1 6125   0.632   3.605   5.449
 1823SOL    HW2 6126   0.740   3.528   5.354
 1824SOL     OW 6127   1.726   1.997   4.247
 1824SOL    HW1 6128   1.799   1.980   4.180
 1824SOL    HW2 6129   1.695   1.910   4.285
 1825SOL     OW 6130   1.388   3.435   4.201
 1825SOL    HW1 6131   1.455   3.447   4.127
 1825SOL    HW2 6132   1.348   3.524   4.224
 1826SOL     OW 6133   0.130   3.656   5.575
 1826SOL    HW1 6134   0.089   3.582   5.628
 1826SOL    HW2 6135   0.194   3.707   5.633
 1827SOL     OW 6136   1.280   2.789   4.396
 1827SOL    HW1 6137   1.340   2.708   4.398
 1827SOL    HW2 6138   1.320   2.858   4.336
 1828SOL     OW 6139   0.830   3.135   5.146
 1828SOL    HW1 6140   0.825   3.168   5.241
 1828SOL    HW2 6141   0.744   3.154   5.100
 1829SOL     OW 6142   0.672   3.478   3.878
 1829SOL    HW1 6143   0.681   3.488   3.779
 1829SOL    HW2 6144   0.632   3.389   3.899
 1830SOL     OW 6145   1.650   3.582   5.118
 1830SOL    HW1 6146   1.703   3.592   5.034
 1830SOL    HW2 6147   1.623   3.672   5.152
 1831SOL     OW 6148   1.841   2.037   4.687
 1831SOL    HW1 6149   1.880   1.952   4.651
 1831SOL    HW2 6150   1.743   2.039   4.668
 1832SOL     OW 6151   0.263   2.188   4.444
 1832SOL    HW1 6152   0.184   2.239   4.410
 1832SOL    HW2 6153   0.254   2.173   4.542
 1833SOL     OW 6154   1.194   3.474   3.755
 1833SOL    HW1 6155   1.200   3.381   3.792
 1833SOL    HW2 6156   1.135   3.474   3.675
 1834SOL     OW 6157   0.822   2.864   5.096
 1834SOL    HW1 6158   0.862   2.863   5.004
 1834SOL    HW2 6159   0.832   2.956   5.136
 1835SOL     OW 6160   0.916   2.772   4.015
 1835SOL    HW1 6161   0.979   2.810   3.947
 1835SOL    HW2 6162   0.956   2.689   4.054
 1836SOL     OW 6163   1.504   3.469   3.768
 1836SOL    HW1 6164   1.412   3.506   3.775
 1836SOL    HW2 6165   1.542   3.489   3.678
 1837SOL     OW 6166   0.372   3.150   5.214
 1837SOL    HW1 6167   0.359   3.243   5.180
 1837SOL    HW2 6168   0.288   3.098   5.201
 1838SOL     OW 6169   1.614   3.154   5.013
 1838SOL    HW1 6170   1.674   3.157   5.093
 1838SOL    HW2 6171   1.539   3.218   5.026
 1839SOL     OW 6172   1.039   2.960   4.420
 1839SOL    HW1 6173   0.969   2.913   4.474
 1839SOL    HW2 6174   1.098   2.892   4.377
 1840SOL     OW 6175   1.014   2.098   4.695
 1840SOL    HW1 6176   1.006   2.062   4.602
 1840SOL    HW2 6177   1.012   2.022   4.760
 1841SOL     OW 6178   0.590   3.349   4.215
 1841SOL    HW1 6179   0.632   3.291   4.145
 1841SOL    HW2 6180   0.546   3.428   4.171
 1842SOL     OW 6181   0.255   3.210   4.014
 1842SOL    HW1 6182   0.159   3.211   3.987
 1842SOL    HW2 6183   0.267   3.263   4.098
 1843SOL     OW 6184   0.105   2.875   5.450
 1843SOL    HW1 6185   0.028   2.842   5.504
 1843SOL    HW2 6186   0.190   2.845   5.492
 1844SOL     OW 6187   0.672   2.065   5.213
 1844SOL    HW1 6188   0.762   2.049   5.173
 1844SOL    HW2 6189   0.680   2.070   5.312
 1845SOL     OW 6190   0.075   2.207   3.757
 1845SOL    HW1 6191  -0.017   2.179   3.728
 1845SOL    HW2 6192   0.106   2.284   3.701
 1846SOL     OW 6193   1.440   2.718   5.122
 1846SOL    HW1 6194   1.383   2.770   5.059
 1846SOL    HW2 6195   1.536   2.730   5.098
 1847SOL     OW 6196   0.072   2.028   4.042
 1847SOL    HW1 6197   0.055   2.111   3.988
 1847SOL    HW2 6198   0.162   1.991   4.020
 1848SOL     OW 6199   1.183   3.197   3.843
 1848SOL    HW1 6200   1.084   3.186   3.845
 1848SOL    HW2 6201   1.217   3.212   3.936
 1849SOL     OW 6202   0.613   2.704   5.155
 1849SOL    HW1 6203   0.669   2.785   5.138
 1849SOL    HW2 6204   0.672   2.624   5.158
 1850SOL     OW 6205   1.493   3.629   4.683
 1850SOL    HW1 6206   1.526   3.693   4.614
 1850SOL    HW2 6207   1.559   3.623   4.758
 1851SOL     OW 6208   0.716   2.427   5.432
 1851SOL    HW1 6209   0.735   2.492   5.506
 1851SOL    HW2 6210   0.776   2.347   5.441
 1852SOL     OW 6211   1.450   3.082   5.357
 1852SOL    HW1 6212   1.441   3.072   5.456
 1852SOL    HW2 6213   1.546   3.075   5.331
 1853SOL     OW 6214   0.390   3.603   5.284
 1853SOL    HW1 6215   0.299   3.644   5.282
 1853SOL    HW2 6216   0.383   3.509   5.316
 1854SOL     OW 6217   1.674   2.745   4.978
 1854SOL    HW1 6218   1.647   2.656   4.941
 1854SOL    HW2 6219   1.675   2.813   4.905
 1855SOL     OW 6220   1.225   2.187   4.173
 1855SOL    HW1 6221   1.290   2.113   4.162
 1855SOL    HW2 6222   1.245   2.237   4.257
 1856SOL     OW 6223   0.594   2.607   4.376
 1856SOL    HW1 6224   0.644   2.692   4.357
 1856SOL    HW2 6225   0.506   2.609   4.328
 1857SOL     OW 6226   0.859   3.236   3.740
 1857SOL    HW1 6227   0.813   3.251   3.828
 1857SOL    HW2 6228   0.903   3.321   3.710
 1858SOL     OW 6229   0.661   3.652   4.677
 1858SOL    HW1 6230   0.615   3.740   4.664
 1858SOL    HW2 6231   0.760   3.664   4.670
 1859SOL     OW 6232   0.859   2.818   4.585
 1859SOL    HW1 6233   0.913   2.749   4.633
 1859SOL    HW2 6234   0.827   2.887   4.651
 1860SOL     OW 6235   1.083   2.846   3.811
 1860SOL    HW1 6236   1.060   2.899   3.729
 1860SOL    HW2 6237   1.164   2.790   3.792
 1861SOL     OW 6238   1.861   3.431   4.575
 1861SOL    HW1 6239   1.790   3.419   4.505
 1861SOL    HW2 6240   1.862   3.352   4.635
 1862SOL     OW 6241   0.221   3.176   5.568
 1862SOL    HW1 6242   0.156   3.103   5.547
 1862SOL    HW2 6243   0.225   3.190   5.666
 1863SOL     OW 6244   0.079   3.102   4.377
 1863SOL    HW1 6245   0.078   3.055   4.465
 1863SOL    HW2 6246   0.161   3.074   4.326
 1864SOL     OW 6247   0.672   3.253   5.348
 1864SOL    HW1 6248   0.594   3.203   5.386
 1864SOL    HW2 6249   0.669   3.348   5.379
 1865SOL     OW 6250   1.824   2.054   4.951
 1865SOL    HW1 6251   1.820   1.964   4.995
 1865SOL    HW2 6252   1.827   2.043   4.852
 1866SOL     OW 6253   0.428   2.286   4.244
 1866SOL    HW1 6254   0.458   2.214   4.182
 1866SOL    HW2 6255   0.389   2.246   4.327
 1867SOL     OW 6256   1.705   3.349   4.828
 1867SOL    HW1 6257   1.612   3.324   4.801
 1867SOL    HW2 6258   1.731   3.299   4.910
 1868SOL     OW 6259   0.317   2.409   5.004
 1868SOL    HW1 6260   0.355   2.350   5.076
 1868SOL    HW2 6261   0.357   2.383   4.916
 1869SOL     OW 6262   0.812   3.448   4.411
 1869SOL    HW1 6263   0.844   3.458   4.317
 1869SOL    HW2 6264   0.733   3.386   4.413
 1870SOL     OW 6265   1.424   2.076   4.836
 1870SOL    HW1 6266   1.476   2.011   4.891
 1870SOL    HW2 6267   1.375   2.139   4.897
 1871SOL     OW 6268   1.001   1.896   4.878
 1871SOL    HW1 6269   0.938   1.824   4.847
 1871SOL    HW2 6270   1.094   1.860   4.878
 1872SOL     OW 6271   0.770   3.192   4.025
 1872SOL    HW1 6272   0.724   3.105   4.042
 1872SOL    HW2 6273   0.861   3.189   4.066
 1873SOL     OW 6274   0.618   3.429   5.008
 1873SOL    HW1 6275   0.613   3.511   5.065
 1873SOL    HW2 6276   0.707   3.426   4.963
 1874SOL     OW 6277   1.352   1.914   3.892
 1874SOL    HW1 6278   1.387   1.873   3.808
 1874SOL    HW2 6279   1.262   1.876   3.912
 1875SOL     OW 6280   1.300   2.315   4.415
 1875SOL    HW1 6281   1.241   2.395   4.419
 1875SOL    HW2 6282   1.315   2.280   4.508
 1876SOL     OW 6283   1.593   2.083   4.606
 1876SOL    HW1 6284   1.509   2.082   4.660
 1876SOL    HW2 6285   1.595   2.166   4.550
 1877SOL     OW 6286   0.039   2.939   4.024
 1877SOL    HW1 6287   0.138   2.928   4.015
 1877SOL    HW2 6288  -0.001   2.853   4.056
 1878SOL     OW 6289   0.875   3.508   4.061
 1878SOL    HW1 6290   0.798   3.473   4.007
 1878SOL    HW2 6291   0.843   3.579   4.123
 1879SOL     OW 6292   0.230   2.490   5.699
 1879SOL    HW1 6293   0.137   2.488   5.736
 1879SOL    HW2 6294   0.231   2.451   5.607
 1880SOL     OW 6295   0.225   2.137   6.582
 1880SOL    HW1 6296   0.260   2.120   6.674
 1880SOL    HW2 6297   0.137   2.092   6.570
 1881SOL     OW 6298   0.019   2.230   6.233
 1881SOL    HW1 6299  -0.063   2.273   6.272
 1881SOL    HW2 6300  -0.009   2.157   6.170
 1882SOL     OW 6301   0.569   3.137   6.751
 1882SOL    HW1 6302   0.476   3.130   6.714
 1882SOL    HW2 6303   0.580   3.226   6.795
 1883SOL     OW 6304   1.555   3.373   6.289
 1883SOL    HW1 6305   1.498   3.357   6.370
 1883SOL    HW2 6306   1.496   3.383   6.209
 1884SOL     OW 6307   1.135   2.565   6.303
 1884SOL    HW1 6308   1.192   2.643   6.278
 1884SOL    HW2 6309   1.075   2.591   6.379
 1885SOL     OW 6310   0.768   3.006   6.609
 1885SOL    HW1 6311   0.690   3.023   6.669
 1885SOL    HW2 6312   0.802   3.093   6.573
 1886SOL     OW 6313   0.850   2.660   7.409
 1886SOL    HW1 6314   0.846   2.736   7.474
 1886SOL    HW2 6315   0.872   2.696   7.318
 1887SOL     OW 6316   0.685   2.874   6.251
 1887SOL    HW1 6317   0.754   2.858   6.321
 1887SOL    HW2 6318   0.612   2.931   6.289
 1888SOL     OW 6319   0.686   3.023   7.389
 1888SOL    HW1 6320   0.746   3.102   7.403
 1888SOL    HW2 6321   0.600   3.054   7.348
 1889SOL     OW 6322   0.335   3.297   6.647
 1889SOL    HW1 6323   0.257   3.266   6.594
 1889SOL    HW2 6324   0.393   3.355   6.590
 1890SOL     OW 6325   1.460   3.367   6.925
 1890SOL    HW1 6326   1.484   3.461   6.951
 1890SOL    HW2 6327   1.444   3.313   7.007
 1891SOL     OW 6328   0.438   2.254   7.085
 1891SOL    HW1 6329   0.520   2.198   7.094
 1891SOL    HW2 6330   0.357   2.196   7.089
 1892SOL     OW 6331   1.603   2.309   6.323
 1892SOL    HW1 6332   1.529   2.355   6.273
 1892SOL    HW2 6333   1.654   2.377   6.376
 1893SOL     OW 6334   0.231   3.575   6.069
 1893SOL    HW1 6335   0.265   3.652   6.123
 1893SOL    HW2 6336   0.275   3.575   5.979
 1894SOL     OW 6337   1.127   3.203   7.276
 1894SOL    HW1 6338   1.174   3.203   7.364
 1894SOL    HW2 6339   1.079   3.116   7.265
 1895SOL     OW 6340   0.230   3.296   6.124
 1895SOL    HW1 6341   0.204   3.392   6.124
 1895SOL    HW2 6342   0.159   3.242   6.169
 1896SOL     OW 6343   0.240   2.953   6.472
 1896SOL    HW1 6344   0.254   2.869   6.524
 1896SOL    HW2 6345   0.185   3.017   6.527
 1897SOL     OW 6346   0.620   3.648   7.025
 1897SOL    HW1 6347   0.528   3.631   7.060
 1897SOL    HW2 6348   0.648   3.740   7.051
 1898SOL     OW 6349   0.606   2.826   5.709
 1898SOL    HW1 6350   0.613   2.910   5.655
 1898SOL    HW2 6351   0.652   2.839   5.797
 1899SOL     OW 6352   1.594   1.976   7.066
 1899SOL    HW1 6353   1.576   2.043   6.994
 1899SOL    HW2 6354   1.591   2.022   7.155
 1900SOL     OW 6355   0.122   2.505   6.149
 1900SOL    HW1 6356   0.077   2.417   6.166
 1900SOL    HW2 6357   0.121   2.559   6.233
 1901SOL     OW 6358   1.842   3.629   5.945
 1901SOL    HW1 6359   1.896   3.600   6.025
 1901SOL    HW2 6360   1.872   3.719   5.916
 1902SOL     OW 6361   0.027   3.458   5.703
 1902SOL    HW1 6362   0.008   3.362   5.724
 1902SOL    HW2 6363  -0.006   3.516   5.778
 1903SOL     OW 6364   1.689   2.784   6.198
 1903SOL    HW1 6365   1.784   2.755   6.206
 1903SOL    HW2 6366   1.681   2.849   6.123
 1904SOL     OW 6367   1.641   2.970   6.018
 1904SOL    HW1 6368   1.727   2.972   5.966
 1904SOL    HW2 6369   1.655   3.017   6.106
 1905SOL     OW 6370   0.113   2.599   7.183
 1905SOL    HW1 6371   0.201   2.586   7.228
 1905SOL    HW2 6372   0.100   2.696   7.161
 1906SOL     OW 6373   0.613   3.227   6.312
 1906SOL    HW1 6374   0.564   3.140   6.321
 1906SOL    HW2 6375   0.590   3.270   6.225
 1907SOL     OW 6376   1.293   3.090   7.009
 1907SOL    HW1 6377   1.330   3.017   6.951
 1907SOL    HW2 6378   1.345   3.095   7.094
 1908SOL     OW 6379   0.809   1.866   6.088
 1908SOL    HW1 6380   0.849   1.957   6.079
 1908SOL    HW2 6381   0.709   1.874   6.094
 1909SOL     OW 6382   0.197   2.838   6.850
 1909SOL    HW1 6383   0.286   2.793   6.836
 1909SOL    HW2 6384   0.124   2.773   6.831
 1910SOL     OW 6385   1.187   3.654   7.202
 1910SOL    HW1 6386   1.211   3.714   7.126
 1910SOL    HW2 6387   1.194   3.559   7.172
 1911SOL     OW 6388   0.317   2.113   7.387
 1911SOL    HW1 6389   0.388   2.184   7.393
 1911SOL    HW2 6390   0.229   2.152   7.415
 1912SOL     OW 6391   1.466   3.279   6.539
 1912SOL    HW1 6392   1.407   3.285   6.619
 1912SOL    HW2 6393   1.451   3.191   6.493
 1913SOL     OW 6394   1.667   3.576   6.158
 1913SOL    HW1 6395   1.626   3.553   6.070
 1913SOL    HW2 6396   1.649   3.502   6.223
 1914SOL     OW 6397   0.598   2.591   5.856
 1914SOL    HW1 6398   0.622   2.660   5.788
 1914SOL    HW2 6399   0.520   2.624   5.910
 1915SOL     OW 6400   1.281   2.207   6.530
 1915SOL    HW1 6401   1.195   2.157   6.517
 1915SOL    HW2 6402   1.343   2.153   6.586
 1916SOL     OW 6403   1.576   3.524   5.893
 1916SOL    HW1 6404   1.665   3.570   5.896
 1916SOL    HW2 6405   1.555   3.500   5.798
 1917SOL     OW 6406   0.807   2.467   7.051
 1917SOL    HW1 6407   0.760   2.464   7.140
 1917SOL    HW2 6408   0.756   2.412   6.985
 1918SOL     OW 6409   1.394   2.331   7.260
 1918SOL    HW1 6410   1.374   2.374   7.348
 1918SOL    HW2 6411   1.472   2.269   7.269
 1919SOL     OW 6412   0.973   2.752   7.158
 1919SOL    HW1 6413   1.019   2.668   7.129
 1919SOL    HW2 6414   0.917   2.786   7.083
 1920SOL     OW 6415   0.991   2.272   6.828
 1920SOL    HW1 6416   0.914   2.306   6.882
 1920SOL    HW2 6417   0.957   2.221   6.749
 1921SOL     OW 6418   1.041   2.563   6.015
 1921SOL    HW1 6419   1.067   2.559   6.111
 1921SOL    HW2 6420   0.956   2.512   6.001
 1922SOL     OW 6421   0.076   2.673   6.375
 1922SOL    HW1 6422   0.175   2.661   6.384
 1922SOL    HW2 6423   0.052   2.768   6.396
 1923SOL     OW 6424   0.130   3.683   7.157
 1923SOL    HW1 6425   0.120   3.668   7.256
 1923SOL    HW2 6426   0.044   3.719   7.121
 1924SOL     OW 6427   0.865   2.210   5.781
 1924SOL    HW1 6428   0.924   2.273   5.732
 1924SOL    HW2 6429   0.884   2.116   5.752
 1925SOL     OW 6430   1.719   2.447   7.417
 1925SOL    HW1 6431   1.693   2.536   7.381
 1925SOL    HW2 6432   1.717   2.379   7.344
 1926SOL     OW 6433   1.362   3.006   6.131
 1926SOL    HW1 6434   1.445   2.977   6.083
 1926SOL    HW2 6435   1.313   3.073   6.075
 1927SOL     OW 6436   0.550   2.058   6.471
 1927SOL    HW1 6437   0.545   2.053   6.571
 1927SOL    HW2 6438   0.552   2.154   6.442
 1928SOL     OW 6439   1.008   3.318   6.063
 1928SOL    HW1 6440   0.962   3.390   6.011
 1928SOL    HW2 6441   1.004   3.338   6.161
 1929SOL     OW 6442   0.351   3.663   6.439
 1929SOL    HW1 6443   0.401   3.577   6.445
 1929SOL    HW2 6444   0.416   3.740   6.436
 1930SOL     OW 6445   1.795   2.928   6.459
 1930SOL    HW1 6446   1.733   2.913   6.383
 1930SOL    HW2 6447   1.743   2.939   6.544
 1931SOL     OW 6448   1.227   3.412   7.092
 1931SOL    HW1 6449   1.233   3.335   7.156
 1931SOL    HW2 6450   1.175   3.386   7.012
 1932SOL     OW 6451   0.321   2.805   5.828
 1932SOL    HW1 6452   0.403   2.844   5.786
 1932SOL    HW2 6453   0.294   2.723   5.779
 1933SOL     OW 6454   1.458   2.597   6.314
 1933SOL    HW1 6455   1.453   2.532   6.389
 1933SOL    HW2 6456   1.538   2.656   6.327
 1934SOL     OW 6457   0.461   3.128   7.313
 1934SOL    HW1 6458   0.411   3.129   7.227
 1934SOL    HW2 6459   0.398   3.110   7.389
 1935SOL     OW 6460   1.111   3.638   5.823
 1935SOL    HW1 6461   1.051   3.576   5.873
 1935SOL    HW2 6462   1.142   3.594   5.738
 1936SOL     OW 6463   0.202   2.147   7.084
 1936SOL    HW1 6464   0.122   2.207   7.071
 1936SOL    HW2 6465   0.192   2.098   7.170
 1937SOL     OW 6466   1.632   3.239   5.667
 1937SOL    HW1 6467   1.600   3.333   5.657
 1937SOL    HW2 6468   1.556   3.176   5.655
 1938SOL     OW 6469   0.464   3.605   5.909
 1938SOL    HW1 6470   0.497   3.644   5.995
 1938SOL    HW2 6471   0.540   3.598   5.844
 1939SOL     OW 6472   0.249   3.647   6.827
 1939SOL    HW1 6473   0.306   3.582   6.877
 1939SOL    HW2 6474   0.233   3.614   6.734
 1940SOL     OW 6475   0.940   3.560   6.490
 1940SOL    HW1 6476   1.020   3.503   6.511
 1940SOL    HW2 6477   0.891   3.520   6.413
 1941SOL     OW 6478   0.382   2.562   6.066
 1941SOL    HW1 6479   0.427   2.472   6.063
 1941SOL    HW2 6480   0.288   2.551   6.099
 1942SOL     OW 6481   1.547   2.084   7.315
 1942SOL    HW1 6482   1.542   2.121   7.407
 1942SOL    HW2 6483   1.475   2.015   7.303
 1943SOL     OW 6484   0.614   1.984   5.703
 1943SOL    HW1 6485   0.712   1.962   5.710
 1943SOL    HW2 6486   0.583   1.967   5.610
 1944SOL     OW 6487   0.781   2.126   7.335
 1944SOL    HW1 6488   0.848   2.065   7.378
 1944SOL    HW2 6489   0.708   2.145   7.400
 1945SOL     OW 6490   0.888   3.376   6.781
 1945SOL    HW1 6491   0.865   3.351   6.687
 1945SOL    HW2 6492   0.949   3.307   6.820
 1946SOL     OW 6493   1.351   2.452   7.019
 1946SOL    HW1 6494   1.379   2.409   7.104
 1946SOL    HW2 6495   1.376   2.548   7.020
 1947SOL     OW 6496   0.803   3.264   6.510
 1947SOL    HW1 6497   0.893   3.278   6.468
 1947SOL    HW2 6498   0.732   3.266   6.439
 1948SOL     OW 6499   0.922   2.365   6.485
 1948SOL    HW1 6500   0.897   2.356   6.389
 1948SOL    HW2 6501   0.970   2.283   6.516
 1949SOL     OW 6502   0.539   1.926   6.098
 1949SOL    HW1 6503   0.458   1.927   6.156
 1949SOL    HW2 6504   0.542   2.009   6.043
 1950SOL     OW 6505   0.297   1.897   5.757
 1950SOL    HW1 6506   0.346   1.981   5.736
 1950SOL    HW2 6507   0.359   1.832   5.802
 1951SOL     OW 6508   0.935   2.098   6.066
 1951SOL    HW1 6509   0.887   2.139   5.988
 1951SOL    HW2 6510   1.034   2.096   6.047
 1952SOL     OW 6511   1.076   2.545   7.050
 1952SOL    HW1 6512   0.996   2.484   7.053
 1952SOL    HW2 6513   1.157   2.492   7.026
 1953SOL     OW 6514   1.227   3.432   6.379
 1953SOL    HW1 6515   1.248   3.506   6.314
 1953SOL    HW2 6516   1.295   3.432   6.452
 1954SOL     OW 6517   0.459   3.014   6.327
 1954SOL    HW1 6518   0.388   2.987   6.392
 1954SOL    HW2 6519   0.433   2.986   6.234
 1955SOL     OW 6520   1.271   3.659   6.177
 1955SOL    HW1 6521   1.315   3.723   6.113
 1955SOL    HW2 6522   1.221   3.711   6.247
 1956SOL     OW 6523   1.032   2.411   5.602
 1956SOL    HW1 6524   0.991   2.493   5.563
 1956SOL    HW2 6525   1.096   2.437   5.675
 1957SOL     OW 6526   0.078   2.418   6.972
 1957SOL    HW1 6527   0.170   2.417   6.931
 1957SOL    HW2 6528   0.072   2.492   7.039
 1958SOL     OW 6529   0.561   2.084   6.733
 1958SOL    HW1 6530   0.599   2.000   6.770
 1958SOL    HW2 6531   0.473   2.103   6.777
 1959SOL     OW 6532   0.866   2.316   6.228
 1959SOL    HW1 6533   0.834   2.388   6.166
 1959SOL    HW2 6534   0.890   2.235   6.175
 1960SOL     OW 6535   1.017   1.901   6.339
 1960SOL    HW1 6536   0.945   1.906   6.270
 1960SOL    HW2 6537   0.993   1.832   6.408
 1961SOL     OW 6538   1.429   3.035   6.453
 1961SOL    HW1 6539   1.374   2.951   6.446
 1961SOL    HW2 6540   1.455   3.064   6.361
 1962SOL     OW 6541   1.466   2.452   6.578
 1962SOL    HW1 6542   1.436   2.357   6.585
 1962SOL    HW2 6543   1.539   2.468   6.644
 1963SOL     OW 6544   0.488   3.247   5.760
 1963SOL    HW1 6545   0.401   3.232   5.807
 1963SOL    HW2 6546   0.471   3.273   5.665
 1964SOL     OW 6547   1.664   3.142   6.243
 1964SOL    HW1 6548   1.763   3.150   6.257
 1964SOL    HW2 6549   1.619   3.226   6.274
 1965SOL     OW 6550   0.527   2.118   5.914
 1965SOL    HW1 6551   0.554   2.059   5.839
 1965SOL    HW2 6552   0.527   2.213   5.883
 1966SOL     OW 6553   1.754   3.085   7.174
 1966SOL    HW1 6554   1.845   3.046   7.161
 1966SOL    HW2 6555   1.762   3.181   7.198
 1967SOL     OW 6556   1.064   3.209   6.926
 1967SOL    HW1 6557   0.984   3.186   6.981
 1967SOL    HW2 6558   1.147   3.183   6.975
 1968SOL     OW 6559   1.592   3.491   7.211
 1968SOL    HW1 6560   1.619   3.525   7.121
 1968SOL    HW2 6561   1.671   3.453   7.257
 1969SOL     OW 6562   1.111   3.057   6.686
 1969SOL    HW1 6563   1.071   3.101   6.767
 1969SOL    HW2 6564   1.070   3.094   6.603
 1970SOL     OW 6565   1.638   2.961   6.665
 1970SOL    HW1 6566   1.643   3.042   6.724
 1970SOL    HW2 6567   1.552   2.963   6.614
 1971SOL     OW 6568   0.915   1.951   6.988
 1971SOL    HW1 6569   0.940   1.931   6.893
 1971SOL    HW2 6570   0.987   2.007   7.030
 1972SOL     OW 6571   0.980   2.978   7.305
 1972SOL    HW1 6572   0.881   2.984   7.315
 1972SOL    HW2 6573   1.003   2.898   7.249
 1973SOL     OW 6574   0.705   2.912   5.954
 1973SOL    HW1 6575   0.691   2.919   6.053
 1973SOL    HW2 6576   0.789   2.861   5.936
 1974SOL     OW 6577   0.410   2.675   6.837
 1974SOL    HW1 6578   0.496   2.687   6.887
 1974SOL    HW2 6579   0.368   2.588   6.864
 1975SOL     OW 6580   1.274   2.248   6.848
 1975SOL    HW1 6581   1.295   2.322   6.912
 1975SOL    HW2 6582   1.185   2.265   6.805
 1976SOL     OW 6583   0.064   3.426   6.917
 1976SOL    HW1 6584   0.018   3.508   6.883
 1976SOL    HW2 6585   0.162   3.445   6.926
 1977SOL     OW 6586   0.367   2.962   6.087
 1977SOL    HW1 6587   0.360   3.045   6.031
 1977SOL    HW2 6588   0.371   2.882   6.027
 1978SOL     OW 6589   0.566   2.399   6.451
 1978SOL    HW1 6590   0.578   2.465   6.377
 1978SOL    HW2 6591   0.612   2.433   6.534
 1979SOL     OW 6592   1.252   3.210   5.974
 1979SOL    HW1 6593   1.302   3.287   6.014
 1979SOL    HW2 6594   1.157   3.212   6.006
 1980SOL     OW 6595   1.272   3.307   6.728
 1980SOL    HW1 6596   1.319   3.320   6.815
 1980SOL    HW2 6597   1.206   3.233   6.737
 1981SOL     OW 6598   0.354   3.372   6.915
 1981SOL    HW1 6599   0.333   3.328   6.828
 1981SOL    HW2 6600   0.451   3.398   6.918
 1982SOL     OW 6601   0.402   2.613   7.184
 1982SOL    HW1 6602   0.470   2.668   7.137
 1982SOL    HW2 6603   0.442   2.525   7.211
 1983SOL     OW 6604   1.587   2.641   7.256
 1983SOL    HW1 6605   1.495   2.679   7.251
 1983SOL    HW2 6606   1.647   2.688   7.191
 1984SOL     OW 6607   1.013   1.967   7.356
 1984SOL    HW1 6608   1.019   2.052   7.304
 1984SOL    HW2 6609   1.045   1.891   7.299
 1985SOL     OW 6610   0.504   1.912   7.326
 1985SOL    HW1 6611   0.462   1.855   7.256
 1985SOL    HW2 6612   0.438   1.981   7.358
 1986SOL     OW 6613   0.573   2.732   6.615
 1986SOL    HW1 6614   0.617   2.821   6.606
 1986SOL    HW2 6615   0.510   2.732   6.692
 1987SOL     OW 6616   1.360   2.724   6.631
 1987SOL    HW1 6617   1.285   2.724   6.565
 1987SOL    HW2 6618   1.397   2.632   6.640
 1988SOL     OW 6619   1.209   2.387   5.861
 1988SOL    HW1 6620   1.222   2.303   5.915
 1988SOL    HW2 6621   1.180   2.461   5.921
 1989SOL     OW 6622   0.307   2.075   6.817
 1989SOL    HW1 6623   0.284   2.112   6.907
 1989SOL    HW2 6624   0.277   1.980   6.811
 1990SOL     OW 6625   0.037   3.172   6.868
 1990SOL    HW1 6626   0.090   3.123   6.936
 1990SOL    HW2 6627   0.059   3.270   6.873
 1991SOL     OW 6628   0.732   2.496   6.650
 1991SOL    HW1 6629   0.791   2.470   6.574
 1991SOL    HW2 6630   0.704   2.592   6.639
 1992SOL     OW 6631   1.728   2.797   7.440
 1992SOL    HW1 6632   1.682   2.790   7.351
 1992SOL    HW2 6633   1.666   2.841   7.506
 1993SOL     OW 6634   0.307   1.925   6.204
 1993SOL    HW1 6635   0.296   2.019   6.237
 1993SOL    HW2 6636   0.302   1.862   6.281
 1994SOL     OW 6637   1.622   2.229   5.960
 1994SOL    HW1 6638   1.624   2.153   6.024
 1994SOL    HW2 6639   1.574   2.306   6.000
 1995SOL     OW 6640   1.023   2.628   6.552
 1995SOL    HW1 6641   1.038   2.649   6.648
 1995SOL    HW2 6642   0.993   2.533   6.543
 1996SOL     OW 6643   0.980   3.435   7.286
 1996SOL    HW1 6644   0.960   3.479   7.198
 1996SOL    HW2 6645   1.019   3.344   7.270
 1997SOL     OW 6646   1.859   3.380   7.191
 1997SOL    HW1 6647   1.873   3.407   7.096
 1997SOL    HW2 6648   1.942   3.402   7.244
 1998SOL     OW 6649   0.350   2.760   7.390
 1998SOL    HW1 6650   0.426   2.804   7.438
 1998SOL    HW2 6651   0.385   2.713   7.308
 1999SOL     OW 6652   1.303   2.700   5.628
 1999SOL    HW1 6653   1.337   2.607   5.643
 1999SOL    HW2 6654   1.321   2.727   5.533
 2000SOL     OW 6655   1.068   3.195   6.435
 2000SOL    HW1 6656   1.075   3.111   6.380
 2000SOL    HW2 6657   1.130   3.264   6.399
 2001SOL     OW 6658   0.319   2.672   6.535
 2001SOL    HW1 6659   0.412   2.708   6.540
 2001SOL    HW2 6660   0.313   2.587   6.587
 2002SOL     OW 6661   0.339   2.371   6.592
 2002SOL    HW1 6662   0.287   2.288   6.575
 2002SOL    HW2 6663   0.416   2.376   6.528
 2003SOL     OW 6664   1.138   2.242   7.264
 2003SOL    HW1 6665   1.093   2.305   7.328
 2003SOL    HW2 6666   1.231   2.273   7.247
 2004SOL     OW 6667   1.160   2.069   7.063
 2004SOL    HW1 6668   1.160   2.133   7.140
 2004SOL    HW2 6669   1.188   2.117   6.980
 2005SOL     OW 6670   0.008   3.188   5.786
 2005SOL    HW1 6671  -0.085   3.209   5.755
 2005SOL    HW2 6672   0.018   3.089   5.799
 2006SOL     OW 6673   0.088   3.663   6.513
 2006SOL    HW1 6674   0.046   3.577   6.486
 2006SOL    HW2 6675   0.182   3.666   6.479
 2007SOL     OW 6676   0.504   3.430   6.496
 2007SOL    HW1 6677   0.570   3.504   6.505
 2007SOL    HW2 6678   0.548   3.351   6.454
 2008SOL     OW 6679   1.002   2.658   6.824
 2008SOL    HW1 6680   1.043   2.626   6.910
 2008SOL    HW2 6681   0.906   2.631   6.821
 2009SOL     OW 6682   0.040   2.406   6.700
 2009SOL    HW1 6683   0.125   2.373   6.659
 2009SOL    HW2 6684   0.053   2.421   6.798
 2010SOL     OW 6685   0.189   2.382   7.308
 2010SOL    HW1 6686   0.248   2.342   7.238
 2010SOL    HW2 6687   0.131   2.453   7.267
 2011SOL     OW 6688   1.369   2.812   7.246
 2011SOL    HW1 6689   1.408   2.901   7.266
 2011SOL    HW2 6690   1.379   2.792   7.149
 2012SOL     OW 6691   0.815   2.434   5.911
 2012SOL    HW1 6692   0.822   2.345   5.865
 2012SOL    HW2 6693   0.721   2.468   5.903
 2013SOL     OW 6694   1.657   2.466   6.792
 2013SOL    HW1 6695   1.619   2.397   6.854
 2013SOL    HW2 6696   1.739   2.430   6.748
 2014SOL     OW 6697   0.252   3.426   7.330
 2014SOL    HW1 6698   0.222   3.483   7.406
 2014SOL    HW2 6699   0.245   3.329   7.356
 2015SOL     OW 6700   0.671   2.326   6.855
 2015SOL    HW1 6701   0.637   2.237   6.825
 2015SOL    HW2 6702   0.697   2.380   6.775
 2016SOL     OW 6703   0.930   3.540   7.051
 2016SOL    HW1 6704   0.906   3.522   6.956
 2016SOL    HW2 6705   0.960   3.634   7.061
 2017SOL     OW 6706   0.473   2.362   5.777
 2017SOL    HW1 6707   0.534   2.442   5.781
 2017SOL    HW2 6708   0.378   2.393   5.784
 2018SOL     OW 6709   0.159   2.999   7.052
 2018SOL    HW1 6710   0.181   2.938   7.128
 2018SOL    HW2 6711   0.169   2.950   6.966
 2019SOL     OW 6712   1.347   2.921   6.820
 2019SOL    HW1 6713   1.371   2.858   6.746
 2019SOL    HW2 6714   1.257   2.961   6.802
 2020SOL     OW 6715   1.302   2.717   5.895
 2020SOL    HW1 6716   1.216   2.686   5.937
 2020SOL    HW2 6717   1.298   2.703   5.796
 2021SOL     OW 6718   1.759   3.609   6.740
 2021SOL    HW1 6719   1.820   3.639   6.667
 2021SOL    HW2 6720   1.721   3.520   6.718
 2022SOL     OW 6721   1.252   3.593   6.714
 2022SOL    HW1 6722   1.336   3.598   6.660
 2022SOL    HW2 6723   1.229   3.497   6.732
 2023SOL     OW 6724   0.083   3.120   6.608
 2023SOL    HW1 6725   0.078   3.119   6.708
 2023SOL    HW2 6726   0.000   3.079   6.570
 2024SOL     OW 6727   0.688   3.524   7.302
 2024SOL    HW1 6728   0.632   3.605   7.311
 2024SOL    HW2 6729   0.740   3.528   7.216
 2025SOL     OW 6730   1.726   1.997   6.109
 2025SOL    HW1 6731   1.799   1.980   6.042
 2025SOL    HW2 6732   1.695   1.910   6.147
 2026SOL     OW 6733   1.388   3.435   6.063
 2026SOL    HW1 6734   1.455   3.447   5.989
 2026SOL    HW2 6735   1.348   3.524   6.086
 2027SOL     OW 6736   0.130   3.656   7.437
 2027SOL    HW1 6737   0.089   3.582   7.490
 2027SOL    HW2 6738   0.194   3.707   7.495
 2028SOL     OW 6739   1.280   2.789   6.258
 2028SOL    HW1 6740   1.340   2.708   6.260
 2028SOL    HW2 6741   1.320   2.858   6.198
 2029SOL     OW 6742   0.830   3.135   7.008
 2029SOL    HW1 6743   0.825   3.168   7.103
 2029SOL    HW2 6744   0.744   3.154   6.962
 2030SOL     OW 6745   0.672   3.478   5.740
 2030SOL    HW1 6746   0.681   3.488   5.641
 2030SOL    HW2 6747   0.632   3.389   5.761
 2031SOL     OW 6748   1.650   3.582   6.980
 2031SOL    HW1 6749   1.703   3.592   6.896
 2031SOL    HW2 6750   1.623   3.672   7.014
 2032SOL     OW 6751   1.841   2.037   6.549
 2032SOL    HW1 6752   1.880   1.952   6.513
 2032SOL    HW2 6753   1.743   2.039   6.530
 2033SOL     OW 6754   0.263   2.188   6.306
 2033SOL    HW1 6755   0.184   2.239   6.272
 2033SOL    HW2 6756   0.254   2.173   6.404
 2034SOL     OW 6757   1.194   3.474   5.617
 2034SOL    HW1 6758   1.200   3.381   5.654
 2034SOL    HW2 6759   1.135   3.474   5.537
 2035SOL     OW 6760   0.822   2.864   6.958
 2035SOL    HW1 6761   0.862   2.863   6.866
 2035SOL    HW2 6762   0.832   2.956   6.998
 2036SOL     OW 6763   0.916   2.772   5.877
 2036SOL    HW1 6764   0.979   2.810   5.809
 2036SOL    HW2 6765   0.956   2.689   5.916
 2037SOL     OW 6766   1.504   3.469   5.630
 2037SOL    HW1 6767   1.412   3.506   5.637
 2037SOL    HW2 6768   1.542   3.489   5.540
 2038SOL     OW 6769   0.372   3.150   7.076
 2038SOL    HW1 6770   0.359   3.243   7.042
 2038SOL    HW2 6771   0.288   3.098   7.063
 2039SOL     OW 6772   1.614   3.154   6.875
 2039SOL    HW1 6773   1.674   3.157   6.955
 2039SOL    HW2 6774   1.539   3.218   6.888
 2040SOL     OW 6775   1.039   2.960   6.282
 2040SOL    HW1 6776   0.969   2.913   6.336
 2040SOL    HW2 6777   1.098   2.892   6.239
 2041SOL     OW 6778   1.014   2.098   6.557
 2041SOL    HW1 6779   1.006   2.062   6.464
 2041SOL    HW2 6780   1.012   2.022   6.622
 2042SOL     OW 6781   0.590   3.349   6.077
 2042SOL    HW1 6782   0.632   3.291   6.007
 2042SOL    HW2 6783   0.546   3.428   6.033
 2043SOL     OW 6784   1.709   2.247   6.967
 2043SOL    HW1 6785   1.782   2.316   6.971
 2043SOL    HW2 6786   1.737   2.172   6.908
 2044SOL     OW 6787   0.255   3.210   5.876
 2044SOL    HW1 6788   0.159   3.211   5.849
 2044SOL    HW2 6789   0.267   3.263   5.960
 2045SOL     OW 6790   0.105   2.875   7.312
 2045SOL    HW1 6791   0.028   2.842   7.366
 2045SOL    HW2 6792   0.190   2.845   7.354
 2046SOL     OW 6793   0.672   2.065   7.075
 2046SOL    HW1 6794   0.762   2.049   7.035
 2046SOL    HW2 6795   0.680   2.070   7.174
 2047SOL     OW 6796   0.075   2.207   5.619
 2047SOL    HW1 6797  -0.017   2.179   5.590
 2047SOL    HW2 6798   0.106   2.284   5.563
 2048SOL     OW 6799   1.440   2.718   6.984
 2048SOL    HW1 6800   1.383   2.770   6.921
 2048SOL    HW2 6801   1.536   2.730   6.960
 2049SOL     OW 6802   0.072   2.028   5.904
 2049SOL    HW1 6803   0.055   2.111   5.850
 2049SOL    HW2 6804   0.162   1.991   5.882
 2050SOL     OW 6805   1.183   3.197   5.705
 2050SOL    HW1 6806   1.084   3.186   5.707
 2050SOL    HW2 6807   1.217   3.212   5.798
 2051SOL     OW 6808   0.613   2.704   7.017
 2051SOL    HW1 6809   0.669   2.785   7.000
 2051SOL    HW2 6810   0.672   2.624   7.020
 2052SOL     OW 6811   1.493   3.629   6.545
 2052SOL    HW1 6812   1.526   3.693   6.476
 2052SOL    HW2 6813   1.559   3.623   6.620
 2053SOL     OW 6814   0.716   2.427   7.294
 2053SOL    HW1 6815   0.735   2.492   7.368
 2053SOL    HW2 6816   0.776   2.347   7.303
 2054SOL     OW 6817   1.450   3.082   7.219
 2054SOL    HW1 6818   1.441   3.072   7.318
 2054SOL    HW2 6819   1.546   3.075   7.193
 2055SOL     OW 6820   0.390   3.603   7.146
 2055SOL    HW1 6821   0.299   3.644   7.144
 2055SOL    HW2 6822   0.383   3.509   7.178
 2056SOL     OW 6823   1.674   2.745   6.840
 2056SOL    HW1 6824   1.647   2.656   6.803
 2056SOL    HW2 6825   1.675   2.813   6.767
 2057SOL     OW 6826   1.225   2.187   6.035
 2057SOL    HW1 6827   1.290   2.113   6.024
 2057SOL    HW2 6828   1.245   2.237   6.119
 2058SOL     OW 6829   0.594   2.607   6.238
 2058SOL    HW1 6830   0.644   2.692   6.219
 2058SOL    HW2 6831   0.506   2.609   6.190
 2059SOL     OW 6832   1.777   2.204   7.228
 2059SOL    HW1 6833   1.760   2.235   7.134
 2059SOL    HW2 6834   1.693   2.167   7.266
 2060SOL     OW 6835   1.730   2.796   7.103
 2060SOL    HW1 6836   1.768   2.887   7.118
 2060SOL    HW2 6837   1.722   2.779   7.004
 2061SOL     OW 6838   0.859   3.236   5.602
 2061SOL    HW1 6839   0.813   3.251   5.690
 2061SOL    HW2 6840   0.903   3.321   5.572
 2062SOL     OW 6841   0.661   3.652   6.539
 2062SOL    HW1 6842   0.615   3.740   6.526
 2062SOL    HW2 6843   0.760   3.664   6.532
 2063SOL     OW 6844   0.859   2.818   6.447
 2063SOL    HW1 6845   0.913   2.749   6.495
 2063SOL    HW2 6846   0.827   2.887   6.513
 2064SOL     OW 6847   1.083   2.846   5.673
 2064SOL    HW1 6848   1.060   2.899   5.591
 2064SOL    HW2 6849   1.164   2.790   5.654
 2065SOL     OW 6850   1.861   3.431   6.437
 2065SOL    HW1 6851   1.790   3.419   6.367
 2065SOL    HW2 6852   1.862   3.352   6.497
 2066SOL     OW 6853   0.221   3.176   7.430
 2066SOL    HW1 6854   0.156   3.103   7.409
 2066SOL    HW2 6855   0.225   3.190   7.528
 2067SOL     OW 6856   0.079   3.102   6.239
 2067SOL    HW1 6857   0.078   3.055   6.327
 2067SOL    HW2 6858   0.161   3.074   6.188
 2068SOL     OW 6859   0.672   3.253   7.210
 2068SOL    HW1 6860   0.594   3.203   7.248
 2068SOL    HW2 6861   0.669   3.348   7.241
 2069SOL     OW 6862   1.824   2.054   6.813
 2069SOL    HW1 6863   1.820   1.964   6.857
 2069SOL    HW2 6864   1.827   2.043   6.714
 2070SOL     OW 6865   0.428   2.286   6.106
 2070SOL    HW1 6866   0.458   2.214   6.044
 2070SOL    HW2 6867   0.389   2.246   6.189
 2071SOL     OW 6868   1.705   3.349   6.690
 2071SOL    HW1 6869   1.612   3.324   6.663
 2071SOL    HW2 6870   1.731   3.299   6.772
 2072SOL     OW 6871   0.317   2.409   6.866
 2072SOL    HW1 6872   0.355   2.350   6.938
 2072SOL    HW2 6873   0.357   2.383   6.778
 2073SOL     OW 6874   0.812   3.448   6.273
 2073SOL    HW1 6875   0.844   3.458   6.179
 2073SOL    HW2 6876   0.733   3.386   6.275
 2074SOL     OW 6877   1.424   2.076   6.698
 2074SOL    HW1 6878   1.476   2.011   6.753
 2074SOL    HW2 6879   1.375   2.139   6.759
 2075SOL     OW 6880   1.001   1.896   6.740
 2075SOL    HW1 6881   0.938   1.824   6.709
 2075SOL    HW2 6882   1.094   1.860   6.740
 2076SOL     OW 6883   0.770   3.192   5.887
 2076SOL    HW1 6884   0.724   3.105   5.904
 2076SOL    HW2 6885   0.861   3.189   5.928
 2077SOL     OW 6886   0.618   3.429   6.870
 2077SOL    HW1 6887   0.613   3.511   6.927
 2077SOL    HW2 6888   0.707   3.426   6.825
 2078SOL     OW 6889   1.352   1.914   5.754
 2078SOL    HW1 6890   1.387   1.873   5.670
 2078SOL    HW2 6891   1.262   1.876   5.774
 2079SOL     OW 6892   1.300   2.315   6.277
 2079SOL    HW1 6893   1.241   2.395   6.281
 2079SOL    HW2 6894   1.315   2.280   6.370
 2080SOL     OW 6895   1.593   2.083   6.468
 2080SOL    HW1 6896   1.509   2.082   6.522
 2080SOL    HW2 6897   1.595   2.166   6.412
 2081SOL     OW 6898   0.039   2.939   5.886
 2081SOL    HW1 6899   0.138   2.928   5.877
 2081SOL    HW2 6900  -0.001   2.853   5.918
 2082SOL     OW 6901   0.875   3.508   5.923
 2082SOL    HW1 6902   0.798   3.473   5.869
 2082SOL    HW2 6903   0.843   3.579   5.985
 2083SOL     OW 6904   0.230   2.490   7.561
 2083SOL    HW1 6905   0.137   2.488   7.598
 2083SOL    HW2 6906   0.231   2.451   7.469
 2084SOL     OW 6907   0.225   2.137   8.444
 2084SOL    HW1 6908   0.260   2.120   8.536
 2084SOL    HW2 6909   0.137   2.092   8.432
 2085SOL     OW 6910   0.019   2.230   8.095
 2085SOL    HW1 6911  -0.063   2.273   8.134
 2085SOL    HW2 6912  -0.009   2.157   8.032
 2086SOL     OW 6913   0.569   3.137   8.613
 2086SOL    HW1 6914   0.476   3.130   8.576
 2086SOL    HW2 6915   0.580   3.226   8.657
 2087SOL     OW 6916   1.555   3.373   8.151
 2087SOL    HW1 6917   1.498   3.357   8.232
 2087SOL    HW2 6918   1.496   3.383   8.071
 2088SOL     OW 6919   1.135   2.565   8.165
 2088SOL    HW1 6920   1.192   2.643   8.140
 2088SOL    HW2 6921   1.075   2.591   8.241
 2089SOL     OW 6922   1.755   2.469   7.679
 2089SOL    HW1 6923   1.743   2.456   7.580
 2089SOL    HW2 6924   1.725   2.388   7.728
 2090SOL     OW 6925   0.768   3.006   8.471
 2090SOL    HW1 6926   0.690   3.023   8.531
 2090SOL    HW2 6927   0.802   3.093   8.435
 2091SOL     OW 6928   0.850   2.660   9.271
 2091SOL    HW1 6929   0.846   2.736   9.336
 2091SOL    HW2 6930   0.872   2.696   9.180
 2092SOL     OW 6931   0.685   2.874   8.113
 2092SOL    HW1 6932   0.754   2.858   8.183
 2092SOL    HW2 6933   0.612   2.931   8.151
 2093SOL     OW 6934   0.686   3.023   9.251
 2093SOL    HW1 6935   0.746   3.102   9.265
 2093SOL    HW2 6936   0.600   3.054   9.210
 2094SOL     OW 6937   0.335   3.297   8.509
 2094SOL    HW1 6938   0.257   3.266   8.456
 2094SOL    HW2 6939   0.393   3.355   8.452
 2095SOL     OW 6940   1.460   3.367   8.787
 2095SOL    HW1 6941   1.484   3.461   8.813
 2095SOL    HW2 6942   1.444   3.313   8.869
 2096SOL     OW 6943   0.438   2.254   8.947
 2096SOL    HW1 6944   0.520   2.198   8.956
 2096SOL    HW2 6945   0.357   2.196   8.951
 2097SOL     OW 6946   1.603   2.309   8.185
 2097SOL    HW1 6947   1.529   2.355   8.135
 2097SOL    HW2 6948   1.654   2.377   8.238
 2098SOL     OW 6949   0.231   3.575   7.931
 2098SOL    HW1 6950   0.265   3.652   7.985
 2098SOL    HW2 6951   0.275   3.575   7.841
 2099SOL     OW 6952   1.127   3.203   9.138
 2099SOL    HW1 6953   1.174   3.203   9.226
 2099SOL    HW2 6954   1.079   3.116   9.127
 2100SOL     OW 6955   0.230   3.296   7.986
 2100SOL    HW1 6956   0.204   3.392   7.986
 2100SOL    HW2 6957   0.159   3.242   8.031
 2101SOL     OW 6958   0.240   2.953   8.334
 2101SOL    HW1 6959   0.254   2.869   8.386
 2101SOL    HW2 6960   0.185   3.017   8.389
 2102SOL     OW 6961   0.620   3.648   8.887
 2102SOL    HW1 6962   0.528   3.631   8.922
 2102SOL    HW2 6963   0.648   3.740   8.913
 2103SOL     OW 6964   0.606   2.826   7.571
 2103SOL    HW1 6965   0.613   2.910   7.517
 2103SOL    HW2 6966   0.652   2.839   7.659
 2104SOL     OW 6967   1.594   1.976   8.928
 2104SOL    HW1 6968   1.576   2.043   8.856
 2104SOL    HW2 6969   1.591   2.022   9.017
 2105SOL     OW 6970   0.122   2.505   8.011
 2105SOL    HW1 6971   0.077   2.417   8.028
 2105SOL    HW2 6972   0.121   2.559   8.095
 2106SOL     OW 6973   1.842   3.629   7.807
 2106SOL    HW1 6974   1.896   3.600   7.887
 2106SOL    HW2 6975   1.872   3.719   7.778
 2107SOL     OW 6976   0.027   3.458   7.565
 2107SOL    HW1 6977   0.008   3.362   7.586
 2107SOL    HW2 6978  -0.006   3.516   7.640
 2108SOL     OW 6979   1.689   2.784   8.060
 2108SOL    HW1 6980   1.784   2.755   8.068
 2108SOL    HW2 6981   1.681   2.849   7.985
 2109SOL     OW 6982   1.641   2.970   7.880
 2109SOL    HW1 6983   1.727   2.972   7.828
 2109SOL    HW2 6984   1.655   3.017   7.968
 2110SOL     OW 6985   0.113   2.599   9.045
 2110SOL    HW1 6986   0.201   2.586   9.090
 2110SOL    HW2 6987   0.100   2.696   9.023
 2111SOL     OW 6988   0.613   3.227   8.174
 2111SOL    HW1 6989   0.564   3.140   8.183
 2111SOL    HW2 6990   0.590   3.270   8.087
 2112SOL     OW 6991   1.293   3.090   8.871
 2112SOL    HW1 6992   1.330   3.017   8.813
 2112SOL    HW2 6993   1.345   3.095   8.956
 2113SOL     OW 6994   0.809   1.866   7.950
 2113SOL    HW1 6995   0.849   1.957   7.941
 2113SOL    HW2 6996   0.709   1.874   7.956
 2114SOL     OW 6997   0.197   2.838   8.712
 2114SOL    HW1 6998   0.286   2.793   8.698
 2114SOL    HW2 6999   0.124   2.773   8.693
 2115SOL     OW 7000   1.525   2.861   7.638
 2115SOL    HW1 7001   1.462   2.785   7.651
 2115SOL    HW2 7002   1.573   2.879   7.724
 2116SOL     OW 7003   1.187   3.654   9.064
 2116SOL    HW1 7004   1.211   3.714   8.988
 2116SOL    HW2 7005   1.194   3.559   9.034
 2117SOL     OW 7006   0.317   2.113   9.249
 2117SOL    HW1 7007   0.388   2.184   9.255
 2117SOL    HW2 7008   0.229   2.152   9.277
 2118SOL     OW 7009   1.466   3.279   8.401
 2118SOL    HW1 7010   1.407   3.285   8.481
 2118SOL    HW2 7011   1.451   3.191   8.355
 2119SOL     OW 7012   1.667   3.576   8.020
 2119SOL    HW1 7013   1.626   3.553   7.932
 2119SOL    HW2 7014   1.649   3.502   8.085
 2120SOL     OW 7015   0.598   2.591   7.718
 2120SOL    HW1 7016   0.622   2.660   7.650
 2120SOL    HW2 7017   0.520   2.624   7.772
 2121SOL     OW 7018   1.281   2.207   8.392
 2121SOL    HW1 7019   1.195   2.157   8.379
 2121SOL    HW2 7020   1.343   2.153   8.448
 2122SOL     OW 7021   1.576   3.524   7.755
 2122SOL    HW1 7022   1.665   3.570   7.758
 2122SOL    HW2 7023   1.555   3.500   7.660
 2123SOL     OW 7024   0.807   2.467   8.913
 2123SOL    HW1 7025   0.760   2.464   9.002
 2123SOL    HW2 7026   0.756   2.412   8.847
 2124SOL     OW 7027   1.394   2.331   9.122
 2124SOL    HW1 7028   1.374   2.374   9.210
 2124SOL    HW2 7029   1.472   2.269   9.131
 2125SOL     OW 7030   0.973   2.752   9.020
 2125SOL    HW1 7031   1.019   2.668   8.991
 2125SOL    HW2 7032   0.917   2.786   8.945
 2126SOL     OW 7033   0.991   2.272   8.690
 2126SOL    HW1 7034   0.914   2.306   8.744
 2126SOL    HW2 7035   0.957   2.221   8.611
 2127SOL     OW 7036   1.041   2.563   7.877
 2127SOL    HW1 7037   1.067   2.559   7.973
 2127SOL    HW2 7038   0.956   2.512   7.863
 2128SOL     OW 7039   0.076   2.673   8.237
 2128SOL    HW1 7040   0.175   2.661   8.246
 2128SOL    HW2 7041   0.052   2.768   8.258
 2129SOL     OW 7042   0.130   3.683   9.019
 2129SOL    HW1 7043   0.120   3.668   9.118
 2129SOL    HW2 7044   0.044   3.719   8.983
 2130SOL     OW 7045   0.865   2.210   7.643
 2130SOL    HW1 7046   0.924   2.273   7.594
 2130SOL    HW2 7047   0.884   2.116   7.614
 2131SOL     OW 7048   1.719   2.447   9.279
 2131SOL    HW1 7049   1.693   2.536   9.243
 2131SOL    HW2 7050   1.717   2.379   9.206
 2132SOL     OW 7051   1.362   3.006   7.993
 2132SOL    HW1 7052   1.445   2.977   7.945
 2132SOL    HW2 7053   1.313   3.073   7.937
 2133SOL     OW 7054   0.550   2.058   8.333
 2133SOL    HW1 7055   0.545   2.053   8.433
 2133SOL    HW2 7056   0.552   2.154   8.304
 2134SOL     OW 7057   1.008   3.318   7.925
 2134SOL    HW1 7058   0.962   3.390   7.873
 2134SOL    HW2 7059   1.004   3.338   8.023
 2135SOL     OW 7060   0.351   3.663   8.301
 2135SOL    HW1 7061   0.401   3.577   8.307
 2135SOL    HW2 7062   0.416   3.740   8.298
 2136SOL     OW 7063   1.795   2.928   8.321
 2136SOL    HW1 7064   1.733   2.913   8.245
 2136SOL    HW2 7065   1.743   2.939   8.406
 2137SOL     OW 7066   1.227   3.412   8.954
 2137SOL    HW1 7067   1.233   3.335   9.018
 2137SOL    HW2 7068   1.175   3.386   8.874
 2138SOL     OW 7069   0.321   2.805   7.690
 2138SOL    HW1 7070   0.403   2.844   7.648
 2138SOL    HW2 7071   0.294   2.723   7.641
 2139SOL     OW 7072   1.458   2.597   8.176
 2139SOL    HW1 7073   1.453   2.532   8.251
 2139SOL    HW2 7074   1.538   2.656   8.189
 2140SOL     OW 7075   0.461   3.128   9.175
 2140SOL    HW1 7076   0.411   3.129   9.089
 2140SOL    HW2 7077   0.398   3.110   9.251
 2141SOL     OW 7078   1.111   3.638   7.685
 2141SOL    HW1 7079   1.051   3.576   7.735
 2141SOL    HW2 7080   1.142   3.594   7.600
 2142SOL     OW 7081   0.202   2.147   8.946
 2142SOL    HW1 7082   0.122   2.207   8.933
 2142SOL    HW2 7083   0.192   2.098   9.032
 2143SOL     OW 7084   1.632   3.239   7.529
 2143SOL    HW1 7085   1.600   3.333   7.519
 2143SOL    HW2 7086   1.556   3.176   7.517
 2144SOL     OW 7087   0.464   3.605   7.771
 2144SOL    HW1 7088   0.497   3.644   7.857
 2144SOL    HW2 7089   0.540   3.598   7.706
 2145SOL     OW 7090   1.400   1.969   7.874
 2145SOL    HW1 7091   1.376   1.932   7.784
 2145SOL    HW2 7092   1.499   1.985   7.878
 2146SOL     OW 7093   0.249   3.647   8.689
 2146SOL    HW1 7094   0.306   3.582   8.739
 2146SOL    HW2 7095   0.233   3.614   8.596
 2147SOL     OW 7096   0.940   3.560   8.352
 2147SOL    HW1 7097   1.020   3.503   8.373
 2147SOL    HW2 7098   0.891   3.520   8.275
 2148SOL     OW 7099   0.382   2.562   7.928
 2148SOL    HW1 7100   0.427   2.472   7.925
 2148SOL    HW2 7101   0.288   2.551   7.961
 2149SOL     OW 7102   1.547   2.084   9.177
 2149SOL    HW1 7103   1.542   2.121   9.269
 2149SOL    HW2 7104   1.475   2.015   9.165
 2150SOL     OW 7105   0.614   1.984   7.565
 2150SOL    HW1 7106   0.712   1.962   7.572
 2150SOL    HW2 7107   0.583   1.967   7.472
 2151SOL     OW 7108   0.781   2.126   9.197
 2151SOL    HW1 7109   0.848   2.065   9.240
 2151SOL    HW2 7110   0.708   2.145   9.262
 2152SOL     OW 7111   0.888   3.376   8.643
 2152SOL    HW1 7112   0.865   3.351   8.549
 2152SOL    HW2 7113   0.949   3.307   8.682
 2153SOL     OW 7114   1.351   2.452   8.881
 2153SOL    HW1 7115   1.379   2.409   8.966
 2153SOL    HW2 7116   1.376   2.548   8.882
 2154SOL     OW 7117   0.803   3.264   8.372
 2154SOL    HW1 7118   0.893   3.278   8.330
 2154SOL    HW2 7119   0.732   3.266   8.301
 2155SOL     OW 7120   0.922   2.365   8.347
 2155SOL    HW1 7121   0.897   2.356   8.251
 2155SOL    HW2 7122   0.970   2.283   8.378
 2156SOL     OW 7123   0.539   1.926   7.960
 2156SOL    HW1 7124   0.458   1.927   8.018
 2156SOL    HW2 7125   0.542   2.009   7.905
 2157SOL     OW 7126   1.434   3.050   7.489
 2157SOL    HW1 7127   1.466   2.974   7.546
 2157SOL    HW2 7128   1.342   3.077   7.519
 2158SOL     OW 7129   0.297   1.897   7.619
 2158SOL    HW1 7130   0.346   1.981   7.598
 2158SOL    HW2 7131   0.359   1.832   7.664
 2159SOL     OW 7132   0.935   2.098   7.928
 2159SOL    HW1 7133   0.887   2.139   7.850
 2159SOL    HW2 7134   1.034   2.096   7.909
 2160SOL     OW 7135   1.076   2.545   8.912
 2160SOL    HW1 7136   0.996   2.484   8.915
 2160SOL    HW2 7137   1.157   2.492   8.888
 2161SOL     OW 7138   1.227   3.432   8.241
 2161SOL    HW1 7139   1.248   3.506   8.176
 2161SOL    HW2 7140   1.295   3.432   8.314
 2162SOL     OW 7141   0.459   3.014   8.189
 2162SOL    HW1 7142   0.388   2.987   8.254
 2162SOL    HW2 7143   0.433   2.986   8.096
 2163SOL     OW 7144   1.271   3.659   8.039
 2163SOL    HW1 7145   1.315   3.723   7.975
 2163SOL    HW2 7146   1.221   3.711   8.109
 2164SOL     OW 7147   1.032   2.411   7.464
 2164SOL    HW1 7148   0.991   2.493   7.425
 2164SOL    HW2 7149   1.096   2.437   7.537
 2165SOL     OW 7150   0.078   2.418   8.834
 2165SOL    HW1 7151   0.170   2.417   8.793
 2165SOL    HW2 7152   0.072   2.492   8.901
 2166SOL     OW 7153   0.561   2.084   8.595
 2166SOL    HW1 7154   0.599   2.000   8.632
 2166SOL    HW2 7155   0.473   2.103   8.639
 2167SOL     OW 7156   0.866   2.316   8.090
 2167SOL    HW1 7157   0.834   2.388   8.028
 2167SOL    HW2 7158   0.890   2.235   8.037
 2168SOL     OW 7159   1.017   1.901   8.201
 2168SOL    HW1 7160   0.945   1.906   8.132
 2168SOL    HW2 7161   0.993   1.832   8.270
 2169SOL     OW 7162   1.429   3.035   8.315
 2169SOL    HW1 7163   1.374   2.951   8.308
 2169SOL    HW2 7164   1.455   3.064   8.223
 2170SOL     OW 7165   1.466   2.452   8.440
 2170SOL    HW1 7166   1.436   2.357   8.447
 2170SOL    HW2 7167   1.539   2.468   8.506
 2171SOL     OW 7168   1.857   2.695   7.825
 2171SOL    HW1 7169   1.899   2.631   7.889
 2171SOL    HW2 7170   1.819   2.644   7.747
 2172SOL     OW 7171   0.488   3.247   7.622
 2172SOL    HW1 7172   0.401   3.232   7.669
 2172SOL    HW2 7173   0.471   3.273   7.527
 2173SOL     OW 7174   1.664   3.142   8.105
 2173SOL    HW1 7175   1.763   3.150   8.119
 2173SOL    HW2 7176   1.619   3.226   8.136
 2174SOL     OW 7177   1.390   2.437   7.526
 2174SOL    HW1 7178   1.336   2.416   7.607
 2174SOL    HW2 7179   1.481   2.396   7.535
 2175SOL     OW 7180   0.527   2.118   7.776
 2175SOL    HW1 7181   0.554   2.059   7.701
 2175SOL    HW2 7182   0.527   2.213   7.745
 2176SOL     OW 7183   1.754   3.085   9.036
 2176SOL    HW1 7184   1.845   3.046   9.023
 2176SOL    HW2 7185   1.762   3.181   9.060
 2177SOL     OW 7186   1.064   3.209   8.788
 2177SOL    HW1 7187   0.984   3.186   8.843
 2177SOL    HW2 7188   1.147   3.183   8.837
 2178SOL     OW 7189   1.592   3.491   9.073
 2178SOL    HW1 7190   1.619   3.525   8.983
 2178SOL    HW2 7191   1.671   3.453   9.119
 2179SOL     OW 7192   1.111   3.057   8.548
 2179SOL    HW1 7193   1.071   3.101   8.629
 2179SOL    HW2 7194   1.070   3.094   8.465
 2180SOL     OW 7195   1.638   2.961   8.527
 2180SOL    HW1 7196   1.643   3.042   8.586
 2180SOL    HW2 7197   1.552   2.963   8.476
 2181SOL     OW 7198   0.915   1.951   8.850
 2181SOL    HW1 7199   0.940   1.931   8.755
 2181SOL    HW2 7200   0.987   2.007   8.892
 2182SOL     OW 7201   0.980   2.978   9.167
 2182SOL    HW1 7202   0.881   2.984   9.177
 2182SOL    HW2 7203   1.003   2.898   9.111
 2183SOL     OW 7204   0.705   2.912   7.816
 2183SOL    HW1 7205   0.691   2.919   7.915
 2183SOL    HW2 7206   0.789   2.861   7.798
 2184SOL     OW 7207   0.410   2.675   8.699
 2184SOL    HW1 7208   0.496   2.687   8.749
 2184SOL    HW2 7209   0.368   2.588   8.726
 2185SOL     OW 7210   1.274   2.248   8.710
 2185SOL    HW1 7211   1.295   2.322   8.774
 2185SOL    HW2 7212   1.185   2.265   8.667
 2186SOL     OW 7213   0.064   3.426   8.779
 2186SOL    HW1 7214   0.018   3.508   8.745
 2186SOL    HW2 7215   0.162   3.445   8.788
 2187SOL     OW 7216   0.367   2.962   7.949
 2187SOL    HW1 7217   0.360   3.045   7.893
 2187SOL    HW2 7218   0.371   2.882   7.889
 2188SOL     OW 7219   0.566   2.399   8.313
 2188SOL    HW1 7220   0.578   2.465   8.239
 2188SOL    HW2 7221   0.612   2.433   8.396
 2189SOL     OW 7222   1.252   3.210   7.836
 2189SOL    HW1 7223   1.302   3.287   7.876
 2189SOL    HW2 7224   1.157   3.212   7.868
 2190SOL     OW 7225   1.272   3.307   8.590
 2190SOL    HW1 7226   1.319   3.320   8.677
 2190SOL    HW2 7227   1.206   3.233   8.599
 2191SOL     OW 7228   1.582   2.501   7.920
 2191SOL    HW1 7229   1.551   2.562   7.993
 2191SOL    HW2 7230   1.632   2.553   7.851
 2192SOL     OW 7231   0.354   3.372   8.777
 2192SOL    HW1 7232   0.333   3.328   8.690
 2192SOL    HW2 7233   0.451   3.398   8.780
 2193SOL     OW 7234   0.402   2.613   9.046
 2193SOL    HW1 7235   0.470   2.668   8.999
 2193SOL    HW2 7236   0.442   2.525   9.073
 2194SOL     OW 7237   1.587   2.641   9.118
 2194SOL    HW1 7238   1.495   2.679   9.113
 2194SOL    HW2 7239   1.647   2.688   9.053
 2195SOL     OW 7240   1.013   1.967   9.218
 2195SOL    HW1 7241   1.019   2.052   9.166
 2195SOL    HW2 7242   1.045   1.891   9.161
 2196SOL     OW 7243   0.504   1.912   9.188
 2196SOL    HW1 7244   0.462   1.855   9.118
 2196SOL    HW2 7245   0.438   1.981   9.220
 2197SOL     OW 7246   0.573   2.732   8.477
 2197SOL    HW1 7247   0.617   2.821   8.468
 2197SOL    HW2 7248   0.510   2.732   8.554
 2198SOL     OW 7249   1.360   2.724   8.493
 2198SOL    HW1 7250   1.285   2.724   8.427
 2198SOL    HW2 7251   1.397   2.632   8.502
 2199SOL     OW 7252   1.209   2.387   7.723
 2199SOL    HW1 7253   1.222   2.303   7.777
 2199SOL    HW2 7254   1.180   2.461   7.783
 2200SOL     OW 7255   0.307   2.075   8.679
 2200SOL    HW1 7256   0.284   2.112   8.769
 2200SOL    HW2 7257   0.277   1.980   8.673
 2201SOL     OW 7258   0.037   3.172   8.730
 2201SOL    HW1 7259   0.090   3.123   8.798
 2201SOL    HW2 7260   0.059   3.270   8.735
 2202SOL     OW 7261   0.732   2.496   8.512
 2202SOL    HW1 7262   0.791   2.470   8.436
 2202SOL    HW2 7263   0.704   2.592   8.501
 2203SOL     OW 7264   1.728   2.797   9.302
 2203SOL    HW1 7265   1.682   2.790   9.213
 2203SOL    HW2 7266   1.666   2.841   9.368
 2204SOL     OW 7267   0.307   1.925   8.066
 2204SOL    HW1 7268   0.296   2.019   8.099
 2204SOL    HW2 7269   0.302   1.862   8.143
 2205SOL     OW 7270   1.622   2.229   7.822
 2205SOL    HW1 7271   1.624   2.153   7.886
 2205SOL    HW2 7272   1.574   2.306   7.862
 2206SOL     OW 7273   1.023   2.628   8.414
 2206SOL    HW1 7274   1.038   2.649   8.510
 2206SOL    HW2 7275   0.993   2.533   8.405
 2207SOL     OW 7276   0.980   3.435   9.148
 2207SOL    HW1 7277   0.960   3.479   9.060
 2207SOL    HW2 7278   1.019   3.344   9.132
 2208SOL     OW 7279   1.859   3.380   9.053
 2208SOL    HW1 7280   1.873   3.407   8.958
 2208SOL    HW2 7281   1.942   3.402   9.106
 2209SOL     OW 7282   0.350   2.760   9.252
 2209SOL    HW1 7283   0.426   2.804   9.300
 2209SOL    HW2 7284   0.385   2.713   9.170
 2210SOL     OW 7285   1.540   2.136   7.573
 2210SOL    HW1 7286   1.479   2.061   7.596
 2210SOL    HW2 7287   1.562   2.188   7.656
 2211SOL     OW 7288   1.303   2.700   7.490
 2211SOL    HW1 7289   1.337   2.607   7.505
 2211SOL    HW2 7290   1.321   2.727   7.395
 2212SOL     OW 7291   1.068   3.195   8.297
 2212SOL    HW1 7292   1.075   3.111   8.242
 2212SOL    HW2 7293   1.130   3.264   8.261
 2213SOL     OW 7294   0.319   2.672   8.397
 2213SOL    HW1 7295   0.412   2.708   8.402
 2213SOL    HW2 7296   0.313   2.587   8.449
 2214SOL     OW 7297   0.339   2.371   8.454
 2214SOL    HW1 7298   0.287   2.288   8.437
 2214SOL    HW2 7299   0.416   2.376   8.390
 2215SOL     OW 7300   1.138   2.242   9.126
 2215SOL    HW1 7301   1.093   2.305   9.190
 2215SOL    HW2 7302   1.231   2.273   9.109
 2216SOL     OW 7303   1.160   2.069   8.925
 2216SOL    HW1 7304   1.160   2.133   9.002
 2216SOL    HW2 7305   1.188   2.117   8.842
 2217SOL     OW 7306   0.008   3.188   7.648
 2217SOL    HW1 7307  -0.085   3.209   7.617
 2217SOL    HW2 7308   0.018   3.089   7.661
 2218SOL     OW 7309   0.088   3.663   8.375
 2218SOL    HW1 7310   0.046   3.577   8.348
 2218SOL    HW2 7311   0.182   3.666   8.341
 2219SOL     OW 7312   0.504   3.430   8.358
 2219SOL    HW1 7313   0.570   3.504   8.367
 2219SOL    HW2 7314   0.548   3.351   8.316
 2220SOL     OW 7315   1.002   2.658   8.686
 2220SOL    HW1 7316   1.043   2.626   8.772
 2220SOL    HW2 7317   0.906   2.631   8.683
 2221SOL     OW 7318   0.040   2.406   8.562
 2221SOL    HW1 7319   0.125   2.373   8.521
 2221SOL    HW2 7320   0.053   2.421   8.660
 2222SOL     OW 7321   0.189   2.382   9.170
 2222SOL    HW1 7322   0.248   2.342   9.100
 2222SOL    HW2 7323   0.131   2.453   9.129
 2223SOL     OW 7324   1.369   2.812   9.108
 2223SOL    HW1 7325   1.408   2.901   9.128
 2223SOL    HW2 7326   1.379   2.792   9.011
 2224SOL     OW 7327   0.815   2.434   7.773
 2224SOL    HW1 7328   0.822   2.345   7.727
 2224SOL    HW2 7329   0.721   2.468   7.765
 2225SOL     OW 7330   1.657   2.466   8.654
 2225SOL    HW1 7331   1.619   2.397   8.716
 2225SOL    HW2 7332   1.739   2.430   8.610
 2226SOL     OW 7333   0.252   3.426   9.192
 2226SOL    HW1 7334   0.222   3.483   9.268
 2226SOL    HW2 7335   0.245   3.329   9.218
 2227SOL     OW 7336   0.671   2.326   8.717
 2227SOL    HW1 7337   0.637   2.237   8.687
 2227SOL    HW2 7338   0.697   2.380   8.637
 2228SOL     OW 7339   0.930   3.540   8.913
 2228SOL    HW1 7340   0.906   3.522   8.818
 2228SOL    HW2 7341   0.960   3.634   8.923
 2229SOL     OW 7342   0.473   2.362   7.639
 2229SOL    HW1 7343   0.534   2.442   7.643
 2229SOL    HW2 7344   0.378   2.393   7.646
 2230SOL     OW 7345   0.159   2.999   8.914
 2230SOL    HW1 7346   0.181   2.938   8.990
 2230SOL    HW2 7347   0.169   2.950   8.828
 2231SOL     OW 7348   1.347   2.921   8.682
 2231SOL    HW1 7349   1.371   2.858   8.608
 2231SOL    HW2 7350   1.257   2.961   8.664
 2232SOL     OW 7351   1.302   2.717   7.757
 2232SOL    HW1 7352   1.216   2.686   7.799
 2232SOL    HW2 7353   1.298   2.703   7.658
 2233SOL     OW 7354   1.759   3.609   8.602
 2233SOL    HW1 7355   1.820   3.639   8.529
 2233SOL    HW2 7356   1.721   3.520   8.580
 2234SOL     OW 7357   1.252   3.593   8.576
 2234SOL    HW1 7358   1.336   3.598   8.522
 2234SOL    HW2 7359   1.229   3.497   8.594
 2235SOL     OW 7360   0.083   3.120   8.470
 2235SOL    HW1 7361   0.078   3.119   8.570
 2235SOL    HW2 7362   0.000   3.079   8.432
 2236SOL     OW 7363   0.688   3.524   9.164
 2236SOL    HW1 7364   0.632   3.605   9.173
 2236SOL    HW2 7365   0.740   3.528   9.078
 2237SOL     OW 7366   1.726   1.997   7.971
 2237SOL    HW1 7367   1.799   1.980   7.904
 2237SOL    HW2 7368   1.695   1.910   8.009
 2238SOL     OW 7369   1.388   3.435   7.925
 2238SOL    HW1 7370   1.455   3.447   7.851
 2238SOL    HW2 7371   1.348   3.524   7.948
 2239SOL     OW 7372   0.130   3.656   9.299
 2239SOL    HW1 7373   0.089   3.582   9.352
 2239SOL    HW2 7374   0.194   3.707   9.357
 2240SOL     OW 7375   1.280   2.789   8.120
 2240SOL    HW1 7376   1.340   2.708   8.122
 2240SOL    HW2 7377   1.320   2.858   8.060
 2241SOL     OW 7378   0.830   3.135   8.870
 2241SOL    HW1 7379   0.825   3.168   8.965
 2241SOL    HW2 7380   0.744   3.154   8.824
 2242SOL     OW 7381   0.672   3.478   7.602
 2242SOL    HW1 7382   0.681   3.488   7.503
 2242SOL    HW2 7383   0.632   3.389   7.623
 2243SOL     OW 7384   1.650   3.582   8.842
 2243SOL    HW1 7385   1.703   3.592   8.758
 2243SOL    HW2 7386   1.623   3.672   8.876
 2244SOL     OW 7387   1.841   2.037   8.411
 2244SOL    HW1 7388   1.880   1.952   8.375
 2244SOL    HW2 7389   1.743   2.039   8.392
 2245SOL     OW 7390   0.263   2.188   8.168
 2245SOL    HW1 7391   0.184   2.239   8.134
 2245SOL    HW2 7392   0.254   2.173   8.266
 2246SOL     OW 7393   1.194   3.474   7.479
 2246SOL    HW1 7394   1.200   3.381   7.516
 2246SOL    HW2 7395   1.135   3.474   7.399
 2247SOL     OW 7396   0.822   2.864   8.820
 2247SOL    HW1 7397   0.862   2.863   8.728
 2247SOL    HW2 7398   0.832   2.956   8.860
 2248SOL     OW 7399   0.916   2.772   7.739
 2248SOL    HW1 7400   0.979   2.810   7.671
 2248SOL    HW2 7401   0.956   2.689   7.778
 2249SOL     OW 7402   1.504   3.469   7.492
 2249SOL    HW1 7403   1.412   3.506   7.499
 2249SOL    HW2 7404   1.542   3.489   7.402
 2250SOL     OW 7405   0.372   3.150   8.938
 2250SOL    HW1 7406   0.359   3.243   8.904
 2250SOL    HW2 7407   0.288   3.098   8.925
 2251SOL     OW 7408   1.614   3.154   8.737
 2251SOL    HW1 7409   1.674   3.157   8.817
 2251SOL    HW2 7410   1.539   3.218   8.750
 2252SOL     OW 7411   1.039   2.960   8.144
 2252SOL    HW1 7412   0.969   2.913   8.198
 2252SOL    HW2 7413   1.098   2.892   8.101
 2253SOL     OW 7414   1.014   2.098   8.419
 2253SOL    HW1 7415   1.006   2.062   8.326
 2253SOL    HW2 7416   1.012   2.022   8.484
 2254SOL     OW 7417   0.590   3.349   7.939
 2254SOL    HW1 7418   0.632   3.291   7.869
 2254SOL    HW2 7419   0.546   3.428   7.895
 2255SOL     OW 7420   1.709   2.247   8.829
 2255SOL    HW1 7421   1.782   2.316   8.833
 2255SOL    HW2 7422   1.737   2.172   8.770
 2256SOL     OW 7423   0.255   3.210   7.738
 2256SOL    HW1 7424   0.159   3.211   7.711
 2256SOL    HW2 7425   0.267   3.263   7.822
 2257SOL     OW 7426   0.105   2.875   9.174
 2257SOL    HW1 7427   0.028   2.842   9.228
 2257SOL    HW2 7428   0.190   2.845   9.216
 2258SOL     OW 7429   0.672   2.065   8.937
 2258SOL    HW1 7430   0.762   2.049   8.897
 2258SOL    HW2 7431   0.680   2.070   9.036
 2259SOL     OW 7432   0.075   2.207   7.481
 2259SOL    HW1 7433  -0.017   2.179   7.452
 2259SOL    HW2 7434   0.106   2.284   7.425
 2260SOL     OW 7435   1.440   2.718   8.846
 2260SOL    HW1 7436   1.383   2.770   8.783
 2260SOL    HW2 7437   1.536   2.730   8.822
 2261SOL     OW 7438   0.072   2.028   7.766
 2261SOL    HW1 7439   0.055   2.111   7.712
 2261SOL    HW2 7440   0.162   1.991   7.744
 2262SOL     OW 7441   1.183   3.197   7.567
 2262SOL    HW1 7442   1.084   3.186   7.569
 2262SOL    HW2 7443   1.217   3.212   7.660
 2263SOL     OW 7444   0.613   2.704   8.879
 2263SOL    HW1 7445   0.669   2.785   8.862
 2263SOL    HW2 7446   0.672   2.624   8.882
 2264SOL     OW 7447   1.493   3.629   8.407
 2264SOL    HW1 7448   1.526   3.693   8.338
 2264SOL    HW2 7449   1.559   3.623   8.482
 2265SOL     OW 7450   0.716   2.427   9.156
 2265SOL    HW1 7451   0.735   2.492   9.230
 2265SOL    HW2 7452   0.776   2.347   9.165
 2266SOL     OW 7453   1.450   3.082   9.081
 2266SOL    HW1 7454   1.441   3.072   9.180
 2266SOL    HW2 7455   1.546   3.075   9.055
 2267SOL     OW 7456   0.390   3.603   9.008
 2267SOL    HW1 7457   0.299   3.644   9.006
 2267SOL    HW2 7458   0.383   3.509   9.040
 2268SOL     OW 7459   1.674   2.745   8.702
 2268SOL    HW1 7460   1.647   2.656   8.665
 2268SOL    HW2 7461   1.675   2.813   8.629
 2269SOL     OW 7462   1.225   2.187   7.897
 2269SOL    HW1 7463   1.290   2.113   7.886
 2269SOL    HW2 7464   1.245   2.237   7.981
 2270SOL     OW 7465   0.594   2.607   8.100
 2270SOL    HW1 7466   0.644   2.692   8.081
 2270SOL    HW2 7467   0.506   2.609   8.052
 2271SOL     OW 7468   1.777   2.204   9.090
 2271SOL    HW1 7469   1.760   2.235   8.996
 2271SOL    HW2 7470   1.693   2.167   9.128
 2272SOL     OW 7471   1.730   2.796   8.965
 2272SOL    HW1 7472   1.768   2.887   8.980
 2272SOL    HW2 7473   1.722   2.779   8.866
 2273SOL     OW 7474   0.859   3.236   7.464
 2273SOL    HW1 7475   0.813   3.251   7.552
 2273SOL    HW2 7476   0.903   3.321   7.434
 2274SOL     OW 7477   0.661   3.652   8.401
 2274SOL    HW1 7478   0.615   3.740   8.388
 2274SOL    HW2 7479   0.760   3.664   8.394
 2275SOL     OW 7480   0.859   2.818   8.309
 2275SOL    HW1 7481   0.913   2.749   8.357
 2275SOL    HW2 7482   0.827   2.887   8.375
 2276SOL     OW 7483   1.083   2.846   7.535
 2276SOL    HW1 7484   1.060   2.899   7.453
 2276SOL    HW2 7485   1.164   2.790   7.516
 2277SOL     OW 7486   1.861   3.431   8.299
 2277SOL    HW1 7487   1.790   3.419   8.229
 2277SOL    HW2 7488   1.862   3.352   8.359
 2278SOL     OW 7489   0.221   3.176   9.292
 2278SOL    HW1 7490   0.156   3.103   9.271
 2278SOL    HW2 7491   0.225   3.190   9.390
 2279SOL     OW 7492   0.079   3.102   8.101
 2279SOL    HW1 7493   0.078   3.055   8.189
 2279SOL    HW2 7494   0.161   3.074   8.050
 2280SOL     OW 7495   0.672   3.253   9.072
 2280SOL    HW1 7496   0.594   3.203   9.110
 2280SOL    HW2 7497   0.669   3.348   9.103
 2281SOL     OW 7498   1.824   2.054   8.675
 2281SOL    HW1 7499   1.820   1.964   8.719
 2281SOL    HW2 7500   1.827   2.043   8.576
 2282SOL     OW 7501   0.428   2.286   7.968
 2282SOL    HW1 7502   0.458   2.214   7.906
 2282SOL    HW2 7503   0.389   2.246   8.051
 2283SOL     OW 7504   1.705   3.349   8.552
 2283SOL    HW1 7505   1.612   3.324   8.525
 2283SOL    HW2 7506   1.731   3.299   8.634
 2284SOL     OW 7507   0.317   2.409   8.728
 2284SOL    HW1 7508   0.355   2.350   8.800
 2284SOL    HW2 7509   0.357   2.383   8.640
 2285SOL     OW 7510   0.812   3.448   8.135
 2285SOL    HW1 7511   0.844   3.458   8.041
 2285SOL    HW2 7512   0.733   3.386   8.137
 2286SOL     OW 7513   1.424   2.076   8.560
 2286SOL    HW1 7514   1.476   2.011   8.615
 2286SOL    HW2 7515   1.375   2.139   8.621
 2287SOL     OW 7516   1.001   1.896   8.602
 2287SOL    HW1 7517   0.938   1.824   8.571
 2287SOL    HW2 7518   1.094   1.860   8.602
 2288SOL     OW 7519   0.770   3.192   7.749
 2288SOL    HW1 7520   0.724   3.105   7.766
 2288SOL    HW2 7521   0.861   3.189   7.790
 2289SOL     OW 7522   0.618   3.429   8.732
 2289SOL    HW1 7523   0.613   3.511   8.789
 2289SOL    HW2 7524   0.707   3.426   8.687
 2290SOL     OW 7525   1.352   1.914   7.616
 2290SOL    HW1 7526   1.387   1.873   7.532
 2290SOL    HW2 7527   1.262   1.876   7.636
 2291SOL     OW 7528   1.300   2.315   8.139
 2291SOL    HW1 7529   1.241   2.395   8.143
 2291SOL    HW2 7530   1.315   2.280   8.232
 2292SOL     OW 7531   1.593   2.083   8.330
 2292SOL    HW1 7532   1.509   2.082   8.384
 2292SOL    HW2 7533   1.595   2.166   8.274
 2293SOL     OW 7534   0.039   2.939   7.748
 2293SOL    HW1 7535   0.138   2.928   7.739
 2293SOL    HW2 7536  -0.001   2.853   7.780
 2294SOL     OW 7537   0.875   3.508   7.785
 2294SOL    HW1 7538   0.798   3.473   7.731
 2294SOL    HW2 7539   0.843   3.579   7.847
 2295SOL     OW 7540   0.230   2.490   9.423
 2295SOL    HW1 7541   0.137   2.488   9.460
 2295SOL    HW2 7542   0.231   2.451   9.331
 2296SOL     OW 7543   0.225   2.137  10.306
 2296SOL    HW1 7544   0.260   2.120  10.398
 2296SOL    HW2 7545   0.137   2.092  10.294
 2297SOL     OW 7546   0.019   2.230   9.957
 2297SOL    HW1 7547  -0.063   2.273   9.996
 2297SOL    HW2 7548  -0.009   2.157   9.894
 2298SOL     OW 7549   0.569   3.137  10.475
 2298SOL    HW1 7550   0.476   3.130  10.438
 2298SOL    HW2 7551   0.580   3.226  10.519
 2299SOL     OW 7552   1.555   3.373  10.013
 2299SOL    HW1 7553   1.498   3.357  10.094
 2299SOL    HW2 7554   1.496   3.383   9.933
 2300SOL     OW 7555   1.135   2.565  10.027
 2300SOL    HW1 7556   1.192   2.643  10.002
 2300SOL    HW2 7557   1.075   2.591  10.103
 2301SOL     OW 7558   1.755   2.469   9.541
 2301SOL    HW1 7559   1.743   2.456   9.442
 2301SOL    HW2 7560   1.725   2.388   9.590
 2302SOL     OW 7561   0.768   3.006  10.333
 2302SOL    HW1 7562   0.690   3.023  10.393
 2302SOL    HW2 7563   0.802   3.093  10.297
 2303SOL     OW 7564   0.850   2.660  11.133
 2303SOL    HW1 7565   0.846   2.736  11.198
 2303SOL    HW2 7566   0.872   2.696  11.042
 2304SOL     OW 7567   0.685   2.874   9.975
 2304SOL    HW1 7568   0.754   2.858  10.045
 2304SOL    HW2 7569   0.612   2.931  10.013
 2305SOL     OW 7570   0.335   3.297  10.371
 2305SOL    HW1 7571   0.257   3.266  10.318
 2305SOL    HW2 7572   0.393   3.355  10.314
 2306SOL     OW 7573   1.460   3.367  10.649
 2306SOL    HW1 7574   1.484   3.461  10.675
 2306SOL    HW2 7575   1.444   3.313  10.731
 2307SOL     OW 7576   0.438   2.254  10.809
 2307SOL    HW1 7577   0.520   2.198  10.818
 2307SOL    HW2 7578   0.357   2.196  10.813
 2308SOL     OW 7579   1.603   2.309  10.047
 2308SOL    HW1 7580   1.529   2.355   9.997
 2308SOL    HW2 7581   1.654   2.377  10.100
 2309SOL     OW 7582   0.231   3.575   9.793
 2309SOL    HW1 7583   0.265   3.652   9.847
 2309SOL    HW2 7584   0.275   3.575   9.703
 2310SOL     OW 7585   0.230   3.296   9.848
 2310SOL    HW1 7586   0.204   3.392   9.848
 2310SOL    HW2 7587   0.159   3.242   9.893
 2311SOL     OW 7588   0.240   2.953  10.196
 2311SOL    HW1 7589   0.254   2.869  10.248
 2311SOL    HW2 7590   0.185   3.017  10.251
 2312SOL     OW 7591   0.620   3.648  10.749
 2312SOL    HW1 7592   0.528   3.631  10.784
 2312SOL    HW2 7593   0.648   3.740  10.775
 2313SOL     OW 7594   0.606   2.826   9.433
 2313SOL    HW1 7595   0.613   2.910   9.379
 2313SOL    HW2 7596   0.652   2.839   9.521
 2314SOL     OW 7597   1.594   1.976  10.790
 2314SOL    HW1 7598   1.576   2.043  10.718
 2314SOL    HW2 7599   1.591   2.022  10.879
 2315SOL     OW 7600   0.122   2.505   9.873
 2315SOL    HW1 7601   0.077   2.417   9.890
 2315SOL    HW2 7602   0.121   2.559   9.957
 2316SOL     OW 7603   1.842   3.629   9.669
 2316SOL    HW1 7604   1.896   3.600   9.749
 2316SOL    HW2 7605   1.872   3.719   9.640
 2317SOL     OW 7606   0.027   3.458   9.427
 2317SOL    HW1 7607   0.008   3.362   9.448
 2317SOL    HW2 7608  -0.006   3.516   9.502
 2318SOL     OW 7609   1.689   2.784   9.922
 2318SOL    HW1 7610   1.784   2.755   9.930
 2318SOL    HW2 7611   1.681   2.849   9.847
 2319SOL     OW 7612   1.641   2.970   9.742
 2319SOL    HW1 7613   1.727   2.972   9.690
 2319SOL    HW2 7614   1.655   3.017   9.830
 2320SOL     OW 7615   0.113   2.599  10.907
 2320SOL    HW1 7616   0.201   2.586  10.952
 2320SOL    HW2 7617   0.100   2.696  10.885
 2321SOL     OW 7618   0.613   3.227  10.036
 2321SOL    HW1 7619   0.564   3.140  10.045
 2321SOL    HW2 7620   0.590   3.270   9.949
 2322SOL     OW 7621   1.293   3.090  10.733
 2322SOL    HW1 7622   1.330   3.017  10.675
 2322SOL    HW2 7623   1.345   3.095  10.818
 2323SOL     OW 7624   0.809   1.866   9.812
 2323SOL    HW1 7625   0.849   1.957   9.803
 2323SOL    HW2 7626   0.709   1.874   9.818
 2324SOL     OW 7627   0.197   2.838  10.574
 2324SOL    HW1 7628   0.286   2.793  10.560
 2324SOL    HW2 7629   0.124   2.773  10.555
 2325SOL     OW 7630   1.525   2.861   9.500
 2325SOL    HW1 7631   1.462   2.785   9.513
 2325SOL    HW2 7632   1.573   2.879   9.586
 2326SOL     OW 7633   1.187   3.654  10.926
 2326SOL    HW1 7634   1.211   3.714  10.850
 2326SOL    HW2 7635   1.194   3.559  10.896
 2327SOL     OW 7636   0.317   2.113  11.111
 2327SOL    HW1 7637   0.388   2.184  11.117
 2327SOL    HW2 7638   0.229   2.152  11.139
 2328SOL     OW 7639   1.466   3.279  10.263
 2328SOL    HW1 7640   1.407   3.285  10.343
 2328SOL    HW2 7641   1.451   3.191  10.217
 2329SOL     OW 7642   1.667   3.576   9.882
 2329SOL    HW1 7643   1.626   3.553   9.794
 2329SOL    HW2 7644   1.649   3.502   9.947
 2330SOL     OW 7645   0.598   2.591   9.580
 2330SOL    HW1 7646   0.622   2.660   9.512
 2330SOL    HW2 7647   0.520   2.624   9.634
 2331SOL     OW 7648   1.281   2.207  10.254
 2331SOL    HW1 7649   1.195   2.157  10.241
 2331SOL    HW2 7650   1.343   2.153  10.310
 2332SOL     OW 7651   1.576   3.524   9.617
 2332SOL    HW1 7652   1.665   3.570   9.620
 2332SOL    HW2 7653   1.555   3.500   9.522
 2333SOL     OW 7654   0.807   2.467  10.775
 2333SOL    HW1 7655   0.760   2.464  10.864
 2333SOL    HW2 7656   0.756   2.412  10.709
 2334SOL     OW 7657   0.973   2.752  10.882
 2334SOL    HW1 7658   1.019   2.668  10.853
 2334SOL    HW2 7659   0.917   2.786  10.807
 2335SOL     OW 7660   0.991   2.272  10.552
 2335SOL    HW1 7661   0.914   2.306  10.606
 2335SOL    HW2 7662   0.957   2.221  10.473
 2336SOL     OW 7663   1.041   2.563   9.739
 2336SOL    HW1 7664   1.067   2.559   9.835
 2336SOL    HW2 7665   0.956   2.512   9.725
 2337SOL     OW 7666   0.076   2.673  10.099
 2337SOL    HW1 7667   0.175   2.661  10.108
 2337SOL    HW2 7668   0.052   2.768  10.120
 2338SOL     OW 7669   0.130   3.683  10.881
 2338SOL    HW1 7670   0.120   3.668  10.980
 2338SOL    HW2 7671   0.044   3.719  10.845
 2339SOL     OW 7672   0.865   2.210   9.505
 2339SOL    HW1 7673   0.924   2.273   9.456
 2339SOL    HW2 7674   0.884   2.116   9.476
 2340SOL     OW 7675   1.362   3.006   9.855
 2340SOL    HW1 7676   1.445   2.977   9.807
 2340SOL    HW2 7677   1.313   3.073   9.799
 2341SOL     OW 7678   0.550   2.058  10.195
 2341SOL    HW1 7679   0.545   2.053  10.295
 2341SOL    HW2 7680   0.552   2.154  10.166
 2342SOL     OW 7681   1.008   3.318   9.787
 2342SOL    HW1 7682   0.962   3.390   9.735
 2342SOL    HW2 7683   1.004   3.338   9.885
 2343SOL     OW 7684   0.351   3.663  10.163
 2343SOL    HW1 7685   0.401   3.577  10.169
 2343SOL    HW2 7686   0.416   3.740  10.160
 2344SOL     OW 7687   1.795   2.928  10.183
 2344SOL    HW1 7688   1.733   2.913  10.107
 2344SOL    HW2 7689   1.743   2.939  10.268
 2345SOL     OW 7690   1.227   3.412  10.816
 2345SOL    HW1 7691   1.233   3.335  10.880
 2345SOL    HW2 7692   1.175   3.386  10.736
 2346SOL     OW 7693   0.321   2.805   9.552
 2346SOL    HW1 7694   0.403   2.844   9.510
 2346SOL    HW2 7695   0.294   2.723   9.503
 2347SOL     OW 7696   1.458   2.597  10.038
 2347SOL    HW1 7697   1.453   2.532  10.113
 2347SOL    HW2 7698   1.538   2.656  10.051
 2348SOL     OW 7699   0.461   3.128  11.037
 2348SOL    HW1 7700   0.411   3.129  10.951
 2348SOL    HW2 7701   0.398   3.110  11.113
 2349SOL     OW 7702   1.111   3.638   9.547
 2349SOL    HW1 7703   1.051   3.576   9.597
 2349SOL    HW2 7704   1.142   3.594   9.462
 2350SOL     OW 7705   0.202   2.147  10.808
 2350SOL    HW1 7706   0.122   2.207  10.795
 2350SOL    HW2 7707   0.192   2.098  10.894
 2351SOL     OW 7708   1.632   3.239   9.391
 2351SOL    HW1 7709   1.600   3.333   9.381
 2351SOL    HW2 7710   1.556   3.176   9.379
 2352SOL     OW 7711   0.464   3.605   9.633
 2352SOL    HW1 7712   0.497   3.644   9.719
 2352SOL    HW2 7713   0.540   3.598   9.568
 2353SOL     OW 7714   1.400   1.969   9.736
 2353SOL    HW1 7715   1.376   1.932   9.646
 2353SOL    HW2 7716   1.499   1.985   9.740
 2354SOL     OW 7717   0.249   3.647  10.551
 2354SOL    HW1 7718   0.306   3.582  10.601
 2354SOL    HW2 7719   0.233   3.614  10.458
 2355SOL     OW 7720   0.940   3.560  10.214
 2355SOL    HW1 7721   1.020   3.503  10.235
 2355SOL    HW2 7722   0.891   3.520  10.137
 2356SOL     OW 7723   0.382   2.562   9.790
 2356SOL    HW1 7724   0.427   2.472   9.787
 2356SOL    HW2 7725   0.288   2.551   9.823
 2357SOL     OW 7726   0.614   1.984   9.427
 2357SOL    HW1 7727   0.712   1.962   9.434
 2357SOL    HW2 7728   0.583   1.967   9.334
 2358SOL     OW 7729   0.781   2.126  11.059
 2358SOL    HW1 7730   0.848   2.065  11.102
 2358SOL    HW2 7731   0.708   2.145  11.124
 2359SOL     OW 7732   0.888   3.376  10.505
 2359SOL    HW1 7733   0.865   3.351  10.411
 2359SOL    HW2 7734   0.949   3.307  10.544
 2360SOL     OW 7735   1.351   2.452  10.743
 2360SOL    HW1 7736   1.379   2.409  10.828
 2360SOL    HW2 7737   1.376   2.548  10.744
 2361SOL     OW 7738   0.803   3.264  10.234
 2361SOL    HW1 7739   0.893   3.278  10.192
 2361SOL    HW2 7740   0.732   3.266  10.163
 2362SOL     OW 7741   0.922   2.365  10.209
 2362SOL    HW1 7742   0.897   2.356  10.113
 2362SOL    HW2 7743   0.970   2.283  10.240
 2363SOL     OW 7744   0.539   1.926   9.822
 2363SOL    HW1 7745   0.458   1.927   9.880
 2363SOL    HW2 7746   0.542   2.009   9.767
 2364SOL     OW 7747   1.434   3.050   9.351
 2364SOL    HW1 7748   1.466   2.974   9.408
 2364SOL    HW2 7749   1.342   3.077   9.381
 2365SOL     OW 7750   0.297   1.897   9.481
 2365SOL    HW1 7751   0.346   1.981   9.460
 2365SOL    HW2 7752   0.359   1.832   9.526
 2366SOL     OW 7753   0.935   2.098   9.790
 2366SOL    HW1 7754   0.887   2.139   9.712
 2366SOL    HW2 7755   1.034   2.096   9.771
 2367SOL     OW 7756   1.076   2.545  10.774
 2367SOL    HW1 7757   0.996   2.484  10.777
 2367SOL    HW2 7758   1.157   2.492  10.750
 2368SOL     OW 7759   1.227   3.432  10.103
 2368SOL    HW1 7760   1.248   3.506  10.038
 2368SOL    HW2 7761   1.295   3.432  10.176
 2369SOL     OW 7762   0.459   3.014  10.051
 2369SOL    HW1 7763   0.388   2.987  10.116
 2369SOL    HW2 7764   0.433   2.986   9.958
 2370SOL     OW 7765   1.271   3.659   9.901
 2370SOL    HW1 7766   1.315   3.723   9.837
 2370SOL    HW2 7767   1.221   3.711   9.971
 2371SOL     OW 7768   1.032   2.411   9.326
 2371SOL    HW1 7769   0.991   2.493   9.287
 2371SOL    HW2 7770   1.096   2.437   9.399
 2372SOL     OW 7771   0.078   2.418  10.696
 2372SOL    HW1 7772   0.170   2.417  10.655
 2372SOL    HW2 7773   0.072   2.492  10.763
 2373SOL     OW 7774   0.561   2.084  10.457
 2373SOL    HW1 7775   0.599   2.000  10.494
 2373SOL    HW2 7776   0.473   2.103  10.501
 2374SOL     OW 7777   0.866   2.316   9.952
 2374SOL    HW1 7778   0.834   2.388   9.890
 2374SOL    HW2 7779   0.890   2.235   9.899
 2375SOL     OW 7780   1.017   1.901  10.063
 2375SOL    HW1 7781   0.945   1.906   9.994
 2375SOL    HW2 7782   0.993   1.832  10.132
 2376SOL     OW 7783   1.429   3.035  10.177
 2376SOL    HW1 7784   1.374   2.951  10.170
 2376SOL    HW2 7785   1.455   3.064  10.085
 2377SOL     OW 7786   1.466   2.452  10.302
 2377SOL    HW1 7787   1.436   2.357  10.309
 2377SOL    HW2 7788   1.539   2.468  10.368
 2378SOL     OW 7789   1.857   2.695   9.687
 2378SOL    HW1 7790   1.899   2.631   9.751
 2378SOL    HW2 7791   1.819   2.644   9.609
 2379SOL     OW 7792   0.488   3.247   9.484
 2379SOL    HW1 7793   0.401   3.232   9.531
 2379SOL    HW2 7794   0.471   3.273   9.389
 2380SOL     OW 7795   1.664   3.142   9.967
 2380SOL    HW1 7796   1.763   3.150   9.981
 2380SOL    HW2 7797   1.619   3.226   9.998
 2381SOL     OW 7798   1.390   2.437   9.388
 2381SOL    HW1 7799   1.336   2.416   9.469
 2381SOL    HW2 7800   1.481   2.396   9.397
 2382SOL     OW 7801   0.527   2.118   9.638
 2382SOL    HW1 7802   0.554   2.059   9.563
 2382SOL    HW2 7803   0.527   2.213   9.607
 2383SOL     OW 7804   1.754   3.085  10.898
 2383SOL    HW1 7805   1.845   3.046  10.885
 2383SOL    HW2 7806   1.762   3.181  10.922
 2384SOL     OW 7807   1.064   3.209  10.650
 2384SOL    HW1 7808   0.984   3.186  10.705
 2384SOL    HW2 7809   1.147   3.183  10.699
 2385SOL     OW 7810   1.111   3.057  10.410
 2385SOL    HW1 7811   1.071   3.101  10.491
 2385SOL    HW2 7812   1.070   3.094  10.327
 2386SOL     OW 7813   1.638   2.961  10.389
 2386SOL    HW1 7814   1.643   3.042  10.448
 2386SOL    HW2 7815   1.552   2.963  10.338
 2387SOL     OW 7816   0.915   1.951  10.712
 2387SOL    HW1 7817   0.940   1.931  10.617
 2387SOL    HW2 7818   0.987   2.007  10.754
 2388SOL     OW 7819   0.705   2.912   9.678
 2388SOL    HW1 7820   0.691   2.919   9.777
 2388SOL    HW2 7821   0.789   2.861   9.660
 2389SOL     OW 7822   0.410   2.675  10.561
 2389SOL    HW1 7823   0.496   2.687  10.611
 2389SOL    HW2 7824   0.368   2.588  10.588
 2390SOL     OW 7825   1.274   2.248  10.572
 2390SOL    HW1 7826   1.295   2.322  10.636
 2390SOL    HW2 7827   1.185   2.265  10.529
 2391SOL     OW 7828   0.064   3.426  10.641
 2391SOL    HW1 7829   0.018   3.508  10.607
 2391SOL    HW2 7830   0.162   3.445  10.650
 2392SOL     OW 7831   0.367   2.962   9.811
 2392SOL    HW1 7832   0.360   3.045   9.755
 2392SOL    HW2 7833   0.371   2.882   9.751
 2393SOL     OW 7834   0.566   2.399  10.175
 2393SOL    HW1 7835   0.578   2.465  10.101
 2393SOL    HW2 7836   0.612   2.433  10.258
 2394SOL     OW 7837   1.252   3.210   9.698
 2394SOL    HW1 7838   1.302   3.287   9.738
 2394SOL    HW2 7839   1.157   3.212   9.730
 2395SOL     OW 7840   1.272   3.307  10.452
 2395SOL    HW1 7841   1.319   3.320  10.539
 2395SOL    HW2 7842   1.206   3.233  10.461
 2396SOL     OW 7843   1.582   2.501   9.782
 2396SOL    HW1 7844   1.551   2.562   9.855
 2396SOL    HW2 7845   1.632   2.553   9.713
 2397SOL     OW 7846   0.354   3.372  10.639
 2397SOL    HW1 7847   0.333   3.328  10.552
 2397SOL    HW2 7848   0.451   3.398  10.642
 2398SOL     OW 7849   0.402   2.613  10.908
 2398SOL    HW1 7850   0.470   2.668  10.861
 2398SOL    HW2 7851   0.442   2.525  10.935
 2399SOL     OW 7852   1.587   2.641  10.980
 2399SOL    HW1 7853   1.495   2.679  10.975
 2399SOL    HW2 7854   1.647   2.688  10.915
 2400SOL     OW 7855   0.573   2.732  10.339
 2400SOL    HW1 7856   0.617   2.821  10.330
 2400SOL    HW2 7857   0.510   2.732  10.416
 2401SOL     OW 7858   1.360   2.724  10.355
 2401SOL    HW1 7859   1.285   2.724  10.289
 2401SOL    HW2 7860   1.397   2.632  10.364
 2402SOL     OW 7861   1.209   2.387   9.585
 2402SOL    HW1 7862   1.222   2.303   9.639
 2402SOL    HW2 7863   1.180   2.461   9.645
 2403SOL     OW 7864   0.307   2.075  10.541
 2403SOL    HW1 7865   0.284   2.112  10.631
 2403SOL    HW2 7866   0.277   1.980  10.535
 2404SOL     OW 7867   0.037   3.172  10.592
 2404SOL    HW1 7868   0.090   3.123  10.660
 2404SOL    HW2 7869   0.059   3.270  10.597
 2405SOL     OW 7870   0.732   2.496  10.374
 2405SOL    HW1 7871   0.791   2.470  10.298
 2405SOL    HW2 7872   0.704   2.592  10.363
 2406SOL     OW 7873   0.307   1.925   9.928
 2406SOL    HW1 7874   0.296   2.019   9.961
 2406SOL    HW2 7875   0.302   1.862  10.005
 2407SOL     OW 7876   1.622   2.229   9.684
 2407SOL    HW1 7877   1.624   2.153   9.748
 2407SOL    HW2 7878   1.574   2.306   9.724
 2408SOL     OW 7879   1.023   2.628  10.276
 2408SOL    HW1 7880   1.038   2.649  10.372
 2408SOL    HW2 7881   0.993   2.533  10.267
 2409SOL     OW 7882   0.980   3.435  11.010
 2409SOL    HW1 7883   0.960   3.479  10.922
 2409SOL    HW2 7884   1.019   3.344  10.994
 2410SOL     OW 7885   1.859   3.380  10.915
 2410SOL    HW1 7886   1.873   3.407  10.820
 2410SOL    HW2 7887   1.942   3.402  10.968
 2411SOL     OW 7888   0.350   2.760  11.114
 2411SOL    HW1 7889   0.426   2.804  11.162
 2411SOL    HW2 7890   0.385   2.713  11.032
 2412SOL     OW 7891   1.540   2.136   9.435
 2412SOL    HW1 7892   1.479   2.061   9.458
 2412SOL    HW2 7893   1.562   2.188   9.518
 2413SOL     OW 7894   1.303   2.700   9.352
 2413SOL    HW1 7895   1.337   2.607   9.367
 2413SOL    HW2 7896   1.321   2.727   9.257
 2414SOL     OW 7897   1.068   3.195  10.159
 2414SOL    HW1 7898   1.075   3.111  10.104
 2414SOL    HW2 7899   1.130   3.264  10.123
 2415SOL     OW 7900   0.319   2.672  10.259
 2415SOL    HW1 7901   0.412   2.708  10.264
 2415SOL    HW2 7902   0.313   2.587  10.311
 2416SOL     OW 7903   0.339   2.371  10.316
 2416SOL    HW1 7904   0.287   2.288  10.299
 2416SOL    HW2 7905   0.416   2.376  10.252
 2417SOL     OW 7906   1.160   2.069  10.787
 2417SOL    HW1 7907   1.160   2.133  10.864
 2417SOL    HW2 7908   1.188   2.117  10.704
 2418SOL     OW 7909   0.008   3.188   9.510
 2418SOL    HW1 7910  -0.085   3.209   9.479
 2418SOL    HW2 7911   0.018   3.089   9.523
 2419SOL     OW 7912   0.088   3.663  10.237
 2419SOL    HW1 7913   0.046   3.577  10.210
 2419SOL    HW2 7914   0.182   3.666  10.203
 2420SOL     OW 7915   0.504   3.430  10.220
 2420SOL    HW1 7916   0.570   3.504  10.229
 2420SOL    HW2 7917   0.548   3.351  10.178
 2421SOL     OW 7918   1.002   2.658  10.548
 2421SOL    HW1 7919   1.043   2.626  10.634
 2421SOL    HW2 7920   0.906   2.631  10.545
 2422SOL     OW 7921   0.040   2.406  10.424
 2422SOL    HW1 7922   0.125   2.373  10.383
 2422SOL    HW2 7923   0.053   2.421  10.522
 2423SOL     OW 7924   0.815   2.434   9.635
 2423SOL    HW1 7925   0.822   2.345   9.589
 2423SOL    HW2 7926   0.721   2.468   9.627
 2424SOL     OW 7927   1.657   2.466  10.516
 2424SOL    HW1 7928   1.619   2.397  10.578
 2424SOL    HW2 7929   1.739   2.430  10.472
 2425SOL     OW 7930   0.252   3.426  11.054
 2425SOL    HW1 7931   0.222   3.483  11.130
 2425SOL    HW2 7932   0.245   3.329  11.080
 2426SOL     OW 7933   0.671   2.326  10.579
 2426SOL    HW1 7934   0.637   2.237  10.549
 2426SOL    HW2 7935   0.697   2.380  10.499
 2427SOL     OW 7936   0.930   3.540  10.775
 2427SOL    HW1 7937   0.906   3.522  10.680
 2427SOL    HW2 7938   0.960   3.634  10.785
 2428SOL     OW 7939   0.473   2.362   9.501
 2428SOL    HW1 7940   0.534   2.442   9.505
 2428SOL    HW2 7941   0.378   2.393   9.508
 2429SOL     OW 7942   0.159   2.999  10.776
 2429SOL    HW1 7943   0.181   2.938  10.852
 2429SOL    HW2 7944   0.169   2.950  10.690
 2430SOL     OW 7945   1.347   2.921  10.544
 2430SOL    HW1 7946   1.371   2.858  10.470
 2430SOL    HW2 7947   1.257   2.961  10.526
 2431SOL     OW 7948   1.302   2.717   9.619
 2431SOL    HW1 7949   1.216   2.686   9.661
 2431SOL    HW2 7950   1.298   2.703   9.520
 2432SOL     OW 7951   1.759   3.609  10.464
 2432SOL    HW1 7952   1.820   3.639  10.391
 2432SOL    HW2 7953   1.721   3.520  10.442
 2433SOL     OW 7954   1.252   3.593  10.438
 2433SOL    HW1 7955   1.336   3.598  10.384
 2433SOL    HW2 7956   1.229   3.497  10.456
 2434SOL     OW 7957   0.083   3.120  10.332
 2434SOL    HW1 7958   0.078   3.119  10.432
 2434SOL    HW2 7959   0.000   3.079  10.294
 2435SOL     OW 7960   1.726   1.997   9.833
 2435SOL    HW1 7961   1.799   1.980   9.766
 2435SOL    HW2 7962   1.695   1.910   9.871
 2436SOL     OW 7963   1.388   3.435   9.787
 2436SOL    HW1 7964   1.455   3.447   9.713
 2436SOL    HW2 7965   1.348   3.524   9.810
 2437SOL     OW 7966   1.280   2.789   9.982
 2437SOL    HW1 7967   1.340   2.708   9.984
 2437SOL    HW2 7968   1.320   2.858   9.922
 2438SOL     OW 7969   0.830   3.135  10.732
 2438SOL    HW1 7970   0.825   3.168  10.827
 2438SOL    HW2 7971   0.744   3.154  10.686
 2439SOL     OW 7972   0.672   3.478   9.464
 2439SOL    HW1 7973   0.681   3.488   9.365
 2439SOL    HW2 7974   0.632   3.389   9.485
 2440SOL     OW 7975   1.650   3.582  10.704
 2440SOL    HW1 7976   1.703   3.592  10.620
 2440SOL    HW2 7977   1.623   3.672  10.738
 2441SOL     OW 7978   1.841   2.037  10.273
 2441SOL    HW1 7979   1.880   1.952  10.237
 2441SOL    HW2 7980   1.743   2.039  10.254
 2442SOL     OW 7981   0.263   2.188  10.030
 2442SOL    HW1 7982   0.184   2.239   9.996
 2442SOL    HW2 7983   0.254   2.173  10.128
 2443SOL     OW 7984   1.194   3.474   9.341
 2443SOL    HW1 7985   1.200   3.381   9.378
 2443SOL    HW2 7986   1.135   3.474   9.261
 2444SOL     OW 7987   0.822   2.864  10.682
 2444SOL    HW1 7988   0.862   2.863  10.590
 2444SOL    HW2 7989   0.832   2.956  10.722
 2445SOL     OW 7990   0.916   2.772   9.601
 2445SOL    HW1 7991   0.979   2.810   9.533
 2445SOL    HW2 7992   0.956   2.689   9.640
 2446SOL     OW 7993   1.504   3.469   9.354
 2446SOL    HW1 7994   1.412   3.506   9.361
 2446SOL    HW2 7995   1.542   3.489   9.264
 2447SOL     OW 7996   0.372   3.150  10.800
 2447SOL    HW1 7997   0.359   3.243  10.766
 2447SOL    HW2 7998   0.288   3.098  10.787
 2448SOL     OW 7999   1.614   3.154  10.599
 2448SOL    HW1 8000   1.674   3.157  10.679
 2448SOL    HW2 8001   1.539   3.218  10.612
 2449SOL     OW 8002   1.039   2.960  10.006
 2449SOL    HW1 8003   0.969   2.913  10.060
 2449SOL    HW2 8004   1.098   2.892   9.963
 2450SOL     OW 8005   1.014   2.098  10.281
 2450SOL    HW1 8006   1.006   2.062  10.188
 2450SOL    HW2 8007   1.012   2.022  10.346
 2451SOL     OW 8008   0.590   3.349   9.801
 2451SOL    HW1 8009   0.632   3.291   9.731
 2451SOL    HW2 8010   0.546   3.428   9.757
 2452SOL     OW 8011   1.709   2.247  10.691
 2452SOL    HW1 8012   1.782   2.316  10.695
 2452SOL    HW2 8013   1.737   2.172  10.632
 2453SOL     OW 8014   0.255   3.210   9.600
 2453SOL    HW1 8015   0.159   3.211   9.573
 2453SOL    HW2 8016   0.267   3.263   9.684
 2454SOL     OW 8017   0.105   2.875  11.036
 2454SOL    HW1 8018   0.028   2.842  11.090
 2454SOL    HW2 8019   0.190   2.845  11.078
 2455SOL     OW 8020   0.672   2.065  10.799
 2455SOL    HW1 8021   0.762   2.049  10.759
 2455SOL    HW2 8022   0.680   2.070  10.898
 2456SOL     OW 8023   0.075   2.207   9.343
 2456SOL    HW1 8024  -0.017   2.179   9.314
 2456SOL    HW2 8025   0.106   2.284   9.287
 2457SOL     OW 8026   1.440   2.718  10.708
 2457SOL    HW1 8027   1.383   2.770  10.645
 2457SOL    HW2 8028   1.536   2.730  10.684
 2458SOL     OW 8029   0.072   2.028   9.628
 2458SOL    HW1 8030   0.055   2.111   9.574
 2458SOL    HW2 8031   0.162   1.991   9.606
 2459SOL     OW 8032   1.183   3.197   9.429
 2459SOL    HW1 8033   1.084   3.186   9.431
 2459SOL    HW2 8034   1.217   3.212   9.522
 2460SOL     OW 8035   0.613   2.704  10.741
 2460SOL    HW1 8036   0.669   2.785  10.724
 2460SOL    HW2 8037   0.672   2.624  10.744
 2461SOL     OW 8038   1.493   3.629  10.269
 2461SOL    HW1 8039   1.526   3.693  10.200
 2461SOL    HW2 8040   1.559   3.623  10.344
 2462SOL     OW 8041   0.716   2.427  11.018
 2462SOL    HW1 8042   0.735   2.492  11.092
 2462SOL    HW2 8043   0.776   2.347  11.027
 2463SOL     OW 8044   0.390   3.603  10.870
 2463SOL    HW1 8045   0.299   3.644  10.868
 2463SOL    HW2 8046   0.383   3.509  10.902
 2464SOL     OW 8047   1.674   2.745  10.564
 2464SOL    HW1 8048   1.647   2.656  10.527
 2464SOL    HW2 8049   1.675   2.813  10.491
 2465SOL     OW 8050   1.225   2.187   9.759
 2465SOL    HW1 8051   1.290   2.113   9.748
 2465SOL    HW2 8052   1.245   2.237   9.843
 2466SOL     OW 8053   0.594   2.607   9.962
 2466SOL    HW1 8054   0.644   2.692   9.943
 2466SOL    HW2 8055   0.506   2.609   9.914
 2467SOL     OW 8056   1.777   2.204  10.952
 2467SOL    HW1 8057   1.760   2.235  10.858
 2467SOL    HW2 8058   1.693   2.167  10.990
 2468SOL     OW 8059   1.730   2.796  10.827
 2468SOL    HW1 8060   1.768   2.887  10.842
 2468SOL    HW2 8061   1.722   2.779  10.728
 2469SOL     OW 8062   0.859   3.236   9.326
 2469SOL    HW1 8063   0.813   3.251   9.414
 2469SOL    HW2 8064   0.903   3.321   9.296
 2470SOL     OW 8065   0.661   3.652  10.263
 2470SOL    HW1 8066   0.615   3.740  10.250
 2470SOL    HW2 8067   0.760   3.664  10.256
 2471SOL     OW 8068   0.859   2.818  10.171
 2471SOL    HW1 8069   0.913   2.749  10.219
 2471SOL    HW2 8070   0.827   2.887  10.237
 2472SOL     OW 8071   1.083   2.846   9.397
 2472SOL    HW1 8072   1.060   2.899   9.315
 2472SOL    HW2 8073   1.164   2.790   9.378
 2473SOL     OW 8074   1.861   3.431  10.161
 2473SOL    HW1 8075   1.790   3.419  10.091
 2473SOL    HW2 8076   1.862   3.352  10.221
 2474SOL     OW 8077   0.079   3.102   9.963
 2474SOL    HW1 8078   0.078   3.055  10.051
 2474SOL    HW2 8079   0.161   3.074   9.912
 2475SOL     OW 8080   0.672   3.253  10.934
 2475SOL    HW1 8081   0.594   3.203  10.972
 2475SOL    HW2 8082   0.669   3.348  10.965
 2476SOL     OW 8083   1.824   2.054  10.537
 2476SOL    HW1 8084   1.820   1.964  10.581
 2476SOL    HW2 8085   1.827   2.043  10.438
 2477SOL     OW 8086   0.428   2.286   9.830
 2477SOL    HW1 8087   0.458   2.214   9.768
 2477SOL    HW2 8088   0.389   2.246   9.913
 2478SOL     OW 8089   1.705   3.349  10.414
 2478SOL    HW1 8090   1.612   3.324  10.387
 2478SOL    HW2 8091   1.731   3.299  10.496
 2479SOL     OW 8092   0.317   2.409  10.590
 2479SOL    HW1 8093   0.355   2.350  10.662
 2479SOL    HW2 8094   0.357   2.383  10.502
 2480SOL     OW 8095   0.812   3.448   9.997
 2480SOL    HW1 8096   0.844   3.458   9.903
 2480SOL    HW2 8097   0.733   3.386   9.999
 2481SOL     OW 8098   1.424   2.076  10.422
 2481SOL    HW1 8099   1.476   2.011  10.477
 2481SOL    HW2 8100   1.375   2.139  10.483
 2482SOL     OW 8101   1.001   1.896  10.464
 2482SOL    HW1 8102   0.938   1.824  10.433
 2482SOL    HW2 8103   1.094   1.860  10.464
 2483SOL     OW 8104   0.770   3.192   9.611
 2483SOL    HW1 8105   0.724   3.105   9.628
 2483SOL    HW2 8106   0.861   3.189   9.652
 2484SOL     OW 8107   0.618   3.429  10.594
 2484SOL    HW1 8108   0.613   3.511  10.651
 2484SOL    HW2 8109   0.707   3.426  10.549
 2485SOL     OW 8110   1.352   1.914   9.478
 2485SOL    HW1 8111   1.387   1.873   9.394
 2485SOL    HW2 8112   1.262   1.876   9.498
 2486SOL     OW 8113   1.300   2.315  10.001
 2486SOL    HW1 8114   1.241   2.395  10.005
 2486SOL    HW2 8115   1.315   2.280  10.094
 2487SOL     OW 8116   1.593   2.083  10.192
 2487SOL    HW1 8117   1.509   2.082  10.246
 2487SOL    HW2 8118   1.595   2.166  10.136
 2488SOL     OW 8119   0.039   2.939   9.610
 2488SOL    HW1 8120   0.138   2.928   9.601
 2488SOL    HW2 8121  -0.001   2.853   9.642
 2489SOL     OW 8122   0.875   3.508   9.647
 2489SOL    HW1 8123   0.798   3.473   9.593
 2489SOL    HW2 8124   0.843   3.579   9.709
 2490SOL     OW 8125   0.230   4.352   0.113
 2490SOL    HW1 8126   0.137   4.350   0.150
 2490SOL    HW2 8127   0.231   4.313   0.021
 2491SOL     OW 8128   0.225   3.999   0.996
 2491SOL    HW1 8129   0.260   3.982   1.088
 2491SOL    HW2 8130   0.137   3.954   0.984
 2492SOL     OW 8131   0.019   4.092   0.647
 2492SOL    HW1 8132  -0.063   4.135   0.686
 2492SOL    HW2 8133  -0.009   4.019   0.584
 2493SOL     OW 8134   1.755   4.331   0.231
 2493SOL    HW1 8135   1.743   4.318   0.132
 2493SOL    HW2 8136   1.725   4.250   0.280
 2494SOL     OW 8137   0.685   4.736   0.665
 2494SOL    HW1 8138   0.754   4.720   0.735
 2494SOL    HW2 8139   0.612   4.793   0.703
 2495SOL     OW 8140   0.438   4.116   1.499
 2495SOL    HW1 8141   0.520   4.060   1.508
 2495SOL    HW2 8142   0.357   4.058   1.503
 2496SOL     OW 8143   1.603   4.171   0.737
 2496SOL    HW1 8144   1.529   4.217   0.687
 2496SOL    HW2 8145   1.654   4.239   0.790
 2497SOL     OW 8146   1.594   3.838   1.480
 2497SOL    HW1 8147   1.576   3.905   1.408
 2497SOL    HW2 8148   1.591   3.884   1.569
 2498SOL     OW 8149   0.122   4.367   0.563
 2498SOL    HW1 8150   0.077   4.279   0.580
 2498SOL    HW2 8151   0.121   4.421   0.647
 2499SOL     OW 8152   0.113   4.461   1.597
 2499SOL    HW1 8153   0.201   4.448   1.642
 2499SOL    HW2 8154   0.100   4.558   1.575
 2500SOL     OW 8155   0.809   3.728   0.502
 2500SOL    HW1 8156   0.849   3.819   0.493
 2500SOL    HW2 8157   0.709   3.736   0.508
 2501SOL     OW 8158   0.317   3.975   1.801
 2501SOL    HW1 8159   0.388   4.046   1.807
 2501SOL    HW2 8160   0.229   4.014   1.829
 2502SOL     OW 8161   1.281   4.069   0.944
 2502SOL    HW1 8162   1.195   4.019   0.931
 2502SOL    HW2 8163   1.343   4.015   1.000
 2503SOL     OW 8164   0.807   4.329   1.465
 2503SOL    HW1 8165   0.760   4.326   1.554
 2503SOL    HW2 8166   0.756   4.274   1.399
 2504SOL     OW 8167   1.394   4.193   1.674
 2504SOL    HW1 8168   1.374   4.236   1.762
 2504SOL    HW2 8169   1.472   4.131   1.683
 2505SOL     OW 8170   0.991   4.134   1.242
 2505SOL    HW1 8171   0.914   4.168   1.296
 2505SOL    HW2 8172   0.957   4.083   1.163
 2506SOL     OW 8173   1.041   4.425   0.429
 2506SOL    HW1 8174   1.067   4.421   0.525
 2506SOL    HW2 8175   0.956   4.374   0.415
 2507SOL     OW 8176   0.076   4.535   0.789
 2507SOL    HW1 8177   0.175   4.523   0.798
 2507SOL    HW2 8178   0.052   4.630   0.810
 2508SOL     OW 8179   0.865   4.072   0.195
 2508SOL    HW1 8180   0.924   4.135   0.146
 2508SOL    HW2 8181   0.884   3.978   0.166
 2509SOL     OW 8182   1.719   4.309   1.831
 2509SOL    HW1 8183   1.693   4.398   1.795
 2509SOL    HW2 8184   1.717   4.241   1.758
 2510SOL     OW 8185   0.550   3.920   0.885
 2510SOL    HW1 8186   0.545   3.915   0.985
 2510SOL    HW2 8187   0.552   4.016   0.856
 2511SOL     OW 8188   1.458   4.459   0.728
 2511SOL    HW1 8189   1.453   4.394   0.803
 2511SOL    HW2 8190   1.538   4.518   0.741
 2512SOL     OW 8191   0.202   4.009   1.498
 2512SOL    HW1 8192   0.122   4.069   1.485
 2512SOL    HW2 8193   0.192   3.960   1.584
 2513SOL     OW 8194   1.400   3.831   0.426
 2513SOL    HW1 8195   1.376   3.794   0.336
 2513SOL    HW2 8196   1.499   3.847   0.430
 2514SOL     OW 8197   0.382   4.424   0.480
 2514SOL    HW1 8198   0.427   4.334   0.477
 2514SOL    HW2 8199   0.288   4.413   0.513
 2515SOL     OW 8200   1.547   3.946   1.729
 2515SOL    HW1 8201   1.542   3.983   1.821
 2515SOL    HW2 8202   1.475   3.877   1.717
 2516SOL     OW 8203   0.614   3.846   0.117
 2516SOL    HW1 8204   0.712   3.824   0.124
 2516SOL    HW2 8205   0.583   3.829   0.024
 2517SOL     OW 8206   0.781   3.988   1.749
 2517SOL    HW1 8207   0.848   3.927   1.792
 2517SOL    HW2 8208   0.708   4.007   1.814
 2518SOL     OW 8209   1.351   4.314   1.433
 2518SOL    HW1 8210   1.379   4.271   1.518
 2518SOL    HW2 8211   1.376   4.410   1.434
 2519SOL     OW 8212   0.922   4.227   0.899
 2519SOL    HW1 8213   0.897   4.218   0.803
 2519SOL    HW2 8214   0.970   4.145   0.930
 2520SOL     OW 8215   0.539   3.788   0.512
 2520SOL    HW1 8216   0.458   3.789   0.570
 2520SOL    HW2 8217   0.542   3.871   0.457
 2521SOL     OW 8218   0.297   3.759   0.171
 2521SOL    HW1 8219   0.346   3.843   0.150
 2521SOL    HW2 8220   0.359   3.694   0.216
 2522SOL     OW 8221   0.935   3.960   0.480
 2522SOL    HW1 8222   0.887   4.001   0.402
 2522SOL    HW2 8223   1.034   3.958   0.461
 2523SOL     OW 8224   1.076   4.407   1.464
 2523SOL    HW1 8225   0.996   4.346   1.467
 2523SOL    HW2 8226   1.157   4.354   1.440
 2524SOL     OW 8227   1.032   4.273   0.016
 2524SOL    HW1 8228   0.991   4.355  -0.023
 2524SOL    HW2 8229   1.096   4.299   0.089
 2525SOL     OW 8230   0.078   4.280   1.386
 2525SOL    HW1 8231   0.170   4.279   1.345
 2525SOL    HW2 8232   0.072   4.354   1.453
 2526SOL     OW 8233   0.561   3.946   1.147
 2526SOL    HW1 8234   0.599   3.862   1.184
 2526SOL    HW2 8235   0.473   3.965   1.191
 2527SOL     OW 8236   0.866   4.178   0.642
 2527SOL    HW1 8237   0.834   4.250   0.580
 2527SOL    HW2 8238   0.890   4.097   0.589
 2528SOL     OW 8239   1.017   3.763   0.753
 2528SOL    HW1 8240   0.945   3.768   0.684
 2528SOL    HW2 8241   0.993   3.694   0.822
 2529SOL     OW 8242   1.466   4.314   0.992
 2529SOL    HW1 8243   1.436   4.219   0.999
 2529SOL    HW2 8244   1.539   4.330   1.058
 2530SOL     OW 8245   1.390   4.299   0.078
 2530SOL    HW1 8246   1.336   4.278   0.159
 2530SOL    HW2 8247   1.481   4.258   0.087
 2531SOL     OW 8248   0.527   3.980   0.328
 2531SOL    HW1 8249   0.554   3.921   0.253
 2531SOL    HW2 8250   0.527   4.075   0.297
 2532SOL     OW 8251   0.915   3.813   1.402
 2532SOL    HW1 8252   0.940   3.793   1.307
 2532SOL    HW2 8253   0.987   3.869   1.444
 2533SOL     OW 8254   0.410   4.537   1.251
 2533SOL    HW1 8255   0.496   4.549   1.301
 2533SOL    HW2 8256   0.368   4.450   1.278
 2534SOL     OW 8257   1.274   4.110   1.262
 2534SOL    HW1 8258   1.295   4.184   1.326
 2534SOL    HW2 8259   1.185   4.127   1.219
 2535SOL     OW 8260   0.566   4.261   0.865
 2535SOL    HW1 8261   0.578   4.327   0.791
 2535SOL    HW2 8262   0.612   4.295   0.948
 2536SOL     OW 8263   1.582   4.363   0.472
 2536SOL    HW1 8264   1.551   4.424   0.545
 2536SOL    HW2 8265   1.632   4.415   0.403
 2537SOL     OW 8266   1.013   3.829   1.770
 2537SOL    HW1 8267   1.019   3.914   1.718
 2537SOL    HW2 8268   1.045   3.753   1.713
 2538SOL     OW 8269   0.504   3.774   1.740
 2538SOL    HW1 8270   0.462   3.717   1.670
 2538SOL    HW2 8271   0.438   3.843   1.772
 2539SOL     OW 8272   1.209   4.249   0.275
 2539SOL    HW1 8273   1.222   4.165   0.329
 2539SOL    HW2 8274   1.180   4.323   0.335
 2540SOL     OW 8275   0.307   3.937   1.231
 2540SOL    HW1 8276   0.284   3.974   1.321
 2540SOL    HW2 8277   0.277   3.842   1.225
 2541SOL     OW 8278   0.732   4.358   1.064
 2541SOL    HW1 8279   0.791   4.332   0.988
 2541SOL    HW2 8280   0.704   4.454   1.053
 2542SOL     OW 8281   1.728   4.659   1.854
 2542SOL    HW1 8282   1.682   4.652   1.765
 2542SOL    HW2 8283   1.666   4.703   1.920
 2543SOL     OW 8284   0.307   3.787   0.618
 2543SOL    HW1 8285   0.296   3.881   0.651
 2543SOL    HW2 8286   0.302   3.724   0.695
 2544SOL     OW 8287   1.622   4.091   0.374
 2544SOL    HW1 8288   1.624   4.015   0.438
 2544SOL    HW2 8289   1.574   4.168   0.414
 2545SOL     OW 8290   1.540   3.998   0.125
 2545SOL    HW1 8291   1.479   3.923   0.148
 2545SOL    HW2 8292   1.562   4.050   0.208
 2546SOL     OW 8293   0.319   4.534   0.949
 2546SOL    HW1 8294   0.412   4.570   0.954
 2546SOL    HW2 8295   0.313   4.449   1.001
 2547SOL     OW 8296   0.339   4.233   1.006
 2547SOL    HW1 8297   0.287   4.150   0.989
 2547SOL    HW2 8298   0.416   4.238   0.942
 2548SOL     OW 8299   1.138   4.104   1.678
 2548SOL    HW1 8300   1.093   4.167   1.742
 2548SOL    HW2 8301   1.231   4.135   1.661
 2549SOL     OW 8302   1.160   3.931   1.477
 2549SOL    HW1 8303   1.160   3.995   1.554
 2549SOL    HW2 8304   1.188   3.979   1.394
 2550SOL     OW 8305   0.040   4.268   1.114
 2550SOL    HW1 8306   0.125   4.235   1.073
 2550SOL    HW2 8307   0.053   4.283   1.212
 2551SOL     OW 8308   0.189   4.244   1.722
 2551SOL    HW1 8309   0.248   4.204   1.652
 2551SOL    HW2 8310   0.131   4.315   1.681
 2552SOL     OW 8311   0.815   4.296   0.325
 2552SOL    HW1 8312   0.822   4.207   0.279
 2552SOL    HW2 8313   0.721   4.330   0.317
 2553SOL     OW 8314   1.657   4.328   1.206
 2553SOL    HW1 8315   1.619   4.259   1.268
 2553SOL    HW2 8316   1.739   4.292   1.162
 2554SOL     OW 8317   0.671   4.188   1.269
 2554SOL    HW1 8318   0.637   4.099   1.239
 2554SOL    HW2 8319   0.697   4.242   1.189
 2555SOL     OW 8320   0.473   4.224   0.191
 2555SOL    HW1 8321   0.534   4.304   0.195
 2555SOL    HW2 8322   0.378   4.255   0.198
 2556SOL     OW 8323   0.903   3.810   0.133
 2556SOL    HW1 8324   0.954   3.811   0.047
 2556SOL    HW2 8325   0.959   3.768   0.204
 2557SOL     OW 8326   1.726   3.859   0.523
 2557SOL    HW1 8327   1.799   3.842   0.456
 2557SOL    HW2 8328   1.695   3.772   0.561
 2558SOL     OW 8329   1.280   4.651   0.672
 2558SOL    HW1 8330   1.340   4.570   0.674
 2558SOL    HW2 8331   1.320   4.720   0.612
 2559SOL     OW 8332   1.841   3.899   0.963
 2559SOL    HW1 8333   1.880   3.814   0.927
 2559SOL    HW2 8334   1.743   3.901   0.944
 2560SOL     OW 8335   0.263   4.050   0.720
 2560SOL    HW1 8336   0.184   4.101   0.686
 2560SOL    HW2 8337   0.254   4.035   0.818
 2561SOL     OW 8338   1.039   4.822   0.696
 2561SOL    HW1 8339   0.969   4.775   0.750
 2561SOL    HW2 8340   1.098   4.754   0.653
 2562SOL     OW 8341   1.014   3.960   0.971
 2562SOL    HW1 8342   1.006   3.924   0.878
 2562SOL    HW2 8343   1.012   3.884   1.036
 2563SOL     OW 8344   1.709   4.109   1.381
 2563SOL    HW1 8345   1.782   4.178   1.385
 2563SOL    HW2 8346   1.737   4.034   1.322
 2564SOL     OW 8347   0.672   3.927   1.489
 2564SOL    HW1 8348   0.762   3.911   1.449
 2564SOL    HW2 8349   0.680   3.932   1.588
 2565SOL     OW 8350   0.075   4.069   0.033
 2565SOL    HW1 8351  -0.017   4.041   0.004
 2565SOL    HW2 8352   0.106   4.146  -0.023
 2566SOL     OW 8353   0.072   3.890   0.318
 2566SOL    HW1 8354   0.055   3.973   0.264
 2566SOL    HW2 8355   0.162   3.853   0.296
 2567SOL     OW 8356   0.716   4.289   1.708
 2567SOL    HW1 8357   0.735   4.354   1.782
 2567SOL    HW2 8358   0.776   4.209   1.717
 2568SOL     OW 8359   1.225   4.049   0.449
 2568SOL    HW1 8360   1.290   3.975   0.438
 2568SOL    HW2 8361   1.245   4.099   0.533
 2569SOL     OW 8362   1.777   4.066   1.642
 2569SOL    HW1 8363   1.760   4.097   1.548
 2569SOL    HW2 8364   1.693   4.029   1.680
 2570SOL     OW 8365   1.083   4.708   0.087
 2570SOL    HW1 8366   1.060   4.761   0.005
 2570SOL    HW2 8367   1.164   4.652   0.068
 2571SOL     OW 8368   1.824   3.916   1.227
 2571SOL    HW1 8369   1.820   3.826   1.271
 2571SOL    HW2 8370   1.827   3.905   1.128
 2572SOL     OW 8371   0.428   4.148   0.520
 2572SOL    HW1 8372   0.458   4.076   0.458
 2572SOL    HW2 8373   0.389   4.108   0.603
 2573SOL     OW 8374   0.317   4.271   1.280
 2573SOL    HW1 8375   0.355   4.212   1.352
 2573SOL    HW2 8376   0.357   4.245   1.192
 2574SOL     OW 8377   1.424   3.938   1.112
 2574SOL    HW1 8378   1.476   3.873   1.167
 2574SOL    HW2 8379   1.375   4.001   1.173
 2575SOL     OW 8380   1.001   3.758   1.154
 2575SOL    HW1 8381   0.938   3.686   1.123
 2575SOL    HW2 8382   1.094   3.722   1.154
 2576SOL     OW 8383   1.352   3.776   0.168
 2576SOL    HW1 8384   1.387   3.735   0.084
 2576SOL    HW2 8385   1.262   3.738   0.188
 2577SOL     OW 8386   1.300   4.177   0.691
 2577SOL    HW1 8387   1.241   4.257   0.695
 2577SOL    HW2 8388   1.315   4.142   0.784
 2578SOL     OW 8389   1.593   3.945   0.882
 2578SOL    HW1 8390   1.509   3.944   0.936
 2578SOL    HW2 8391   1.595   4.028   0.826
 2579SOL     OW 8392   0.230   4.352   1.975
 2579SOL    HW1 8393   0.137   4.350   2.012
 2579SOL    HW2 8394   0.231   4.313   1.883
 2580SOL     OW 8395   0.225   3.999   2.858
 2580SOL    HW1 8396   0.260   3.982   2.950
 2580SOL    HW2 8397   0.137   3.954   2.846
 2581SOL     OW 8398   0.019   4.092   2.509
 2581SOL    HW1 8399  -0.063   4.135   2.548
 2581SOL    HW2 8400  -0.009   4.019   2.446
 2582SOL     OW 8401   1.755   4.331   2.093
 2582SOL    HW1 8402   1.743   4.318   1.994
 2582SOL    HW2 8403   1.725   4.250   2.142
 2583SOL     OW 8404   0.685   4.736   2.527
 2583SOL    HW1 8405   0.754   4.720   2.597
 2583SOL    HW2 8406   0.612   4.793   2.565
 2584SOL     OW 8407   0.438   4.116   3.361
 2584SOL    HW1 8408   0.520   4.060   3.370
 2584SOL    HW2 8409   0.357   4.058   3.365
 2585SOL     OW 8410   1.603   4.171   2.599
 2585SOL    HW1 8411   1.529   4.217   2.549
 2585SOL    HW2 8412   1.654   4.239   2.652
 2586SOL     OW 8413   1.594   3.838   3.342
 2586SOL    HW1 8414   1.576   3.905   3.270
 2586SOL    HW2 8415   1.591   3.884   3.431
 2587SOL     OW 8416   0.122   4.367   2.425
 2587SOL    HW1 8417   0.077   4.279   2.442
 2587SOL    HW2 8418   0.121   4.421   2.509
 2588SOL     OW 8419   0.113   4.461   3.459
 2588SOL    HW1 8420   0.201   4.448   3.504
 2588SOL    HW2 8421   0.100   4.558   3.437
 2589SOL     OW 8422   0.809   3.728   2.364
 2589SOL    HW1 8423   0.849   3.819   2.355
 2589SOL    HW2 8424   0.709   3.736   2.370
 2590SOL     OW 8425   0.317   3.975   3.663
 2590SOL    HW1 8426   0.388   4.046   3.669
 2590SOL    HW2 8427   0.229   4.014   3.691
 2591SOL     OW 8428   1.281   4.069   2.806
 2591SOL    HW1 8429   1.195   4.019   2.793
 2591SOL    HW2 8430   1.343   4.015   2.862
 2592SOL     OW 8431   0.807   4.329   3.327
 2592SOL    HW1 8432   0.760   4.326   3.416
 2592SOL    HW2 8433   0.756   4.274   3.261
 2593SOL     OW 8434   1.394   4.193   3.536
 2593SOL    HW1 8435   1.374   4.236   3.624
 2593SOL    HW2 8436   1.472   4.131   3.545
 2594SOL     OW 8437   0.991   4.134   3.104
 2594SOL    HW1 8438   0.914   4.168   3.158
 2594SOL    HW2 8439   0.957   4.083   3.025
 2595SOL     OW 8440   1.041   4.425   2.291
 2595SOL    HW1 8441   1.067   4.421   2.387
 2595SOL    HW2 8442   0.956   4.374   2.277
 2596SOL     OW 8443   0.076   4.535   2.651
 2596SOL    HW1 8444   0.175   4.523   2.660
 2596SOL    HW2 8445   0.052   4.630   2.672
 2597SOL     OW 8446   0.865   4.072   2.057
 2597SOL    HW1 8447   0.924   4.135   2.008
 2597SOL    HW2 8448   0.884   3.978   2.028
 2598SOL     OW 8449   1.719   4.309   3.693
 2598SOL    HW1 8450   1.693   4.398   3.657
 2598SOL    HW2 8451   1.717   4.241   3.620
 2599SOL     OW 8452   0.550   3.920   2.747
 2599SOL    HW1 8453   0.545   3.915   2.847
 2599SOL    HW2 8454   0.552   4.016   2.718
 2600SOL     OW 8455   1.458   4.459   2.590
 2600SOL    HW1 8456   1.453   4.394   2.665
 2600SOL    HW2 8457   1.538   4.518   2.603
 2601SOL     OW 8458   0.202   4.009   3.360
 2601SOL    HW1 8459   0.122   4.069   3.347
 2601SOL    HW2 8460   0.192   3.960   3.446
 2602SOL     OW 8461   1.400   3.831   2.288
 2602SOL    HW1 8462   1.376   3.794   2.198
 2602SOL    HW2 8463   1.499   3.847   2.292
 2603SOL     OW 8464   0.382   4.424   2.342
 2603SOL    HW1 8465   0.427   4.334   2.339
 2603SOL    HW2 8466   0.288   4.413   2.375
 2604SOL     OW 8467   1.547   3.946   3.591
 2604SOL    HW1 8468   1.542   3.983   3.683
 2604SOL    HW2 8469   1.475   3.877   3.579
 2605SOL     OW 8470   0.614   3.846   1.979
 2605SOL    HW1 8471   0.712   3.824   1.986
 2605SOL    HW2 8472   0.583   3.829   1.886
 2606SOL     OW 8473   0.781   3.988   3.611
 2606SOL    HW1 8474   0.848   3.927   3.654
 2606SOL    HW2 8475   0.708   4.007   3.676
 2607SOL     OW 8476   1.351   4.314   3.295
 2607SOL    HW1 8477   1.379   4.271   3.380
 2607SOL    HW2 8478   1.376   4.410   3.296
 2608SOL     OW 8479   0.922   4.227   2.761
 2608SOL    HW1 8480   0.897   4.218   2.665
 2608SOL    HW2 8481   0.970   4.145   2.792
 2609SOL     OW 8482   0.539   3.788   2.374
 2609SOL    HW1 8483   0.458   3.789   2.432
 2609SOL    HW2 8484   0.542   3.871   2.319
 2610SOL     OW 8485   0.297   3.759   2.033
 2610SOL    HW1 8486   0.346   3.843   2.012
 2610SOL    HW2 8487   0.359   3.694   2.078
 2611SOL     OW 8488   0.935   3.960   2.342
 2611SOL    HW1 8489   0.887   4.001   2.264
 2611SOL    HW2 8490   1.034   3.958   2.323
 2612SOL     OW 8491   1.076   4.407   3.326
 2612SOL    HW1 8492   0.996   4.346   3.329
 2612SOL    HW2 8493   1.157   4.354   3.302
 2613SOL     OW 8494   1.032   4.273   1.878
 2613SOL    HW1 8495   0.991   4.355   1.839
 2613SOL    HW2 8496   1.096   4.299   1.951
 2614SOL     OW 8497   0.078   4.280   3.248
 2614SOL    HW1 8498   0.170   4.279   3.207
 2614SOL    HW2 8499   0.072   4.354   3.315
 2615SOL     OW 8500   0.561   3.946   3.009
 2615SOL    HW1 8501   0.599   3.862   3.046
 2615SOL    HW2 8502   0.473   3.965   3.053
 2616SOL     OW 8503   0.866   4.178   2.504
 2616SOL    HW1 8504   0.834   4.250   2.442
 2616SOL    HW2 8505   0.890   4.097   2.451
 2617SOL     OW 8506   1.017   3.763   2.615
 2617SOL    HW1 8507   0.945   3.768   2.546
 2617SOL    HW2 8508   0.993   3.694   2.684
 2618SOL     OW 8509   1.466   4.314   2.854
 2618SOL    HW1 8510   1.436   4.219   2.861
 2618SOL    HW2 8511   1.539   4.330   2.920
 2619SOL     OW 8512   1.390   4.299   1.940
 2619SOL    HW1 8513   1.336   4.278   2.021
 2619SOL    HW2 8514   1.481   4.258   1.949
 2620SOL     OW 8515   0.527   3.980   2.190
 2620SOL    HW1 8516   0.554   3.921   2.115
 2620SOL    HW2 8517   0.527   4.075   2.159
 2621SOL     OW 8518   0.915   3.813   3.264
 2621SOL    HW1 8519   0.940   3.793   3.169
 2621SOL    HW2 8520   0.987   3.869   3.306
 2622SOL     OW 8521   0.410   4.537   3.113
 2622SOL    HW1 8522   0.496   4.549   3.163
 2622SOL    HW2 8523   0.368   4.450   3.140
 2623SOL     OW 8524   1.274   4.110   3.124
 2623SOL    HW1 8525   1.295   4.184   3.188
 2623SOL    HW2 8526   1.185   4.127   3.081
 2624SOL     OW 8527   0.566   4.261   2.727
 2624SOL    HW1 8528   0.578   4.327   2.653
 2624SOL    HW2 8529   0.612   4.295   2.810
 2625SOL     OW 8530   1.582   4.363   2.334
 2625SOL    HW1 8531   1.551   4.424   2.407
 2625SOL    HW2 8532   1.632   4.415   2.265
 2626SOL     OW 8533   1.013   3.829   3.632
 2626SOL    HW1 8534   1.019   3.914   3.580
 2626SOL    HW2 8535   1.045   3.753   3.575
 2627SOL     OW 8536   0.504   3.774   3.602
 2627SOL    HW1 8537   0.462   3.717   3.532
 2627SOL    HW2 8538   0.438   3.843   3.634
 2628SOL     OW 8539   1.209   4.249   2.137
 2628SOL    HW1 8540   1.222   4.165   2.191
 2628SOL    HW2 8541   1.180   4.323   2.197
 2629SOL     OW 8542   0.307   3.937   3.093
 2629SOL    HW1 8543   0.284   3.974   3.183
 2629SOL    HW2 8544   0.277   3.842   3.087
 2630SOL     OW 8545   0.732   4.358   2.926
 2630SOL    HW1 8546   0.791   4.332   2.850
 2630SOL    HW2 8547   0.704   4.454   2.915
 2631SOL     OW 8548   1.728   4.659   3.716
 2631SOL    HW1 8549   1.682   4.652   3.627
 2631SOL    HW2 8550   1.666   4.703   3.782
 2632SOL     OW 8551   0.307   3.787   2.480
 2632SOL    HW1 8552   0.296   3.881   2.513
 2632SOL    HW2 8553   0.302   3.724   2.557
 2633SOL     OW 8554   1.622   4.091   2.236
 2633SOL    HW1 8555   1.624   4.015   2.300
 2633SOL    HW2 8556   1.574   4.168   2.276
 2634SOL     OW 8557   1.540   3.998   1.987
 2634SOL    HW1 8558   1.479   3.923   2.010
 2634SOL    HW2 8559   1.562   4.050   2.070
 2635SOL     OW 8560   0.319   4.534   2.811
 2635SOL    HW1 8561   0.412   4.570   2.816
 2635SOL    HW2 8562   0.313   4.449   2.863
 2636SOL     OW 8563   0.339   4.233   2.868
 2636SOL    HW1 8564   0.287   4.150   2.851
 2636SOL    HW2 8565   0.416   4.238   2.804
 2637SOL     OW 8566   1.138   4.104   3.540
 2637SOL    HW1 8567   1.093   4.167   3.604
 2637SOL    HW2 8568   1.231   4.135   3.523
 2638SOL     OW 8569   1.160   3.931   3.339
 2638SOL    HW1 8570   1.160   3.995   3.416
 2638SOL    HW2 8571   1.188   3.979   3.256
 2639SOL     OW 8572   0.040   4.268   2.976
 2639SOL    HW1 8573   0.125   4.235   2.935
 2639SOL    HW2 8574   0.053   4.283   3.074
 2640SOL     OW 8575   0.189   4.244   3.584
 2640SOL    HW1 8576   0.248   4.204   3.514
 2640SOL    HW2 8577   0.131   4.315   3.543
 2641SOL     OW 8578   0.815   4.296   2.187
 2641SOL    HW1 8579   0.822   4.207   2.141
 2641SOL    HW2 8580   0.721   4.330   2.179
 2642SOL     OW 8581   1.657   4.328   3.068
 2642SOL    HW1 8582   1.619   4.259   3.130
 2642SOL    HW2 8583   1.739   4.292   3.024
 2643SOL     OW 8584   0.671   4.188   3.131
 2643SOL    HW1 8585   0.637   4.099   3.101
 2643SOL    HW2 8586   0.697   4.242   3.051
 2644SOL     OW 8587   0.473   4.224   2.053
 2644SOL    HW1 8588   0.534   4.304   2.057
 2644SOL    HW2 8589   0.378   4.255   2.060
 2645SOL     OW 8590   1.726   3.859   2.385
 2645SOL    HW1 8591   1.799   3.842   2.318
 2645SOL    HW2 8592   1.695   3.772   2.423
 2646SOL     OW 8593   1.280   4.651   2.534
 2646SOL    HW1 8594   1.340   4.570   2.536
 2646SOL    HW2 8595   1.320   4.720   2.474
 2647SOL     OW 8596   1.841   3.899   2.825
 2647SOL    HW1 8597   1.880   3.814   2.789
 2647SOL    HW2 8598   1.743   3.901   2.806
 2648SOL     OW 8599   0.263   4.050   2.582
 2648SOL    HW1 8600   0.184   4.101   2.548
 2648SOL    HW2 8601   0.254   4.035   2.680
 2649SOL     OW 8602   0.916   4.634   2.153
 2649SOL    HW1 8603   0.979   4.672   2.085
 2649SOL    HW2 8604   0.956   4.551   2.192
 2650SOL     OW 8605   1.039   4.822   2.558
 2650SOL    HW1 8606   0.969   4.775   2.612
 2650SOL    HW2 8607   1.098   4.754   2.515
 2651SOL     OW 8608   1.014   3.960   2.833
 2651SOL    HW1 8609   1.006   3.924   2.740
 2651SOL    HW2 8610   1.012   3.884   2.898
 2652SOL     OW 8611   1.709   4.109   3.243
 2652SOL    HW1 8612   1.782   4.178   3.247
 2652SOL    HW2 8613   1.737   4.034   3.184
 2653SOL     OW 8614   0.672   3.927   3.351
 2653SOL    HW1 8615   0.762   3.911   3.311
 2653SOL    HW2 8616   0.680   3.932   3.450
 2654SOL     OW 8617   0.075   4.069   1.895
 2654SOL    HW1 8618  -0.017   4.041   1.866
 2654SOL    HW2 8619   0.106   4.146   1.839
 2655SOL     OW 8620   0.072   3.890   2.180
 2655SOL    HW1 8621   0.055   3.973   2.126
 2655SOL    HW2 8622   0.162   3.853   2.158
 2656SOL     OW 8623   0.716   4.289   3.570
 2656SOL    HW1 8624   0.735   4.354   3.644
 2656SOL    HW2 8625   0.776   4.209   3.579
 2657SOL     OW 8626   1.225   4.049   2.311
 2657SOL    HW1 8627   1.290   3.975   2.300
 2657SOL    HW2 8628   1.245   4.099   2.395
 2658SOL     OW 8629   1.777   4.066   3.504
 2658SOL    HW1 8630   1.760   4.097   3.410
 2658SOL    HW2 8631   1.693   4.029   3.542
 2659SOL     OW 8632   1.083   4.708   1.949
 2659SOL    HW1 8633   1.060   4.761   1.867
 2659SOL    HW2 8634   1.164   4.652   1.930
 2660SOL     OW 8635   1.824   3.916   3.089
 2660SOL    HW1 8636   1.820   3.826   3.133
 2660SOL    HW2 8637   1.827   3.905   2.990
 2661SOL     OW 8638   0.428   4.148   2.382
 2661SOL    HW1 8639   0.458   4.076   2.320
 2661SOL    HW2 8640   0.389   4.108   2.465
 2662SOL     OW 8641   0.317   4.271   3.142
 2662SOL    HW1 8642   0.355   4.212   3.214
 2662SOL    HW2 8643   0.357   4.245   3.054
 2663SOL     OW 8644   1.424   3.938   2.974
 2663SOL    HW1 8645   1.476   3.873   3.029
 2663SOL    HW2 8646   1.375   4.001   3.035
 2664SOL     OW 8647   1.001   3.758   3.016
 2664SOL    HW1 8648   0.938   3.686   2.985
 2664SOL    HW2 8649   1.094   3.722   3.016
 2665SOL     OW 8650   1.352   3.776   2.030
 2665SOL    HW1 8651   1.387   3.735   1.946
 2665SOL    HW2 8652   1.262   3.738   2.050
 2666SOL     OW 8653   1.300   4.177   2.553
 2666SOL    HW1 8654   1.241   4.257   2.557
 2666SOL    HW2 8655   1.315   4.142   2.646
 2667SOL     OW 8656   1.593   3.945   2.744
 2667SOL    HW1 8657   1.509   3.944   2.798
 2667SOL    HW2 8658   1.595   4.028   2.688
 2668SOL     OW 8659   0.230   4.352   3.837
 2668SOL    HW1 8660   0.137   4.350   3.874
 2668SOL    HW2 8661   0.231   4.313   3.745
 2669SOL     OW 8662   0.225   3.999   4.720
 2669SOL    HW1 8663   0.260   3.982   4.812
 2669SOL    HW2 8664   0.137   3.954   4.708
 2670SOL     OW 8665   0.019   4.092   4.371
 2670SOL    HW1 8666  -0.063   4.135   4.410
 2670SOL    HW2 8667  -0.009   4.019   4.308
 2671SOL     OW 8668   1.755   4.331   3.955
 2671SOL    HW1 8669   1.743   4.318   3.856
 2671SOL    HW2 8670   1.725   4.250   4.004
 2672SOL     OW 8671   0.685   4.736   4.389
 2672SOL    HW1 8672   0.754   4.720   4.459
 2672SOL    HW2 8673   0.612   4.793   4.427
 2673SOL     OW 8674   0.438   4.116   5.223
 2673SOL    HW1 8675   0.520   4.060   5.232
 2673SOL    HW2 8676   0.357   4.058   5.227
 2674SOL     OW 8677   1.603   4.171   4.461
 2674SOL    HW1 8678   1.529   4.217   4.411
 2674SOL    HW2 8679   1.654   4.239   4.514
 2675SOL     OW 8680   1.594   3.838   5.204
 2675SOL    HW1 8681   1.576   3.905   5.132
 2675SOL    HW2 8682   1.591   3.884   5.293
 2676SOL     OW 8683   0.122   4.367   4.287
 2676SOL    HW1 8684   0.077   4.279   4.304
 2676SOL    HW2 8685   0.121   4.421   4.371
 2677SOL     OW 8686   0.113   4.461   5.321
 2677SOL    HW1 8687   0.201   4.448   5.366
 2677SOL    HW2 8688   0.100   4.558   5.299
 2678SOL     OW 8689   0.809   3.728   4.226
 2678SOL    HW1 8690   0.849   3.819   4.217
 2678SOL    HW2 8691   0.709   3.736   4.232
 2679SOL     OW 8692   0.317   3.975   5.525
 2679SOL    HW1 8693   0.388   4.046   5.531
 2679SOL    HW2 8694   0.229   4.014   5.553
 2680SOL     OW 8695   1.281   4.069   4.668
 2680SOL    HW1 8696   1.195   4.019   4.655
 2680SOL    HW2 8697   1.343   4.015   4.724
 2681SOL     OW 8698   0.807   4.329   5.189
 2681SOL    HW1 8699   0.760   4.326   5.278
 2681SOL    HW2 8700   0.756   4.274   5.123
 2682SOL     OW 8701   1.394   4.193   5.398
 2682SOL    HW1 8702   1.374   4.236   5.486
 2682SOL    HW2 8703   1.472   4.131   5.407
 2683SOL     OW 8704   0.991   4.134   4.966
 2683SOL    HW1 8705   0.914   4.168   5.020
 2683SOL    HW2 8706   0.957   4.083   4.887
 2684SOL     OW 8707   1.041   4.425   4.153
 2684SOL    HW1 8708   1.067   4.421   4.249
 2684SOL    HW2 8709   0.956   4.374   4.139
 2685SOL     OW 8710   0.076   4.535   4.513
 2685SOL    HW1 8711   0.175   4.523   4.522
 2685SOL    HW2 8712   0.052   4.630   4.534
 2686SOL     OW 8713   0.865   4.072   3.919
 2686SOL    HW1 8714   0.924   4.135   3.870
 2686SOL    HW2 8715   0.884   3.978   3.890
 2687SOL     OW 8716   1.719   4.309   5.555
 2687SOL    HW1 8717   1.693   4.398   5.519
 2687SOL    HW2 8718   1.717   4.241   5.482
 2688SOL     OW 8719   0.550   3.920   4.609
 2688SOL    HW1 8720   0.545   3.915   4.709
 2688SOL    HW2 8721   0.552   4.016   4.580
 2689SOL     OW 8722   1.458   4.459   4.452
 2689SOL    HW1 8723   1.453   4.394   4.527
 2689SOL    HW2 8724   1.538   4.518   4.465
 2690SOL     OW 8725   0.202   4.009   5.222
 2690SOL    HW1 8726   0.122   4.069   5.209
 2690SOL    HW2 8727   0.192   3.960   5.308
 2691SOL     OW 8728   1.400   3.831   4.150
 2691SOL    HW1 8729   1.376   3.794   4.060
 2691SOL    HW2 8730   1.499   3.847   4.154
 2692SOL     OW 8731   0.382   4.424   4.204
 2692SOL    HW1 8732   0.427   4.334   4.201
 2692SOL    HW2 8733   0.288   4.413   4.237
 2693SOL     OW 8734   1.547   3.946   5.453
 2693SOL    HW1 8735   1.542   3.983   5.545
 2693SOL    HW2 8736   1.475   3.877   5.441
 2694SOL     OW 8737   0.614   3.846   3.841
 2694SOL    HW1 8738   0.712   3.824   3.848
 2694SOL    HW2 8739   0.583   3.829   3.748
 2695SOL     OW 8740   0.781   3.988   5.473
 2695SOL    HW1 8741   0.848   3.927   5.516
 2695SOL    HW2 8742   0.708   4.007   5.538
 2696SOL     OW 8743   1.351   4.314   5.157
 2696SOL    HW1 8744   1.379   4.271   5.242
 2696SOL    HW2 8745   1.376   4.410   5.158
 2697SOL     OW 8746   0.922   4.227   4.623
 2697SOL    HW1 8747   0.897   4.218   4.527
 2697SOL    HW2 8748   0.970   4.145   4.654
 2698SOL     OW 8749   0.539   3.788   4.236
 2698SOL    HW1 8750   0.458   3.789   4.294
 2698SOL    HW2 8751   0.542   3.871   4.181
 2699SOL     OW 8752   0.297   3.759   3.895
 2699SOL    HW1 8753   0.346   3.843   3.874
 2699SOL    HW2 8754   0.359   3.694   3.940
 2700SOL     OW 8755   0.935   3.960   4.204
 2700SOL    HW1 8756   0.887   4.001   4.126
 2700SOL    HW2 8757   1.034   3.958   4.185
 2701SOL     OW 8758   1.076   4.407   5.188
 2701SOL    HW1 8759   0.996   4.346   5.191
 2701SOL    HW2 8760   1.157   4.354   5.164
 2702SOL     OW 8761   1.032   4.273   3.740
 2702SOL    HW1 8762   0.991   4.355   3.701
 2702SOL    HW2 8763   1.096   4.299   3.813
 2703SOL     OW 8764   0.078   4.280   5.110
 2703SOL    HW1 8765   0.170   4.279   5.069
 2703SOL    HW2 8766   0.072   4.354   5.177
 2704SOL     OW 8767   0.561   3.946   4.871
 2704SOL    HW1 8768   0.599   3.862   4.908
 2704SOL    HW2 8769   0.473   3.965   4.915
 2705SOL     OW 8770   0.866   4.178   4.366
 2705SOL    HW1 8771   0.834   4.250   4.304
 2705SOL    HW2 8772   0.890   4.097   4.313
 2706SOL     OW 8773   1.017   3.763   4.477
 2706SOL    HW1 8774   0.945   3.768   4.408
 2706SOL    HW2 8775   0.993   3.694   4.546
 2707SOL     OW 8776   1.466   4.314   4.716
 2707SOL    HW1 8777   1.436   4.219   4.723
 2707SOL    HW2 8778   1.539   4.330   4.782
 2708SOL     OW 8779   1.390   4.299   3.802
 2708SOL    HW1 8780   1.336   4.278   3.883
 2708SOL    HW2 8781   1.481   4.258   3.811
 2709SOL     OW 8782   0.527   3.980   4.052
 2709SOL    HW1 8783   0.554   3.921   3.977
 2709SOL    HW2 8784   0.527   4.075   4.021
 2710SOL     OW 8785   0.915   3.813   5.126
 2710SOL    HW1 8786   0.940   3.793   5.031
 2710SOL    HW2 8787   0.987   3.869   5.168
 2711SOL     OW 8788   0.410   4.537   4.975
 2711SOL    HW1 8789   0.496   4.549   5.025
 2711SOL    HW2 8790   0.368   4.450   5.002
 2712SOL     OW 8791   1.274   4.110   4.986
 2712SOL    HW1 8792   1.295   4.184   5.050
 2712SOL    HW2 8793   1.185   4.127   4.943
 2713SOL     OW 8794   0.566   4.261   4.589
 2713SOL    HW1 8795   0.578   4.327   4.515
 2713SOL    HW2 8796   0.612   4.295   4.672
 2714SOL     OW 8797   1.582   4.363   4.196
 2714SOL    HW1 8798   1.551   4.424   4.269
 2714SOL    HW2 8799   1.632   4.415   4.127
 2715SOL     OW 8800   1.013   3.829   5.494
 2715SOL    HW1 8801   1.019   3.914   5.442
 2715SOL    HW2 8802   1.045   3.753   5.437
 2716SOL     OW 8803   0.504   3.774   5.464
 2716SOL    HW1 8804   0.462   3.717   5.394
 2716SOL    HW2 8805   0.438   3.843   5.496
 2717SOL     OW 8806   1.209   4.249   3.999
 2717SOL    HW1 8807   1.222   4.165   4.053
 2717SOL    HW2 8808   1.180   4.323   4.059
 2718SOL     OW 8809   0.307   3.937   4.955
 2718SOL    HW1 8810   0.284   3.974   5.045
 2718SOL    HW2 8811   0.277   3.842   4.949
 2719SOL     OW 8812   0.732   4.358   4.788
 2719SOL    HW1 8813   0.791   4.332   4.712
 2719SOL    HW2 8814   0.704   4.454   4.777
 2720SOL     OW 8815   1.728   4.659   5.578
 2720SOL    HW1 8816   1.682   4.652   5.489
 2720SOL    HW2 8817   1.666   4.703   5.644
 2721SOL     OW 8818   0.307   3.787   4.342
 2721SOL    HW1 8819   0.296   3.881   4.375
 2721SOL    HW2 8820   0.302   3.724   4.419
 2722SOL     OW 8821   1.622   4.091   4.098
 2722SOL    HW1 8822   1.624   4.015   4.162
 2722SOL    HW2 8823   1.574   4.168   4.138
 2723SOL     OW 8824   1.540   3.998   3.849
 2723SOL    HW1 8825   1.479   3.923   3.872
 2723SOL    HW2 8826   1.562   4.050   3.932
 2724SOL     OW 8827   0.319   4.534   4.673
 2724SOL    HW1 8828   0.412   4.570   4.678
 2724SOL    HW2 8829   0.313   4.449   4.725
 2725SOL     OW 8830   0.339   4.233   4.730
 2725SOL    HW1 8831   0.287   4.150   4.713
 2725SOL    HW2 8832   0.416   4.238   4.666
 2726SOL     OW 8833   1.138   4.104   5.402
 2726SOL    HW1 8834   1.093   4.167   5.466
 2726SOL    HW2 8835   1.231   4.135   5.385
 2727SOL     OW 8836   1.160   3.931   5.201
 2727SOL    HW1 8837   1.160   3.995   5.278
 2727SOL    HW2 8838   1.188   3.979   5.118
 2728SOL     OW 8839   0.040   4.268   4.838
 2728SOL    HW1 8840   0.125   4.235   4.797
 2728SOL    HW2 8841   0.053   4.283   4.936
 2729SOL     OW 8842   0.189   4.244   5.446
 2729SOL    HW1 8843   0.248   4.204   5.376
 2729SOL    HW2 8844   0.131   4.315   5.405
 2730SOL     OW 8845   0.815   4.296   4.049
 2730SOL    HW1 8846   0.822   4.207   4.003
 2730SOL    HW2 8847   0.721   4.330   4.041
 2731SOL     OW 8848   1.657   4.328   4.930
 2731SOL    HW1 8849   1.619   4.259   4.992
 2731SOL    HW2 8850   1.739   4.292   4.886
 2732SOL     OW 8851   0.671   4.188   4.993
 2732SOL    HW1 8852   0.637   4.099   4.963
 2732SOL    HW2 8853   0.697   4.242   4.913
 2733SOL     OW 8854   0.473   4.224   3.915
 2733SOL    HW1 8855   0.534   4.304   3.919
 2733SOL    HW2 8856   0.378   4.255   3.922
 2734SOL     OW 8857   1.726   3.859   4.247
 2734SOL    HW1 8858   1.799   3.842   4.180
 2734SOL    HW2 8859   1.695   3.772   4.285
 2735SOL     OW 8860   1.280   4.651   4.396
 2735SOL    HW1 8861   1.340   4.570   4.398
 2735SOL    HW2 8862   1.320   4.720   4.336
 2736SOL     OW 8863   1.841   3.899   4.687
 2736SOL    HW1 8864   1.880   3.814   4.651
 2736SOL    HW2 8865   1.743   3.901   4.668
 2737SOL     OW 8866   0.263   4.050   4.444
 2737SOL    HW1 8867   0.184   4.101   4.410
 2737SOL    HW2 8868   0.254   4.035   4.542
 2738SOL     OW 8869   0.916   4.634   4.015
 2738SOL    HW1 8870   0.979   4.672   3.947
 2738SOL    HW2 8871   0.956   4.551   4.054
 2739SOL     OW 8872   1.039   4.822   4.420
 2739SOL    HW1 8873   0.969   4.775   4.474
 2739SOL    HW2 8874   1.098   4.754   4.377
 2740SOL     OW 8875   1.014   3.960   4.695
 2740SOL    HW1 8876   1.006   3.924   4.602
 2740SOL    HW2 8877   1.012   3.884   4.760
 2741SOL     OW 8878   1.709   4.109   5.105
 2741SOL    HW1 8879   1.782   4.178   5.109
 2741SOL    HW2 8880   1.737   4.034   5.046
 2742SOL     OW 8881   0.672   3.927   5.213
 2742SOL    HW1 8882   0.762   3.911   5.173
 2742SOL    HW2 8883   0.680   3.932   5.312
 2743SOL     OW 8884   0.075   4.069   3.757
 2743SOL    HW1 8885  -0.017   4.041   3.728
 2743SOL    HW2 8886   0.106   4.146   3.701
 2744SOL     OW 8887   0.072   3.890   4.042
 2744SOL    HW1 8888   0.055   3.973   3.988
 2744SOL    HW2 8889   0.162   3.853   4.020
 2745SOL     OW 8890   0.716   4.289   5.432
 2745SOL    HW1 8891   0.735   4.354   5.506
 2745SOL    HW2 8892   0.776   4.209   5.441
 2746SOL     OW 8893   1.225   4.049   4.173
 2746SOL    HW1 8894   1.290   3.975   4.162
 2746SOL    HW2 8895   1.245   4.099   4.257
 2747SOL     OW 8896   1.777   4.066   5.366
 2747SOL    HW1 8897   1.760   4.097   5.272
 2747SOL    HW2 8898   1.693   4.029   5.404
 2748SOL     OW 8899   1.083   4.708   3.811
 2748SOL    HW1 8900   1.060   4.761   3.729
 2748SOL    HW2 8901   1.164   4.652   3.792
 2749SOL     OW 8902   1.824   3.916   4.951
 2749SOL    HW1 8903   1.820   3.826   4.995
 2749SOL    HW2 8904   1.827   3.905   4.852
 2750SOL     OW 8905   0.428   4.148   4.244
 2750SOL    HW1 8906   0.458   4.076   4.182
 2750SOL    HW2 8907   0.389   4.108   4.327
 2751SOL     OW 8908   0.317   4.271   5.004
 2751SOL    HW1 8909   0.355   4.212   5.076
 2751SOL    HW2 8910   0.357   4.245   4.916
 2752SOL     OW 8911   1.424   3.938   4.836
 2752SOL    HW1 8912   1.476   3.873   4.891
 2752SOL    HW2 8913   1.375   4.001   4.897
 2753SOL     OW 8914   1.001   3.758   4.878
 2753SOL    HW1 8915   0.938   3.686   4.847
 2753SOL    HW2 8916   1.094   3.722   4.878
 2754SOL     OW 8917   1.352   3.776   3.892
 2754SOL    HW1 8918   1.387   3.735   3.808
 2754SOL    HW2 8919   1.262   3.738   3.912
 2755SOL     OW 8920   1.300   4.177   4.415
 2755SOL    HW1 8921   1.241   4.257   4.419
 2755SOL    HW2 8922   1.315   4.142   4.508
 2756SOL     OW 8923   1.593   3.945   4.606
 2756SOL    HW1 8924   1.509   3.944   4.660
 2756SOL    HW2 8925   1.595   4.028   4.550
 2757SOL     OW 8926   0.230   4.352   5.699
 2757SOL    HW1 8927   0.137   4.350   5.736
 2757SOL    HW2 8928   0.231   4.313   5.607
 2758SOL     OW 8929   0.225   3.999   6.582
 2758SOL    HW1 8930   0.260   3.982   6.674
 2758SOL    HW2 8931   0.137   3.954   6.570
 2759SOL     OW 8932   0.019   4.092   6.233
 2759SOL    HW1 8933  -0.063   4.135   6.272
 2759SOL    HW2 8934  -0.009   4.019   6.170
 2760SOL     OW 8935   1.755   4.331   5.817
 2760SOL    HW1 8936   1.743   4.318   5.718
 2760SOL    HW2 8937   1.725   4.250   5.866
 2761SOL     OW 8938   0.685   4.736   6.251
 2761SOL    HW1 8939   0.754   4.720   6.321
 2761SOL    HW2 8940   0.612   4.793   6.289
 2762SOL     OW 8941   0.438   4.116   7.085
 2762SOL    HW1 8942   0.520   4.060   7.094
 2762SOL    HW2 8943   0.357   4.058   7.089
 2763SOL     OW 8944   1.603   4.171   6.323
 2763SOL    HW1 8945   1.529   4.217   6.273
 2763SOL    HW2 8946   1.654   4.239   6.376
 2764SOL     OW 8947   1.594   3.838   7.066
 2764SOL    HW1 8948   1.576   3.905   6.994
 2764SOL    HW2 8949   1.591   3.884   7.155
 2765SOL     OW 8950   0.122   4.367   6.149
 2765SOL    HW1 8951   0.077   4.279   6.166
 2765SOL    HW2 8952   0.121   4.421   6.233
 2766SOL     OW 8953   0.113   4.461   7.183
 2766SOL    HW1 8954   0.201   4.448   7.228
 2766SOL    HW2 8955   0.100   4.558   7.161
 2767SOL     OW 8956   0.809   3.728   6.088
 2767SOL    HW1 8957   0.849   3.819   6.079
 2767SOL    HW2 8958   0.709   3.736   6.094
 2768SOL     OW 8959   0.317   3.975   7.387
 2768SOL    HW1 8960   0.388   4.046   7.393
 2768SOL    HW2 8961   0.229   4.014   7.415
 2769SOL     OW 8962   1.281   4.069   6.530
 2769SOL    HW1 8963   1.195   4.019   6.517
 2769SOL    HW2 8964   1.343   4.015   6.586
 2770SOL     OW 8965   0.807   4.329   7.051
 2770SOL    HW1 8966   0.760   4.326   7.140
 2770SOL    HW2 8967   0.756   4.274   6.985
 2771SOL     OW 8968   1.394   4.193   7.260
 2771SOL    HW1 8969   1.374   4.236   7.348
 2771SOL    HW2 8970   1.472   4.131   7.269
 2772SOL     OW 8971   0.991   4.134   6.828
 2772SOL    HW1 8972   0.914   4.168   6.882
 2772SOL    HW2 8973   0.957   4.083   6.749
 2773SOL     OW 8974   1.041   4.425   6.015
 2773SOL    HW1 8975   1.067   4.421   6.111
 2773SOL    HW2 8976   0.956   4.374   6.001
 2774SOL     OW 8977   0.076   4.535   6.375
 2774SOL    HW1 8978   0.175   4.523   6.384
 2774SOL    HW2 8979   0.052   4.630   6.396
 2775SOL     OW 8980   0.865   4.072   5.781
 2775SOL    HW1 8981   0.924   4.135   5.732
 2775SOL    HW2 8982   0.884   3.978   5.752
 2776SOL     OW 8983   1.719   4.309   7.417
 2776SOL    HW1 8984   1.693   4.398   7.381
 2776SOL    HW2 8985   1.717   4.241   7.344
 2777SOL     OW 8986   0.550   3.920   6.471
 2777SOL    HW1 8987   0.545   3.915   6.571
 2777SOL    HW2 8988   0.552   4.016   6.442
 2778SOL     OW 8989   1.458   4.459   6.314
 2778SOL    HW1 8990   1.453   4.394   6.389
 2778SOL    HW2 8991   1.538   4.518   6.327
 2779SOL     OW 8992   0.202   4.009   7.084
 2779SOL    HW1 8993   0.122   4.069   7.071
 2779SOL    HW2 8994   0.192   3.960   7.170
 2780SOL     OW 8995   1.400   3.831   6.012
 2780SOL    HW1 8996   1.376   3.794   5.922
 2780SOL    HW2 8997   1.499   3.847   6.016
 2781SOL     OW 8998   0.382   4.424   6.066
 2781SOL    HW1 8999   0.427   4.334   6.063
 2781SOL    HW2 9000   0.288   4.413   6.099
 2782SOL     OW 9001   1.547   3.946   7.315
 2782SOL    HW1 9002   1.542   3.983   7.407
 2782SOL    HW2 9003   1.475   3.877   7.303
 2783SOL     OW 9004   0.614   3.846   5.703
 2783SOL    HW1 9005   0.712   3.824   5.710
 2783SOL    HW2 9006   0.583   3.829   5.610
 2784SOL     OW 9007   0.781   3.988   7.335
 2784SOL    HW1 9008   0.848   3.927   7.378
 2784SOL    HW2 9009   0.708   4.007   7.400
 2785SOL     OW 9010   1.351   4.314   7.019
 2785SOL    HW1 9011   1.379   4.271   7.104
 2785SOL    HW2 9012   1.376   4.410   7.020
 2786SOL     OW 9013   0.922   4.227   6.485
 2786SOL    HW1 9014   0.897   4.218   6.389
 2786SOL    HW2 9015   0.970   4.145   6.516
 2787SOL     OW 9016   0.539   3.788   6.098
 2787SOL    HW1 9017   0.458   3.789   6.156
 2787SOL    HW2 9018   0.542   3.871   6.043
 2788SOL     OW 9019   0.297   3.759   5.757
 2788SOL    HW1 9020   0.346   3.843   5.736
 2788SOL    HW2 9021   0.359   3.694   5.802
 2789SOL     OW 9022   0.935   3.960   6.066
 2789SOL    HW1 9023   0.887   4.001   5.988
 2789SOL    HW2 9024   1.034   3.958   6.047
 2790SOL     OW 9025   1.076   4.407   7.050
 2790SOL    HW1 9026   0.996   4.346   7.053
 2790SOL    HW2 9027   1.157   4.354   7.026
 2791SOL     OW 9028   1.032   4.273   5.602
 2791SOL    HW1 9029   0.991   4.355   5.563
 2791SOL    HW2 9030   1.096   4.299   5.675
 2792SOL     OW 9031   0.078   4.280   6.972
 2792SOL    HW1 9032   0.170   4.279   6.931
 2792SOL    HW2 9033   0.072   4.354   7.039
 2793SOL     OW 9034   0.561   3.946   6.733
 2793SOL    HW1 9035   0.599   3.862   6.770
 2793SOL    HW2 9036   0.473   3.965   6.777
 2794SOL     OW 9037   0.866   4.178   6.228
 2794SOL    HW1 9038   0.834   4.250   6.166
 2794SOL    HW2 9039   0.890   4.097   6.175
 2795SOL     OW 9040   1.017   3.763   6.339
 2795SOL    HW1 9041   0.945   3.768   6.270
 2795SOL    HW2 9042   0.993   3.694   6.408
 2796SOL     OW 9043   1.466   4.314   6.578
 2796SOL    HW1 9044   1.436   4.219   6.585
 2796SOL    HW2 9045   1.539   4.330   6.644
 2797SOL     OW 9046   1.390   4.299   5.664
 2797SOL    HW1 9047   1.336   4.278   5.745
 2797SOL    HW2 9048   1.481   4.258   5.673
 2798SOL     OW 9049   0.527   3.980   5.914
 2798SOL    HW1 9050   0.554   3.921   5.839
 2798SOL    HW2 9051   0.527   4.075   5.883
 2799SOL     OW 9052   0.915   3.813   6.988
 2799SOL    HW1 9053   0.940   3.793   6.893
 2799SOL    HW2 9054   0.987   3.869   7.030
 2800SOL     OW 9055   0.410   4.537   6.837
 2800SOL    HW1 9056   0.496   4.549   6.887
 2800SOL    HW2 9057   0.368   4.450   6.864
 2801SOL     OW 9058   1.274   4.110   6.848
 2801SOL    HW1 9059   1.295   4.184   6.912
 2801SOL    HW2 9060   1.185   4.127   6.805
 2802SOL     OW 9061   0.566   4.261   6.451
 2802SOL    HW1 9062   0.578   4.327   6.377
 2802SOL    HW2 9063   0.612   4.295   6.534
 2803SOL     OW 9064   1.582   4.363   6.058
 2803SOL    HW1 9065   1.551   4.424   6.131
 2803SOL    HW2 9066   1.632   4.415   5.989
 2804SOL     OW 9067   1.013   3.829   7.356
 2804SOL    HW1 9068   1.019   3.914   7.304
 2804SOL    HW2 9069   1.045   3.753   7.299
 2805SOL     OW 9070   0.504   3.774   7.326
 2805SOL    HW1 9071   0.462   3.717   7.256
 2805SOL    HW2 9072   0.438   3.843   7.358
 2806SOL     OW 9073   1.209   4.249   5.861
 2806SOL    HW1 9074   1.222   4.165   5.915
 2806SOL    HW2 9075   1.180   4.323   5.921
 2807SOL     OW 9076   0.307   3.937   6.817
 2807SOL    HW1 9077   0.284   3.974   6.907
 2807SOL    HW2 9078   0.277   3.842   6.811
 2808SOL     OW 9079   0.732   4.358   6.650
 2808SOL    HW1 9080   0.791   4.332   6.574
 2808SOL    HW2 9081   0.704   4.454   6.639
 2809SOL     OW 9082   1.728   4.659   7.440
 2809SOL    HW1 9083   1.682   4.652   7.351
 2809SOL    HW2 9084   1.666   4.703   7.506
 2810SOL     OW 9085   0.307   3.787   6.204
 2810SOL    HW1 9086   0.296   3.881   6.237
 2810SOL    HW2 9087   0.302   3.724   6.281
 2811SOL     OW 9088   1.622   4.091   5.960
 2811SOL    HW1 9089   1.624   4.015   6.024
 2811SOL    HW2 9090   1.574   4.168   6.000
 2812SOL     OW 9091   1.540   3.998   5.711
 2812SOL    HW1 9092   1.479   3.923   5.734
 2812SOL    HW2 9093   1.562   4.050   5.794
 2813SOL     OW 9094   0.319   4.534   6.535
 2813SOL    HW1 9095   0.412   4.570   6.540
 2813SOL    HW2 9096   0.313   4.449   6.587
 2814SOL     OW 9097   0.339   4.233   6.592
 2814SOL    HW1 9098   0.287   4.150   6.575
 2814SOL    HW2 9099   0.416   4.238   6.528
 2815SOL     OW 9100   1.138   4.104   7.264
 2815SOL    HW1 9101   1.093   4.167   7.328
 2815SOL    HW2 9102   1.231   4.135   7.247
 2816SOL     OW 9103   1.160   3.931   7.063
 2816SOL    HW1 9104   1.160   3.995   7.140
 2816SOL    HW2 9105   1.188   3.979   6.980
 2817SOL     OW 9106   0.040   4.268   6.700
 2817SOL    HW1 9107   0.125   4.235   6.659
 2817SOL    HW2 9108   0.053   4.283   6.798
 2818SOL     OW 9109   0.189   4.244   7.308
 2818SOL    HW1 9110   0.248   4.204   7.238
 2818SOL    HW2 9111   0.131   4.315   7.267
 2819SOL     OW 9112   0.815   4.296   5.911
 2819SOL    HW1 9113   0.822   4.207   5.865
 2819SOL    HW2 9114   0.721   4.330   5.903
 2820SOL     OW 9115   1.657   4.328   6.792
 2820SOL    HW1 9116   1.619   4.259   6.854
 2820SOL    HW2 9117   1.739   4.292   6.748
 2821SOL     OW 9118   0.671   4.188   6.855
 2821SOL    HW1 9119   0.637   4.099   6.825
 2821SOL    HW2 9120   0.697   4.242   6.775
 2822SOL     OW 9121   0.473   4.224   5.777
 2822SOL    HW1 9122   0.534   4.304   5.781
 2822SOL    HW2 9123   0.378   4.255   5.784
 2823SOL     OW 9124   1.726   3.859   6.109
 2823SOL    HW1 9125   1.799   3.842   6.042
 2823SOL    HW2 9126   1.695   3.772   6.147
 2824SOL     OW 9127   1.280   4.651   6.258
 2824SOL    HW1 9128   1.340   4.570   6.260
 2824SOL    HW2 9129   1.320   4.720   6.198
 2825SOL     OW 9130   1.841   3.899   6.549
 2825SOL    HW1 9131   1.880   3.814   6.513
 2825SOL    HW2 9132   1.743   3.901   6.530
 2826SOL     OW 9133   0.263   4.050   6.306
 2826SOL    HW1 9134   0.184   4.101   6.272
 2826SOL    HW2 9135   0.254   4.035   6.404
 2827SOL     OW 9136   0.916   4.634   5.877
 2827SOL    HW1 9137   0.979   4.672   5.809
 2827SOL    HW2 9138   0.956   4.551   5.916
 2828SOL     OW 9139   1.039   4.822   6.282
 2828SOL    HW1 9140   0.969   4.775   6.336
 2828SOL    HW2 9141   1.098   4.754   6.239
 2829SOL     OW 9142   1.014   3.960   6.557
 2829SOL    HW1 9143   1.006   3.924   6.464
 2829SOL    HW2 9144   1.012   3.884   6.622
 2830SOL     OW 9145   1.709   4.109   6.967
 2830SOL    HW1 9146   1.782   4.178   6.971
 2830SOL    HW2 9147   1.737   4.034   6.908
 2831SOL     OW 9148   0.672   3.927   7.075
 2831SOL    HW1 9149   0.762   3.911   7.035
 2831SOL    HW2 9150   0.680   3.932   7.174
 2832SOL     OW 9151   0.075   4.069   5.619
 2832SOL    HW1 9152  -0.017   4.041   5.590
 2832SOL    HW2 9153   0.106   4.146   5.563
 2833SOL     OW 9154   0.072   3.890   5.904
 2833SOL    HW1 9155   0.055   3.973   5.850
 2833SOL    HW2 9156   0.162   3.853   5.882
 2834SOL     OW 9157   0.716   4.289   7.294
 2834SOL    HW1 9158   0.735   4.354   7.368
 2834SOL    HW2 9159   0.776   4.209   7.303
 2835SOL     OW 9160   1.225   4.049   6.035
 2835SOL    HW1 9161   1.290   3.975   6.024
 2835SOL    HW2 9162   1.245   4.099   6.119
 2836SOL     OW 9163   1.777   4.066   7.228
 2836SOL    HW1 9164   1.760   4.097   7.134
 2836SOL    HW2 9165   1.693   4.029   7.266
 2837SOL     OW 9166   1.083   4.708   5.673
 2837SOL    HW1 9167   1.060   4.761   5.591
 2837SOL    HW2 9168   1.164   4.652   5.654
 2838SOL     OW 9169   1.824   3.916   6.813
 2838SOL    HW1 9170   1.820   3.826   6.857
 2838SOL    HW2 9171   1.827   3.905   6.714
 2839SOL     OW 9172   0.428   4.148   6.106
 2839SOL    HW1 9173   0.458   4.076   6.044
 2839SOL    HW2 9174   0.389   4.108   6.189
 2840SOL     OW 9175   0.317   4.271   6.866
 2840SOL    HW1 9176   0.355   4.212   6.938
 2840SOL    HW2 9177   0.357   4.245   6.778
 2841SOL     OW 9178   1.424   3.938   6.698
 2841SOL    HW1 9179   1.476   3.873   6.753
 2841SOL    HW2 9180   1.375   4.001   6.759
 2842SOL     OW 9181   1.001   3.758   6.740
 2842SOL    HW1 9182   0.938   3.686   6.709
 2842SOL    HW2 9183   1.094   3.722   6.740
 2843SOL     OW 9184   1.352   3.776   5.754
 2843SOL    HW1 9185   1.387   3.735   5.670
 2843SOL    HW2 9186   1.262   3.738   5.774
 2844SOL     OW 9187   1.300   4.177   6.277
 2844SOL    HW1 9188   1.241   4.257   6.281
 2844SOL    HW2 9189   1.315   4.142   6.370
 2845SOL     OW 9190   1.593   3.945   6.468
 2845SOL    HW1 9191   1.509   3.944   6.522
 2845SOL    HW2 9192   1.595   4.028   6.412
 2846SOL     OW 9193   0.230   4.352   7.561
 2846SOL    HW1 9194   0.137   4.350   7.598
 2846SOL    HW2 9195   0.231   4.313   7.469
 2847SOL     OW 9196   0.225   3.999   8.444
 2847SOL    HW1 9197   0.260   3.982   8.536
 2847SOL    HW2 9198   0.137   3.954   8.432
 2848SOL     OW 9199   0.019   4.092   8.095
 2848SOL    HW1 9200  -0.063   4.135   8.134
 2848SOL    HW2 9201  -0.009   4.019   8.032
 2849SOL     OW 9202   1.755   4.331   7.679
 2849SOL    HW1 9203   1.743   4.318   7.580
 2849SOL    HW2 9204   1.725   4.250   7.728
 2850SOL     OW 9205   0.685   4.736   8.113
 2850SOL    HW1 9206   0.754   4.720   8.183
 2850SOL    HW2 9207   0.612   4.793   8.151
 2851SOL     OW 9208   0.438   4.116   8.947
 2851SOL    HW1 9209   0.520   4.060   8.956
 2851SOL    HW2 9210   0.357   4.058   8.951
 2852SOL     OW 9211   1.603   4.171   8.185
 2852SOL    HW1 9212   1.529   4.217   8.135
 2852SOL    HW2 9213   1.654   4.239   8.238
 2853SOL     OW 9214   1.594   3.838   8.928
 2853SOL    HW1 9215   1.576   3.905   8.856
 2853SOL    HW2 9216   1.591   3.884   9.017
 2854SOL     OW 9217   0.122   4.367   8.011
 2854SOL    HW1 9218   0.077   4.279   8.028
 2854SOL    HW2 9219   0.121   4.421   8.095
 2855SOL     OW 9220   0.113   4.461   9.045
 2855SOL    HW1 9221   0.201   4.448   9.090
 2855SOL    HW2 9222   0.100   4.558   9.023
 2856SOL     OW 9223   0.809   3.728   7.950
 2856SOL    HW1 9224   0.849   3.819   7.941
 2856SOL    HW2 9225   0.709   3.736   7.956
 2857SOL     OW 9226   0.317   3.975   9.249
 2857SOL    HW1 9227   0.388   4.046   9.255
 2857SOL    HW2 9228   0.229   4.014   9.277
 2858SOL     OW 9229   1.281   4.069   8.392
 2858SOL    HW1 9230   1.195   4.019   8.379
 2858SOL    HW2 9231   1.343   4.015   8.448
 2859SOL     OW 9232   0.807   4.329   8.913
 2859SOL    HW1 9233   0.760   4.326   9.002
 2859SOL    HW2 9234   0.756   4.274   8.847
 2860SOL     OW 9235   1.394   4.193   9.122
 2860SOL    HW1 9236   1.374   4.236   9.210
 2860SOL    HW2 9237   1.472   4.131   9.131
 2861SOL     OW 9238   0.991   4.134   8.690
 2861SOL    HW1 9239   0.914   4.168   8.744
 2861SOL    HW2 9240   0.957   4.083   8.611
 2862SOL     OW 9241   1.041   4.425   7.877
 2862SOL    HW1 9242   1.067   4.421   7.973
 2862SOL    HW2 9243   0.956   4.374   7.863
 2863SOL     OW 9244   0.076   4.535   8.237
 2863SOL    HW1 9245   0.175   4.523   8.246
 2863SOL    HW2 9246   0.052   4.630   8.258
 2864SOL     OW 9247   0.865   4.072   7.643
 2864SOL    HW1 9248   0.924   4.135   7.594
 2864SOL    HW2 9249   0.884   3.978   7.614
 2865SOL     OW 9250   1.719   4.309   9.279
 2865SOL    HW1 9251   1.693   4.398   9.243
 2865SOL    HW2 9252   1.717   4.241   9.206
 2866SOL     OW 9253   0.550   3.920   8.333
 2866SOL    HW1 9254   0.545   3.915   8.433
 2866SOL    HW2 9255   0.552   4.016   8.304
 2867SOL     OW 9256   1.458   4.459   8.176
 2867SOL    HW1 9257   1.453   4.394   8.251
 2867SOL    HW2 9258   1.538   4.518   8.189
 2868SOL     OW 9259   0.202   4.009   8.946
 2868SOL    HW1 9260   0.122   4.069   8.933
 2868SOL    HW2 9261   0.192   3.960   9.032
 2869SOL     OW 9262   1.400   3.831   7.874
 2869SOL    HW1 9263   1.376   3.794   7.784
 2869SOL    HW2 9264   1.499   3.847   7.878
 2870SOL     OW 9265   0.382   4.424   7.928
 2870SOL    HW1 9266   0.427   4.334   7.925
 2870SOL    HW2 9267   0.288   4.413   7.961
 2871SOL     OW 9268   1.547   3.946   9.177
 2871SOL    HW1 9269   1.542   3.983   9.269
 2871SOL    HW2 9270   1.475   3.877   9.165
 2872SOL     OW 9271   0.614   3.846   7.565
 2872SOL    HW1 9272   0.712   3.824   7.572
 2872SOL    HW2 9273   0.583   3.829   7.472
 2873SOL     OW 9274   0.781   3.988   9.197
 2873SOL    HW1 9275   0.848   3.927   9.240
 2873SOL    HW2 9276   0.708   4.007   9.262
 2874SOL     OW 9277   1.351   4.314   8.881
 2874SOL    HW1 9278   1.379   4.271   8.966
 2874SOL    HW2 9279   1.376   4.410   8.882
 2875SOL     OW 9280   0.922   4.227   8.347
 2875SOL    HW1 9281   0.897   4.218   8.251
 2875SOL    HW2 9282   0.970   4.145   8.378
 2876SOL     OW 9283   0.539   3.788   7.960
 2876SOL    HW1 9284   0.458   3.789   8.018
 2876SOL    HW2 9285   0.542   3.871   7.905
 2877SOL     OW 9286   0.297   3.759   7.619
 2877SOL    HW1 9287   0.346   3.843   7.598
 2877SOL    HW2 9288   0.359   3.694   7.664
 2878SOL     OW 9289   0.935   3.960   7.928
 2878SOL    HW1 9290   0.887   4.001   7.850
 2878SOL    HW2 9291   1.034   3.958   7.909
 2879SOL     OW 9292   1.076   4.407   8.912
 2879SOL    HW1 9293   0.996   4.346   8.915
 2879SOL    HW2 9294   1.157   4.354   8.888
 2880SOL     OW 9295   1.032   4.273   7.464
 2880SOL    HW1 9296   0.991   4.355   7.425
 2880SOL    HW2 9297   1.096   4.299   7.537
 2881SOL     OW 9298   0.078   4.280   8.834
 2881SOL    HW1 9299   0.170   4.279   8.793
 2881SOL    HW2 9300   0.072   4.354   8.901
 2882SOL     OW 9301   0.561   3.946   8.595
 2882SOL    HW1 9302   0.599   3.862   8.632
 2882SOL    HW2 9303   0.473   3.965   8.639
 2883SOL     OW 9304   0.866   4.178   8.090
 2883SOL    HW1 9305   0.834   4.250   8.028
 2883SOL    HW2 9306   0.890   4.097   8.037
 2884SOL     OW 9307   1.017   3.763   8.201
 2884SOL    HW1 9308   0.945   3.768   8.132
 2884SOL    HW2 9309   0.993   3.694   8.270
 2885SOL     OW 9310   1.466   4.314   8.440
 2885SOL    HW1 9311   1.436   4.219   8.447
 2885SOL    HW2 9312   1.539   4.330   8.506
 2886SOL     OW 9313   1.390   4.299   7.526
 2886SOL    HW1 9314   1.336   4.278   7.607
 2886SOL    HW2 9315   1.481   4.258   7.535
 2887SOL     OW 9316   0.527   3.980   7.776
 2887SOL    HW1 9317   0.554   3.921   7.701
 2887SOL    HW2 9318   0.527   4.075   7.745
 2888SOL     OW 9319   0.915   3.813   8.850
 2888SOL    HW1 9320   0.940   3.793   8.755
 2888SOL    HW2 9321   0.987   3.869   8.892
 2889SOL     OW 9322   0.410   4.537   8.699
 2889SOL    HW1 9323   0.496   4.549   8.749
 2889SOL    HW2 9324   0.368   4.450   8.726
 2890SOL     OW 9325   1.274   4.110   8.710
 2890SOL    HW1 9326   1.295   4.184   8.774
 2890SOL    HW2 9327   1.185   4.127   8.667
 2891SOL     OW 9328   0.566   4.261   8.313
 2891SOL    HW1 9329   0.578   4.327   8.239
 2891SOL    HW2 9330   0.612   4.295   8.396
 2892SOL     OW 9331   1.582   4.363   7.920
 2892SOL    HW1 9332   1.551   4.424   7.993
 2892SOL    HW2 9333   1.632   4.415   7.851
 2893SOL     OW 9334   1.013   3.829   9.218
 2893SOL    HW1 9335   1.019   3.914   9.166
 2893SOL    HW2 9336   1.045   3.753   9.161
 2894SOL     OW 9337   0.504   3.774   9.188
 2894SOL    HW1 9338   0.462   3.717   9.118
 2894SOL    HW2 9339   0.438   3.843   9.220
 2895SOL     OW 9340   1.209   4.249   7.723
 2895SOL    HW1 9341   1.222   4.165   7.777
 2895SOL    HW2 9342   1.180   4.323   7.783
 2896SOL     OW 9343   0.307   3.937   8.679
 2896SOL    HW1 9344   0.284   3.974   8.769
 2896SOL    HW2 9345   0.277   3.842   8.673
 2897SOL     OW 9346   0.732   4.358   8.512
 2897SOL    HW1 9347   0.791   4.332   8.436
 2897SOL    HW2 9348   0.704   4.454   8.501
 2898SOL     OW 9349   1.728   4.659   9.302
 2898SOL    HW1 9350   1.682   4.652   9.213
 2898SOL    HW2 9351   1.666   4.703   9.368
 2899SOL     OW 9352   0.307   3.787   8.066
 2899SOL    HW1 9353   0.296   3.881   8.099
 2899SOL    HW2 9354   0.302   3.724   8.143
 2900SOL     OW 9355   1.622   4.091   7.822
 2900SOL    HW1 9356   1.624   4.015   7.886
 2900SOL    HW2 9357   1.574   4.168   7.862
 2901SOL     OW 9358   1.540   3.998   7.573
 2901SOL    HW1 9359   1.479   3.923   7.596
 2901SOL    HW2 9360   1.562   4.050   7.656
 2902SOL     OW 9361   0.319   4.534   8.397
 2902SOL    HW1 9362   0.412   4.570   8.402
 2902SOL    HW2 9363   0.313   4.449   8.449
 2903SOL     OW 9364   0.339   4.233   8.454
 2903SOL    HW1 9365   0.287   4.150   8.437
 2903SOL    HW2 9366   0.416   4.238   8.390
 2904SOL     OW 9367   1.138   4.104   9.126
 2904SOL    HW1 9368   1.093   4.167   9.190
 2904SOL    HW2 9369   1.231   4.135   9.109
 2905SOL     OW 9370   1.160   3.931   8.925
 2905SOL    HW1 9371   1.160   3.995   9.002
 2905SOL    HW2 9372   1.188   3.979   8.842
 2906SOL     OW 9373   0.040   4.268   8.562
 2906SOL    HW1 9374   0.125   4.235   8.521
 2906SOL    HW2 9375   0.053   4.283   8.660
 2907SOL     OW 9376   0.189   4.244   9.170
 2907SOL    HW1 9377   0.248   4.204   9.100
 2907SOL    HW2 9378   0.131   4.315   9.129
 2908SOL     OW 9379   0.815   4.296   7.773
 2908SOL    HW1 9380   0.822   4.207   7.727
 2908SOL    HW2 9381   0.721   4.330   7.765
 2909SOL     OW 9382   1.657   4.328   8.654
 2909SOL    HW1 9383   1.619   4.259   8.716
 2909SOL    HW2 9384   1.739   4.292   8.610
 2910SOL     OW 9385   0.671   4.188   8.717
 2910SOL    HW1 9386   0.637   4.099   8.687
 2910SOL    HW2 9387   0.697   4.242   8.637
 2911SOL     OW 9388   0.473   4.224   7.639
 2911SOL    HW1 9389   0.534   4.304   7.643
 2911SOL    HW2 9390   0.378   4.255   7.646
 2912SOL     OW 9391   1.726   3.859   7.971
 2912SOL    HW1 9392   1.799   3.842   7.904
 2912SOL    HW2 9393   1.695   3.772   8.009
 2913SOL     OW 9394   1.280   4.651   8.120
 2913SOL    HW1 9395   1.340   4.570   8.122
 2913SOL    HW2 9396   1.320   4.720   8.060
 2914SOL     OW 9397   1.841   3.899   8.411
 2914SOL    HW1 9398   1.880   3.814   8.375
 2914SOL    HW2 9399   1.743   3.901   8.392
 2915SOL     OW 9400   0.263   4.050   8.168
 2915SOL    HW1 9401   0.184   4.101   8.134
 2915SOL    HW2 9402   0.254   4.035   8.266
 2916SOL     OW 9403   0.916   4.634   7.739
 2916SOL    HW1 9404   0.979   4.672   7.671
 2916SOL    HW2 9405   0.956   4.551   7.778
 2917SOL     OW 9406   1.039   4.822   8.144
 2917SOL    HW1 9407   0.969   4.775   8.198
 2917SOL    HW2 9408   1.098   4.754   8.101
 2918SOL     OW 9409   1.014   3.960   8.419
 2918SOL    HW1 9410   1.006   3.924   8.326
 2918SOL    HW2 9411   1.012   3.884   8.484
 2919SOL     OW 9412   1.709   4.109   8.829
 2919SOL    HW1 9413   1.782   4.178   8.833
 2919SOL    HW2 9414   1.737   4.034   8.770
 2920SOL     OW 9415   0.672   3.927   8.937
 2920SOL    HW1 9416   0.762   3.911   8.897
 2920SOL    HW2 9417   0.680   3.932   9.036
 2921SOL     OW 9418   0.075   4.069   7.481
 2921SOL    HW1 9419  -0.017   4.041   7.452
 2921SOL    HW2 9420   0.106   4.146   7.425
 2922SOL     OW 9421   0.072   3.890   7.766
 2922SOL    HW1 9422   0.055   3.973   7.712
 2922SOL    HW2 9423   0.162   3.853   7.744
 2923SOL     OW 9424   0.716   4.289   9.156
 2923SOL    HW1 9425   0.735   4.354   9.230
 2923SOL    HW2 9426   0.776   4.209   9.165
 2924SOL     OW 9427   1.225   4.049   7.897
 2924SOL    HW1 9428   1.290   3.975   7.886
 2924SOL    HW2 9429   1.245   4.099   7.981
 2925SOL     OW 9430   1.777   4.066   9.090
 2925SOL    HW1 9431   1.760   4.097   8.996
 2925SOL    HW2 9432   1.693   4.029   9.128
 2926SOL     OW 9433   1.083   4.708   7.535
 2926SOL    HW1 9434   1.060   4.761   7.453
 2926SOL    HW2 9435   1.164   4.652   7.516
 2927SOL     OW 9436   1.824   3.916   8.675
 2927SOL    HW1 9437   1.820   3.826   8.719
 2927SOL    HW2 9438   1.827   3.905   8.576
 2928SOL     OW 9439   0.428   4.148   7.968
 2928SOL    HW1 9440   0.458   4.076   7.906
 2928SOL    HW2 9441   0.389   4.108   8.051
 2929SOL     OW 9442   0.317   4.271   8.728
 2929SOL    HW1 9443   0.355   4.212   8.800
 2929SOL    HW2 9444   0.357   4.245   8.640
 2930SOL     OW 9445   1.424   3.938   8.560
 2930SOL    HW1 9446   1.476   3.873   8.615
 2930SOL    HW2 9447   1.375   4.001   8.621
 2931SOL     OW 9448   1.001   3.758   8.602
 2931SOL    HW1 9449   0.938   3.686   8.571
 2931SOL    HW2 9450   1.094   3.722   8.602
 2932SOL     OW 9451   1.352   3.776   7.616
 2932SOL    HW1 9452   1.387   3.735   7.532
 2932SOL    HW2 9453   1.262   3.738   7.636
 2933SOL     OW 9454   1.300   4.177   8.139
 2933SOL    HW1 9455   1.241   4.257   8.143
 2933SOL    HW2 9456   1.315   4.142   8.232
 2934SOL     OW 9457   1.593   3.945   8.330
 2934SOL    HW1 9458   1.509   3.944   8.384
 2934SOL    HW2 9459   1.595   4.028   8.274
 2935SOL     OW 9460   0.230   4.352   9.423
 2935SOL    HW1 9461   0.137   4.350   9.460
 2935SOL    HW2 9462   0.231   4.313   9.331
 2936SOL     OW 9463   0.225   3.999  10.306
 2936SOL    HW1 9464   0.260   3.982  10.398
 2936SOL    HW2 9465   0.137   3.954  10.294
 2937SOL     OW 9466   0.019   4.092   9.957
 2937SOL    HW1 9467  -0.063   4.135   9.996
 2937SOL    HW2 9468  -0.009   4.019   9.894
 2938SOL     OW 9469   1.755   4.331   9.541
 2938SOL    HW1 9470   1.743   4.318   9.442
 2938SOL    HW2 9471   1.725   4.250   9.590
 2939SOL     OW 9472   0.685   4.736   9.975
 2939SOL    HW1 9473   0.754   4.720  10.045
 2939SOL    HW2 9474   0.612   4.793  10.013
 2940SOL     OW 9475   0.438   4.116  10.809
 2940SOL    HW1 9476   0.520   4.060  10.818
 2940SOL    HW2 9477   0.357   4.058  10.813
 2941SOL     OW 9478   1.603   4.171  10.047
 2941SOL    HW1 9479   1.529   4.217   9.997
 2941SOL    HW2 9480   1.654   4.239  10.100
 2942SOL     OW 9481   1.594   3.838  10.790
 2942SOL    HW1 9482   1.576   3.905  10.718
 2942SOL    HW2 9483   1.591   3.884  10.879
 2943SOL     OW 9484   0.122   4.367   9.873
 2943SOL    HW1 9485   0.077   4.279   9.890
 2943SOL    HW2 9486   0.121   4.421   9.957
 2944SOL     OW 9487   0.113   4.461  10.907
 2944SOL    HW1 9488   0.201   4.448  10.952
 2944SOL    HW2 9489   0.100   4.558  10.885
 2945SOL     OW 9490   0.809   3.728   9.812
 2945SOL    HW1 9491   0.849   3.819   9.803
 2945SOL    HW2 9492   0.709   3.736   9.818
 2946SOL     OW 9493   0.317   3.975  11.111
 2946SOL    HW1 9494   0.388   4.046  11.117
 2946SOL    HW2 9495   0.229   4.014  11.139
 2947SOL     OW 9496   1.281   4.069  10.254
 2947SOL    HW1 9497   1.195   4.019  10.241
 2947SOL    HW2 9498   1.343   4.015  10.310
 2948SOL     OW 9499   0.807   4.329  10.775
 2948SOL    HW1 9500   0.760   4.326  10.864
 2948SOL    HW2 9501   0.756   4.274  10.709
 2949SOL     OW 9502   0.991   4.134  10.552
 2949SOL    HW1 9503   0.914   4.168  10.606
 2949SOL    HW2 9504   0.957   4.083  10.473
 2950SOL     OW 9505   1.041   4.425   9.739
 2950SOL    HW1 9506   1.067   4.421   9.835
 2950SOL    HW2 9507   0.956   4.374   9.725
 2951SOL     OW 9508   0.076   4.535  10.099
 2951SOL    HW1 9509   0.175   4.523  10.108
 2951SOL    HW2 9510   0.052   4.630  10.120
 2952SOL     OW 9511   0.865   4.072   9.505
 2952SOL    HW1 9512   0.924   4.135   9.456
 2952SOL    HW2 9513   0.884   3.978   9.476
 2953SOL     OW 9514   0.550   3.920  10.195
 2953SOL    HW1 9515   0.545   3.915  10.295
 2953SOL    HW2 9516   0.552   4.016  10.166
 2954SOL     OW 9517   1.458   4.459  10.038
 2954SOL    HW1 9518   1.453   4.394  10.113
 2954SOL    HW2 9519   1.538   4.518  10.051
 2955SOL     OW 9520   0.202   4.009  10.808
 2955SOL    HW1 9521   0.122   4.069  10.795
 2955SOL    HW2 9522   0.192   3.960  10.894
 2956SOL     OW 9523   1.400   3.831   9.736
 2956SOL    HW1 9524   1.376   3.794   9.646
 2956SOL    HW2 9525   1.499   3.847   9.740
 2957SOL     OW 9526   0.382   4.424   9.790
 2957SOL    HW1 9527   0.427   4.334   9.787
 2957SOL    HW2 9528   0.288   4.413   9.823
 2958SOL     OW 9529   0.614   3.846   9.427
 2958SOL    HW1 9530   0.712   3.824   9.434
 2958SOL    HW2 9531   0.583   3.829   9.334
 2959SOL     OW 9532   0.781   3.988  11.059
 2959SOL    HW1 9533   0.848   3.927  11.102
 2959SOL    HW2 9534   0.708   4.007  11.124
 2960SOL     OW 9535   1.351   4.314  10.743
 2960SOL    HW1 9536   1.379   4.271  10.828
 2960SOL    HW2 9537   1.376   4.410  10.744
 2961SOL     OW 9538   0.922   4.227  10.209
 2961SOL    HW1 9539   0.897   4.218  10.113
 2961SOL    HW2 9540   0.970   4.145  10.240
 2962SOL     OW 9541   0.539   3.788   9.822
 2962SOL    HW1 9542   0.458   3.789   9.880
 2962SOL    HW2 9543   0.542   3.871   9.767
 2963SOL     OW 9544   0.297   3.759   9.481
 2963SOL    HW1 9545   0.346   3.843   9.460
 2963SOL    HW2 9546   0.359   3.694   9.526
 2964SOL     OW 9547   0.935   3.960   9.790
 2964SOL    HW1 9548   0.887   4.001   9.712
 2964SOL    HW2 9549   1.034   3.958   9.771
 2965SOL     OW 9550   1.076   4.407  10.774
 2965SOL    HW1 9551   0.996   4.346  10.777
 2965SOL    HW2 9552   1.157   4.354  10.750
 2966SOL     OW 9553   1.032   4.273   9.326
 2966SOL    HW1 9554   0.991   4.355   9.287
 2966SOL    HW2 9555   1.096   4.299   9.399
 2967SOL     OW 9556   0.078   4.280  10.696
 2967SOL    HW1 9557   0.170   4.279  10.655
 2967SOL    HW2 9558   0.072   4.354  10.763
 2968SOL     OW 9559   0.561   3.946  10.457
 2968SOL    HW1 9560   0.599   3.862  10.494
 2968SOL    HW2 9561   0.473   3.965  10.501
 2969SOL     OW 9562   0.866   4.178   9.952
 2969SOL    HW1 9563   0.834   4.250   9.890
 2969SOL    HW2 9564   0.890   4.097   9.899
 2970SOL     OW 9565   1.017   3.763  10.063
 2970SOL    HW1 9566   0.945   3.768   9.994
 2970SOL    HW2 9567   0.993   3.694  10.132
 2971SOL     OW 9568   1.466   4.314  10.302
 2971SOL    HW1 9569   1.436   4.219  10.309
 2971SOL    HW2 9570   1.539   4.330  10.368
 2972SOL     OW 9571   1.390   4.299   9.388
 2972SOL    HW1 9572   1.336   4.278   9.469
 2972SOL    HW2 9573   1.481   4.258   9.397
 2973SOL     OW 9574   0.527   3.980   9.638
 2973SOL    HW1 9575   0.554   3.921   9.563
 2973SOL    HW2 9576   0.527   4.075   9.607
 2974SOL     OW 9577   0.915   3.813  10.712
 2974SOL    HW1 9578   0.940   3.793  10.617
 2974SOL    HW2 9579   0.987   3.869  10.754
 2975SOL     OW 9580   0.410   4.537  10.561
 2975SOL    HW1 9581   0.496   4.549  10.611
 2975SOL    HW2 9582   0.368   4.450  10.588
 2976SOL     OW 9583   1.274   4.110  10.572
 2976SOL    HW1 9584   1.295   4.184  10.636
 2976SOL    HW2 9585   1.185   4.127  10.529
 2977SOL     OW 9586   0.566   4.261  10.175
 2977SOL    HW1 9587   0.578   4.327  10.101
 2977SOL    HW2 9588   0.612   4.295  10.258
 2978SOL     OW 9589   1.582   4.363   9.782
 2978SOL    HW1 9590   1.551   4.424   9.855
 2978SOL    HW2 9591   1.632   4.415   9.713
 2979SOL     OW 9592   0.402   4.475  10.908
 2979SOL    HW1 9593   0.470   4.530  10.861
 2979SOL    HW2 9594   0.442   4.387  10.935
 2980SOL     OW 9595   1.209   4.249   9.585
 2980SOL    HW1 9596   1.222   4.165   9.639
 2980SOL    HW2 9597   1.180   4.323   9.645
 2981SOL     OW 9598   0.307   3.937  10.541
 2981SOL    HW1 9599   0.284   3.974  10.631
 2981SOL    HW2 9600   0.277   3.842  10.535
 2982SOL     OW 9601   0.732   4.358  10.374
 2982SOL    HW1 9602   0.791   4.332  10.298
 2982SOL    HW2 9603   0.704   4.454  10.363
 2983SOL     OW 9604   0.307   3.787   9.928
 2983SOL    HW1 9605   0.296   3.881   9.961
 2983SOL    HW2 9606   0.302   3.724  10.005
 2984SOL     OW 9607   1.622   4.091   9.684
 2984SOL    HW1 9608   1.624   4.015   9.748
 2984SOL    HW2 9609   1.574   4.168   9.724
 2985SOL     OW 9610   1.540   3.998   9.435
 2985SOL    HW1 9611   1.479   3.923   9.458
 2985SOL    HW2 9612   1.562   4.050   9.518
 2986SOL     OW 9613   0.319   4.534  10.259
 2986SOL    HW1 9614   0.412   4.570  10.264
 2986SOL    HW2 9615   0.313   4.449  10.311
 2987SOL     OW 9616   0.339   4.233  10.316
 2987SOL    HW1 9617   0.287   4.150  10.299
 2987SOL    HW2 9618   0.416   4.238  10.252
 2988SOL     OW 9619   1.160   3.931  10.787
 2988SOL    HW1 9620   1.160   3.995  10.864
 2988SOL    HW2 9621   1.188   3.979  10.704
 2989SOL     OW 9622   0.040   4.268  10.424
 2989SOL    HW1 9623   0.125   4.235  10.383
 2989SOL    HW2 9624   0.053   4.283  10.522
 2990SOL     OW 9625   1.369   4.674  10.970
 2990SOL    HW1 9626   1.408   4.763  10.990
 2990SOL    HW2 9627   1.379   4.654  10.873
 2991SOL     OW 9628   0.815   4.296   9.635
 2991SOL    HW1 9629   0.822   4.207   9.589
 2991SOL    HW2 9630   0.721   4.330   9.627
 2992SOL     OW 9631   1.657   4.328  10.516
 2992SOL    HW1 9632   1.619   4.259  10.578
 2992SOL    HW2 9633   1.739   4.292  10.472
 2993SOL     OW 9634   0.671   4.188  10.579
 2993SOL    HW1 9635   0.637   4.099  10.549
 2993SOL    HW2 9636   0.697   4.242  10.499
 2994SOL     OW 9637   0.473   4.224   9.501
 2994SOL    HW1 9638   0.534   4.304   9.505
 2994SOL    HW2 9639   0.378   4.255   9.508
 2995SOL     OW 9640   1.726   3.859   9.833
 2995SOL    HW1 9641   1.799   3.842   9.766
 2995SOL    HW2 9642   1.695   3.772   9.871
 2996SOL     OW 9643   1.280   4.651   9.982
 2996SOL    HW1 9644   1.340   4.570   9.984
 2996SOL    HW2 9645   1.320   4.720   9.922
 2997SOL     OW 9646   1.841   3.899  10.273
 2997SOL    HW1 9647   1.880   3.814  10.237
 2997SOL    HW2 9648   1.743   3.901  10.254
 2998SOL     OW 9649   0.263   4.050  10.030
 2998SOL    HW1 9650   0.184   4.101   9.996
 2998SOL    HW2 9651   0.254   4.035  10.128
 2999SOL     OW 9652   0.916   4.634   9.601
 2999SOL    HW1 9653   0.979   4.672   9.533
 2999SOL    HW2 9654   0.956   4.551   9.640
 3000SOL     OW 9655   1.039   4.822  10.006
 3000SOL    HW1 9656   0.969   4.775  10.060
 3000SOL    HW2 9657   1.098   4.754   9.963
 3001SOL     OW 9658   1.014   3.960  10.281
 3001SOL    HW1 9659   1.006   3.924  10.188
 3001SOL    HW2 9660   1.012   3.884  10.346
 3002SOL     OW 9661   1.709   4.109  10.691
 3002SOL    HW1 9662   1.782   4.178  10.695
 3002SOL    HW2 9663   1.737   4.034  10.632
 3003SOL     OW 9664   0.672   3.927  10.799
 3003SOL    HW1 9665   0.762   3.911  10.759
 3003SOL    HW2 9666   0.680   3.932  10.898
 3004SOL     OW 9667   0.075   4.069   9.343
 3004SOL    HW1 9668  -0.017   4.041   9.314
 3004SOL    HW2 9669   0.106   4.146   9.287
 3005SOL     OW 9670   0.072   3.890   9.628
 3005SOL    HW1 9671   0.055   3.973   9.574
 3005SOL    HW2 9672   0.162   3.853   9.606
 3006SOL     OW 9673   0.716   4.289  11.018
 3006SOL    HW1 9674   0.735   4.354  11.092
 3006SOL    HW2 9675   0.776   4.209  11.027
 3007SOL     OW 9676   1.225   4.049   9.759
 3007SOL    HW1 9677   1.290   3.975   9.748
 3007SOL    HW2 9678   1.245   4.099   9.843
 3008SOL     OW 9679   1.777   4.066  10.952
 3008SOL    HW1 9680   1.760   4.097  10.858
 3008SOL    HW2 9681   1.693   4.029  10.990
 3009SOL     OW 9682   1.083   4.708   9.397
 3009SOL    HW1 9683   1.060   4.761   9.315
 3009SOL    HW2 9684   1.164   4.652   9.378
 3010SOL     OW 9685   1.824   3.916  10.537
 3010SOL    HW1 9686   1.820   3.826  10.581
 3010SOL    HW2 9687   1.827   3.905  10.438
 3011SOL     OW 9688   0.428   4.148   9.830
 3011SOL    HW1 9689   0.458   4.076   9.768
 3011SOL    HW2 9690   0.389   4.108   9.913
 3012SOL     OW 9691   0.317   4.271  10.590
 3012SOL    HW1 9692   0.355   4.212  10.662
 3012SOL    HW2 9693   0.357   4.245  10.502
 3013SOL     OW 9694   1.424   3.938  10.422
 3013SOL    HW1 9695   1.476   3.873  10.477
 3013SOL    HW2 9696   1.375   4.001  10.483
 3014SOL     OW 9697   1.001   3.758  10.464
 3014SOL    HW1 9698   0.938   3.686  10.433
 3014SOL    HW2 9699   1.094   3.722  10.464
 3015SOL     OW 9700   1.352   3.776   9.478
 3015SOL    HW1 9701   1.387   3.735   9.394
 3015SOL    HW2 9702   1.262   3.738   9.498
 3016SOL     OW 9703   1.300   4.177  10.001
 3016SOL    HW1 9704   1.241   4.257  10.005
 3016SOL    HW2 9705   1.315   4.142  10.094
 3017SOL     OW 9706   1.593   3.945  10.192
 3017SOL    HW1 9707   1.509   3.944  10.246
 3017SOL    HW2 9708   1.595   4.028  10.136
 3018SOL     OW 9709   2.092   0.628   0.113
 3018SOL    HW1 9710   1.999   0.626   0.150
 3018SOL    HW2 9711   2.093   0.589   0.021
 3019SOL     OW 9712   2.087   0.275   0.996
 3019SOL    HW1 9713   2.122   0.258   1.088
 3019SOL    HW2 9714   1.999   0.230   0.984
 3020SOL     OW 9715   1.881   0.368   0.647
 3020SOL    HW1 9716   1.799   0.411   0.686
 3020SOL    HW2 9717   1.853   0.295   0.584
 3021SOL     OW 9718   2.431   1.275   1.165
 3021SOL    HW1 9719   2.338   1.268   1.128
 3021SOL    HW2 9720   2.442   1.364   1.209
 3022SOL     OW 9721   3.417   1.511   0.703
 3022SOL    HW1 9722   3.360   1.495   0.784
 3022SOL    HW2 9723   3.358   1.521   0.623
 3023SOL     OW 9724   2.997   0.703   0.717
 3023SOL    HW1 9725   3.054   0.781   0.692
 3023SOL    HW2 9726   2.937   0.729   0.793
 3024SOL     OW 9727   3.617   0.607   0.231
 3024SOL    HW1 9728   3.605   0.594   0.132
 3024SOL    HW2 9729   3.587   0.526   0.280
 3025SOL     OW 9730   2.630   1.144   1.023
 3025SOL    HW1 9731   2.552   1.161   1.083
 3025SOL    HW2 9732   2.664   1.231   0.987
 3026SOL     OW 9733   2.712   0.798   1.823
 3026SOL    HW1 9734   2.708   0.874   1.888
 3026SOL    HW2 9735   2.734   0.834   1.732
 3027SOL     OW 9736   2.547   1.012   0.665
 3027SOL    HW1 9737   2.616   0.996   0.735
 3027SOL    HW2 9738   2.474   1.069   0.703
 3028SOL     OW 9739   2.548   1.161   1.803
 3028SOL    HW1 9740   2.608   1.240   1.817
 3028SOL    HW2 9741   2.462   1.192   1.762
 3029SOL     OW 9742   2.197   1.435   1.061
 3029SOL    HW1 9743   2.119   1.404   1.008
 3029SOL    HW2 9744   2.255   1.493   1.004
 3030SOL     OW 9745   3.322   1.505   1.339
 3030SOL    HW1 9746   3.346   1.599   1.365
 3030SOL    HW2 9747   3.306   1.451   1.421
 3031SOL     OW 9748   2.300   0.392   1.499
 3031SOL    HW1 9749   2.382   0.336   1.508
 3031SOL    HW2 9750   2.219   0.334   1.503
 3032SOL     OW 9751   3.465   0.447   0.737
 3032SOL    HW1 9752   3.391   0.493   0.687
 3032SOL    HW2 9753   3.516   0.515   0.790
 3033SOL     OW 9754   2.093   1.713   0.483
 3033SOL    HW1 9755   2.127   1.790   0.537
 3033SOL    HW2 9756   2.137   1.713   0.393
 3034SOL     OW 9757   2.989   1.341   1.690
 3034SOL    HW1 9758   3.036   1.341   1.778
 3034SOL    HW2 9759   2.941   1.254   1.679
 3035SOL     OW 9760   2.092   1.434   0.538
 3035SOL    HW1 9761   2.066   1.530   0.538
 3035SOL    HW2 9762   2.021   1.380   0.583
 3036SOL     OW 9763   2.102   1.091   0.886
 3036SOL    HW1 9764   2.116   1.007   0.938
 3036SOL    HW2 9765   2.047   1.155   0.941
 3037SOL     OW 9766   2.482   1.786   1.439
 3037SOL    HW1 9767   2.390   1.769   1.474
 3037SOL    HW2 9768   2.510   1.878   1.465
 3038SOL     OW 9769   2.468   0.964   0.123
 3038SOL    HW1 9770   2.475   1.048   0.069
 3038SOL    HW2 9771   2.514   0.977   0.211
 3039SOL     OW 9772   3.456   0.114   1.480
 3039SOL    HW1 9773   3.438   0.181   1.408
 3039SOL    HW2 9774   3.453   0.160   1.569
 3040SOL     OW 9775   1.984   0.643   0.563
 3040SOL    HW1 9776   1.939   0.555   0.580
 3040SOL    HW2 9777   1.983   0.697   0.647
 3041SOL     OW 9778   3.704   1.767   0.359
 3041SOL    HW1 9779   3.758   1.738   0.439
 3041SOL    HW2 9780   3.734   1.857   0.330
 3042SOL     OW 9781   1.889   1.596   0.117
 3042SOL    HW1 9782   1.870   1.500   0.138
 3042SOL    HW2 9783   1.856   1.654   0.192
 3043SOL     OW 9784   3.551   0.922   0.612
 3043SOL    HW1 9785   3.646   0.893   0.620
 3043SOL    HW2 9786   3.543   0.987   0.537
 3044SOL     OW 9787   3.503   1.108   0.432
 3044SOL    HW1 9788   3.589   1.110   0.380
 3044SOL    HW2 9789   3.517   1.155   0.520
 3045SOL     OW 9790   1.975   0.737   1.597
 3045SOL    HW1 9791   2.063   0.724   1.642
 3045SOL    HW2 9792   1.962   0.834   1.575
 3046SOL     OW 9793   2.475   1.365   0.726
 3046SOL    HW1 9794   2.426   1.278   0.735
 3046SOL    HW2 9795   2.452   1.408   0.639
 3047SOL     OW 9796   3.155   1.228   1.423
 3047SOL    HW1 9797   3.192   1.155   1.365
 3047SOL    HW2 9798   3.207   1.233   1.508
 3048SOL     OW 9799   2.671   0.004   0.502
 3048SOL    HW1 9800   2.711   0.095   0.493
 3048SOL    HW2 9801   2.571   0.012   0.508
 3049SOL     OW 9802   2.059   0.976   1.264
 3049SOL    HW1 9803   2.148   0.931   1.250
 3049SOL    HW2 9804   1.986   0.911   1.245
 3050SOL     OW 9805   3.387   0.999   0.190
 3050SOL    HW1 9806   3.324   0.923   0.203
 3050SOL    HW2 9807   3.435   1.017   0.276
 3051SOL     OW 9808   3.049   1.792   1.616
 3051SOL    HW1 9809   3.073   1.852   1.540
 3051SOL    HW2 9810   3.056   1.697   1.586
 3052SOL     OW 9811   2.179   0.251   1.801
 3052SOL    HW1 9812   2.250   0.322   1.807
 3052SOL    HW2 9813   2.091   0.290   1.829
 3053SOL     OW 9814   3.328   1.417   0.953
 3053SOL    HW1 9815   3.269   1.423   1.033
 3053SOL    HW2 9816   3.313   1.329   0.907
 3054SOL     OW 9817   3.529   1.714   0.572
 3054SOL    HW1 9818   3.488   1.691   0.484
 3054SOL    HW2 9819   3.511   1.640   0.637
 3055SOL     OW 9820   2.460   0.729   0.270
 3055SOL    HW1 9821   2.484   0.798   0.202
 3055SOL    HW2 9822   2.382   0.762   0.324
 3056SOL     OW 9823   3.143   0.345   0.944
 3056SOL    HW1 9824   3.057   0.295   0.931
 3056SOL    HW2 9825   3.205   0.291   1.000
 3057SOL     OW 9826   3.438   1.662   0.307
 3057SOL    HW1 9827   3.527   1.708   0.310
 3057SOL    HW2 9828   3.417   1.638   0.212
 3058SOL     OW 9829   2.669   0.605   1.465
 3058SOL    HW1 9830   2.622   0.602   1.554
 3058SOL    HW2 9831   2.618   0.550   1.399
 3059SOL     OW 9832   3.256   0.469   1.674
 3059SOL    HW1 9833   3.236   0.512   1.762
 3059SOL    HW2 9834   3.334   0.407   1.683
 3060SOL     OW 9835   2.835   0.890   1.572
 3060SOL    HW1 9836   2.881   0.806   1.543
 3060SOL    HW2 9837   2.779   0.924   1.497
 3061SOL     OW 9838   2.853   0.410   1.242
 3061SOL    HW1 9839   2.776   0.444   1.296
 3061SOL    HW2 9840   2.819   0.359   1.163
 3062SOL     OW 9841   2.903   0.701   0.429
 3062SOL    HW1 9842   2.929   0.697   0.525
 3062SOL    HW2 9843   2.818   0.650   0.415
 3063SOL     OW 9844   1.938   0.811   0.789
 3063SOL    HW1 9845   2.037   0.799   0.798
 3063SOL    HW2 9846   1.914   0.906   0.810
 3064SOL     OW 9847   1.992   1.821   1.571
 3064SOL    HW1 9848   1.982   1.806   1.670
 3064SOL    HW2 9849   1.906   1.857   1.535
 3065SOL     OW 9850   2.727   0.348   0.195
 3065SOL    HW1 9851   2.786   0.411   0.146
 3065SOL    HW2 9852   2.746   0.254   0.166
 3066SOL     OW 9853   3.581   0.585   1.831
 3066SOL    HW1 9854   3.555   0.674   1.795
 3066SOL    HW2 9855   3.579   0.517   1.758
 3067SOL     OW 9856   3.224   1.144   0.545
 3067SOL    HW1 9857   3.307   1.115   0.497
 3067SOL    HW2 9858   3.175   1.211   0.489
 3068SOL     OW 9859   2.412   0.196   0.885
 3068SOL    HW1 9860   2.407   0.191   0.985
 3068SOL    HW2 9861   2.414   0.292   0.856
 3069SOL     OW 9862   2.870   1.456   0.477
 3069SOL    HW1 9863   2.824   1.528   0.425
 3069SOL    HW2 9864   2.866   1.476   0.575
 3070SOL     OW 9865   2.213   1.801   0.853
 3070SOL    HW1 9866   2.263   1.715   0.859
 3070SOL    HW2 9867   2.278   1.878   0.850
 3071SOL     OW 9868   3.657   1.066   0.873
 3071SOL    HW1 9869   3.595   1.051   0.797
 3071SOL    HW2 9870   3.605   1.077   0.958
 3072SOL     OW 9871   3.089   1.550   1.506
 3072SOL    HW1 9872   3.095   1.473   1.570
 3072SOL    HW2 9873   3.037   1.524   1.426
 3073SOL     OW 9874   2.183   0.943   0.242
 3073SOL    HW1 9875   2.265   0.982   0.200
 3073SOL    HW2 9876   2.156   0.861   0.193
 3074SOL     OW 9877   3.320   0.735   0.728
 3074SOL    HW1 9878   3.315   0.670   0.803
 3074SOL    HW2 9879   3.400   0.794   0.741
 3075SOL     OW 9880   2.323   1.266   1.727
 3075SOL    HW1 9881   2.273   1.267   1.641
 3075SOL    HW2 9882   2.260   1.248   1.803
 3076SOL     OW 9883   2.973   1.776   0.237
 3076SOL    HW1 9884   2.913   1.714   0.287
 3076SOL    HW2 9885   3.004   1.732   0.152
 3077SOL     OW 9886   2.064   0.285   1.498
 3077SOL    HW1 9887   1.984   0.345   1.485
 3077SOL    HW2 9888   2.054   0.236   1.584
 3078SOL     OW 9889   3.494   1.377   0.081
 3078SOL    HW1 9890   3.462   1.471   0.071
 3078SOL    HW2 9891   3.418   1.314   0.069
 3079SOL     OW 9892   2.326   1.743   0.323
 3079SOL    HW1 9893   2.359   1.782   0.409
 3079SOL    HW2 9894   2.402   1.736   0.258
 3080SOL     OW 9895   3.262   0.107   0.426
 3080SOL    HW1 9896   3.238   0.070   0.336
 3080SOL    HW2 9897   3.361   0.123   0.430
 3081SOL     OW 9898   2.111   1.785   1.241
 3081SOL    HW1 9899   2.168   1.720   1.291
 3081SOL    HW2 9900   2.095   1.752   1.148
 3082SOL     OW 9901   2.802   1.698   0.904
 3082SOL    HW1 9902   2.882   1.641   0.925
 3082SOL    HW2 9903   2.753   1.658   0.827
 3083SOL     OW 9904   2.244   0.700   0.480
 3083SOL    HW1 9905   2.289   0.610   0.477
 3083SOL    HW2 9906   2.150   0.689   0.513
 3084SOL     OW 9907   3.409   0.222   1.729
 3084SOL    HW1 9908   3.404   0.259   1.821
 3084SOL    HW2 9909   3.337   0.153   1.717
 3085SOL     OW 9910   2.476   0.122   0.117
 3085SOL    HW1 9911   2.574   0.100   0.124
 3085SOL    HW2 9912   2.445   0.105   0.024
 3086SOL     OW 9913   2.643   0.264   1.749
 3086SOL    HW1 9914   2.710   0.203   1.792
 3086SOL    HW2 9915   2.570   0.283   1.814
 3087SOL     OW 9916   2.750   1.514   1.195
 3087SOL    HW1 9917   2.727   1.489   1.101
 3087SOL    HW2 9918   2.811   1.445   1.234
 3088SOL     OW 9919   3.213   0.590   1.433
 3088SOL    HW1 9920   3.241   0.547   1.518
 3088SOL    HW2 9921   3.238   0.686   1.434
 3089SOL     OW 9922   2.665   1.402   0.924
 3089SOL    HW1 9923   2.755   1.416   0.882
 3089SOL    HW2 9924   2.594   1.404   0.853
 3090SOL     OW 9925   2.784   0.503   0.899
 3090SOL    HW1 9926   2.759   0.494   0.803
 3090SOL    HW2 9927   2.832   0.421   0.930
 3091SOL     OW 9928   2.401   0.064   0.512
 3091SOL    HW1 9929   2.320   0.065   0.570
 3091SOL    HW2 9930   2.404   0.147   0.457
 3092SOL     OW 9931   3.296   1.188   0.041
 3092SOL    HW1 9932   3.328   1.112   0.098
 3092SOL    HW2 9933   3.204   1.215   0.071
 3093SOL     OW 9934   2.159   0.035   0.171
 3093SOL    HW1 9935   2.208   0.119   0.150
 3093SOL    HW2 9936   2.221  -0.030   0.216
 3094SOL     OW 9937   2.797   0.236   0.480
 3094SOL    HW1 9938   2.749   0.277   0.402
 3094SOL    HW2 9939   2.896   0.234   0.461
 3095SOL     OW 9940   2.938   0.683   1.464
 3095SOL    HW1 9941   2.858   0.622   1.467
 3095SOL    HW2 9942   3.019   0.630   1.440
 3096SOL     OW 9943   3.089   1.570   0.793
 3096SOL    HW1 9944   3.110   1.644   0.728
 3096SOL    HW2 9945   3.157   1.570   0.866
 3097SOL     OW 9946   2.321   1.152   0.741
 3097SOL    HW1 9947   2.250   1.125   0.806
 3097SOL    HW2 9948   2.295   1.124   0.648
 3098SOL     OW 9949   3.133   1.797   0.591
 3098SOL    HW1 9950   3.177   1.861   0.527
 3098SOL    HW2 9951   3.083   1.849   0.661
 3099SOL     OW 9952   2.894   0.549   0.016
 3099SOL    HW1 9953   2.853   0.631  -0.023
 3099SOL    HW2 9954   2.958   0.575   0.089
 3100SOL     OW 9955   1.940   0.556   1.386
 3100SOL    HW1 9956   2.032   0.555   1.345
 3100SOL    HW2 9957   1.934   0.630   1.453
 3101SOL     OW 9958   2.423   0.222   1.147
 3101SOL    HW1 9959   2.461   0.138   1.184
 3101SOL    HW2 9960   2.335   0.241   1.191
 3102SOL     OW 9961   2.728   0.454   0.642
 3102SOL    HW1 9962   2.696   0.526   0.580
 3102SOL    HW2 9963   2.752   0.373   0.589
 3103SOL     OW 9964   2.879   0.039   0.753
 3103SOL    HW1 9965   2.807   0.044   0.684
 3103SOL    HW2 9966   2.855  -0.030   0.822
 3104SOL     OW 9967   3.291   1.173   0.867
 3104SOL    HW1 9968   3.236   1.089   0.860
 3104SOL    HW2 9969   3.317   1.202   0.775
 3105SOL     OW 9970   3.328   0.590   0.992
 3105SOL    HW1 9971   3.298   0.495   0.999
 3105SOL    HW2 9972   3.401   0.606   1.058
 3106SOL     OW 9973   3.719   0.833   0.377
 3106SOL    HW1 9974   3.761   0.769   0.441
 3106SOL    HW2 9975   3.681   0.782   0.299
 3107SOL     OW 9976   2.350   1.385   0.174
 3107SOL    HW1 9977   2.263   1.370   0.221
 3107SOL    HW2 9978   2.333   1.411   0.079
 3108SOL     OW 9979   3.526   1.280   0.657
 3108SOL    HW1 9980   3.625   1.288   0.671
 3108SOL    HW2 9981   3.481   1.364   0.688
 3109SOL     OW 9982   3.252   0.575   0.078
 3109SOL    HW1 9983   3.198   0.554   0.159
 3109SOL    HW2 9984   3.343   0.534   0.087
 3110SOL     OW 9985   2.389   0.256   0.328
 3110SOL    HW1 9986   2.416   0.197   0.253
 3110SOL    HW2 9987   2.389   0.351   0.297
 3111SOL     OW 9988   3.616   1.223   1.588
 3111SOL    HW1 9989   3.707   1.184   1.575
 3111SOL    HW2 9990   3.624   1.319   1.612
 3112SOL     OW 9991   2.926   1.347   1.340
 3112SOL    HW1 9992   2.846   1.324   1.395
 3112SOL    HW2 9993   3.009   1.321   1.389
 3113SOL     OW 9994   3.454   1.629   1.625
 3113SOL    HW1 9995   3.481   1.663   1.535
 3113SOL    HW2 9996   3.533   1.591   1.671
 3114SOL     OW 9997   2.973   1.195   1.100
 3114SOL    HW1 9998   2.933   1.239   1.181
 3114SOL    HW2 9999   2.932   1.232   1.017
 3115SOL     OW10000   3.500   1.099   1.079
 3115SOL    HW110001   3.505   1.180   1.138
 3115SOL    HW210002   3.414   1.101   1.028
 3116SOL     OW10003   2.777   0.089   1.402
 3116SOL    HW110004   2.802   0.069   1.307
 3116SOL    HW210005   2.849   0.145   1.444
 3117SOL     OW10006   2.842   1.116   1.719
 3117SOL    HW110007   2.743   1.122   1.729
 3117SOL    HW210008   2.865   1.036   1.663
 3118SOL     OW10009   2.567   1.050   0.368
 3118SOL    HW110010   2.553   1.057   0.467
 3118SOL    HW210011   2.651   0.999   0.350
 3119SOL     OW10012   2.272   0.813   1.251
 3119SOL    HW110013   2.358   0.825   1.301
 3119SOL    HW210014   2.230   0.726   1.278
 3120SOL     OW10015   3.136   0.386   1.262
 3120SOL    HW110016   3.157   0.460   1.326
 3120SOL    HW210017   3.047   0.403   1.219
 3121SOL     OW10018   1.926   1.564   1.331
 3121SOL    HW110019   1.880   1.646   1.297
 3121SOL    HW210020   2.024   1.583   1.340
 3122SOL     OW10021   2.229   1.100   0.501
 3122SOL    HW110022   2.222   1.183   0.445
 3122SOL    HW210023   2.233   1.020   0.441
 3123SOL     OW10024   2.428   0.537   0.865
 3123SOL    HW110025   2.440   0.603   0.791
 3123SOL    HW210026   2.474   0.571   0.948
 3124SOL     OW10027   3.114   1.348   0.388
 3124SOL    HW110028   3.164   1.425   0.428
 3124SOL    HW210029   3.019   1.350   0.420
 3125SOL     OW10030   3.134   1.445   1.142
 3125SOL    HW110031   3.181   1.458   1.229
 3125SOL    HW210032   3.068   1.371   1.151
 3126SOL     OW10033   3.444   0.639   0.472
 3126SOL    HW110034   3.413   0.700   0.545
 3126SOL    HW210035   3.494   0.691   0.403
 3127SOL     OW10036   2.216   1.510   1.329
 3127SOL    HW110037   2.195   1.466   1.242
 3127SOL    HW210038   2.313   1.536   1.332
 3128SOL     OW10039   2.264   0.751   1.598
 3128SOL    HW110040   2.332   0.806   1.551
 3128SOL    HW210041   2.304   0.663   1.625
 3129SOL     OW10042   3.449   0.779   1.670
 3129SOL    HW110043   3.357   0.817   1.665
 3129SOL    HW210044   3.509   0.826   1.605
 3130SOL     OW10045   2.875   0.105   1.770
 3130SOL    HW110046   2.881   0.190   1.718
 3130SOL    HW210047   2.907   0.029   1.713
 3131SOL     OW10048   2.366   0.050   1.740
 3131SOL    HW110049   2.324  -0.007   1.670
 3131SOL    HW210050   2.300   0.119   1.772
 3132SOL     OW10051   2.435   0.870   1.029
 3132SOL    HW110052   2.479   0.959   1.020
 3132SOL    HW210053   2.372   0.870   1.106
 3133SOL     OW10054   3.222   0.862   1.045
 3133SOL    HW110055   3.147   0.862   0.979
 3133SOL    HW210056   3.259   0.770   1.054
 3134SOL     OW10057   3.071   0.525   0.275
 3134SOL    HW110058   3.084   0.441   0.329
 3134SOL    HW210059   3.042   0.599   0.335
 3135SOL     OW10060   2.169   0.213   1.231
 3135SOL    HW110061   2.146   0.250   1.321
 3135SOL    HW210062   2.139   0.118   1.225
 3136SOL     OW10063   1.899   1.310   1.282
 3136SOL    HW110064   1.952   1.261   1.350
 3136SOL    HW210065   1.921   1.408   1.287
 3137SOL     OW10066   2.594   0.634   1.064
 3137SOL    HW110067   2.653   0.608   0.988
 3137SOL    HW210068   2.566   0.730   1.053
 3138SOL     OW10069   3.590   0.935   1.854
 3138SOL    HW110070   3.544   0.928   1.765
 3138SOL    HW210071   3.528   0.979   1.920
 3139SOL     OW10072   2.169   0.063   0.618
 3139SOL    HW110073   2.158   0.157   0.651
 3139SOL    HW210074   2.164   0.000   0.695
 3140SOL     OW10075   3.484   0.367   0.374
 3140SOL    HW110076   3.486   0.291   0.438
 3140SOL    HW210077   3.436   0.444   0.414
 3141SOL     OW10078   2.885   0.766   0.966
 3141SOL    HW110079   2.900   0.787   1.062
 3141SOL    HW210080   2.855   0.671   0.957
 3142SOL     OW10081   2.842   1.573   1.700
 3142SOL    HW110082   2.822   1.617   1.612
 3142SOL    HW210083   2.881   1.482   1.684
 3143SOL     OW10084   3.721   1.518   1.605
 3143SOL    HW110085   3.735   1.545   1.510
 3143SOL    HW210086   3.804   1.540   1.658
 3144SOL     OW10087   2.212   0.898   1.804
 3144SOL    HW110088   2.288   0.942   1.852
 3144SOL    HW210089   2.247   0.851   1.722
 3145SOL     OW10090   3.402   0.274   0.125
 3145SOL    HW110091   3.341   0.199   0.148
 3145SOL    HW210092   3.424   0.326   0.208
 3146SOL     OW10093   3.165   0.838   0.042
 3146SOL    HW110094   3.199   0.745   0.057
 3146SOL    HW210095   3.183   0.865  -0.053
 3147SOL     OW10096   2.930   1.333   0.849
 3147SOL    HW110097   2.937   1.249   0.794
 3147SOL    HW210098   2.992   1.402   0.813
 3148SOL     OW10099   2.181   0.810   0.949
 3148SOL    HW110100   2.274   0.846   0.954
 3148SOL    HW210101   2.175   0.725   1.001
 3149SOL     OW10102   2.201   0.509   1.006
 3149SOL    HW110103   2.149   0.426   0.989
 3149SOL    HW210104   2.278   0.514   0.942
 3150SOL     OW10105   3.000   0.380   1.678
 3150SOL    HW110106   2.955   0.443   1.742
 3150SOL    HW210107   3.093   0.411   1.661
 3151SOL     OW10108   3.022   0.207   1.477
 3151SOL    HW110109   3.022   0.271   1.554
 3151SOL    HW210110   3.050   0.255   1.394
 3152SOL     OW10111   1.870   1.326   0.200
 3152SOL    HW110112   1.777   1.347   0.169
 3152SOL    HW210113   1.880   1.227   0.213
 3153SOL     OW10114   1.950   1.801   0.927
 3153SOL    HW110115   1.908   1.715   0.900
 3153SOL    HW210116   2.044   1.804   0.893
 3154SOL     OW10117   2.366   1.568   0.910
 3154SOL    HW110118   2.432   1.642   0.919
 3154SOL    HW210119   2.410   1.489   0.868
 3155SOL     OW10120   2.864   0.796   1.238
 3155SOL    HW110121   2.905   0.764   1.324
 3155SOL    HW210122   2.768   0.769   1.235
 3156SOL     OW10123   1.902   0.544   1.114
 3156SOL    HW110124   1.987   0.511   1.073
 3156SOL    HW210125   1.915   0.559   1.212
 3157SOL     OW10126   2.051   0.520   1.722
 3157SOL    HW110127   2.110   0.480   1.652
 3157SOL    HW210128   1.993   0.591   1.681
 3158SOL     OW10129   3.231   0.950   1.660
 3158SOL    HW110130   3.270   1.039   1.680
 3158SOL    HW210131   3.241   0.930   1.563
 3159SOL     OW10132   2.677   0.572   0.325
 3159SOL    HW110133   2.684   0.483   0.279
 3159SOL    HW210134   2.583   0.606   0.317
 3160SOL     OW10135   3.519   0.604   1.206
 3160SOL    HW110136   3.481   0.535   1.268
 3160SOL    HW210137   3.601   0.568   1.162
 3161SOL     OW10138   2.114   1.564   1.744
 3161SOL    HW110139   2.084   1.621   1.820
 3161SOL    HW210140   2.107   1.467   1.770
 3162SOL     OW10141   2.533   0.464   1.269
 3162SOL    HW110142   2.499   0.375   1.239
 3162SOL    HW210143   2.559   0.518   1.189
 3163SOL     OW10144   2.792   1.678   1.465
 3163SOL    HW110145   2.768   1.660   1.370
 3163SOL    HW210146   2.822   1.772   1.475
 3164SOL     OW10147   2.335   0.500   0.191
 3164SOL    HW110148   2.396   0.580   0.195
 3164SOL    HW210149   2.240   0.531   0.198
 3165SOL     OW10150   2.021   1.137   1.466
 3165SOL    HW110151   2.043   1.076   1.542
 3165SOL    HW210152   2.031   1.088   1.380
 3166SOL     OW10153   3.209   1.059   1.234
 3166SOL    HW110154   3.233   0.996   1.160
 3166SOL    HW210155   3.119   1.099   1.216
 3167SOL     OW10156   3.164   0.855   0.309
 3167SOL    HW110157   3.078   0.824   0.351
 3167SOL    HW210158   3.160   0.841   0.210
 3168SOL     OW10159   3.621   1.747   1.154
 3168SOL    HW110160   3.682   1.777   1.081
 3168SOL    HW210161   3.583   1.658   1.132
 3169SOL     OW10162   3.114   1.731   1.128
 3169SOL    HW110163   3.198   1.736   1.074
 3169SOL    HW210164   3.091   1.635   1.146
 3170SOL     OW10165   1.945   1.258   1.022
 3170SOL    HW110166   1.940   1.257   1.122
 3170SOL    HW210167   1.862   1.217   0.984
 3171SOL     OW10168   2.550   1.662   1.716
 3171SOL    HW110169   2.494   1.743   1.725
 3171SOL    HW210170   2.602   1.666   1.630
 3172SOL     OW10171   2.765   0.086   0.133
 3172SOL    HW110172   2.816   0.087   0.047
 3172SOL    HW210173   2.821   0.044   0.204
 3173SOL     OW10174   3.588   0.135   0.523
 3173SOL    HW110175   3.661   0.118   0.456
 3173SOL    HW210176   3.557   0.048   0.561
 3174SOL     OW10177   3.250   1.573   0.477
 3174SOL    HW110178   3.317   1.585   0.403
 3174SOL    HW210179   3.210   1.662   0.500
 3175SOL     OW10180   1.992   1.794   1.851
 3175SOL    HW110181   1.951   1.720   1.904
 3175SOL    HW210182   2.056   1.845   1.909
 3176SOL     OW10183   3.142   0.927   0.672
 3176SOL    HW110184   3.202   0.846   0.674
 3176SOL    HW210185   3.182   0.996   0.612
 3177SOL     OW10186   2.692   1.273   1.422
 3177SOL    HW110187   2.687   1.306   1.517
 3177SOL    HW210188   2.606   1.292   1.376
 3178SOL     OW10189   2.534   1.616   0.154
 3178SOL    HW110190   2.543   1.626   0.055
 3178SOL    HW210191   2.494   1.527   0.175
 3179SOL     OW10192   3.512   1.720   1.394
 3179SOL    HW110193   3.565   1.730   1.310
 3179SOL    HW210194   3.485   1.810   1.428
 3180SOL     OW10195   3.703   0.175   0.963
 3180SOL    HW110196   3.742   0.090   0.927
 3180SOL    HW210197   3.605   0.177   0.944
 3181SOL     OW10198   2.125   0.326   0.720
 3181SOL    HW110199   2.046   0.377   0.686
 3181SOL    HW210200   2.116   0.311   0.818
 3182SOL     OW10201   3.056   1.612   0.031
 3182SOL    HW110202   3.062   1.519   0.068
 3182SOL    HW210203   2.997   1.612  -0.049
 3183SOL     OW10204   2.684   1.002   1.372
 3183SOL    HW110205   2.724   1.001   1.280
 3183SOL    HW210206   2.694   1.094   1.412
 3184SOL     OW10207   2.778   0.910   0.291
 3184SOL    HW110208   2.841   0.948   0.223
 3184SOL    HW210209   2.818   0.827   0.330
 3185SOL     OW10210   3.366   1.607   0.044
 3185SOL    HW110211   3.274   1.644   0.051
 3185SOL    HW210212   3.404   1.627  -0.046
 3186SOL     OW10213   2.234   1.288   1.490
 3186SOL    HW110214   2.221   1.381   1.456
 3186SOL    HW210215   2.150   1.236   1.477
 3187SOL     OW10216   3.476   1.292   1.289
 3187SOL    HW110217   3.536   1.295   1.369
 3187SOL    HW210218   3.401   1.356   1.302
 3188SOL     OW10219   2.901   1.098   0.696
 3188SOL    HW110220   2.831   1.051   0.750
 3188SOL    HW210221   2.960   1.030   0.653
 3189SOL     OW10222   2.876   0.236   0.971
 3189SOL    HW110223   2.868   0.200   0.878
 3189SOL    HW210224   2.874   0.160   1.036
 3190SOL     OW10225   2.452   1.487   0.491
 3190SOL    HW110226   2.494   1.429   0.421
 3190SOL    HW210227   2.408   1.566   0.447
 3191SOL     OW10228   3.571   0.385   1.381
 3191SOL    HW110229   3.644   0.454   1.385
 3191SOL    HW210230   3.599   0.310   1.322
 3192SOL     OW10231   2.117   1.348   0.290
 3192SOL    HW110232   2.021   1.349   0.263
 3192SOL    HW210233   2.129   1.401   0.374
 3193SOL     OW10234   1.967   1.013   1.726
 3193SOL    HW110235   1.890   0.980   1.780
 3193SOL    HW210236   2.052   0.983   1.768
 3194SOL     OW10237   2.534   0.203   1.489
 3194SOL    HW110238   2.624   0.187   1.449
 3194SOL    HW210239   2.542   0.208   1.588
 3195SOL     OW10240   1.937   0.345   0.033
 3195SOL    HW110241   1.845   0.317   0.004
 3195SOL    HW210242   1.968   0.422  -0.023
 3196SOL     OW10243   3.302   0.856   1.398
 3196SOL    HW110244   3.245   0.908   1.335
 3196SOL    HW210245   3.398   0.868   1.374
 3197SOL     OW10246   1.934   0.166   0.318
 3197SOL    HW110247   1.917   0.249   0.264
 3197SOL    HW210248   2.024   0.129   0.296
 3198SOL     OW10249   3.045   1.335   0.119
 3198SOL    HW110250   2.946   1.324   0.121
 3198SOL    HW210251   3.079   1.350   0.212
 3199SOL     OW10252   2.475   0.842   1.431
 3199SOL    HW110253   2.531   0.923   1.414
 3199SOL    HW210254   2.534   0.762   1.434
 3200SOL     OW10255   3.355   1.767   0.959
 3200SOL    HW110256   3.388   1.831   0.890
 3200SOL    HW210257   3.421   1.761   1.034
 3201SOL     OW10258   2.578   0.565   1.708
 3201SOL    HW110259   2.597   0.630   1.782
 3201SOL    HW210260   2.638   0.485   1.717
 3202SOL     OW10261   3.312   1.220   1.633
 3202SOL    HW110262   3.303   1.210   1.732
 3202SOL    HW210263   3.408   1.213   1.607
 3203SOL     OW10264   2.252   1.741   1.560
 3203SOL    HW110265   2.161   1.782   1.558
 3203SOL    HW210266   2.245   1.647   1.592
 3204SOL     OW10267   3.536   0.883   1.254
 3204SOL    HW110268   3.509   0.794   1.217
 3204SOL    HW210269   3.537   0.951   1.181
 3205SOL     OW10270   3.087   0.325   0.449
 3205SOL    HW110271   3.152   0.251   0.438
 3205SOL    HW210272   3.107   0.375   0.533
 3206SOL     OW10273   2.456   0.745   0.652
 3206SOL    HW110274   2.506   0.830   0.633
 3206SOL    HW210275   2.368   0.747   0.604
 3207SOL     OW10276   3.639   0.342   1.642
 3207SOL    HW110277   3.622   0.373   1.548
 3207SOL    HW210278   3.555   0.305   1.680
 3208SOL     OW10279   3.592   0.934   1.517
 3208SOL    HW110280   3.630   1.025   1.532
 3208SOL    HW210281   3.584   0.917   1.418
 3209SOL     OW10282   2.721   1.374   0.016
 3209SOL    HW110283   2.675   1.389   0.104
 3209SOL    HW210284   2.765   1.459  -0.014
 3210SOL     OW10285   2.523   1.790   0.953
 3210SOL    HW110286   2.477   1.878   0.940
 3210SOL    HW210287   2.622   1.802   0.946
 3211SOL     OW10288   2.721   0.956   0.861
 3211SOL    HW110289   2.775   0.887   0.909
 3211SOL    HW210290   2.689   1.025   0.927
 3212SOL     OW10291   2.945   0.984   0.087
 3212SOL    HW110292   2.922   1.037   0.005
 3212SOL    HW210293   3.026   0.928   0.068
 3213SOL     OW10294   3.723   1.569   0.851
 3213SOL    HW110295   3.652   1.557   0.781
 3213SOL    HW210296   3.724   1.490   0.911
 3214SOL     OW10297   2.083   1.314   1.844
 3214SOL    HW110298   2.018   1.241   1.823
 3214SOL    HW210299   2.087   1.328   1.942
 3215SOL     OW10300   1.941   1.240   0.653
 3215SOL    HW110301   1.940   1.193   0.741
 3215SOL    HW210302   2.023   1.212   0.602
 3216SOL     OW10303   2.534   1.391   1.624
 3216SOL    HW110304   2.456   1.341   1.662
 3216SOL    HW210305   2.531   1.486   1.655
 3217SOL     OW10306   3.686   0.192   1.227
 3217SOL    HW110307   3.682   0.102   1.271
 3217SOL    HW210308   3.689   0.181   1.128
 3218SOL     OW10309   2.290   0.424   0.520
 3218SOL    HW110310   2.320   0.352   0.458
 3218SOL    HW210311   2.251   0.384   0.603
 3219SOL     OW10312   3.567   1.487   1.104
 3219SOL    HW110313   3.474   1.462   1.077
 3219SOL    HW210314   3.593   1.437   1.186
 3220SOL     OW10315   2.179   0.547   1.280
 3220SOL    HW110316   2.217   0.488   1.352
 3220SOL    HW210317   2.219   0.521   1.192
 3221SOL     OW10318   2.674   1.586   0.687
 3221SOL    HW110319   2.706   1.596   0.593
 3221SOL    HW210320   2.595   1.524   0.689
 3222SOL     OW10321   3.286   0.214   1.112
 3222SOL    HW110322   3.338   0.149   1.167
 3222SOL    HW210323   3.237   0.277   1.173
 3223SOL     OW10324   2.863   0.034   1.154
 3223SOL    HW110325   2.800  -0.038   1.123
 3223SOL    HW210326   2.956  -0.002   1.154
 3224SOL     OW10327   2.632   1.330   0.301
 3224SOL    HW110328   2.586   1.243   0.318
 3224SOL    HW210329   2.723   1.327   0.342
 3225SOL     OW10330   2.480   1.567   1.284
 3225SOL    HW110331   2.475   1.649   1.341
 3225SOL    HW210332   2.569   1.564   1.239
 3226SOL     OW10333   3.214   0.052   0.168
 3226SOL    HW110334   3.249   0.011   0.084
 3226SOL    HW210335   3.124   0.014   0.188
 3227SOL     OW10336   3.162   0.453   0.691
 3227SOL    HW110337   3.103   0.533   0.695
 3227SOL    HW210338   3.177   0.418   0.784
 3228SOL     OW10339   3.455   0.221   0.882
 3228SOL    HW110340   3.371   0.220   0.936
 3228SOL    HW210341   3.457   0.304   0.826
 3229SOL     OW10342   1.901   1.077   0.300
 3229SOL    HW110343   2.000   1.066   0.291
 3229SOL    HW210344   1.861   0.991   0.332
 3230SOL     OW10345   2.737   1.646   0.337
 3230SOL    HW110346   2.660   1.611   0.283
 3230SOL    HW210347   2.705   1.717   0.399
 3231SOL     OW10348   2.092   0.628   1.975
 3231SOL    HW110349   1.999   0.626   2.012
 3231SOL    HW210350   2.093   0.589   1.883
 3232SOL     OW10351   2.087   0.275   2.858
 3232SOL    HW110352   2.122   0.258   2.950
 3232SOL    HW210353   1.999   0.230   2.846
 3233SOL     OW10354   1.881   0.368   2.509
 3233SOL    HW110355   1.799   0.411   2.548
 3233SOL    HW210356   1.853   0.295   2.446
 3234SOL     OW10357   2.431   1.275   3.027
 3234SOL    HW110358   2.338   1.268   2.990
 3234SOL    HW210359   2.442   1.364   3.071
 3235SOL     OW10360   3.417   1.511   2.565
 3235SOL    HW110361   3.360   1.495   2.646
 3235SOL    HW210362   3.358   1.521   2.485
 3236SOL     OW10363   2.997   0.703   2.579
 3236SOL    HW110364   3.054   0.781   2.554
 3236SOL    HW210365   2.937   0.729   2.655
 3237SOL     OW10366   3.617   0.607   2.093
 3237SOL    HW110367   3.605   0.594   1.994
 3237SOL    HW210368   3.587   0.526   2.142
 3238SOL     OW10369   2.630   1.144   2.885
 3238SOL    HW110370   2.552   1.161   2.945
 3238SOL    HW210371   2.664   1.231   2.849
 3239SOL     OW10372   2.712   0.798   3.685
 3239SOL    HW110373   2.708   0.874   3.750
 3239SOL    HW210374   2.734   0.834   3.594
 3240SOL     OW10375   2.547   1.012   2.527
 3240SOL    HW110376   2.616   0.996   2.597
 3240SOL    HW210377   2.474   1.069   2.565
 3241SOL     OW10378   2.548   1.161   3.665
 3241SOL    HW110379   2.608   1.240   3.679
 3241SOL    HW210380   2.462   1.192   3.624
 3242SOL     OW10381   2.197   1.435   2.923
 3242SOL    HW110382   2.119   1.404   2.870
 3242SOL    HW210383   2.255   1.493   2.866
 3243SOL     OW10384   3.322   1.505   3.201
 3243SOL    HW110385   3.346   1.599   3.227
 3243SOL    HW210386   3.306   1.451   3.283
 3244SOL     OW10387   2.300   0.392   3.361
 3244SOL    HW110388   2.382   0.336   3.370
 3244SOL    HW210389   2.219   0.334   3.365
 3245SOL     OW10390   3.465   0.447   2.599
 3245SOL    HW110391   3.391   0.493   2.549
 3245SOL    HW210392   3.516   0.515   2.652
 3246SOL     OW10393   2.093   1.713   2.345
 3246SOL    HW110394   2.127   1.790   2.399
 3246SOL    HW210395   2.137   1.713   2.255
 3247SOL     OW10396   2.989   1.341   3.552
 3247SOL    HW110397   3.036   1.341   3.640
 3247SOL    HW210398   2.941   1.254   3.541
 3248SOL     OW10399   2.092   1.434   2.400
 3248SOL    HW110400   2.066   1.530   2.400
 3248SOL    HW210401   2.021   1.380   2.445
 3249SOL     OW10402   2.102   1.091   2.748
 3249SOL    HW110403   2.116   1.007   2.800
 3249SOL    HW210404   2.047   1.155   2.803
 3250SOL     OW10405   2.482   1.786   3.301
 3250SOL    HW110406   2.390   1.769   3.336
 3250SOL    HW210407   2.510   1.878   3.327
 3251SOL     OW10408   2.468   0.964   1.985
 3251SOL    HW110409   2.475   1.048   1.931
 3251SOL    HW210410   2.514   0.977   2.073
 3252SOL     OW10411   3.456   0.114   3.342
 3252SOL    HW110412   3.438   0.181   3.270
 3252SOL    HW210413   3.453   0.160   3.431
 3253SOL     OW10414   1.984   0.643   2.425
 3253SOL    HW110415   1.939   0.555   2.442
 3253SOL    HW210416   1.983   0.697   2.509
 3254SOL     OW10417   3.704   1.767   2.221
 3254SOL    HW110418   3.758   1.738   2.301
 3254SOL    HW210419   3.734   1.857   2.192
 3255SOL     OW10420   1.889   1.596   1.979
 3255SOL    HW110421   1.870   1.500   2.000
 3255SOL    HW210422   1.856   1.654   2.054
 3256SOL     OW10423   3.551   0.922   2.474
 3256SOL    HW110424   3.646   0.893   2.482
 3256SOL    HW210425   3.543   0.987   2.399
 3257SOL     OW10426   3.503   1.108   2.294
 3257SOL    HW110427   3.589   1.110   2.242
 3257SOL    HW210428   3.517   1.155   2.382
 3258SOL     OW10429   1.975   0.737   3.459
 3258SOL    HW110430   2.063   0.724   3.504
 3258SOL    HW210431   1.962   0.834   3.437
 3259SOL     OW10432   2.475   1.365   2.588
 3259SOL    HW110433   2.426   1.278   2.597
 3259SOL    HW210434   2.452   1.408   2.501
 3260SOL     OW10435   3.155   1.228   3.285
 3260SOL    HW110436   3.192   1.155   3.227
 3260SOL    HW210437   3.207   1.233   3.370
 3261SOL     OW10438   2.671   0.004   2.364
 3261SOL    HW110439   2.711   0.095   2.355
 3261SOL    HW210440   2.571   0.012   2.370
 3262SOL     OW10441   2.059   0.976   3.126
 3262SOL    HW110442   2.148   0.931   3.112
 3262SOL    HW210443   1.986   0.911   3.107
 3263SOL     OW10444   3.387   0.999   2.052
 3263SOL    HW110445   3.324   0.923   2.065
 3263SOL    HW210446   3.435   1.017   2.138
 3264SOL     OW10447   3.049   1.792   3.478
 3264SOL    HW110448   3.073   1.852   3.402
 3264SOL    HW210449   3.056   1.697   3.448
 3265SOL     OW10450   2.179   0.251   3.663
 3265SOL    HW110451   2.250   0.322   3.669
 3265SOL    HW210452   2.091   0.290   3.691
 3266SOL     OW10453   3.328   1.417   2.815
 3266SOL    HW110454   3.269   1.423   2.895
 3266SOL    HW210455   3.313   1.329   2.769
 3267SOL     OW10456   3.529   1.714   2.434
 3267SOL    HW110457   3.488   1.691   2.346
 3267SOL    HW210458   3.511   1.640   2.499
 3268SOL     OW10459   2.460   0.729   2.132
 3268SOL    HW110460   2.484   0.798   2.064
 3268SOL    HW210461   2.382   0.762   2.186
 3269SOL     OW10462   3.143   0.345   2.806
 3269SOL    HW110463   3.057   0.295   2.793
 3269SOL    HW210464   3.205   0.291   2.862
 3270SOL     OW10465   3.438   1.662   2.169
 3270SOL    HW110466   3.527   1.708   2.172
 3270SOL    HW210467   3.417   1.638   2.074
 3271SOL     OW10468   2.669   0.605   3.327
 3271SOL    HW110469   2.622   0.602   3.416
 3271SOL    HW210470   2.618   0.550   3.261
 3272SOL     OW10471   3.256   0.469   3.536
 3272SOL    HW110472   3.236   0.512   3.624
 3272SOL    HW210473   3.334   0.407   3.545
 3273SOL     OW10474   2.835   0.890   3.434
 3273SOL    HW110475   2.881   0.806   3.405
 3273SOL    HW210476   2.779   0.924   3.359
 3274SOL     OW10477   2.853   0.410   3.104
 3274SOL    HW110478   2.776   0.444   3.158
 3274SOL    HW210479   2.819   0.359   3.025
 3275SOL     OW10480   2.903   0.701   2.291
 3275SOL    HW110481   2.929   0.697   2.387
 3275SOL    HW210482   2.818   0.650   2.277
 3276SOL     OW10483   1.938   0.811   2.651
 3276SOL    HW110484   2.037   0.799   2.660
 3276SOL    HW210485   1.914   0.906   2.672
 3277SOL     OW10486   1.992   1.821   3.433
 3277SOL    HW110487   1.982   1.806   3.532
 3277SOL    HW210488   1.906   1.857   3.397
 3278SOL     OW10489   2.727   0.348   2.057
 3278SOL    HW110490   2.786   0.411   2.008
 3278SOL    HW210491   2.746   0.254   2.028
 3279SOL     OW10492   3.581   0.585   3.693
 3279SOL    HW110493   3.555   0.674   3.657
 3279SOL    HW210494   3.579   0.517   3.620
 3280SOL     OW10495   3.224   1.144   2.407
 3280SOL    HW110496   3.307   1.115   2.359
 3280SOL    HW210497   3.175   1.211   2.351
 3281SOL     OW10498   2.412   0.196   2.747
 3281SOL    HW110499   2.407   0.191   2.847
 3281SOL    HW210500   2.414   0.292   2.718
 3282SOL     OW10501   2.870   1.456   2.339
 3282SOL    HW110502   2.824   1.528   2.287
 3282SOL    HW210503   2.866   1.476   2.437
 3283SOL     OW10504   3.657   1.066   2.735
 3283SOL    HW110505   3.595   1.051   2.659
 3283SOL    HW210506   3.605   1.077   2.820
 3284SOL     OW10507   3.089   1.550   3.368
 3284SOL    HW110508   3.095   1.473   3.432
 3284SOL    HW210509   3.037   1.524   3.288
 3285SOL     OW10510   2.183   0.943   2.104
 3285SOL    HW110511   2.265   0.982   2.062
 3285SOL    HW210512   2.156   0.861   2.055
 3286SOL     OW10513   3.320   0.735   2.590
 3286SOL    HW110514   3.315   0.670   2.665
 3286SOL    HW210515   3.400   0.794   2.603
 3287SOL     OW10516   2.323   1.266   3.589
 3287SOL    HW110517   2.273   1.267   3.503
 3287SOL    HW210518   2.260   1.248   3.665
 3288SOL     OW10519   2.973   1.776   2.099
 3288SOL    HW110520   2.913   1.714   2.149
 3288SOL    HW210521   3.004   1.732   2.014
 3289SOL     OW10522   2.064   0.285   3.360
 3289SOL    HW110523   1.984   0.345   3.347
 3289SOL    HW210524   2.054   0.236   3.446
 3290SOL     OW10525   3.494   1.377   1.943
 3290SOL    HW110526   3.462   1.471   1.933
 3290SOL    HW210527   3.418   1.314   1.931
 3291SOL     OW10528   2.326   1.743   2.185
 3291SOL    HW110529   2.359   1.782   2.271
 3291SOL    HW210530   2.402   1.736   2.120
 3292SOL     OW10531   3.262   0.107   2.288
 3292SOL    HW110532   3.238   0.070   2.198
 3292SOL    HW210533   3.361   0.123   2.292
 3293SOL     OW10534   2.111   1.785   3.103
 3293SOL    HW110535   2.168   1.720   3.153
 3293SOL    HW210536   2.095   1.752   3.010
 3294SOL     OW10537   2.802   1.698   2.766
 3294SOL    HW110538   2.882   1.641   2.787
 3294SOL    HW210539   2.753   1.658   2.689
 3295SOL     OW10540   2.244   0.700   2.342
 3295SOL    HW110541   2.289   0.610   2.339
 3295SOL    HW210542   2.150   0.689   2.375
 3296SOL     OW10543   3.409   0.222   3.591
 3296SOL    HW110544   3.404   0.259   3.683
 3296SOL    HW210545   3.337   0.153   3.579
 3297SOL     OW10546   2.476   0.122   1.979
 3297SOL    HW110547   2.574   0.100   1.986
 3297SOL    HW210548   2.445   0.105   1.886
 3298SOL     OW10549   2.643   0.264   3.611
 3298SOL    HW110550   2.710   0.203   3.654
 3298SOL    HW210551   2.570   0.283   3.676
 3299SOL     OW10552   2.750   1.514   3.057
 3299SOL    HW110553   2.727   1.489   2.963
 3299SOL    HW210554   2.811   1.445   3.096
 3300SOL     OW10555   3.213   0.590   3.295
 3300SOL    HW110556   3.241   0.547   3.380
 3300SOL    HW210557   3.238   0.686   3.296
 3301SOL     OW10558   2.665   1.402   2.786
 3301SOL    HW110559   2.755   1.416   2.744
 3301SOL    HW210560   2.594   1.404   2.715
 3302SOL     OW10561   2.784   0.503   2.761
 3302SOL    HW110562   2.759   0.494   2.665
 3302SOL    HW210563   2.832   0.421   2.792
 3303SOL     OW10564   2.401   0.064   2.374
 3303SOL    HW110565   2.320   0.065   2.432
 3303SOL    HW210566   2.404   0.147   2.319
 3304SOL     OW10567   3.296   1.188   1.903
 3304SOL    HW110568   3.328   1.112   1.960
 3304SOL    HW210569   3.204   1.215   1.933
 3305SOL     OW10570   2.159   0.035   2.033
 3305SOL    HW110571   2.208   0.119   2.012
 3305SOL    HW210572   2.221  -0.030   2.078
 3306SOL     OW10573   2.797   0.236   2.342
 3306SOL    HW110574   2.749   0.277   2.264
 3306SOL    HW210575   2.896   0.234   2.323
 3307SOL     OW10576   2.938   0.683   3.326
 3307SOL    HW110577   2.858   0.622   3.329
 3307SOL    HW210578   3.019   0.630   3.302
 3308SOL     OW10579   3.089   1.570   2.655
 3308SOL    HW110580   3.110   1.644   2.590
 3308SOL    HW210581   3.157   1.570   2.728
 3309SOL     OW10582   2.321   1.152   2.603
 3309SOL    HW110583   2.250   1.125   2.668
 3309SOL    HW210584   2.295   1.124   2.510
 3310SOL     OW10585   3.133   1.797   2.453
 3310SOL    HW110586   3.177   1.861   2.389
 3310SOL    HW210587   3.083   1.849   2.523
 3311SOL     OW10588   2.894   0.549   1.878
 3311SOL    HW110589   2.853   0.631   1.839
 3311SOL    HW210590   2.958   0.575   1.951
 3312SOL     OW10591   1.940   0.556   3.248
 3312SOL    HW110592   2.032   0.555   3.207
 3312SOL    HW210593   1.934   0.630   3.315
 3313SOL     OW10594   2.423   0.222   3.009
 3313SOL    HW110595   2.461   0.138   3.046
 3313SOL    HW210596   2.335   0.241   3.053
 3314SOL     OW10597   2.728   0.454   2.504
 3314SOL    HW110598   2.696   0.526   2.442
 3314SOL    HW210599   2.752   0.373   2.451
 3315SOL     OW10600   2.879   0.039   2.615
 3315SOL    HW110601   2.807   0.044   2.546
 3315SOL    HW210602   2.855  -0.030   2.684
 3316SOL     OW10603   3.291   1.173   2.729
 3316SOL    HW110604   3.236   1.089   2.722
 3316SOL    HW210605   3.317   1.202   2.637
 3317SOL     OW10606   3.328   0.590   2.854
 3317SOL    HW110607   3.298   0.495   2.861
 3317SOL    HW210608   3.401   0.606   2.920
 3318SOL     OW10609   3.719   0.833   2.239
 3318SOL    HW110610   3.761   0.769   2.303
 3318SOL    HW210611   3.681   0.782   2.161
 3319SOL     OW10612   2.350   1.385   2.036
 3319SOL    HW110613   2.263   1.370   2.083
 3319SOL    HW210614   2.333   1.411   1.941
 3320SOL     OW10615   3.526   1.280   2.519
 3320SOL    HW110616   3.625   1.288   2.533
 3320SOL    HW210617   3.481   1.364   2.550
 3321SOL     OW10618   3.252   0.575   1.940
 3321SOL    HW110619   3.198   0.554   2.021
 3321SOL    HW210620   3.343   0.534   1.949
 3322SOL     OW10621   2.389   0.256   2.190
 3322SOL    HW110622   2.416   0.197   2.115
 3322SOL    HW210623   2.389   0.351   2.159
 3323SOL     OW10624   3.616   1.223   3.450
 3323SOL    HW110625   3.707   1.184   3.437
 3323SOL    HW210626   3.624   1.319   3.474
 3324SOL     OW10627   2.926   1.347   3.202
 3324SOL    HW110628   2.846   1.324   3.257
 3324SOL    HW210629   3.009   1.321   3.251
 3325SOL     OW10630   3.454   1.629   3.487
 3325SOL    HW110631   3.481   1.663   3.397
 3325SOL    HW210632   3.533   1.591   3.533
 3326SOL     OW10633   2.973   1.195   2.962
 3326SOL    HW110634   2.933   1.239   3.043
 3326SOL    HW210635   2.932   1.232   2.879
 3327SOL     OW10636   3.500   1.099   2.941
 3327SOL    HW110637   3.505   1.180   3.000
 3327SOL    HW210638   3.414   1.101   2.890
 3328SOL     OW10639   2.777   0.089   3.264
 3328SOL    HW110640   2.802   0.069   3.169
 3328SOL    HW210641   2.849   0.145   3.306
 3329SOL     OW10642   2.842   1.116   3.581
 3329SOL    HW110643   2.743   1.122   3.591
 3329SOL    HW210644   2.865   1.036   3.525
 3330SOL     OW10645   2.567   1.050   2.230
 3330SOL    HW110646   2.553   1.057   2.329
 3330SOL    HW210647   2.651   0.999   2.212
 3331SOL     OW10648   2.272   0.813   3.113
 3331SOL    HW110649   2.358   0.825   3.163
 3331SOL    HW210650   2.230   0.726   3.140
 3332SOL     OW10651   3.136   0.386   3.124
 3332SOL    HW110652   3.157   0.460   3.188
 3332SOL    HW210653   3.047   0.403   3.081
 3333SOL     OW10654   1.926   1.564   3.193
 3333SOL    HW110655   1.880   1.646   3.159
 3333SOL    HW210656   2.024   1.583   3.202
 3334SOL     OW10657   2.229   1.100   2.363
 3334SOL    HW110658   2.222   1.183   2.307
 3334SOL    HW210659   2.233   1.020   2.303
 3335SOL     OW10660   2.428   0.537   2.727
 3335SOL    HW110661   2.440   0.603   2.653
 3335SOL    HW210662   2.474   0.571   2.810
 3336SOL     OW10663   3.114   1.348   2.250
 3336SOL    HW110664   3.164   1.425   2.290
 3336SOL    HW210665   3.019   1.350   2.282
 3337SOL     OW10666   3.134   1.445   3.004
 3337SOL    HW110667   3.181   1.458   3.091
 3337SOL    HW210668   3.068   1.371   3.013
 3338SOL     OW10669   3.444   0.639   2.334
 3338SOL    HW110670   3.413   0.700   2.407
 3338SOL    HW210671   3.494   0.691   2.265
 3339SOL     OW10672   2.216   1.510   3.191
 3339SOL    HW110673   2.195   1.466   3.104
 3339SOL    HW210674   2.313   1.536   3.194
 3340SOL     OW10675   2.264   0.751   3.460
 3340SOL    HW110676   2.332   0.806   3.413
 3340SOL    HW210677   2.304   0.663   3.487
 3341SOL     OW10678   3.449   0.779   3.532
 3341SOL    HW110679   3.357   0.817   3.527
 3341SOL    HW210680   3.509   0.826   3.467
 3342SOL     OW10681   2.875   0.105   3.632
 3342SOL    HW110682   2.881   0.190   3.580
 3342SOL    HW210683   2.907   0.029   3.575
 3343SOL     OW10684   2.366   0.050   3.602
 3343SOL    HW110685   2.324  -0.007   3.532
 3343SOL    HW210686   2.300   0.119   3.634
 3344SOL     OW10687   2.435   0.870   2.891
 3344SOL    HW110688   2.479   0.959   2.882
 3344SOL    HW210689   2.372   0.870   2.968
 3345SOL     OW10690   3.222   0.862   2.907
 3345SOL    HW110691   3.147   0.862   2.841
 3345SOL    HW210692   3.259   0.770   2.916
 3346SOL     OW10693   3.071   0.525   2.137
 3346SOL    HW110694   3.084   0.441   2.191
 3346SOL    HW210695   3.042   0.599   2.197
 3347SOL     OW10696   2.169   0.213   3.093
 3347SOL    HW110697   2.146   0.250   3.183
 3347SOL    HW210698   2.139   0.118   3.087
 3348SOL     OW10699   1.899   1.310   3.144
 3348SOL    HW110700   1.952   1.261   3.212
 3348SOL    HW210701   1.921   1.408   3.149
 3349SOL     OW10702   2.594   0.634   2.926
 3349SOL    HW110703   2.653   0.608   2.850
 3349SOL    HW210704   2.566   0.730   2.915
 3350SOL     OW10705   3.590   0.935   3.716
 3350SOL    HW110706   3.544   0.928   3.627
 3350SOL    HW210707   3.528   0.979   3.782
 3351SOL     OW10708   2.169   0.063   2.480
 3351SOL    HW110709   2.158   0.157   2.513
 3351SOL    HW210710   2.164   0.000   2.557
 3352SOL     OW10711   3.484   0.367   2.236
 3352SOL    HW110712   3.486   0.291   2.300
 3352SOL    HW210713   3.436   0.444   2.276
 3353SOL     OW10714   2.885   0.766   2.828
 3353SOL    HW110715   2.900   0.787   2.924
 3353SOL    HW210716   2.855   0.671   2.819
 3354SOL     OW10717   2.842   1.573   3.562
 3354SOL    HW110718   2.822   1.617   3.474
 3354SOL    HW210719   2.881   1.482   3.546
 3355SOL     OW10720   3.721   1.518   3.467
 3355SOL    HW110721   3.735   1.545   3.372
 3355SOL    HW210722   3.804   1.540   3.520
 3356SOL     OW10723   2.212   0.898   3.666
 3356SOL    HW110724   2.288   0.942   3.714
 3356SOL    HW210725   2.247   0.851   3.584
 3357SOL     OW10726   3.402   0.274   1.987
 3357SOL    HW110727   3.341   0.199   2.010
 3357SOL    HW210728   3.424   0.326   2.070
 3358SOL     OW10729   3.165   0.838   1.904
 3358SOL    HW110730   3.199   0.745   1.919
 3358SOL    HW210731   3.183   0.865   1.809
 3359SOL     OW10732   2.930   1.333   2.711
 3359SOL    HW110733   2.937   1.249   2.656
 3359SOL    HW210734   2.992   1.402   2.675
 3360SOL     OW10735   2.181   0.810   2.811
 3360SOL    HW110736   2.274   0.846   2.816
 3360SOL    HW210737   2.175   0.725   2.863
 3361SOL     OW10738   2.201   0.509   2.868
 3361SOL    HW110739   2.149   0.426   2.851
 3361SOL    HW210740   2.278   0.514   2.804
 3362SOL     OW10741   3.000   0.380   3.540
 3362SOL    HW110742   2.955   0.443   3.604
 3362SOL    HW210743   3.093   0.411   3.523
 3363SOL     OW10744   3.022   0.207   3.339
 3363SOL    HW110745   3.022   0.271   3.416
 3363SOL    HW210746   3.050   0.255   3.256
 3364SOL     OW10747   1.870   1.326   2.062
 3364SOL    HW110748   1.777   1.347   2.031
 3364SOL    HW210749   1.880   1.227   2.075
 3365SOL     OW10750   1.950   1.801   2.789
 3365SOL    HW110751   1.908   1.715   2.762
 3365SOL    HW210752   2.044   1.804   2.755
 3366SOL     OW10753   2.366   1.568   2.772
 3366SOL    HW110754   2.432   1.642   2.781
 3366SOL    HW210755   2.410   1.489   2.730
 3367SOL     OW10756   2.864   0.796   3.100
 3367SOL    HW110757   2.905   0.764   3.186
 3367SOL    HW210758   2.768   0.769   3.097
 3368SOL     OW10759   1.902   0.544   2.976
 3368SOL    HW110760   1.987   0.511   2.935
 3368SOL    HW210761   1.915   0.559   3.074
 3369SOL     OW10762   2.051   0.520   3.584
 3369SOL    HW110763   2.110   0.480   3.514
 3369SOL    HW210764   1.993   0.591   3.543
 3370SOL     OW10765   3.231   0.950   3.522
 3370SOL    HW110766   3.270   1.039   3.542
 3370SOL    HW210767   3.241   0.930   3.425
 3371SOL     OW10768   2.677   0.572   2.187
 3371SOL    HW110769   2.684   0.483   2.141
 3371SOL    HW210770   2.583   0.606   2.179
 3372SOL     OW10771   3.519   0.604   3.068
 3372SOL    HW110772   3.481   0.535   3.130
 3372SOL    HW210773   3.601   0.568   3.024
 3373SOL     OW10774   2.114   1.564   3.606
 3373SOL    HW110775   2.084   1.621   3.682
 3373SOL    HW210776   2.107   1.467   3.632
 3374SOL     OW10777   2.533   0.464   3.131
 3374SOL    HW110778   2.499   0.375   3.101
 3374SOL    HW210779   2.559   0.518   3.051
 3375SOL     OW10780   2.792   1.678   3.327
 3375SOL    HW110781   2.768   1.660   3.232
 3375SOL    HW210782   2.822   1.772   3.337
 3376SOL     OW10783   2.335   0.500   2.053
 3376SOL    HW110784   2.396   0.580   2.057
 3376SOL    HW210785   2.240   0.531   2.060
 3377SOL     OW10786   2.021   1.137   3.328
 3377SOL    HW110787   2.043   1.076   3.404
 3377SOL    HW210788   2.031   1.088   3.242
 3378SOL     OW10789   3.209   1.059   3.096
 3378SOL    HW110790   3.233   0.996   3.022
 3378SOL    HW210791   3.119   1.099   3.078
 3379SOL     OW10792   3.164   0.855   2.171
 3379SOL    HW110793   3.078   0.824   2.213
 3379SOL    HW210794   3.160   0.841   2.072
 3380SOL     OW10795   3.621   1.747   3.016
 3380SOL    HW110796   3.682   1.777   2.943
 3380SOL    HW210797   3.583   1.658   2.994
 3381SOL     OW10798   3.114   1.731   2.990
 3381SOL    HW110799   3.198   1.736   2.936
 3381SOL    HW210800   3.091   1.635   3.008
 3382SOL     OW10801   1.945   1.258   2.884
 3382SOL    HW110802   1.940   1.257   2.984
 3382SOL    HW210803   1.862   1.217   2.846
 3383SOL     OW10804   2.550   1.662   3.578
 3383SOL    HW110805   2.494   1.743   3.587
 3383SOL    HW210806   2.602   1.666   3.492
 3384SOL     OW10807   3.588   0.135   2.385
 3384SOL    HW110808   3.661   0.118   2.318
 3384SOL    HW210809   3.557   0.048   2.423
 3385SOL     OW10810   3.250   1.573   2.339
 3385SOL    HW110811   3.317   1.585   2.265
 3385SOL    HW210812   3.210   1.662   2.362
 3386SOL     OW10813   1.992   1.794   3.713
 3386SOL    HW110814   1.951   1.720   3.766
 3386SOL    HW210815   2.056   1.845   3.771
 3387SOL     OW10816   3.142   0.927   2.534
 3387SOL    HW110817   3.202   0.846   2.536
 3387SOL    HW210818   3.182   0.996   2.474
 3388SOL     OW10819   2.692   1.273   3.284
 3388SOL    HW110820   2.687   1.306   3.379
 3388SOL    HW210821   2.606   1.292   3.238
 3389SOL     OW10822   2.534   1.616   2.016
 3389SOL    HW110823   2.543   1.626   1.917
 3389SOL    HW210824   2.494   1.527   2.037
 3390SOL     OW10825   3.512   1.720   3.256
 3390SOL    HW110826   3.565   1.730   3.172
 3390SOL    HW210827   3.485   1.810   3.290
 3391SOL     OW10828   3.703   0.175   2.825
 3391SOL    HW110829   3.742   0.090   2.789
 3391SOL    HW210830   3.605   0.177   2.806
 3392SOL     OW10831   2.125   0.326   2.582
 3392SOL    HW110832   2.046   0.377   2.548
 3392SOL    HW210833   2.116   0.311   2.680
 3393SOL     OW10834   3.056   1.612   1.893
 3393SOL    HW110835   3.062   1.519   1.930
 3393SOL    HW210836   2.997   1.612   1.813
 3394SOL     OW10837   2.684   1.002   3.234
 3394SOL    HW110838   2.724   1.001   3.142
 3394SOL    HW210839   2.694   1.094   3.274
 3395SOL     OW10840   2.778   0.910   2.153
 3395SOL    HW110841   2.841   0.948   2.085
 3395SOL    HW210842   2.818   0.827   2.192
 3396SOL     OW10843   3.366   1.607   1.906
 3396SOL    HW110844   3.274   1.644   1.913
 3396SOL    HW210845   3.404   1.627   1.816
 3397SOL     OW10846   2.234   1.288   3.352
 3397SOL    HW110847   2.221   1.381   3.318
 3397SOL    HW210848   2.150   1.236   3.339
 3398SOL     OW10849   3.476   1.292   3.151
 3398SOL    HW110850   3.536   1.295   3.231
 3398SOL    HW210851   3.401   1.356   3.164
 3399SOL     OW10852   2.901   1.098   2.558
 3399SOL    HW110853   2.831   1.051   2.612
 3399SOL    HW210854   2.960   1.030   2.515
 3400SOL     OW10855   2.876   0.236   2.833
 3400SOL    HW110856   2.868   0.200   2.740
 3400SOL    HW210857   2.874   0.160   2.898
 3401SOL     OW10858   2.452   1.487   2.353
 3401SOL    HW110859   2.494   1.429   2.283
 3401SOL    HW210860   2.408   1.566   2.309
 3402SOL     OW10861   3.571   0.385   3.243
 3402SOL    HW110862   3.644   0.454   3.247
 3402SOL    HW210863   3.599   0.310   3.184
 3403SOL     OW10864   2.117   1.348   2.152
 3403SOL    HW110865   2.021   1.349   2.125
 3403SOL    HW210866   2.129   1.401   2.236
 3404SOL     OW10867   1.967   1.013   3.588
 3404SOL    HW110868   1.890   0.980   3.642
 3404SOL    HW210869   2.052   0.983   3.630
 3405SOL     OW10870   2.534   0.203   3.351
 3405SOL    HW110871   2.624   0.187   3.311
 3405SOL    HW210872   2.542   0.208   3.450
 3406SOL     OW10873   1.937   0.345   1.895
 3406SOL    HW110874   1.845   0.317   1.866
 3406SOL    HW210875   1.968   0.422   1.839
 3407SOL     OW10876   3.302   0.856   3.260
 3407SOL    HW110877   3.245   0.908   3.197
 3407SOL    HW210878   3.398   0.868   3.236
 3408SOL     OW10879   1.934   0.166   2.180
 3408SOL    HW110880   1.917   0.249   2.126
 3408SOL    HW210881   2.024   0.129   2.158
 3409SOL     OW10882   3.045   1.335   1.981
 3409SOL    HW110883   2.946   1.324   1.983
 3409SOL    HW210884   3.079   1.350   2.074
 3410SOL     OW10885   2.475   0.842   3.293
 3410SOL    HW110886   2.531   0.923   3.276
 3410SOL    HW210887   2.534   0.762   3.296
 3411SOL     OW10888   3.355   1.767   2.821
 3411SOL    HW110889   3.388   1.831   2.752
 3411SOL    HW210890   3.421   1.761   2.896
 3412SOL     OW10891   2.578   0.565   3.570
 3412SOL    HW110892   2.597   0.630   3.644
 3412SOL    HW210893   2.638   0.485   3.579
 3413SOL     OW10894   3.312   1.220   3.495
 3413SOL    HW110895   3.303   1.210   3.594
 3413SOL    HW210896   3.408   1.213   3.469
 3414SOL     OW10897   2.252   1.741   3.422
 3414SOL    HW110898   2.161   1.782   3.420
 3414SOL    HW210899   2.245   1.647   3.454
 3415SOL     OW10900   3.536   0.883   3.116
 3415SOL    HW110901   3.509   0.794   3.079
 3415SOL    HW210902   3.537   0.951   3.043
 3416SOL     OW10903   3.087   0.325   2.311
 3416SOL    HW110904   3.152   0.251   2.300
 3416SOL    HW210905   3.107   0.375   2.395
 3417SOL     OW10906   2.456   0.745   2.514
 3417SOL    HW110907   2.506   0.830   2.495
 3417SOL    HW210908   2.368   0.747   2.466
 3418SOL     OW10909   3.639   0.342   3.504
 3418SOL    HW110910   3.622   0.373   3.410
 3418SOL    HW210911   3.555   0.305   3.542
 3419SOL     OW10912   3.592   0.934   3.379
 3419SOL    HW110913   3.630   1.025   3.394
 3419SOL    HW210914   3.584   0.917   3.280
 3420SOL     OW10915   2.721   1.374   1.878
 3420SOL    HW110916   2.675   1.389   1.966
 3420SOL    HW210917   2.765   1.459   1.848
 3421SOL     OW10918   2.523   1.790   2.815
 3421SOL    HW110919   2.477   1.878   2.802
 3421SOL    HW210920   2.622   1.802   2.808
 3422SOL     OW10921   2.721   0.956   2.723
 3422SOL    HW110922   2.775   0.887   2.771
 3422SOL    HW210923   2.689   1.025   2.789
 3423SOL     OW10924   2.945   0.984   1.949
 3423SOL    HW110925   2.922   1.037   1.867
 3423SOL    HW210926   3.026   0.928   1.930
 3424SOL     OW10927   3.723   1.569   2.713
 3424SOL    HW110928   3.652   1.557   2.643
 3424SOL    HW210929   3.724   1.490   2.773
 3425SOL     OW10930   2.083   1.314   3.706
 3425SOL    HW110931   2.018   1.241   3.685
 3425SOL    HW210932   2.087   1.328   3.804
 3426SOL     OW10933   1.941   1.240   2.515
 3426SOL    HW110934   1.940   1.193   2.603
 3426SOL    HW210935   2.023   1.212   2.464
 3427SOL     OW10936   2.534   1.391   3.486
 3427SOL    HW110937   2.456   1.341   3.524
 3427SOL    HW210938   2.531   1.486   3.517
 3428SOL     OW10939   3.686   0.192   3.089
 3428SOL    HW110940   3.682   0.102   3.133
 3428SOL    HW210941   3.689   0.181   2.990
 3429SOL     OW10942   2.290   0.424   2.382
 3429SOL    HW110943   2.320   0.352   2.320
 3429SOL    HW210944   2.251   0.384   2.465
 3430SOL     OW10945   3.567   1.487   2.966
 3430SOL    HW110946   3.474   1.462   2.939
 3430SOL    HW210947   3.593   1.437   3.048
 3431SOL     OW10948   2.179   0.547   3.142
 3431SOL    HW110949   2.217   0.488   3.214
 3431SOL    HW210950   2.219   0.521   3.054
 3432SOL     OW10951   2.674   1.586   2.549
 3432SOL    HW110952   2.706   1.596   2.455
 3432SOL    HW210953   2.595   1.524   2.551
 3433SOL     OW10954   3.286   0.214   2.974
 3433SOL    HW110955   3.338   0.149   3.029
 3433SOL    HW210956   3.237   0.277   3.035
 3434SOL     OW10957   2.863   0.034   3.016
 3434SOL    HW110958   2.800  -0.038   2.985
 3434SOL    HW210959   2.956  -0.002   3.016
 3435SOL     OW10960   2.632   1.330   2.163
 3435SOL    HW110961   2.586   1.243   2.180
 3435SOL    HW210962   2.723   1.327   2.204
 3436SOL     OW10963   2.480   1.567   3.146
 3436SOL    HW110964   2.475   1.649   3.203
 3436SOL    HW210965   2.569   1.564   3.101
 3437SOL     OW10966   3.214   0.052   2.030
 3437SOL    HW110967   3.249   0.011   1.946
 3437SOL    HW210968   3.124   0.014   2.050
 3438SOL     OW10969   3.162   0.453   2.553
 3438SOL    HW110970   3.103   0.533   2.557
 3438SOL    HW210971   3.177   0.418   2.646
 3439SOL     OW10972   3.455   0.221   2.744
 3439SOL    HW110973   3.371   0.220   2.798
 3439SOL    HW210974   3.457   0.304   2.688
 3440SOL     OW10975   1.901   1.077   2.162
 3440SOL    HW110976   2.000   1.066   2.153
 3440SOL    HW210977   1.861   0.991   2.194
 3441SOL     OW10978   2.737   1.646   2.199
 3441SOL    HW110979   2.660   1.611   2.145
 3441SOL    HW210980   2.705   1.717   2.261
 3442SOL     OW10981   2.092   0.628   3.837
 3442SOL    HW110982   1.999   0.626   3.874
 3442SOL    HW210983   2.093   0.589   3.745
 3443SOL     OW10984   2.087   0.275   4.720
 3443SOL    HW110985   2.122   0.258   4.812
 3443SOL    HW210986   1.999   0.230   4.708
 3444SOL     OW10987   1.881   0.368   4.371
 3444SOL    HW110988   1.799   0.411   4.410
 3444SOL    HW210989   1.853   0.295   4.308
 3445SOL     OW10990   2.431   1.275   4.889
 3445SOL    HW110991   2.338   1.268   4.852
 3445SOL    HW210992   2.442   1.364   4.933
 3446SOL     OW10993   3.417   1.511   4.427
 3446SOL    HW110994   3.360   1.495   4.508
 3446SOL    HW210995   3.358   1.521   4.347
 3447SOL     OW10996   2.997   0.703   4.441
 3447SOL    HW110997   3.054   0.781   4.416
 3447SOL    HW210998   2.937   0.729   4.517
 3448SOL     OW10999   3.617   0.607   3.955
 3448SOL    HW111000   3.605   0.594   3.856
 3448SOL    HW211001   3.587   0.526   4.004
 3449SOL     OW11002   2.630   1.144   4.747
 3449SOL    HW111003   2.552   1.161   4.807
 3449SOL    HW211004   2.664   1.231   4.711
 3450SOL     OW11005   2.712   0.798   5.547
 3450SOL    HW111006   2.708   0.874   5.612
 3450SOL    HW211007   2.734   0.834   5.456
 3451SOL     OW11008   2.547   1.012   4.389
 3451SOL    HW111009   2.616   0.996   4.459
 3451SOL    HW211010   2.474   1.069   4.427
 3452SOL     OW11011   2.548   1.161   5.527
 3452SOL    HW111012   2.608   1.240   5.541
 3452SOL    HW211013   2.462   1.192   5.486
 3453SOL     OW11014   2.197   1.435   4.785
 3453SOL    HW111015   2.119   1.404   4.732
 3453SOL    HW211016   2.255   1.493   4.728
 3454SOL     OW11017   3.322   1.505   5.063
 3454SOL    HW111018   3.346   1.599   5.089
 3454SOL    HW211019   3.306   1.451   5.145
 3455SOL     OW11020   2.300   0.392   5.223
 3455SOL    HW111021   2.382   0.336   5.232
 3455SOL    HW211022   2.219   0.334   5.227
 3456SOL     OW11023   3.465   0.447   4.461
 3456SOL    HW111024   3.391   0.493   4.411
 3456SOL    HW211025   3.516   0.515   4.514
 3457SOL     OW11026   2.093   1.713   4.207
 3457SOL    HW111027   2.127   1.790   4.261
 3457SOL    HW211028   2.137   1.713   4.117
 3458SOL     OW11029   2.989   1.341   5.414
 3458SOL    HW111030   3.036   1.341   5.502
 3458SOL    HW211031   2.941   1.254   5.403
 3459SOL     OW11032   2.092   1.434   4.262
 3459SOL    HW111033   2.066   1.530   4.262
 3459SOL    HW211034   2.021   1.380   4.307
 3460SOL     OW11035   2.102   1.091   4.610
 3460SOL    HW111036   2.116   1.007   4.662
 3460SOL    HW211037   2.047   1.155   4.665
 3461SOL     OW11038   2.482   1.786   5.163
 3461SOL    HW111039   2.390   1.769   5.198
 3461SOL    HW211040   2.510   1.878   5.189
 3462SOL     OW11041   2.468   0.964   3.847
 3462SOL    HW111042   2.475   1.048   3.793
 3462SOL    HW211043   2.514   0.977   3.935
 3463SOL     OW11044   3.456   0.114   5.204
 3463SOL    HW111045   3.438   0.181   5.132
 3463SOL    HW211046   3.453   0.160   5.293
 3464SOL     OW11047   1.984   0.643   4.287
 3464SOL    HW111048   1.939   0.555   4.304
 3464SOL    HW211049   1.983   0.697   4.371
 3465SOL     OW11050   3.704   1.767   4.083
 3465SOL    HW111051   3.758   1.738   4.163
 3465SOL    HW211052   3.734   1.857   4.054
 3466SOL     OW11053   1.889   1.596   3.841
 3466SOL    HW111054   1.870   1.500   3.862
 3466SOL    HW211055   1.856   1.654   3.916
 3467SOL     OW11056   3.551   0.922   4.336
 3467SOL    HW111057   3.646   0.893   4.344
 3467SOL    HW211058   3.543   0.987   4.261
 3468SOL     OW11059   3.503   1.108   4.156
 3468SOL    HW111060   3.589   1.110   4.104
 3468SOL    HW211061   3.517   1.155   4.244
 3469SOL     OW11062   1.975   0.737   5.321
 3469SOL    HW111063   2.063   0.724   5.366
 3469SOL    HW211064   1.962   0.834   5.299
 3470SOL     OW11065   2.475   1.365   4.450
 3470SOL    HW111066   2.426   1.278   4.459
 3470SOL    HW211067   2.452   1.408   4.363
 3471SOL     OW11068   3.155   1.228   5.147
 3471SOL    HW111069   3.192   1.155   5.089
 3471SOL    HW211070   3.207   1.233   5.232
 3472SOL     OW11071   2.671   0.004   4.226
 3472SOL    HW111072   2.711   0.095   4.217
 3472SOL    HW211073   2.571   0.012   4.232
 3473SOL     OW11074   2.059   0.976   4.988
 3473SOL    HW111075   2.148   0.931   4.974
 3473SOL    HW211076   1.986   0.911   4.969
 3474SOL     OW11077   3.387   0.999   3.914
 3474SOL    HW111078   3.324   0.923   3.927
 3474SOL    HW211079   3.435   1.017   4.000
 3475SOL     OW11080   2.179   0.251   5.525
 3475SOL    HW111081   2.250   0.322   5.531
 3475SOL    HW211082   2.091   0.290   5.553
 3476SOL     OW11083   3.328   1.417   4.677
 3476SOL    HW111084   3.269   1.423   4.757
 3476SOL    HW211085   3.313   1.329   4.631
 3477SOL     OW11086   3.529   1.714   4.296
 3477SOL    HW111087   3.488   1.691   4.208
 3477SOL    HW211088   3.511   1.640   4.361
 3478SOL     OW11089   2.460   0.729   3.994
 3478SOL    HW111090   2.484   0.798   3.926
 3478SOL    HW211091   2.382   0.762   4.048
 3479SOL     OW11092   3.143   0.345   4.668
 3479SOL    HW111093   3.057   0.295   4.655
 3479SOL    HW211094   3.205   0.291   4.724
 3480SOL     OW11095   3.438   1.662   4.031
 3480SOL    HW111096   3.527   1.708   4.034
 3480SOL    HW211097   3.417   1.638   3.936
 3481SOL     OW11098   2.669   0.605   5.189
 3481SOL    HW111099   2.622   0.602   5.278
 3481SOL    HW211100   2.618   0.550   5.123
 3482SOL     OW11101   3.256   0.469   5.398
 3482SOL    HW111102   3.236   0.512   5.486
 3482SOL    HW211103   3.334   0.407   5.407
 3483SOL     OW11104   2.835   0.890   5.296
 3483SOL    HW111105   2.881   0.806   5.267
 3483SOL    HW211106   2.779   0.924   5.221
 3484SOL     OW11107   2.853   0.410   4.966
 3484SOL    HW111108   2.776   0.444   5.020
 3484SOL    HW211109   2.819   0.359   4.887
 3485SOL     OW11110   2.903   0.701   4.153
 3485SOL    HW111111   2.929   0.697   4.249
 3485SOL    HW211112   2.818   0.650   4.139
 3486SOL     OW11113   1.938   0.811   4.513
 3486SOL    HW111114   2.037   0.799   4.522
 3486SOL    HW211115   1.914   0.906   4.534
 3487SOL     OW11116   2.727   0.348   3.919
 3487SOL    HW111117   2.786   0.411   3.870
 3487SOL    HW211118   2.746   0.254   3.890
 3488SOL     OW11119   3.581   0.585   5.555
 3488SOL    HW111120   3.555   0.674   5.519
 3488SOL    HW211121   3.579   0.517   5.482
 3489SOL     OW11122   3.224   1.144   4.269
 3489SOL    HW111123   3.307   1.115   4.221
 3489SOL    HW211124   3.175   1.211   4.213
 3490SOL     OW11125   2.412   0.196   4.609
 3490SOL    HW111126   2.407   0.191   4.709
 3490SOL    HW211127   2.414   0.292   4.580
 3491SOL     OW11128   2.870   1.456   4.201
 3491SOL    HW111129   2.824   1.528   4.149
 3491SOL    HW211130   2.866   1.476   4.299
 3492SOL     OW11131   2.213   1.801   4.577
 3492SOL    HW111132   2.263   1.715   4.583
 3492SOL    HW211133   2.278   1.878   4.574
 3493SOL     OW11134   3.657   1.066   4.597
 3493SOL    HW111135   3.595   1.051   4.521
 3493SOL    HW211136   3.605   1.077   4.682
 3494SOL     OW11137   3.089   1.550   5.230
 3494SOL    HW111138   3.095   1.473   5.294
 3494SOL    HW211139   3.037   1.524   5.150
 3495SOL     OW11140   2.183   0.943   3.966
 3495SOL    HW111141   2.265   0.982   3.924
 3495SOL    HW211142   2.156   0.861   3.917
 3496SOL     OW11143   3.320   0.735   4.452
 3496SOL    HW111144   3.315   0.670   4.527
 3496SOL    HW211145   3.400   0.794   4.465
 3497SOL     OW11146   2.323   1.266   5.451
 3497SOL    HW111147   2.273   1.267   5.365
 3497SOL    HW211148   2.260   1.248   5.527
 3498SOL     OW11149   2.973   1.776   3.961
 3498SOL    HW111150   2.913   1.714   4.011
 3498SOL    HW211151   3.004   1.732   3.876
 3499SOL     OW11152   2.064   0.285   5.222
 3499SOL    HW111153   1.984   0.345   5.209
 3499SOL    HW211154   2.054   0.236   5.308
 3500SOL     OW11155   3.494   1.377   3.805
 3500SOL    HW111156   3.462   1.471   3.795
 3500SOL    HW211157   3.418   1.314   3.793
 3501SOL     OW11158   2.326   1.743   4.047
 3501SOL    HW111159   2.359   1.782   4.133
 3501SOL    HW211160   2.402   1.736   3.982
 3502SOL     OW11161   3.262   0.107   4.150
 3502SOL    HW111162   3.238   0.070   4.060
 3502SOL    HW211163   3.361   0.123   4.154
 3503SOL     OW11164   2.802   1.698   4.628
 3503SOL    HW111165   2.882   1.641   4.649
 3503SOL    HW211166   2.753   1.658   4.551
 3504SOL     OW11167   2.244   0.700   4.204
 3504SOL    HW111168   2.289   0.610   4.201
 3504SOL    HW211169   2.150   0.689   4.237
 3505SOL     OW11170   3.409   0.222   5.453
 3505SOL    HW111171   3.404   0.259   5.545
 3505SOL    HW211172   3.337   0.153   5.441
 3506SOL     OW11173   2.476   0.122   3.841
 3506SOL    HW111174   2.574   0.100   3.848
 3506SOL    HW211175   2.445   0.105   3.748
 3507SOL     OW11176   2.643   0.264   5.473
 3507SOL    HW111177   2.710   0.203   5.516
 3507SOL    HW211178   2.570   0.283   5.538
 3508SOL     OW11179   2.750   1.514   4.919
 3508SOL    HW111180   2.727   1.489   4.825
 3508SOL    HW211181   2.811   1.445   4.958
 3509SOL     OW11182   3.213   0.590   5.157
 3509SOL    HW111183   3.241   0.547   5.242
 3509SOL    HW211184   3.238   0.686   5.158
 3510SOL     OW11185   2.665   1.402   4.648
 3510SOL    HW111186   2.755   1.416   4.606
 3510SOL    HW211187   2.594   1.404   4.577
 3511SOL     OW11188   2.784   0.503   4.623
 3511SOL    HW111189   2.759   0.494   4.527
 3511SOL    HW211190   2.832   0.421   4.654
 3512SOL     OW11191   2.401   0.064   4.236
 3512SOL    HW111192   2.320   0.065   4.294
 3512SOL    HW211193   2.404   0.147   4.181
 3513SOL     OW11194   3.296   1.188   3.765
 3513SOL    HW111195   3.328   1.112   3.822
 3513SOL    HW211196   3.204   1.215   3.795
 3514SOL     OW11197   2.159   0.035   3.895
 3514SOL    HW111198   2.208   0.119   3.874
 3514SOL    HW211199   2.221  -0.030   3.940
 3515SOL     OW11200   2.797   0.236   4.204
 3515SOL    HW111201   2.749   0.277   4.126
 3515SOL    HW211202   2.896   0.234   4.185
 3516SOL     OW11203   2.938   0.683   5.188
 3516SOL    HW111204   2.858   0.622   5.191
 3516SOL    HW211205   3.019   0.630   5.164
 3517SOL     OW11206   3.089   1.570   4.517
 3517SOL    HW111207   3.110   1.644   4.452
 3517SOL    HW211208   3.157   1.570   4.590
 3518SOL     OW11209   2.321   1.152   4.465
 3518SOL    HW111210   2.250   1.125   4.530
 3518SOL    HW211211   2.295   1.124   4.372
 3519SOL     OW11212   3.133   1.797   4.315
 3519SOL    HW111213   3.177   1.861   4.251
 3519SOL    HW211214   3.083   1.849   4.385
 3520SOL     OW11215   2.894   0.549   3.740
 3520SOL    HW111216   2.853   0.631   3.701
 3520SOL    HW211217   2.958   0.575   3.813
 3521SOL     OW11218   1.940   0.556   5.110
 3521SOL    HW111219   2.032   0.555   5.069
 3521SOL    HW211220   1.934   0.630   5.177
 3522SOL     OW11221   2.423   0.222   4.871
 3522SOL    HW111222   2.461   0.138   4.908
 3522SOL    HW211223   2.335   0.241   4.915
 3523SOL     OW11224   2.728   0.454   4.366
 3523SOL    HW111225   2.696   0.526   4.304
 3523SOL    HW211226   2.752   0.373   4.313
 3524SOL     OW11227   2.879   0.039   4.477
 3524SOL    HW111228   2.807   0.044   4.408
 3524SOL    HW211229   2.855  -0.030   4.546
 3525SOL     OW11230   3.291   1.173   4.591
 3525SOL    HW111231   3.236   1.089   4.584
 3525SOL    HW211232   3.317   1.202   4.499
 3526SOL     OW11233   3.328   0.590   4.716
 3526SOL    HW111234   3.298   0.495   4.723
 3526SOL    HW211235   3.401   0.606   4.782
 3527SOL     OW11236   3.719   0.833   4.101
 3527SOL    HW111237   3.761   0.769   4.165
 3527SOL    HW211238   3.681   0.782   4.023
 3528SOL     OW11239   2.350   1.385   3.898
 3528SOL    HW111240   2.263   1.370   3.945
 3528SOL    HW211241   2.333   1.411   3.803
 3529SOL     OW11242   3.526   1.280   4.381
 3529SOL    HW111243   3.625   1.288   4.395
 3529SOL    HW211244   3.481   1.364   4.412
 3530SOL     OW11245   3.252   0.575   3.802
 3530SOL    HW111246   3.198   0.554   3.883
 3530SOL    HW211247   3.343   0.534   3.811
 3531SOL     OW11248   2.389   0.256   4.052
 3531SOL    HW111249   2.416   0.197   3.977
 3531SOL    HW211250   2.389   0.351   4.021
 3532SOL     OW11251   3.616   1.223   5.312
 3532SOL    HW111252   3.707   1.184   5.299
 3532SOL    HW211253   3.624   1.319   5.336
 3533SOL     OW11254   2.926   1.347   5.064
 3533SOL    HW111255   2.846   1.324   5.119
 3533SOL    HW211256   3.009   1.321   5.113
 3534SOL     OW11257   3.454   1.629   5.349
 3534SOL    HW111258   3.481   1.663   5.259
 3534SOL    HW211259   3.533   1.591   5.395
 3535SOL     OW11260   2.973   1.195   4.824
 3535SOL    HW111261   2.933   1.239   4.905
 3535SOL    HW211262   2.932   1.232   4.741
 3536SOL     OW11263   3.500   1.099   4.803
 3536SOL    HW111264   3.505   1.180   4.862
 3536SOL    HW211265   3.414   1.101   4.752
 3537SOL     OW11266   2.777   0.089   5.126
 3537SOL    HW111267   2.802   0.069   5.031
 3537SOL    HW211268   2.849   0.145   5.168
 3538SOL     OW11269   2.842   1.116   5.443
 3538SOL    HW111270   2.743   1.122   5.453
 3538SOL    HW211271   2.865   1.036   5.387
 3539SOL     OW11272   2.567   1.050   4.092
 3539SOL    HW111273   2.553   1.057   4.191
 3539SOL    HW211274   2.651   0.999   4.074
 3540SOL     OW11275   2.272   0.813   4.975
 3540SOL    HW111276   2.358   0.825   5.025
 3540SOL    HW211277   2.230   0.726   5.002
 3541SOL     OW11278   3.136   0.386   4.986
 3541SOL    HW111279   3.157   0.460   5.050
 3541SOL    HW211280   3.047   0.403   4.943
 3542SOL     OW11281   1.926   1.564   5.055
 3542SOL    HW111282   1.880   1.646   5.021
 3542SOL    HW211283   2.024   1.583   5.064
 3543SOL     OW11284   2.229   1.100   4.225
 3543SOL    HW111285   2.222   1.183   4.169
 3543SOL    HW211286   2.233   1.020   4.165
 3544SOL     OW11287   2.428   0.537   4.589
 3544SOL    HW111288   2.440   0.603   4.515
 3544SOL    HW211289   2.474   0.571   4.672
 3545SOL     OW11290   3.114   1.348   4.112
 3545SOL    HW111291   3.164   1.425   4.152
 3545SOL    HW211292   3.019   1.350   4.144
 3546SOL     OW11293   3.134   1.445   4.866
 3546SOL    HW111294   3.181   1.458   4.953
 3546SOL    HW211295   3.068   1.371   4.875
 3547SOL     OW11296   3.444   0.639   4.196
 3547SOL    HW111297   3.413   0.700   4.269
 3547SOL    HW211298   3.494   0.691   4.127
 3548SOL     OW11299   2.264   0.751   5.322
 3548SOL    HW111300   2.332   0.806   5.275
 3548SOL    HW211301   2.304   0.663   5.349
 3549SOL     OW11302   3.449   0.779   5.394
 3549SOL    HW111303   3.357   0.817   5.389
 3549SOL    HW211304   3.509   0.826   5.329
 3550SOL     OW11305   2.875   0.105   5.494
 3550SOL    HW111306   2.881   0.190   5.442
 3550SOL    HW211307   2.907   0.029   5.437
 3551SOL     OW11308   2.366   0.050   5.464
 3551SOL    HW111309   2.324  -0.007   5.394
 3551SOL    HW211310   2.300   0.119   5.496
 3552SOL     OW11311   2.435   0.870   4.753
 3552SOL    HW111312   2.479   0.959   4.744
 3552SOL    HW211313   2.372   0.870   4.830
 3553SOL     OW11314   3.222   0.862   4.769
 3553SOL    HW111315   3.147   0.862   4.703
 3553SOL    HW211316   3.259   0.770   4.778
 3554SOL     OW11317   3.071   0.525   3.999
 3554SOL    HW111318   3.084   0.441   4.053
 3554SOL    HW211319   3.042   0.599   4.059
 3555SOL     OW11320   2.169   0.213   4.955
 3555SOL    HW111321   2.146   0.250   5.045
 3555SOL    HW211322   2.139   0.118   4.949
 3556SOL     OW11323   1.899   1.310   5.006
 3556SOL    HW111324   1.952   1.261   5.074
 3556SOL    HW211325   1.921   1.408   5.011
 3557SOL     OW11326   2.594   0.634   4.788
 3557SOL    HW111327   2.653   0.608   4.712
 3557SOL    HW211328   2.566   0.730   4.777
 3558SOL     OW11329   3.590   0.935   5.578
 3558SOL    HW111330   3.544   0.928   5.489
 3558SOL    HW211331   3.528   0.979   5.644
 3559SOL     OW11332   2.169   0.063   4.342
 3559SOL    HW111333   2.158   0.157   4.375
 3559SOL    HW211334   2.164   0.000   4.419
 3560SOL     OW11335   3.484   0.367   4.098
 3560SOL    HW111336   3.486   0.291   4.162
 3560SOL    HW211337   3.436   0.444   4.138
 3561SOL     OW11338   2.885   0.766   4.690
 3561SOL    HW111339   2.900   0.787   4.786
 3561SOL    HW211340   2.855   0.671   4.681
 3562SOL     OW11341   3.721   1.518   5.329
 3562SOL    HW111342   3.735   1.545   5.234
 3562SOL    HW211343   3.804   1.540   5.382
 3563SOL     OW11344   2.212   0.898   5.528
 3563SOL    HW111345   2.288   0.942   5.576
 3563SOL    HW211346   2.247   0.851   5.446
 3564SOL     OW11347   3.402   0.274   3.849
 3564SOL    HW111348   3.341   0.199   3.872
 3564SOL    HW211349   3.424   0.326   3.932
 3565SOL     OW11350   3.165   0.838   3.766
 3565SOL    HW111351   3.199   0.745   3.781
 3565SOL    HW211352   3.183   0.865   3.671
 3566SOL     OW11353   2.930   1.333   4.573
 3566SOL    HW111354   2.937   1.249   4.518
 3566SOL    HW211355   2.992   1.402   4.537
 3567SOL     OW11356   2.181   0.810   4.673
 3567SOL    HW111357   2.274   0.846   4.678
 3567SOL    HW211358   2.175   0.725   4.725
 3568SOL     OW11359   2.201   0.509   4.730
 3568SOL    HW111360   2.149   0.426   4.713
 3568SOL    HW211361   2.278   0.514   4.666
 3569SOL     OW11362   3.000   0.380   5.402
 3569SOL    HW111363   2.955   0.443   5.466
 3569SOL    HW211364   3.093   0.411   5.385
 3570SOL     OW11365   3.022   0.207   5.201
 3570SOL    HW111366   3.022   0.271   5.278
 3570SOL    HW211367   3.050   0.255   5.118
 3571SOL     OW11368   1.870   1.326   3.924
 3571SOL    HW111369   1.777   1.347   3.893
 3571SOL    HW211370   1.880   1.227   3.937
 3572SOL     OW11371   1.950   1.801   4.651
 3572SOL    HW111372   1.908   1.715   4.624
 3572SOL    HW211373   2.044   1.804   4.617
 3573SOL     OW11374   2.366   1.568   4.634
 3573SOL    HW111375   2.432   1.642   4.643
 3573SOL    HW211376   2.410   1.489   4.592
 3574SOL     OW11377   2.864   0.796   4.962
 3574SOL    HW111378   2.905   0.764   5.048
 3574SOL    HW211379   2.768   0.769   4.959
 3575SOL     OW11380   1.902   0.544   4.838
 3575SOL    HW111381   1.987   0.511   4.797
 3575SOL    HW211382   1.915   0.559   4.936
 3576SOL     OW11383   2.051   0.520   5.446
 3576SOL    HW111384   2.110   0.480   5.376
 3576SOL    HW211385   1.993   0.591   5.405
 3577SOL     OW11386   3.231   0.950   5.384
 3577SOL    HW111387   3.270   1.039   5.404
 3577SOL    HW211388   3.241   0.930   5.287
 3578SOL     OW11389   2.677   0.572   4.049
 3578SOL    HW111390   2.684   0.483   4.003
 3578SOL    HW211391   2.583   0.606   4.041
 3579SOL     OW11392   3.519   0.604   4.930
 3579SOL    HW111393   3.481   0.535   4.992
 3579SOL    HW211394   3.601   0.568   4.886
 3580SOL     OW11395   2.533   0.464   4.993
 3580SOL    HW111396   2.499   0.375   4.963
 3580SOL    HW211397   2.559   0.518   4.913
 3581SOL     OW11398   2.792   1.678   5.189
 3581SOL    HW111399   2.768   1.660   5.094
 3581SOL    HW211400   2.822   1.772   5.199
 3582SOL     OW11401   2.335   0.500   3.915
 3582SOL    HW111402   2.396   0.580   3.919
 3582SOL    HW211403   2.240   0.531   3.922
 3583SOL     OW11404   2.021   1.137   5.190
 3583SOL    HW111405   2.043   1.076   5.266
 3583SOL    HW211406   2.031   1.088   5.104
 3584SOL     OW11407   3.209   1.059   4.958
 3584SOL    HW111408   3.233   0.996   4.884
 3584SOL    HW211409   3.119   1.099   4.940
 3585SOL     OW11410   3.164   0.855   4.033
 3585SOL    HW111411   3.078   0.824   4.075
 3585SOL    HW211412   3.160   0.841   3.934
 3586SOL     OW11413   3.621   1.747   4.878
 3586SOL    HW111414   3.682   1.777   4.805
 3586SOL    HW211415   3.583   1.658   4.856
 3587SOL     OW11416   3.114   1.731   4.852
 3587SOL    HW111417   3.198   1.736   4.798
 3587SOL    HW211418   3.091   1.635   4.870
 3588SOL     OW11419   1.945   1.258   4.746
 3588SOL    HW111420   1.940   1.257   4.846
 3588SOL    HW211421   1.862   1.217   4.708
 3589SOL     OW11422   3.588   0.135   4.247
 3589SOL    HW111423   3.661   0.118   4.180
 3589SOL    HW211424   3.557   0.048   4.285
 3590SOL     OW11425   3.250   1.573   4.201
 3590SOL    HW111426   3.317   1.585   4.127
 3590SOL    HW211427   3.210   1.662   4.224
 3591SOL     OW11428   3.142   0.927   4.396
 3591SOL    HW111429   3.202   0.846   4.398
 3591SOL    HW211430   3.182   0.996   4.336
 3592SOL     OW11431   2.692   1.273   5.146
 3592SOL    HW111432   2.687   1.306   5.241
 3592SOL    HW211433   2.606   1.292   5.100
 3593SOL     OW11434   2.534   1.616   3.878
 3593SOL    HW111435   2.543   1.626   3.779
 3593SOL    HW211436   2.494   1.527   3.899
 3594SOL     OW11437   3.512   1.720   5.118
 3594SOL    HW111438   3.565   1.730   5.034
 3594SOL    HW211439   3.485   1.810   5.152
 3595SOL     OW11440   3.703   0.175   4.687
 3595SOL    HW111441   3.742   0.090   4.651
 3595SOL    HW211442   3.605   0.177   4.668
 3596SOL     OW11443   2.125   0.326   4.444
 3596SOL    HW111444   2.046   0.377   4.410
 3596SOL    HW211445   2.116   0.311   4.542
 3597SOL     OW11446   3.056   1.612   3.755
 3597SOL    HW111447   3.062   1.519   3.792
 3597SOL    HW211448   2.997   1.612   3.675
 3598SOL     OW11449   2.684   1.002   5.096
 3598SOL    HW111450   2.724   1.001   5.004
 3598SOL    HW211451   2.694   1.094   5.136
 3599SOL     OW11452   2.778   0.910   4.015
 3599SOL    HW111453   2.841   0.948   3.947
 3599SOL    HW211454   2.818   0.827   4.054
 3600SOL     OW11455   3.366   1.607   3.768
 3600SOL    HW111456   3.274   1.644   3.775
 3600SOL    HW211457   3.404   1.627   3.678
 3601SOL     OW11458   3.476   1.292   5.013
 3601SOL    HW111459   3.536   1.295   5.093
 3601SOL    HW211460   3.401   1.356   5.026
 3602SOL     OW11461   2.901   1.098   4.420
 3602SOL    HW111462   2.831   1.051   4.474
 3602SOL    HW211463   2.960   1.030   4.377
 3603SOL     OW11464   2.876   0.236   4.695
 3603SOL    HW111465   2.868   0.200   4.602
 3603SOL    HW211466   2.874   0.160   4.760
 3604SOL     OW11467   2.452   1.487   4.215
 3604SOL    HW111468   2.494   1.429   4.145
 3604SOL    HW211469   2.408   1.566   4.171
 3605SOL     OW11470   3.571   0.385   5.105
 3605SOL    HW111471   3.644   0.454   5.109
 3605SOL    HW211472   3.599   0.310   5.046
 3606SOL     OW11473   2.117   1.348   4.014
 3606SOL    HW111474   2.021   1.349   3.987
 3606SOL    HW211475   2.129   1.401   4.098
 3607SOL     OW11476   1.967   1.013   5.450
 3607SOL    HW111477   1.890   0.980   5.504
 3607SOL    HW211478   2.052   0.983   5.492
 3608SOL     OW11479   2.534   0.203   5.213
 3608SOL    HW111480   2.624   0.187   5.173
 3608SOL    HW211481   2.542   0.208   5.312
 3609SOL     OW11482   1.937   0.345   3.757
 3609SOL    HW111483   1.845   0.317   3.728
 3609SOL    HW211484   1.968   0.422   3.701
 3610SOL     OW11485   3.302   0.856   5.122
 3610SOL    HW111486   3.245   0.908   5.059
 3610SOL    HW211487   3.398   0.868   5.098
 3611SOL     OW11488   1.934   0.166   4.042
 3611SOL    HW111489   1.917   0.249   3.988
 3611SOL    HW211490   2.024   0.129   4.020
 3612SOL     OW11491   3.045   1.335   3.843
 3612SOL    HW111492   2.946   1.324   3.845
 3612SOL    HW211493   3.079   1.350   3.936
 3613SOL     OW11494   2.475   0.842   5.155
 3613SOL    HW111495   2.531   0.923   5.138
 3613SOL    HW211496   2.534   0.762   5.158
 3614SOL     OW11497   3.355   1.767   4.683
 3614SOL    HW111498   3.388   1.831   4.614
 3614SOL    HW211499   3.421   1.761   4.758
 3615SOL     OW11500   2.578   0.565   5.432
 3615SOL    HW111501   2.597   0.630   5.506
 3615SOL    HW211502   2.638   0.485   5.441
 3616SOL     OW11503   3.312   1.220   5.357
 3616SOL    HW111504   3.303   1.210   5.456
 3616SOL    HW211505   3.408   1.213   5.331
 3617SOL     OW11506   3.536   0.883   4.978
 3617SOL    HW111507   3.509   0.794   4.941
 3617SOL    HW211508   3.537   0.951   4.905
 3618SOL     OW11509   3.087   0.325   4.173
 3618SOL    HW111510   3.152   0.251   4.162
 3618SOL    HW211511   3.107   0.375   4.257
 3619SOL     OW11512   2.456   0.745   4.376
 3619SOL    HW111513   2.506   0.830   4.357
 3619SOL    HW211514   2.368   0.747   4.328
 3620SOL     OW11515   3.639   0.342   5.366
 3620SOL    HW111516   3.622   0.373   5.272
 3620SOL    HW211517   3.555   0.305   5.404
 3621SOL     OW11518   3.592   0.934   5.241
 3621SOL    HW111519   3.630   1.025   5.256
 3621SOL    HW211520   3.584   0.917   5.142
 3622SOL     OW11521   2.721   1.374   3.740
 3622SOL    HW111522   2.675   1.389   3.828
 3622SOL    HW211523   2.765   1.459   3.710
 3623SOL     OW11524   2.523   1.790   4.677
 3623SOL    HW111525   2.477   1.878   4.664
 3623SOL    HW211526   2.622   1.802   4.670
 3624SOL     OW11527   2.721   0.956   4.585
 3624SOL    HW111528   2.775   0.887   4.633
 3624SOL    HW211529   2.689   1.025   4.651
 3625SOL     OW11530   2.945   0.984   3.811
 3625SOL    HW111531   2.922   1.037   3.729
 3625SOL    HW211532   3.026   0.928   3.792
 3626SOL     OW11533   3.723   1.569   4.575
 3626SOL    HW111534   3.652   1.557   4.505
 3626SOL    HW211535   3.724   1.490   4.635
 3627SOL     OW11536   2.083   1.314   5.568
 3627SOL    HW111537   2.018   1.241   5.547
 3627SOL    HW211538   2.087   1.328   5.666
 3628SOL     OW11539   1.941   1.240   4.377
 3628SOL    HW111540   1.940   1.193   4.465
 3628SOL    HW211541   2.023   1.212   4.326
 3629SOL     OW11542   3.686   0.192   4.951
 3629SOL    HW111543   3.682   0.102   4.995
 3629SOL    HW211544   3.689   0.181   4.852
 3630SOL     OW11545   2.290   0.424   4.244
 3630SOL    HW111546   2.320   0.352   4.182
 3630SOL    HW211547   2.251   0.384   4.327
 3631SOL     OW11548   3.567   1.487   4.828
 3631SOL    HW111549   3.474   1.462   4.801
 3631SOL    HW211550   3.593   1.437   4.910
 3632SOL     OW11551   2.179   0.547   5.004
 3632SOL    HW111552   2.217   0.488   5.076
 3632SOL    HW211553   2.219   0.521   4.916
 3633SOL     OW11554   2.674   1.586   4.411
 3633SOL    HW111555   2.706   1.596   4.317
 3633SOL    HW211556   2.595   1.524   4.413
 3634SOL     OW11557   3.286   0.214   4.836
 3634SOL    HW111558   3.338   0.149   4.891
 3634SOL    HW211559   3.237   0.277   4.897
 3635SOL     OW11560   2.863   0.034   4.878
 3635SOL    HW111561   2.800  -0.038   4.847
 3635SOL    HW211562   2.956  -0.002   4.878
 3636SOL     OW11563   2.632   1.330   4.025
 3636SOL    HW111564   2.586   1.243   4.042
 3636SOL    HW211565   2.723   1.327   4.066
 3637SOL     OW11566   3.214   0.052   3.892
 3637SOL    HW111567   3.249   0.011   3.808
 3637SOL    HW211568   3.124   0.014   3.912
 3638SOL     OW11569   3.162   0.453   4.415
 3638SOL    HW111570   3.103   0.533   4.419
 3638SOL    HW211571   3.177   0.418   4.508
 3639SOL     OW11572   3.455   0.221   4.606
 3639SOL    HW111573   3.371   0.220   4.660
 3639SOL    HW211574   3.457   0.304   4.550
 3640SOL     OW11575   1.901   1.077   4.024
 3640SOL    HW111576   2.000   1.066   4.015
 3640SOL    HW211577   1.861   0.991   4.056
 3641SOL     OW11578   2.737   1.646   4.061
 3641SOL    HW111579   2.660   1.611   4.007
 3641SOL    HW211580   2.705   1.717   4.123
 3642SOL     OW11581   2.092   0.628   5.699
 3642SOL    HW111582   1.999   0.626   5.736
 3642SOL    HW211583   2.093   0.589   5.607
 3643SOL     OW11584   2.087   0.275   6.582
 3643SOL    HW111585   2.122   0.258   6.674
 3643SOL    HW211586   1.999   0.230   6.570
 3644SOL     OW11587   1.881   0.368   6.233
 3644SOL    HW111588   1.799   0.411   6.272
 3644SOL    HW211589   1.853   0.295   6.170
 3645SOL     OW11590   2.431   1.275   6.751
 3645SOL    HW111591   2.338   1.268   6.714
 3645SOL    HW211592   2.442   1.364   6.795
 3646SOL     OW11593   3.417   1.511   6.289
 3646SOL    HW111594   3.360   1.495   6.370
 3646SOL    HW211595   3.358   1.521   6.209
 3647SOL     OW11596   2.997   0.703   6.303
 3647SOL    HW111597   3.054   0.781   6.278
 3647SOL    HW211598   2.937   0.729   6.379
 3648SOL     OW11599   3.617   0.607   5.817
 3648SOL    HW111600   3.605   0.594   5.718
 3648SOL    HW211601   3.587   0.526   5.866
 3649SOL     OW11602   2.630   1.144   6.609
 3649SOL    HW111603   2.552   1.161   6.669
 3649SOL    HW211604   2.664   1.231   6.573
 3650SOL     OW11605   2.712   0.798   7.409
 3650SOL    HW111606   2.708   0.874   7.474
 3650SOL    HW211607   2.734   0.834   7.318
 3651SOL     OW11608   2.547   1.012   6.251
 3651SOL    HW111609   2.616   0.996   6.321
 3651SOL    HW211610   2.474   1.069   6.289
 3652SOL     OW11611   2.548   1.161   7.389
 3652SOL    HW111612   2.608   1.240   7.403
 3652SOL    HW211613   2.462   1.192   7.348
 3653SOL     OW11614   2.197   1.435   6.647
 3653SOL    HW111615   2.119   1.404   6.594
 3653SOL    HW211616   2.255   1.493   6.590
 3654SOL     OW11617   3.322   1.505   6.925
 3654SOL    HW111618   3.346   1.599   6.951
 3654SOL    HW211619   3.306   1.451   7.007
 3655SOL     OW11620   2.300   0.392   7.085
 3655SOL    HW111621   2.382   0.336   7.094
 3655SOL    HW211622   2.219   0.334   7.089
 3656SOL     OW11623   3.465   0.447   6.323
 3656SOL    HW111624   3.391   0.493   6.273
 3656SOL    HW211625   3.516   0.515   6.376
 3657SOL     OW11626   2.093   1.713   6.069
 3657SOL    HW111627   2.127   1.790   6.123
 3657SOL    HW211628   2.137   1.713   5.979
 3658SOL     OW11629   2.989   1.341   7.276
 3658SOL    HW111630   3.036   1.341   7.364
 3658SOL    HW211631   2.941   1.254   7.265
 3659SOL     OW11632   2.092   1.434   6.124
 3659SOL    HW111633   2.066   1.530   6.124
 3659SOL    HW211634   2.021   1.380   6.169
 3660SOL     OW11635   2.102   1.091   6.472
 3660SOL    HW111636   2.116   1.007   6.524
 3660SOL    HW211637   2.047   1.155   6.527
 3661SOL     OW11638   2.482   1.786   7.025
 3661SOL    HW111639   2.390   1.769   7.060
 3661SOL    HW211640   2.510   1.878   7.051
 3662SOL     OW11641   2.468   0.964   5.709
 3662SOL    HW111642   2.475   1.048   5.655
 3662SOL    HW211643   2.514   0.977   5.797
 3663SOL     OW11644   3.456   0.114   7.066
 3663SOL    HW111645   3.438   0.181   6.994
 3663SOL    HW211646   3.453   0.160   7.155
 3664SOL     OW11647   1.984   0.643   6.149
 3664SOL    HW111648   1.939   0.555   6.166
 3664SOL    HW211649   1.983   0.697   6.233
 3665SOL     OW11650   3.704   1.767   5.945
 3665SOL    HW111651   3.758   1.738   6.025
 3665SOL    HW211652   3.734   1.857   5.916
 3666SOL     OW11653   3.551   0.922   6.198
 3666SOL    HW111654   3.646   0.893   6.206
 3666SOL    HW211655   3.543   0.987   6.123
 3667SOL     OW11656   3.503   1.108   6.018
 3667SOL    HW111657   3.589   1.110   5.966
 3667SOL    HW211658   3.517   1.155   6.106
 3668SOL     OW11659   1.975   0.737   7.183
 3668SOL    HW111660   2.063   0.724   7.228
 3668SOL    HW211661   1.962   0.834   7.161
 3669SOL     OW11662   2.475   1.365   6.312
 3669SOL    HW111663   2.426   1.278   6.321
 3669SOL    HW211664   2.452   1.408   6.225
 3670SOL     OW11665   3.155   1.228   7.009
 3670SOL    HW111666   3.192   1.155   6.951
 3670SOL    HW211667   3.207   1.233   7.094
 3671SOL     OW11668   2.671   0.004   6.088
 3671SOL    HW111669   2.711   0.095   6.079
 3671SOL    HW211670   2.571   0.012   6.094
 3672SOL     OW11671   2.059   0.976   6.850
 3672SOL    HW111672   2.148   0.931   6.836
 3672SOL    HW211673   1.986   0.911   6.831
 3673SOL     OW11674   3.387   0.999   5.776
 3673SOL    HW111675   3.324   0.923   5.789
 3673SOL    HW211676   3.435   1.017   5.862
 3674SOL     OW11677   3.049   1.792   7.202
 3674SOL    HW111678   3.073   1.852   7.126
 3674SOL    HW211679   3.056   1.697   7.172
 3675SOL     OW11680   2.179   0.251   7.387
 3675SOL    HW111681   2.250   0.322   7.393
 3675SOL    HW211682   2.091   0.290   7.415
 3676SOL     OW11683   3.328   1.417   6.539
 3676SOL    HW111684   3.269   1.423   6.619
 3676SOL    HW211685   3.313   1.329   6.493
 3677SOL     OW11686   3.529   1.714   6.158
 3677SOL    HW111687   3.488   1.691   6.070
 3677SOL    HW211688   3.511   1.640   6.223
 3678SOL     OW11689   2.460   0.729   5.856
 3678SOL    HW111690   2.484   0.798   5.788
 3678SOL    HW211691   2.382   0.762   5.910
 3679SOL     OW11692   3.143   0.345   6.530
 3679SOL    HW111693   3.057   0.295   6.517
 3679SOL    HW211694   3.205   0.291   6.586
 3680SOL     OW11695   3.438   1.662   5.893
 3680SOL    HW111696   3.527   1.708   5.896
 3680SOL    HW211697   3.417   1.638   5.798
 3681SOL     OW11698   2.669   0.605   7.051
 3681SOL    HW111699   2.622   0.602   7.140
 3681SOL    HW211700   2.618   0.550   6.985
 3682SOL     OW11701   3.256   0.469   7.260
 3682SOL    HW111702   3.236   0.512   7.348
 3682SOL    HW211703   3.334   0.407   7.269
 3683SOL     OW11704   2.835   0.890   7.158
 3683SOL    HW111705   2.881   0.806   7.129
 3683SOL    HW211706   2.779   0.924   7.083
 3684SOL     OW11707   2.853   0.410   6.828
 3684SOL    HW111708   2.776   0.444   6.882
 3684SOL    HW211709   2.819   0.359   6.749
 3685SOL     OW11710   2.903   0.701   6.015
 3685SOL    HW111711   2.929   0.697   6.111
 3685SOL    HW211712   2.818   0.650   6.001
 3686SOL     OW11713   1.938   0.811   6.375
 3686SOL    HW111714   2.037   0.799   6.384
 3686SOL    HW211715   1.914   0.906   6.396
 3687SOL     OW11716   1.992   1.821   7.157
 3687SOL    HW111717   1.982   1.806   7.256
 3687SOL    HW211718   1.906   1.857   7.121
 3688SOL     OW11719   2.727   0.348   5.781
 3688SOL    HW111720   2.786   0.411   5.732
 3688SOL    HW211721   2.746   0.254   5.752
 3689SOL     OW11722   3.581   0.585   7.417
 3689SOL    HW111723   3.555   0.674   7.381
 3689SOL    HW211724   3.579   0.517   7.344
 3690SOL     OW11725   3.224   1.144   6.131
 3690SOL    HW111726   3.307   1.115   6.083
 3690SOL    HW211727   3.175   1.211   6.075
 3691SOL     OW11728   2.412   0.196   6.471
 3691SOL    HW111729   2.407   0.191   6.571
 3691SOL    HW211730   2.414   0.292   6.442
 3692SOL     OW11731   2.870   1.456   6.063
 3692SOL    HW111732   2.824   1.528   6.011
 3692SOL    HW211733   2.866   1.476   6.161
 3693SOL     OW11734   3.657   1.066   6.459
 3693SOL    HW111735   3.595   1.051   6.383
 3693SOL    HW211736   3.605   1.077   6.544
 3694SOL     OW11737   3.089   1.550   7.092
 3694SOL    HW111738   3.095   1.473   7.156
 3694SOL    HW211739   3.037   1.524   7.012
 3695SOL     OW11740   2.183   0.943   5.828
 3695SOL    HW111741   2.265   0.982   5.786
 3695SOL    HW211742   2.156   0.861   5.779
 3696SOL     OW11743   3.320   0.735   6.314
 3696SOL    HW111744   3.315   0.670   6.389
 3696SOL    HW211745   3.400   0.794   6.327
 3697SOL     OW11746   2.323   1.266   7.313
 3697SOL    HW111747   2.273   1.267   7.227
 3697SOL    HW211748   2.260   1.248   7.389
 3698SOL     OW11749   2.973   1.776   5.823
 3698SOL    HW111750   2.913   1.714   5.873
 3698SOL    HW211751   3.004   1.732   5.738
 3699SOL     OW11752   2.064   0.285   7.084
 3699SOL    HW111753   1.984   0.345   7.071
 3699SOL    HW211754   2.054   0.236   7.170
 3700SOL     OW11755   3.494   1.377   5.667
 3700SOL    HW111756   3.462   1.471   5.657
 3700SOL    HW211757   3.418   1.314   5.655
 3701SOL     OW11758   3.262   0.107   6.012
 3701SOL    HW111759   3.238   0.070   5.922
 3701SOL    HW211760   3.361   0.123   6.016
 3702SOL     OW11761   2.111   1.785   6.827
 3702SOL    HW111762   2.168   1.720   6.877
 3702SOL    HW211763   2.095   1.752   6.734
 3703SOL     OW11764   2.802   1.698   6.490
 3703SOL    HW111765   2.882   1.641   6.511
 3703SOL    HW211766   2.753   1.658   6.413
 3704SOL     OW11767   2.244   0.700   6.066
 3704SOL    HW111768   2.289   0.610   6.063
 3704SOL    HW211769   2.150   0.689   6.099
 3705SOL     OW11770   3.409   0.222   7.315
 3705SOL    HW111771   3.404   0.259   7.407
 3705SOL    HW211772   3.337   0.153   7.303
 3706SOL     OW11773   2.476   0.122   5.703
 3706SOL    HW111774   2.574   0.100   5.710
 3706SOL    HW211775   2.445   0.105   5.610
 3707SOL     OW11776   2.643   0.264   7.335
 3707SOL    HW111777   2.710   0.203   7.378
 3707SOL    HW211778   2.570   0.283   7.400
 3708SOL     OW11779   2.750   1.514   6.781
 3708SOL    HW111780   2.727   1.489   6.687
 3708SOL    HW211781   2.811   1.445   6.820
 3709SOL     OW11782   3.213   0.590   7.019
 3709SOL    HW111783   3.241   0.547   7.104
 3709SOL    HW211784   3.238   0.686   7.020
 3710SOL     OW11785   2.665   1.402   6.510
 3710SOL    HW111786   2.755   1.416   6.468
 3710SOL    HW211787   2.594   1.404   6.439
 3711SOL     OW11788   2.784   0.503   6.485
 3711SOL    HW111789   2.759   0.494   6.389
 3711SOL    HW211790   2.832   0.421   6.516
 3712SOL     OW11791   2.401   0.064   6.098
 3712SOL    HW111792   2.320   0.065   6.156
 3712SOL    HW211793   2.404   0.147   6.043
 3713SOL     OW11794   3.296   1.188   5.627
 3713SOL    HW111795   3.328   1.112   5.684
 3713SOL    HW211796   3.204   1.215   5.657
 3714SOL     OW11797   2.159   0.035   5.757
 3714SOL    HW111798   2.208   0.119   5.736
 3714SOL    HW211799   2.221  -0.030   5.802
 3715SOL     OW11800   2.797   0.236   6.066
 3715SOL    HW111801   2.749   0.277   5.988
 3715SOL    HW211802   2.896   0.234   6.047
 3716SOL     OW11803   2.938   0.683   7.050
 3716SOL    HW111804   2.858   0.622   7.053
 3716SOL    HW211805   3.019   0.630   7.026
 3717SOL     OW11806   3.089   1.570   6.379
 3717SOL    HW111807   3.110   1.644   6.314
 3717SOL    HW211808   3.157   1.570   6.452
 3718SOL     OW11809   2.321   1.152   6.327
 3718SOL    HW111810   2.250   1.125   6.392
 3718SOL    HW211811   2.295   1.124   6.234
 3719SOL     OW11812   3.133   1.797   6.177
 3719SOL    HW111813   3.177   1.861   6.113
 3719SOL    HW211814   3.083   1.849   6.247
 3720SOL     OW11815   2.894   0.549   5.602
 3720SOL    HW111816   2.853   0.631   5.563
 3720SOL    HW211817   2.958   0.575   5.675
 3721SOL     OW11818   1.940   0.556   6.972
 3721SOL    HW111819   2.032   0.555   6.931
 3721SOL    HW211820   1.934   0.630   7.039
 3722SOL     OW11821   2.423   0.222   6.733
 3722SOL    HW111822   2.461   0.138   6.770
 3722SOL    HW211823   2.335   0.241   6.777
 3723SOL     OW11824   2.728   0.454   6.228
 3723SOL    HW111825   2.696   0.526   6.166
 3723SOL    HW211826   2.752   0.373   6.175
 3724SOL     OW11827   2.879   0.039   6.339
 3724SOL    HW111828   2.807   0.044   6.270
 3724SOL    HW211829   2.855  -0.030   6.408
 3725SOL     OW11830   3.291   1.173   6.453
 3725SOL    HW111831   3.236   1.089   6.446
 3725SOL    HW211832   3.317   1.202   6.361
 3726SOL     OW11833   3.328   0.590   6.578
 3726SOL    HW111834   3.298   0.495   6.585
 3726SOL    HW211835   3.401   0.606   6.644
 3727SOL     OW11836   3.719   0.833   5.963
 3727SOL    HW111837   3.761   0.769   6.027
 3727SOL    HW211838   3.681   0.782   5.885
 3728SOL     OW11839   2.350   1.385   5.760
 3728SOL    HW111840   2.263   1.370   5.807
 3728SOL    HW211841   2.333   1.411   5.665
 3729SOL     OW11842   3.526   1.280   6.243
 3729SOL    HW111843   3.625   1.288   6.257
 3729SOL    HW211844   3.481   1.364   6.274
 3730SOL     OW11845   3.252   0.575   5.664
 3730SOL    HW111846   3.198   0.554   5.745
 3730SOL    HW211847   3.343   0.534   5.673
 3731SOL     OW11848   2.389   0.256   5.914
 3731SOL    HW111849   2.416   0.197   5.839
 3731SOL    HW211850   2.389   0.351   5.883
 3732SOL     OW11851   3.616   1.223   7.174
 3732SOL    HW111852   3.707   1.184   7.161
 3732SOL    HW211853   3.624   1.319   7.198
 3733SOL     OW11854   2.926   1.347   6.926
 3733SOL    HW111855   2.846   1.324   6.981
 3733SOL    HW211856   3.009   1.321   6.975
 3734SOL     OW11857   3.454   1.629   7.211
 3734SOL    HW111858   3.481   1.663   7.121
 3734SOL    HW211859   3.533   1.591   7.257
 3735SOL     OW11860   2.973   1.195   6.686
 3735SOL    HW111861   2.933   1.239   6.767
 3735SOL    HW211862   2.932   1.232   6.603
 3736SOL     OW11863   3.500   1.099   6.665
 3736SOL    HW111864   3.505   1.180   6.724
 3736SOL    HW211865   3.414   1.101   6.614
 3737SOL     OW11866   2.777   0.089   6.988
 3737SOL    HW111867   2.802   0.069   6.893
 3737SOL    HW211868   2.849   0.145   7.030
 3738SOL     OW11869   2.842   1.116   7.305
 3738SOL    HW111870   2.743   1.122   7.315
 3738SOL    HW211871   2.865   1.036   7.249
 3739SOL     OW11872   2.567   1.050   5.954
 3739SOL    HW111873   2.553   1.057   6.053
 3739SOL    HW211874   2.651   0.999   5.936
 3740SOL     OW11875   2.272   0.813   6.837
 3740SOL    HW111876   2.358   0.825   6.887
 3740SOL    HW211877   2.230   0.726   6.864
 3741SOL     OW11878   3.136   0.386   6.848
 3741SOL    HW111879   3.157   0.460   6.912
 3741SOL    HW211880   3.047   0.403   6.805
 3742SOL     OW11881   1.926   1.564   6.917
 3742SOL    HW111882   1.880   1.646   6.883
 3742SOL    HW211883   2.024   1.583   6.926
 3743SOL     OW11884   2.229   1.100   6.087
 3743SOL    HW111885   2.222   1.183   6.031
 3743SOL    HW211886   2.233   1.020   6.027
 3744SOL     OW11887   2.428   0.537   6.451
 3744SOL    HW111888   2.440   0.603   6.377
 3744SOL    HW211889   2.474   0.571   6.534
 3745SOL     OW11890   3.114   1.348   5.974
 3745SOL    HW111891   3.164   1.425   6.014
 3745SOL    HW211892   3.019   1.350   6.006
 3746SOL     OW11893   3.134   1.445   6.728
 3746SOL    HW111894   3.181   1.458   6.815
 3746SOL    HW211895   3.068   1.371   6.737
 3747SOL     OW11896   3.444   0.639   6.058
 3747SOL    HW111897   3.413   0.700   6.131
 3747SOL    HW211898   3.494   0.691   5.989
 3748SOL     OW11899   2.216   1.510   6.915
 3748SOL    HW111900   2.195   1.466   6.828
 3748SOL    HW211901   2.313   1.536   6.918
 3749SOL     OW11902   2.264   0.751   7.184
 3749SOL    HW111903   2.332   0.806   7.137
 3749SOL    HW211904   2.304   0.663   7.211
 3750SOL     OW11905   3.449   0.779   7.256
 3750SOL    HW111906   3.357   0.817   7.251
 3750SOL    HW211907   3.509   0.826   7.191
 3751SOL     OW11908   2.875   0.105   7.356
 3751SOL    HW111909   2.881   0.190   7.304
 3751SOL    HW211910   2.907   0.029   7.299
 3752SOL     OW11911   2.366   0.050   7.326
 3752SOL    HW111912   2.324  -0.007   7.256
 3752SOL    HW211913   2.300   0.119   7.358
 3753SOL     OW11914   2.435   0.870   6.615
 3753SOL    HW111915   2.479   0.959   6.606
 3753SOL    HW211916   2.372   0.870   6.692
 3754SOL     OW11917   3.222   0.862   6.631
 3754SOL    HW111918   3.147   0.862   6.565
 3754SOL    HW211919   3.259   0.770   6.640
 3755SOL     OW11920   3.071   0.525   5.861
 3755SOL    HW111921   3.084   0.441   5.915
 3755SOL    HW211922   3.042   0.599   5.921
 3756SOL     OW11923   2.169   0.213   6.817
 3756SOL    HW111924   2.146   0.250   6.907
 3756SOL    HW211925   2.139   0.118   6.811
 3757SOL     OW11926   1.899   1.310   6.868
 3757SOL    HW111927   1.952   1.261   6.936
 3757SOL    HW211928   1.921   1.408   6.873
 3758SOL     OW11929   2.594   0.634   6.650
 3758SOL    HW111930   2.653   0.608   6.574
 3758SOL    HW211931   2.566   0.730   6.639
 3759SOL     OW11932   3.590   0.935   7.440
 3759SOL    HW111933   3.544   0.928   7.351
 3759SOL    HW211934   3.528   0.979   7.506
 3760SOL     OW11935   2.169   0.063   6.204
 3760SOL    HW111936   2.158   0.157   6.237
 3760SOL    HW211937   2.164   0.000   6.281
 3761SOL     OW11938   3.484   0.367   5.960
 3761SOL    HW111939   3.486   0.291   6.024
 3761SOL    HW211940   3.436   0.444   6.000
 3762SOL     OW11941   2.885   0.766   6.552
 3762SOL    HW111942   2.900   0.787   6.648
 3762SOL    HW211943   2.855   0.671   6.543
 3763SOL     OW11944   2.842   1.573   7.286
 3763SOL    HW111945   2.822   1.617   7.198
 3763SOL    HW211946   2.881   1.482   7.270
 3764SOL     OW11947   3.721   1.518   7.191
 3764SOL    HW111948   3.735   1.545   7.096
 3764SOL    HW211949   3.804   1.540   7.244
 3765SOL     OW11950   2.212   0.898   7.390
 3765SOL    HW111951   2.288   0.942   7.438
 3765SOL    HW211952   2.247   0.851   7.308
 3766SOL     OW11953   3.402   0.274   5.711
 3766SOL    HW111954   3.341   0.199   5.734
 3766SOL    HW211955   3.424   0.326   5.794
 3767SOL     OW11956   3.165   0.838   5.628
 3767SOL    HW111957   3.199   0.745   5.643
 3767SOL    HW211958   3.183   0.865   5.533
 3768SOL     OW11959   2.930   1.333   6.435
 3768SOL    HW111960   2.937   1.249   6.380
 3768SOL    HW211961   2.992   1.402   6.399
 3769SOL     OW11962   2.181   0.810   6.535
 3769SOL    HW111963   2.274   0.846   6.540
 3769SOL    HW211964   2.175   0.725   6.587
 3770SOL     OW11965   2.201   0.509   6.592
 3770SOL    HW111966   2.149   0.426   6.575
 3770SOL    HW211967   2.278   0.514   6.528
 3771SOL     OW11968   3.000   0.380   7.264
 3771SOL    HW111969   2.955   0.443   7.328
 3771SOL    HW211970   3.093   0.411   7.247
 3772SOL     OW11971   3.022   0.207   7.063
 3772SOL    HW111972   3.022   0.271   7.140
 3772SOL    HW211973   3.050   0.255   6.980
 3773SOL     OW11974   1.870   1.326   5.786
 3773SOL    HW111975   1.777   1.347   5.755
 3773SOL    HW211976   1.880   1.227   5.799
 3774SOL     OW11977   1.950   1.801   6.513
 3774SOL    HW111978   1.908   1.715   6.486
 3774SOL    HW211979   2.044   1.804   6.479
 3775SOL     OW11980   2.366   1.568   6.496
 3775SOL    HW111981   2.432   1.642   6.505
 3775SOL    HW211982   2.410   1.489   6.454
 3776SOL     OW11983   2.864   0.796   6.824
 3776SOL    HW111984   2.905   0.764   6.910
 3776SOL    HW211985   2.768   0.769   6.821
 3777SOL     OW11986   1.902   0.544   6.700
 3777SOL    HW111987   1.987   0.511   6.659
 3777SOL    HW211988   1.915   0.559   6.798
 3778SOL     OW11989   2.051   0.520   7.308
 3778SOL    HW111990   2.110   0.480   7.238
 3778SOL    HW211991   1.993   0.591   7.267
 3779SOL     OW11992   3.231   0.950   7.246
 3779SOL    HW111993   3.270   1.039   7.266
 3779SOL    HW211994   3.241   0.930   7.149
 3780SOL     OW11995   2.677   0.572   5.911
 3780SOL    HW111996   2.684   0.483   5.865
 3780SOL    HW211997   2.583   0.606   5.903
 3781SOL     OW11998   3.519   0.604   6.792
 3781SOL    HW111999   3.481   0.535   6.854
 3781SOL    HW212000   3.601   0.568   6.748
 3782SOL     OW12001   2.114   1.564   7.330
 3782SOL    HW112002   2.084   1.621   7.406
 3782SOL    HW212003   2.107   1.467   7.356
 3783SOL     OW12004   2.533   0.464   6.855
 3783SOL    HW112005   2.499   0.375   6.825
 3783SOL    HW212006   2.559   0.518   6.775
 3784SOL     OW12007   2.792   1.678   7.051
 3784SOL    HW112008   2.768   1.660   6.956
 3784SOL    HW212009   2.822   1.772   7.061
 3785SOL     OW12010   2.335   0.500   5.777
 3785SOL    HW112011   2.396   0.580   5.781
 3785SOL    HW212012   2.240   0.531   5.784
 3786SOL     OW12013   2.021   1.137   7.052
 3786SOL    HW112014   2.043   1.076   7.128
 3786SOL    HW212015   2.031   1.088   6.966
 3787SOL     OW12016   3.209   1.059   6.820
 3787SOL    HW112017   3.233   0.996   6.746
 3787SOL    HW212018   3.119   1.099   6.802
 3788SOL     OW12019   3.164   0.855   5.895
 3788SOL    HW112020   3.078   0.824   5.937
 3788SOL    HW212021   3.160   0.841   5.796
 3789SOL     OW12022   3.621   1.747   6.740
 3789SOL    HW112023   3.682   1.777   6.667
 3789SOL    HW212024   3.583   1.658   6.718
 3790SOL     OW12025   3.114   1.731   6.714
 3790SOL    HW112026   3.198   1.736   6.660
 3790SOL    HW212027   3.091   1.635   6.732
 3791SOL     OW12028   1.945   1.258   6.608
 3791SOL    HW112029   1.940   1.257   6.708
 3791SOL    HW212030   1.862   1.217   6.570
 3792SOL     OW12031   2.550   1.662   7.302
 3792SOL    HW112032   2.494   1.743   7.311
 3792SOL    HW212033   2.602   1.666   7.216
 3793SOL     OW12034   3.588   0.135   6.109
 3793SOL    HW112035   3.661   0.118   6.042
 3793SOL    HW212036   3.557   0.048   6.147
 3794SOL     OW12037   3.250   1.573   6.063
 3794SOL    HW112038   3.317   1.585   5.989
 3794SOL    HW212039   3.210   1.662   6.086
 3795SOL     OW12040   1.992   1.794   7.437
 3795SOL    HW112041   1.951   1.720   7.490
 3795SOL    HW212042   2.056   1.845   7.495
 3796SOL     OW12043   3.142   0.927   6.258
 3796SOL    HW112044   3.202   0.846   6.260
 3796SOL    HW212045   3.182   0.996   6.198
 3797SOL     OW12046   2.692   1.273   7.008
 3797SOL    HW112047   2.687   1.306   7.103
 3797SOL    HW212048   2.606   1.292   6.962
 3798SOL     OW12049   3.512   1.720   6.980
 3798SOL    HW112050   3.565   1.730   6.896
 3798SOL    HW212051   3.485   1.810   7.014
 3799SOL     OW12052   3.703   0.175   6.549
 3799SOL    HW112053   3.742   0.090   6.513
 3799SOL    HW212054   3.605   0.177   6.530
 3800SOL     OW12055   2.125   0.326   6.306
 3800SOL    HW112056   2.046   0.377   6.272
 3800SOL    HW212057   2.116   0.311   6.404
 3801SOL     OW12058   2.684   1.002   6.958
 3801SOL    HW112059   2.724   1.001   6.866
 3801SOL    HW212060   2.694   1.094   6.998
 3802SOL     OW12061   2.778   0.910   5.877
 3802SOL    HW112062   2.841   0.948   5.809
 3802SOL    HW212063   2.818   0.827   5.916
 3803SOL     OW12064   3.366   1.607   5.630
 3803SOL    HW112065   3.274   1.644   5.637
 3803SOL    HW212066   3.404   1.627   5.540
 3804SOL     OW12067   2.234   1.288   7.076
 3804SOL    HW112068   2.221   1.381   7.042
 3804SOL    HW212069   2.150   1.236   7.063
 3805SOL     OW12070   3.476   1.292   6.875
 3805SOL    HW112071   3.536   1.295   6.955
 3805SOL    HW212072   3.401   1.356   6.888
 3806SOL     OW12073   2.901   1.098   6.282
 3806SOL    HW112074   2.831   1.051   6.336
 3806SOL    HW212075   2.960   1.030   6.239
 3807SOL     OW12076   2.876   0.236   6.557
 3807SOL    HW112077   2.868   0.200   6.464
 3807SOL    HW212078   2.874   0.160   6.622
 3808SOL     OW12079   2.452   1.487   6.077
 3808SOL    HW112080   2.494   1.429   6.007
 3808SOL    HW212081   2.408   1.566   6.033
 3809SOL     OW12082   3.571   0.385   6.967
 3809SOL    HW112083   3.644   0.454   6.971
 3809SOL    HW212084   3.599   0.310   6.908
 3810SOL     OW12085   2.117   1.348   5.876
 3810SOL    HW112086   2.021   1.349   5.849
 3810SOL    HW212087   2.129   1.401   5.960
 3811SOL     OW12088   1.967   1.013   7.312
 3811SOL    HW112089   1.890   0.980   7.366
 3811SOL    HW212090   2.052   0.983   7.354
 3812SOL     OW12091   2.534   0.203   7.075
 3812SOL    HW112092   2.624   0.187   7.035
 3812SOL    HW212093   2.542   0.208   7.174
 3813SOL     OW12094   1.937   0.345   5.619
 3813SOL    HW112095   1.845   0.317   5.590
 3813SOL    HW212096   1.968   0.422   5.563
 3814SOL     OW12097   3.302   0.856   6.984
 3814SOL    HW112098   3.245   0.908   6.921
 3814SOL    HW212099   3.398   0.868   6.960
 3815SOL     OW12100   1.934   0.166   5.904
 3815SOL    HW112101   1.917   0.249   5.850
 3815SOL    HW212102   2.024   0.129   5.882
 3816SOL     OW12103   3.045   1.335   5.705
 3816SOL    HW112104   2.946   1.324   5.707
 3816SOL    HW212105   3.079   1.350   5.798
 3817SOL     OW12106   2.475   0.842   7.017
 3817SOL    HW112107   2.531   0.923   7.000
 3817SOL    HW212108   2.534   0.762   7.020
 3818SOL     OW12109   3.355   1.767   6.545
 3818SOL    HW112110   3.388   1.831   6.476
 3818SOL    HW212111   3.421   1.761   6.620
 3819SOL     OW12112   2.578   0.565   7.294
 3819SOL    HW112113   2.597   0.630   7.368
 3819SOL    HW212114   2.638   0.485   7.303
 3820SOL     OW12115   3.312   1.220   7.219
 3820SOL    HW112116   3.303   1.210   7.318
 3820SOL    HW212117   3.408   1.213   7.193
 3821SOL     OW12118   2.252   1.741   7.146
 3821SOL    HW112119   2.161   1.782   7.144
 3821SOL    HW212120   2.245   1.647   7.178
 3822SOL     OW12121   3.536   0.883   6.840
 3822SOL    HW112122   3.509   0.794   6.803
 3822SOL    HW212123   3.537   0.951   6.767
 3823SOL     OW12124   3.087   0.325   6.035
 3823SOL    HW112125   3.152   0.251   6.024
 3823SOL    HW212126   3.107   0.375   6.119
 3824SOL     OW12127   2.456   0.745   6.238
 3824SOL    HW112128   2.506   0.830   6.219
 3824SOL    HW212129   2.368   0.747   6.190
 3825SOL     OW12130   3.639   0.342   7.228
 3825SOL    HW112131   3.622   0.373   7.134
 3825SOL    HW212132   3.555   0.305   7.266
 3826SOL     OW12133   3.592   0.934   7.103
 3826SOL    HW112134   3.630   1.025   7.118
 3826SOL    HW212135   3.584   0.917   7.004
 3827SOL     OW12136   2.523   1.790   6.539
 3827SOL    HW112137   2.477   1.878   6.526
 3827SOL    HW212138   2.622   1.802   6.532
 3828SOL     OW12139   2.721   0.956   6.447
 3828SOL    HW112140   2.775   0.887   6.495
 3828SOL    HW212141   2.689   1.025   6.513
 3829SOL     OW12142   2.945   0.984   5.673
 3829SOL    HW112143   2.922   1.037   5.591
 3829SOL    HW212144   3.026   0.928   5.654
 3830SOL     OW12145   3.723   1.569   6.437
 3830SOL    HW112146   3.652   1.557   6.367
 3830SOL    HW212147   3.724   1.490   6.497
 3831SOL     OW12148   2.083   1.314   7.430
 3831SOL    HW112149   2.018   1.241   7.409
 3831SOL    HW212150   2.087   1.328   7.528
 3832SOL     OW12151   1.941   1.240   6.239
 3832SOL    HW112152   1.940   1.193   6.327
 3832SOL    HW212153   2.023   1.212   6.188
 3833SOL     OW12154   2.534   1.391   7.210
 3833SOL    HW112155   2.456   1.341   7.248
 3833SOL    HW212156   2.531   1.486   7.241
 3834SOL     OW12157   3.686   0.192   6.813
 3834SOL    HW112158   3.682   0.102   6.857
 3834SOL    HW212159   3.689   0.181   6.714
 3835SOL     OW12160   2.290   0.424   6.106
 3835SOL    HW112161   2.320   0.352   6.044
 3835SOL    HW212162   2.251   0.384   6.189
 3836SOL     OW12163   3.567   1.487   6.690
 3836SOL    HW112164   3.474   1.462   6.663
 3836SOL    HW212165   3.593   1.437   6.772
 3837SOL     OW12166   2.179   0.547   6.866
 3837SOL    HW112167   2.217   0.488   6.938
 3837SOL    HW212168   2.219   0.521   6.778
 3838SOL     OW12169   2.674   1.586   6.273
 3838SOL    HW112170   2.706   1.596   6.179
 3838SOL    HW212171   2.595   1.524   6.275
 3839SOL     OW12172   3.286   0.214   6.698
 3839SOL    HW112173   3.338   0.149   6.753
 3839SOL    HW212174   3.237   0.277   6.759
 3840SOL     OW12175   2.863   0.034   6.740
 3840SOL    HW112176   2.800  -0.038   6.709
 3840SOL    HW212177   2.956  -0.002   6.740
 3841SOL     OW12178   2.632   1.330   5.887
 3841SOL    HW112179   2.586   1.243   5.904
 3841SOL    HW212180   2.723   1.327   5.928
 3842SOL     OW12181   2.480   1.567   6.870
 3842SOL    HW112182   2.475   1.649   6.927
 3842SOL    HW212183   2.569   1.564   6.825
 3843SOL     OW12184   3.214   0.052   5.754
 3843SOL    HW112185   3.249   0.011   5.670
 3843SOL    HW212186   3.124   0.014   5.774
 3844SOL     OW12187   3.162   0.453   6.277
 3844SOL    HW112188   3.103   0.533   6.281
 3844SOL    HW212189   3.177   0.418   6.370
 3845SOL     OW12190   3.455   0.221   6.468
 3845SOL    HW112191   3.371   0.220   6.522
 3845SOL    HW212192   3.457   0.304   6.412
 3846SOL     OW12193   1.901   1.077   5.886
 3846SOL    HW112194   2.000   1.066   5.877
 3846SOL    HW212195   1.861   0.991   5.918
 3847SOL     OW12196   2.737   1.646   5.923
 3847SOL    HW112197   2.660   1.611   5.869
 3847SOL    HW212198   2.705   1.717   5.985
 3848SOL     OW12199   2.092   0.628   7.561
 3848SOL    HW112200   1.999   0.626   7.598
 3848SOL    HW212201   2.093   0.589   7.469
 3849SOL     OW12202   2.087   0.275   8.444
 3849SOL    HW112203   2.122   0.258   8.536
 3849SOL    HW212204   1.999   0.230   8.432
 3850SOL     OW12205   1.881   0.368   8.095
 3850SOL    HW112206   1.799   0.411   8.134
 3850SOL    HW212207   1.853   0.295   8.032
 3851SOL     OW12208   2.431   1.275   8.613
 3851SOL    HW112209   2.338   1.268   8.576
 3851SOL    HW212210   2.442   1.364   8.657
 3852SOL     OW12211   3.417   1.511   8.151
 3852SOL    HW112212   3.360   1.495   8.232
 3852SOL    HW212213   3.358   1.521   8.071
 3853SOL     OW12214   2.997   0.703   8.165
 3853SOL    HW112215   3.054   0.781   8.140
 3853SOL    HW212216   2.937   0.729   8.241
 3854SOL     OW12217   3.617   0.607   7.679
 3854SOL    HW112218   3.605   0.594   7.580
 3854SOL    HW212219   3.587   0.526   7.728
 3855SOL     OW12220   2.630   1.144   8.471
 3855SOL    HW112221   2.552   1.161   8.531
 3855SOL    HW212222   2.664   1.231   8.435
 3856SOL     OW12223   2.712   0.798   9.271
 3856SOL    HW112224   2.708   0.874   9.336
 3856SOL    HW212225   2.734   0.834   9.180
 3857SOL     OW12226   2.547   1.012   8.113
 3857SOL    HW112227   2.616   0.996   8.183
 3857SOL    HW212228   2.474   1.069   8.151
 3858SOL     OW12229   2.548   1.161   9.251
 3858SOL    HW112230   2.608   1.240   9.265
 3858SOL    HW212231   2.462   1.192   9.210
 3859SOL     OW12232   2.197   1.435   8.509
 3859SOL    HW112233   2.119   1.404   8.456
 3859SOL    HW212234   2.255   1.493   8.452
 3860SOL     OW12235   3.322   1.505   8.787
 3860SOL    HW112236   3.346   1.599   8.813
 3860SOL    HW212237   3.306   1.451   8.869
 3861SOL     OW12238   2.300   0.392   8.947
 3861SOL    HW112239   2.382   0.336   8.956
 3861SOL    HW212240   2.219   0.334   8.951
 3862SOL     OW12241   3.465   0.447   8.185
 3862SOL    HW112242   3.391   0.493   8.135
 3862SOL    HW212243   3.516   0.515   8.238
 3863SOL     OW12244   2.093   1.713   7.931
 3863SOL    HW112245   2.127   1.790   7.985
 3863SOL    HW212246   2.137   1.713   7.841
 3864SOL     OW12247   2.989   1.341   9.138
 3864SOL    HW112248   3.036   1.341   9.226
 3864SOL    HW212249   2.941   1.254   9.127
 3865SOL     OW12250   2.092   1.434   7.986
 3865SOL    HW112251   2.066   1.530   7.986
 3865SOL    HW212252   2.021   1.380   8.031
 3866SOL     OW12253   2.102   1.091   8.334
 3866SOL    HW112254   2.116   1.007   8.386
 3866SOL    HW212255   2.047   1.155   8.389
 3867SOL     OW12256   2.482   1.786   8.887
 3867SOL    HW112257   2.390   1.769   8.922
 3867SOL    HW212258   2.510   1.878   8.913
 3868SOL     OW12259   2.468   0.964   7.571
 3868SOL    HW112260   2.475   1.048   7.517
 3868SOL    HW212261   2.514   0.977   7.659
 3869SOL     OW12262   3.456   0.114   8.928
 3869SOL    HW112263   3.438   0.181   8.856
 3869SOL    HW212264   3.453   0.160   9.017
 3870SOL     OW12265   1.984   0.643   8.011
 3870SOL    HW112266   1.939   0.555   8.028
 3870SOL    HW212267   1.983   0.697   8.095
 3871SOL     OW12268   3.704   1.767   7.807
 3871SOL    HW112269   3.758   1.738   7.887
 3871SOL    HW212270   3.734   1.857   7.778
 3872SOL     OW12271   1.889   1.596   7.565
 3872SOL    HW112272   1.870   1.500   7.586
 3872SOL    HW212273   1.856   1.654   7.640
 3873SOL     OW12274   3.551   0.922   8.060
 3873SOL    HW112275   3.646   0.893   8.068
 3873SOL    HW212276   3.543   0.987   7.985
 3874SOL     OW12277   3.503   1.108   7.880
 3874SOL    HW112278   3.589   1.110   7.828
 3874SOL    HW212279   3.517   1.155   7.968
 3875SOL     OW12280   1.975   0.737   9.045
 3875SOL    HW112281   2.063   0.724   9.090
 3875SOL    HW212282   1.962   0.834   9.023
 3876SOL     OW12283   2.475   1.365   8.174
 3876SOL    HW112284   2.426   1.278   8.183
 3876SOL    HW212285   2.452   1.408   8.087
 3877SOL     OW12286   3.155   1.228   8.871
 3877SOL    HW112287   3.192   1.155   8.813
 3877SOL    HW212288   3.207   1.233   8.956
 3878SOL     OW12289   2.671   0.004   7.950
 3878SOL    HW112290   2.711   0.095   7.941
 3878SOL    HW212291   2.571   0.012   7.956
 3879SOL     OW12292   2.059   0.976   8.712
 3879SOL    HW112293   2.148   0.931   8.698
 3879SOL    HW212294   1.986   0.911   8.693
 3880SOL     OW12295   3.387   0.999   7.638
 3880SOL    HW112296   3.324   0.923   7.651
 3880SOL    HW212297   3.435   1.017   7.724
 3881SOL     OW12298   3.049   1.792   9.064
 3881SOL    HW112299   3.073   1.852   8.988
 3881SOL    HW212300   3.056   1.697   9.034
 3882SOL     OW12301   2.179   0.251   9.249
 3882SOL    HW112302   2.250   0.322   9.255
 3882SOL    HW212303   2.091   0.290   9.277
 3883SOL     OW12304   3.328   1.417   8.401
 3883SOL    HW112305   3.269   1.423   8.481
 3883SOL    HW212306   3.313   1.329   8.355
 3884SOL     OW12307   3.529   1.714   8.020
 3884SOL    HW112308   3.488   1.691   7.932
 3884SOL    HW212309   3.511   1.640   8.085
 3885SOL     OW12310   2.460   0.729   7.718
 3885SOL    HW112311   2.484   0.798   7.650
 3885SOL    HW212312   2.382   0.762   7.772
 3886SOL     OW12313   3.143   0.345   8.392
 3886SOL    HW112314   3.057   0.295   8.379
 3886SOL    HW212315   3.205   0.291   8.448
 3887SOL     OW12316   3.438   1.662   7.755
 3887SOL    HW112317   3.527   1.708   7.758
 3887SOL    HW212318   3.417   1.638   7.660
 3888SOL     OW12319   2.669   0.605   8.913
 3888SOL    HW112320   2.622   0.602   9.002
 3888SOL    HW212321   2.618   0.550   8.847
 3889SOL     OW12322   3.256   0.469   9.122
 3889SOL    HW112323   3.236   0.512   9.210
 3889SOL    HW212324   3.334   0.407   9.131
 3890SOL     OW12325   2.835   0.890   9.020
 3890SOL    HW112326   2.881   0.806   8.991
 3890SOL    HW212327   2.779   0.924   8.945
 3891SOL     OW12328   2.853   0.410   8.690
 3891SOL    HW112329   2.776   0.444   8.744
 3891SOL    HW212330   2.819   0.359   8.611
 3892SOL     OW12331   2.903   0.701   7.877
 3892SOL    HW112332   2.929   0.697   7.973
 3892SOL    HW212333   2.818   0.650   7.863
 3893SOL     OW12334   1.938   0.811   8.237
 3893SOL    HW112335   2.037   0.799   8.246
 3893SOL    HW212336   1.914   0.906   8.258
 3894SOL     OW12337   1.992   1.821   9.019
 3894SOL    HW112338   1.982   1.806   9.118
 3894SOL    HW212339   1.906   1.857   8.983
 3895SOL     OW12340   2.727   0.348   7.643
 3895SOL    HW112341   2.786   0.411   7.594
 3895SOL    HW212342   2.746   0.254   7.614
 3896SOL     OW12343   3.581   0.585   9.279
 3896SOL    HW112344   3.555   0.674   9.243
 3896SOL    HW212345   3.579   0.517   9.206
 3897SOL     OW12346   3.224   1.144   7.993
 3897SOL    HW112347   3.307   1.115   7.945
 3897SOL    HW212348   3.175   1.211   7.937
 3898SOL     OW12349   2.412   0.196   8.333
 3898SOL    HW112350   2.407   0.191   8.433
 3898SOL    HW212351   2.414   0.292   8.304
 3899SOL     OW12352   2.870   1.456   7.925
 3899SOL    HW112353   2.824   1.528   7.873
 3899SOL    HW212354   2.866   1.476   8.023
 3900SOL     OW12355   2.213   1.801   8.301
 3900SOL    HW112356   2.263   1.715   8.307
 3900SOL    HW212357   2.278   1.878   8.298
 3901SOL     OW12358   3.657   1.066   8.321
 3901SOL    HW112359   3.595   1.051   8.245
 3901SOL    HW212360   3.605   1.077   8.406
 3902SOL     OW12361   3.089   1.550   8.954
 3902SOL    HW112362   3.095   1.473   9.018
 3902SOL    HW212363   3.037   1.524   8.874
 3903SOL     OW12364   2.183   0.943   7.690
 3903SOL    HW112365   2.265   0.982   7.648
 3903SOL    HW212366   2.156   0.861   7.641
 3904SOL     OW12367   3.320   0.735   8.176
 3904SOL    HW112368   3.315   0.670   8.251
 3904SOL    HW212369   3.400   0.794   8.189
 3905SOL     OW12370   2.323   1.266   9.175
 3905SOL    HW112371   2.273   1.267   9.089
 3905SOL    HW212372   2.260   1.248   9.251
 3906SOL     OW12373   2.973   1.776   7.685
 3906SOL    HW112374   2.913   1.714   7.735
 3906SOL    HW212375   3.004   1.732   7.600
 3907SOL     OW12376   2.064   0.285   8.946
 3907SOL    HW112377   1.984   0.345   8.933
 3907SOL    HW212378   2.054   0.236   9.032
 3908SOL     OW12379   3.494   1.377   7.529
 3908SOL    HW112380   3.462   1.471   7.519
 3908SOL    HW212381   3.418   1.314   7.517
 3909SOL     OW12382   2.326   1.743   7.771
 3909SOL    HW112383   2.359   1.782   7.857
 3909SOL    HW212384   2.402   1.736   7.706
 3910SOL     OW12385   3.262   0.107   7.874
 3910SOL    HW112386   3.238   0.070   7.784
 3910SOL    HW212387   3.361   0.123   7.878
 3911SOL     OW12388   2.111   1.785   8.689
 3911SOL    HW112389   2.168   1.720   8.739
 3911SOL    HW212390   2.095   1.752   8.596
 3912SOL     OW12391   2.802   1.698   8.352
 3912SOL    HW112392   2.882   1.641   8.373
 3912SOL    HW212393   2.753   1.658   8.275
 3913SOL     OW12394   2.244   0.700   7.928
 3913SOL    HW112395   2.289   0.610   7.925
 3913SOL    HW212396   2.150   0.689   7.961
 3914SOL     OW12397   3.409   0.222   9.177
 3914SOL    HW112398   3.404   0.259   9.269
 3914SOL    HW212399   3.337   0.153   9.165
 3915SOL     OW12400   2.476   0.122   7.565
 3915SOL    HW112401   2.574   0.100   7.572
 3915SOL    HW212402   2.445   0.105   7.472
 3916SOL     OW12403   2.643   0.264   9.197
 3916SOL    HW112404   2.710   0.203   9.240
 3916SOL    HW212405   2.570   0.283   9.262
 3917SOL     OW12406   2.750   1.514   8.643
 3917SOL    HW112407   2.727   1.489   8.549
 3917SOL    HW212408   2.811   1.445   8.682
 3918SOL     OW12409   3.213   0.590   8.881
 3918SOL    HW112410   3.241   0.547   8.966
 3918SOL    HW212411   3.238   0.686   8.882
 3919SOL     OW12412   2.665   1.402   8.372
 3919SOL    HW112413   2.755   1.416   8.330
 3919SOL    HW212414   2.594   1.404   8.301
 3920SOL     OW12415   2.784   0.503   8.347
 3920SOL    HW112416   2.759   0.494   8.251
 3920SOL    HW212417   2.832   0.421   8.378
 3921SOL     OW12418   2.401   0.064   7.960
 3921SOL    HW112419   2.320   0.065   8.018
 3921SOL    HW212420   2.404   0.147   7.905
 3922SOL     OW12421   3.296   1.188   7.489
 3922SOL    HW112422   3.328   1.112   7.546
 3922SOL    HW212423   3.204   1.215   7.519
 3923SOL     OW12424   2.159   0.035   7.619
 3923SOL    HW112425   2.208   0.119   7.598
 3923SOL    HW212426   2.221  -0.030   7.664
 3924SOL     OW12427   2.797   0.236   7.928
 3924SOL    HW112428   2.749   0.277   7.850
 3924SOL    HW212429   2.896   0.234   7.909
 3925SOL     OW12430   2.938   0.683   8.912
 3925SOL    HW112431   2.858   0.622   8.915
 3925SOL    HW212432   3.019   0.630   8.888
 3926SOL     OW12433   3.089   1.570   8.241
 3926SOL    HW112434   3.110   1.644   8.176
 3926SOL    HW212435   3.157   1.570   8.314
 3927SOL     OW12436   2.321   1.152   8.189
 3927SOL    HW112437   2.250   1.125   8.254
 3927SOL    HW212438   2.295   1.124   8.096
 3928SOL     OW12439   3.133   1.797   8.039
 3928SOL    HW112440   3.177   1.861   7.975
 3928SOL    HW212441   3.083   1.849   8.109
 3929SOL     OW12442   2.894   0.549   7.464
 3929SOL    HW112443   2.853   0.631   7.425
 3929SOL    HW212444   2.958   0.575   7.537
 3930SOL     OW12445   1.940   0.556   8.834
 3930SOL    HW112446   2.032   0.555   8.793
 3930SOL    HW212447   1.934   0.630   8.901
 3931SOL     OW12448   2.423   0.222   8.595
 3931SOL    HW112449   2.461   0.138   8.632
 3931SOL    HW212450   2.335   0.241   8.639
 3932SOL     OW12451   2.728   0.454   8.090
 3932SOL    HW112452   2.696   0.526   8.028
 3932SOL    HW212453   2.752   0.373   8.037
 3933SOL     OW12454   2.879   0.039   8.201
 3933SOL    HW112455   2.807   0.044   8.132
 3933SOL    HW212456   2.855  -0.030   8.270
 3934SOL     OW12457   3.291   1.173   8.315
 3934SOL    HW112458   3.236   1.089   8.308
 3934SOL    HW212459   3.317   1.202   8.223
 3935SOL     OW12460   3.328   0.590   8.440
 3935SOL    HW112461   3.298   0.495   8.447
 3935SOL    HW212462   3.401   0.606   8.506
 3936SOL     OW12463   3.719   0.833   7.825
 3936SOL    HW112464   3.761   0.769   7.889
 3936SOL    HW212465   3.681   0.782   7.747
 3937SOL     OW12466   2.350   1.385   7.622
 3937SOL    HW112467   2.263   1.370   7.669
 3937SOL    HW212468   2.333   1.411   7.527
 3938SOL     OW12469   3.526   1.280   8.105
 3938SOL    HW112470   3.625   1.288   8.119
 3938SOL    HW212471   3.481   1.364   8.136
 3939SOL     OW12472   3.252   0.575   7.526
 3939SOL    HW112473   3.198   0.554   7.607
 3939SOL    HW212474   3.343   0.534   7.535
 3940SOL     OW12475   2.389   0.256   7.776
 3940SOL    HW112476   2.416   0.197   7.701
 3940SOL    HW212477   2.389   0.351   7.745
 3941SOL     OW12478   3.616   1.223   9.036
 3941SOL    HW112479   3.707   1.184   9.023
 3941SOL    HW212480   3.624   1.319   9.060
 3942SOL     OW12481   2.926   1.347   8.788
 3942SOL    HW112482   2.846   1.324   8.843
 3942SOL    HW212483   3.009   1.321   8.837
 3943SOL     OW12484   3.454   1.629   9.073
 3943SOL    HW112485   3.481   1.663   8.983
 3943SOL    HW212486   3.533   1.591   9.119
 3944SOL     OW12487   2.973   1.195   8.548
 3944SOL    HW112488   2.933   1.239   8.629
 3944SOL    HW212489   2.932   1.232   8.465
 3945SOL     OW12490   3.500   1.099   8.527
 3945SOL    HW112491   3.505   1.180   8.586
 3945SOL    HW212492   3.414   1.101   8.476
 3946SOL     OW12493   2.777   0.089   8.850
 3946SOL    HW112494   2.802   0.069   8.755
 3946SOL    HW212495   2.849   0.145   8.892
 3947SOL     OW12496   2.842   1.116   9.167
 3947SOL    HW112497   2.743   1.122   9.177
 3947SOL    HW212498   2.865   1.036   9.111
 3948SOL     OW12499   2.567   1.050   7.816
 3948SOL    HW112500   2.553   1.057   7.915
 3948SOL    HW212501   2.651   0.999   7.798
 3949SOL     OW12502   2.272   0.813   8.699
 3949SOL    HW112503   2.358   0.825   8.749
 3949SOL    HW212504   2.230   0.726   8.726
 3950SOL     OW12505   3.136   0.386   8.710
 3950SOL    HW112506   3.157   0.460   8.774
 3950SOL    HW212507   3.047   0.403   8.667
 3951SOL     OW12508   1.926   1.564   8.779
 3951SOL    HW112509   1.880   1.646   8.745
 3951SOL    HW212510   2.024   1.583   8.788
 3952SOL     OW12511   2.229   1.100   7.949
 3952SOL    HW112512   2.222   1.183   7.893
 3952SOL    HW212513   2.233   1.020   7.889
 3953SOL     OW12514   2.428   0.537   8.313
 3953SOL    HW112515   2.440   0.603   8.239
 3953SOL    HW212516   2.474   0.571   8.396
 3954SOL     OW12517   3.114   1.348   7.836
 3954SOL    HW112518   3.164   1.425   7.876
 3954SOL    HW212519   3.019   1.350   7.868
 3955SOL     OW12520   3.134   1.445   8.590
 3955SOL    HW112521   3.181   1.458   8.677
 3955SOL    HW212522   3.068   1.371   8.599
 3956SOL     OW12523   3.444   0.639   7.920
 3956SOL    HW112524   3.413   0.700   7.993
 3956SOL    HW212525   3.494   0.691   7.851
 3957SOL     OW12526   2.216   1.510   8.777
 3957SOL    HW112527   2.195   1.466   8.690
 3957SOL    HW212528   2.313   1.536   8.780
 3958SOL     OW12529   2.264   0.751   9.046
 3958SOL    HW112530   2.332   0.806   8.999
 3958SOL    HW212531   2.304   0.663   9.073
 3959SOL     OW12532   3.449   0.779   9.118
 3959SOL    HW112533   3.357   0.817   9.113
 3959SOL    HW212534   3.509   0.826   9.053
 3960SOL     OW12535   2.875   0.105   9.218
 3960SOL    HW112536   2.881   0.190   9.166
 3960SOL    HW212537   2.907   0.029   9.161
 3961SOL     OW12538   2.366   0.050   9.188
 3961SOL    HW112539   2.324  -0.007   9.118
 3961SOL    HW212540   2.300   0.119   9.220
 3962SOL     OW12541   2.435   0.870   8.477
 3962SOL    HW112542   2.479   0.959   8.468
 3962SOL    HW212543   2.372   0.870   8.554
 3963SOL     OW12544   3.222   0.862   8.493
 3963SOL    HW112545   3.147   0.862   8.427
 3963SOL    HW212546   3.259   0.770   8.502
 3964SOL     OW12547   3.071   0.525   7.723
 3964SOL    HW112548   3.084   0.441   7.777
 3964SOL    HW212549   3.042   0.599   7.783
 3965SOL     OW12550   2.169   0.213   8.679
 3965SOL    HW112551   2.146   0.250   8.769
 3965SOL    HW212552   2.139   0.118   8.673
 3966SOL     OW12553   1.899   1.310   8.730
 3966SOL    HW112554   1.952   1.261   8.798
 3966SOL    HW212555   1.921   1.408   8.735
 3967SOL     OW12556   2.594   0.634   8.512
 3967SOL    HW112557   2.653   0.608   8.436
 3967SOL    HW212558   2.566   0.730   8.501
 3968SOL     OW12559   3.590   0.935   9.302
 3968SOL    HW112560   3.544   0.928   9.213
 3968SOL    HW212561   3.528   0.979   9.368
 3969SOL     OW12562   2.169   0.063   8.066
 3969SOL    HW112563   2.158   0.157   8.099
 3969SOL    HW212564   2.164   0.000   8.143
 3970SOL     OW12565   3.484   0.367   7.822
 3970SOL    HW112566   3.486   0.291   7.886
 3970SOL    HW212567   3.436   0.444   7.862
 3971SOL     OW12568   2.885   0.766   8.414
 3971SOL    HW112569   2.900   0.787   8.510
 3971SOL    HW212570   2.855   0.671   8.405
 3972SOL     OW12571   2.842   1.573   9.148
 3972SOL    HW112572   2.822   1.617   9.060
 3972SOL    HW212573   2.881   1.482   9.132
 3973SOL     OW12574   3.721   1.518   9.053
 3973SOL    HW112575   3.735   1.545   8.958
 3973SOL    HW212576   3.804   1.540   9.106
 3974SOL     OW12577   2.212   0.898   9.252
 3974SOL    HW112578   2.288   0.942   9.300
 3974SOL    HW212579   2.247   0.851   9.170
 3975SOL     OW12580   3.402   0.274   7.573
 3975SOL    HW112581   3.341   0.199   7.596
 3975SOL    HW212582   3.424   0.326   7.656
 3976SOL     OW12583   3.165   0.838   7.490
 3976SOL    HW112584   3.199   0.745   7.505
 3976SOL    HW212585   3.183   0.865   7.395
 3977SOL     OW12586   2.930   1.333   8.297
 3977SOL    HW112587   2.937   1.249   8.242
 3977SOL    HW212588   2.992   1.402   8.261
 3978SOL     OW12589   2.181   0.810   8.397
 3978SOL    HW112590   2.274   0.846   8.402
 3978SOL    HW212591   2.175   0.725   8.449
 3979SOL     OW12592   2.201   0.509   8.454
 3979SOL    HW112593   2.149   0.426   8.437
 3979SOL    HW212594   2.278   0.514   8.390
 3980SOL     OW12595   3.000   0.380   9.126
 3980SOL    HW112596   2.955   0.443   9.190
 3980SOL    HW212597   3.093   0.411   9.109
 3981SOL     OW12598   3.022   0.207   8.925
 3981SOL    HW112599   3.022   0.271   9.002
 3981SOL    HW212600   3.050   0.255   8.842
 3982SOL     OW12601   1.870   1.326   7.648
 3982SOL    HW112602   1.777   1.347   7.617
 3982SOL    HW212603   1.880   1.227   7.661
 3983SOL     OW12604   1.950   1.801   8.375
 3983SOL    HW112605   1.908   1.715   8.348
 3983SOL    HW212606   2.044   1.804   8.341
 3984SOL     OW12607   2.366   1.568   8.358
 3984SOL    HW112608   2.432   1.642   8.367
 3984SOL    HW212609   2.410   1.489   8.316
 3985SOL     OW12610   2.864   0.796   8.686
 3985SOL    HW112611   2.905   0.764   8.772
 3985SOL    HW212612   2.768   0.769   8.683
 3986SOL     OW12613   1.902   0.544   8.562
 3986SOL    HW112614   1.987   0.511   8.521
 3986SOL    HW212615   1.915   0.559   8.660
 3987SOL     OW12616   2.051   0.520   9.170
 3987SOL    HW112617   2.110   0.480   9.100
 3987SOL    HW212618   1.993   0.591   9.129
 3988SOL     OW12619   3.231   0.950   9.108
 3988SOL    HW112620   3.270   1.039   9.128
 3988SOL    HW212621   3.241   0.930   9.011
 3989SOL     OW12622   2.677   0.572   7.773
 3989SOL    HW112623   2.684   0.483   7.727
 3989SOL    HW212624   2.583   0.606   7.765
 3990SOL     OW12625   3.519   0.604   8.654
 3990SOL    HW112626   3.481   0.535   8.716
 3990SOL    HW212627   3.601   0.568   8.610
 3991SOL     OW12628   2.114   1.564   9.192
 3991SOL    HW112629   2.084   1.621   9.268
 3991SOL    HW212630   2.107   1.467   9.218
 3992SOL     OW12631   2.533   0.464   8.717
 3992SOL    HW112632   2.499   0.375   8.687
 3992SOL    HW212633   2.559   0.518   8.637
 3993SOL     OW12634   2.792   1.678   8.913
 3993SOL    HW112635   2.768   1.660   8.818
 3993SOL    HW212636   2.822   1.772   8.923
 3994SOL     OW12637   2.335   0.500   7.639
 3994SOL    HW112638   2.396   0.580   7.643
 3994SOL    HW212639   2.240   0.531   7.646
 3995SOL     OW12640   2.021   1.137   8.914
 3995SOL    HW112641   2.043   1.076   8.990
 3995SOL    HW212642   2.031   1.088   8.828
 3996SOL     OW12643   3.209   1.059   8.682
 3996SOL    HW112644   3.233   0.996   8.608
 3996SOL    HW212645   3.119   1.099   8.664
 3997SOL     OW12646   3.164   0.855   7.757
 3997SOL    HW112647   3.078   0.824   7.799
 3997SOL    HW212648   3.160   0.841   7.658
 3998SOL     OW12649   3.621   1.747   8.602
 3998SOL    HW112650   3.682   1.777   8.529
 3998SOL    HW212651   3.583   1.658   8.580
 3999SOL     OW12652   3.114   1.731   8.576
 3999SOL    HW112653   3.198   1.736   8.522
 3999SOL    HW212654   3.091   1.635   8.594
 4000SOL     OW12655   1.945   1.258   8.470
 4000SOL    HW112656   1.940   1.257   8.570
 4000SOL    HW212657   1.862   1.217   8.432
 4001SOL     OW12658   2.550   1.662   9.164
 4001SOL    HW112659   2.494   1.743   9.173
 4001SOL    HW212660   2.602   1.666   9.078
 4002SOL     OW12661   3.588   0.135   7.971
 4002SOL    HW112662   3.661   0.118   7.904
 4002SOL    HW212663   3.557   0.048   8.009
 4003SOL     OW12664   3.250   1.573   7.925
 4003SOL    HW112665   3.317   1.585   7.851
 4003SOL    HW212666   3.210   1.662   7.948
 4004SOL     OW12667   1.992   1.794   9.299
 4004SOL    HW112668   1.951   1.720   9.352
 4004SOL    HW212669   2.056   1.845   9.357
 4005SOL     OW12670   3.142   0.927   8.120
 4005SOL    HW112671   3.202   0.846   8.122
 4005SOL    HW212672   3.182   0.996   8.060
 4006SOL     OW12673   2.692   1.273   8.870
 4006SOL    HW112674   2.687   1.306   8.965
 4006SOL    HW212675   2.606   1.292   8.824
 4007SOL     OW12676   2.534   1.616   7.602
 4007SOL    HW112677   2.543   1.626   7.503
 4007SOL    HW212678   2.494   1.527   7.623
 4008SOL     OW12679   3.512   1.720   8.842
 4008SOL    HW112680   3.565   1.730   8.758
 4008SOL    HW212681   3.485   1.810   8.876
 4009SOL     OW12682   3.703   0.175   8.411
 4009SOL    HW112683   3.742   0.090   8.375
 4009SOL    HW212684   3.605   0.177   8.392
 4010SOL     OW12685   2.125   0.326   8.168
 4010SOL    HW112686   2.046   0.377   8.134
 4010SOL    HW212687   2.116   0.311   8.266
 4011SOL     OW12688   3.056   1.612   7.479
 4011SOL    HW112689   3.062   1.519   7.516
 4011SOL    HW212690   2.997   1.612   7.399
 4012SOL     OW12691   2.684   1.002   8.820
 4012SOL    HW112692   2.724   1.001   8.728
 4012SOL    HW212693   2.694   1.094   8.860
 4013SOL     OW12694   2.778   0.910   7.739
 4013SOL    HW112695   2.841   0.948   7.671
 4013SOL    HW212696   2.818   0.827   7.778
 4014SOL     OW12697   3.366   1.607   7.492
 4014SOL    HW112698   3.274   1.644   7.499
 4014SOL    HW212699   3.404   1.627   7.402
 4015SOL     OW12700   2.234   1.288   8.938
 4015SOL    HW112701   2.221   1.381   8.904
 4015SOL    HW212702   2.150   1.236   8.925
 4016SOL     OW12703   3.476   1.292   8.737
 4016SOL    HW112704   3.536   1.295   8.817
 4016SOL    HW212705   3.401   1.356   8.750
 4017SOL     OW12706   2.901   1.098   8.144
 4017SOL    HW112707   2.831   1.051   8.198
 4017SOL    HW212708   2.960   1.030   8.101
 4018SOL     OW12709   2.876   0.236   8.419
 4018SOL    HW112710   2.868   0.200   8.326
 4018SOL    HW212711   2.874   0.160   8.484
 4019SOL     OW12712   2.452   1.487   7.939
 4019SOL    HW112713   2.494   1.429   7.869
 4019SOL    HW212714   2.408   1.566   7.895
 4020SOL     OW12715   3.571   0.385   8.829
 4020SOL    HW112716   3.644   0.454   8.833
 4020SOL    HW212717   3.599   0.310   8.770
 4021SOL     OW12718   2.117   1.348   7.738
 4021SOL    HW112719   2.021   1.349   7.711
 4021SOL    HW212720   2.129   1.401   7.822
 4022SOL     OW12721   1.967   1.013   9.174
 4022SOL    HW112722   1.890   0.980   9.228
 4022SOL    HW212723   2.052   0.983   9.216
 4023SOL     OW12724   2.534   0.203   8.937
 4023SOL    HW112725   2.624   0.187   8.897
 4023SOL    HW212726   2.542   0.208   9.036
 4024SOL     OW12727   1.937   0.345   7.481
 4024SOL    HW112728   1.845   0.317   7.452
 4024SOL    HW212729   1.968   0.422   7.425
 4025SOL     OW12730   3.302   0.856   8.846
 4025SOL    HW112731   3.245   0.908   8.783
 4025SOL    HW212732   3.398   0.868   8.822
 4026SOL     OW12733   1.934   0.166   7.766
 4026SOL    HW112734   1.917   0.249   7.712
 4026SOL    HW212735   2.024   0.129   7.744
 4027SOL     OW12736   3.045   1.335   7.567
 4027SOL    HW112737   2.946   1.324   7.569
 4027SOL    HW212738   3.079   1.350   7.660
 4028SOL     OW12739   2.475   0.842   8.879
 4028SOL    HW112740   2.531   0.923   8.862
 4028SOL    HW212741   2.534   0.762   8.882
 4029SOL     OW12742   3.355   1.767   8.407
 4029SOL    HW112743   3.388   1.831   8.338
 4029SOL    HW212744   3.421   1.761   8.482
 4030SOL     OW12745   2.578   0.565   9.156
 4030SOL    HW112746   2.597   0.630   9.230
 4030SOL    HW212747   2.638   0.485   9.165
 4031SOL     OW12748   3.312   1.220   9.081
 4031SOL    HW112749   3.303   1.210   9.180
 4031SOL    HW212750   3.408   1.213   9.055
 4032SOL     OW12751   2.252   1.741   9.008
 4032SOL    HW112752   2.161   1.782   9.006
 4032SOL    HW212753   2.245   1.647   9.040
 4033SOL     OW12754   3.536   0.883   8.702
 4033SOL    HW112755   3.509   0.794   8.665
 4033SOL    HW212756   3.537   0.951   8.629
 4034SOL     OW12757   3.087   0.325   7.897
 4034SOL    HW112758   3.152   0.251   7.886
 4034SOL    HW212759   3.107   0.375   7.981
 4035SOL     OW12760   2.456   0.745   8.100
 4035SOL    HW112761   2.506   0.830   8.081
 4035SOL    HW212762   2.368   0.747   8.052
 4036SOL     OW12763   3.639   0.342   9.090
 4036SOL    HW112764   3.622   0.373   8.996
 4036SOL    HW212765   3.555   0.305   9.128
 4037SOL     OW12766   3.592   0.934   8.965
 4037SOL    HW112767   3.630   1.025   8.980
 4037SOL    HW212768   3.584   0.917   8.866
 4038SOL     OW12769   2.721   1.374   7.464
 4038SOL    HW112770   2.675   1.389   7.552
 4038SOL    HW212771   2.765   1.459   7.434
 4039SOL     OW12772   2.523   1.790   8.401
 4039SOL    HW112773   2.477   1.878   8.388
 4039SOL    HW212774   2.622   1.802   8.394
 4040SOL     OW12775   2.721   0.956   8.309
 4040SOL    HW112776   2.775   0.887   8.357
 4040SOL    HW212777   2.689   1.025   8.375
 4041SOL     OW12778   2.945   0.984   7.535
 4041SOL    HW112779   2.922   1.037   7.453
 4041SOL    HW212780   3.026   0.928   7.516
 4042SOL     OW12781   3.723   1.569   8.299
 4042SOL    HW112782   3.652   1.557   8.229
 4042SOL    HW212783   3.724   1.490   8.359
 4043SOL     OW12784   2.083   1.314   9.292
 4043SOL    HW112785   2.018   1.241   9.271
 4043SOL    HW212786   2.087   1.328   9.390
 4044SOL     OW12787   1.941   1.240   8.101
 4044SOL    HW112788   1.940   1.193   8.189
 4044SOL    HW212789   2.023   1.212   8.050
 4045SOL     OW12790   2.534   1.391   9.072
 4045SOL    HW112791   2.456   1.341   9.110
 4045SOL    HW212792   2.531   1.486   9.103
 4046SOL     OW12793   3.686   0.192   8.675
 4046SOL    HW112794   3.682   0.102   8.719
 4046SOL    HW212795   3.689   0.181   8.576
 4047SOL     OW12796   2.290   0.424   7.968
 4047SOL    HW112797   2.320   0.352   7.906
 4047SOL    HW212798   2.251   0.384   8.051
 4048SOL     OW12799   3.567   1.487   8.552
 4048SOL    HW112800   3.474   1.462   8.525
 4048SOL    HW212801   3.593   1.437   8.634
 4049SOL     OW12802   2.179   0.547   8.728
 4049SOL    HW112803   2.217   0.488   8.800
 4049SOL    HW212804   2.219   0.521   8.640
 4050SOL     OW12805   2.674   1.586   8.135
 4050SOL    HW112806   2.706   1.596   8.041
 4050SOL    HW212807   2.595   1.524   8.137
 4051SOL     OW12808   3.286   0.214   8.560
 4051SOL    HW112809   3.338   0.149   8.615
 4051SOL    HW212810   3.237   0.277   8.621
 4052SOL     OW12811   2.863   0.034   8.602
 4052SOL    HW112812   2.800  -0.038   8.571
 4052SOL    HW212813   2.956  -0.002   8.602
 4053SOL     OW12814   2.632   1.330   7.749
 4053SOL    HW112815   2.586   1.243   7.766
 4053SOL    HW212816   2.723   1.327   7.790
 4054SOL     OW12817   2.480   1.567   8.732
 4054SOL    HW112818   2.475   1.649   8.789
 4054SOL    HW212819   2.569   1.564   8.687
 4055SOL     OW12820   3.214   0.052   7.616
 4055SOL    HW112821   3.249   0.011   7.532
 4055SOL    HW212822   3.124   0.014   7.636
 4056SOL     OW12823   3.162   0.453   8.139
 4056SOL    HW112824   3.103   0.533   8.143
 4056SOL    HW212825   3.177   0.418   8.232
 4057SOL     OW12826   3.455   0.221   8.330
 4057SOL    HW112827   3.371   0.220   8.384
 4057SOL    HW212828   3.457   0.304   8.274
 4058SOL     OW12829   1.901   1.077   7.748
 4058SOL    HW112830   2.000   1.066   7.739
 4058SOL    HW212831   1.861   0.991   7.780
 4059SOL     OW12832   2.737   1.646   7.785
 4059SOL    HW112833   2.660   1.611   7.731
 4059SOL    HW212834   2.705   1.717   7.847
 4060SOL     OW12835   2.092   0.628   9.423
 4060SOL    HW112836   1.999   0.626   9.460
 4060SOL    HW212837   2.093   0.589   9.331
 4061SOL     OW12838   2.087   0.275  10.306
 4061SOL    HW112839   2.122   0.258  10.398
 4061SOL    HW212840   1.999   0.230  10.294
 4062SOL     OW12841   1.881   0.368   9.957
 4062SOL    HW112842   1.799   0.411   9.996
 4062SOL    HW212843   1.853   0.295   9.894
 4063SOL     OW12844   2.431   1.275  10.475
 4063SOL    HW112845   2.338   1.268  10.438
 4063SOL    HW212846   2.442   1.364  10.519
 4064SOL     OW12847   3.417   1.511  10.013
 4064SOL    HW112848   3.360   1.495  10.094
 4064SOL    HW212849   3.358   1.521   9.933
 4065SOL     OW12850   2.997   0.703  10.027
 4065SOL    HW112851   3.054   0.781  10.002
 4065SOL    HW212852   2.937   0.729  10.103
 4066SOL     OW12853   3.617   0.607   9.541
 4066SOL    HW112854   3.605   0.594   9.442
 4066SOL    HW212855   3.587   0.526   9.590
 4067SOL     OW12856   2.630   1.144  10.333
 4067SOL    HW112857   2.552   1.161  10.393
 4067SOL    HW212858   2.664   1.231  10.297
 4068SOL     OW12859   2.712   0.798  11.133
 4068SOL    HW112860   2.708   0.874  11.198
 4068SOL    HW212861   2.734   0.834  11.042
 4069SOL     OW12862   2.547   1.012   9.975
 4069SOL    HW112863   2.616   0.996  10.045
 4069SOL    HW212864   2.474   1.069  10.013
 4070SOL     OW12865   2.197   1.435  10.371
 4070SOL    HW112866   2.119   1.404  10.318
 4070SOL    HW212867   2.255   1.493  10.314
 4071SOL     OW12868   3.322   1.505  10.649
 4071SOL    HW112869   3.346   1.599  10.675
 4071SOL    HW212870   3.306   1.451  10.731
 4072SOL     OW12871   2.300   0.392  10.809
 4072SOL    HW112872   2.382   0.336  10.818
 4072SOL    HW212873   2.219   0.334  10.813
 4073SOL     OW12874   3.465   0.447  10.047
 4073SOL    HW112875   3.391   0.493   9.997
 4073SOL    HW212876   3.516   0.515  10.100
 4074SOL     OW12877   2.093   1.713   9.793
 4074SOL    HW112878   2.127   1.790   9.847
 4074SOL    HW212879   2.137   1.713   9.703
 4075SOL     OW12880   2.092   1.434   9.848
 4075SOL    HW112881   2.066   1.530   9.848
 4075SOL    HW212882   2.021   1.380   9.893
 4076SOL     OW12883   2.102   1.091  10.196
 4076SOL    HW112884   2.116   1.007  10.248
 4076SOL    HW212885   2.047   1.155  10.251
 4077SOL     OW12886   2.482   1.786  10.749
 4077SOL    HW112887   2.390   1.769  10.784
 4077SOL    HW212888   2.510   1.878  10.775
 4078SOL     OW12889   2.468   0.964   9.433
 4078SOL    HW112890   2.475   1.048   9.379
 4078SOL    HW212891   2.514   0.977   9.521
 4079SOL     OW12892   3.456   0.114  10.790
 4079SOL    HW112893   3.438   0.181  10.718
 4079SOL    HW212894   3.453   0.160  10.879
 4080SOL     OW12895   1.984   0.643   9.873
 4080SOL    HW112896   1.939   0.555   9.890
 4080SOL    HW212897   1.983   0.697   9.957
 4081SOL     OW12898   3.704   1.767   9.669
 4081SOL    HW112899   3.758   1.738   9.749
 4081SOL    HW212900   3.734   1.857   9.640
 4082SOL     OW12901   1.889   1.596   9.427
 4082SOL    HW112902   1.870   1.500   9.448
 4082SOL    HW212903   1.856   1.654   9.502
 4083SOL     OW12904   3.551   0.922   9.922
 4083SOL    HW112905   3.646   0.893   9.930
 4083SOL    HW212906   3.543   0.987   9.847
 4084SOL     OW12907   3.503   1.108   9.742
 4084SOL    HW112908   3.589   1.110   9.690
 4084SOL    HW212909   3.517   1.155   9.830
 4085SOL     OW12910   1.975   0.737  10.907
 4085SOL    HW112911   2.063   0.724  10.952
 4085SOL    HW212912   1.962   0.834  10.885
 4086SOL     OW12913   2.475   1.365  10.036
 4086SOL    HW112914   2.426   1.278  10.045
 4086SOL    HW212915   2.452   1.408   9.949
 4087SOL     OW12916   3.155   1.228  10.733
 4087SOL    HW112917   3.192   1.155  10.675
 4087SOL    HW212918   3.207   1.233  10.818
 4088SOL     OW12919   2.671   0.004   9.812
 4088SOL    HW112920   2.711   0.095   9.803
 4088SOL    HW212921   2.571   0.012   9.818
 4089SOL     OW12922   2.059   0.976  10.574
 4089SOL    HW112923   2.148   0.931  10.560
 4089SOL    HW212924   1.986   0.911  10.555
 4090SOL     OW12925   3.387   0.999   9.500
 4090SOL    HW112926   3.324   0.923   9.513
 4090SOL    HW212927   3.435   1.017   9.586
 4091SOL     OW12928   3.049   1.792  10.926
 4091SOL    HW112929   3.073   1.852  10.850
 4091SOL    HW212930   3.056   1.697  10.896
 4092SOL     OW12931   2.179   0.251  11.111
 4092SOL    HW112932   2.250   0.322  11.117
 4092SOL    HW212933   2.091   0.290  11.139
 4093SOL     OW12934   3.328   1.417  10.263
 4093SOL    HW112935   3.269   1.423  10.343
 4093SOL    HW212936   3.313   1.329  10.217
 4094SOL     OW12937   3.529   1.714   9.882
 4094SOL    HW112938   3.488   1.691   9.794
 4094SOL    HW212939   3.511   1.640   9.947
 4095SOL     OW12940   2.460   0.729   9.580
 4095SOL    HW112941   2.484   0.798   9.512
 4095SOL    HW212942   2.382   0.762   9.634
 4096SOL     OW12943   3.143   0.345  10.254
 4096SOL    HW112944   3.057   0.295  10.241
 4096SOL    HW212945   3.205   0.291  10.310
 4097SOL     OW12946   3.438   1.662   9.617
 4097SOL    HW112947   3.527   1.708   9.620
 4097SOL    HW212948   3.417   1.638   9.522
 4098SOL     OW12949   2.669   0.605  10.775
 4098SOL    HW112950   2.622   0.602  10.864
 4098SOL    HW212951   2.618   0.550  10.709
 4099SOL     OW12952   2.835   0.890  10.882
 4099SOL    HW112953   2.881   0.806  10.853
 4099SOL    HW212954   2.779   0.924  10.807
 4100SOL     OW12955   2.853   0.410  10.552
 4100SOL    HW112956   2.776   0.444  10.606
 4100SOL    HW212957   2.819   0.359  10.473
 4101SOL     OW12958   2.903   0.701   9.739
 4101SOL    HW112959   2.929   0.697   9.835
 4101SOL    HW212960   2.818   0.650   9.725
 4102SOL     OW12961   1.938   0.811  10.099
 4102SOL    HW112962   2.037   0.799  10.108
 4102SOL    HW212963   1.914   0.906  10.120
 4103SOL     OW12964   1.992   1.821  10.881
 4103SOL    HW112965   1.982   1.806  10.980
 4103SOL    HW212966   1.906   1.857  10.845
 4104SOL     OW12967   2.727   0.348   9.505
 4104SOL    HW112968   2.786   0.411   9.456
 4104SOL    HW212969   2.746   0.254   9.476
 4105SOL     OW12970   3.224   1.144   9.855
 4105SOL    HW112971   3.307   1.115   9.807
 4105SOL    HW212972   3.175   1.211   9.799
 4106SOL     OW12973   2.412   0.196  10.195
 4106SOL    HW112974   2.407   0.191  10.295
 4106SOL    HW212975   2.414   0.292  10.166
 4107SOL     OW12976   2.870   1.456   9.787
 4107SOL    HW112977   2.824   1.528   9.735
 4107SOL    HW212978   2.866   1.476   9.885
 4108SOL     OW12979   3.657   1.066  10.183
 4108SOL    HW112980   3.595   1.051  10.107
 4108SOL    HW212981   3.605   1.077  10.268
 4109SOL     OW12982   3.089   1.550  10.816
 4109SOL    HW112983   3.095   1.473  10.880
 4109SOL    HW212984   3.037   1.524  10.736
 4110SOL     OW12985   2.183   0.943   9.552
 4110SOL    HW112986   2.265   0.982   9.510
 4110SOL    HW212987   2.156   0.861   9.503
 4111SOL     OW12988   3.320   0.735  10.038
 4111SOL    HW112989   3.315   0.670  10.113
 4111SOL    HW212990   3.400   0.794  10.051
 4112SOL     OW12991   2.323   1.266  11.037
 4112SOL    HW112992   2.273   1.267  10.951
 4112SOL    HW212993   2.260   1.248  11.113
 4113SOL     OW12994   2.973   1.776   9.547
 4113SOL    HW112995   2.913   1.714   9.597
 4113SOL    HW212996   3.004   1.732   9.462
 4114SOL     OW12997   2.064   0.285  10.808
 4114SOL    HW112998   1.984   0.345  10.795
 4114SOL    HW212999   2.054   0.236  10.894
 4115SOL     OW13000   3.494   1.377   9.391
 4115SOL    HW113001   3.462   1.471   9.381
 4115SOL    HW213002   3.418   1.314   9.379
 4116SOL     OW13003   2.326   1.743   9.633
 4116SOL    HW113004   2.359   1.782   9.719
 4116SOL    HW213005   2.402   1.736   9.568
 4117SOL     OW13006   3.262   0.107   9.736
 4117SOL    HW113007   3.238   0.070   9.646
 4117SOL    HW213008   3.361   0.123   9.740
 4118SOL     OW13009   2.111   1.785  10.551
 4118SOL    HW113010   2.168   1.720  10.601
 4118SOL    HW213011   2.095   1.752  10.458
 4119SOL     OW13012   2.802   1.698  10.214
 4119SOL    HW113013   2.882   1.641  10.235
 4119SOL    HW213014   2.753   1.658  10.137
 4120SOL     OW13015   2.244   0.700   9.790
 4120SOL    HW113016   2.289   0.610   9.787
 4120SOL    HW213017   2.150   0.689   9.823
 4121SOL     OW13018   2.476   0.122   9.427
 4121SOL    HW113019   2.574   0.100   9.434
 4121SOL    HW213020   2.445   0.105   9.334
 4122SOL     OW13021   2.643   0.264  11.059
 4122SOL    HW113022   2.710   0.203  11.102
 4122SOL    HW213023   2.570   0.283  11.124
 4123SOL     OW13024   2.750   1.514  10.505
 4123SOL    HW113025   2.727   1.489  10.411
 4123SOL    HW213026   2.811   1.445  10.544
 4124SOL     OW13027   3.213   0.590  10.743
 4124SOL    HW113028   3.241   0.547  10.828
 4124SOL    HW213029   3.238   0.686  10.744
 4125SOL     OW13030   2.665   1.402  10.234
 4125SOL    HW113031   2.755   1.416  10.192
 4125SOL    HW213032   2.594   1.404  10.163
 4126SOL     OW13033   2.784   0.503  10.209
 4126SOL    HW113034   2.759   0.494  10.113
 4126SOL    HW213035   2.832   0.421  10.240
 4127SOL     OW13036   2.401   0.064   9.822
 4127SOL    HW113037   2.320   0.065   9.880
 4127SOL    HW213038   2.404   0.147   9.767
 4128SOL     OW13039   3.296   1.188   9.351
 4128SOL    HW113040   3.328   1.112   9.408
 4128SOL    HW213041   3.204   1.215   9.381
 4129SOL     OW13042   2.159   0.035   9.481
 4129SOL    HW113043   2.208   0.119   9.460
 4129SOL    HW213044   2.221  -0.030   9.526
 4130SOL     OW13045   2.797   0.236   9.790
 4130SOL    HW113046   2.749   0.277   9.712
 4130SOL    HW213047   2.896   0.234   9.771
 4131SOL     OW13048   2.938   0.683  10.774
 4131SOL    HW113049   2.858   0.622  10.777
 4131SOL    HW213050   3.019   0.630  10.750
 4132SOL     OW13051   3.089   1.570  10.103
 4132SOL    HW113052   3.110   1.644  10.038
 4132SOL    HW213053   3.157   1.570  10.176
 4133SOL     OW13054   2.321   1.152  10.051
 4133SOL    HW113055   2.250   1.125  10.116
 4133SOL    HW213056   2.295   1.124   9.958
 4134SOL     OW13057   3.133   1.797   9.901
 4134SOL    HW113058   3.177   1.861   9.837
 4134SOL    HW213059   3.083   1.849   9.971
 4135SOL     OW13060   2.894   0.549   9.326
 4135SOL    HW113061   2.853   0.631   9.287
 4135SOL    HW213062   2.958   0.575   9.399
 4136SOL     OW13063   1.940   0.556  10.696
 4136SOL    HW113064   2.032   0.555  10.655
 4136SOL    HW213065   1.934   0.630  10.763
 4137SOL     OW13066   2.423   0.222  10.457
 4137SOL    HW113067   2.461   0.138  10.494
 4137SOL    HW213068   2.335   0.241  10.501
 4138SOL     OW13069   2.728   0.454   9.952
 4138SOL    HW113070   2.696   0.526   9.890
 4138SOL    HW213071   2.752   0.373   9.899
 4139SOL     OW13072   2.879   0.039  10.063
 4139SOL    HW113073   2.807   0.044   9.994
 4139SOL    HW213074   2.855  -0.030  10.132
 4140SOL     OW13075   3.291   1.173  10.177
 4140SOL    HW113076   3.236   1.089  10.170
 4140SOL    HW213077   3.317   1.202  10.085
 4141SOL     OW13078   3.328   0.590  10.302
 4141SOL    HW113079   3.298   0.495  10.309
 4141SOL    HW213080   3.401   0.606  10.368
 4142SOL     OW13081   3.719   0.833   9.687
 4142SOL    HW113082   3.761   0.769   9.751
 4142SOL    HW213083   3.681   0.782   9.609
 4143SOL     OW13084   2.350   1.385   9.484
 4143SOL    HW113085   2.263   1.370   9.531
 4143SOL    HW213086   2.333   1.411   9.389
 4144SOL     OW13087   3.526   1.280   9.967
 4144SOL    HW113088   3.625   1.288   9.981
 4144SOL    HW213089   3.481   1.364   9.998
 4145SOL     OW13090   3.252   0.575   9.388
 4145SOL    HW113091   3.198   0.554   9.469
 4145SOL    HW213092   3.343   0.534   9.397
 4146SOL     OW13093   2.389   0.256   9.638
 4146SOL    HW113094   2.416   0.197   9.563
 4146SOL    HW213095   2.389   0.351   9.607
 4147SOL     OW13096   3.616   1.223  10.898
 4147SOL    HW113097   3.707   1.184  10.885
 4147SOL    HW213098   3.624   1.319  10.922
 4148SOL     OW13099   2.926   1.347  10.650
 4148SOL    HW113100   2.846   1.324  10.705
 4148SOL    HW213101   3.009   1.321  10.699
 4149SOL     OW13102   2.973   1.195  10.410
 4149SOL    HW113103   2.933   1.239  10.491
 4149SOL    HW213104   2.932   1.232  10.327
 4150SOL     OW13105   3.500   1.099  10.389
 4150SOL    HW113106   3.505   1.180  10.448
 4150SOL    HW213107   3.414   1.101  10.338
 4151SOL     OW13108   2.777   0.089  10.712
 4151SOL    HW113109   2.802   0.069  10.617
 4151SOL    HW213110   2.849   0.145  10.754
 4152SOL     OW13111   2.567   1.050   9.678
 4152SOL    HW113112   2.553   1.057   9.777
 4152SOL    HW213113   2.651   0.999   9.660
 4153SOL     OW13114   2.272   0.813  10.561
 4153SOL    HW113115   2.358   0.825  10.611
 4153SOL    HW213116   2.230   0.726  10.588
 4154SOL     OW13117   3.136   0.386  10.572
 4154SOL    HW113118   3.157   0.460  10.636
 4154SOL    HW213119   3.047   0.403  10.529
 4155SOL     OW13120   1.926   1.564  10.641
 4155SOL    HW113121   1.880   1.646  10.607
 4155SOL    HW213122   2.024   1.583  10.650
 4156SOL     OW13123   2.229   1.100   9.811
 4156SOL    HW113124   2.222   1.183   9.755
 4156SOL    HW213125   2.233   1.020   9.751
 4157SOL     OW13126   2.428   0.537  10.175
 4157SOL    HW113127   2.440   0.603  10.101
 4157SOL    HW213128   2.474   0.571  10.258
 4158SOL     OW13129   3.114   1.348   9.698
 4158SOL    HW113130   3.164   1.425   9.738
 4158SOL    HW213131   3.019   1.350   9.730
 4159SOL     OW13132   3.134   1.445  10.452
 4159SOL    HW113133   3.181   1.458  10.539
 4159SOL    HW213134   3.068   1.371  10.461
 4160SOL     OW13135   3.444   0.639   9.782
 4160SOL    HW113136   3.413   0.700   9.855
 4160SOL    HW213137   3.494   0.691   9.713
 4161SOL     OW13138   2.216   1.510  10.639
 4161SOL    HW113139   2.195   1.466  10.552
 4161SOL    HW213140   2.313   1.536  10.642
 4162SOL     OW13141   2.264   0.751  10.908
 4162SOL    HW113142   2.332   0.806  10.861
 4162SOL    HW213143   2.304   0.663  10.935
 4163SOL     OW13144   3.449   0.779  10.980
 4163SOL    HW113145   3.357   0.817  10.975
 4163SOL    HW213146   3.509   0.826  10.915
 4164SOL     OW13147   2.435   0.870  10.339
 4164SOL    HW113148   2.479   0.959  10.330
 4164SOL    HW213149   2.372   0.870  10.416
 4165SOL     OW13150   3.222   0.862  10.355
 4165SOL    HW113151   3.147   0.862  10.289
 4165SOL    HW213152   3.259   0.770  10.364
 4166SOL     OW13153   3.071   0.525   9.585
 4166SOL    HW113154   3.084   0.441   9.639
 4166SOL    HW213155   3.042   0.599   9.645
 4167SOL     OW13156   2.169   0.213  10.541
 4167SOL    HW113157   2.146   0.250  10.631
 4167SOL    HW213158   2.139   0.118  10.535
 4168SOL     OW13159   1.899   1.310  10.592
 4168SOL    HW113160   1.952   1.261  10.660
 4168SOL    HW213161   1.921   1.408  10.597
 4169SOL     OW13162   2.594   0.634  10.374
 4169SOL    HW113163   2.653   0.608  10.298
 4169SOL    HW213164   2.566   0.730  10.363
 4170SOL     OW13165   2.169   0.063   9.928
 4170SOL    HW113166   2.158   0.157   9.961
 4170SOL    HW213167   2.164   0.000  10.005
 4171SOL     OW13168   3.484   0.367   9.684
 4171SOL    HW113169   3.486   0.291   9.748
 4171SOL    HW213170   3.436   0.444   9.724
 4172SOL     OW13171   2.885   0.766  10.276
 4172SOL    HW113172   2.900   0.787  10.372
 4172SOL    HW213173   2.855   0.671  10.267
 4173SOL     OW13174   2.842   1.573  11.010
 4173SOL    HW113175   2.822   1.617  10.922
 4173SOL    HW213176   2.881   1.482  10.994
 4174SOL     OW13177   3.721   1.518  10.915
 4174SOL    HW113178   3.735   1.545  10.820
 4174SOL    HW213179   3.804   1.540  10.968
 4175SOL     OW13180   2.212   0.898  11.114
 4175SOL    HW113181   2.288   0.942  11.162
 4175SOL    HW213182   2.247   0.851  11.032
 4176SOL     OW13183   3.402   0.274   9.435
 4176SOL    HW113184   3.341   0.199   9.458
 4176SOL    HW213185   3.424   0.326   9.518
 4177SOL     OW13186   3.165   0.838   9.352
 4177SOL    HW113187   3.199   0.745   9.367
 4177SOL    HW213188   3.183   0.865   9.257
 4178SOL     OW13189   2.930   1.333  10.159
 4178SOL    HW113190   2.937   1.249  10.104
 4178SOL    HW213191   2.992   1.402  10.123
 4179SOL     OW13192   2.181   0.810  10.259
 4179SOL    HW113193   2.274   0.846  10.264
 4179SOL    HW213194   2.175   0.725  10.311
 4180SOL     OW13195   2.201   0.509  10.316
 4180SOL    HW113196   2.149   0.426  10.299
 4180SOL    HW213197   2.278   0.514  10.252
 4181SOL     OW13198   3.022   0.207  10.787
 4181SOL    HW113199   3.022   0.271  10.864
 4181SOL    HW213200   3.050   0.255  10.704
 4182SOL     OW13201   1.870   1.326   9.510
 4182SOL    HW113202   1.777   1.347   9.479
 4182SOL    HW213203   1.880   1.227   9.523
 4183SOL     OW13204   1.950   1.801  10.237
 4183SOL    HW113205   1.908   1.715  10.210
 4183SOL    HW213206   2.044   1.804  10.203
 4184SOL     OW13207   2.366   1.568  10.220
 4184SOL    HW113208   2.432   1.642  10.229
 4184SOL    HW213209   2.410   1.489  10.178
 4185SOL     OW13210   2.864   0.796  10.548
 4185SOL    HW113211   2.905   0.764  10.634
 4185SOL    HW213212   2.768   0.769  10.545
 4186SOL     OW13213   1.902   0.544  10.424
 4186SOL    HW113214   1.987   0.511  10.383
 4186SOL    HW213215   1.915   0.559  10.522
 4187SOL     OW13216   2.677   0.572   9.635
 4187SOL    HW113217   2.684   0.483   9.589
 4187SOL    HW213218   2.583   0.606   9.627
 4188SOL     OW13219   3.519   0.604  10.516
 4188SOL    HW113220   3.481   0.535  10.578
 4188SOL    HW213221   3.601   0.568  10.472
 4189SOL     OW13222   2.114   1.564  11.054
 4189SOL    HW113223   2.084   1.621  11.130
 4189SOL    HW213224   2.107   1.467  11.080
 4190SOL     OW13225   2.533   0.464  10.579
 4190SOL    HW113226   2.499   0.375  10.549
 4190SOL    HW213227   2.559   0.518  10.499
 4191SOL     OW13228   2.792   1.678  10.775
 4191SOL    HW113229   2.768   1.660  10.680
 4191SOL    HW213230   2.822   1.772  10.785
 4192SOL     OW13231   2.335   0.500   9.501
 4192SOL    HW113232   2.396   0.580   9.505
 4192SOL    HW213233   2.240   0.531   9.508
 4193SOL     OW13234   2.021   1.137  10.776
 4193SOL    HW113235   2.043   1.076  10.852
 4193SOL    HW213236   2.031   1.088  10.690
 4194SOL     OW13237   3.209   1.059  10.544
 4194SOL    HW113238   3.233   0.996  10.470
 4194SOL    HW213239   3.119   1.099  10.526
 4195SOL     OW13240   3.164   0.855   9.619
 4195SOL    HW113241   3.078   0.824   9.661
 4195SOL    HW213242   3.160   0.841   9.520
 4196SOL     OW13243   3.621   1.747  10.464
 4196SOL    HW113244   3.682   1.777  10.391
 4196SOL    HW213245   3.583   1.658  10.442
 4197SOL     OW13246   3.114   1.731  10.438
 4197SOL    HW113247   3.198   1.736  10.384
 4197SOL    HW213248   3.091   1.635  10.456
 4198SOL     OW13249   1.945   1.258  10.332
 4198SOL    HW113250   1.940   1.257  10.432
 4198SOL    HW213251   1.862   1.217  10.294
 4199SOL     OW13252   3.588   0.135   9.833
 4199SOL    HW113253   3.661   0.118   9.766
 4199SOL    HW213254   3.557   0.048   9.871
 4200SOL     OW13255   3.250   1.573   9.787
 4200SOL    HW113256   3.317   1.585   9.713
 4200SOL    HW213257   3.210   1.662   9.810
 4201SOL     OW13258   3.142   0.927   9.982
 4201SOL    HW113259   3.202   0.846   9.984
 4201SOL    HW213260   3.182   0.996   9.922
 4202SOL     OW13261   2.692   1.273  10.732
 4202SOL    HW113262   2.687   1.306  10.827
 4202SOL    HW213263   2.606   1.292  10.686
 4203SOL     OW13264   2.534   1.616   9.464
 4203SOL    HW113265   2.543   1.626   9.365
 4203SOL    HW213266   2.494   1.527   9.485
 4204SOL     OW13267   3.512   1.720  10.704
 4204SOL    HW113268   3.565   1.730  10.620
 4204SOL    HW213269   3.485   1.810  10.738
 4205SOL     OW13270   3.703   0.175  10.273
 4205SOL    HW113271   3.742   0.090  10.237
 4205SOL    HW213272   3.605   0.177  10.254
 4206SOL     OW13273   2.125   0.326  10.030
 4206SOL    HW113274   2.046   0.377   9.996
 4206SOL    HW213275   2.116   0.311  10.128
 4207SOL     OW13276   3.056   1.612   9.341
 4207SOL    HW113277   3.062   1.519   9.378
 4207SOL    HW213278   2.997   1.612   9.261
 4208SOL     OW13279   2.684   1.002  10.682
 4208SOL    HW113280   2.724   1.001  10.590
 4208SOL    HW213281   2.694   1.094  10.722
 4209SOL     OW13282   2.778   0.910   9.601
 4209SOL    HW113283   2.841   0.948   9.533
 4209SOL    HW213284   2.818   0.827   9.640
 4210SOL     OW13285   3.366   1.607   9.354
 4210SOL    HW113286   3.274   1.644   9.361
 4210SOL    HW213287   3.404   1.627   9.264
 4211SOL     OW13288   2.234   1.288  10.800
 4211SOL    HW113289   2.221   1.381  10.766
 4211SOL    HW213290   2.150   1.236  10.787
 4212SOL     OW13291   3.476   1.292  10.599
 4212SOL    HW113292   3.536   1.295  10.679
 4212SOL    HW213293   3.401   1.356  10.612
 4213SOL     OW13294   2.901   1.098  10.006
 4213SOL    HW113295   2.831   1.051  10.060
 4213SOL    HW213296   2.960   1.030   9.963
 4214SOL     OW13297   2.876   0.236  10.281
 4214SOL    HW113298   2.868   0.200  10.188
 4214SOL    HW213299   2.874   0.160  10.346
 4215SOL     OW13300   2.452   1.487   9.801
 4215SOL    HW113301   2.494   1.429   9.731
 4215SOL    HW213302   2.408   1.566   9.757
 4216SOL     OW13303   3.571   0.385  10.691
 4216SOL    HW113304   3.644   0.454  10.695
 4216SOL    HW213305   3.599   0.310  10.632
 4217SOL     OW13306   2.117   1.348   9.600
 4217SOL    HW113307   2.021   1.349   9.573
 4217SOL    HW213308   2.129   1.401   9.684
 4218SOL     OW13309   1.967   1.013  11.036
 4218SOL    HW113310   1.890   0.980  11.090
 4218SOL    HW213311   2.052   0.983  11.078
 4219SOL     OW13312   2.534   0.203  10.799
 4219SOL    HW113313   2.624   0.187  10.759
 4219SOL    HW213314   2.542   0.208  10.898
 4220SOL     OW13315   1.937   0.345   9.343
 4220SOL    HW113316   1.845   0.317   9.314
 4220SOL    HW213317   1.968   0.422   9.287
 4221SOL     OW13318   3.302   0.856  10.708
 4221SOL    HW113319   3.245   0.908  10.645
 4221SOL    HW213320   3.398   0.868  10.684
 4222SOL     OW13321   1.934   0.166   9.628
 4222SOL    HW113322   1.917   0.249   9.574
 4222SOL    HW213323   2.024   0.129   9.606
 4223SOL     OW13324   3.045   1.335   9.429
 4223SOL    HW113325   2.946   1.324   9.431
 4223SOL    HW213326   3.079   1.350   9.522
 4224SOL     OW13327   2.475   0.842  10.741
 4224SOL    HW113328   2.531   0.923  10.724
 4224SOL    HW213329   2.534   0.762  10.744
 4225SOL     OW13330   3.355   1.767  10.269
 4225SOL    HW113331   3.388   1.831  10.200
 4225SOL    HW213332   3.421   1.761  10.344
 4226SOL     OW13333   2.578   0.565  11.018
 4226SOL    HW113334   2.597   0.630  11.092
 4226SOL    HW213335   2.638   0.485  11.027
 4227SOL     OW13336   2.252   1.741  10.870
 4227SOL    HW113337   2.161   1.782  10.868
 4227SOL    HW213338   2.245   1.647  10.902
 4228SOL     OW13339   3.536   0.883  10.564
 4228SOL    HW113340   3.509   0.794  10.527
 4228SOL    HW213341   3.537   0.951  10.491
 4229SOL     OW13342   3.087   0.325   9.759
 4229SOL    HW113343   3.152   0.251   9.748
 4229SOL    HW213344   3.107   0.375   9.843
 4230SOL     OW13345   2.456   0.745   9.962
 4230SOL    HW113346   2.506   0.830   9.943
 4230SOL    HW213347   2.368   0.747   9.914
 4231SOL     OW13348   3.639   0.342  10.952
 4231SOL    HW113349   3.622   0.373  10.858
 4231SOL    HW213350   3.555   0.305  10.990
 4232SOL     OW13351   3.592   0.934  10.827
 4232SOL    HW113352   3.630   1.025  10.842
 4232SOL    HW213353   3.584   0.917  10.728
 4233SOL     OW13354   2.721   1.374   9.326
 4233SOL    HW113355   2.675   1.389   9.414
 4233SOL    HW213356   2.765   1.459   9.296
 4234SOL     OW13357   2.523   1.790  10.263
 4234SOL    HW113358   2.477   1.878  10.250
 4234SOL    HW213359   2.622   1.802  10.256
 4235SOL     OW13360   2.721   0.956  10.171
 4235SOL    HW113361   2.775   0.887  10.219
 4235SOL    HW213362   2.689   1.025  10.237
 4236SOL     OW13363   2.945   0.984   9.397
 4236SOL    HW113364   2.922   1.037   9.315
 4236SOL    HW213365   3.026   0.928   9.378
 4237SOL     OW13366   3.723   1.569  10.161
 4237SOL    HW113367   3.652   1.557  10.091
 4237SOL    HW213368   3.724   1.490  10.221
 4238SOL     OW13369   1.941   1.240   9.963
 4238SOL    HW113370   1.940   1.193  10.051
 4238SOL    HW213371   2.023   1.212   9.912
 4239SOL     OW13372   2.534   1.391  10.934
 4239SOL    HW113373   2.456   1.341  10.972
 4239SOL    HW213374   2.531   1.486  10.965
 4240SOL     OW13375   3.686   0.192  10.537
 4240SOL    HW113376   3.682   0.102  10.581
 4240SOL    HW213377   3.689   0.181  10.438
 4241SOL     OW13378   2.290   0.424   9.830
 4241SOL    HW113379   2.320   0.352   9.768
 4241SOL    HW213380   2.251   0.384   9.913
 4242SOL     OW13381   3.567   1.487  10.414
 4242SOL    HW113382   3.474   1.462  10.387
 4242SOL    HW213383   3.593   1.437  10.496
 4243SOL     OW13384   2.179   0.547  10.590
 4243SOL    HW113385   2.217   0.488  10.662
 4243SOL    HW213386   2.219   0.521  10.502
 4244SOL     OW13387   2.674   1.586   9.997
 4244SOL    HW113388   2.706   1.596   9.903
 4244SOL    HW213389   2.595   1.524   9.999
 4245SOL     OW13390   3.286   0.214  10.422
 4245SOL    HW113391   3.338   0.149  10.477
 4245SOL    HW213392   3.237   0.277  10.483
 4246SOL     OW13393   2.863   0.034  10.464
 4246SOL    HW113394   2.800  -0.038  10.433
 4246SOL    HW213395   2.956  -0.002  10.464
 4247SOL     OW13396   2.632   1.330   9.611
 4247SOL    HW113397   2.586   1.243   9.628
 4247SOL    HW213398   2.723   1.327   9.652
 4248SOL     OW13399   2.480   1.567  10.594
 4248SOL    HW113400   2.475   1.649  10.651
 4248SOL    HW213401   2.569   1.564  10.549
 4249SOL     OW13402   3.214   0.052   9.478
 4249SOL    HW113403   3.249   0.011   9.394
 4249SOL    HW213404   3.124   0.014   9.498
 4250SOL     OW13405   3.162   0.453  10.001
 4250SOL    HW113406   3.103   0.533  10.005
 4250SOL    HW213407   3.177   0.418  10.094
 4251SOL     OW13408   3.455   0.221  10.192
 4251SOL    HW113409   3.371   0.220  10.246
 4251SOL    HW213410   3.457   0.304  10.136
 4252SOL     OW13411   1.901   1.077   9.610
 4252SOL    HW113412   2.000   1.066   9.601
 4252SOL    HW213413   1.861   0.991   9.642
 4253SOL     OW13414   2.737   1.646   9.647
 4253SOL    HW113415   2.660   1.611   9.593
 4253SOL    HW213416   2.705   1.717   9.709
 4254SOL     OW13417   2.092   2.490   0.113
 4254SOL    HW113418   1.999   2.488   0.150
 4254SOL    HW213419   2.093   2.451   0.021
 4255SOL     OW13420   1.881   2.230   0.647
 4255SOL    HW113421   1.799   2.273   0.686
 4255SOL    HW213422   1.853   2.157   0.584
 4256SOL     OW13423   2.431   3.137   1.165
 4256SOL    HW113424   2.338   3.130   1.128
 4256SOL    HW213425   2.442   3.226   1.209
 4257SOL     OW13426   3.417   3.373   0.703
 4257SOL    HW113427   3.360   3.357   0.784
 4257SOL    HW213428   3.358   3.383   0.623
 4258SOL     OW13429   2.997   2.565   0.717
 4258SOL    HW113430   3.054   2.643   0.692
 4258SOL    HW213431   2.937   2.591   0.793
 4259SOL     OW13432   3.617   2.469   0.231
 4259SOL    HW113433   3.605   2.456   0.132
 4259SOL    HW213434   3.587   2.388   0.280
 4260SOL     OW13435   2.630   3.006   1.023
 4260SOL    HW113436   2.552   3.023   1.083
 4260SOL    HW213437   2.664   3.093   0.987
 4261SOL     OW13438   2.712   2.660   1.823
 4261SOL    HW113439   2.708   2.736   1.888
 4261SOL    HW213440   2.734   2.696   1.732
 4262SOL     OW13441   2.547   2.874   0.665
 4262SOL    HW113442   2.616   2.858   0.735
 4262SOL    HW213443   2.474   2.931   0.703
 4263SOL     OW13444   2.548   3.023   1.803
 4263SOL    HW113445   2.608   3.102   1.817
 4263SOL    HW213446   2.462   3.054   1.762
 4264SOL     OW13447   2.197   3.297   1.061
 4264SOL    HW113448   2.119   3.266   1.008
 4264SOL    HW213449   2.255   3.355   1.004
 4265SOL     OW13450   3.322   3.367   1.339
 4265SOL    HW113451   3.346   3.461   1.365
 4265SOL    HW213452   3.306   3.313   1.421
 4266SOL     OW13453   3.465   2.309   0.737
 4266SOL    HW113454   3.391   2.355   0.687
 4266SOL    HW213455   3.516   2.377   0.790
 4267SOL     OW13456   2.093   3.575   0.483
 4267SOL    HW113457   2.127   3.652   0.537
 4267SOL    HW213458   2.137   3.575   0.393
 4268SOL     OW13459   2.989   3.203   1.690
 4268SOL    HW113460   3.036   3.203   1.778
 4268SOL    HW213461   2.941   3.116   1.679
 4269SOL     OW13462   2.092   3.296   0.538
 4269SOL    HW113463   2.066   3.392   0.538
 4269SOL    HW213464   2.021   3.242   0.583
 4270SOL     OW13465   2.102   2.953   0.886
 4270SOL    HW113466   2.116   2.869   0.938
 4270SOL    HW213467   2.047   3.017   0.941
 4271SOL     OW13468   2.482   3.648   1.439
 4271SOL    HW113469   2.390   3.631   1.474
 4271SOL    HW213470   2.510   3.740   1.465
 4272SOL     OW13471   2.468   2.826   0.123
 4272SOL    HW113472   2.475   2.910   0.069
 4272SOL    HW213473   2.514   2.839   0.211
 4273SOL     OW13474   3.456   1.976   1.480
 4273SOL    HW113475   3.438   2.043   1.408
 4273SOL    HW213476   3.453   2.022   1.569
 4274SOL     OW13477   1.984   2.505   0.563
 4274SOL    HW113478   1.939   2.417   0.580
 4274SOL    HW213479   1.983   2.559   0.647
 4275SOL     OW13480   3.704   3.629   0.359
 4275SOL    HW113481   3.758   3.600   0.439
 4275SOL    HW213482   3.734   3.719   0.330
 4276SOL     OW13483   1.889   3.458   0.117
 4276SOL    HW113484   1.870   3.362   0.138
 4276SOL    HW213485   1.856   3.516   0.192
 4277SOL     OW13486   3.551   2.784   0.612
 4277SOL    HW113487   3.646   2.755   0.620
 4277SOL    HW213488   3.543   2.849   0.537
 4278SOL     OW13489   3.503   2.970   0.432
 4278SOL    HW113490   3.589   2.972   0.380
 4278SOL    HW213491   3.517   3.017   0.520
 4279SOL     OW13492   1.975   2.599   1.597
 4279SOL    HW113493   2.063   2.586   1.642
 4279SOL    HW213494   1.962   2.696   1.575
 4280SOL     OW13495   2.475   3.227   0.726
 4280SOL    HW113496   2.426   3.140   0.735
 4280SOL    HW213497   2.452   3.270   0.639
 4281SOL     OW13498   3.155   3.090   1.423
 4281SOL    HW113499   3.192   3.017   1.365
 4281SOL    HW213500   3.207   3.095   1.508
 4282SOL     OW13501   2.671   1.866   0.502
 4282SOL    HW113502   2.711   1.957   0.493
 4282SOL    HW213503   2.571   1.874   0.508
 4283SOL     OW13504   2.059   2.838   1.264
 4283SOL    HW113505   2.148   2.793   1.250
 4283SOL    HW213506   1.986   2.773   1.245
 4284SOL     OW13507   3.387   2.861   0.190
 4284SOL    HW113508   3.324   2.785   0.203
 4284SOL    HW213509   3.435   2.879   0.276
 4285SOL     OW13510   3.049   3.654   1.616
 4285SOL    HW113511   3.073   3.714   1.540
 4285SOL    HW213512   3.056   3.559   1.586
 4286SOL     OW13513   3.328   3.279   0.953
 4286SOL    HW113514   3.269   3.285   1.033
 4286SOL    HW213515   3.313   3.191   0.907
 4287SOL     OW13516   3.529   3.576   0.572
 4287SOL    HW113517   3.488   3.553   0.484
 4287SOL    HW213518   3.511   3.502   0.637
 4288SOL     OW13519   2.460   2.591   0.270
 4288SOL    HW113520   2.484   2.660   0.202
 4288SOL    HW213521   2.382   2.624   0.324
 4289SOL     OW13522   3.143   2.207   0.944
 4289SOL    HW113523   3.057   2.157   0.931
 4289SOL    HW213524   3.205   2.153   1.000
 4290SOL     OW13525   3.438   3.524   0.307
 4290SOL    HW113526   3.527   3.570   0.310
 4290SOL    HW213527   3.417   3.500   0.212
 4291SOL     OW13528   2.669   2.467   1.465
 4291SOL    HW113529   2.622   2.464   1.554
 4291SOL    HW213530   2.618   2.412   1.399
 4292SOL     OW13531   3.256   2.331   1.674
 4292SOL    HW113532   3.236   2.374   1.762
 4292SOL    HW213533   3.334   2.269   1.683
 4293SOL     OW13534   2.835   2.752   1.572
 4293SOL    HW113535   2.881   2.668   1.543
 4293SOL    HW213536   2.779   2.786   1.497
 4294SOL     OW13537   2.853   2.272   1.242
 4294SOL    HW113538   2.776   2.306   1.296
 4294SOL    HW213539   2.819   2.221   1.163
 4295SOL     OW13540   2.903   2.563   0.429
 4295SOL    HW113541   2.929   2.559   0.525
 4295SOL    HW213542   2.818   2.512   0.415
 4296SOL     OW13543   1.938   2.673   0.789
 4296SOL    HW113544   2.037   2.661   0.798
 4296SOL    HW213545   1.914   2.768   0.810
 4297SOL     OW13546   1.992   3.683   1.571
 4297SOL    HW113547   1.982   3.668   1.670
 4297SOL    HW213548   1.906   3.719   1.535
 4298SOL     OW13549   2.727   2.210   0.195
 4298SOL    HW113550   2.786   2.273   0.146
 4298SOL    HW213551   2.746   2.116   0.166
 4299SOL     OW13552   3.581   2.447   1.831
 4299SOL    HW113553   3.555   2.536   1.795
 4299SOL    HW213554   3.579   2.379   1.758
 4300SOL     OW13555   3.224   3.006   0.545
 4300SOL    HW113556   3.307   2.977   0.497
 4300SOL    HW213557   3.175   3.073   0.489
 4301SOL     OW13558   2.870   3.318   0.477
 4301SOL    HW113559   2.824   3.390   0.425
 4301SOL    HW213560   2.866   3.338   0.575
 4302SOL     OW13561   2.213   3.663   0.853
 4302SOL    HW113562   2.263   3.577   0.859
 4302SOL    HW213563   2.278   3.740   0.850
 4303SOL     OW13564   3.657   2.928   0.873
 4303SOL    HW113565   3.595   2.913   0.797
 4303SOL    HW213566   3.605   2.939   0.958
 4304SOL     OW13567   3.089   3.412   1.506
 4304SOL    HW113568   3.095   3.335   1.570
 4304SOL    HW213569   3.037   3.386   1.426
 4305SOL     OW13570   2.183   2.805   0.242
 4305SOL    HW113571   2.265   2.844   0.200
 4305SOL    HW213572   2.156   2.723   0.193
 4306SOL     OW13573   3.320   2.597   0.728
 4306SOL    HW113574   3.315   2.532   0.803
 4306SOL    HW213575   3.400   2.656   0.741
 4307SOL     OW13576   2.323   3.128   1.727
 4307SOL    HW113577   2.273   3.129   1.641
 4307SOL    HW213578   2.260   3.110   1.803
 4308SOL     OW13579   2.973   3.638   0.237
 4308SOL    HW113580   2.913   3.576   0.287
 4308SOL    HW213581   3.004   3.594   0.152
 4309SOL     OW13582   2.064   2.147   1.498
 4309SOL    HW113583   1.984   2.207   1.485
 4309SOL    HW213584   2.054   2.098   1.584
 4310SOL     OW13585   3.494   3.239   0.081
 4310SOL    HW113586   3.462   3.333   0.071
 4310SOL    HW213587   3.418   3.176   0.069
 4311SOL     OW13588   2.326   3.605   0.323
 4311SOL    HW113589   2.359   3.644   0.409
 4311SOL    HW213590   2.402   3.598   0.258
 4312SOL     OW13591   3.262   1.969   0.426
 4312SOL    HW113592   3.238   1.932   0.336
 4312SOL    HW213593   3.361   1.985   0.430
 4313SOL     OW13594   2.111   3.647   1.241
 4313SOL    HW113595   2.168   3.582   1.291
 4313SOL    HW213596   2.095   3.614   1.148
 4314SOL     OW13597   2.802   3.560   0.904
 4314SOL    HW113598   2.882   3.503   0.925
 4314SOL    HW213599   2.753   3.520   0.827
 4315SOL     OW13600   3.409   2.084   1.729
 4315SOL    HW113601   3.404   2.121   1.821
 4315SOL    HW213602   3.337   2.015   1.717
 4316SOL     OW13603   2.643   2.126   1.749
 4316SOL    HW113604   2.710   2.065   1.792
 4316SOL    HW213605   2.570   2.145   1.814
 4317SOL     OW13606   2.750   3.376   1.195
 4317SOL    HW113607   2.727   3.351   1.101
 4317SOL    HW213608   2.811   3.307   1.234
 4318SOL     OW13609   3.213   2.452   1.433
 4318SOL    HW113610   3.241   2.409   1.518
 4318SOL    HW213611   3.238   2.548   1.434
 4319SOL     OW13612   2.665   3.264   0.924
 4319SOL    HW113613   2.755   3.278   0.882
 4319SOL    HW213614   2.594   3.266   0.853
 4320SOL     OW13615   2.784   2.365   0.899
 4320SOL    HW113616   2.759   2.356   0.803
 4320SOL    HW213617   2.832   2.283   0.930
 4321SOL     OW13618   3.296   3.050   0.041
 4321SOL    HW113619   3.328   2.974   0.098
 4321SOL    HW213620   3.204   3.077   0.071
 4322SOL     OW13621   2.797   2.098   0.480
 4322SOL    HW113622   2.749   2.139   0.402
 4322SOL    HW213623   2.896   2.096   0.461
 4323SOL     OW13624   2.938   2.545   1.464
 4323SOL    HW113625   2.858   2.484   1.467
 4323SOL    HW213626   3.019   2.492   1.440
 4324SOL     OW13627   3.089   3.432   0.793
 4324SOL    HW113628   3.110   3.506   0.728
 4324SOL    HW213629   3.157   3.432   0.866
 4325SOL     OW13630   2.321   3.014   0.741
 4325SOL    HW113631   2.250   2.987   0.806
 4325SOL    HW213632   2.295   2.986   0.648
 4326SOL     OW13633   3.133   3.659   0.591
 4326SOL    HW113634   3.177   3.723   0.527
 4326SOL    HW213635   3.083   3.711   0.661
 4327SOL     OW13636   2.894   2.411   0.016
 4327SOL    HW113637   2.853   2.493  -0.023
 4327SOL    HW213638   2.958   2.437   0.089
 4328SOL     OW13639   2.728   2.316   0.642
 4328SOL    HW113640   2.696   2.388   0.580
 4328SOL    HW213641   2.752   2.235   0.589
 4329SOL     OW13642   2.879   1.901   0.753
 4329SOL    HW113643   2.807   1.906   0.684
 4329SOL    HW213644   2.855   1.832   0.822
 4330SOL     OW13645   3.291   3.035   0.867
 4330SOL    HW113646   3.236   2.951   0.860
 4330SOL    HW213647   3.317   3.064   0.775
 4331SOL     OW13648   3.328   2.452   0.992
 4331SOL    HW113649   3.298   2.357   0.999
 4331SOL    HW213650   3.401   2.468   1.058
 4332SOL     OW13651   3.719   2.695   0.377
 4332SOL    HW113652   3.761   2.631   0.441
 4332SOL    HW213653   3.681   2.644   0.299
 4333SOL     OW13654   2.350   3.247   0.174
 4333SOL    HW113655   2.263   3.232   0.221
 4333SOL    HW213656   2.333   3.273   0.079
 4334SOL     OW13657   3.526   3.142   0.657
 4334SOL    HW113658   3.625   3.150   0.671
 4334SOL    HW213659   3.481   3.226   0.688
 4335SOL     OW13660   3.252   2.437   0.078
 4335SOL    HW113661   3.198   2.416   0.159
 4335SOL    HW213662   3.343   2.396   0.087
 4336SOL     OW13663   3.616   3.085   1.588
 4336SOL    HW113664   3.707   3.046   1.575
 4336SOL    HW213665   3.624   3.181   1.612
 4337SOL     OW13666   2.926   3.209   1.340
 4337SOL    HW113667   2.846   3.186   1.395
 4337SOL    HW213668   3.009   3.183   1.389
 4338SOL     OW13669   3.454   3.491   1.625
 4338SOL    HW113670   3.481   3.525   1.535
 4338SOL    HW213671   3.533   3.453   1.671
 4339SOL     OW13672   2.973   3.057   1.100
 4339SOL    HW113673   2.933   3.101   1.181
 4339SOL    HW213674   2.932   3.094   1.017
 4340SOL     OW13675   3.500   2.961   1.079
 4340SOL    HW113676   3.505   3.042   1.138
 4340SOL    HW213677   3.414   2.963   1.028
 4341SOL     OW13678   2.777   1.951   1.402
 4341SOL    HW113679   2.802   1.931   1.307
 4341SOL    HW213680   2.849   2.007   1.444
 4342SOL     OW13681   2.842   2.978   1.719
 4342SOL    HW113682   2.743   2.984   1.729
 4342SOL    HW213683   2.865   2.898   1.663
 4343SOL     OW13684   2.567   2.912   0.368
 4343SOL    HW113685   2.553   2.919   0.467
 4343SOL    HW213686   2.651   2.861   0.350
 4344SOL     OW13687   2.272   2.675   1.251
 4344SOL    HW113688   2.358   2.687   1.301
 4344SOL    HW213689   2.230   2.588   1.278
 4345SOL     OW13690   3.136   2.248   1.262
 4345SOL    HW113691   3.157   2.322   1.326
 4345SOL    HW213692   3.047   2.265   1.219
 4346SOL     OW13693   1.926   3.426   1.331
 4346SOL    HW113694   1.880   3.508   1.297
 4346SOL    HW213695   2.024   3.445   1.340
 4347SOL     OW13696   2.229   2.962   0.501
 4347SOL    HW113697   2.222   3.045   0.445
 4347SOL    HW213698   2.233   2.882   0.441
 4348SOL     OW13699   3.114   3.210   0.388
 4348SOL    HW113700   3.164   3.287   0.428
 4348SOL    HW213701   3.019   3.212   0.420
 4349SOL     OW13702   3.134   3.307   1.142
 4349SOL    HW113703   3.181   3.320   1.229
 4349SOL    HW213704   3.068   3.233   1.151
 4350SOL     OW13705   3.444   2.501   0.472
 4350SOL    HW113706   3.413   2.562   0.545
 4350SOL    HW213707   3.494   2.553   0.403
 4351SOL     OW13708   2.216   3.372   1.329
 4351SOL    HW113709   2.195   3.328   1.242
 4351SOL    HW213710   2.313   3.398   1.332
 4352SOL     OW13711   3.449   2.641   1.670
 4352SOL    HW113712   3.357   2.679   1.665
 4352SOL    HW213713   3.509   2.688   1.605
 4353SOL     OW13714   2.875   1.967   1.770
 4353SOL    HW113715   2.881   2.052   1.718
 4353SOL    HW213716   2.907   1.891   1.713
 4354SOL     OW13717   2.435   2.732   1.029
 4354SOL    HW113718   2.479   2.821   1.020
 4354SOL    HW213719   2.372   2.732   1.106
 4355SOL     OW13720   3.222   2.724   1.045
 4355SOL    HW113721   3.147   2.724   0.979
 4355SOL    HW213722   3.259   2.632   1.054
 4356SOL     OW13723   3.071   2.387   0.275
 4356SOL    HW113724   3.084   2.303   0.329
 4356SOL    HW213725   3.042   2.461   0.335
 4357SOL     OW13726   1.899   3.172   1.282
 4357SOL    HW113727   1.952   3.123   1.350
 4357SOL    HW213728   1.921   3.270   1.287
 4358SOL     OW13729   2.594   2.496   1.064
 4358SOL    HW113730   2.653   2.470   0.988
 4358SOL    HW213731   2.566   2.592   1.053
 4359SOL     OW13732   3.590   2.797   1.854
 4359SOL    HW113733   3.544   2.790   1.765
 4359SOL    HW213734   3.528   2.841   1.920
 4360SOL     OW13735   3.484   2.229   0.374
 4360SOL    HW113736   3.486   2.153   0.438
 4360SOL    HW213737   3.436   2.306   0.414
 4361SOL     OW13738   2.885   2.628   0.966
 4361SOL    HW113739   2.900   2.649   1.062
 4361SOL    HW213740   2.855   2.533   0.957
 4362SOL     OW13741   2.842   3.435   1.700
 4362SOL    HW113742   2.822   3.479   1.612
 4362SOL    HW213743   2.881   3.344   1.684
 4363SOL     OW13744   3.721   3.380   1.605
 4363SOL    HW113745   3.735   3.407   1.510
 4363SOL    HW213746   3.804   3.402   1.658
 4364SOL     OW13747   2.212   2.760   1.804
 4364SOL    HW113748   2.288   2.804   1.852
 4364SOL    HW213749   2.247   2.713   1.722
 4365SOL     OW13750   3.402   2.136   0.125
 4365SOL    HW113751   3.341   2.061   0.148
 4365SOL    HW213752   3.424   2.188   0.208
 4366SOL     OW13753   3.165   2.700   0.042
 4366SOL    HW113754   3.199   2.607   0.057
 4366SOL    HW213755   3.183   2.727  -0.053
 4367SOL     OW13756   2.930   3.195   0.849
 4367SOL    HW113757   2.937   3.111   0.794
 4367SOL    HW213758   2.992   3.264   0.813
 4368SOL     OW13759   2.181   2.672   0.949
 4368SOL    HW113760   2.274   2.708   0.954
 4368SOL    HW213761   2.175   2.587   1.001
 4369SOL     OW13762   3.000   2.242   1.678
 4369SOL    HW113763   2.955   2.305   1.742
 4369SOL    HW213764   3.093   2.273   1.661
 4370SOL     OW13765   3.022   2.069   1.477
 4370SOL    HW113766   3.022   2.133   1.554
 4370SOL    HW213767   3.050   2.117   1.394
 4371SOL     OW13768   1.870   3.188   0.200
 4371SOL    HW113769   1.777   3.209   0.169
 4371SOL    HW213770   1.880   3.089   0.213
 4372SOL     OW13771   1.950   3.663   0.927
 4372SOL    HW113772   1.908   3.577   0.900
 4372SOL    HW213773   2.044   3.666   0.893
 4373SOL     OW13774   2.366   3.430   0.910
 4373SOL    HW113775   2.432   3.504   0.919
 4373SOL    HW213776   2.410   3.351   0.868
 4374SOL     OW13777   2.864   2.658   1.238
 4374SOL    HW113778   2.905   2.626   1.324
 4374SOL    HW213779   2.768   2.631   1.235
 4375SOL     OW13780   3.231   2.812   1.660
 4375SOL    HW113781   3.270   2.901   1.680
 4375SOL    HW213782   3.241   2.792   1.563
 4376SOL     OW13783   2.677   2.434   0.325
 4376SOL    HW113784   2.684   2.345   0.279
 4376SOL    HW213785   2.583   2.468   0.317
 4377SOL     OW13786   3.519   2.466   1.206
 4377SOL    HW113787   3.481   2.397   1.268
 4377SOL    HW213788   3.601   2.430   1.162
 4378SOL     OW13789   2.114   3.426   1.744
 4378SOL    HW113790   2.084   3.483   1.820
 4378SOL    HW213791   2.107   3.329   1.770
 4379SOL     OW13792   2.533   2.326   1.269
 4379SOL    HW113793   2.499   2.237   1.239
 4379SOL    HW213794   2.559   2.380   1.189
 4380SOL     OW13795   2.792   3.540   1.465
 4380SOL    HW113796   2.768   3.522   1.370
 4380SOL    HW213797   2.822   3.634   1.475
 4381SOL     OW13798   2.021   2.999   1.466
 4381SOL    HW113799   2.043   2.938   1.542
 4381SOL    HW213800   2.031   2.950   1.380
 4382SOL     OW13801   3.209   2.921   1.234
 4382SOL    HW113802   3.233   2.858   1.160
 4382SOL    HW213803   3.119   2.961   1.216
 4383SOL     OW13804   3.164   2.717   0.309
 4383SOL    HW113805   3.078   2.686   0.351
 4383SOL    HW213806   3.160   2.703   0.210
 4384SOL     OW13807   3.621   3.609   1.154
 4384SOL    HW113808   3.682   3.639   1.081
 4384SOL    HW213809   3.583   3.520   1.132
 4385SOL     OW13810   3.114   3.593   1.128
 4385SOL    HW113811   3.198   3.598   1.074
 4385SOL    HW213812   3.091   3.497   1.146
 4386SOL     OW13813   1.945   3.120   1.022
 4386SOL    HW113814   1.940   3.119   1.122
 4386SOL    HW213815   1.862   3.079   0.984
 4387SOL     OW13816   2.550   3.524   1.716
 4387SOL    HW113817   2.494   3.605   1.725
 4387SOL    HW213818   2.602   3.528   1.630
 4388SOL     OW13819   2.765   1.948   0.133
 4388SOL    HW113820   2.816   1.949   0.047
 4388SOL    HW213821   2.821   1.906   0.204
 4389SOL     OW13822   3.588   1.997   0.523
 4389SOL    HW113823   3.661   1.980   0.456
 4389SOL    HW213824   3.557   1.910   0.561
 4390SOL     OW13825   3.250   3.435   0.477
 4390SOL    HW113826   3.317   3.447   0.403
 4390SOL    HW213827   3.210   3.524   0.500
 4391SOL     OW13828   1.992   3.656   1.851
 4391SOL    HW113829   1.951   3.582   1.904
 4391SOL    HW213830   2.056   3.707   1.909
 4392SOL     OW13831   3.142   2.789   0.672
 4392SOL    HW113832   3.202   2.708   0.674
 4392SOL    HW213833   3.182   2.858   0.612
 4393SOL     OW13834   2.692   3.135   1.422
 4393SOL    HW113835   2.687   3.168   1.517
 4393SOL    HW213836   2.606   3.154   1.376
 4394SOL     OW13837   2.534   3.478   0.154
 4394SOL    HW113838   2.543   3.488   0.055
 4394SOL    HW213839   2.494   3.389   0.175
 4395SOL     OW13840   3.512   3.582   1.394
 4395SOL    HW113841   3.565   3.592   1.310
 4395SOL    HW213842   3.485   3.672   1.428
 4396SOL     OW13843   3.703   2.037   0.963
 4396SOL    HW113844   3.742   1.952   0.927
 4396SOL    HW213845   3.605   2.039   0.944
 4397SOL     OW13846   3.056   3.474   0.031
 4397SOL    HW113847   3.062   3.381   0.068
 4397SOL    HW213848   2.997   3.474  -0.049
 4398SOL     OW13849   2.684   2.864   1.372
 4398SOL    HW113850   2.724   2.863   1.280
 4398SOL    HW213851   2.694   2.956   1.412
 4399SOL     OW13852   2.778   2.772   0.291
 4399SOL    HW113853   2.841   2.810   0.223
 4399SOL    HW213854   2.818   2.689   0.330
 4400SOL     OW13855   3.366   3.469   0.044
 4400SOL    HW113856   3.274   3.506   0.051
 4400SOL    HW213857   3.404   3.489  -0.046
 4401SOL     OW13858   2.234   3.150   1.490
 4401SOL    HW113859   2.221   3.243   1.456
 4401SOL    HW213860   2.150   3.098   1.477
 4402SOL     OW13861   3.476   3.154   1.289
 4402SOL    HW113862   3.536   3.157   1.369
 4402SOL    HW213863   3.401   3.218   1.302
 4403SOL     OW13864   2.901   2.960   0.696
 4403SOL    HW113865   2.831   2.913   0.750
 4403SOL    HW213866   2.960   2.892   0.653
 4404SOL     OW13867   2.876   2.098   0.971
 4404SOL    HW113868   2.868   2.062   0.878
 4404SOL    HW213869   2.874   2.022   1.036
 4405SOL     OW13870   2.452   3.349   0.491
 4405SOL    HW113871   2.494   3.291   0.421
 4405SOL    HW213872   2.408   3.428   0.447
 4406SOL     OW13873   3.571   2.247   1.381
 4406SOL    HW113874   3.644   2.316   1.385
 4406SOL    HW213875   3.599   2.172   1.322
 4407SOL     OW13876   2.117   3.210   0.290
 4407SOL    HW113877   2.021   3.211   0.263
 4407SOL    HW213878   2.129   3.263   0.374
 4408SOL     OW13879   1.967   2.875   1.726
 4408SOL    HW113880   1.890   2.842   1.780
 4408SOL    HW213881   2.052   2.845   1.768
 4409SOL     OW13882   2.534   2.065   1.489
 4409SOL    HW113883   2.624   2.049   1.449
 4409SOL    HW213884   2.542   2.070   1.588
 4410SOL     OW13885   1.937   2.207   0.033
 4410SOL    HW113886   1.845   2.179   0.004
 4410SOL    HW213887   1.968   2.284  -0.023
 4411SOL     OW13888   3.302   2.718   1.398
 4411SOL    HW113889   3.245   2.770   1.335
 4411SOL    HW213890   3.398   2.730   1.374
 4412SOL     OW13891   1.934   2.028   0.318
 4412SOL    HW113892   1.917   2.111   0.264
 4412SOL    HW213893   2.024   1.991   0.296
 4413SOL     OW13894   3.045   3.197   0.119
 4413SOL    HW113895   2.946   3.186   0.121
 4413SOL    HW213896   3.079   3.212   0.212
 4414SOL     OW13897   2.475   2.704   1.431
 4414SOL    HW113898   2.531   2.785   1.414
 4414SOL    HW213899   2.534   2.624   1.434
 4415SOL     OW13900   3.355   3.629   0.959
 4415SOL    HW113901   3.388   3.693   0.890
 4415SOL    HW213902   3.421   3.623   1.034
 4416SOL     OW13903   2.578   2.427   1.708
 4416SOL    HW113904   2.597   2.492   1.782
 4416SOL    HW213905   2.638   2.347   1.717
 4417SOL     OW13906   3.312   3.082   1.633
 4417SOL    HW113907   3.303   3.072   1.732
 4417SOL    HW213908   3.408   3.075   1.607
 4418SOL     OW13909   2.252   3.603   1.560
 4418SOL    HW113910   2.161   3.644   1.558
 4418SOL    HW213911   2.245   3.509   1.592
 4419SOL     OW13912   3.536   2.745   1.254
 4419SOL    HW113913   3.509   2.656   1.217
 4419SOL    HW213914   3.537   2.813   1.181
 4420SOL     OW13915   3.087   2.187   0.449
 4420SOL    HW113916   3.152   2.113   0.438
 4420SOL    HW213917   3.107   2.237   0.533
 4421SOL     OW13918   3.639   2.204   1.642
 4421SOL    HW113919   3.622   2.235   1.548
 4421SOL    HW213920   3.555   2.167   1.680
 4422SOL     OW13921   3.592   2.796   1.517
 4422SOL    HW113922   3.630   2.887   1.532
 4422SOL    HW213923   3.584   2.779   1.418
 4423SOL     OW13924   2.721   3.236   0.016
 4423SOL    HW113925   2.675   3.251   0.104
 4423SOL    HW213926   2.765   3.321  -0.014
 4424SOL     OW13927   2.523   3.652   0.953
 4424SOL    HW113928   2.477   3.740   0.940
 4424SOL    HW213929   2.622   3.664   0.946
 4425SOL     OW13930   2.721   2.818   0.861
 4425SOL    HW113931   2.775   2.749   0.909
 4425SOL    HW213932   2.689   2.887   0.927
 4426SOL     OW13933   2.945   2.846   0.087
 4426SOL    HW113934   2.922   2.899   0.005
 4426SOL    HW213935   3.026   2.790   0.068
 4427SOL     OW13936   3.723   3.431   0.851
 4427SOL    HW113937   3.652   3.419   0.781
 4427SOL    HW213938   3.724   3.352   0.911
 4428SOL     OW13939   2.083   3.176   1.844
 4428SOL    HW113940   2.018   3.103   1.823
 4428SOL    HW213941   2.087   3.190   1.942
 4429SOL     OW13942   1.941   3.102   0.653
 4429SOL    HW113943   1.940   3.055   0.741
 4429SOL    HW213944   2.023   3.074   0.602
 4430SOL     OW13945   2.534   3.253   1.624
 4430SOL    HW113946   2.456   3.203   1.662
 4430SOL    HW213947   2.531   3.348   1.655
 4431SOL     OW13948   3.686   2.054   1.227
 4431SOL    HW113949   3.682   1.964   1.271
 4431SOL    HW213950   3.689   2.043   1.128
 4432SOL     OW13951   3.567   3.349   1.104
 4432SOL    HW113952   3.474   3.324   1.077
 4432SOL    HW213953   3.593   3.299   1.186
 4433SOL     OW13954   2.674   3.448   0.687
 4433SOL    HW113955   2.706   3.458   0.593
 4433SOL    HW213956   2.595   3.386   0.689
 4434SOL     OW13957   3.286   2.076   1.112
 4434SOL    HW113958   3.338   2.011   1.167
 4434SOL    HW213959   3.237   2.139   1.173
 4435SOL     OW13960   2.863   1.896   1.154
 4435SOL    HW113961   2.800   1.824   1.123
 4435SOL    HW213962   2.956   1.860   1.154
 4436SOL     OW13963   2.632   3.192   0.301
 4436SOL    HW113964   2.586   3.105   0.318
 4436SOL    HW213965   2.723   3.189   0.342
 4437SOL     OW13966   2.480   3.429   1.284
 4437SOL    HW113967   2.475   3.511   1.341
 4437SOL    HW213968   2.569   3.426   1.239
 4438SOL     OW13969   3.214   1.914   0.168
 4438SOL    HW113970   3.249   1.873   0.084
 4438SOL    HW213971   3.124   1.876   0.188
 4439SOL     OW13972   3.162   2.315   0.691
 4439SOL    HW113973   3.103   2.395   0.695
 4439SOL    HW213974   3.177   2.280   0.784
 4440SOL     OW13975   3.455   2.083   0.882
 4440SOL    HW113976   3.371   2.082   0.936
 4440SOL    HW213977   3.457   2.166   0.826
 4441SOL     OW13978   1.901   2.939   0.300
 4441SOL    HW113979   2.000   2.928   0.291
 4441SOL    HW213980   1.861   2.853   0.332
 4442SOL     OW13981   2.737   3.508   0.337
 4442SOL    HW113982   2.660   3.473   0.283
 4442SOL    HW213983   2.705   3.579   0.399
 4443SOL     OW13984   1.881   2.230   2.509
 4443SOL    HW113985   1.799   2.273   2.548
 4443SOL    HW213986   1.853   2.157   2.446
 4444SOL     OW13987   2.431   3.137   3.027
 4444SOL    HW113988   2.338   3.130   2.990
 4444SOL    HW213989   2.442   3.226   3.071
 4445SOL     OW13990   3.417   3.373   2.565
 4445SOL    HW113991   3.360   3.357   2.646
 4445SOL    HW213992   3.358   3.383   2.485
 4446SOL     OW13993   2.997   2.565   2.579
 4446SOL    HW113994   3.054   2.643   2.554
 4446SOL    HW213995   2.937   2.591   2.655
 4447SOL     OW13996   3.617   2.469   2.093
 4447SOL    HW113997   3.605   2.456   1.994
 4447SOL    HW213998   3.587   2.388   2.142
 4448SOL     OW13999   2.630   3.006   2.885
 4448SOL    HW114000   2.552   3.023   2.945
 4448SOL    HW214001   2.664   3.093   2.849
 4449SOL     OW14002   2.712   2.660   3.685
 4449SOL    HW114003   2.708   2.736   3.750
 4449SOL    HW214004   2.734   2.696   3.594
 4450SOL     OW14005   2.547   2.874   2.527
 4450SOL    HW114006   2.616   2.858   2.597
 4450SOL    HW214007   2.474   2.931   2.565
 4451SOL     OW14008   2.548   3.023   3.665
 4451SOL    HW114009   2.608   3.102   3.679
 4451SOL    HW214010   2.462   3.054   3.624
 4452SOL     OW14011   2.197   3.297   2.923
 4452SOL    HW114012   2.119   3.266   2.870
 4452SOL    HW214013   2.255   3.355   2.866
 4453SOL     OW14014   3.322   3.367   3.201
 4453SOL    HW114015   3.346   3.461   3.227
 4453SOL    HW214016   3.306   3.313   3.283
 4454SOL     OW14017   3.465   2.309   2.599
 4454SOL    HW114018   3.391   2.355   2.549
 4454SOL    HW214019   3.516   2.377   2.652
 4455SOL     OW14020   2.093   3.575   2.345
 4455SOL    HW114021   2.127   3.652   2.399
 4455SOL    HW214022   2.137   3.575   2.255
 4456SOL     OW14023   2.989   3.203   3.552
 4456SOL    HW114024   3.036   3.203   3.640
 4456SOL    HW214025   2.941   3.116   3.541
 4457SOL     OW14026   2.092   3.296   2.400
 4457SOL    HW114027   2.066   3.392   2.400
 4457SOL    HW214028   2.021   3.242   2.445
 4458SOL     OW14029   2.102   2.953   2.748
 4458SOL    HW114030   2.116   2.869   2.800
 4458SOL    HW214031   2.047   3.017   2.803
 4459SOL     OW14032   2.482   3.648   3.301
 4459SOL    HW114033   2.390   3.631   3.336
 4459SOL    HW214034   2.510   3.740   3.327
 4460SOL     OW14035   2.468   2.826   1.985
 4460SOL    HW114036   2.475   2.910   1.931
 4460SOL    HW214037   2.514   2.839   2.073
 4461SOL     OW14038   3.456   1.976   3.342
 4461SOL    HW114039   3.438   2.043   3.270
 4461SOL    HW214040   3.453   2.022   3.431
 4462SOL     OW14041   1.984   2.505   2.425
 4462SOL    HW114042   1.939   2.417   2.442
 4462SOL    HW214043   1.983   2.559   2.509
 4463SOL     OW14044   3.704   3.629   2.221
 4463SOL    HW114045   3.758   3.600   2.301
 4463SOL    HW214046   3.734   3.719   2.192
 4464SOL     OW14047   1.889   3.458   1.979
 4464SOL    HW114048   1.870   3.362   2.000
 4464SOL    HW214049   1.856   3.516   2.054
 4465SOL     OW14050   3.551   2.784   2.474
 4465SOL    HW114051   3.646   2.755   2.482
 4465SOL    HW214052   3.543   2.849   2.399
 4466SOL     OW14053   3.503   2.970   2.294
 4466SOL    HW114054   3.589   2.972   2.242
 4466SOL    HW214055   3.517   3.017   2.382
 4467SOL     OW14056   1.975   2.599   3.459
 4467SOL    HW114057   2.063   2.586   3.504
 4467SOL    HW214058   1.962   2.696   3.437
 4468SOL     OW14059   2.475   3.227   2.588
 4468SOL    HW114060   2.426   3.140   2.597
 4468SOL    HW214061   2.452   3.270   2.501
 4469SOL     OW14062   3.155   3.090   3.285
 4469SOL    HW114063   3.192   3.017   3.227
 4469SOL    HW214064   3.207   3.095   3.370
 4470SOL     OW14065   2.671   1.866   2.364
 4470SOL    HW114066   2.711   1.957   2.355
 4470SOL    HW214067   2.571   1.874   2.370
 4471SOL     OW14068   2.059   2.838   3.126
 4471SOL    HW114069   2.148   2.793   3.112
 4471SOL    HW214070   1.986   2.773   3.107
 4472SOL     OW14071   3.387   2.861   2.052
 4472SOL    HW114072   3.324   2.785   2.065
 4472SOL    HW214073   3.435   2.879   2.138
 4473SOL     OW14074   3.049   3.654   3.478
 4473SOL    HW114075   3.073   3.714   3.402
 4473SOL    HW214076   3.056   3.559   3.448
 4474SOL     OW14077   3.328   3.279   2.815
 4474SOL    HW114078   3.269   3.285   2.895
 4474SOL    HW214079   3.313   3.191   2.769
 4475SOL     OW14080   3.529   3.576   2.434
 4475SOL    HW114081   3.488   3.553   2.346
 4475SOL    HW214082   3.511   3.502   2.499
 4476SOL     OW14083   2.460   2.591   2.132
 4476SOL    HW114084   2.484   2.660   2.064
 4476SOL    HW214085   2.382   2.624   2.186
 4477SOL     OW14086   3.143   2.207   2.806
 4477SOL    HW114087   3.057   2.157   2.793
 4477SOL    HW214088   3.205   2.153   2.862
 4478SOL     OW14089   3.438   3.524   2.169
 4478SOL    HW114090   3.527   3.570   2.172
 4478SOL    HW214091   3.417   3.500   2.074
 4479SOL     OW14092   2.669   2.467   3.327
 4479SOL    HW114093   2.622   2.464   3.416
 4479SOL    HW214094   2.618   2.412   3.261
 4480SOL     OW14095   3.256   2.331   3.536
 4480SOL    HW114096   3.236   2.374   3.624
 4480SOL    HW214097   3.334   2.269   3.545
 4481SOL     OW14098   2.835   2.752   3.434
 4481SOL    HW114099   2.881   2.668   3.405
 4481SOL    HW214100   2.779   2.786   3.359
 4482SOL     OW14101   2.853   2.272   3.104
 4482SOL    HW114102   2.776   2.306   3.158
 4482SOL    HW214103   2.819   2.221   3.025
 4483SOL     OW14104   2.903   2.563   2.291
 4483SOL    HW114105   2.929   2.559   2.387
 4483SOL    HW214106   2.818   2.512   2.277
 4484SOL     OW14107   1.938   2.673   2.651
 4484SOL    HW114108   2.037   2.661   2.660
 4484SOL    HW214109   1.914   2.768   2.672
 4485SOL     OW14110   1.992   3.683   3.433
 4485SOL    HW114111   1.982   3.668   3.532
 4485SOL    HW214112   1.906   3.719   3.397
 4486SOL     OW14113   2.727   2.210   2.057
 4486SOL    HW114114   2.786   2.273   2.008
 4486SOL    HW214115   2.746   2.116   2.028
 4487SOL     OW14116   3.581   2.447   3.693
 4487SOL    HW114117   3.555   2.536   3.657
 4487SOL    HW214118   3.579   2.379   3.620
 4488SOL     OW14119   3.224   3.006   2.407
 4488SOL    HW114120   3.307   2.977   2.359
 4488SOL    HW214121   3.175   3.073   2.351
 4489SOL     OW14122   2.870   3.318   2.339
 4489SOL    HW114123   2.824   3.390   2.287
 4489SOL    HW214124   2.866   3.338   2.437
 4490SOL     OW14125   2.213   3.663   2.715
 4490SOL    HW114126   2.263   3.577   2.721
 4490SOL    HW214127   2.278   3.740   2.712
 4491SOL     OW14128   3.657   2.928   2.735
 4491SOL    HW114129   3.595   2.913   2.659
 4491SOL    HW214130   3.605   2.939   2.820
 4492SOL     OW14131   3.089   3.412   3.368
 4492SOL    HW114132   3.095   3.335   3.432
 4492SOL    HW214133   3.037   3.386   3.288
 4493SOL     OW14134   2.183   2.805   2.104
 4493SOL    HW114135   2.265   2.844   2.062
 4493SOL    HW214136   2.156   2.723   2.055
 4494SOL     OW14137   3.320   2.597   2.590
 4494SOL    HW114138   3.315   2.532   2.665
 4494SOL    HW214139   3.400   2.656   2.603
 4495SOL     OW14140   2.323   3.128   3.589
 4495SOL    HW114141   2.273   3.129   3.503
 4495SOL    HW214142   2.260   3.110   3.665
 4496SOL     OW14143   2.973   3.638   2.099
 4496SOL    HW114144   2.913   3.576   2.149
 4496SOL    HW214145   3.004   3.594   2.014
 4497SOL     OW14146   3.494   3.239   1.943
 4497SOL    HW114147   3.462   3.333   1.933
 4497SOL    HW214148   3.418   3.176   1.931
 4498SOL     OW14149   2.326   3.605   2.185
 4498SOL    HW114150   2.359   3.644   2.271
 4498SOL    HW214151   2.402   3.598   2.120
 4499SOL     OW14152   3.262   1.969   2.288
 4499SOL    HW114153   3.238   1.932   2.198
 4499SOL    HW214154   3.361   1.985   2.292
 4500SOL     OW14155   2.111   3.647   3.103
 4500SOL    HW114156   2.168   3.582   3.153
 4500SOL    HW214157   2.095   3.614   3.010
 4501SOL     OW14158   2.802   3.560   2.766
 4501SOL    HW114159   2.882   3.503   2.787
 4501SOL    HW214160   2.753   3.520   2.689
 4502SOL     OW14161   3.409   2.084   3.591
 4502SOL    HW114162   3.404   2.121   3.683
 4502SOL    HW214163   3.337   2.015   3.579
 4503SOL     OW14164   2.476   1.984   1.979
 4503SOL    HW114165   2.574   1.962   1.986
 4503SOL    HW214166   2.445   1.967   1.886
 4504SOL     OW14167   2.643   2.126   3.611
 4504SOL    HW114168   2.710   2.065   3.654
 4504SOL    HW214169   2.570   2.145   3.676
 4505SOL     OW14170   2.750   3.376   3.057
 4505SOL    HW114171   2.727   3.351   2.963
 4505SOL    HW214172   2.811   3.307   3.096
 4506SOL     OW14173   3.213   2.452   3.295
 4506SOL    HW114174   3.241   2.409   3.380
 4506SOL    HW214175   3.238   2.548   3.296
 4507SOL     OW14176   2.665   3.264   2.786
 4507SOL    HW114177   2.755   3.278   2.744
 4507SOL    HW214178   2.594   3.266   2.715
 4508SOL     OW14179   2.784   2.365   2.761
 4508SOL    HW114180   2.759   2.356   2.665
 4508SOL    HW214181   2.832   2.283   2.792
 4509SOL     OW14182   3.296   3.050   1.903
 4509SOL    HW114183   3.328   2.974   1.960
 4509SOL    HW214184   3.204   3.077   1.933
 4510SOL     OW14185   2.797   2.098   2.342
 4510SOL    HW114186   2.749   2.139   2.264
 4510SOL    HW214187   2.896   2.096   2.323
 4511SOL     OW14188   2.938   2.545   3.326
 4511SOL    HW114189   2.858   2.484   3.329
 4511SOL    HW214190   3.019   2.492   3.302
 4512SOL     OW14191   3.089   3.432   2.655
 4512SOL    HW114192   3.110   3.506   2.590
 4512SOL    HW214193   3.157   3.432   2.728
 4513SOL     OW14194   2.321   3.014   2.603
 4513SOL    HW114195   2.250   2.987   2.668
 4513SOL    HW214196   2.295   2.986   2.510
 4514SOL     OW14197   3.133   3.659   2.453
 4514SOL    HW114198   3.177   3.723   2.389
 4514SOL    HW214199   3.083   3.711   2.523
 4515SOL     OW14200   2.894   2.411   1.878
 4515SOL    HW114201   2.853   2.493   1.839
 4515SOL    HW214202   2.958   2.437   1.951
 4516SOL     OW14203   2.728   2.316   2.504
 4516SOL    HW114204   2.696   2.388   2.442
 4516SOL    HW214205   2.752   2.235   2.451
 4517SOL     OW14206   2.879   1.901   2.615
 4517SOL    HW114207   2.807   1.906   2.546
 4517SOL    HW214208   2.855   1.832   2.684
 4518SOL     OW14209   3.291   3.035   2.729
 4518SOL    HW114210   3.236   2.951   2.722
 4518SOL    HW214211   3.317   3.064   2.637
 4519SOL     OW14212   3.328   2.452   2.854
 4519SOL    HW114213   3.298   2.357   2.861
 4519SOL    HW214214   3.401   2.468   2.920
 4520SOL     OW14215   3.719   2.695   2.239
 4520SOL    HW114216   3.761   2.631   2.303
 4520SOL    HW214217   3.681   2.644   2.161
 4521SOL     OW14218   2.350   3.247   2.036
 4521SOL    HW114219   2.263   3.232   2.083
 4521SOL    HW214220   2.333   3.273   1.941
 4522SOL     OW14221   3.526   3.142   2.519
 4522SOL    HW114222   3.625   3.150   2.533
 4522SOL    HW214223   3.481   3.226   2.550
 4523SOL     OW14224   3.252   2.437   1.940
 4523SOL    HW114225   3.198   2.416   2.021
 4523SOL    HW214226   3.343   2.396   1.949
 4524SOL     OW14227   3.616   3.085   3.450
 4524SOL    HW114228   3.707   3.046   3.437
 4524SOL    HW214229   3.624   3.181   3.474
 4525SOL     OW14230   2.926   3.209   3.202
 4525SOL    HW114231   2.846   3.186   3.257
 4525SOL    HW214232   3.009   3.183   3.251
 4526SOL     OW14233   3.454   3.491   3.487
 4526SOL    HW114234   3.481   3.525   3.397
 4526SOL    HW214235   3.533   3.453   3.533
 4527SOL     OW14236   2.973   3.057   2.962
 4527SOL    HW114237   2.933   3.101   3.043
 4527SOL    HW214238   2.932   3.094   2.879
 4528SOL     OW14239   3.500   2.961   2.941
 4528SOL    HW114240   3.505   3.042   3.000
 4528SOL    HW214241   3.414   2.963   2.890
 4529SOL     OW14242   2.777   1.951   3.264
 4529SOL    HW114243   2.802   1.931   3.169
 4529SOL    HW214244   2.849   2.007   3.306
 4530SOL     OW14245   2.842   2.978   3.581
 4530SOL    HW114246   2.743   2.984   3.591
 4530SOL    HW214247   2.865   2.898   3.525
 4531SOL     OW14248   2.567   2.912   2.230
 4531SOL    HW114249   2.553   2.919   2.329
 4531SOL    HW214250   2.651   2.861   2.212
 4532SOL     OW14251   3.136   2.248   3.124
 4532SOL    HW114252   3.157   2.322   3.188
 4532SOL    HW214253   3.047   2.265   3.081
 4533SOL     OW14254   1.926   3.426   3.193
 4533SOL    HW114255   1.880   3.508   3.159
 4533SOL    HW214256   2.024   3.445   3.202
 4534SOL     OW14257   2.229   2.962   2.363
 4534SOL    HW114258   2.222   3.045   2.307
 4534SOL    HW214259   2.233   2.882   2.303
 4535SOL     OW14260   3.114   3.210   2.250
 4535SOL    HW114261   3.164   3.287   2.290
 4535SOL    HW214262   3.019   3.212   2.282
 4536SOL     OW14263   3.134   3.307   3.004
 4536SOL    HW114264   3.181   3.320   3.091
 4536SOL    HW214265   3.068   3.233   3.013
 4537SOL     OW14266   3.444   2.501   2.334
 4537SOL    HW114267   3.413   2.562   2.407
 4537SOL    HW214268   3.494   2.553   2.265
 4538SOL     OW14269   2.216   3.372   3.191
 4538SOL    HW114270   2.195   3.328   3.104
 4538SOL    HW214271   2.313   3.398   3.194
 4539SOL     OW14272   3.449   2.641   3.532
 4539SOL    HW114273   3.357   2.679   3.527
 4539SOL    HW214274   3.509   2.688   3.467
 4540SOL     OW14275   2.875   1.967   3.632
 4540SOL    HW114276   2.881   2.052   3.580
 4540SOL    HW214277   2.907   1.891   3.575
 4541SOL     OW14278   2.435   2.732   2.891
 4541SOL    HW114279   2.479   2.821   2.882
 4541SOL    HW214280   2.372   2.732   2.968
 4542SOL     OW14281   3.222   2.724   2.907
 4542SOL    HW114282   3.147   2.724   2.841
 4542SOL    HW214283   3.259   2.632   2.916
 4543SOL     OW14284   3.071   2.387   2.137
 4543SOL    HW114285   3.084   2.303   2.191
 4543SOL    HW214286   3.042   2.461   2.197
 4544SOL     OW14287   1.899   3.172   3.144
 4544SOL    HW114288   1.952   3.123   3.212
 4544SOL    HW214289   1.921   3.270   3.149
 4545SOL     OW14290   2.594   2.496   2.926
 4545SOL    HW114291   2.653   2.470   2.850
 4545SOL    HW214292   2.566   2.592   2.915
 4546SOL     OW14293   3.590   2.797   3.716
 4546SOL    HW114294   3.544   2.790   3.627
 4546SOL    HW214295   3.528   2.841   3.782
 4547SOL     OW14296   3.484   2.229   2.236
 4547SOL    HW114297   3.486   2.153   2.300
 4547SOL    HW214298   3.436   2.306   2.276
 4548SOL     OW14299   2.885   2.628   2.828
 4548SOL    HW114300   2.900   2.649   2.924
 4548SOL    HW214301   2.855   2.533   2.819
 4549SOL     OW14302   2.842   3.435   3.562
 4549SOL    HW114303   2.822   3.479   3.474
 4549SOL    HW214304   2.881   3.344   3.546
 4550SOL     OW14305   3.721   3.380   3.467
 4550SOL    HW114306   3.735   3.407   3.372
 4550SOL    HW214307   3.804   3.402   3.520
 4551SOL     OW14308   2.212   2.760   3.666
 4551SOL    HW114309   2.288   2.804   3.714
 4551SOL    HW214310   2.247   2.713   3.584
 4552SOL     OW14311   3.402   2.136   1.987
 4552SOL    HW114312   3.341   2.061   2.010
 4552SOL    HW214313   3.424   2.188   2.070
 4553SOL     OW14314   3.165   2.700   1.904
 4553SOL    HW114315   3.199   2.607   1.919
 4553SOL    HW214316   3.183   2.727   1.809
 4554SOL     OW14317   2.930   3.195   2.711
 4554SOL    HW114318   2.937   3.111   2.656
 4554SOL    HW214319   2.992   3.264   2.675
 4555SOL     OW14320   3.000   2.242   3.540
 4555SOL    HW114321   2.955   2.305   3.604
 4555SOL    HW214322   3.093   2.273   3.523
 4556SOL     OW14323   3.022   2.069   3.339
 4556SOL    HW114324   3.022   2.133   3.416
 4556SOL    HW214325   3.050   2.117   3.256
 4557SOL     OW14326   1.870   3.188   2.062
 4557SOL    HW114327   1.777   3.209   2.031
 4557SOL    HW214328   1.880   3.089   2.075
 4558SOL     OW14329   1.950   3.663   2.789
 4558SOL    HW114330   1.908   3.577   2.762
 4558SOL    HW214331   2.044   3.666   2.755
 4559SOL     OW14332   2.366   3.430   2.772
 4559SOL    HW114333   2.432   3.504   2.781
 4559SOL    HW214334   2.410   3.351   2.730
 4560SOL     OW14335   2.864   2.658   3.100
 4560SOL    HW114336   2.905   2.626   3.186
 4560SOL    HW214337   2.768   2.631   3.097
 4561SOL     OW14338   1.902   2.406   2.976
 4561SOL    HW114339   1.987   2.373   2.935
 4561SOL    HW214340   1.915   2.421   3.074
 4562SOL     OW14341   3.231   2.812   3.522
 4562SOL    HW114342   3.270   2.901   3.542
 4562SOL    HW214343   3.241   2.792   3.425
 4563SOL     OW14344   2.677   2.434   2.187
 4563SOL    HW114345   2.684   2.345   2.141
 4563SOL    HW214346   2.583   2.468   2.179
 4564SOL     OW14347   3.519   2.466   3.068
 4564SOL    HW114348   3.481   2.397   3.130
 4564SOL    HW214349   3.601   2.430   3.024
 4565SOL     OW14350   2.114   3.426   3.606
 4565SOL    HW114351   2.084   3.483   3.682
 4565SOL    HW214352   2.107   3.329   3.632
 4566SOL     OW14353   2.533   2.326   3.131
 4566SOL    HW114354   2.499   2.237   3.101
 4566SOL    HW214355   2.559   2.380   3.051
 4567SOL     OW14356   2.792   3.540   3.327
 4567SOL    HW114357   2.768   3.522   3.232
 4567SOL    HW214358   2.822   3.634   3.337
 4568SOL     OW14359   2.021   2.999   3.328
 4568SOL    HW114360   2.043   2.938   3.404
 4568SOL    HW214361   2.031   2.950   3.242
 4569SOL     OW14362   3.209   2.921   3.096
 4569SOL    HW114363   3.233   2.858   3.022
 4569SOL    HW214364   3.119   2.961   3.078
 4570SOL     OW14365   3.164   2.717   2.171
 4570SOL    HW114366   3.078   2.686   2.213
 4570SOL    HW214367   3.160   2.703   2.072
 4571SOL     OW14368   3.621   3.609   3.016
 4571SOL    HW114369   3.682   3.639   2.943
 4571SOL    HW214370   3.583   3.520   2.994
 4572SOL     OW14371   3.114   3.593   2.990
 4572SOL    HW114372   3.198   3.598   2.936
 4572SOL    HW214373   3.091   3.497   3.008
 4573SOL     OW14374   1.945   3.120   2.884
 4573SOL    HW114375   1.940   3.119   2.984
 4573SOL    HW214376   1.862   3.079   2.846
 4574SOL     OW14377   2.550   3.524   3.578
 4574SOL    HW114378   2.494   3.605   3.587
 4574SOL    HW214379   2.602   3.528   3.492
 4575SOL     OW14380   3.588   1.997   2.385
 4575SOL    HW114381   3.661   1.980   2.318
 4575SOL    HW214382   3.557   1.910   2.423
 4576SOL     OW14383   3.250   3.435   2.339
 4576SOL    HW114384   3.317   3.447   2.265
 4576SOL    HW214385   3.210   3.524   2.362
 4577SOL     OW14386   1.992   3.656   3.713
 4577SOL    HW114387   1.951   3.582   3.766
 4577SOL    HW214388   2.056   3.707   3.771
 4578SOL     OW14389   3.142   2.789   2.534
 4578SOL    HW114390   3.202   2.708   2.536
 4578SOL    HW214391   3.182   2.858   2.474
 4579SOL     OW14392   2.692   3.135   3.284
 4579SOL    HW114393   2.687   3.168   3.379
 4579SOL    HW214394   2.606   3.154   3.238
 4580SOL     OW14395   2.534   3.478   2.016
 4580SOL    HW114396   2.543   3.488   1.917
 4580SOL    HW214397   2.494   3.389   2.037
 4581SOL     OW14398   3.512   3.582   3.256
 4581SOL    HW114399   3.565   3.592   3.172
 4581SOL    HW214400   3.485   3.672   3.290
 4582SOL     OW14401   3.703   2.037   2.825
 4582SOL    HW114402   3.742   1.952   2.789
 4582SOL    HW214403   3.605   2.039   2.806
 4583SOL     OW14404   3.056   3.474   1.893
 4583SOL    HW114405   3.062   3.381   1.930
 4583SOL    HW214406   2.997   3.474   1.813
 4584SOL     OW14407   2.684   2.864   3.234
 4584SOL    HW114408   2.724   2.863   3.142
 4584SOL    HW214409   2.694   2.956   3.274
 4585SOL     OW14410   2.778   2.772   2.153
 4585SOL    HW114411   2.841   2.810   2.085
 4585SOL    HW214412   2.818   2.689   2.192
 4586SOL     OW14413   3.366   3.469   1.906
 4586SOL    HW114414   3.274   3.506   1.913
 4586SOL    HW214415   3.404   3.489   1.816
 4587SOL     OW14416   2.234   3.150   3.352
 4587SOL    HW114417   2.221   3.243   3.318
 4587SOL    HW214418   2.150   3.098   3.339
 4588SOL     OW14419   3.476   3.154   3.151
 4588SOL    HW114420   3.536   3.157   3.231
 4588SOL    HW214421   3.401   3.218   3.164
 4589SOL     OW14422   2.901   2.960   2.558
 4589SOL    HW114423   2.831   2.913   2.612
 4589SOL    HW214424   2.960   2.892   2.515
 4590SOL     OW14425   2.876   2.098   2.833
 4590SOL    HW114426   2.868   2.062   2.740
 4590SOL    HW214427   2.874   2.022   2.898
 4591SOL     OW14428   2.452   3.349   2.353
 4591SOL    HW114429   2.494   3.291   2.283
 4591SOL    HW214430   2.408   3.428   2.309
 4592SOL     OW14431   3.571   2.247   3.243
 4592SOL    HW114432   3.644   2.316   3.247
 4592SOL    HW214433   3.599   2.172   3.184
 4593SOL     OW14434   2.117   3.210   2.152
 4593SOL    HW114435   2.021   3.211   2.125
 4593SOL    HW214436   2.129   3.263   2.236
 4594SOL     OW14437   1.967   2.875   3.588
 4594SOL    HW114438   1.890   2.842   3.642
 4594SOL    HW214439   2.052   2.845   3.630
 4595SOL     OW14440   2.534   2.065   3.351
 4595SOL    HW114441   2.624   2.049   3.311
 4595SOL    HW214442   2.542   2.070   3.450
 4596SOL     OW14443   1.937   2.207   1.895
 4596SOL    HW114444   1.845   2.179   1.866
 4596SOL    HW214445   1.968   2.284   1.839
 4597SOL     OW14446   3.302   2.718   3.260
 4597SOL    HW114447   3.245   2.770   3.197
 4597SOL    HW214448   3.398   2.730   3.236
 4598SOL     OW14449   1.934   2.028   2.180
 4598SOL    HW114450   1.917   2.111   2.126
 4598SOL    HW214451   2.024   1.991   2.158
 4599SOL     OW14452   3.045   3.197   1.981
 4599SOL    HW114453   2.946   3.186   1.983
 4599SOL    HW214454   3.079   3.212   2.074
 4600SOL     OW14455   2.475   2.704   3.293
 4600SOL    HW114456   2.531   2.785   3.276
 4600SOL    HW214457   2.534   2.624   3.296
 4601SOL     OW14458   3.355   3.629   2.821
 4601SOL    HW114459   3.388   3.693   2.752
 4601SOL    HW214460   3.421   3.623   2.896
 4602SOL     OW14461   2.578   2.427   3.570
 4602SOL    HW114462   2.597   2.492   3.644
 4602SOL    HW214463   2.638   2.347   3.579
 4603SOL     OW14464   3.312   3.082   3.495
 4603SOL    HW114465   3.303   3.072   3.594
 4603SOL    HW214466   3.408   3.075   3.469
 4604SOL     OW14467   2.252   3.603   3.422
 4604SOL    HW114468   2.161   3.644   3.420
 4604SOL    HW214469   2.245   3.509   3.454
 4605SOL     OW14470   3.536   2.745   3.116
 4605SOL    HW114471   3.509   2.656   3.079
 4605SOL    HW214472   3.537   2.813   3.043
 4606SOL     OW14473   3.087   2.187   2.311
 4606SOL    HW114474   3.152   2.113   2.300
 4606SOL    HW214475   3.107   2.237   2.395
 4607SOL     OW14476   2.456   2.607   2.514
 4607SOL    HW114477   2.506   2.692   2.495
 4607SOL    HW214478   2.368   2.609   2.466
 4608SOL     OW14479   3.639   2.204   3.504
 4608SOL    HW114480   3.622   2.235   3.410
 4608SOL    HW214481   3.555   2.167   3.542
 4609SOL     OW14482   3.592   2.796   3.379
 4609SOL    HW114483   3.630   2.887   3.394
 4609SOL    HW214484   3.584   2.779   3.280
 4610SOL     OW14485   2.721   3.236   1.878
 4610SOL    HW114486   2.675   3.251   1.966
 4610SOL    HW214487   2.765   3.321   1.848
 4611SOL     OW14488   2.523   3.652   2.815
 4611SOL    HW114489   2.477   3.740   2.802
 4611SOL    HW214490   2.622   3.664   2.808
 4612SOL     OW14491   2.721   2.818   2.723
 4612SOL    HW114492   2.775   2.749   2.771
 4612SOL    HW214493   2.689   2.887   2.789
 4613SOL     OW14494   2.945   2.846   1.949
 4613SOL    HW114495   2.922   2.899   1.867
 4613SOL    HW214496   3.026   2.790   1.930
 4614SOL     OW14497   3.723   3.431   2.713
 4614SOL    HW114498   3.652   3.419   2.643
 4614SOL    HW214499   3.724   3.352   2.773
 4615SOL     OW14500   2.083   3.176   3.706
 4615SOL    HW114501   2.018   3.103   3.685
 4615SOL    HW214502   2.087   3.190   3.804
 4616SOL     OW14503   1.941   3.102   2.515
 4616SOL    HW114504   1.940   3.055   2.603
 4616SOL    HW214505   2.023   3.074   2.464
 4617SOL     OW14506   2.534   3.253   3.486
 4617SOL    HW114507   2.456   3.203   3.524
 4617SOL    HW214508   2.531   3.348   3.517
 4618SOL     OW14509   3.686   2.054   3.089
 4618SOL    HW114510   3.682   1.964   3.133
 4618SOL    HW214511   3.689   2.043   2.990
 4619SOL     OW14512   3.567   3.349   2.966
 4619SOL    HW114513   3.474   3.324   2.939
 4619SOL    HW214514   3.593   3.299   3.048
 4620SOL     OW14515   2.674   3.448   2.549
 4620SOL    HW114516   2.706   3.458   2.455
 4620SOL    HW214517   2.595   3.386   2.551
 4621SOL     OW14518   3.286   2.076   2.974
 4621SOL    HW114519   3.338   2.011   3.029
 4621SOL    HW214520   3.237   2.139   3.035
 4622SOL     OW14521   2.863   1.896   3.016
 4622SOL    HW114522   2.800   1.824   2.985
 4622SOL    HW214523   2.956   1.860   3.016
 4623SOL     OW14524   2.632   3.192   2.163
 4623SOL    HW114525   2.586   3.105   2.180
 4623SOL    HW214526   2.723   3.189   2.204
 4624SOL     OW14527   2.480   3.429   3.146
 4624SOL    HW114528   2.475   3.511   3.203
 4624SOL    HW214529   2.569   3.426   3.101
 4625SOL     OW14530   3.214   1.914   2.030
 4625SOL    HW114531   3.249   1.873   1.946
 4625SOL    HW214532   3.124   1.876   2.050
 4626SOL     OW14533   3.162   2.315   2.553
 4626SOL    HW114534   3.103   2.395   2.557
 4626SOL    HW214535   3.177   2.280   2.646
 4627SOL     OW14536   3.455   2.083   2.744
 4627SOL    HW114537   3.371   2.082   2.798
 4627SOL    HW214538   3.457   2.166   2.688
 4628SOL     OW14539   1.901   2.939   2.162
 4628SOL    HW114540   2.000   2.928   2.153
 4628SOL    HW214541   1.861   2.853   2.194
 4629SOL     OW14542   2.737   3.508   2.199
 4629SOL    HW114543   2.660   3.473   2.145
 4629SOL    HW214544   2.705   3.579   2.261
 4630SOL     OW14545   1.881   2.230   4.371
 4630SOL    HW114546   1.799   2.273   4.410
 4630SOL    HW214547   1.853   2.157   4.308
 4631SOL     OW14548   2.431   3.137   4.889
 4631SOL    HW114549   2.338   3.130   4.852
 4631SOL    HW214550   2.442   3.226   4.933
 4632SOL     OW14551   3.417   3.373   4.427
 4632SOL    HW114552   3.360   3.357   4.508
 4632SOL    HW214553   3.358   3.383   4.347
 4633SOL     OW14554   2.997   2.565   4.441
 4633SOL    HW114555   3.054   2.643   4.416
 4633SOL    HW214556   2.937   2.591   4.517
 4634SOL     OW14557   3.617   2.469   3.955
 4634SOL    HW114558   3.605   2.456   3.856
 4634SOL    HW214559   3.587   2.388   4.004
 4635SOL     OW14560   2.630   3.006   4.747
 4635SOL    HW114561   2.552   3.023   4.807
 4635SOL    HW214562   2.664   3.093   4.711
 4636SOL     OW14563   2.547   2.874   4.389
 4636SOL    HW114564   2.616   2.858   4.459
 4636SOL    HW214565   2.474   2.931   4.427
 4637SOL     OW14566   2.197   3.297   4.785
 4637SOL    HW114567   2.119   3.266   4.732
 4637SOL    HW214568   2.255   3.355   4.728
 4638SOL     OW14569   3.322   3.367   5.063
 4638SOL    HW114570   3.346   3.461   5.089
 4638SOL    HW214571   3.306   3.313   5.145
 4639SOL     OW14572   3.465   2.309   4.461
 4639SOL    HW114573   3.391   2.355   4.411
 4639SOL    HW214574   3.516   2.377   4.514
 4640SOL     OW14575   2.093   3.575   4.207
 4640SOL    HW114576   2.127   3.652   4.261
 4640SOL    HW214577   2.137   3.575   4.117
 4641SOL     OW14578   2.989   3.203   5.414
 4641SOL    HW114579   3.036   3.203   5.502
 4641SOL    HW214580   2.941   3.116   5.403
 4642SOL     OW14581   2.092   3.296   4.262
 4642SOL    HW114582   2.066   3.392   4.262
 4642SOL    HW214583   2.021   3.242   4.307
 4643SOL     OW14584   2.102   2.953   4.610
 4643SOL    HW114585   2.116   2.869   4.662
 4643SOL    HW214586   2.047   3.017   4.665
 4644SOL     OW14587   2.482   3.648   5.163
 4644SOL    HW114588   2.390   3.631   5.198
 4644SOL    HW214589   2.510   3.740   5.189
 4645SOL     OW14590   2.468   2.826   3.847
 4645SOL    HW114591   2.475   2.910   3.793
 4645SOL    HW214592   2.514   2.839   3.935
 4646SOL     OW14593   3.456   1.976   5.204
 4646SOL    HW114594   3.438   2.043   5.132
 4646SOL    HW214595   3.453   2.022   5.293
 4647SOL     OW14596   1.984   2.505   4.287
 4647SOL    HW114597   1.939   2.417   4.304
 4647SOL    HW214598   1.983   2.559   4.371
 4648SOL     OW14599   3.704   3.629   4.083
 4648SOL    HW114600   3.758   3.600   4.163
 4648SOL    HW214601   3.734   3.719   4.054
 4649SOL     OW14602   1.889   3.458   3.841
 4649SOL    HW114603   1.870   3.362   3.862
 4649SOL    HW214604   1.856   3.516   3.916
 4650SOL     OW14605   3.551   2.784   4.336
 4650SOL    HW114606   3.646   2.755   4.344
 4650SOL    HW214607   3.543   2.849   4.261
 4651SOL     OW14608   3.503   2.970   4.156
 4651SOL    HW114609   3.589   2.972   4.104
 4651SOL    HW214610   3.517   3.017   4.244
 4652SOL     OW14611   1.975   2.599   5.321
 4652SOL    HW114612   2.063   2.586   5.366
 4652SOL    HW214613   1.962   2.696   5.299
 4653SOL     OW14614   2.475   3.227   4.450
 4653SOL    HW114615   2.426   3.140   4.459
 4653SOL    HW214616   2.452   3.270   4.363
 4654SOL     OW14617   3.155   3.090   5.147
 4654SOL    HW114618   3.192   3.017   5.089
 4654SOL    HW214619   3.207   3.095   5.232
 4655SOL     OW14620   2.671   1.866   4.226
 4655SOL    HW114621   2.711   1.957   4.217
 4655SOL    HW214622   2.571   1.874   4.232
 4656SOL     OW14623   3.387   2.861   3.914
 4656SOL    HW114624   3.324   2.785   3.927
 4656SOL    HW214625   3.435   2.879   4.000
 4657SOL     OW14626   3.049   3.654   5.340
 4657SOL    HW114627   3.073   3.714   5.264
 4657SOL    HW214628   3.056   3.559   5.310
 4658SOL     OW14629   3.328   3.279   4.677
 4658SOL    HW114630   3.269   3.285   4.757
 4658SOL    HW214631   3.313   3.191   4.631
 4659SOL     OW14632   3.529   3.576   4.296
 4659SOL    HW114633   3.488   3.553   4.208
 4659SOL    HW214634   3.511   3.502   4.361
 4660SOL     OW14635   2.460   2.591   3.994
 4660SOL    HW114636   2.484   2.660   3.926
 4660SOL    HW214637   2.382   2.624   4.048
 4661SOL     OW14638   3.143   2.207   4.668
 4661SOL    HW114639   3.057   2.157   4.655
 4661SOL    HW214640   3.205   2.153   4.724
 4662SOL     OW14641   3.438   3.524   4.031
 4662SOL    HW114642   3.527   3.570   4.034
 4662SOL    HW214643   3.417   3.500   3.936
 4663SOL     OW14644   2.853   2.272   4.966
 4663SOL    HW114645   2.776   2.306   5.020
 4663SOL    HW214646   2.819   2.221   4.887
 4664SOL     OW14647   2.903   2.563   4.153
 4664SOL    HW114648   2.929   2.559   4.249
 4664SOL    HW214649   2.818   2.512   4.139
 4665SOL     OW14650   1.938   2.673   4.513
 4665SOL    HW114651   2.037   2.661   4.522
 4665SOL    HW214652   1.914   2.768   4.534
 4666SOL     OW14653   1.992   3.683   5.295
 4666SOL    HW114654   1.982   3.668   5.394
 4666SOL    HW214655   1.906   3.719   5.259
 4667SOL     OW14656   2.727   2.210   3.919
 4667SOL    HW114657   2.786   2.273   3.870
 4667SOL    HW214658   2.746   2.116   3.890
 4668SOL     OW14659   3.581   2.447   5.555
 4668SOL    HW114660   3.555   2.536   5.519
 4668SOL    HW214661   3.579   2.379   5.482
 4669SOL     OW14662   3.224   3.006   4.269
 4669SOL    HW114663   3.307   2.977   4.221
 4669SOL    HW214664   3.175   3.073   4.213
 4670SOL     OW14665   2.870   3.318   4.201
 4670SOL    HW114666   2.824   3.390   4.149
 4670SOL    HW214667   2.866   3.338   4.299
 4671SOL     OW14668   2.213   3.663   4.577
 4671SOL    HW114669   2.263   3.577   4.583
 4671SOL    HW214670   2.278   3.740   4.574
 4672SOL     OW14671   3.657   2.928   4.597
 4672SOL    HW114672   3.595   2.913   4.521
 4672SOL    HW214673   3.605   2.939   4.682
 4673SOL     OW14674   3.089   3.412   5.230
 4673SOL    HW114675   3.095   3.335   5.294
 4673SOL    HW214676   3.037   3.386   5.150
 4674SOL     OW14677   2.183   2.805   3.966
 4674SOL    HW114678   2.265   2.844   3.924
 4674SOL    HW214679   2.156   2.723   3.917
 4675SOL     OW14680   3.320   2.597   4.452
 4675SOL    HW114681   3.315   2.532   4.527
 4675SOL    HW214682   3.400   2.656   4.465
 4676SOL     OW14683   2.323   3.128   5.451
 4676SOL    HW114684   2.273   3.129   5.365
 4676SOL    HW214685   2.260   3.110   5.527
 4677SOL     OW14686   2.973   3.638   3.961
 4677SOL    HW114687   2.913   3.576   4.011
 4677SOL    HW214688   3.004   3.594   3.876
 4678SOL     OW14689   3.494   3.239   3.805
 4678SOL    HW114690   3.462   3.333   3.795
 4678SOL    HW214691   3.418   3.176   3.793
 4679SOL     OW14692   2.326   3.605   4.047
 4679SOL    HW114693   2.359   3.644   4.133
 4679SOL    HW214694   2.402   3.598   3.982
 4680SOL     OW14695   3.262   1.969   4.150
 4680SOL    HW114696   3.238   1.932   4.060
 4680SOL    HW214697   3.361   1.985   4.154
 4681SOL     OW14698   2.111   3.647   4.965
 4681SOL    HW114699   2.168   3.582   5.015
 4681SOL    HW214700   2.095   3.614   4.872
 4682SOL     OW14701   2.802   3.560   4.628
 4682SOL    HW114702   2.882   3.503   4.649
 4682SOL    HW214703   2.753   3.520   4.551
 4683SOL     OW14704   3.409   2.084   5.453
 4683SOL    HW114705   3.404   2.121   5.545
 4683SOL    HW214706   3.337   2.015   5.441
 4684SOL     OW14707   2.750   3.376   4.919
 4684SOL    HW114708   2.727   3.351   4.825
 4684SOL    HW214709   2.811   3.307   4.958
 4685SOL     OW14710   3.213   2.452   5.157
 4685SOL    HW114711   3.241   2.409   5.242
 4685SOL    HW214712   3.238   2.548   5.158
 4686SOL     OW14713   2.665   3.264   4.648
 4686SOL    HW114714   2.755   3.278   4.606
 4686SOL    HW214715   2.594   3.266   4.577
 4687SOL     OW14716   2.784   2.365   4.623
 4687SOL    HW114717   2.759   2.356   4.527
 4687SOL    HW214718   2.832   2.283   4.654
 4688SOL     OW14719   3.296   3.050   3.765
 4688SOL    HW114720   3.328   2.974   3.822
 4688SOL    HW214721   3.204   3.077   3.795
 4689SOL     OW14722   2.797   2.098   4.204
 4689SOL    HW114723   2.749   2.139   4.126
 4689SOL    HW214724   2.896   2.096   4.185
 4690SOL     OW14725   3.089   3.432   4.517
 4690SOL    HW114726   3.110   3.506   4.452
 4690SOL    HW214727   3.157   3.432   4.590
 4691SOL     OW14728   2.321   3.014   4.465
 4691SOL    HW114729   2.250   2.987   4.530
 4691SOL    HW214730   2.295   2.986   4.372
 4692SOL     OW14731   3.133   3.659   4.315
 4692SOL    HW114732   3.177   3.723   4.251
 4692SOL    HW214733   3.083   3.711   4.385
 4693SOL     OW14734   2.894   2.411   3.740
 4693SOL    HW114735   2.853   2.493   3.701
 4693SOL    HW214736   2.958   2.437   3.813
 4694SOL     OW14737   2.728   2.316   4.366
 4694SOL    HW114738   2.696   2.388   4.304
 4694SOL    HW214739   2.752   2.235   4.313
 4695SOL     OW14740   2.879   1.901   4.477
 4695SOL    HW114741   2.807   1.906   4.408
 4695SOL    HW214742   2.855   1.832   4.546
 4696SOL     OW14743   3.291   3.035   4.591
 4696SOL    HW114744   3.236   2.951   4.584
 4696SOL    HW214745   3.317   3.064   4.499
 4697SOL     OW14746   3.328   2.452   4.716
 4697SOL    HW114747   3.298   2.357   4.723
 4697SOL    HW214748   3.401   2.468   4.782
 4698SOL     OW14749   3.719   2.695   4.101
 4698SOL    HW114750   3.761   2.631   4.165
 4698SOL    HW214751   3.681   2.644   4.023
 4699SOL     OW14752   2.350   3.247   3.898
 4699SOL    HW114753   2.263   3.232   3.945
 4699SOL    HW214754   2.333   3.273   3.803
 4700SOL     OW14755   3.526   3.142   4.381
 4700SOL    HW114756   3.625   3.150   4.395
 4700SOL    HW214757   3.481   3.226   4.412
 4701SOL     OW14758   3.252   2.437   3.802
 4701SOL    HW114759   3.198   2.416   3.883
 4701SOL    HW214760   3.343   2.396   3.811
 4702SOL     OW14761   3.616   3.085   5.312
 4702SOL    HW114762   3.707   3.046   5.299
 4702SOL    HW214763   3.624   3.181   5.336
 4703SOL     OW14764   2.926   3.209   5.064
 4703SOL    HW114765   2.846   3.186   5.119
 4703SOL    HW214766   3.009   3.183   5.113
 4704SOL     OW14767   3.454   3.491   5.349
 4704SOL    HW114768   3.481   3.525   5.259
 4704SOL    HW214769   3.533   3.453   5.395
 4705SOL     OW14770   2.973   3.057   4.824
 4705SOL    HW114771   2.933   3.101   4.905
 4705SOL    HW214772   2.932   3.094   4.741
 4706SOL     OW14773   3.500   2.961   4.803
 4706SOL    HW114774   3.505   3.042   4.862
 4706SOL    HW214775   3.414   2.963   4.752
 4707SOL     OW14776   2.777   1.951   5.126
 4707SOL    HW114777   2.802   1.931   5.031
 4707SOL    HW214778   2.849   2.007   5.168
 4708SOL     OW14779   2.842   2.978   5.443
 4708SOL    HW114780   2.743   2.984   5.453
 4708SOL    HW214781   2.865   2.898   5.387
 4709SOL     OW14782   2.567   2.912   4.092
 4709SOL    HW114783   2.553   2.919   4.191
 4709SOL    HW214784   2.651   2.861   4.074
 4710SOL     OW14785   3.136   2.248   4.986
 4710SOL    HW114786   3.157   2.322   5.050
 4710SOL    HW214787   3.047   2.265   4.943
 4711SOL     OW14788   1.926   3.426   5.055
 4711SOL    HW114789   1.880   3.508   5.021
 4711SOL    HW214790   2.024   3.445   5.064
 4712SOL     OW14791   2.229   2.962   4.225
 4712SOL    HW114792   2.222   3.045   4.169
 4712SOL    HW214793   2.233   2.882   4.165
 4713SOL     OW14794   3.114   3.210   4.112
 4713SOL    HW114795   3.164   3.287   4.152
 4713SOL    HW214796   3.019   3.212   4.144
 4714SOL     OW14797   3.134   3.307   4.866
 4714SOL    HW114798   3.181   3.320   4.953
 4714SOL    HW214799   3.068   3.233   4.875
 4715SOL     OW14800   3.444   2.501   4.196
 4715SOL    HW114801   3.413   2.562   4.269
 4715SOL    HW214802   3.494   2.553   4.127
 4716SOL     OW14803   2.216   3.372   5.053
 4716SOL    HW114804   2.195   3.328   4.966
 4716SOL    HW214805   2.313   3.398   5.056
 4717SOL     OW14806   3.449   2.641   5.394
 4717SOL    HW114807   3.357   2.679   5.389
 4717SOL    HW214808   3.509   2.688   5.329
 4718SOL     OW14809   2.435   2.732   4.753
 4718SOL    HW114810   2.479   2.821   4.744
 4718SOL    HW214811   2.372   2.732   4.830
 4719SOL     OW14812   3.222   2.724   4.769
 4719SOL    HW114813   3.147   2.724   4.703
 4719SOL    HW214814   3.259   2.632   4.778
 4720SOL     OW14815   3.071   2.387   3.999
 4720SOL    HW114816   3.084   2.303   4.053
 4720SOL    HW214817   3.042   2.461   4.059
 4721SOL     OW14818   1.899   3.172   5.006
 4721SOL    HW114819   1.952   3.123   5.074
 4721SOL    HW214820   1.921   3.270   5.011
 4722SOL     OW14821   2.594   2.496   4.788
 4722SOL    HW114822   2.653   2.470   4.712
 4722SOL    HW214823   2.566   2.592   4.777
 4723SOL     OW14824   3.590   2.797   5.578
 4723SOL    HW114825   3.544   2.790   5.489
 4723SOL    HW214826   3.528   2.841   5.644
 4724SOL     OW14827   3.484   2.229   4.098
 4724SOL    HW114828   3.486   2.153   4.162
 4724SOL    HW214829   3.436   2.306   4.138
 4725SOL     OW14830   2.885   2.628   4.690
 4725SOL    HW114831   2.900   2.649   4.786
 4725SOL    HW214832   2.855   2.533   4.681
 4726SOL     OW14833   2.842   3.435   5.424
 4726SOL    HW114834   2.822   3.479   5.336
 4726SOL    HW214835   2.881   3.344   5.408
 4727SOL     OW14836   3.721   3.380   5.329
 4727SOL    HW114837   3.735   3.407   5.234
 4727SOL    HW214838   3.804   3.402   5.382
 4728SOL     OW14839   3.402   2.136   3.849
 4728SOL    HW114840   3.341   2.061   3.872
 4728SOL    HW214841   3.424   2.188   3.932
 4729SOL     OW14842   3.165   2.700   3.766
 4729SOL    HW114843   3.199   2.607   3.781
 4729SOL    HW214844   3.183   2.727   3.671
 4730SOL     OW14845   2.930   3.195   4.573
 4730SOL    HW114846   2.937   3.111   4.518
 4730SOL    HW214847   2.992   3.264   4.537
 4731SOL     OW14848   2.181   2.672   4.673
 4731SOL    HW114849   2.274   2.708   4.678
 4731SOL    HW214850   2.175   2.587   4.725
 4732SOL     OW14851   3.022   2.069   5.201
 4732SOL    HW114852   3.022   2.133   5.278
 4732SOL    HW214853   3.050   2.117   5.118
 4733SOL     OW14854   1.870   3.188   3.924
 4733SOL    HW114855   1.777   3.209   3.893
 4733SOL    HW214856   1.880   3.089   3.937
 4734SOL     OW14857   1.950   3.663   4.651
 4734SOL    HW114858   1.908   3.577   4.624
 4734SOL    HW214859   2.044   3.666   4.617
 4735SOL     OW14860   2.366   3.430   4.634
 4735SOL    HW114861   2.432   3.504   4.643
 4735SOL    HW214862   2.410   3.351   4.592
 4736SOL     OW14863   2.864   2.658   4.962
 4736SOL    HW114864   2.905   2.626   5.048
 4736SOL    HW214865   2.768   2.631   4.959
 4737SOL     OW14866   1.902   2.406   4.838
 4737SOL    HW114867   1.987   2.373   4.797
 4737SOL    HW214868   1.915   2.421   4.936
 4738SOL     OW14869   3.231   2.812   5.384
 4738SOL    HW114870   3.270   2.901   5.404
 4738SOL    HW214871   3.241   2.792   5.287
 4739SOL     OW14872   2.677   2.434   4.049
 4739SOL    HW114873   2.684   2.345   4.003
 4739SOL    HW214874   2.583   2.468   4.041
 4740SOL     OW14875   3.519   2.466   4.930
 4740SOL    HW114876   3.481   2.397   4.992
 4740SOL    HW214877   3.601   2.430   4.886
 4741SOL     OW14878   2.114   3.426   5.468
 4741SOL    HW114879   2.084   3.483   5.544
 4741SOL    HW214880   2.107   3.329   5.494
 4742SOL     OW14881   2.533   2.326   4.993
 4742SOL    HW114882   2.499   2.237   4.963
 4742SOL    HW214883   2.559   2.380   4.913
 4743SOL     OW14884   2.792   3.540   5.189
 4743SOL    HW114885   2.768   3.522   5.094
 4743SOL    HW214886   2.822   3.634   5.199
 4744SOL     OW14887   3.209   2.921   4.958
 4744SOL    HW114888   3.233   2.858   4.884
 4744SOL    HW214889   3.119   2.961   4.940
 4745SOL     OW14890   3.164   2.717   4.033
 4745SOL    HW114891   3.078   2.686   4.075
 4745SOL    HW214892   3.160   2.703   3.934
 4746SOL     OW14893   3.621   3.609   4.878
 4746SOL    HW114894   3.682   3.639   4.805
 4746SOL    HW214895   3.583   3.520   4.856
 4747SOL     OW14896   3.114   3.593   4.852
 4747SOL    HW114897   3.198   3.598   4.798
 4747SOL    HW214898   3.091   3.497   4.870
 4748SOL     OW14899   1.945   3.120   4.746
 4748SOL    HW114900   1.940   3.119   4.846
 4748SOL    HW214901   1.862   3.079   4.708
 4749SOL     OW14902   2.550   3.524   5.440
 4749SOL    HW114903   2.494   3.605   5.449
 4749SOL    HW214904   2.602   3.528   5.354
 4750SOL     OW14905   3.588   1.997   4.247
 4750SOL    HW114906   3.661   1.980   4.180
 4750SOL    HW214907   3.557   1.910   4.285
 4751SOL     OW14908   3.250   3.435   4.201
 4751SOL    HW114909   3.317   3.447   4.127
 4751SOL    HW214910   3.210   3.524   4.224
 4752SOL     OW14911   1.992   3.656   5.575
 4752SOL    HW114912   1.951   3.582   5.628
 4752SOL    HW214913   2.056   3.707   5.633
 4753SOL     OW14914   3.142   2.789   4.396
 4753SOL    HW114915   3.202   2.708   4.398
 4753SOL    HW214916   3.182   2.858   4.336
 4754SOL     OW14917   2.692   3.135   5.146
 4754SOL    HW114918   2.687   3.168   5.241
 4754SOL    HW214919   2.606   3.154   5.100
 4755SOL     OW14920   2.534   3.478   3.878
 4755SOL    HW114921   2.543   3.488   3.779
 4755SOL    HW214922   2.494   3.389   3.899
 4756SOL     OW14923   3.512   3.582   5.118
 4756SOL    HW114924   3.565   3.592   5.034
 4756SOL    HW214925   3.485   3.672   5.152
 4757SOL     OW14926   3.703   2.037   4.687
 4757SOL    HW114927   3.742   1.952   4.651
 4757SOL    HW214928   3.605   2.039   4.668
 4758SOL     OW14929   3.056   3.474   3.755
 4758SOL    HW114930   3.062   3.381   3.792
 4758SOL    HW214931   2.997   3.474   3.675
 4759SOL     OW14932   2.684   2.864   5.096
 4759SOL    HW114933   2.724   2.863   5.004
 4759SOL    HW214934   2.694   2.956   5.136
 4760SOL     OW14935   2.778   2.772   4.015
 4760SOL    HW114936   2.841   2.810   3.947
 4760SOL    HW214937   2.818   2.689   4.054
 4761SOL     OW14938   3.366   3.469   3.768
 4761SOL    HW114939   3.274   3.506   3.775
 4761SOL    HW214940   3.404   3.489   3.678
 4762SOL     OW14941   2.234   3.150   5.214
 4762SOL    HW114942   2.221   3.243   5.180
 4762SOL    HW214943   2.150   3.098   5.201
 4763SOL     OW14944   3.476   3.154   5.013
 4763SOL    HW114945   3.536   3.157   5.093
 4763SOL    HW214946   3.401   3.218   5.026
 4764SOL     OW14947   2.901   2.960   4.420
 4764SOL    HW114948   2.831   2.913   4.474
 4764SOL    HW214949   2.960   2.892   4.377
 4765SOL     OW14950   2.876   2.098   4.695
 4765SOL    HW114951   2.868   2.062   4.602
 4765SOL    HW214952   2.874   2.022   4.760
 4766SOL     OW14953   2.452   3.349   4.215
 4766SOL    HW114954   2.494   3.291   4.145
 4766SOL    HW214955   2.408   3.428   4.171
 4767SOL     OW14956   3.571   2.247   5.105
 4767SOL    HW114957   3.644   2.316   5.109
 4767SOL    HW214958   3.599   2.172   5.046
 4768SOL     OW14959   2.117   3.210   4.014
 4768SOL    HW114960   2.021   3.211   3.987
 4768SOL    HW214961   2.129   3.263   4.098
 4769SOL     OW14962   2.534   2.065   5.213
 4769SOL    HW114963   2.624   2.049   5.173
 4769SOL    HW214964   2.542   2.070   5.312
 4770SOL     OW14965   1.937   2.207   3.757
 4770SOL    HW114966   1.845   2.179   3.728
 4770SOL    HW214967   1.968   2.284   3.701
 4771SOL     OW14968   3.302   2.718   5.122
 4771SOL    HW114969   3.245   2.770   5.059
 4771SOL    HW214970   3.398   2.730   5.098
 4772SOL     OW14971   1.934   2.028   4.042
 4772SOL    HW114972   1.917   2.111   3.988
 4772SOL    HW214973   2.024   1.991   4.020
 4773SOL     OW14974   3.045   3.197   3.843
 4773SOL    HW114975   2.946   3.186   3.845
 4773SOL    HW214976   3.079   3.212   3.936
 4774SOL     OW14977   3.355   3.629   4.683
 4774SOL    HW114978   3.388   3.693   4.614
 4774SOL    HW214979   3.421   3.623   4.758
 4775SOL     OW14980   3.312   3.082   5.357
 4775SOL    HW114981   3.303   3.072   5.456
 4775SOL    HW214982   3.408   3.075   5.331
 4776SOL     OW14983   2.252   3.603   5.284
 4776SOL    HW114984   2.161   3.644   5.282
 4776SOL    HW214985   2.245   3.509   5.316
 4777SOL     OW14986   3.536   2.745   4.978
 4777SOL    HW114987   3.509   2.656   4.941
 4777SOL    HW214988   3.537   2.813   4.905
 4778SOL     OW14989   3.087   2.187   4.173
 4778SOL    HW114990   3.152   2.113   4.162
 4778SOL    HW214991   3.107   2.237   4.257
 4779SOL     OW14992   3.639   2.204   5.366
 4779SOL    HW114993   3.622   2.235   5.272
 4779SOL    HW214994   3.555   2.167   5.404
 4780SOL     OW14995   3.592   2.796   5.241
 4780SOL    HW114996   3.630   2.887   5.256
 4780SOL    HW214997   3.584   2.779   5.142
 4781SOL     OW14998   2.721   3.236   3.740
 4781SOL    HW114999   2.675   3.251   3.828
 4781SOL    HW215000   2.765   3.321   3.710
 4782SOL     OW15001   2.523   3.652   4.677
 4782SOL    HW115002   2.477   3.740   4.664
 4782SOL    HW215003   2.622   3.664   4.670
 4783SOL     OW15004   2.721   2.818   4.585
 4783SOL    HW115005   2.775   2.749   4.633
 4783SOL    HW215006   2.689   2.887   4.651
 4784SOL     OW15007   2.945   2.846   3.811
 4784SOL    HW115008   2.922   2.899   3.729
 4784SOL    HW215009   3.026   2.790   3.792
 4785SOL     OW15010   3.723   3.431   4.575
 4785SOL    HW115011   3.652   3.419   4.505
 4785SOL    HW215012   3.724   3.352   4.635
 4786SOL     OW15013   2.083   3.176   5.568
 4786SOL    HW115014   2.018   3.103   5.547
 4786SOL    HW215015   2.087   3.190   5.666
 4787SOL     OW15016   1.941   3.102   4.377
 4787SOL    HW115017   1.940   3.055   4.465
 4787SOL    HW215018   2.023   3.074   4.326
 4788SOL     OW15019   2.534   3.253   5.348
 4788SOL    HW115020   2.456   3.203   5.386
 4788SOL    HW215021   2.531   3.348   5.379
 4789SOL     OW15022   3.686   2.054   4.951
 4789SOL    HW115023   3.682   1.964   4.995
 4789SOL    HW215024   3.689   2.043   4.852
 4790SOL     OW15025   3.567   3.349   4.828
 4790SOL    HW115026   3.474   3.324   4.801
 4790SOL    HW215027   3.593   3.299   4.910
 4791SOL     OW15028   2.674   3.448   4.411
 4791SOL    HW115029   2.706   3.458   4.317
 4791SOL    HW215030   2.595   3.386   4.413
 4792SOL     OW15031   3.286   2.076   4.836
 4792SOL    HW115032   3.338   2.011   4.891
 4792SOL    HW215033   3.237   2.139   4.897
 4793SOL     OW15034   2.863   1.896   4.878
 4793SOL    HW115035   2.800   1.824   4.847
 4793SOL    HW215036   2.956   1.860   4.878
 4794SOL     OW15037   2.632   3.192   4.025
 4794SOL    HW115038   2.586   3.105   4.042
 4794SOL    HW215039   2.723   3.189   4.066
 4795SOL     OW15040   2.480   3.429   5.008
 4795SOL    HW115041   2.475   3.511   5.065
 4795SOL    HW215042   2.569   3.426   4.963
 4796SOL     OW15043   3.214   1.914   3.892
 4796SOL    HW115044   3.249   1.873   3.808
 4796SOL    HW215045   3.124   1.876   3.912
 4797SOL     OW15046   3.162   2.315   4.415
 4797SOL    HW115047   3.103   2.395   4.419
 4797SOL    HW215048   3.177   2.280   4.508
 4798SOL     OW15049   3.455   2.083   4.606
 4798SOL    HW115050   3.371   2.082   4.660
 4798SOL    HW215051   3.457   2.166   4.550
 4799SOL     OW15052   1.901   2.939   4.024
 4799SOL    HW115053   2.000   2.928   4.015
 4799SOL    HW215054   1.861   2.853   4.056
 4800SOL     OW15055   2.737   3.508   4.061
 4800SOL    HW115056   2.660   3.473   4.007
 4800SOL    HW215057   2.705   3.579   4.123
 4801SOL     OW15058   1.881   2.230   6.233
 4801SOL    HW115059   1.799   2.273   6.272
 4801SOL    HW215060   1.853   2.157   6.170
 4802SOL     OW15061   2.431   3.137   6.751
 4802SOL    HW115062   2.338   3.130   6.714
 4802SOL    HW215063   2.442   3.226   6.795
 4803SOL     OW15064   3.417   3.373   6.289
 4803SOL    HW115065   3.360   3.357   6.370
 4803SOL    HW215066   3.358   3.383   6.209
 4804SOL     OW15067   2.997   2.565   6.303
 4804SOL    HW115068   3.054   2.643   6.278
 4804SOL    HW215069   2.937   2.591   6.379
 4805SOL     OW15070   3.617   2.469   5.817
 4805SOL    HW115071   3.605   2.456   5.718
 4805SOL    HW215072   3.587   2.388   5.866
 4806SOL     OW15073   2.630   3.006   6.609
 4806SOL    HW115074   2.552   3.023   6.669
 4806SOL    HW215075   2.664   3.093   6.573
 4807SOL     OW15076   2.712   2.660   7.409
 4807SOL    HW115077   2.708   2.736   7.474
 4807SOL    HW215078   2.734   2.696   7.318
 4808SOL     OW15079   2.547   2.874   6.251
 4808SOL    HW115080   2.616   2.858   6.321
 4808SOL    HW215081   2.474   2.931   6.289
 4809SOL     OW15082   2.548   3.023   7.389
 4809SOL    HW115083   2.608   3.102   7.403
 4809SOL    HW215084   2.462   3.054   7.348
 4810SOL     OW15085   2.197   3.297   6.647
 4810SOL    HW115086   2.119   3.266   6.594
 4810SOL    HW215087   2.255   3.355   6.590
 4811SOL     OW15088   3.322   3.367   6.925
 4811SOL    HW115089   3.346   3.461   6.951
 4811SOL    HW215090   3.306   3.313   7.007
 4812SOL     OW15091   3.465   2.309   6.323
 4812SOL    HW115092   3.391   2.355   6.273
 4812SOL    HW215093   3.516   2.377   6.376
 4813SOL     OW15094   2.093   3.575   6.069
 4813SOL    HW115095   2.127   3.652   6.123
 4813SOL    HW215096   2.137   3.575   5.979
 4814SOL     OW15097   2.989   3.203   7.276
 4814SOL    HW115098   3.036   3.203   7.364
 4814SOL    HW215099   2.941   3.116   7.265
 4815SOL     OW15100   2.092   3.296   6.124
 4815SOL    HW115101   2.066   3.392   6.124
 4815SOL    HW215102   2.021   3.242   6.169
 4816SOL     OW15103   2.102   2.953   6.472
 4816SOL    HW115104   2.116   2.869   6.524
 4816SOL    HW215105   2.047   3.017   6.527
 4817SOL     OW15106   2.482   3.648   7.025
 4817SOL    HW115107   2.390   3.631   7.060
 4817SOL    HW215108   2.510   3.740   7.051
 4818SOL     OW15109   3.456   1.976   7.066
 4818SOL    HW115110   3.438   2.043   6.994
 4818SOL    HW215111   3.453   2.022   7.155
 4819SOL     OW15112   3.704   3.629   5.945
 4819SOL    HW115113   3.758   3.600   6.025
 4819SOL    HW215114   3.734   3.719   5.916
 4820SOL     OW15115   1.889   3.458   5.703
 4820SOL    HW115116   1.870   3.362   5.724
 4820SOL    HW215117   1.856   3.516   5.778
 4821SOL     OW15118   3.551   2.784   6.198
 4821SOL    HW115119   3.646   2.755   6.206
 4821SOL    HW215120   3.543   2.849   6.123
 4822SOL     OW15121   3.503   2.970   6.018
 4822SOL    HW115122   3.589   2.972   5.966
 4822SOL    HW215123   3.517   3.017   6.106
 4823SOL     OW15124   1.975   2.599   7.183
 4823SOL    HW115125   2.063   2.586   7.228
 4823SOL    HW215126   1.962   2.696   7.161
 4824SOL     OW15127   2.475   3.227   6.312
 4824SOL    HW115128   2.426   3.140   6.321
 4824SOL    HW215129   2.452   3.270   6.225
 4825SOL     OW15130   3.155   3.090   7.009
 4825SOL    HW115131   3.192   3.017   6.951
 4825SOL    HW215132   3.207   3.095   7.094
 4826SOL     OW15133   2.059   2.838   6.850
 4826SOL    HW115134   2.148   2.793   6.836
 4826SOL    HW215135   1.986   2.773   6.831
 4827SOL     OW15136   3.387   2.861   5.776
 4827SOL    HW115137   3.324   2.785   5.789
 4827SOL    HW215138   3.435   2.879   5.862
 4828SOL     OW15139   3.049   3.654   7.202
 4828SOL    HW115140   3.073   3.714   7.126
 4828SOL    HW215141   3.056   3.559   7.172
 4829SOL     OW15142   3.328   3.279   6.539
 4829SOL    HW115143   3.269   3.285   6.619
 4829SOL    HW215144   3.313   3.191   6.493
 4830SOL     OW15145   3.529   3.576   6.158
 4830SOL    HW115146   3.488   3.553   6.070
 4830SOL    HW215147   3.511   3.502   6.223
 4831SOL     OW15148   3.143   2.207   6.530
 4831SOL    HW115149   3.057   2.157   6.517
 4831SOL    HW215150   3.205   2.153   6.586
 4832SOL     OW15151   3.438   3.524   5.893
 4832SOL    HW115152   3.527   3.570   5.896
 4832SOL    HW215153   3.417   3.500   5.798
 4833SOL     OW15154   2.669   2.467   7.051
 4833SOL    HW115155   2.622   2.464   7.140
 4833SOL    HW215156   2.618   2.412   6.985
 4834SOL     OW15157   3.256   2.331   7.260
 4834SOL    HW115158   3.236   2.374   7.348
 4834SOL    HW215159   3.334   2.269   7.269
 4835SOL     OW15160   2.835   2.752   7.158
 4835SOL    HW115161   2.881   2.668   7.129
 4835SOL    HW215162   2.779   2.786   7.083
 4836SOL     OW15163   2.853   2.272   6.828
 4836SOL    HW115164   2.776   2.306   6.882
 4836SOL    HW215165   2.819   2.221   6.749
 4837SOL     OW15166   1.938   2.673   6.375
 4837SOL    HW115167   2.037   2.661   6.384
 4837SOL    HW215168   1.914   2.768   6.396
 4838SOL     OW15169   1.992   3.683   7.157
 4838SOL    HW115170   1.982   3.668   7.256
 4838SOL    HW215171   1.906   3.719   7.121
 4839SOL     OW15172   3.581   2.447   7.417
 4839SOL    HW115173   3.555   2.536   7.381
 4839SOL    HW215174   3.579   2.379   7.344
 4840SOL     OW15175   3.224   3.006   6.131
 4840SOL    HW115176   3.307   2.977   6.083
 4840SOL    HW215177   3.175   3.073   6.075
 4841SOL     OW15178   2.870   3.318   6.063
 4841SOL    HW115179   2.824   3.390   6.011
 4841SOL    HW215180   2.866   3.338   6.161
 4842SOL     OW15181   2.213   3.663   6.439
 4842SOL    HW115182   2.263   3.577   6.445
 4842SOL    HW215183   2.278   3.740   6.436
 4843SOL     OW15184   3.657   2.928   6.459
 4843SOL    HW115185   3.595   2.913   6.383
 4843SOL    HW215186   3.605   2.939   6.544
 4844SOL     OW15187   3.089   3.412   7.092
 4844SOL    HW115188   3.095   3.335   7.156
 4844SOL    HW215189   3.037   3.386   7.012
 4845SOL     OW15190   3.320   2.597   6.314
 4845SOL    HW115191   3.315   2.532   6.389
 4845SOL    HW215192   3.400   2.656   6.327
 4846SOL     OW15193   2.323   3.128   7.313
 4846SOL    HW115194   2.273   3.129   7.227
 4846SOL    HW215195   2.260   3.110   7.389
 4847SOL     OW15196   2.973   3.638   5.823
 4847SOL    HW115197   2.913   3.576   5.873
 4847SOL    HW215198   3.004   3.594   5.738
 4848SOL     OW15199   3.494   3.239   5.667
 4848SOL    HW115200   3.462   3.333   5.657
 4848SOL    HW215201   3.418   3.176   5.655
 4849SOL     OW15202   2.326   3.605   5.909
 4849SOL    HW115203   2.359   3.644   5.995
 4849SOL    HW215204   2.402   3.598   5.844
 4850SOL     OW15205   3.262   1.969   6.012
 4850SOL    HW115206   3.238   1.932   5.922
 4850SOL    HW215207   3.361   1.985   6.016
 4851SOL     OW15208   2.111   3.647   6.827
 4851SOL    HW115209   2.168   3.582   6.877
 4851SOL    HW215210   2.095   3.614   6.734
 4852SOL     OW15211   2.802   3.560   6.490
 4852SOL    HW115212   2.882   3.503   6.511
 4852SOL    HW215213   2.753   3.520   6.413
 4853SOL     OW15214   3.409   2.084   7.315
 4853SOL    HW115215   3.404   2.121   7.407
 4853SOL    HW215216   3.337   2.015   7.303
 4854SOL     OW15217   2.643   2.126   7.335
 4854SOL    HW115218   2.710   2.065   7.378
 4854SOL    HW215219   2.570   2.145   7.400
 4855SOL     OW15220   2.750   3.376   6.781
 4855SOL    HW115221   2.727   3.351   6.687
 4855SOL    HW215222   2.811   3.307   6.820
 4856SOL     OW15223   3.213   2.452   7.019
 4856SOL    HW115224   3.241   2.409   7.104
 4856SOL    HW215225   3.238   2.548   7.020
 4857SOL     OW15226   2.665   3.264   6.510
 4857SOL    HW115227   2.755   3.278   6.468
 4857SOL    HW215228   2.594   3.266   6.439
 4858SOL     OW15229   2.784   2.365   6.485
 4858SOL    HW115230   2.759   2.356   6.389
 4858SOL    HW215231   2.832   2.283   6.516
 4859SOL     OW15232   3.296   3.050   5.627
 4859SOL    HW115233   3.328   2.974   5.684
 4859SOL    HW215234   3.204   3.077   5.657
 4860SOL     OW15235   2.797   2.098   6.066
 4860SOL    HW115236   2.749   2.139   5.988
 4860SOL    HW215237   2.896   2.096   6.047
 4861SOL     OW15238   2.938   2.545   7.050
 4861SOL    HW115239   2.858   2.484   7.053
 4861SOL    HW215240   3.019   2.492   7.026
 4862SOL     OW15241   3.089   3.432   6.379
 4862SOL    HW115242   3.110   3.506   6.314
 4862SOL    HW215243   3.157   3.432   6.452
 4863SOL     OW15244   2.321   3.014   6.327
 4863SOL    HW115245   2.250   2.987   6.392
 4863SOL    HW215246   2.295   2.986   6.234
 4864SOL     OW15247   3.133   3.659   6.177
 4864SOL    HW115248   3.177   3.723   6.113
 4864SOL    HW215249   3.083   3.711   6.247
 4865SOL     OW15250   2.728   2.316   6.228
 4865SOL    HW115251   2.696   2.388   6.166
 4865SOL    HW215252   2.752   2.235   6.175
 4866SOL     OW15253   2.879   1.901   6.339
 4866SOL    HW115254   2.807   1.906   6.270
 4866SOL    HW215255   2.855   1.832   6.408
 4867SOL     OW15256   3.291   3.035   6.453
 4867SOL    HW115257   3.236   2.951   6.446
 4867SOL    HW215258   3.317   3.064   6.361
 4868SOL     OW15259   3.328   2.452   6.578
 4868SOL    HW115260   3.298   2.357   6.585
 4868SOL    HW215261   3.401   2.468   6.644
 4869SOL     OW15262   3.719   2.695   5.963
 4869SOL    HW115263   3.761   2.631   6.027
 4869SOL    HW215264   3.681   2.644   5.885
 4870SOL     OW15265   2.350   3.247   5.760
 4870SOL    HW115266   2.263   3.232   5.807
 4870SOL    HW215267   2.333   3.273   5.665
 4871SOL     OW15268   3.526   3.142   6.243
 4871SOL    HW115269   3.625   3.150   6.257
 4871SOL    HW215270   3.481   3.226   6.274
 4872SOL     OW15271   3.252   2.437   5.664
 4872SOL    HW115272   3.198   2.416   5.745
 4872SOL    HW215273   3.343   2.396   5.673
 4873SOL     OW15274   3.616   3.085   7.174
 4873SOL    HW115275   3.707   3.046   7.161
 4873SOL    HW215276   3.624   3.181   7.198
 4874SOL     OW15277   2.926   3.209   6.926
 4874SOL    HW115278   2.846   3.186   6.981
 4874SOL    HW215279   3.009   3.183   6.975
 4875SOL     OW15280   3.454   3.491   7.211
 4875SOL    HW115281   3.481   3.525   7.121
 4875SOL    HW215282   3.533   3.453   7.257
 4876SOL     OW15283   2.973   3.057   6.686
 4876SOL    HW115284   2.933   3.101   6.767
 4876SOL    HW215285   2.932   3.094   6.603
 4877SOL     OW15286   3.500   2.961   6.665
 4877SOL    HW115287   3.505   3.042   6.724
 4877SOL    HW215288   3.414   2.963   6.614
 4878SOL     OW15289   2.777   1.951   6.988
 4878SOL    HW115290   2.802   1.931   6.893
 4878SOL    HW215291   2.849   2.007   7.030
 4879SOL     OW15292   2.842   2.978   7.305
 4879SOL    HW115293   2.743   2.984   7.315
 4879SOL    HW215294   2.865   2.898   7.249
 4880SOL     OW15295   2.567   2.912   5.954
 4880SOL    HW115296   2.553   2.919   6.053
 4880SOL    HW215297   2.651   2.861   5.936
 4881SOL     OW15298   3.136   2.248   6.848
 4881SOL    HW115299   3.157   2.322   6.912
 4881SOL    HW215300   3.047   2.265   6.805
 4882SOL     OW15301   1.926   3.426   6.917
 4882SOL    HW115302   1.880   3.508   6.883
 4882SOL    HW215303   2.024   3.445   6.926
 4883SOL     OW15304   2.229   2.962   6.087
 4883SOL    HW115305   2.222   3.045   6.031
 4883SOL    HW215306   2.233   2.882   6.027
 4884SOL     OW15307   3.114   3.210   5.974
 4884SOL    HW115308   3.164   3.287   6.014
 4884SOL    HW215309   3.019   3.212   6.006
 4885SOL     OW15310   3.134   3.307   6.728
 4885SOL    HW115311   3.181   3.320   6.815
 4885SOL    HW215312   3.068   3.233   6.737
 4886SOL     OW15313   3.444   2.501   6.058
 4886SOL    HW115314   3.413   2.562   6.131
 4886SOL    HW215315   3.494   2.553   5.989
 4887SOL     OW15316   2.216   3.372   6.915
 4887SOL    HW115317   2.195   3.328   6.828
 4887SOL    HW215318   2.313   3.398   6.918
 4888SOL     OW15319   3.449   2.641   7.256
 4888SOL    HW115320   3.357   2.679   7.251
 4888SOL    HW215321   3.509   2.688   7.191
 4889SOL     OW15322   2.875   1.967   7.356
 4889SOL    HW115323   2.881   2.052   7.304
 4889SOL    HW215324   2.907   1.891   7.299
 4890SOL     OW15325   2.435   2.732   6.615
 4890SOL    HW115326   2.479   2.821   6.606
 4890SOL    HW215327   2.372   2.732   6.692
 4891SOL     OW15328   3.222   2.724   6.631
 4891SOL    HW115329   3.147   2.724   6.565
 4891SOL    HW215330   3.259   2.632   6.640
 4892SOL     OW15331   1.899   3.172   6.868
 4892SOL    HW115332   1.952   3.123   6.936
 4892SOL    HW215333   1.921   3.270   6.873
 4893SOL     OW15334   2.594   2.496   6.650
 4893SOL    HW115335   2.653   2.470   6.574
 4893SOL    HW215336   2.566   2.592   6.639
 4894SOL     OW15337   3.590   2.797   7.440
 4894SOL    HW115338   3.544   2.790   7.351
 4894SOL    HW215339   3.528   2.841   7.506
 4895SOL     OW15340   3.484   2.229   5.960
 4895SOL    HW115341   3.486   2.153   6.024
 4895SOL    HW215342   3.436   2.306   6.000
 4896SOL     OW15343   2.885   2.628   6.552
 4896SOL    HW115344   2.900   2.649   6.648
 4896SOL    HW215345   2.855   2.533   6.543
 4897SOL     OW15346   2.842   3.435   7.286
 4897SOL    HW115347   2.822   3.479   7.198
 4897SOL    HW215348   2.881   3.344   7.270
 4898SOL     OW15349   3.721   3.380   7.191
 4898SOL    HW115350   3.735   3.407   7.096
 4898SOL    HW215351   3.804   3.402   7.244
 4899SOL     OW15352   2.212   2.760   7.390
 4899SOL    HW115353   2.288   2.804   7.438
 4899SOL    HW215354   2.247   2.713   7.308
 4900SOL     OW15355   3.402   2.136   5.711
 4900SOL    HW115356   3.341   2.061   5.734
 4900SOL    HW215357   3.424   2.188   5.794
 4901SOL     OW15358   3.165   2.700   5.628
 4901SOL    HW115359   3.199   2.607   5.643
 4901SOL    HW215360   3.183   2.727   5.533
 4902SOL     OW15361   2.930   3.195   6.435
 4902SOL    HW115362   2.937   3.111   6.380
 4902SOL    HW215363   2.992   3.264   6.399
 4903SOL     OW15364   3.000   2.242   7.264
 4903SOL    HW115365   2.955   2.305   7.328
 4903SOL    HW215366   3.093   2.273   7.247
 4904SOL     OW15367   3.022   2.069   7.063
 4904SOL    HW115368   3.022   2.133   7.140
 4904SOL    HW215369   3.050   2.117   6.980
 4905SOL     OW15370   1.870   3.188   5.786
 4905SOL    HW115371   1.777   3.209   5.755
 4905SOL    HW215372   1.880   3.089   5.799
 4906SOL     OW15373   1.950   3.663   6.513
 4906SOL    HW115374   1.908   3.577   6.486
 4906SOL    HW215375   2.044   3.666   6.479
 4907SOL     OW15376   2.366   3.430   6.496
 4907SOL    HW115377   2.432   3.504   6.505
 4907SOL    HW215378   2.410   3.351   6.454
 4908SOL     OW15379   2.864   2.658   6.824
 4908SOL    HW115380   2.905   2.626   6.910
 4908SOL    HW215381   2.768   2.631   6.821
 4909SOL     OW15382   1.902   2.406   6.700
 4909SOL    HW115383   1.987   2.373   6.659
 4909SOL    HW215384   1.915   2.421   6.798
 4910SOL     OW15385   3.231   2.812   7.246
 4910SOL    HW115386   3.270   2.901   7.266
 4910SOL    HW215387   3.241   2.792   7.149
 4911SOL     OW15388   3.519   2.466   6.792
 4911SOL    HW115389   3.481   2.397   6.854
 4911SOL    HW215390   3.601   2.430   6.748
 4912SOL     OW15391   2.114   3.426   7.330
 4912SOL    HW115392   2.084   3.483   7.406
 4912SOL    HW215393   2.107   3.329   7.356
 4913SOL     OW15394   2.533   2.326   6.855
 4913SOL    HW115395   2.499   2.237   6.825
 4913SOL    HW215396   2.559   2.380   6.775
 4914SOL     OW15397   2.792   3.540   7.051
 4914SOL    HW115398   2.768   3.522   6.956
 4914SOL    HW215399   2.822   3.634   7.061
 4915SOL     OW15400   2.021   2.999   7.052
 4915SOL    HW115401   2.043   2.938   7.128
 4915SOL    HW215402   2.031   2.950   6.966
 4916SOL     OW15403   3.209   2.921   6.820
 4916SOL    HW115404   3.233   2.858   6.746
 4916SOL    HW215405   3.119   2.961   6.802
 4917SOL     OW15406   3.164   2.717   5.895
 4917SOL    HW115407   3.078   2.686   5.937
 4917SOL    HW215408   3.160   2.703   5.796
 4918SOL     OW15409   3.621   3.609   6.740
 4918SOL    HW115410   3.682   3.639   6.667
 4918SOL    HW215411   3.583   3.520   6.718
 4919SOL     OW15412   3.114   3.593   6.714
 4919SOL    HW115413   3.198   3.598   6.660
 4919SOL    HW215414   3.091   3.497   6.732
 4920SOL     OW15415   1.945   3.120   6.608
 4920SOL    HW115416   1.940   3.119   6.708
 4920SOL    HW215417   1.862   3.079   6.570
 4921SOL     OW15418   2.550   3.524   7.302
 4921SOL    HW115419   2.494   3.605   7.311
 4921SOL    HW215420   2.602   3.528   7.216
 4922SOL     OW15421   3.588   1.997   6.109
 4922SOL    HW115422   3.661   1.980   6.042
 4922SOL    HW215423   3.557   1.910   6.147
 4923SOL     OW15424   3.250   3.435   6.063
 4923SOL    HW115425   3.317   3.447   5.989
 4923SOL    HW215426   3.210   3.524   6.086
 4924SOL     OW15427   1.992   3.656   7.437
 4924SOL    HW115428   1.951   3.582   7.490
 4924SOL    HW215429   2.056   3.707   7.495
 4925SOL     OW15430   3.142   2.789   6.258
 4925SOL    HW115431   3.202   2.708   6.260
 4925SOL    HW215432   3.182   2.858   6.198
 4926SOL     OW15433   2.692   3.135   7.008
 4926SOL    HW115434   2.687   3.168   7.103
 4926SOL    HW215435   2.606   3.154   6.962
 4927SOL     OW15436   2.534   3.478   5.740
 4927SOL    HW115437   2.543   3.488   5.641
 4927SOL    HW215438   2.494   3.389   5.761
 4928SOL     OW15439   3.512   3.582   6.980
 4928SOL    HW115440   3.565   3.592   6.896
 4928SOL    HW215441   3.485   3.672   7.014
 4929SOL     OW15442   3.703   2.037   6.549
 4929SOL    HW115443   3.742   1.952   6.513
 4929SOL    HW215444   3.605   2.039   6.530
 4930SOL     OW15445   3.056   3.474   5.617
 4930SOL    HW115446   3.062   3.381   5.654
 4930SOL    HW215447   2.997   3.474   5.537
 4931SOL     OW15448   2.684   2.864   6.958
 4931SOL    HW115449   2.724   2.863   6.866
 4931SOL    HW215450   2.694   2.956   6.998
 4932SOL     OW15451   2.778   2.772   5.877
 4932SOL    HW115452   2.841   2.810   5.809
 4932SOL    HW215453   2.818   2.689   5.916
 4933SOL     OW15454   3.366   3.469   5.630
 4933SOL    HW115455   3.274   3.506   5.637
 4933SOL    HW215456   3.404   3.489   5.540
 4934SOL     OW15457   2.234   3.150   7.076
 4934SOL    HW115458   2.221   3.243   7.042
 4934SOL    HW215459   2.150   3.098   7.063
 4935SOL     OW15460   3.476   3.154   6.875
 4935SOL    HW115461   3.536   3.157   6.955
 4935SOL    HW215462   3.401   3.218   6.888
 4936SOL     OW15463   2.901   2.960   6.282
 4936SOL    HW115464   2.831   2.913   6.336
 4936SOL    HW215465   2.960   2.892   6.239
 4937SOL     OW15466   2.876   2.098   6.557
 4937SOL    HW115467   2.868   2.062   6.464
 4937SOL    HW215468   2.874   2.022   6.622
 4938SOL     OW15469   2.452   3.349   6.077
 4938SOL    HW115470   2.494   3.291   6.007
 4938SOL    HW215471   2.408   3.428   6.033
 4939SOL     OW15472   3.571   2.247   6.967
 4939SOL    HW115473   3.644   2.316   6.971
 4939SOL    HW215474   3.599   2.172   6.908
 4940SOL     OW15475   2.117   3.210   5.876
 4940SOL    HW115476   2.021   3.211   5.849
 4940SOL    HW215477   2.129   3.263   5.960
 4941SOL     OW15478   1.967   2.875   7.312
 4941SOL    HW115479   1.890   2.842   7.366
 4941SOL    HW215480   2.052   2.845   7.354
 4942SOL     OW15481   2.534   2.065   7.075
 4942SOL    HW115482   2.624   2.049   7.035
 4942SOL    HW215483   2.542   2.070   7.174
 4943SOL     OW15484   1.937   2.207   5.619
 4943SOL    HW115485   1.845   2.179   5.590
 4943SOL    HW215486   1.968   2.284   5.563
 4944SOL     OW15487   3.302   2.718   6.984
 4944SOL    HW115488   3.245   2.770   6.921
 4944SOL    HW215489   3.398   2.730   6.960
 4945SOL     OW15490   1.934   2.028   5.904
 4945SOL    HW115491   1.917   2.111   5.850
 4945SOL    HW215492   2.024   1.991   5.882
 4946SOL     OW15493   3.045   3.197   5.705
 4946SOL    HW115494   2.946   3.186   5.707
 4946SOL    HW215495   3.079   3.212   5.798
 4947SOL     OW15496   2.475   2.704   7.017
 4947SOL    HW115497   2.531   2.785   7.000
 4947SOL    HW215498   2.534   2.624   7.020
 4948SOL     OW15499   3.355   3.629   6.545
 4948SOL    HW115500   3.388   3.693   6.476
 4948SOL    HW215501   3.421   3.623   6.620
 4949SOL     OW15502   2.578   2.427   7.294
 4949SOL    HW115503   2.597   2.492   7.368
 4949SOL    HW215504   2.638   2.347   7.303
 4950SOL     OW15505   3.312   3.082   7.219
 4950SOL    HW115506   3.303   3.072   7.318
 4950SOL    HW215507   3.408   3.075   7.193
 4951SOL     OW15508   2.252   3.603   7.146
 4951SOL    HW115509   2.161   3.644   7.144
 4951SOL    HW215510   2.245   3.509   7.178
 4952SOL     OW15511   3.536   2.745   6.840
 4952SOL    HW115512   3.509   2.656   6.803
 4952SOL    HW215513   3.537   2.813   6.767
 4953SOL     OW15514   3.087   2.187   6.035
 4953SOL    HW115515   3.152   2.113   6.024
 4953SOL    HW215516   3.107   2.237   6.119
 4954SOL     OW15517   2.456   2.607   6.238
 4954SOL    HW115518   2.506   2.692   6.219
 4954SOL    HW215519   2.368   2.609   6.190
 4955SOL     OW15520   3.639   2.204   7.228
 4955SOL    HW115521   3.622   2.235   7.134
 4955SOL    HW215522   3.555   2.167   7.266
 4956SOL     OW15523   3.592   2.796   7.103
 4956SOL    HW115524   3.630   2.887   7.118
 4956SOL    HW215525   3.584   2.779   7.004
 4957SOL     OW15526   2.523   3.652   6.539
 4957SOL    HW115527   2.477   3.740   6.526
 4957SOL    HW215528   2.622   3.664   6.532
 4958SOL     OW15529   2.721   2.818   6.447
 4958SOL    HW115530   2.775   2.749   6.495
 4958SOL    HW215531   2.689   2.887   6.513
 4959SOL     OW15532   2.945   2.846   5.673
 4959SOL    HW115533   2.922   2.899   5.591
 4959SOL    HW215534   3.026   2.790   5.654
 4960SOL     OW15535   3.723   3.431   6.437
 4960SOL    HW115536   3.652   3.419   6.367
 4960SOL    HW215537   3.724   3.352   6.497
 4961SOL     OW15538   2.083   3.176   7.430
 4961SOL    HW115539   2.018   3.103   7.409
 4961SOL    HW215540   2.087   3.190   7.528
 4962SOL     OW15541   1.941   3.102   6.239
 4962SOL    HW115542   1.940   3.055   6.327
 4962SOL    HW215543   2.023   3.074   6.188
 4963SOL     OW15544   2.534   3.253   7.210
 4963SOL    HW115545   2.456   3.203   7.248
 4963SOL    HW215546   2.531   3.348   7.241
 4964SOL     OW15547   3.686   2.054   6.813
 4964SOL    HW115548   3.682   1.964   6.857
 4964SOL    HW215549   3.689   2.043   6.714
 4965SOL     OW15550   3.567   3.349   6.690
 4965SOL    HW115551   3.474   3.324   6.663
 4965SOL    HW215552   3.593   3.299   6.772
 4966SOL     OW15553   2.674   3.448   6.273
 4966SOL    HW115554   2.706   3.458   6.179
 4966SOL    HW215555   2.595   3.386   6.275
 4967SOL     OW15556   3.286   2.076   6.698
 4967SOL    HW115557   3.338   2.011   6.753
 4967SOL    HW215558   3.237   2.139   6.759
 4968SOL     OW15559   2.863   1.896   6.740
 4968SOL    HW115560   2.800   1.824   6.709
 4968SOL    HW215561   2.956   1.860   6.740
 4969SOL     OW15562   2.480   3.429   6.870
 4969SOL    HW115563   2.475   3.511   6.927
 4969SOL    HW215564   2.569   3.426   6.825
 4970SOL     OW15565   3.214   1.914   5.754
 4970SOL    HW115566   3.249   1.873   5.670
 4970SOL    HW215567   3.124   1.876   5.774
 4971SOL     OW15568   3.162   2.315   6.277
 4971SOL    HW115569   3.103   2.395   6.281
 4971SOL    HW215570   3.177   2.280   6.370
 4972SOL     OW15571   3.455   2.083   6.468
 4972SOL    HW115572   3.371   2.082   6.522
 4972SOL    HW215573   3.457   2.166   6.412
 4973SOL     OW15574   1.901   2.939   5.886
 4973SOL    HW115575   2.000   2.928   5.877
 4973SOL    HW215576   1.861   2.853   5.918
 4974SOL     OW15577   2.737   3.508   5.923
 4974SOL    HW115578   2.660   3.473   5.869
 4974SOL    HW215579   2.705   3.579   5.985
 4975SOL     OW15580   1.881   2.230   8.095
 4975SOL    HW115581   1.799   2.273   8.134
 4975SOL    HW215582   1.853   2.157   8.032
 4976SOL     OW15583   2.431   3.137   8.613
 4976SOL    HW115584   2.338   3.130   8.576
 4976SOL    HW215585   2.442   3.226   8.657
 4977SOL     OW15586   3.417   3.373   8.151
 4977SOL    HW115587   3.360   3.357   8.232
 4977SOL    HW215588   3.358   3.383   8.071
 4978SOL     OW15589   2.997   2.565   8.165
 4978SOL    HW115590   3.054   2.643   8.140
 4978SOL    HW215591   2.937   2.591   8.241
 4979SOL     OW15592   3.617   2.469   7.679
 4979SOL    HW115593   3.605   2.456   7.580
 4979SOL    HW215594   3.587   2.388   7.728
 4980SOL     OW15595   2.630   3.006   8.471
 4980SOL    HW115596   2.552   3.023   8.531
 4980SOL    HW215597   2.664   3.093   8.435
 4981SOL     OW15598   2.712   2.660   9.271
 4981SOL    HW115599   2.708   2.736   9.336
 4981SOL    HW215600   2.734   2.696   9.180
 4982SOL     OW15601   2.547   2.874   8.113
 4982SOL    HW115602   2.616   2.858   8.183
 4982SOL    HW215603   2.474   2.931   8.151
 4983SOL     OW15604   2.548   3.023   9.251
 4983SOL    HW115605   2.608   3.102   9.265
 4983SOL    HW215606   2.462   3.054   9.210
 4984SOL     OW15607   2.197   3.297   8.509
 4984SOL    HW115608   2.119   3.266   8.456
 4984SOL    HW215609   2.255   3.355   8.452
 4985SOL     OW15610   3.322   3.367   8.787
 4985SOL    HW115611   3.346   3.461   8.813
 4985SOL    HW215612   3.306   3.313   8.869
 4986SOL     OW15613   3.465   2.309   8.185
 4986SOL    HW115614   3.391   2.355   8.135
 4986SOL    HW215615   3.516   2.377   8.238
 4987SOL     OW15616   2.093   3.575   7.931
 4987SOL    HW115617   2.127   3.652   7.985
 4987SOL    HW215618   2.137   3.575   7.841
 4988SOL     OW15619   2.989   3.203   9.138
 4988SOL    HW115620   3.036   3.203   9.226
 4988SOL    HW215621   2.941   3.116   9.127
 4989SOL     OW15622   2.092   3.296   7.986
 4989SOL    HW115623   2.066   3.392   7.986
 4989SOL    HW215624   2.021   3.242   8.031
 4990SOL     OW15625   2.102   2.953   8.334
 4990SOL    HW115626   2.116   2.869   8.386
 4990SOL    HW215627   2.047   3.017   8.389
 4991SOL     OW15628   2.482   3.648   8.887
 4991SOL    HW115629   2.390   3.631   8.922
 4991SOL    HW215630   2.510   3.740   8.913
 4992SOL     OW15631   2.468   2.826   7.571
 4992SOL    HW115632   2.475   2.910   7.517
 4992SOL    HW215633   2.514   2.839   7.659
 4993SOL     OW15634   3.456   1.976   8.928
 4993SOL    HW115635   3.438   2.043   8.856
 4993SOL    HW215636   3.453   2.022   9.017
 4994SOL     OW15637   1.984   2.505   8.011
 4994SOL    HW115638   1.939   2.417   8.028
 4994SOL    HW215639   1.983   2.559   8.095
 4995SOL     OW15640   3.704   3.629   7.807
 4995SOL    HW115641   3.758   3.600   7.887
 4995SOL    HW215642   3.734   3.719   7.778
 4996SOL     OW15643   1.889   3.458   7.565
 4996SOL    HW115644   1.870   3.362   7.586
 4996SOL    HW215645   1.856   3.516   7.640
 4997SOL     OW15646   3.551   2.784   8.060
 4997SOL    HW115647   3.646   2.755   8.068
 4997SOL    HW215648   3.543   2.849   7.985
 4998SOL     OW15649   3.503   2.970   7.880
 4998SOL    HW115650   3.589   2.972   7.828
 4998SOL    HW215651   3.517   3.017   7.968
 4999SOL     OW15652   1.975   2.599   9.045
 4999SOL    HW115653   2.063   2.586   9.090
 4999SOL    HW215654   1.962   2.696   9.023
 5000SOL     OW15655   2.475   3.227   8.174
 5000SOL    HW115656   2.426   3.140   8.183
 5000SOL    HW215657   2.452   3.270   8.087
 5001SOL     OW15658   3.155   3.090   8.871
 5001SOL    HW115659   3.192   3.017   8.813
 5001SOL    HW215660   3.207   3.095   8.956
 5002SOL     OW15661   2.671   1.866   7.950
 5002SOL    HW115662   2.711   1.957   7.941
 5002SOL    HW215663   2.571   1.874   7.956
 5003SOL     OW15664   2.059   2.838   8.712
 5003SOL    HW115665   2.148   2.793   8.698
 5003SOL    HW215666   1.986   2.773   8.693
 5004SOL     OW15667   3.387   2.861   7.638
 5004SOL    HW115668   3.324   2.785   7.651
 5004SOL    HW215669   3.435   2.879   7.724
 5005SOL     OW15670   3.049   3.654   9.064
 5005SOL    HW115671   3.073   3.714   8.988
 5005SOL    HW215672   3.056   3.559   9.034
 5006SOL     OW15673   3.328   3.279   8.401
 5006SOL    HW115674   3.269   3.285   8.481
 5006SOL    HW215675   3.313   3.191   8.355
 5007SOL     OW15676   3.529   3.576   8.020
 5007SOL    HW115677   3.488   3.553   7.932
 5007SOL    HW215678   3.511   3.502   8.085
 5008SOL     OW15679   2.460   2.591   7.718
 5008SOL    HW115680   2.484   2.660   7.650
 5008SOL    HW215681   2.382   2.624   7.772
 5009SOL     OW15682   3.143   2.207   8.392
 5009SOL    HW115683   3.057   2.157   8.379
 5009SOL    HW215684   3.205   2.153   8.448
 5010SOL     OW15685   3.438   3.524   7.755
 5010SOL    HW115686   3.527   3.570   7.758
 5010SOL    HW215687   3.417   3.500   7.660
 5011SOL     OW15688   2.669   2.467   8.913
 5011SOL    HW115689   2.622   2.464   9.002
 5011SOL    HW215690   2.618   2.412   8.847
 5012SOL     OW15691   3.256   2.331   9.122
 5012SOL    HW115692   3.236   2.374   9.210
 5012SOL    HW215693   3.334   2.269   9.131
 5013SOL     OW15694   2.835   2.752   9.020
 5013SOL    HW115695   2.881   2.668   8.991
 5013SOL    HW215696   2.779   2.786   8.945
 5014SOL     OW15697   2.853   2.272   8.690
 5014SOL    HW115698   2.776   2.306   8.744
 5014SOL    HW215699   2.819   2.221   8.611
 5015SOL     OW15700   2.903   2.563   7.877
 5015SOL    HW115701   2.929   2.559   7.973
 5015SOL    HW215702   2.818   2.512   7.863
 5016SOL     OW15703   1.938   2.673   8.237
 5016SOL    HW115704   2.037   2.661   8.246
 5016SOL    HW215705   1.914   2.768   8.258
 5017SOL     OW15706   1.992   3.683   9.019
 5017SOL    HW115707   1.982   3.668   9.118
 5017SOL    HW215708   1.906   3.719   8.983
 5018SOL     OW15709   2.727   2.210   7.643
 5018SOL    HW115710   2.786   2.273   7.594
 5018SOL    HW215711   2.746   2.116   7.614
 5019SOL     OW15712   3.581   2.447   9.279
 5019SOL    HW115713   3.555   2.536   9.243
 5019SOL    HW215714   3.579   2.379   9.206
 5020SOL     OW15715   3.224   3.006   7.993
 5020SOL    HW115716   3.307   2.977   7.945
 5020SOL    HW215717   3.175   3.073   7.937
 5021SOL     OW15718   2.870   3.318   7.925
 5021SOL    HW115719   2.824   3.390   7.873
 5021SOL    HW215720   2.866   3.338   8.023
 5022SOL     OW15721   2.213   3.663   8.301
 5022SOL    HW115722   2.263   3.577   8.307
 5022SOL    HW215723   2.278   3.740   8.298
 5023SOL     OW15724   3.657   2.928   8.321
 5023SOL    HW115725   3.595   2.913   8.245
 5023SOL    HW215726   3.605   2.939   8.406
 5024SOL     OW15727   3.089   3.412   8.954
 5024SOL    HW115728   3.095   3.335   9.018
 5024SOL    HW215729   3.037   3.386   8.874
 5025SOL     OW15730   2.183   2.805   7.690
 5025SOL    HW115731   2.265   2.844   7.648
 5025SOL    HW215732   2.156   2.723   7.641
 5026SOL     OW15733   3.320   2.597   8.176
 5026SOL    HW115734   3.315   2.532   8.251
 5026SOL    HW215735   3.400   2.656   8.189
 5027SOL     OW15736   2.323   3.128   9.175
 5027SOL    HW115737   2.273   3.129   9.089
 5027SOL    HW215738   2.260   3.110   9.251
 5028SOL     OW15739   2.973   3.638   7.685
 5028SOL    HW115740   2.913   3.576   7.735
 5028SOL    HW215741   3.004   3.594   7.600
 5029SOL     OW15742   3.494   3.239   7.529
 5029SOL    HW115743   3.462   3.333   7.519
 5029SOL    HW215744   3.418   3.176   7.517
 5030SOL     OW15745   2.326   3.605   7.771
 5030SOL    HW115746   2.359   3.644   7.857
 5030SOL    HW215747   2.402   3.598   7.706
 5031SOL     OW15748   3.262   1.969   7.874
 5031SOL    HW115749   3.238   1.932   7.784
 5031SOL    HW215750   3.361   1.985   7.878
 5032SOL     OW15751   2.111   3.647   8.689
 5032SOL    HW115752   2.168   3.582   8.739
 5032SOL    HW215753   2.095   3.614   8.596
 5033SOL     OW15754   2.802   3.560   8.352
 5033SOL    HW115755   2.882   3.503   8.373
 5033SOL    HW215756   2.753   3.520   8.275
 5034SOL     OW15757   3.409   2.084   9.177
 5034SOL    HW115758   3.404   2.121   9.269
 5034SOL    HW215759   3.337   2.015   9.165
 5035SOL     OW15760   2.643   2.126   9.197
 5035SOL    HW115761   2.710   2.065   9.240
 5035SOL    HW215762   2.570   2.145   9.262
 5036SOL     OW15763   2.750   3.376   8.643
 5036SOL    HW115764   2.727   3.351   8.549
 5036SOL    HW215765   2.811   3.307   8.682
 5037SOL     OW15766   3.213   2.452   8.881
 5037SOL    HW115767   3.241   2.409   8.966
 5037SOL    HW215768   3.238   2.548   8.882
 5038SOL     OW15769   2.665   3.264   8.372
 5038SOL    HW115770   2.755   3.278   8.330
 5038SOL    HW215771   2.594   3.266   8.301
 5039SOL     OW15772   2.784   2.365   8.347
 5039SOL    HW115773   2.759   2.356   8.251
 5039SOL    HW215774   2.832   2.283   8.378
 5040SOL     OW15775   2.401   1.926   7.960
 5040SOL    HW115776   2.320   1.927   8.018
 5040SOL    HW215777   2.404   2.009   7.905
 5041SOL     OW15778   3.296   3.050   7.489
 5041SOL    HW115779   3.328   2.974   7.546
 5041SOL    HW215780   3.204   3.077   7.519
 5042SOL     OW15781   2.797   2.098   7.928
 5042SOL    HW115782   2.749   2.139   7.850
 5042SOL    HW215783   2.896   2.096   7.909
 5043SOL     OW15784   2.938   2.545   8.912
 5043SOL    HW115785   2.858   2.484   8.915
 5043SOL    HW215786   3.019   2.492   8.888
 5044SOL     OW15787   3.089   3.432   8.241
 5044SOL    HW115788   3.110   3.506   8.176
 5044SOL    HW215789   3.157   3.432   8.314
 5045SOL     OW15790   2.321   3.014   8.189
 5045SOL    HW115791   2.250   2.987   8.254
 5045SOL    HW215792   2.295   2.986   8.096
 5046SOL     OW15793   3.133   3.659   8.039
 5046SOL    HW115794   3.177   3.723   7.975
 5046SOL    HW215795   3.083   3.711   8.109
 5047SOL     OW15796   2.894   2.411   7.464
 5047SOL    HW115797   2.853   2.493   7.425
 5047SOL    HW215798   2.958   2.437   7.537
 5048SOL     OW15799   1.940   2.418   8.834
 5048SOL    HW115800   2.032   2.417   8.793
 5048SOL    HW215801   1.934   2.492   8.901
 5049SOL     OW15802   2.728   2.316   8.090
 5049SOL    HW115803   2.696   2.388   8.028
 5049SOL    HW215804   2.752   2.235   8.037
 5050SOL     OW15805   2.879   1.901   8.201
 5050SOL    HW115806   2.807   1.906   8.132
 5050SOL    HW215807   2.855   1.832   8.270
 5051SOL     OW15808   3.291   3.035   8.315
 5051SOL    HW115809   3.236   2.951   8.308
 5051SOL    HW215810   3.317   3.064   8.223
 5052SOL     OW15811   3.328   2.452   8.440
 5052SOL    HW115812   3.298   2.357   8.447
 5052SOL    HW215813   3.401   2.468   8.506
 5053SOL     OW15814   3.719   2.695   7.825
 5053SOL    HW115815   3.761   2.631   7.889
 5053SOL    HW215816   3.681   2.644   7.747
 5054SOL     OW15817   2.350   3.247   7.622
 5054SOL    HW115818   2.263   3.232   7.669
 5054SOL    HW215819   2.333   3.273   7.527
 5055SOL     OW15820   3.526   3.142   8.105
 5055SOL    HW115821   3.625   3.150   8.119
 5055SOL    HW215822   3.481   3.226   8.136
 5056SOL     OW15823   3.252   2.437   7.526
 5056SOL    HW115824   3.198   2.416   7.607
 5056SOL    HW215825   3.343   2.396   7.535
 5057SOL     OW15826   3.616   3.085   9.036
 5057SOL    HW115827   3.707   3.046   9.023
 5057SOL    HW215828   3.624   3.181   9.060
 5058SOL     OW15829   2.926   3.209   8.788
 5058SOL    HW115830   2.846   3.186   8.843
 5058SOL    HW215831   3.009   3.183   8.837
 5059SOL     OW15832   3.454   3.491   9.073
 5059SOL    HW115833   3.481   3.525   8.983
 5059SOL    HW215834   3.533   3.453   9.119
 5060SOL     OW15835   2.973   3.057   8.548
 5060SOL    HW115836   2.933   3.101   8.629
 5060SOL    HW215837   2.932   3.094   8.465
 5061SOL     OW15838   3.500   2.961   8.527
 5061SOL    HW115839   3.505   3.042   8.586
 5061SOL    HW215840   3.414   2.963   8.476
 5062SOL     OW15841   2.777   1.951   8.850
 5062SOL    HW115842   2.802   1.931   8.755
 5062SOL    HW215843   2.849   2.007   8.892
 5063SOL     OW15844   2.842   2.978   9.167
 5063SOL    HW115845   2.743   2.984   9.177
 5063SOL    HW215846   2.865   2.898   9.111
 5064SOL     OW15847   2.567   2.912   7.816
 5064SOL    HW115848   2.553   2.919   7.915
 5064SOL    HW215849   2.651   2.861   7.798
 5065SOL     OW15850   3.136   2.248   8.710
 5065SOL    HW115851   3.157   2.322   8.774
 5065SOL    HW215852   3.047   2.265   8.667
 5066SOL     OW15853   1.926   3.426   8.779
 5066SOL    HW115854   1.880   3.508   8.745
 5066SOL    HW215855   2.024   3.445   8.788
 5067SOL     OW15856   2.229   2.962   7.949
 5067SOL    HW115857   2.222   3.045   7.893
 5067SOL    HW215858   2.233   2.882   7.889
 5068SOL     OW15859   3.114   3.210   7.836
 5068SOL    HW115860   3.164   3.287   7.876
 5068SOL    HW215861   3.019   3.212   7.868
 5069SOL     OW15862   3.134   3.307   8.590
 5069SOL    HW115863   3.181   3.320   8.677
 5069SOL    HW215864   3.068   3.233   8.599
 5070SOL     OW15865   3.444   2.501   7.920
 5070SOL    HW115866   3.413   2.562   7.993
 5070SOL    HW215867   3.494   2.553   7.851
 5071SOL     OW15868   2.216   3.372   8.777
 5071SOL    HW115869   2.195   3.328   8.690
 5071SOL    HW215870   2.313   3.398   8.780
 5072SOL     OW15871   3.449   2.641   9.118
 5072SOL    HW115872   3.357   2.679   9.113
 5072SOL    HW215873   3.509   2.688   9.053
 5073SOL     OW15874   2.875   1.967   9.218
 5073SOL    HW115875   2.881   2.052   9.166
 5073SOL    HW215876   2.907   1.891   9.161
 5074SOL     OW15877   2.435   2.732   8.477
 5074SOL    HW115878   2.479   2.821   8.468
 5074SOL    HW215879   2.372   2.732   8.554
 5075SOL     OW15880   3.222   2.724   8.493
 5075SOL    HW115881   3.147   2.724   8.427
 5075SOL    HW215882   3.259   2.632   8.502
 5076SOL     OW15883   3.071   2.387   7.723
 5076SOL    HW115884   3.084   2.303   7.777
 5076SOL    HW215885   3.042   2.461   7.783
 5077SOL     OW15886   1.899   3.172   8.730
 5077SOL    HW115887   1.952   3.123   8.798
 5077SOL    HW215888   1.921   3.270   8.735
 5078SOL     OW15889   2.594   2.496   8.512
 5078SOL    HW115890   2.653   2.470   8.436
 5078SOL    HW215891   2.566   2.592   8.501
 5079SOL     OW15892   3.590   2.797   9.302
 5079SOL    HW115893   3.544   2.790   9.213
 5079SOL    HW215894   3.528   2.841   9.368
 5080SOL     OW15895   3.484   2.229   7.822
 5080SOL    HW115896   3.486   2.153   7.886
 5080SOL    HW215897   3.436   2.306   7.862
 5081SOL     OW15898   2.885   2.628   8.414
 5081SOL    HW115899   2.900   2.649   8.510
 5081SOL    HW215900   2.855   2.533   8.405
 5082SOL     OW15901   2.842   3.435   9.148
 5082SOL    HW115902   2.822   3.479   9.060
 5082SOL    HW215903   2.881   3.344   9.132
 5083SOL     OW15904   3.721   3.380   9.053
 5083SOL    HW115905   3.735   3.407   8.958
 5083SOL    HW215906   3.804   3.402   9.106
 5084SOL     OW15907   2.212   2.760   9.252
 5084SOL    HW115908   2.288   2.804   9.300
 5084SOL    HW215909   2.247   2.713   9.170
 5085SOL     OW15910   3.402   2.136   7.573
 5085SOL    HW115911   3.341   2.061   7.596
 5085SOL    HW215912   3.424   2.188   7.656
 5086SOL     OW15913   3.165   2.700   7.490
 5086SOL    HW115914   3.199   2.607   7.505
 5086SOL    HW215915   3.183   2.727   7.395
 5087SOL     OW15916   2.930   3.195   8.297
 5087SOL    HW115917   2.937   3.111   8.242
 5087SOL    HW215918   2.992   3.264   8.261
 5088SOL     OW15919   2.181   2.672   8.397
 5088SOL    HW115920   2.274   2.708   8.402
 5088SOL    HW215921   2.175   2.587   8.449
 5089SOL     OW15922   3.000   2.242   9.126
 5089SOL    HW115923   2.955   2.305   9.190
 5089SOL    HW215924   3.093   2.273   9.109
 5090SOL     OW15925   3.022   2.069   8.925
 5090SOL    HW115926   3.022   2.133   9.002
 5090SOL    HW215927   3.050   2.117   8.842
 5091SOL     OW15928   1.870   3.188   7.648
 5091SOL    HW115929   1.777   3.209   7.617
 5091SOL    HW215930   1.880   3.089   7.661
 5092SOL     OW15931   1.950   3.663   8.375
 5092SOL    HW115932   1.908   3.577   8.348
 5092SOL    HW215933   2.044   3.666   8.341
 5093SOL     OW15934   2.366   3.430   8.358
 5093SOL    HW115935   2.432   3.504   8.367
 5093SOL    HW215936   2.410   3.351   8.316
 5094SOL     OW15937   2.864   2.658   8.686
 5094SOL    HW115938   2.905   2.626   8.772
 5094SOL    HW215939   2.768   2.631   8.683
 5095SOL     OW15940   1.902   2.406   8.562
 5095SOL    HW115941   1.987   2.373   8.521
 5095SOL    HW215942   1.915   2.421   8.660
 5096SOL     OW15943   3.231   2.812   9.108
 5096SOL    HW115944   3.270   2.901   9.128
 5096SOL    HW215945   3.241   2.792   9.011
 5097SOL     OW15946   2.677   2.434   7.773
 5097SOL    HW115947   2.684   2.345   7.727
 5097SOL    HW215948   2.583   2.468   7.765
 5098SOL     OW15949   3.519   2.466   8.654
 5098SOL    HW115950   3.481   2.397   8.716
 5098SOL    HW215951   3.601   2.430   8.610
 5099SOL     OW15952   2.114   3.426   9.192
 5099SOL    HW115953   2.084   3.483   9.268
 5099SOL    HW215954   2.107   3.329   9.218
 5100SOL     OW15955   2.533   2.326   8.717
 5100SOL    HW115956   2.499   2.237   8.687
 5100SOL    HW215957   2.559   2.380   8.637
 5101SOL     OW15958   2.792   3.540   8.913
 5101SOL    HW115959   2.768   3.522   8.818
 5101SOL    HW215960   2.822   3.634   8.923
 5102SOL     OW15961   2.021   2.999   8.914
 5102SOL    HW115962   2.043   2.938   8.990
 5102SOL    HW215963   2.031   2.950   8.828
 5103SOL     OW15964   3.209   2.921   8.682
 5103SOL    HW115965   3.233   2.858   8.608
 5103SOL    HW215966   3.119   2.961   8.664
 5104SOL     OW15967   3.164   2.717   7.757
 5104SOL    HW115968   3.078   2.686   7.799
 5104SOL    HW215969   3.160   2.703   7.658
 5105SOL     OW15970   3.621   3.609   8.602
 5105SOL    HW115971   3.682   3.639   8.529
 5105SOL    HW215972   3.583   3.520   8.580
 5106SOL     OW15973   3.114   3.593   8.576
 5106SOL    HW115974   3.198   3.598   8.522
 5106SOL    HW215975   3.091   3.497   8.594
 5107SOL     OW15976   1.945   3.120   8.470
 5107SOL    HW115977   1.940   3.119   8.570
 5107SOL    HW215978   1.862   3.079   8.432
 5108SOL     OW15979   2.550   3.524   9.164
 5108SOL    HW115980   2.494   3.605   9.173
 5108SOL    HW215981   2.602   3.528   9.078
 5109SOL     OW15982   3.588   1.997   7.971
 5109SOL    HW115983   3.661   1.980   7.904
 5109SOL    HW215984   3.557   1.910   8.009
 5110SOL     OW15985   3.250   3.435   7.925
 5110SOL    HW115986   3.317   3.447   7.851
 5110SOL    HW215987   3.210   3.524   7.948
 5111SOL     OW15988   1.992   3.656   9.299
 5111SOL    HW115989   1.951   3.582   9.352
 5111SOL    HW215990   2.056   3.707   9.357
 5112SOL     OW15991   3.142   2.789   8.120
 5112SOL    HW115992   3.202   2.708   8.122
 5112SOL    HW215993   3.182   2.858   8.060
 5113SOL     OW15994   2.692   3.135   8.870
 5113SOL    HW115995   2.687   3.168   8.965
 5113SOL    HW215996   2.606   3.154   8.824
 5114SOL     OW15997   2.534   3.478   7.602
 5114SOL    HW115998   2.543   3.488   7.503
 5114SOL    HW215999   2.494   3.389   7.623
 5115SOL     OW16000   3.512   3.582   8.842
 5115SOL    HW116001   3.565   3.592   8.758
 5115SOL    HW216002   3.485   3.672   8.876
 5116SOL     OW16003   3.703   2.037   8.411
 5116SOL    HW116004   3.742   1.952   8.375
 5116SOL    HW216005   3.605   2.039   8.392
 5117SOL     OW16006   3.056   3.474   7.479
 5117SOL    HW116007   3.062   3.381   7.516
 5117SOL    HW216008   2.997   3.474   7.399
 5118SOL     OW16009   2.684   2.864   8.820
 5118SOL    HW116010   2.724   2.863   8.728
 5118SOL    HW216011   2.694   2.956   8.860
 5119SOL     OW16012   2.778   2.772   7.739
 5119SOL    HW116013   2.841   2.810   7.671
 5119SOL    HW216014   2.818   2.689   7.778
 5120SOL     OW16015   3.366   3.469   7.492
 5120SOL    HW116016   3.274   3.506   7.499
 5120SOL    HW216017   3.404   3.489   7.402
 5121SOL     OW16018   2.234   3.150   8.938
 5121SOL    HW116019   2.221   3.243   8.904
 5121SOL    HW216020   2.150   3.098   8.925
 5122SOL     OW16021   3.476   3.154   8.737
 5122SOL    HW116022   3.536   3.157   8.817
 5122SOL    HW216023   3.401   3.218   8.750
 5123SOL     OW16024   2.901   2.960   8.144
 5123SOL    HW116025   2.831   2.913   8.198
 5123SOL    HW216026   2.960   2.892   8.101
 5124SOL     OW16027   2.876   2.098   8.419
 5124SOL    HW116028   2.868   2.062   8.326
 5124SOL    HW216029   2.874   2.022   8.484
 5125SOL     OW16030   2.452   3.349   7.939
 5125SOL    HW116031   2.494   3.291   7.869
 5125SOL    HW216032   2.408   3.428   7.895
 5126SOL     OW16033   3.571   2.247   8.829
 5126SOL    HW116034   3.644   2.316   8.833
 5126SOL    HW216035   3.599   2.172   8.770
 5127SOL     OW16036   2.117   3.210   7.738
 5127SOL    HW116037   2.021   3.211   7.711
 5127SOL    HW216038   2.129   3.263   7.822
 5128SOL     OW16039   1.967   2.875   9.174
 5128SOL    HW116040   1.890   2.842   9.228
 5128SOL    HW216041   2.052   2.845   9.216
 5129SOL     OW16042   2.534   2.065   8.937
 5129SOL    HW116043   2.624   2.049   8.897
 5129SOL    HW216044   2.542   2.070   9.036
 5130SOL     OW16045   1.937   2.207   7.481
 5130SOL    HW116046   1.845   2.179   7.452
 5130SOL    HW216047   1.968   2.284   7.425
 5131SOL     OW16048   3.302   2.718   8.846
 5131SOL    HW116049   3.245   2.770   8.783
 5131SOL    HW216050   3.398   2.730   8.822
 5132SOL     OW16051   1.934   2.028   7.766
 5132SOL    HW116052   1.917   2.111   7.712
 5132SOL    HW216053   2.024   1.991   7.744
 5133SOL     OW16054   3.045   3.197   7.567
 5133SOL    HW116055   2.946   3.186   7.569
 5133SOL    HW216056   3.079   3.212   7.660
 5134SOL     OW16057   2.475   2.704   8.879
 5134SOL    HW116058   2.531   2.785   8.862
 5134SOL    HW216059   2.534   2.624   8.882
 5135SOL     OW16060   3.355   3.629   8.407
 5135SOL    HW116061   3.388   3.693   8.338
 5135SOL    HW216062   3.421   3.623   8.482
 5136SOL     OW16063   2.578   2.427   9.156
 5136SOL    HW116064   2.597   2.492   9.230
 5136SOL    HW216065   2.638   2.347   9.165
 5137SOL     OW16066   3.312   3.082   9.081
 5137SOL    HW116067   3.303   3.072   9.180
 5137SOL    HW216068   3.408   3.075   9.055
 5138SOL     OW16069   2.252   3.603   9.008
 5138SOL    HW116070   2.161   3.644   9.006
 5138SOL    HW216071   2.245   3.509   9.040
 5139SOL     OW16072   3.536   2.745   8.702
 5139SOL    HW116073   3.509   2.656   8.665
 5139SOL    HW216074   3.537   2.813   8.629
 5140SOL     OW16075   3.087   2.187   7.897
 5140SOL    HW116076   3.152   2.113   7.886
 5140SOL    HW216077   3.107   2.237   7.981
 5141SOL     OW16078   3.639   2.204   9.090
 5141SOL    HW116079   3.622   2.235   8.996
 5141SOL    HW216080   3.555   2.167   9.128
 5142SOL     OW16081   3.592   2.796   8.965
 5142SOL    HW116082   3.630   2.887   8.980
 5142SOL    HW216083   3.584   2.779   8.866
 5143SOL     OW16084   2.721   3.236   7.464
 5143SOL    HW116085   2.675   3.251   7.552
 5143SOL    HW216086   2.765   3.321   7.434
 5144SOL     OW16087   2.523   3.652   8.401
 5144SOL    HW116088   2.477   3.740   8.388
 5144SOL    HW216089   2.622   3.664   8.394
 5145SOL     OW16090   2.721   2.818   8.309
 5145SOL    HW116091   2.775   2.749   8.357
 5145SOL    HW216092   2.689   2.887   8.375
 5146SOL     OW16093   2.945   2.846   7.535
 5146SOL    HW116094   2.922   2.899   7.453
 5146SOL    HW216095   3.026   2.790   7.516
 5147SOL     OW16096   3.723   3.431   8.299
 5147SOL    HW116097   3.652   3.419   8.229
 5147SOL    HW216098   3.724   3.352   8.359
 5148SOL     OW16099   2.083   3.176   9.292
 5148SOL    HW116100   2.018   3.103   9.271
 5148SOL    HW216101   2.087   3.190   9.390
 5149SOL     OW16102   1.941   3.102   8.101
 5149SOL    HW116103   1.940   3.055   8.189
 5149SOL    HW216104   2.023   3.074   8.050
 5150SOL     OW16105   2.534   3.253   9.072
 5150SOL    HW116106   2.456   3.203   9.110
 5150SOL    HW216107   2.531   3.348   9.103
 5151SOL     OW16108   3.686   2.054   8.675
 5151SOL    HW116109   3.682   1.964   8.719
 5151SOL    HW216110   3.689   2.043   8.576
 5152SOL     OW16111   3.567   3.349   8.552
 5152SOL    HW116112   3.474   3.324   8.525
 5152SOL    HW216113   3.593   3.299   8.634
 5153SOL     OW16114   2.674   3.448   8.135
 5153SOL    HW116115   2.706   3.458   8.041
 5153SOL    HW216116   2.595   3.386   8.137
 5154SOL     OW16117   3.286   2.076   8.560
 5154SOL    HW116118   3.338   2.011   8.615
 5154SOL    HW216119   3.237   2.139   8.621
 5155SOL     OW16120   2.863   1.896   8.602
 5155SOL    HW116121   2.800   1.824   8.571
 5155SOL    HW216122   2.956   1.860   8.602
 5156SOL     OW16123   2.632   3.192   7.749
 5156SOL    HW116124   2.586   3.105   7.766
 5156SOL    HW216125   2.723   3.189   7.790
 5157SOL     OW16126   2.480   3.429   8.732
 5157SOL    HW116127   2.475   3.511   8.789
 5157SOL    HW216128   2.569   3.426   8.687
 5158SOL     OW16129   3.214   1.914   7.616
 5158SOL    HW116130   3.249   1.873   7.532
 5158SOL    HW216131   3.124   1.876   7.636
 5159SOL     OW16132   3.162   2.315   8.139
 5159SOL    HW116133   3.103   2.395   8.143
 5159SOL    HW216134   3.177   2.280   8.232
 5160SOL     OW16135   3.455   2.083   8.330
 5160SOL    HW116136   3.371   2.082   8.384
 5160SOL    HW216137   3.457   2.166   8.274
 5161SOL     OW16138   1.901   2.939   7.748
 5161SOL    HW116139   2.000   2.928   7.739
 5161SOL    HW216140   1.861   2.853   7.780
 5162SOL     OW16141   2.737   3.508   7.785
 5162SOL    HW116142   2.660   3.473   7.731
 5162SOL    HW216143   2.705   3.579   7.847
 5163SOL     OW16144   1.881   2.230   9.957
 5163SOL    HW116145   1.799   2.273   9.996
 5163SOL    HW216146   1.853   2.157   9.894
 5164SOL     OW16147   2.431   3.137  10.475
 5164SOL    HW116148   2.338   3.130  10.438
 5164SOL    HW216149   2.442   3.226  10.519
 5165SOL     OW16150   3.417   3.373  10.013
 5165SOL    HW116151   3.360   3.357  10.094
 5165SOL    HW216152   3.358   3.383   9.933
 5166SOL     OW16153   2.997   2.565  10.027
 5166SOL    HW116154   3.054   2.643  10.002
 5166SOL    HW216155   2.937   2.591  10.103
 5167SOL     OW16156   3.617   2.469   9.541
 5167SOL    HW116157   3.605   2.456   9.442
 5167SOL    HW216158   3.587   2.388   9.590
 5168SOL     OW16159   2.630   3.006  10.333
 5168SOL    HW116160   2.552   3.023  10.393
 5168SOL    HW216161   2.664   3.093  10.297
 5169SOL     OW16162   2.712   2.660  11.133
 5169SOL    HW116163   2.708   2.736  11.198
 5169SOL    HW216164   2.734   2.696  11.042
 5170SOL     OW16165   2.547   2.874   9.975
 5170SOL    HW116166   2.616   2.858  10.045
 5170SOL    HW216167   2.474   2.931  10.013
 5171SOL     OW16168   2.197   3.297  10.371
 5171SOL    HW116169   2.119   3.266  10.318
 5171SOL    HW216170   2.255   3.355  10.314
 5172SOL     OW16171   3.322   3.367  10.649
 5172SOL    HW116172   3.346   3.461  10.675
 5172SOL    HW216173   3.306   3.313  10.731
 5173SOL     OW16174   3.465   2.309  10.047
 5173SOL    HW116175   3.391   2.355   9.997
 5173SOL    HW216176   3.516   2.377  10.100
 5174SOL     OW16177   2.093   3.575   9.793
 5174SOL    HW116178   2.127   3.652   9.847
 5174SOL    HW216179   2.137   3.575   9.703
 5175SOL     OW16180   2.092   3.296   9.848
 5175SOL    HW116181   2.066   3.392   9.848
 5175SOL    HW216182   2.021   3.242   9.893
 5176SOL     OW16183   2.102   2.953  10.196
 5176SOL    HW116184   2.116   2.869  10.248
 5176SOL    HW216185   2.047   3.017  10.251
 5177SOL     OW16186   2.482   3.648  10.749
 5177SOL    HW116187   2.390   3.631  10.784
 5177SOL    HW216188   2.510   3.740  10.775
 5178SOL     OW16189   2.468   2.826   9.433
 5178SOL    HW116190   2.475   2.910   9.379
 5178SOL    HW216191   2.514   2.839   9.521
 5179SOL     OW16192   3.456   1.976  10.790
 5179SOL    HW116193   3.438   2.043  10.718
 5179SOL    HW216194   3.453   2.022  10.879
 5180SOL     OW16195   1.984   2.505   9.873
 5180SOL    HW116196   1.939   2.417   9.890
 5180SOL    HW216197   1.983   2.559   9.957
 5181SOL     OW16198   3.704   3.629   9.669
 5181SOL    HW116199   3.758   3.600   9.749
 5181SOL    HW216200   3.734   3.719   9.640
 5182SOL     OW16201   1.889   3.458   9.427
 5182SOL    HW116202   1.870   3.362   9.448
 5182SOL    HW216203   1.856   3.516   9.502
 5183SOL     OW16204   3.551   2.784   9.922
 5183SOL    HW116205   3.646   2.755   9.930
 5183SOL    HW216206   3.543   2.849   9.847
 5184SOL     OW16207   3.503   2.970   9.742
 5184SOL    HW116208   3.589   2.972   9.690
 5184SOL    HW216209   3.517   3.017   9.830
 5185SOL     OW16210   1.975   2.599  10.907
 5185SOL    HW116211   2.063   2.586  10.952
 5185SOL    HW216212   1.962   2.696  10.885
 5186SOL     OW16213   2.475   3.227  10.036
 5186SOL    HW116214   2.426   3.140  10.045
 5186SOL    HW216215   2.452   3.270   9.949
 5187SOL     OW16216   3.155   3.090  10.733
 5187SOL    HW116217   3.192   3.017  10.675
 5187SOL    HW216218   3.207   3.095  10.818
 5188SOL     OW16219   2.671   1.866   9.812
 5188SOL    HW116220   2.711   1.957   9.803
 5188SOL    HW216221   2.571   1.874   9.818
 5189SOL     OW16222   2.059   2.838  10.574
 5189SOL    HW116223   2.148   2.793  10.560
 5189SOL    HW216224   1.986   2.773  10.555
 5190SOL     OW16225   3.387   2.861   9.500
 5190SOL    HW116226   3.324   2.785   9.513
 5190SOL    HW216227   3.435   2.879   9.586
 5191SOL     OW16228   3.049   3.654  10.926
 5191SOL    HW116229   3.073   3.714  10.850
 5191SOL    HW216230   3.056   3.559  10.896
 5192SOL     OW16231   3.328   3.279  10.263
 5192SOL    HW116232   3.269   3.285  10.343
 5192SOL    HW216233   3.313   3.191  10.217
 5193SOL     OW16234   3.529   3.576   9.882
 5193SOL    HW116235   3.488   3.553   9.794
 5193SOL    HW216236   3.511   3.502   9.947
 5194SOL     OW16237   2.460   2.591   9.580
 5194SOL    HW116238   2.484   2.660   9.512
 5194SOL    HW216239   2.382   2.624   9.634
 5195SOL     OW16240   3.143   2.207  10.254
 5195SOL    HW116241   3.057   2.157  10.241
 5195SOL    HW216242   3.205   2.153  10.310
 5196SOL     OW16243   3.438   3.524   9.617
 5196SOL    HW116244   3.527   3.570   9.620
 5196SOL    HW216245   3.417   3.500   9.522
 5197SOL     OW16246   2.669   2.467  10.775
 5197SOL    HW116247   2.622   2.464  10.864
 5197SOL    HW216248   2.618   2.412  10.709
 5198SOL     OW16249   2.835   2.752  10.882
 5198SOL    HW116250   2.881   2.668  10.853
 5198SOL    HW216251   2.779   2.786  10.807
 5199SOL     OW16252   2.853   2.272  10.552
 5199SOL    HW116253   2.776   2.306  10.606
 5199SOL    HW216254   2.819   2.221  10.473
 5200SOL     OW16255   2.903   2.563   9.739
 5200SOL    HW116256   2.929   2.559   9.835
 5200SOL    HW216257   2.818   2.512   9.725
 5201SOL     OW16258   1.938   2.673  10.099
 5201SOL    HW116259   2.037   2.661  10.108
 5201SOL    HW216260   1.914   2.768  10.120
 5202SOL     OW16261   1.992   3.683  10.881
 5202SOL    HW116262   1.982   3.668  10.980
 5202SOL    HW216263   1.906   3.719  10.845
 5203SOL     OW16264   2.727   2.210   9.505
 5203SOL    HW116265   2.786   2.273   9.456
 5203SOL    HW216266   2.746   2.116   9.476
 5204SOL     OW16267   3.224   3.006   9.855
 5204SOL    HW116268   3.307   2.977   9.807
 5204SOL    HW216269   3.175   3.073   9.799
 5205SOL     OW16270   2.870   3.318   9.787
 5205SOL    HW116271   2.824   3.390   9.735
 5205SOL    HW216272   2.866   3.338   9.885
 5206SOL     OW16273   2.213   3.663  10.163
 5206SOL    HW116274   2.263   3.577  10.169
 5206SOL    HW216275   2.278   3.740  10.160
 5207SOL     OW16276   3.657   2.928  10.183
 5207SOL    HW116277   3.595   2.913  10.107
 5207SOL    HW216278   3.605   2.939  10.268
 5208SOL     OW16279   3.089   3.412  10.816
 5208SOL    HW116280   3.095   3.335  10.880
 5208SOL    HW216281   3.037   3.386  10.736
 5209SOL     OW16282   2.183   2.805   9.552
 5209SOL    HW116283   2.265   2.844   9.510
 5209SOL    HW216284   2.156   2.723   9.503
 5210SOL     OW16285   3.320   2.597  10.038
 5210SOL    HW116286   3.315   2.532  10.113
 5210SOL    HW216287   3.400   2.656  10.051
 5211SOL     OW16288   2.323   3.128  11.037
 5211SOL    HW116289   2.273   3.129  10.951
 5211SOL    HW216290   2.260   3.110  11.113
 5212SOL     OW16291   2.973   3.638   9.547
 5212SOL    HW116292   2.913   3.576   9.597
 5212SOL    HW216293   3.004   3.594   9.462
 5213SOL     OW16294   3.494   3.239   9.391
 5213SOL    HW116295   3.462   3.333   9.381
 5213SOL    HW216296   3.418   3.176   9.379
 5214SOL     OW16297   2.326   3.605   9.633
 5214SOL    HW116298   2.359   3.644   9.719
 5214SOL    HW216299   2.402   3.598   9.568
 5215SOL     OW16300   3.262   1.969   9.736
 5215SOL    HW116301   3.238   1.932   9.646
 5215SOL    HW216302   3.361   1.985   9.740
 5216SOL     OW16303   2.111   3.647  10.551
 5216SOL    HW116304   2.168   3.582  10.601
 5216SOL    HW216305   2.095   3.614  10.458
 5217SOL     OW16306   2.802   3.560  10.214
 5217SOL    HW116307   2.882   3.503  10.235
 5217SOL    HW216308   2.753   3.520  10.137
 5218SOL     OW16309   2.476   1.984   9.427
 5218SOL    HW116310   2.574   1.962   9.434
 5218SOL    HW216311   2.445   1.967   9.334
 5219SOL     OW16312   2.643   2.126  11.059
 5219SOL    HW116313   2.710   2.065  11.102
 5219SOL    HW216314   2.570   2.145  11.124
 5220SOL     OW16315   2.750   3.376  10.505
 5220SOL    HW116316   2.727   3.351  10.411
 5220SOL    HW216317   2.811   3.307  10.544
 5221SOL     OW16318   3.213   2.452  10.743
 5221SOL    HW116319   3.241   2.409  10.828
 5221SOL    HW216320   3.238   2.548  10.744
 5222SOL     OW16321   2.665   3.264  10.234
 5222SOL    HW116322   2.755   3.278  10.192
 5222SOL    HW216323   2.594   3.266  10.163
 5223SOL     OW16324   2.784   2.365  10.209
 5223SOL    HW116325   2.759   2.356  10.113
 5223SOL    HW216326   2.832   2.283  10.240
 5224SOL     OW16327   3.296   3.050   9.351
 5224SOL    HW116328   3.328   2.974   9.408
 5224SOL    HW216329   3.204   3.077   9.381
 5225SOL     OW16330   2.797   2.098   9.790
 5225SOL    HW116331   2.749   2.139   9.712
 5225SOL    HW216332   2.896   2.096   9.771
 5226SOL     OW16333   2.938   2.545  10.774
 5226SOL    HW116334   2.858   2.484  10.777
 5226SOL    HW216335   3.019   2.492  10.750
 5227SOL     OW16336   3.089   3.432  10.103
 5227SOL    HW116337   3.110   3.506  10.038
 5227SOL    HW216338   3.157   3.432  10.176
 5228SOL     OW16339   2.321   3.014  10.051
 5228SOL    HW116340   2.250   2.987  10.116
 5228SOL    HW216341   2.295   2.986   9.958
 5229SOL     OW16342   3.133   3.659   9.901
 5229SOL    HW116343   3.177   3.723   9.837
 5229SOL    HW216344   3.083   3.711   9.971
 5230SOL     OW16345   2.894   2.411   9.326
 5230SOL    HW116346   2.853   2.493   9.287
 5230SOL    HW216347   2.958   2.437   9.399
 5231SOL     OW16348   2.728   2.316   9.952
 5231SOL    HW116349   2.696   2.388   9.890
 5231SOL    HW216350   2.752   2.235   9.899
 5232SOL     OW16351   2.879   1.901  10.063
 5232SOL    HW116352   2.807   1.906   9.994
 5232SOL    HW216353   2.855   1.832  10.132
 5233SOL     OW16354   3.291   3.035  10.177
 5233SOL    HW116355   3.236   2.951  10.170
 5233SOL    HW216356   3.317   3.064  10.085
 5234SOL     OW16357   3.328   2.452  10.302
 5234SOL    HW116358   3.298   2.357  10.309
 5234SOL    HW216359   3.401   2.468  10.368
 5235SOL     OW16360   3.719   2.695   9.687
 5235SOL    HW116361   3.761   2.631   9.751
 5235SOL    HW216362   3.681   2.644   9.609
 5236SOL     OW16363   2.350   3.247   9.484
 5236SOL    HW116364   2.263   3.232   9.531
 5236SOL    HW216365   2.333   3.273   9.389
 5237SOL     OW16366   3.526   3.142   9.967
 5237SOL    HW116367   3.625   3.150   9.981
 5237SOL    HW216368   3.481   3.226   9.998
 5238SOL     OW16369   3.252   2.437   9.388
 5238SOL    HW116370   3.198   2.416   9.469
 5238SOL    HW216371   3.343   2.396   9.397
 5239SOL     OW16372   3.616   3.085  10.898
 5239SOL    HW116373   3.707   3.046  10.885
 5239SOL    HW216374   3.624   3.181  10.922
 5240SOL     OW16375   2.926   3.209  10.650
 5240SOL    HW116376   2.846   3.186  10.705
 5240SOL    HW216377   3.009   3.183  10.699
 5241SOL     OW16378   2.973   3.057  10.410
 5241SOL    HW116379   2.933   3.101  10.491
 5241SOL    HW216380   2.932   3.094  10.327
 5242SOL     OW16381   3.500   2.961  10.389
 5242SOL    HW116382   3.505   3.042  10.448
 5242SOL    HW216383   3.414   2.963  10.338
 5243SOL     OW16384   2.777   1.951  10.712
 5243SOL    HW116385   2.802   1.931  10.617
 5243SOL    HW216386   2.849   2.007  10.754
 5244SOL     OW16387   2.567   2.912   9.678
 5244SOL    HW116388   2.553   2.919   9.777
 5244SOL    HW216389   2.651   2.861   9.660
 5245SOL     OW16390   3.136   2.248  10.572
 5245SOL    HW116391   3.157   2.322  10.636
 5245SOL    HW216392   3.047   2.265  10.529
 5246SOL     OW16393   1.926   3.426  10.641
 5246SOL    HW116394   1.880   3.508  10.607
 5246SOL    HW216395   2.024   3.445  10.650
 5247SOL     OW16396   2.229   2.962   9.811
 5247SOL    HW116397   2.222   3.045   9.755
 5247SOL    HW216398   2.233   2.882   9.751
 5248SOL     OW16399   3.114   3.210   9.698
 5248SOL    HW116400   3.164   3.287   9.738
 5248SOL    HW216401   3.019   3.212   9.730
 5249SOL     OW16402   3.134   3.307  10.452
 5249SOL    HW116403   3.181   3.320  10.539
 5249SOL    HW216404   3.068   3.233  10.461
 5250SOL     OW16405   3.444   2.501   9.782
 5250SOL    HW116406   3.413   2.562   9.855
 5250SOL    HW216407   3.494   2.553   9.713
 5251SOL     OW16408   2.216   3.372  10.639
 5251SOL    HW116409   2.195   3.328  10.552
 5251SOL    HW216410   2.313   3.398  10.642
 5252SOL     OW16411   3.449   2.641  10.980
 5252SOL    HW116412   3.357   2.679  10.975
 5252SOL    HW216413   3.509   2.688  10.915
 5253SOL     OW16414   2.435   2.732  10.339
 5253SOL    HW116415   2.479   2.821  10.330
 5253SOL    HW216416   2.372   2.732  10.416
 5254SOL     OW16417   3.222   2.724  10.355
 5254SOL    HW116418   3.147   2.724  10.289
 5254SOL    HW216419   3.259   2.632  10.364
 5255SOL     OW16420   3.071   2.387   9.585
 5255SOL    HW116421   3.084   2.303   9.639
 5255SOL    HW216422   3.042   2.461   9.645
 5256SOL     OW16423   1.899   3.172  10.592
 5256SOL    HW116424   1.952   3.123  10.660
 5256SOL    HW216425   1.921   3.270  10.597
 5257SOL     OW16426   2.594   2.496  10.374
 5257SOL    HW116427   2.653   2.470  10.298
 5257SOL    HW216428   2.566   2.592  10.363
 5258SOL     OW16429   3.484   2.229   9.684
 5258SOL    HW116430   3.486   2.153   9.748
 5258SOL    HW216431   3.436   2.306   9.724
 5259SOL     OW16432   2.885   2.628  10.276
 5259SOL    HW116433   2.900   2.649  10.372
 5259SOL    HW216434   2.855   2.533  10.267
 5260SOL     OW16435   2.842   3.435  11.010
 5260SOL    HW116436   2.822   3.479  10.922
 5260SOL    HW216437   2.881   3.344  10.994
 5261SOL     OW16438   3.721   3.380  10.915
 5261SOL    HW116439   3.735   3.407  10.820
 5261SOL    HW216440   3.804   3.402  10.968
 5262SOL     OW16441   2.212   2.760  11.114
 5262SOL    HW116442   2.288   2.804  11.162
 5262SOL    HW216443   2.247   2.713  11.032
 5263SOL     OW16444   3.402   2.136   9.435
 5263SOL    HW116445   3.341   2.061   9.458
 5263SOL    HW216446   3.424   2.188   9.518
 5264SOL     OW16447   3.165   2.700   9.352
 5264SOL    HW116448   3.199   2.607   9.367
 5264SOL    HW216449   3.183   2.727   9.257
 5265SOL     OW16450   2.930   3.195  10.159
 5265SOL    HW116451   2.937   3.111  10.104
 5265SOL    HW216452   2.992   3.264  10.123
 5266SOL     OW16453   2.181   2.672  10.259
 5266SOL    HW116454   2.274   2.708  10.264
 5266SOL    HW216455   2.175   2.587  10.311
 5267SOL     OW16456   3.022   2.069  10.787
 5267SOL    HW116457   3.022   2.133  10.864
 5267SOL    HW216458   3.050   2.117  10.704
 5268SOL     OW16459   1.870   3.188   9.510
 5268SOL    HW116460   1.777   3.209   9.479
 5268SOL    HW216461   1.880   3.089   9.523
 5269SOL     OW16462   1.950   3.663  10.237
 5269SOL    HW116463   1.908   3.577  10.210
 5269SOL    HW216464   2.044   3.666  10.203
 5270SOL     OW16465   2.366   3.430  10.220
 5270SOL    HW116466   2.432   3.504  10.229
 5270SOL    HW216467   2.410   3.351  10.178
 5271SOL     OW16468   2.864   2.658  10.548
 5271SOL    HW116469   2.905   2.626  10.634
 5271SOL    HW216470   2.768   2.631  10.545
 5272SOL     OW16471   1.902   2.406  10.424
 5272SOL    HW116472   1.987   2.373  10.383
 5272SOL    HW216473   1.915   2.421  10.522
 5273SOL     OW16474   2.677   2.434   9.635
 5273SOL    HW116475   2.684   2.345   9.589
 5273SOL    HW216476   2.583   2.468   9.627
 5274SOL     OW16477   3.519   2.466  10.516
 5274SOL    HW116478   3.481   2.397  10.578
 5274SOL    HW216479   3.601   2.430  10.472
 5275SOL     OW16480   2.114   3.426  11.054
 5275SOL    HW116481   2.084   3.483  11.130
 5275SOL    HW216482   2.107   3.329  11.080
 5276SOL     OW16483   2.533   2.326  10.579
 5276SOL    HW116484   2.499   2.237  10.549
 5276SOL    HW216485   2.559   2.380  10.499
 5277SOL     OW16486   2.792   3.540  10.775
 5277SOL    HW116487   2.768   3.522  10.680
 5277SOL    HW216488   2.822   3.634  10.785
 5278SOL     OW16489   2.021   2.999  10.776
 5278SOL    HW116490   2.043   2.938  10.852
 5278SOL    HW216491   2.031   2.950  10.690
 5279SOL     OW16492   3.209   2.921  10.544
 5279SOL    HW116493   3.233   2.858  10.470
 5279SOL    HW216494   3.119   2.961  10.526
 5280SOL     OW16495   3.164   2.717   9.619
 5280SOL    HW116496   3.078   2.686   9.661
 5280SOL    HW216497   3.160   2.703   9.520
 5281SOL     OW16498   3.621   3.609  10.464
 5281SOL    HW116499   3.682   3.639  10.391
 5281SOL    HW216500   3.583   3.520  10.442
 5282SOL     OW16501   3.114   3.593  10.438
 5282SOL    HW116502   3.198   3.598  10.384
 5282SOL    HW216503   3.091   3.497  10.456
 5283SOL     OW16504   1.945   3.120  10.332
 5283SOL    HW116505   1.940   3.119  10.432
 5283SOL    HW216506   1.862   3.079  10.294
 5284SOL     OW16507   3.588   1.997   9.833
 5284SOL    HW116508   3.661   1.980   9.766
 5284SOL    HW216509   3.557   1.910   9.871
 5285SOL     OW16510   3.250   3.435   9.787
 5285SOL    HW116511   3.317   3.447   9.713
 5285SOL    HW216512   3.210   3.524   9.810
 5286SOL     OW16513   3.142   2.789   9.982
 5286SOL    HW116514   3.202   2.708   9.984
 5286SOL    HW216515   3.182   2.858   9.922
 5287SOL     OW16516   2.692   3.135  10.732
 5287SOL    HW116517   2.687   3.168  10.827
 5287SOL    HW216518   2.606   3.154  10.686
 5288SOL     OW16519   2.534   3.478   9.464
 5288SOL    HW116520   2.543   3.488   9.365
 5288SOL    HW216521   2.494   3.389   9.485
 5289SOL     OW16522   3.512   3.582  10.704
 5289SOL    HW116523   3.565   3.592  10.620
 5289SOL    HW216524   3.485   3.672  10.738
 5290SOL     OW16525   3.703   2.037  10.273
 5290SOL    HW116526   3.742   1.952  10.237
 5290SOL    HW216527   3.605   2.039  10.254
 5291SOL     OW16528   3.056   3.474   9.341
 5291SOL    HW116529   3.062   3.381   9.378
 5291SOL    HW216530   2.997   3.474   9.261
 5292SOL     OW16531   2.684   2.864  10.682
 5292SOL    HW116532   2.724   2.863  10.590
 5292SOL    HW216533   2.694   2.956  10.722
 5293SOL     OW16534   2.778   2.772   9.601
 5293SOL    HW116535   2.841   2.810   9.533
 5293SOL    HW216536   2.818   2.689   9.640
 5294SOL     OW16537   3.366   3.469   9.354
 5294SOL    HW116538   3.274   3.506   9.361
 5294SOL    HW216539   3.404   3.489   9.264
 5295SOL     OW16540   2.234   3.150  10.800
 5295SOL    HW116541   2.221   3.243  10.766
 5295SOL    HW216542   2.150   3.098  10.787
 5296SOL     OW16543   3.476   3.154  10.599
 5296SOL    HW116544   3.536   3.157  10.679
 5296SOL    HW216545   3.401   3.218  10.612
 5297SOL     OW16546   2.901   2.960  10.006
 5297SOL    HW116547   2.831   2.913  10.060
 5297SOL    HW216548   2.960   2.892   9.963
 5298SOL     OW16549   2.876   2.098  10.281
 5298SOL    HW116550   2.868   2.062  10.188
 5298SOL    HW216551   2.874   2.022  10.346
 5299SOL     OW16552   2.452   3.349   9.801
 5299SOL    HW116553   2.494   3.291   9.731
 5299SOL    HW216554   2.408   3.428   9.757
 5300SOL     OW16555   3.571   2.247  10.691
 5300SOL    HW116556   3.644   2.316  10.695
 5300SOL    HW216557   3.599   2.172  10.632
 5301SOL     OW16558   2.117   3.210   9.600
 5301SOL    HW116559   2.021   3.211   9.573
 5301SOL    HW216560   2.129   3.263   9.684
 5302SOL     OW16561   1.967   2.875  11.036
 5302SOL    HW116562   1.890   2.842  11.090
 5302SOL    HW216563   2.052   2.845  11.078
 5303SOL     OW16564   2.534   2.065  10.799
 5303SOL    HW116565   2.624   2.049  10.759
 5303SOL    HW216566   2.542   2.070  10.898
 5304SOL     OW16567   1.937   2.207   9.343
 5304SOL    HW116568   1.845   2.179   9.314
 5304SOL    HW216569   1.968   2.284   9.287
 5305SOL     OW16570   3.302   2.718  10.708
 5305SOL    HW116571   3.245   2.770  10.645
 5305SOL    HW216572   3.398   2.730  10.684
 5306SOL     OW16573   1.934   2.028   9.628
 5306SOL    HW116574   1.917   2.111   9.574
 5306SOL    HW216575   2.024   1.991   9.606
 5307SOL     OW16576   3.045   3.197   9.429
 5307SOL    HW116577   2.946   3.186   9.431
 5307SOL    HW216578   3.079   3.212   9.522
 5308SOL     OW16579   2.475   2.704  10.741
 5308SOL    HW116580   2.531   2.785  10.724
 5308SOL    HW216581   2.534   2.624  10.744
 5309SOL     OW16582   3.355   3.629  10.269
 5309SOL    HW116583   3.388   3.693  10.200
 5309SOL    HW216584   3.421   3.623  10.344
 5310SOL     OW16585   2.578   2.427  11.018
 5310SOL    HW116586   2.597   2.492  11.092
 5310SOL    HW216587   2.638   2.347  11.027
 5311SOL     OW16588   2.252   3.603  10.870
 5311SOL    HW116589   2.161   3.644  10.868
 5311SOL    HW216590   2.245   3.509  10.902
 5312SOL     OW16591   3.536   2.745  10.564
 5312SOL    HW116592   3.509   2.656  10.527
 5312SOL    HW216593   3.537   2.813  10.491
 5313SOL     OW16594   3.087   2.187   9.759
 5313SOL    HW116595   3.152   2.113   9.748
 5313SOL    HW216596   3.107   2.237   9.843
 5314SOL     OW16597   2.456   2.607   9.962
 5314SOL    HW116598   2.506   2.692   9.943
 5314SOL    HW216599   2.368   2.609   9.914
 5315SOL     OW16600   3.639   2.204  10.952
 5315SOL    HW116601   3.622   2.235  10.858
 5315SOL    HW216602   3.555   2.167  10.990
 5316SOL     OW16603   3.592   2.796  10.827
 5316SOL    HW116604   3.630   2.887  10.842
 5316SOL    HW216605   3.584   2.779  10.728
 5317SOL     OW16606   2.721   3.236   9.326
 5317SOL    HW116607   2.675   3.251   9.414
 5317SOL    HW216608   2.765   3.321   9.296
 5318SOL     OW16609   2.523   3.652  10.263
 5318SOL    HW116610   2.477   3.740  10.250
 5318SOL    HW216611   2.622   3.664  10.256
 5319SOL     OW16612   2.721   2.818  10.171
 5319SOL    HW116613   2.775   2.749  10.219
 5319SOL    HW216614   2.689   2.887  10.237
 5320SOL     OW16615   2.945   2.846   9.397
 5320SOL    HW116616   2.922   2.899   9.315
 5320SOL    HW216617   3.026   2.790   9.378
 5321SOL     OW16618   3.723   3.431  10.161
 5321SOL    HW116619   3.652   3.419  10.091
 5321SOL    HW216620   3.724   3.352  10.221
 5322SOL     OW16621   1.941   3.102   9.963
 5322SOL    HW116622   1.940   3.055  10.051
 5322SOL    HW216623   2.023   3.074   9.912
 5323SOL     OW16624   2.534   3.253  10.934
 5323SOL    HW116625   2.456   3.203  10.972
 5323SOL    HW216626   2.531   3.348  10.965
 5324SOL     OW16627   3.686   2.054  10.537
 5324SOL    HW116628   3.682   1.964  10.581
 5324SOL    HW216629   3.689   2.043  10.438
 5325SOL     OW16630   3.567   3.349  10.414
 5325SOL    HW116631   3.474   3.324  10.387
 5325SOL    HW216632   3.593   3.299  10.496
 5326SOL     OW16633   2.674   3.448   9.997
 5326SOL    HW116634   2.706   3.458   9.903
 5326SOL    HW216635   2.595   3.386   9.999
 5327SOL     OW16636   3.286   2.076  10.422
 5327SOL    HW116637   3.338   2.011  10.477
 5327SOL    HW216638   3.237   2.139  10.483
 5328SOL     OW16639   2.863   1.896  10.464
 5328SOL    HW116640   2.800   1.824  10.433
 5328SOL    HW216641   2.956   1.860  10.464
 5329SOL     OW16642   2.632   3.192   9.611
 5329SOL    HW116643   2.586   3.105   9.628
 5329SOL    HW216644   2.723   3.189   9.652
 5330SOL     OW16645   2.480   3.429  10.594
 5330SOL    HW116646   2.475   3.511  10.651
 5330SOL    HW216647   2.569   3.426  10.549
 5331SOL     OW16648   3.214   1.914   9.478
 5331SOL    HW116649   3.249   1.873   9.394
 5331SOL    HW216650   3.124   1.876   9.498
 5332SOL     OW16651   3.162   2.315  10.001
 5332SOL    HW116652   3.103   2.395  10.005
 5332SOL    HW216653   3.177   2.280  10.094
 5333SOL     OW16654   3.455   2.083  10.192
 5333SOL    HW116655   3.371   2.082  10.246
 5333SOL    HW216656   3.457   2.166  10.136
 5334SOL     OW16657   1.901   2.939   9.610
 5334SOL    HW116658   2.000   2.928   9.601
 5334SOL    HW216659   1.861   2.853   9.642
 5335SOL     OW16660   2.737   3.508   9.647
 5335SOL    HW116661   2.660   3.473   9.593
 5335SOL    HW216662   2.705   3.579   9.709
 5336SOL     OW16663   2.092   4.352   0.113
 5336SOL    HW116664   1.999   4.350   0.150
 5336SOL    HW216665   2.093   4.313   0.021
 5337SOL     OW16666   2.087   3.999   0.996
 5337SOL    HW116667   2.122   3.982   1.088
 5337SOL    HW216668   1.999   3.954   0.984
 5338SOL     OW16669   1.881   4.092   0.647
 5338SOL    HW116670   1.799   4.135   0.686
 5338SOL    HW216671   1.853   4.019   0.584
 5339SOL     OW16672   3.617   4.331   0.231
 5339SOL    HW116673   3.605   4.318   0.132
 5339SOL    HW216674   3.587   4.250   0.280
 5340SOL     OW16675   2.547   4.736   0.665
 5340SOL    HW116676   2.616   4.720   0.735
 5340SOL    HW216677   2.474   4.793   0.703
 5341SOL     OW16678   2.300   4.116   1.499
 5341SOL    HW116679   2.382   4.060   1.508
 5341SOL    HW216680   2.219   4.058   1.503
 5342SOL     OW16681   3.465   4.171   0.737
 5342SOL    HW116682   3.391   4.217   0.687
 5342SOL    HW216683   3.516   4.239   0.790
 5343SOL     OW16684   3.456   3.838   1.480
 5343SOL    HW116685   3.438   3.905   1.408
 5343SOL    HW216686   3.453   3.884   1.569
 5344SOL     OW16687   1.984   4.367   0.563
 5344SOL    HW116688   1.939   4.279   0.580
 5344SOL    HW216689   1.983   4.421   0.647
 5345SOL     OW16690   1.975   4.461   1.597
 5345SOL    HW116691   2.063   4.448   1.642
 5345SOL    HW216692   1.962   4.558   1.575
 5346SOL     OW16693   2.671   3.728   0.502
 5346SOL    HW116694   2.711   3.819   0.493
 5346SOL    HW216695   2.571   3.736   0.508
 5347SOL     OW16696   2.179   3.975   1.801
 5347SOL    HW116697   2.250   4.046   1.807
 5347SOL    HW216698   2.091   4.014   1.829
 5348SOL     OW16699   3.143   4.069   0.944
 5348SOL    HW116700   3.057   4.019   0.931
 5348SOL    HW216701   3.205   4.015   1.000
 5349SOL     OW16702   2.669   4.329   1.465
 5349SOL    HW116703   2.622   4.326   1.554
 5349SOL    HW216704   2.618   4.274   1.399
 5350SOL     OW16705   3.256   4.193   1.674
 5350SOL    HW116706   3.236   4.236   1.762
 5350SOL    HW216707   3.334   4.131   1.683
 5351SOL     OW16708   2.853   4.134   1.242
 5351SOL    HW116709   2.776   4.168   1.296
 5351SOL    HW216710   2.819   4.083   1.163
 5352SOL     OW16711   2.903   4.425   0.429
 5352SOL    HW116712   2.929   4.421   0.525
 5352SOL    HW216713   2.818   4.374   0.415
 5353SOL     OW16714   2.727   4.072   0.195
 5353SOL    HW116715   2.786   4.135   0.146
 5353SOL    HW216716   2.746   3.978   0.166
 5354SOL     OW16717   3.581   4.309   1.831
 5354SOL    HW116718   3.555   4.398   1.795
 5354SOL    HW216719   3.579   4.241   1.758
 5355SOL     OW16720   2.412   3.920   0.885
 5355SOL    HW116721   2.407   3.915   0.985
 5355SOL    HW216722   2.414   4.016   0.856
 5356SOL     OW16723   3.320   4.459   0.728
 5356SOL    HW116724   3.315   4.394   0.803
 5356SOL    HW216725   3.400   4.518   0.741
 5357SOL     OW16726   2.064   4.009   1.498
 5357SOL    HW116727   1.984   4.069   1.485
 5357SOL    HW216728   2.054   3.960   1.584
 5358SOL     OW16729   3.262   3.831   0.426
 5358SOL    HW116730   3.238   3.794   0.336
 5358SOL    HW216731   3.361   3.847   0.430
 5359SOL     OW16732   2.244   4.424   0.480
 5359SOL    HW116733   2.289   4.334   0.477
 5359SOL    HW216734   2.150   4.413   0.513
 5360SOL     OW16735   3.409   3.946   1.729
 5360SOL    HW116736   3.404   3.983   1.821
 5360SOL    HW216737   3.337   3.877   1.717
 5361SOL     OW16738   2.476   3.846   0.117
 5361SOL    HW116739   2.574   3.824   0.124
 5361SOL    HW216740   2.445   3.829   0.024
 5362SOL     OW16741   2.643   3.988   1.749
 5362SOL    HW116742   2.710   3.927   1.792
 5362SOL    HW216743   2.570   4.007   1.814
 5363SOL     OW16744   3.213   4.314   1.433
 5363SOL    HW116745   3.241   4.271   1.518
 5363SOL    HW216746   3.238   4.410   1.434
 5364SOL     OW16747   2.784   4.227   0.899
 5364SOL    HW116748   2.759   4.218   0.803
 5364SOL    HW216749   2.832   4.145   0.930
 5365SOL     OW16750   2.401   3.788   0.512
 5365SOL    HW116751   2.320   3.789   0.570
 5365SOL    HW216752   2.404   3.871   0.457
 5366SOL     OW16753   2.159   3.759   0.171
 5366SOL    HW116754   2.208   3.843   0.150
 5366SOL    HW216755   2.221   3.694   0.216
 5367SOL     OW16756   2.797   3.960   0.480
 5367SOL    HW116757   2.749   4.001   0.402
 5367SOL    HW216758   2.896   3.958   0.461
 5368SOL     OW16759   2.938   4.407   1.464
 5368SOL    HW116760   2.858   4.346   1.467
 5368SOL    HW216761   3.019   4.354   1.440
 5369SOL     OW16762   2.894   4.273   0.016
 5369SOL    HW116763   2.853   4.355  -0.023
 5369SOL    HW216764   2.958   4.299   0.089
 5370SOL     OW16765   1.940   4.280   1.386
 5370SOL    HW116766   2.032   4.279   1.345
 5370SOL    HW216767   1.934   4.354   1.453
 5371SOL     OW16768   2.423   3.946   1.147
 5371SOL    HW116769   2.461   3.862   1.184
 5371SOL    HW216770   2.335   3.965   1.191
 5372SOL     OW16771   2.728   4.178   0.642
 5372SOL    HW116772   2.696   4.250   0.580
 5372SOL    HW216773   2.752   4.097   0.589
 5373SOL     OW16774   2.879   3.763   0.753
 5373SOL    HW116775   2.807   3.768   0.684
 5373SOL    HW216776   2.855   3.694   0.822
 5374SOL     OW16777   3.328   4.314   0.992
 5374SOL    HW116778   3.298   4.219   0.999
 5374SOL    HW216779   3.401   4.330   1.058
 5375SOL     OW16780   3.252   4.299   0.078
 5375SOL    HW116781   3.198   4.278   0.159
 5375SOL    HW216782   3.343   4.258   0.087
 5376SOL     OW16783   2.389   3.980   0.328
 5376SOL    HW116784   2.416   3.921   0.253
 5376SOL    HW216785   2.389   4.075   0.297
 5377SOL     OW16786   2.777   3.813   1.402
 5377SOL    HW116787   2.802   3.793   1.307
 5377SOL    HW216788   2.849   3.869   1.444
 5378SOL     OW16789   2.272   4.537   1.251
 5378SOL    HW116790   2.358   4.549   1.301
 5378SOL    HW216791   2.230   4.450   1.278
 5379SOL     OW16792   3.136   4.110   1.262
 5379SOL    HW116793   3.157   4.184   1.326
 5379SOL    HW216794   3.047   4.127   1.219
 5380SOL     OW16795   2.428   4.261   0.865
 5380SOL    HW116796   2.440   4.327   0.791
 5380SOL    HW216797   2.474   4.295   0.948
 5381SOL     OW16798   3.444   4.363   0.472
 5381SOL    HW116799   3.413   4.424   0.545
 5381SOL    HW216800   3.494   4.415   0.403
 5382SOL     OW16801   2.875   3.829   1.770
 5382SOL    HW116802   2.881   3.914   1.718
 5382SOL    HW216803   2.907   3.753   1.713
 5383SOL     OW16804   2.366   3.774   1.740
 5383SOL    HW116805   2.324   3.717   1.670
 5383SOL    HW216806   2.300   3.843   1.772
 5384SOL     OW16807   3.071   4.249   0.275
 5384SOL    HW116808   3.084   4.165   0.329
 5384SOL    HW216809   3.042   4.323   0.335
 5385SOL     OW16810   2.169   3.937   1.231
 5385SOL    HW116811   2.146   3.974   1.321
 5385SOL    HW216812   2.139   3.842   1.225
 5386SOL     OW16813   2.594   4.358   1.064
 5386SOL    HW116814   2.653   4.332   0.988
 5386SOL    HW216815   2.566   4.454   1.053
 5387SOL     OW16816   3.590   4.659   1.854
 5387SOL    HW116817   3.544   4.652   1.765
 5387SOL    HW216818   3.528   4.703   1.920
 5388SOL     OW16819   2.169   3.787   0.618
 5388SOL    HW116820   2.158   3.881   0.651
 5388SOL    HW216821   2.164   3.724   0.695
 5389SOL     OW16822   3.484   4.091   0.374
 5389SOL    HW116823   3.486   4.015   0.438
 5389SOL    HW216824   3.436   4.168   0.414
 5390SOL     OW16825   3.402   3.998   0.125
 5390SOL    HW116826   3.341   3.923   0.148
 5390SOL    HW216827   3.424   4.050   0.208
 5391SOL     OW16828   2.181   4.534   0.949
 5391SOL    HW116829   2.274   4.570   0.954
 5391SOL    HW216830   2.175   4.449   1.001
 5392SOL     OW16831   2.201   4.233   1.006
 5392SOL    HW116832   2.149   4.150   0.989
 5392SOL    HW216833   2.278   4.238   0.942
 5393SOL     OW16834   3.000   4.104   1.678
 5393SOL    HW116835   2.955   4.167   1.742
 5393SOL    HW216836   3.093   4.135   1.661
 5394SOL     OW16837   3.022   3.931   1.477
 5394SOL    HW116838   3.022   3.995   1.554
 5394SOL    HW216839   3.050   3.979   1.394
 5395SOL     OW16840   1.902   4.268   1.114
 5395SOL    HW116841   1.987   4.235   1.073
 5395SOL    HW216842   1.915   4.283   1.212
 5396SOL     OW16843   2.051   4.244   1.722
 5396SOL    HW116844   2.110   4.204   1.652
 5396SOL    HW216845   1.993   4.315   1.681
 5397SOL     OW16846   2.677   4.296   0.325
 5397SOL    HW116847   2.684   4.207   0.279
 5397SOL    HW216848   2.583   4.330   0.317
 5398SOL     OW16849   3.519   4.328   1.206
 5398SOL    HW116850   3.481   4.259   1.268
 5398SOL    HW216851   3.601   4.292   1.162
 5399SOL     OW16852   2.533   4.188   1.269
 5399SOL    HW116853   2.499   4.099   1.239
 5399SOL    HW216854   2.559   4.242   1.189
 5400SOL     OW16855   2.335   4.224   0.191
 5400SOL    HW116856   2.396   4.304   0.195
 5400SOL    HW216857   2.240   4.255   0.198
 5401SOL     OW16858   2.765   3.810   0.133
 5401SOL    HW116859   2.816   3.811   0.047
 5401SOL    HW216860   2.821   3.768   0.204
 5402SOL     OW16861   3.588   3.859   0.523
 5402SOL    HW116862   3.661   3.842   0.456
 5402SOL    HW216863   3.557   3.772   0.561
 5403SOL     OW16864   3.142   4.651   0.672
 5403SOL    HW116865   3.202   4.570   0.674
 5403SOL    HW216866   3.182   4.720   0.612
 5404SOL     OW16867   3.703   3.899   0.963
 5404SOL    HW116868   3.742   3.814   0.927
 5404SOL    HW216869   3.605   3.901   0.944
 5405SOL     OW16870   2.125   4.050   0.720
 5405SOL    HW116871   2.046   4.101   0.686
 5405SOL    HW216872   2.116   4.035   0.818
 5406SOL     OW16873   2.901   4.822   0.696
 5406SOL    HW116874   2.831   4.775   0.750
 5406SOL    HW216875   2.960   4.754   0.653
 5407SOL     OW16876   2.876   3.960   0.971
 5407SOL    HW116877   2.868   3.924   0.878
 5407SOL    HW216878   2.874   3.884   1.036
 5408SOL     OW16879   3.571   4.109   1.381
 5408SOL    HW116880   3.644   4.178   1.385
 5408SOL    HW216881   3.599   4.034   1.322
 5409SOL     OW16882   2.534   3.927   1.489
 5409SOL    HW116883   2.624   3.911   1.449
 5409SOL    HW216884   2.542   3.932   1.588
 5410SOL     OW16885   1.937   4.069   0.033
 5410SOL    HW116886   1.845   4.041   0.004
 5410SOL    HW216887   1.968   4.146  -0.023
 5411SOL     OW16888   1.934   3.890   0.318
 5411SOL    HW116889   1.917   3.973   0.264
 5411SOL    HW216890   2.024   3.853   0.296
 5412SOL     OW16891   2.578   4.289   1.708
 5412SOL    HW116892   2.597   4.354   1.782
 5412SOL    HW216893   2.638   4.209   1.717
 5413SOL     OW16894   3.087   4.049   0.449
 5413SOL    HW116895   3.152   3.975   0.438
 5413SOL    HW216896   3.107   4.099   0.533
 5414SOL     OW16897   3.639   4.066   1.642
 5414SOL    HW116898   3.622   4.097   1.548
 5414SOL    HW216899   3.555   4.029   1.680
 5415SOL     OW16900   2.945   4.708   0.087
 5415SOL    HW116901   2.922   4.761   0.005
 5415SOL    HW216902   3.026   4.652   0.068
 5416SOL     OW16903   3.686   3.916   1.227
 5416SOL    HW116904   3.682   3.826   1.271
 5416SOL    HW216905   3.689   3.905   1.128
 5417SOL     OW16906   2.290   4.148   0.520
 5417SOL    HW116907   2.320   4.076   0.458
 5417SOL    HW216908   2.251   4.108   0.603
 5418SOL     OW16909   2.179   4.271   1.280
 5418SOL    HW116910   2.217   4.212   1.352
 5418SOL    HW216911   2.219   4.245   1.192
 5419SOL     OW16912   3.286   3.938   1.112
 5419SOL    HW116913   3.338   3.873   1.167
 5419SOL    HW216914   3.237   4.001   1.173
 5420SOL     OW16915   2.863   3.758   1.154
 5420SOL    HW116916   2.800   3.686   1.123
 5420SOL    HW216917   2.956   3.722   1.154
 5421SOL     OW16918   3.214   3.776   0.168
 5421SOL    HW116919   3.249   3.735   0.084
 5421SOL    HW216920   3.124   3.738   0.188
 5422SOL     OW16921   3.162   4.177   0.691
 5422SOL    HW116922   3.103   4.257   0.695
 5422SOL    HW216923   3.177   4.142   0.784
 5423SOL     OW16924   3.455   3.945   0.882
 5423SOL    HW116925   3.371   3.944   0.936
 5423SOL    HW216926   3.457   4.028   0.826
 5424SOL     OW16927   2.092   4.352   1.975
 5424SOL    HW116928   1.999   4.350   2.012
 5424SOL    HW216929   2.093   4.313   1.883
 5425SOL     OW16930   2.087   3.999   2.858
 5425SOL    HW116931   2.122   3.982   2.950
 5425SOL    HW216932   1.999   3.954   2.846
 5426SOL     OW16933   1.881   4.092   2.509
 5426SOL    HW116934   1.799   4.135   2.548
 5426SOL    HW216935   1.853   4.019   2.446
 5427SOL     OW16936   3.617   4.331   2.093
 5427SOL    HW116937   3.605   4.318   1.994
 5427SOL    HW216938   3.587   4.250   2.142
 5428SOL     OW16939   2.547   4.736   2.527
 5428SOL    HW116940   2.616   4.720   2.597
 5428SOL    HW216941   2.474   4.793   2.565
 5429SOL     OW16942   2.300   4.116   3.361
 5429SOL    HW116943   2.382   4.060   3.370
 5429SOL    HW216944   2.219   4.058   3.365
 5430SOL     OW16945   3.465   4.171   2.599
 5430SOL    HW116946   3.391   4.217   2.549
 5430SOL    HW216947   3.516   4.239   2.652
 5431SOL     OW16948   3.456   3.838   3.342
 5431SOL    HW116949   3.438   3.905   3.270
 5431SOL    HW216950   3.453   3.884   3.431
 5432SOL     OW16951   1.984   4.367   2.425
 5432SOL    HW116952   1.939   4.279   2.442
 5432SOL    HW216953   1.983   4.421   2.509
 5433SOL     OW16954   1.975   4.461   3.459
 5433SOL    HW116955   2.063   4.448   3.504
 5433SOL    HW216956   1.962   4.558   3.437
 5434SOL     OW16957   2.671   3.728   2.364
 5434SOL    HW116958   2.711   3.819   2.355
 5434SOL    HW216959   2.571   3.736   2.370
 5435SOL     OW16960   2.179   3.975   3.663
 5435SOL    HW116961   2.250   4.046   3.669
 5435SOL    HW216962   2.091   4.014   3.691
 5436SOL     OW16963   3.143   4.069   2.806
 5436SOL    HW116964   3.057   4.019   2.793
 5436SOL    HW216965   3.205   4.015   2.862
 5437SOL     OW16966   2.669   4.329   3.327
 5437SOL    HW116967   2.622   4.326   3.416
 5437SOL    HW216968   2.618   4.274   3.261
 5438SOL     OW16969   3.256   4.193   3.536
 5438SOL    HW116970   3.236   4.236   3.624
 5438SOL    HW216971   3.334   4.131   3.545
 5439SOL     OW16972   2.853   4.134   3.104
 5439SOL    HW116973   2.776   4.168   3.158
 5439SOL    HW216974   2.819   4.083   3.025
 5440SOL     OW16975   2.903   4.425   2.291
 5440SOL    HW116976   2.929   4.421   2.387
 5440SOL    HW216977   2.818   4.374   2.277
 5441SOL     OW16978   2.727   4.072   2.057
 5441SOL    HW116979   2.786   4.135   2.008
 5441SOL    HW216980   2.746   3.978   2.028
 5442SOL     OW16981   3.581   4.309   3.693
 5442SOL    HW116982   3.555   4.398   3.657
 5442SOL    HW216983   3.579   4.241   3.620
 5443SOL     OW16984   2.412   3.920   2.747
 5443SOL    HW116985   2.407   3.915   2.847
 5443SOL    HW216986   2.414   4.016   2.718
 5444SOL     OW16987   3.320   4.459   2.590
 5444SOL    HW116988   3.315   4.394   2.665
 5444SOL    HW216989   3.400   4.518   2.603
 5445SOL     OW16990   2.064   4.009   3.360
 5445SOL    HW116991   1.984   4.069   3.347
 5445SOL    HW216992   2.054   3.960   3.446
 5446SOL     OW16993   3.262   3.831   2.288
 5446SOL    HW116994   3.238   3.794   2.198
 5446SOL    HW216995   3.361   3.847   2.292
 5447SOL     OW16996   2.244   4.424   2.342
 5447SOL    HW116997   2.289   4.334   2.339
 5447SOL    HW216998   2.150   4.413   2.375
 5448SOL     OW16999   3.409   3.946   3.591
 5448SOL    HW117000   3.404   3.983   3.683
 5448SOL    HW217001   3.337   3.877   3.579
 5449SOL     OW17002   2.476   3.846   1.979
 5449SOL    HW117003   2.574   3.824   1.986
 5449SOL    HW217004   2.445   3.829   1.886
 5450SOL     OW17005   2.643   3.988   3.611
 5450SOL    HW117006   2.710   3.927   3.654
 5450SOL    HW217007   2.570   4.007   3.676
 5451SOL     OW17008   3.213   4.314   3.295
 5451SOL    HW117009   3.241   4.271   3.380
 5451SOL    HW217010   3.238   4.410   3.296
 5452SOL     OW17011   2.784   4.227   2.761
 5452SOL    HW117012   2.759   4.218   2.665
 5452SOL    HW217013   2.832   4.145   2.792
 5453SOL     OW17014   2.401   3.788   2.374
 5453SOL    HW117015   2.320   3.789   2.432
 5453SOL    HW217016   2.404   3.871   2.319
 5454SOL     OW17017   2.159   3.759   2.033
 5454SOL    HW117018   2.208   3.843   2.012
 5454SOL    HW217019   2.221   3.694   2.078
 5455SOL     OW17020   2.797   3.960   2.342
 5455SOL    HW117021   2.749   4.001   2.264
 5455SOL    HW217022   2.896   3.958   2.323
 5456SOL     OW17023   2.938   4.407   3.326
 5456SOL    HW117024   2.858   4.346   3.329
 5456SOL    HW217025   3.019   4.354   3.302
 5457SOL     OW17026   2.894   4.273   1.878
 5457SOL    HW117027   2.853   4.355   1.839
 5457SOL    HW217028   2.958   4.299   1.951
 5458SOL     OW17029   1.940   4.280   3.248
 5458SOL    HW117030   2.032   4.279   3.207
 5458SOL    HW217031   1.934   4.354   3.315
 5459SOL     OW17032   2.423   3.946   3.009
 5459SOL    HW117033   2.461   3.862   3.046
 5459SOL    HW217034   2.335   3.965   3.053
 5460SOL     OW17035   2.728   4.178   2.504
 5460SOL    HW117036   2.696   4.250   2.442
 5460SOL    HW217037   2.752   4.097   2.451
 5461SOL     OW17038   2.879   3.763   2.615
 5461SOL    HW117039   2.807   3.768   2.546
 5461SOL    HW217040   2.855   3.694   2.684
 5462SOL     OW17041   3.328   4.314   2.854
 5462SOL    HW117042   3.298   4.219   2.861
 5462SOL    HW217043   3.401   4.330   2.920
 5463SOL     OW17044   3.252   4.299   1.940
 5463SOL    HW117045   3.198   4.278   2.021
 5463SOL    HW217046   3.343   4.258   1.949
 5464SOL     OW17047   2.389   3.980   2.190
 5464SOL    HW117048   2.416   3.921   2.115
 5464SOL    HW217049   2.389   4.075   2.159
 5465SOL     OW17050   2.777   3.813   3.264
 5465SOL    HW117051   2.802   3.793   3.169
 5465SOL    HW217052   2.849   3.869   3.306
 5466SOL     OW17053   2.272   4.537   3.113
 5466SOL    HW117054   2.358   4.549   3.163
 5466SOL    HW217055   2.230   4.450   3.140
 5467SOL     OW17056   3.136   4.110   3.124
 5467SOL    HW117057   3.157   4.184   3.188
 5467SOL    HW217058   3.047   4.127   3.081
 5468SOL     OW17059   2.428   4.261   2.727
 5468SOL    HW117060   2.440   4.327   2.653
 5468SOL    HW217061   2.474   4.295   2.810
 5469SOL     OW17062   3.444   4.363   2.334
 5469SOL    HW117063   3.413   4.424   2.407
 5469SOL    HW217064   3.494   4.415   2.265
 5470SOL     OW17065   2.875   3.829   3.632
 5470SOL    HW117066   2.881   3.914   3.580
 5470SOL    HW217067   2.907   3.753   3.575
 5471SOL     OW17068   2.366   3.774   3.602
 5471SOL    HW117069   2.324   3.717   3.532
 5471SOL    HW217070   2.300   3.843   3.634
 5472SOL     OW17071   3.071   4.249   2.137
 5472SOL    HW117072   3.084   4.165   2.191
 5472SOL    HW217073   3.042   4.323   2.197
 5473SOL     OW17074   2.169   3.937   3.093
 5473SOL    HW117075   2.146   3.974   3.183
 5473SOL    HW217076   2.139   3.842   3.087
 5474SOL     OW17077   2.594   4.358   2.926
 5474SOL    HW117078   2.653   4.332   2.850
 5474SOL    HW217079   2.566   4.454   2.915
 5475SOL     OW17080   3.590   4.659   3.716
 5475SOL    HW117081   3.544   4.652   3.627
 5475SOL    HW217082   3.528   4.703   3.782
 5476SOL     OW17083   2.169   3.787   2.480
 5476SOL    HW117084   2.158   3.881   2.513
 5476SOL    HW217085   2.164   3.724   2.557
 5477SOL     OW17086   3.484   4.091   2.236
 5477SOL    HW117087   3.486   4.015   2.300
 5477SOL    HW217088   3.436   4.168   2.276
 5478SOL     OW17089   3.402   3.998   1.987
 5478SOL    HW117090   3.341   3.923   2.010
 5478SOL    HW217091   3.424   4.050   2.070
 5479SOL     OW17092   2.181   4.534   2.811
 5479SOL    HW117093   2.274   4.570   2.816
 5479SOL    HW217094   2.175   4.449   2.863
 5480SOL     OW17095   2.201   4.233   2.868
 5480SOL    HW117096   2.149   4.150   2.851
 5480SOL    HW217097   2.278   4.238   2.804
 5481SOL     OW17098   3.000   4.104   3.540
 5481SOL    HW117099   2.955   4.167   3.604
 5481SOL    HW217100   3.093   4.135   3.523
 5482SOL     OW17101   3.022   3.931   3.339
 5482SOL    HW117102   3.022   3.995   3.416
 5482SOL    HW217103   3.050   3.979   3.256
 5483SOL     OW17104   1.902   4.268   2.976
 5483SOL    HW117105   1.987   4.235   2.935
 5483SOL    HW217106   1.915   4.283   3.074
 5484SOL     OW17107   2.051   4.244   3.584
 5484SOL    HW117108   2.110   4.204   3.514
 5484SOL    HW217109   1.993   4.315   3.543
 5485SOL     OW17110   2.677   4.296   2.187
 5485SOL    HW117111   2.684   4.207   2.141
 5485SOL    HW217112   2.583   4.330   2.179
 5486SOL     OW17113   3.519   4.328   3.068
 5486SOL    HW117114   3.481   4.259   3.130
 5486SOL    HW217115   3.601   4.292   3.024
 5487SOL     OW17116   2.533   4.188   3.131
 5487SOL    HW117117   2.499   4.099   3.101
 5487SOL    HW217118   2.559   4.242   3.051
 5488SOL     OW17119   2.335   4.224   2.053
 5488SOL    HW117120   2.396   4.304   2.057
 5488SOL    HW217121   2.240   4.255   2.060
 5489SOL     OW17122   3.588   3.859   2.385
 5489SOL    HW117123   3.661   3.842   2.318
 5489SOL    HW217124   3.557   3.772   2.423
 5490SOL     OW17125   3.142   4.651   2.534
 5490SOL    HW117126   3.202   4.570   2.536
 5490SOL    HW217127   3.182   4.720   2.474
 5491SOL     OW17128   3.703   3.899   2.825
 5491SOL    HW117129   3.742   3.814   2.789
 5491SOL    HW217130   3.605   3.901   2.806
 5492SOL     OW17131   2.125   4.050   2.582
 5492SOL    HW117132   2.046   4.101   2.548
 5492SOL    HW217133   2.116   4.035   2.680
 5493SOL     OW17134   2.778   4.634   2.153
 5493SOL    HW117135   2.841   4.672   2.085
 5493SOL    HW217136   2.818   4.551   2.192
 5494SOL     OW17137   2.901   4.822   2.558
 5494SOL    HW117138   2.831   4.775   2.612
 5494SOL    HW217139   2.960   4.754   2.515
 5495SOL     OW17140   2.876   3.960   2.833
 5495SOL    HW117141   2.868   3.924   2.740
 5495SOL    HW217142   2.874   3.884   2.898
 5496SOL     OW17143   3.571   4.109   3.243
 5496SOL    HW117144   3.644   4.178   3.247
 5496SOL    HW217145   3.599   4.034   3.184
 5497SOL     OW17146   2.534   3.927   3.351
 5497SOL    HW117147   2.624   3.911   3.311
 5497SOL    HW217148   2.542   3.932   3.450
 5498SOL     OW17149   1.937   4.069   1.895
 5498SOL    HW117150   1.845   4.041   1.866
 5498SOL    HW217151   1.968   4.146   1.839
 5499SOL     OW17152   1.934   3.890   2.180
 5499SOL    HW117153   1.917   3.973   2.126
 5499SOL    HW217154   2.024   3.853   2.158
 5500SOL     OW17155   2.578   4.289   3.570
 5500SOL    HW117156   2.597   4.354   3.644
 5500SOL    HW217157   2.638   4.209   3.579
 5501SOL     OW17158   3.087   4.049   2.311
 5501SOL    HW117159   3.152   3.975   2.300
 5501SOL    HW217160   3.107   4.099   2.395
 5502SOL     OW17161   3.639   4.066   3.504
 5502SOL    HW117162   3.622   4.097   3.410
 5502SOL    HW217163   3.555   4.029   3.542
 5503SOL     OW17164   2.945   4.708   1.949
 5503SOL    HW117165   2.922   4.761   1.867
 5503SOL    HW217166   3.026   4.652   1.930
 5504SOL     OW17167   3.686   3.916   3.089
 5504SOL    HW117168   3.682   3.826   3.133
 5504SOL    HW217169   3.689   3.905   2.990
 5505SOL     OW17170   2.290   4.148   2.382
 5505SOL    HW117171   2.320   4.076   2.320
 5505SOL    HW217172   2.251   4.108   2.465
 5506SOL     OW17173   2.179   4.271   3.142
 5506SOL    HW117174   2.217   4.212   3.214
 5506SOL    HW217175   2.219   4.245   3.054
 5507SOL     OW17176   3.286   3.938   2.974
 5507SOL    HW117177   3.338   3.873   3.029
 5507SOL    HW217178   3.237   4.001   3.035
 5508SOL     OW17179   2.863   3.758   3.016
 5508SOL    HW117180   2.800   3.686   2.985
 5508SOL    HW217181   2.956   3.722   3.016
 5509SOL     OW17182   3.214   3.776   2.030
 5509SOL    HW117183   3.249   3.735   1.946
 5509SOL    HW217184   3.124   3.738   2.050
 5510SOL     OW17185   3.162   4.177   2.553
 5510SOL    HW117186   3.103   4.257   2.557
 5510SOL    HW217187   3.177   4.142   2.646
 5511SOL     OW17188   3.455   3.945   2.744
 5511SOL    HW117189   3.371   3.944   2.798
 5511SOL    HW217190   3.457   4.028   2.688
 5512SOL     OW17191   2.092   4.352   3.837
 5512SOL    HW117192   1.999   4.350   3.874
 5512SOL    HW217193   2.093   4.313   3.745
 5513SOL     OW17194   2.087   3.999   4.720
 5513SOL    HW117195   2.122   3.982   4.812
 5513SOL    HW217196   1.999   3.954   4.708
 5514SOL     OW17197   1.881   4.092   4.371
 5514SOL    HW117198   1.799   4.135   4.410
 5514SOL    HW217199   1.853   4.019   4.308
 5515SOL     OW17200   3.617   4.331   3.955
 5515SOL    HW117201   3.605   4.318   3.856
 5515SOL    HW217202   3.587   4.250   4.004
 5516SOL     OW17203   2.547   4.736   4.389
 5516SOL    HW117204   2.616   4.720   4.459
 5516SOL    HW217205   2.474   4.793   4.427
 5517SOL     OW17206   2.300   4.116   5.223
 5517SOL    HW117207   2.382   4.060   5.232
 5517SOL    HW217208   2.219   4.058   5.227
 5518SOL     OW17209   3.465   4.171   4.461
 5518SOL    HW117210   3.391   4.217   4.411
 5518SOL    HW217211   3.516   4.239   4.514
 5519SOL     OW17212   3.456   3.838   5.204
 5519SOL    HW117213   3.438   3.905   5.132
 5519SOL    HW217214   3.453   3.884   5.293
 5520SOL     OW17215   1.984   4.367   4.287
 5520SOL    HW117216   1.939   4.279   4.304
 5520SOL    HW217217   1.983   4.421   4.371
 5521SOL     OW17218   1.975   4.461   5.321
 5521SOL    HW117219   2.063   4.448   5.366
 5521SOL    HW217220   1.962   4.558   5.299
 5522SOL     OW17221   2.671   3.728   4.226
 5522SOL    HW117222   2.711   3.819   4.217
 5522SOL    HW217223   2.571   3.736   4.232
 5523SOL     OW17224   2.179   3.975   5.525
 5523SOL    HW117225   2.250   4.046   5.531
 5523SOL    HW217226   2.091   4.014   5.553
 5524SOL     OW17227   3.143   4.069   4.668
 5524SOL    HW117228   3.057   4.019   4.655
 5524SOL    HW217229   3.205   4.015   4.724
 5525SOL     OW17230   2.669   4.329   5.189
 5525SOL    HW117231   2.622   4.326   5.278
 5525SOL    HW217232   2.618   4.274   5.123
 5526SOL     OW17233   3.256   4.193   5.398
 5526SOL    HW117234   3.236   4.236   5.486
 5526SOL    HW217235   3.334   4.131   5.407
 5527SOL     OW17236   2.853   4.134   4.966
 5527SOL    HW117237   2.776   4.168   5.020
 5527SOL    HW217238   2.819   4.083   4.887
 5528SOL     OW17239   2.903   4.425   4.153
 5528SOL    HW117240   2.929   4.421   4.249
 5528SOL    HW217241   2.818   4.374   4.139
 5529SOL     OW17242   2.727   4.072   3.919
 5529SOL    HW117243   2.786   4.135   3.870
 5529SOL    HW217244   2.746   3.978   3.890
 5530SOL     OW17245   3.581   4.309   5.555
 5530SOL    HW117246   3.555   4.398   5.519
 5530SOL    HW217247   3.579   4.241   5.482
 5531SOL     OW17248   2.412   3.920   4.609
 5531SOL    HW117249   2.407   3.915   4.709
 5531SOL    HW217250   2.414   4.016   4.580
 5532SOL     OW17251   3.320   4.459   4.452
 5532SOL    HW117252   3.315   4.394   4.527
 5532SOL    HW217253   3.400   4.518   4.465
 5533SOL     OW17254   2.064   4.009   5.222
 5533SOL    HW117255   1.984   4.069   5.209
 5533SOL    HW217256   2.054   3.960   5.308
 5534SOL     OW17257   3.262   3.831   4.150
 5534SOL    HW117258   3.238   3.794   4.060
 5534SOL    HW217259   3.361   3.847   4.154
 5535SOL     OW17260   2.244   4.424   4.204
 5535SOL    HW117261   2.289   4.334   4.201
 5535SOL    HW217262   2.150   4.413   4.237
 5536SOL     OW17263   3.409   3.946   5.453
 5536SOL    HW117264   3.404   3.983   5.545
 5536SOL    HW217265   3.337   3.877   5.441
 5537SOL     OW17266   2.476   3.846   3.841
 5537SOL    HW117267   2.574   3.824   3.848
 5537SOL    HW217268   2.445   3.829   3.748
 5538SOL     OW17269   2.643   3.988   5.473
 5538SOL    HW117270   2.710   3.927   5.516
 5538SOL    HW217271   2.570   4.007   5.538
 5539SOL     OW17272   3.213   4.314   5.157
 5539SOL    HW117273   3.241   4.271   5.242
 5539SOL    HW217274   3.238   4.410   5.158
 5540SOL     OW17275   2.784   4.227   4.623
 5540SOL    HW117276   2.759   4.218   4.527
 5540SOL    HW217277   2.832   4.145   4.654
 5541SOL     OW17278   2.401   3.788   4.236
 5541SOL    HW117279   2.320   3.789   4.294
 5541SOL    HW217280   2.404   3.871   4.181
 5542SOL     OW17281   2.159   3.759   3.895
 5542SOL    HW117282   2.208   3.843   3.874
 5542SOL    HW217283   2.221   3.694   3.940
 5543SOL     OW17284   2.797   3.960   4.204
 5543SOL    HW117285   2.749   4.001   4.126
 5543SOL    HW217286   2.896   3.958   4.185
 5544SOL     OW17287   2.938   4.407   5.188
 5544SOL    HW117288   2.858   4.346   5.191
 5544SOL    HW217289   3.019   4.354   5.164
 5545SOL     OW17290   2.894   4.273   3.740
 5545SOL    HW117291   2.853   4.355   3.701
 5545SOL    HW217292   2.958   4.299   3.813
 5546SOL     OW17293   1.940   4.280   5.110
 5546SOL    HW117294   2.032   4.279   5.069
 5546SOL    HW217295   1.934   4.354   5.177
 5547SOL     OW17296   2.423   3.946   4.871
 5547SOL    HW117297   2.461   3.862   4.908
 5547SOL    HW217298   2.335   3.965   4.915
 5548SOL     OW17299   2.728   4.178   4.366
 5548SOL    HW117300   2.696   4.250   4.304
 5548SOL    HW217301   2.752   4.097   4.313
 5549SOL     OW17302   2.879   3.763   4.477
 5549SOL    HW117303   2.807   3.768   4.408
 5549SOL    HW217304   2.855   3.694   4.546
 5550SOL     OW17305   3.328   4.314   4.716
 5550SOL    HW117306   3.298   4.219   4.723
 5550SOL    HW217307   3.401   4.330   4.782
 5551SOL     OW17308   3.252   4.299   3.802
 5551SOL    HW117309   3.198   4.278   3.883
 5551SOL    HW217310   3.343   4.258   3.811
 5552SOL     OW17311   2.389   3.980   4.052
 5552SOL    HW117312   2.416   3.921   3.977
 5552SOL    HW217313   2.389   4.075   4.021
 5553SOL     OW17314   2.777   3.813   5.126
 5553SOL    HW117315   2.802   3.793   5.031
 5553SOL    HW217316   2.849   3.869   5.168
 5554SOL     OW17317   2.272   4.537   4.975
 5554SOL    HW117318   2.358   4.549   5.025
 5554SOL    HW217319   2.230   4.450   5.002
 5555SOL     OW17320   3.136   4.110   4.986
 5555SOL    HW117321   3.157   4.184   5.050
 5555SOL    HW217322   3.047   4.127   4.943
 5556SOL     OW17323   2.428   4.261   4.589
 5556SOL    HW117324   2.440   4.327   4.515
 5556SOL    HW217325   2.474   4.295   4.672
 5557SOL     OW17326   3.444   4.363   4.196
 5557SOL    HW117327   3.413   4.424   4.269
 5557SOL    HW217328   3.494   4.415   4.127
 5558SOL     OW17329   2.875   3.829   5.494
 5558SOL    HW117330   2.881   3.914   5.442
 5558SOL    HW217331   2.907   3.753   5.437
 5559SOL     OW17332   2.366   3.774   5.464
 5559SOL    HW117333   2.324   3.717   5.394
 5559SOL    HW217334   2.300   3.843   5.496
 5560SOL     OW17335   3.071   4.249   3.999
 5560SOL    HW117336   3.084   4.165   4.053
 5560SOL    HW217337   3.042   4.323   4.059
 5561SOL     OW17338   2.169   3.937   4.955
 5561SOL    HW117339   2.146   3.974   5.045
 5561SOL    HW217340   2.139   3.842   4.949
 5562SOL     OW17341   2.594   4.358   4.788
 5562SOL    HW117342   2.653   4.332   4.712
 5562SOL    HW217343   2.566   4.454   4.777
 5563SOL     OW17344   3.590   4.659   5.578
 5563SOL    HW117345   3.544   4.652   5.489
 5563SOL    HW217346   3.528   4.703   5.644
 5564SOL     OW17347   2.169   3.787   4.342
 5564SOL    HW117348   2.158   3.881   4.375
 5564SOL    HW217349   2.164   3.724   4.419
 5565SOL     OW17350   3.484   4.091   4.098
 5565SOL    HW117351   3.486   4.015   4.162
 5565SOL    HW217352   3.436   4.168   4.138
 5566SOL     OW17353   3.402   3.998   3.849
 5566SOL    HW117354   3.341   3.923   3.872
 5566SOL    HW217355   3.424   4.050   3.932
 5567SOL     OW17356   2.181   4.534   4.673
 5567SOL    HW117357   2.274   4.570   4.678
 5567SOL    HW217358   2.175   4.449   4.725
 5568SOL     OW17359   2.201   4.233   4.730
 5568SOL    HW117360   2.149   4.150   4.713
 5568SOL    HW217361   2.278   4.238   4.666
 5569SOL     OW17362   3.000   4.104   5.402
 5569SOL    HW117363   2.955   4.167   5.466
 5569SOL    HW217364   3.093   4.135   5.385
 5570SOL     OW17365   3.022   3.931   5.201
 5570SOL    HW117366   3.022   3.995   5.278
 5570SOL    HW217367   3.050   3.979   5.118
 5571SOL     OW17368   1.902   4.268   4.838
 5571SOL    HW117369   1.987   4.235   4.797
 5571SOL    HW217370   1.915   4.283   4.936
 5572SOL     OW17371   2.051   4.244   5.446
 5572SOL    HW117372   2.110   4.204   5.376
 5572SOL    HW217373   1.993   4.315   5.405
 5573SOL     OW17374   2.677   4.296   4.049
 5573SOL    HW117375   2.684   4.207   4.003
 5573SOL    HW217376   2.583   4.330   4.041
 5574SOL     OW17377   3.519   4.328   4.930
 5574SOL    HW117378   3.481   4.259   4.992
 5574SOL    HW217379   3.601   4.292   4.886
 5575SOL     OW17380   2.533   4.188   4.993
 5575SOL    HW117381   2.499   4.099   4.963
 5575SOL    HW217382   2.559   4.242   4.913
 5576SOL     OW17383   2.335   4.224   3.915
 5576SOL    HW117384   2.396   4.304   3.919
 5576SOL    HW217385   2.240   4.255   3.922
 5577SOL     OW17386   3.588   3.859   4.247
 5577SOL    HW117387   3.661   3.842   4.180
 5577SOL    HW217388   3.557   3.772   4.285
 5578SOL     OW17389   3.142   4.651   4.396
 5578SOL    HW117390   3.202   4.570   4.398
 5578SOL    HW217391   3.182   4.720   4.336
 5579SOL     OW17392   3.703   3.899   4.687
 5579SOL    HW117393   3.742   3.814   4.651
 5579SOL    HW217394   3.605   3.901   4.668
 5580SOL     OW17395   2.125   4.050   4.444
 5580SOL    HW117396   2.046   4.101   4.410
 5580SOL    HW217397   2.116   4.035   4.542
 5581SOL     OW17398   2.778   4.634   4.015
 5581SOL    HW117399   2.841   4.672   3.947
 5581SOL    HW217400   2.818   4.551   4.054
 5582SOL     OW17401   2.901   4.822   4.420
 5582SOL    HW117402   2.831   4.775   4.474
 5582SOL    HW217403   2.960   4.754   4.377
 5583SOL     OW17404   2.876   3.960   4.695
 5583SOL    HW117405   2.868   3.924   4.602
 5583SOL    HW217406   2.874   3.884   4.760
 5584SOL     OW17407   3.571   4.109   5.105
 5584SOL    HW117408   3.644   4.178   5.109
 5584SOL    HW217409   3.599   4.034   5.046
 5585SOL     OW17410   2.534   3.927   5.213
 5585SOL    HW117411   2.624   3.911   5.173
 5585SOL    HW217412   2.542   3.932   5.312
 5586SOL     OW17413   1.937   4.069   3.757
 5586SOL    HW117414   1.845   4.041   3.728
 5586SOL    HW217415   1.968   4.146   3.701
 5587SOL     OW17416   1.934   3.890   4.042
 5587SOL    HW117417   1.917   3.973   3.988
 5587SOL    HW217418   2.024   3.853   4.020
 5588SOL     OW17419   2.578   4.289   5.432
 5588SOL    HW117420   2.597   4.354   5.506
 5588SOL    HW217421   2.638   4.209   5.441
 5589SOL     OW17422   3.087   4.049   4.173
 5589SOL    HW117423   3.152   3.975   4.162
 5589SOL    HW217424   3.107   4.099   4.257
 5590SOL     OW17425   3.639   4.066   5.366
 5590SOL    HW117426   3.622   4.097   5.272
 5590SOL    HW217427   3.555   4.029   5.404
 5591SOL     OW17428   2.945   4.708   3.811
 5591SOL    HW117429   2.922   4.761   3.729
 5591SOL    HW217430   3.026   4.652   3.792
 5592SOL     OW17431   3.686   3.916   4.951
 5592SOL    HW117432   3.682   3.826   4.995
 5592SOL    HW217433   3.689   3.905   4.852
 5593SOL     OW17434   2.290   4.148   4.244
 5593SOL    HW117435   2.320   4.076   4.182
 5593SOL    HW217436   2.251   4.108   4.327
 5594SOL     OW17437   2.179   4.271   5.004
 5594SOL    HW117438   2.217   4.212   5.076
 5594SOL    HW217439   2.219   4.245   4.916
 5595SOL     OW17440   3.286   3.938   4.836
 5595SOL    HW117441   3.338   3.873   4.891
 5595SOL    HW217442   3.237   4.001   4.897
 5596SOL     OW17443   2.863   3.758   4.878
 5596SOL    HW117444   2.800   3.686   4.847
 5596SOL    HW217445   2.956   3.722   4.878
 5597SOL     OW17446   3.214   3.776   3.892
 5597SOL    HW117447   3.249   3.735   3.808
 5597SOL    HW217448   3.124   3.738   3.912
 5598SOL     OW17449   3.162   4.177   4.415
 5598SOL    HW117450   3.103   4.257   4.419
 5598SOL    HW217451   3.177   4.142   4.508
 5599SOL     OW17452   3.455   3.945   4.606
 5599SOL    HW117453   3.371   3.944   4.660
 5599SOL    HW217454   3.457   4.028   4.550
 5600SOL     OW17455   2.092   4.352   5.699
 5600SOL    HW117456   1.999   4.350   5.736
 5600SOL    HW217457   2.093   4.313   5.607
 5601SOL     OW17458   2.087   3.999   6.582
 5601SOL    HW117459   2.122   3.982   6.674
 5601SOL    HW217460   1.999   3.954   6.570
 5602SOL     OW17461   1.881   4.092   6.233
 5602SOL    HW117462   1.799   4.135   6.272
 5602SOL    HW217463   1.853   4.019   6.170
 5603SOL     OW17464   3.617   4.331   5.817
 5603SOL    HW117465   3.605   4.318   5.718
 5603SOL    HW217466   3.587   4.250   5.866
 5604SOL     OW17467   2.547   4.736   6.251
 5604SOL    HW117468   2.616   4.720   6.321
 5604SOL    HW217469   2.474   4.793   6.289
 5605SOL     OW17470   2.300   4.116   7.085
 5605SOL    HW117471   2.382   4.060   7.094
 5605SOL    HW217472   2.219   4.058   7.089
 5606SOL     OW17473   3.465   4.171   6.323
 5606SOL    HW117474   3.391   4.217   6.273
 5606SOL    HW217475   3.516   4.239   6.376
 5607SOL     OW17476   3.456   3.838   7.066
 5607SOL    HW117477   3.438   3.905   6.994
 5607SOL    HW217478   3.453   3.884   7.155
 5608SOL     OW17479   1.984   4.367   6.149
 5608SOL    HW117480   1.939   4.279   6.166
 5608SOL    HW217481   1.983   4.421   6.233
 5609SOL     OW17482   1.975   4.461   7.183
 5609SOL    HW117483   2.063   4.448   7.228
 5609SOL    HW217484   1.962   4.558   7.161
 5610SOL     OW17485   2.671   3.728   6.088
 5610SOL    HW117486   2.711   3.819   6.079
 5610SOL    HW217487   2.571   3.736   6.094
 5611SOL     OW17488   2.179   3.975   7.387
 5611SOL    HW117489   2.250   4.046   7.393
 5611SOL    HW217490   2.091   4.014   7.415
 5612SOL     OW17491   3.143   4.069   6.530
 5612SOL    HW117492   3.057   4.019   6.517
 5612SOL    HW217493   3.205   4.015   6.586
 5613SOL     OW17494   2.669   4.329   7.051
 5613SOL    HW117495   2.622   4.326   7.140
 5613SOL    HW217496   2.618   4.274   6.985
 5614SOL     OW17497   3.256   4.193   7.260
 5614SOL    HW117498   3.236   4.236   7.348
 5614SOL    HW217499   3.334   4.131   7.269
 5615SOL     OW17500   2.853   4.134   6.828
 5615SOL    HW117501   2.776   4.168   6.882
 5615SOL    HW217502   2.819   4.083   6.749
 5616SOL     OW17503   2.903   4.425   6.015
 5616SOL    HW117504   2.929   4.421   6.111
 5616SOL    HW217505   2.818   4.374   6.001
 5617SOL     OW17506   2.727   4.072   5.781
 5617SOL    HW117507   2.786   4.135   5.732
 5617SOL    HW217508   2.746   3.978   5.752
 5618SOL     OW17509   3.581   4.309   7.417
 5618SOL    HW117510   3.555   4.398   7.381
 5618SOL    HW217511   3.579   4.241   7.344
 5619SOL     OW17512   2.412   3.920   6.471
 5619SOL    HW117513   2.407   3.915   6.571
 5619SOL    HW217514   2.414   4.016   6.442
 5620SOL     OW17515   3.320   4.459   6.314
 5620SOL    HW117516   3.315   4.394   6.389
 5620SOL    HW217517   3.400   4.518   6.327
 5621SOL     OW17518   2.064   4.009   7.084
 5621SOL    HW117519   1.984   4.069   7.071
 5621SOL    HW217520   2.054   3.960   7.170
 5622SOL     OW17521   3.262   3.831   6.012
 5622SOL    HW117522   3.238   3.794   5.922
 5622SOL    HW217523   3.361   3.847   6.016
 5623SOL     OW17524   2.244   4.424   6.066
 5623SOL    HW117525   2.289   4.334   6.063
 5623SOL    HW217526   2.150   4.413   6.099
 5624SOL     OW17527   3.409   3.946   7.315
 5624SOL    HW117528   3.404   3.983   7.407
 5624SOL    HW217529   3.337   3.877   7.303
 5625SOL     OW17530   2.476   3.846   5.703
 5625SOL    HW117531   2.574   3.824   5.710
 5625SOL    HW217532   2.445   3.829   5.610
 5626SOL     OW17533   2.643   3.988   7.335
 5626SOL    HW117534   2.710   3.927   7.378
 5626SOL    HW217535   2.570   4.007   7.400
 5627SOL     OW17536   3.213   4.314   7.019
 5627SOL    HW117537   3.241   4.271   7.104
 5627SOL    HW217538   3.238   4.410   7.020
 5628SOL     OW17539   2.784   4.227   6.485
 5628SOL    HW117540   2.759   4.218   6.389
 5628SOL    HW217541   2.832   4.145   6.516
 5629SOL     OW17542   2.401   3.788   6.098
 5629SOL    HW117543   2.320   3.789   6.156
 5629SOL    HW217544   2.404   3.871   6.043
 5630SOL     OW17545   2.159   3.759   5.757
 5630SOL    HW117546   2.208   3.843   5.736
 5630SOL    HW217547   2.221   3.694   5.802
 5631SOL     OW17548   2.797   3.960   6.066
 5631SOL    HW117549   2.749   4.001   5.988
 5631SOL    HW217550   2.896   3.958   6.047
 5632SOL     OW17551   2.938   4.407   7.050
 5632SOL    HW117552   2.858   4.346   7.053
 5632SOL    HW217553   3.019   4.354   7.026
 5633SOL     OW17554   2.894   4.273   5.602
 5633SOL    HW117555   2.853   4.355   5.563
 5633SOL    HW217556   2.958   4.299   5.675
 5634SOL     OW17557   1.940   4.280   6.972
 5634SOL    HW117558   2.032   4.279   6.931
 5634SOL    HW217559   1.934   4.354   7.039
 5635SOL     OW17560   2.423   3.946   6.733
 5635SOL    HW117561   2.461   3.862   6.770
 5635SOL    HW217562   2.335   3.965   6.777
 5636SOL     OW17563   2.728   4.178   6.228
 5636SOL    HW117564   2.696   4.250   6.166
 5636SOL    HW217565   2.752   4.097   6.175
 5637SOL     OW17566   2.879   3.763   6.339
 5637SOL    HW117567   2.807   3.768   6.270
 5637SOL    HW217568   2.855   3.694   6.408
 5638SOL     OW17569   3.328   4.314   6.578
 5638SOL    HW117570   3.298   4.219   6.585
 5638SOL    HW217571   3.401   4.330   6.644
 5639SOL     OW17572   3.252   4.299   5.664
 5639SOL    HW117573   3.198   4.278   5.745
 5639SOL    HW217574   3.343   4.258   5.673
 5640SOL     OW17575   2.389   3.980   5.914
 5640SOL    HW117576   2.416   3.921   5.839
 5640SOL    HW217577   2.389   4.075   5.883
 5641SOL     OW17578   2.777   3.813   6.988
 5641SOL    HW117579   2.802   3.793   6.893
 5641SOL    HW217580   2.849   3.869   7.030
 5642SOL     OW17581   2.272   4.537   6.837
 5642SOL    HW117582   2.358   4.549   6.887
 5642SOL    HW217583   2.230   4.450   6.864
 5643SOL     OW17584   3.136   4.110   6.848
 5643SOL    HW117585   3.157   4.184   6.912
 5643SOL    HW217586   3.047   4.127   6.805
 5644SOL     OW17587   2.428   4.261   6.451
 5644SOL    HW117588   2.440   4.327   6.377
 5644SOL    HW217589   2.474   4.295   6.534
 5645SOL     OW17590   3.444   4.363   6.058
 5645SOL    HW117591   3.413   4.424   6.131
 5645SOL    HW217592   3.494   4.415   5.989
 5646SOL     OW17593   2.875   3.829   7.356
 5646SOL    HW117594   2.881   3.914   7.304
 5646SOL    HW217595   2.907   3.753   7.299
 5647SOL     OW17596   2.366   3.774   7.326
 5647SOL    HW117597   2.324   3.717   7.256
 5647SOL    HW217598   2.300   3.843   7.358
 5648SOL     OW17599   3.071   4.249   5.861
 5648SOL    HW117600   3.084   4.165   5.915
 5648SOL    HW217601   3.042   4.323   5.921
 5649SOL     OW17602   2.169   3.937   6.817
 5649SOL    HW117603   2.146   3.974   6.907
 5649SOL    HW217604   2.139   3.842   6.811
 5650SOL     OW17605   2.594   4.358   6.650
 5650SOL    HW117606   2.653   4.332   6.574
 5650SOL    HW217607   2.566   4.454   6.639
 5651SOL     OW17608   3.590   4.659   7.440
 5651SOL    HW117609   3.544   4.652   7.351
 5651SOL    HW217610   3.528   4.703   7.506
 5652SOL     OW17611   2.169   3.787   6.204
 5652SOL    HW117612   2.158   3.881   6.237
 5652SOL    HW217613   2.164   3.724   6.281
 5653SOL     OW17614   3.484   4.091   5.960
 5653SOL    HW117615   3.486   4.015   6.024
 5653SOL    HW217616   3.436   4.168   6.000
 5654SOL     OW17617   3.402   3.998   5.711
 5654SOL    HW117618   3.341   3.923   5.734
 5654SOL    HW217619   3.424   4.050   5.794
 5655SOL     OW17620   2.181   4.534   6.535
 5655SOL    HW117621   2.274   4.570   6.540
 5655SOL    HW217622   2.175   4.449   6.587
 5656SOL     OW17623   2.201   4.233   6.592
 5656SOL    HW117624   2.149   4.150   6.575
 5656SOL    HW217625   2.278   4.238   6.528
 5657SOL     OW17626   3.000   4.104   7.264
 5657SOL    HW117627   2.955   4.167   7.328
 5657SOL    HW217628   3.093   4.135   7.247
 5658SOL     OW17629   3.022   3.931   7.063
 5658SOL    HW117630   3.022   3.995   7.140
 5658SOL    HW217631   3.050   3.979   6.980
 5659SOL     OW17632   1.902   4.268   6.700
 5659SOL    HW117633   1.987   4.235   6.659
 5659SOL    HW217634   1.915   4.283   6.798
 5660SOL     OW17635   2.051   4.244   7.308
 5660SOL    HW117636   2.110   4.204   7.238
 5660SOL    HW217637   1.993   4.315   7.267
 5661SOL     OW17638   2.677   4.296   5.911
 5661SOL    HW117639   2.684   4.207   5.865
 5661SOL    HW217640   2.583   4.330   5.903
 5662SOL     OW17641   3.519   4.328   6.792
 5662SOL    HW117642   3.481   4.259   6.854
 5662SOL    HW217643   3.601   4.292   6.748
 5663SOL     OW17644   2.533   4.188   6.855
 5663SOL    HW117645   2.499   4.099   6.825
 5663SOL    HW217646   2.559   4.242   6.775
 5664SOL     OW17647   2.335   4.224   5.777
 5664SOL    HW117648   2.396   4.304   5.781
 5664SOL    HW217649   2.240   4.255   5.784
 5665SOL     OW17650   3.588   3.859   6.109
 5665SOL    HW117651   3.661   3.842   6.042
 5665SOL    HW217652   3.557   3.772   6.147
 5666SOL     OW17653   3.142   4.651   6.258
 5666SOL    HW117654   3.202   4.570   6.260
 5666SOL    HW217655   3.182   4.720   6.198
 5667SOL     OW17656   3.703   3.899   6.549
 5667SOL    HW117657   3.742   3.814   6.513
 5667SOL    HW217658   3.605   3.901   6.530
 5668SOL     OW17659   2.125   4.050   6.306
 5668SOL    HW117660   2.046   4.101   6.272
 5668SOL    HW217661   2.116   4.035   6.404
 5669SOL     OW17662   2.778   4.634   5.877
 5669SOL    HW117663   2.841   4.672   5.809
 5669SOL    HW217664   2.818   4.551   5.916
 5670SOL     OW17665   2.901   4.822   6.282
 5670SOL    HW117666   2.831   4.775   6.336
 5670SOL    HW217667   2.960   4.754   6.239
 5671SOL     OW17668   2.876   3.960   6.557
 5671SOL    HW117669   2.868   3.924   6.464
 5671SOL    HW217670   2.874   3.884   6.622
 5672SOL     OW17671   3.571   4.109   6.967
 5672SOL    HW117672   3.644   4.178   6.971
 5672SOL    HW217673   3.599   4.034   6.908
 5673SOL     OW17674   2.534   3.927   7.075
 5673SOL    HW117675   2.624   3.911   7.035
 5673SOL    HW217676   2.542   3.932   7.174
 5674SOL     OW17677   1.937   4.069   5.619
 5674SOL    HW117678   1.845   4.041   5.590
 5674SOL    HW217679   1.968   4.146   5.563
 5675SOL     OW17680   1.934   3.890   5.904
 5675SOL    HW117681   1.917   3.973   5.850
 5675SOL    HW217682   2.024   3.853   5.882
 5676SOL     OW17683   2.578   4.289   7.294
 5676SOL    HW117684   2.597   4.354   7.368
 5676SOL    HW217685   2.638   4.209   7.303
 5677SOL     OW17686   3.087   4.049   6.035
 5677SOL    HW117687   3.152   3.975   6.024
 5677SOL    HW217688   3.107   4.099   6.119
 5678SOL     OW17689   3.639   4.066   7.228
 5678SOL    HW117690   3.622   4.097   7.134
 5678SOL    HW217691   3.555   4.029   7.266
 5679SOL     OW17692   2.945   4.708   5.673
 5679SOL    HW117693   2.922   4.761   5.591
 5679SOL    HW217694   3.026   4.652   5.654
 5680SOL     OW17695   3.686   3.916   6.813
 5680SOL    HW117696   3.682   3.826   6.857
 5680SOL    HW217697   3.689   3.905   6.714
 5681SOL     OW17698   2.290   4.148   6.106
 5681SOL    HW117699   2.320   4.076   6.044
 5681SOL    HW217700   2.251   4.108   6.189
 5682SOL     OW17701   2.179   4.271   6.866
 5682SOL    HW117702   2.217   4.212   6.938
 5682SOL    HW217703   2.219   4.245   6.778
 5683SOL     OW17704   3.286   3.938   6.698
 5683SOL    HW117705   3.338   3.873   6.753
 5683SOL    HW217706   3.237   4.001   6.759
 5684SOL     OW17707   2.863   3.758   6.740
 5684SOL    HW117708   2.800   3.686   6.709
 5684SOL    HW217709   2.956   3.722   6.740
 5685SOL     OW17710   3.214   3.776   5.754
 5685SOL    HW117711   3.249   3.735   5.670
 5685SOL    HW217712   3.124   3.738   5.774
 5686SOL     OW17713   3.162   4.177   6.277
 5686SOL    HW117714   3.103   4.257   6.281
 5686SOL    HW217715   3.177   4.142   6.370
 5687SOL     OW17716   3.455   3.945   6.468
 5687SOL    HW117717   3.371   3.944   6.522
 5687SOL    HW217718   3.457   4.028   6.412
 5688SOL     OW17719   2.092   4.352   7.561
 5688SOL    HW117720   1.999   4.350   7.598
 5688SOL    HW217721   2.093   4.313   7.469
 5689SOL     OW17722   2.087   3.999   8.444
 5689SOL    HW117723   2.122   3.982   8.536
 5689SOL    HW217724   1.999   3.954   8.432
 5690SOL     OW17725   1.881   4.092   8.095
 5690SOL    HW117726   1.799   4.135   8.134
 5690SOL    HW217727   1.853   4.019   8.032
 5691SOL     OW17728   3.617   4.331   7.679
 5691SOL    HW117729   3.605   4.318   7.580
 5691SOL    HW217730   3.587   4.250   7.728
 5692SOL     OW17731   2.547   4.736   8.113
 5692SOL    HW117732   2.616   4.720   8.183
 5692SOL    HW217733   2.474   4.793   8.151
 5693SOL     OW17734   2.300   4.116   8.947
 5693SOL    HW117735   2.382   4.060   8.956
 5693SOL    HW217736   2.219   4.058   8.951
 5694SOL     OW17737   3.465   4.171   8.185
 5694SOL    HW117738   3.391   4.217   8.135
 5694SOL    HW217739   3.516   4.239   8.238
 5695SOL     OW17740   3.456   3.838   8.928
 5695SOL    HW117741   3.438   3.905   8.856
 5695SOL    HW217742   3.453   3.884   9.017
 5696SOL     OW17743   1.984   4.367   8.011
 5696SOL    HW117744   1.939   4.279   8.028
 5696SOL    HW217745   1.983   4.421   8.095
 5697SOL     OW17746   1.975   4.461   9.045
 5697SOL    HW117747   2.063   4.448   9.090
 5697SOL    HW217748   1.962   4.558   9.023
 5698SOL     OW17749   2.671   3.728   7.950
 5698SOL    HW117750   2.711   3.819   7.941
 5698SOL    HW217751   2.571   3.736   7.956
 5699SOL     OW17752   2.179   3.975   9.249
 5699SOL    HW117753   2.250   4.046   9.255
 5699SOL    HW217754   2.091   4.014   9.277
 5700SOL     OW17755   3.143   4.069   8.392
 5700SOL    HW117756   3.057   4.019   8.379
 5700SOL    HW217757   3.205   4.015   8.448
 5701SOL     OW17758   2.669   4.329   8.913
 5701SOL    HW117759   2.622   4.326   9.002
 5701SOL    HW217760   2.618   4.274   8.847
 5702SOL     OW17761   3.256   4.193   9.122
 5702SOL    HW117762   3.236   4.236   9.210
 5702SOL    HW217763   3.334   4.131   9.131
 5703SOL     OW17764   2.853   4.134   8.690
 5703SOL    HW117765   2.776   4.168   8.744
 5703SOL    HW217766   2.819   4.083   8.611
 5704SOL     OW17767   2.903   4.425   7.877
 5704SOL    HW117768   2.929   4.421   7.973
 5704SOL    HW217769   2.818   4.374   7.863
 5705SOL     OW17770   2.727   4.072   7.643
 5705SOL    HW117771   2.786   4.135   7.594
 5705SOL    HW217772   2.746   3.978   7.614
 5706SOL     OW17773   3.581   4.309   9.279
 5706SOL    HW117774   3.555   4.398   9.243
 5706SOL    HW217775   3.579   4.241   9.206
 5707SOL     OW17776   2.412   3.920   8.333
 5707SOL    HW117777   2.407   3.915   8.433
 5707SOL    HW217778   2.414   4.016   8.304
 5708SOL     OW17779   3.320   4.459   8.176
 5708SOL    HW117780   3.315   4.394   8.251
 5708SOL    HW217781   3.400   4.518   8.189
 5709SOL     OW17782   2.064   4.009   8.946
 5709SOL    HW117783   1.984   4.069   8.933
 5709SOL    HW217784   2.054   3.960   9.032
 5710SOL     OW17785   3.262   3.831   7.874
 5710SOL    HW117786   3.238   3.794   7.784
 5710SOL    HW217787   3.361   3.847   7.878
 5711SOL     OW17788   2.244   4.424   7.928
 5711SOL    HW117789   2.289   4.334   7.925
 5711SOL    HW217790   2.150   4.413   7.961
 5712SOL     OW17791   3.409   3.946   9.177
 5712SOL    HW117792   3.404   3.983   9.269
 5712SOL    HW217793   3.337   3.877   9.165
 5713SOL     OW17794   2.476   3.846   7.565
 5713SOL    HW117795   2.574   3.824   7.572
 5713SOL    HW217796   2.445   3.829   7.472
 5714SOL     OW17797   2.643   3.988   9.197
 5714SOL    HW117798   2.710   3.927   9.240
 5714SOL    HW217799   2.570   4.007   9.262
 5715SOL     OW17800   3.213   4.314   8.881
 5715SOL    HW117801   3.241   4.271   8.966
 5715SOL    HW217802   3.238   4.410   8.882
 5716SOL     OW17803   2.784   4.227   8.347
 5716SOL    HW117804   2.759   4.218   8.251
 5716SOL    HW217805   2.832   4.145   8.378
 5717SOL     OW17806   2.401   3.788   7.960
 5717SOL    HW117807   2.320   3.789   8.018
 5717SOL    HW217808   2.404   3.871   7.905
 5718SOL     OW17809   2.159   3.759   7.619
 5718SOL    HW117810   2.208   3.843   7.598
 5718SOL    HW217811   2.221   3.694   7.664
 5719SOL     OW17812   2.797   3.960   7.928
 5719SOL    HW117813   2.749   4.001   7.850
 5719SOL    HW217814   2.896   3.958   7.909
 5720SOL     OW17815   2.938   4.407   8.912
 5720SOL    HW117816   2.858   4.346   8.915
 5720SOL    HW217817   3.019   4.354   8.888
 5721SOL     OW17818   2.894   4.273   7.464
 5721SOL    HW117819   2.853   4.355   7.425
 5721SOL    HW217820   2.958   4.299   7.537
 5722SOL     OW17821   1.940   4.280   8.834
 5722SOL    HW117822   2.032   4.279   8.793
 5722SOL    HW217823   1.934   4.354   8.901
 5723SOL     OW17824   2.423   3.946   8.595
 5723SOL    HW117825   2.461   3.862   8.632
 5723SOL    HW217826   2.335   3.965   8.639
 5724SOL     OW17827   2.728   4.178   8.090
 5724SOL    HW117828   2.696   4.250   8.028
 5724SOL    HW217829   2.752   4.097   8.037
 5725SOL     OW17830   2.879   3.763   8.201
 5725SOL    HW117831   2.807   3.768   8.132
 5725SOL    HW217832   2.855   3.694   8.270
 5726SOL     OW17833   3.328   4.314   8.440
 5726SOL    HW117834   3.298   4.219   8.447
 5726SOL    HW217835   3.401   4.330   8.506
 5727SOL     OW17836   3.252   4.299   7.526
 5727SOL    HW117837   3.198   4.278   7.607
 5727SOL    HW217838   3.343   4.258   7.535
 5728SOL     OW17839   2.389   3.980   7.776
 5728SOL    HW117840   2.416   3.921   7.701
 5728SOL    HW217841   2.389   4.075   7.745
 5729SOL     OW17842   2.777   3.813   8.850
 5729SOL    HW117843   2.802   3.793   8.755
 5729SOL    HW217844   2.849   3.869   8.892
 5730SOL     OW17845   2.272   4.537   8.699
 5730SOL    HW117846   2.358   4.549   8.749
 5730SOL    HW217847   2.230   4.450   8.726
 5731SOL     OW17848   3.136   4.110   8.710
 5731SOL    HW117849   3.157   4.184   8.774
 5731SOL    HW217850   3.047   4.127   8.667
 5732SOL     OW17851   2.428   4.261   8.313
 5732SOL    HW117852   2.440   4.327   8.239
 5732SOL    HW217853   2.474   4.295   8.396
 5733SOL     OW17854   3.444   4.363   7.920
 5733SOL    HW117855   3.413   4.424   7.993
 5733SOL    HW217856   3.494   4.415   7.851
 5734SOL     OW17857   2.875   3.829   9.218
 5734SOL    HW117858   2.881   3.914   9.166
 5734SOL    HW217859   2.907   3.753   9.161
 5735SOL     OW17860   2.366   3.774   9.188
 5735SOL    HW117861   2.324   3.717   9.118
 5735SOL    HW217862   2.300   3.843   9.220
 5736SOL     OW17863   3.071   4.249   7.723
 5736SOL    HW117864   3.084   4.165   7.777
 5736SOL    HW217865   3.042   4.323   7.783
 5737SOL     OW17866   2.169   3.937   8.679
 5737SOL    HW117867   2.146   3.974   8.769
 5737SOL    HW217868   2.139   3.842   8.673
 5738SOL     OW17869   2.594   4.358   8.512
 5738SOL    HW117870   2.653   4.332   8.436
 5738SOL    HW217871   2.566   4.454   8.501
 5739SOL     OW17872   3.590   4.659   9.302
 5739SOL    HW117873   3.544   4.652   9.213
 5739SOL    HW217874   3.528   4.703   9.368
 5740SOL     OW17875   2.169   3.787   8.066
 5740SOL    HW117876   2.158   3.881   8.099
 5740SOL    HW217877   2.164   3.724   8.143
 5741SOL     OW17878   3.484   4.091   7.822
 5741SOL    HW117879   3.486   4.015   7.886
 5741SOL    HW217880   3.436   4.168   7.862
 5742SOL     OW17881   3.402   3.998   7.573
 5742SOL    HW117882   3.341   3.923   7.596
 5742SOL    HW217883   3.424   4.050   7.656
 5743SOL     OW17884   2.181   4.534   8.397
 5743SOL    HW117885   2.274   4.570   8.402
 5743SOL    HW217886   2.175   4.449   8.449
 5744SOL     OW17887   2.201   4.233   8.454
 5744SOL    HW117888   2.149   4.150   8.437
 5744SOL    HW217889   2.278   4.238   8.390
 5745SOL     OW17890   3.000   4.104   9.126
 5745SOL    HW117891   2.955   4.167   9.190
 5745SOL    HW217892   3.093   4.135   9.109
 5746SOL     OW17893   3.022   3.931   8.925
 5746SOL    HW117894   3.022   3.995   9.002
 5746SOL    HW217895   3.050   3.979   8.842
 5747SOL     OW17896   1.902   4.268   8.562
 5747SOL    HW117897   1.987   4.235   8.521
 5747SOL    HW217898   1.915   4.283   8.660
 5748SOL     OW17899   2.051   4.244   9.170
 5748SOL    HW117900   2.110   4.204   9.100
 5748SOL    HW217901   1.993   4.315   9.129
 5749SOL     OW17902   2.677   4.296   7.773
 5749SOL    HW117903   2.684   4.207   7.727
 5749SOL    HW217904   2.583   4.330   7.765
 5750SOL     OW17905   3.519   4.328   8.654
 5750SOL    HW117906   3.481   4.259   8.716
 5750SOL    HW217907   3.601   4.292   8.610
 5751SOL     OW17908   2.533   4.188   8.717
 5751SOL    HW117909   2.499   4.099   8.687
 5751SOL    HW217910   2.559   4.242   8.637
 5752SOL     OW17911   2.335   4.224   7.639
 5752SOL    HW117912   2.396   4.304   7.643
 5752SOL    HW217913   2.240   4.255   7.646
 5753SOL     OW17914   3.588   3.859   7.971
 5753SOL    HW117915   3.661   3.842   7.904
 5753SOL    HW217916   3.557   3.772   8.009
 5754SOL     OW17917   3.142   4.651   8.120
 5754SOL    HW117918   3.202   4.570   8.122
 5754SOL    HW217919   3.182   4.720   8.060
 5755SOL     OW17920   3.703   3.899   8.411
 5755SOL    HW117921   3.742   3.814   8.375
 5755SOL    HW217922   3.605   3.901   8.392
 5756SOL     OW17923   2.125   4.050   8.168
 5756SOL    HW117924   2.046   4.101   8.134
 5756SOL    HW217925   2.116   4.035   8.266
 5757SOL     OW17926   2.778   4.634   7.739
 5757SOL    HW117927   2.841   4.672   7.671
 5757SOL    HW217928   2.818   4.551   7.778
 5758SOL     OW17929   2.901   4.822   8.144
 5758SOL    HW117930   2.831   4.775   8.198
 5758SOL    HW217931   2.960   4.754   8.101
 5759SOL     OW17932   2.876   3.960   8.419
 5759SOL    HW117933   2.868   3.924   8.326
 5759SOL    HW217934   2.874   3.884   8.484
 5760SOL     OW17935   3.571   4.109   8.829
 5760SOL    HW117936   3.644   4.178   8.833
 5760SOL    HW217937   3.599   4.034   8.770
 5761SOL     OW17938   2.534   3.927   8.937
 5761SOL    HW117939   2.624   3.911   8.897
 5761SOL    HW217940   2.542   3.932   9.036
 5762SOL     OW17941   1.937   4.069   7.481
 5762SOL    HW117942   1.845   4.041   7.452
 5762SOL    HW217943   1.968   4.146   7.425
 5763SOL     OW17944   1.934   3.890   7.766
 5763SOL    HW117945   1.917   3.973   7.712
 5763SOL    HW217946   2.024   3.853   7.744
 5764SOL     OW17947   2.578   4.289   9.156
 5764SOL    HW117948   2.597   4.354   9.230
 5764SOL    HW217949   2.638   4.209   9.165
 5765SOL     OW17950   3.087   4.049   7.897
 5765SOL    HW117951   3.152   3.975   7.886
 5765SOL    HW217952   3.107   4.099   7.981
 5766SOL     OW17953   3.639   4.066   9.090
 5766SOL    HW117954   3.622   4.097   8.996
 5766SOL    HW217955   3.555   4.029   9.128
 5767SOL     OW17956   2.945   4.708   7.535
 5767SOL    HW117957   2.922   4.761   7.453
 5767SOL    HW217958   3.026   4.652   7.516
 5768SOL     OW17959   3.686   3.916   8.675
 5768SOL    HW117960   3.682   3.826   8.719
 5768SOL    HW217961   3.689   3.905   8.576
 5769SOL     OW17962   2.290   4.148   7.968
 5769SOL    HW117963   2.320   4.076   7.906
 5769SOL    HW217964   2.251   4.108   8.051
 5770SOL     OW17965   2.179   4.271   8.728
 5770SOL    HW117966   2.217   4.212   8.800
 5770SOL    HW217967   2.219   4.245   8.640
 5771SOL     OW17968   3.286   3.938   8.560
 5771SOL    HW117969   3.338   3.873   8.615
 5771SOL    HW217970   3.237   4.001   8.621
 5772SOL     OW17971   2.863   3.758   8.602
 5772SOL    HW117972   2.800   3.686   8.571
 5772SOL    HW217973   2.956   3.722   8.602
 5773SOL     OW17974   3.214   3.776   7.616
 5773SOL    HW117975   3.249   3.735   7.532
 5773SOL    HW217976   3.124   3.738   7.636
 5774SOL     OW17977   3.162   4.177   8.139
 5774SOL    HW117978   3.103   4.257   8.143
 5774SOL    HW217979   3.177   4.142   8.232
 5775SOL     OW17980   3.455   3.945   8.330
 5775SOL    HW117981   3.371   3.944   8.384
 5775SOL    HW217982   3.457   4.028   8.274
 5776SOL     OW17983   2.092   4.352   9.423
 5776SOL    HW117984   1.999   4.350   9.460
 5776SOL    HW217985   2.093   4.313   9.331
 5777SOL     OW17986   2.087   3.999  10.306
 5777SOL    HW117987   2.122   3.982  10.398
 5777SOL    HW217988   1.999   3.954  10.294
 5778SOL     OW17989   1.881   4.092   9.957
 5778SOL    HW117990   1.799   4.135   9.996
 5778SOL    HW217991   1.853   4.019   9.894
 5779SOL     OW17992   3.617   4.331   9.541
 5779SOL    HW117993   3.605   4.318   9.442
 5779SOL    HW217994   3.587   4.250   9.590
 5780SOL     OW17995   2.547   4.736   9.975
 5780SOL    HW117996   2.616   4.720  10.045
 5780SOL    HW217997   2.474   4.793  10.013
 5781SOL     OW17998   2.300   4.116  10.809
 5781SOL    HW117999   2.382   4.060  10.818
 5781SOL    HW218000   2.219   4.058  10.813
 5782SOL     OW18001   3.465   4.171  10.047
 5782SOL    HW118002   3.391   4.217   9.997
 5782SOL    HW218003   3.516   4.239  10.100
 5783SOL     OW18004   3.456   3.838  10.790
 5783SOL    HW118005   3.438   3.905  10.718
 5783SOL    HW218006   3.453   3.884  10.879
 5784SOL     OW18007   1.984   4.367   9.873
 5784SOL    HW118008   1.939   4.279   9.890
 5784SOL    HW218009   1.983   4.421   9.957
 5785SOL     OW18010   1.975   4.461  10.907
 5785SOL    HW118011   2.063   4.448  10.952
 5785SOL    HW218012   1.962   4.558  10.885
 5786SOL     OW18013   2.671   3.728   9.812
 5786SOL    HW118014   2.711   3.819   9.803
 5786SOL    HW218015   2.571   3.736   9.818
 5787SOL     OW18016   2.179   3.975  11.111
 5787SOL    HW118017   2.250   4.046  11.117
 5787SOL    HW218018   2.091   4.014  11.139
 5788SOL     OW18019   3.143   4.069  10.254
 5788SOL    HW118020   3.057   4.019  10.241
 5788SOL    HW218021   3.205   4.015  10.310
 5789SOL     OW18022   2.669   4.329  10.775
 5789SOL    HW118023   2.622   4.326  10.864
 5789SOL    HW218024   2.618   4.274  10.709
 5790SOL     OW18025   2.853   4.134  10.552
 5790SOL    HW118026   2.776   4.168  10.606
 5790SOL    HW218027   2.819   4.083  10.473
 5791SOL     OW18028   2.903   4.425   9.739
 5791SOL    HW118029   2.929   4.421   9.835
 5791SOL    HW218030   2.818   4.374   9.725
 5792SOL     OW18031   2.727   4.072   9.505
 5792SOL    HW118032   2.786   4.135   9.456
 5792SOL    HW218033   2.746   3.978   9.476
 5793SOL     OW18034   2.412   3.920  10.195
 5793SOL    HW118035   2.407   3.915  10.295
 5793SOL    HW218036   2.414   4.016  10.166
 5794SOL     OW18037   3.320   4.459  10.038
 5794SOL    HW118038   3.315   4.394  10.113
 5794SOL    HW218039   3.400   4.518  10.051
 5795SOL     OW18040   2.064   4.009  10.808
 5795SOL    HW118041   1.984   4.069  10.795
 5795SOL    HW218042   2.054   3.960  10.894
 5796SOL     OW18043   3.262   3.831   9.736
 5796SOL    HW118044   3.238   3.794   9.646
 5796SOL    HW218045   3.361   3.847   9.740
 5797SOL     OW18046   2.244   4.424   9.790
 5797SOL    HW118047   2.289   4.334   9.787
 5797SOL    HW218048   2.150   4.413   9.823
 5798SOL     OW18049   2.476   3.846   9.427
 5798SOL    HW118050   2.574   3.824   9.434
 5798SOL    HW218051   2.445   3.829   9.334
 5799SOL     OW18052   2.643   3.988  11.059
 5799SOL    HW118053   2.710   3.927  11.102
 5799SOL    HW218054   2.570   4.007  11.124
 5800SOL     OW18055   3.213   4.314  10.743
 5800SOL    HW118056   3.241   4.271  10.828
 5800SOL    HW218057   3.238   4.410  10.744
 5801SOL     OW18058   2.784   4.227  10.209
 5801SOL    HW118059   2.759   4.218  10.113
 5801SOL    HW218060   2.832   4.145  10.240
 5802SOL     OW18061   2.401   3.788   9.822
 5802SOL    HW118062   2.320   3.789   9.880
 5802SOL    HW218063   2.404   3.871   9.767
 5803SOL     OW18064   2.159   3.759   9.481
 5803SOL    HW118065   2.208   3.843   9.460
 5803SOL    HW218066   2.221   3.694   9.526
 5804SOL     OW18067   2.797   3.960   9.790
 5804SOL    HW118068   2.749   4.001   9.712
 5804SOL    HW218069   2.896   3.958   9.771
 5805SOL     OW18070   2.938   4.407  10.774
 5805SOL    HW118071   2.858   4.346  10.777
 5805SOL    HW218072   3.019   4.354  10.750
 5806SOL     OW18073   2.894   4.273   9.326
 5806SOL    HW118074   2.853   4.355   9.287
 5806SOL    HW218075   2.958   4.299   9.399
 5807SOL     OW18076   1.940   4.280  10.696
 5807SOL    HW118077   2.032   4.279  10.655
 5807SOL    HW218078   1.934   4.354  10.763
 5808SOL     OW18079   2.423   3.946  10.457
 5808SOL    HW118080   2.461   3.862  10.494
 5808SOL    HW218081   2.335   3.965  10.501
 5809SOL     OW18082   2.728   4.178   9.952
 5809SOL    HW118083   2.696   4.250   9.890
 5809SOL    HW218084   2.752   4.097   9.899
 5810SOL     OW18085   2.879   3.763  10.063
 5810SOL    HW118086   2.807   3.768   9.994
 5810SOL    HW218087   2.855   3.694  10.132
 5811SOL     OW18088   3.328   4.314  10.302
 5811SOL    HW118089   3.298   4.219  10.309
 5811SOL    HW218090   3.401   4.330  10.368
 5812SOL     OW18091   3.252   4.299   9.388
 5812SOL    HW118092   3.198   4.278   9.469
 5812SOL    HW218093   3.343   4.258   9.397
 5813SOL     OW18094   2.389   3.980   9.638
 5813SOL    HW118095   2.416   3.921   9.563
 5813SOL    HW218096   2.389   4.075   9.607
 5814SOL     OW18097   2.777   3.813  10.712
 5814SOL    HW118098   2.802   3.793  10.617
 5814SOL    HW218099   2.849   3.869  10.754
 5815SOL     OW18100   2.272   4.537  10.561
 5815SOL    HW118101   2.358   4.549  10.611
 5815SOL    HW218102   2.230   4.450  10.588
 5816SOL     OW18103   3.136   4.110  10.572
 5816SOL    HW118104   3.157   4.184  10.636
 5816SOL    HW218105   3.047   4.127  10.529
 5817SOL     OW18106   2.428   4.261  10.175
 5817SOL    HW118107   2.440   4.327  10.101
 5817SOL    HW218108   2.474   4.295  10.258
 5818SOL     OW18109   3.444   4.363   9.782
 5818SOL    HW118110   3.413   4.424   9.855
 5818SOL    HW218111   3.494   4.415   9.713
 5819SOL     OW18112   2.264   4.475  10.908
 5819SOL    HW118113   2.332   4.530  10.861
 5819SOL    HW218114   2.304   4.387  10.935
 5820SOL     OW18115   3.071   4.249   9.585
 5820SOL    HW118116   3.084   4.165   9.639
 5820SOL    HW218117   3.042   4.323   9.645
 5821SOL     OW18118   2.169   3.937  10.541
 5821SOL    HW118119   2.146   3.974  10.631
 5821SOL    HW218120   2.139   3.842  10.535
 5822SOL     OW18121   2.594   4.358  10.374
 5822SOL    HW118122   2.653   4.332  10.298
 5822SOL    HW218123   2.566   4.454  10.363
 5823SOL     OW18124   2.169   3.787   9.928
 5823SOL    HW118125   2.158   3.881   9.961
 5823SOL    HW218126   2.164   3.724  10.005
 5824SOL     OW18127   3.484   4.091   9.684
 5824SOL    HW118128   3.486   4.015   9.748
 5824SOL    HW218129   3.436   4.168   9.724
 5825SOL     OW18130   3.402   3.998   9.435
 5825SOL    HW118131   3.341   3.923   9.458
 5825SOL    HW218132   3.424   4.050   9.518
 5826SOL     OW18133   2.181   4.534  10.259
 5826SOL    HW118134   2.274   4.570  10.264
 5826SOL    HW218135   2.175   4.449  10.311
 5827SOL     OW18136   2.201   4.233  10.316
 5827SOL    HW118137   2.149   4.150  10.299
 5827SOL    HW218138   2.278   4.238  10.252
 5828SOL     OW18139   3.022   3.931  10.787
 5828SOL    HW118140   3.022   3.995  10.864
 5828SOL    HW218141   3.050   3.979  10.704
 5829SOL     OW18142   1.902   4.268  10.424
 5829SOL    HW118143   1.987   4.235  10.383
 5829SOL    HW218144   1.915   4.283  10.522
 5830SOL     OW18145   3.231   4.674  10.970
 5830SOL    HW118146   3.270   4.763  10.990
 5830SOL    HW218147   3.241   4.654  10.873
 5831SOL     OW18148   2.677   4.296   9.635
 5831SOL    HW118149   2.684   4.207   9.589
 5831SOL    HW218150   2.583   4.330   9.627
 5832SOL     OW18151   3.519   4.328  10.516
 5832SOL    HW118152   3.481   4.259  10.578
 5832SOL    HW218153   3.601   4.292  10.472
 5833SOL     OW18154   2.533   4.188  10.579
 5833SOL    HW118155   2.499   4.099  10.549
 5833SOL    HW218156   2.559   4.242  10.499
 5834SOL     OW18157   2.335   4.224   9.501
 5834SOL    HW118158   2.396   4.304   9.505
 5834SOL    HW218159   2.240   4.255   9.508
 5835SOL     OW18160   3.588   3.859   9.833
 5835SOL    HW118161   3.661   3.842   9.766
 5835SOL    HW218162   3.557   3.772   9.871
 5836SOL     OW18163   3.142   4.651   9.982
 5836SOL    HW118164   3.202   4.570   9.984
 5836SOL    HW218165   3.182   4.720   9.922
 5837SOL     OW18166   3.703   3.899  10.273
 5837SOL    HW118167   3.742   3.814  10.237
 5837SOL    HW218168   3.605   3.901  10.254
 5838SOL     OW18169   2.125   4.050  10.030
 5838SOL    HW118170   2.046   4.101   9.996
 5838SOL    HW218171   2.116   4.035  10.128
 5839SOL     OW18172   2.778   4.634   9.601
 5839SOL    HW118173   2.841   4.672   9.533
 5839SOL    HW218174   2.818   4.551   9.640
 5840SOL     OW18175   2.901   4.822  10.006
 5840SOL    HW118176   2.831   4.775  10.060
 5840SOL    HW218177   2.960   4.754   9.963
 5841SOL     OW18178   2.876   3.960  10.281
 5841SOL    HW118179   2.868   3.924  10.188
 5841SOL    HW218180   2.874   3.884  10.346
 5842SOL     OW18181   3.571   4.109  10.691
 5842SOL    HW118182   3.644   4.178  10.695
 5842SOL    HW218183   3.599   4.034  10.632
 5843SOL     OW18184   2.534   3.927  10.799
 5843SOL    HW118185   2.624   3.911  10.759
 5843SOL    HW218186   2.542   3.932  10.898
 5844SOL     OW18187   1.937   4.069   9.343
 5844SOL    HW118188   1.845   4.041   9.314
 5844SOL    HW218189   1.968   4.146   9.287
 5845SOL     OW18190   1.934   3.890   9.628
 5845SOL    HW118191   1.917   3.973   9.574
 5845SOL    HW218192   2.024   3.853   9.606
 5846SOL     OW18193   2.578   4.289  11.018
 5846SOL    HW118194   2.597   4.354  11.092
 5846SOL    HW218195   2.638   4.209  11.027
 5847SOL     OW18196   3.087   4.049   9.759
 5847SOL    HW118197   3.152   3.975   9.748
 5847SOL    HW218198   3.107   4.099   9.843
 5848SOL     OW18199   3.639   4.066  10.952
 5848SOL    HW118200   3.622   4.097  10.858
 5848SOL    HW218201   3.555   4.029  10.990
 5849SOL     OW18202   2.945   4.708   9.397
 5849SOL    HW118203   2.922   4.761   9.315
 5849SOL    HW218204   3.026   4.652   9.378
 5850SOL     OW18205   3.686   3.916  10.537
 5850SOL    HW118206   3.682   3.826  10.581
 5850SOL    HW218207   3.689   3.905  10.438
 5851SOL     OW18208   2.290   4.148   9.830
 5851SOL    HW118209   2.320   4.076   9.768
 5851SOL    HW218210   2.251   4.108   9.913
 5852SOL     OW18211   2.179   4.271  10.590
 5852SOL    HW118212   2.217   4.212  10.662
 5852SOL    HW218213   2.219   4.245  10.502
 5853SOL     OW18214   3.286   3.938  10.422
 5853SOL    HW118215   3.338   3.873  10.477
 5853SOL    HW218216   3.237   4.001  10.483
 5854SOL     OW18217   2.863   3.758  10.464
 5854SOL    HW118218   2.800   3.686  10.433
 5854SOL    HW218219   2.956   3.722  10.464
 5855SOL     OW18220   3.214   3.776   9.478
 5855SOL    HW118221   3.249   3.735   9.394
 5855SOL    HW218222   3.124   3.738   9.498
 5856SOL     OW18223   3.162   4.177  10.001
 5856SOL    HW118224   3.103   4.257  10.005
 5856SOL    HW218225   3.177   4.142  10.094
 5857SOL     OW18226   3.455   3.945  10.192
 5857SOL    HW118227   3.371   3.944  10.246
 5857SOL    HW218228   3.457   4.028  10.136
 5858SOL     OW18229   3.954   0.628   0.113
 5858SOL    HW118230   3.861   0.626   0.150
 5858SOL    HW218231   3.955   0.589   0.021
 5859SOL     OW18232   3.949   0.275   0.996
 5859SOL    HW118233   3.984   0.258   1.088
 5859SOL    HW218234   3.861   0.230   0.984
 5860SOL     OW18235   3.743   0.368   0.647
 5860SOL    HW118236   3.661   0.411   0.686
 5860SOL    HW218237   3.715   0.295   0.584
 5861SOL     OW18238   4.293   1.275   1.165
 5861SOL    HW118239   4.200   1.268   1.128
 5861SOL    HW218240   4.304   1.364   1.209
 5862SOL     OW18241   4.574   0.798   1.823
 5862SOL    HW118242   4.570   0.874   1.888
 5862SOL    HW218243   4.596   0.834   1.732
 5863SOL     OW18244   4.409   1.012   0.665
 5863SOL    HW118245   4.478   0.996   0.735
 5863SOL    HW218246   4.336   1.069   0.703
 5864SOL     OW18247   4.410   1.161   1.803
 5864SOL    HW118248   4.470   1.240   1.817
 5864SOL    HW218249   4.324   1.192   1.762
 5865SOL     OW18250   4.059   1.435   1.061
 5865SOL    HW118251   3.981   1.404   1.008
 5865SOL    HW218252   4.117   1.493   1.004
 5866SOL     OW18253   4.162   0.392   1.499
 5866SOL    HW118254   4.244   0.336   1.508
 5866SOL    HW218255   4.081   0.334   1.503
 5867SOL     OW18256   3.955   1.713   0.483
 5867SOL    HW118257   3.989   1.790   0.537
 5867SOL    HW218258   3.999   1.713   0.393
 5868SOL     OW18259   3.954   1.434   0.538
 5868SOL    HW118260   3.928   1.530   0.538
 5868SOL    HW218261   3.883   1.380   0.583
 5869SOL     OW18262   3.964   1.091   0.886
 5869SOL    HW118263   3.978   1.007   0.938
 5869SOL    HW218264   3.909   1.155   0.941
 5870SOL     OW18265   4.344   1.786   1.439
 5870SOL    HW118266   4.252   1.769   1.474
 5870SOL    HW218267   4.372   1.878   1.465
 5871SOL     OW18268   4.330   0.964   0.123
 5871SOL    HW118269   4.337   1.048   0.069
 5871SOL    HW218270   4.376   0.977   0.211
 5872SOL     OW18271   3.846   0.643   0.563
 5872SOL    HW118272   3.801   0.555   0.580
 5872SOL    HW218273   3.845   0.697   0.647
 5873SOL     OW18274   3.751   1.596   0.117
 5873SOL    HW118275   3.732   1.500   0.138
 5873SOL    HW218276   3.718   1.654   0.192
 5874SOL     OW18277   3.837   0.737   1.597
 5874SOL    HW118278   3.925   0.724   1.642
 5874SOL    HW218279   3.824   0.834   1.575
 5875SOL     OW18280   4.337   1.365   0.726
 5875SOL    HW118281   4.288   1.278   0.735
 5875SOL    HW218282   4.314   1.408   0.639
 5876SOL     OW18283   4.533   0.004   0.502
 5876SOL    HW118284   4.573   0.095   0.493
 5876SOL    HW218285   4.433   0.012   0.508
 5877SOL     OW18286   3.921   0.976   1.264
 5877SOL    HW118287   4.010   0.931   1.250
 5877SOL    HW218288   3.848   0.911   1.245
 5878SOL     OW18289   4.041   0.251   1.801
 5878SOL    HW118290   4.112   0.322   1.807
 5878SOL    HW218291   3.953   0.290   1.829
 5879SOL     OW18292   4.322   0.729   0.270
 5879SOL    HW118293   4.346   0.798   0.202
 5879SOL    HW218294   4.244   0.762   0.324
 5880SOL     OW18295   3.800   0.811   0.789
 5880SOL    HW118296   3.899   0.799   0.798
 5880SOL    HW218297   3.776   0.906   0.810
 5881SOL     OW18298   3.854   1.821   1.571
 5881SOL    HW118299   3.844   1.806   1.670
 5881SOL    HW218300   3.768   1.857   1.535
 5882SOL     OW18301   4.274   0.196   0.885
 5882SOL    HW118302   4.269   0.191   0.985
 5882SOL    HW218303   4.276   0.292   0.856
 5883SOL     OW18304   4.075   1.801   0.853
 5883SOL    HW118305   4.125   1.715   0.859
 5883SOL    HW218306   4.140   1.878   0.850
 5884SOL     OW18307   4.045   0.943   0.242
 5884SOL    HW118308   4.127   0.982   0.200
 5884SOL    HW218309   4.018   0.861   0.193
 5885SOL     OW18310   4.185   1.266   1.727
 5885SOL    HW118311   4.135   1.267   1.641
 5885SOL    HW218312   4.122   1.248   1.803
 5886SOL     OW18313   3.926   0.285   1.498
 5886SOL    HW118314   3.846   0.345   1.485
 5886SOL    HW218315   3.916   0.236   1.584
 5887SOL     OW18316   4.188   1.743   0.323
 5887SOL    HW118317   4.221   1.782   0.409
 5887SOL    HW218318   4.264   1.736   0.258
 5888SOL     OW18319   3.973   1.785   1.241
 5888SOL    HW118320   4.030   1.720   1.291
 5888SOL    HW218321   3.957   1.752   1.148
 5889SOL     OW18322   4.106   0.700   0.480
 5889SOL    HW118323   4.151   0.610   0.477
 5889SOL    HW218324   4.012   0.689   0.513
 5890SOL     OW18325   4.338   0.122   0.117
 5890SOL    HW118326   4.436   0.100   0.124
 5890SOL    HW218327   4.307   0.105   0.024
 5891SOL     OW18328   4.527   1.402   0.924
 5891SOL    HW118329   4.617   1.416   0.882
 5891SOL    HW218330   4.456   1.404   0.853
 5892SOL     OW18331   4.263   0.064   0.512
 5892SOL    HW118332   4.182   0.065   0.570
 5892SOL    HW218333   4.266   0.147   0.457
 5893SOL     OW18334   4.021   0.035   0.171
 5893SOL    HW118335   4.070   0.119   0.150
 5893SOL    HW218336   4.083  -0.030   0.216
 5894SOL     OW18337   4.800   0.683   1.464
 5894SOL    HW118338   4.720   0.622   1.467
 5894SOL    HW218339   4.881   0.630   1.440
 5895SOL     OW18340   4.183   1.152   0.741
 5895SOL    HW118341   4.112   1.125   0.806
 5895SOL    HW218342   4.157   1.124   0.648
 5896SOL     OW18343   3.802   0.556   1.386
 5896SOL    HW118344   3.894   0.555   1.345
 5896SOL    HW218345   3.796   0.630   1.453
 5897SOL     OW18346   4.285   0.222   1.147
 5897SOL    HW118347   4.323   0.138   1.184
 5897SOL    HW218348   4.197   0.241   1.191
 5898SOL     OW18349   4.212   1.385   0.174
 5898SOL    HW118350   4.125   1.370   0.221
 5898SOL    HW218351   4.195   1.411   0.079
 5899SOL     OW18352   4.251   0.256   0.328
 5899SOL    HW118353   4.278   0.197   0.253
 5899SOL    HW218354   4.251   0.351   0.297
 5900SOL     OW18355   4.134   0.813   1.251
 5900SOL    HW118356   4.220   0.825   1.301
 5900SOL    HW218357   4.092   0.726   1.278
 5901SOL     OW18358   3.788   1.564   1.331
 5901SOL    HW118359   3.742   1.646   1.297
 5901SOL    HW218360   3.886   1.583   1.340
 5902SOL     OW18361   4.091   1.100   0.501
 5902SOL    HW118362   4.084   1.183   0.445
 5902SOL    HW218363   4.095   1.020   0.441
 5903SOL     OW18364   4.290   0.537   0.865
 5903SOL    HW118365   4.302   0.603   0.791
 5903SOL    HW218366   4.336   0.571   0.948
 5904SOL     OW18367   4.078   1.510   1.329
 5904SOL    HW118368   4.057   1.466   1.242
 5904SOL    HW218369   4.175   1.536   1.332
 5905SOL     OW18370   4.126   0.751   1.598
 5905SOL    HW118371   4.194   0.806   1.551
 5905SOL    HW218372   4.166   0.663   1.625
 5906SOL     OW18373   4.228   0.050   1.740
 5906SOL    HW118374   4.186  -0.007   1.670
 5906SOL    HW218375   4.162   0.119   1.772
 5907SOL     OW18376   4.297   0.870   1.029
 5907SOL    HW118377   4.341   0.959   1.020
 5907SOL    HW218378   4.234   0.870   1.106
 5908SOL     OW18379   4.031   0.213   1.231
 5908SOL    HW118380   4.008   0.250   1.321
 5908SOL    HW218381   4.001   0.118   1.225
 5909SOL     OW18382   3.761   1.310   1.282
 5909SOL    HW118383   3.814   1.261   1.350
 5909SOL    HW218384   3.783   1.408   1.287
 5910SOL     OW18385   4.031   0.063   0.618
 5910SOL    HW118386   4.020   0.157   0.651
 5910SOL    HW218387   4.026   0.000   0.695
 5911SOL     OW18388   4.074   0.898   1.804
 5911SOL    HW118389   4.150   0.942   1.852
 5911SOL    HW218390   4.109   0.851   1.722
 5912SOL     OW18391   4.043   0.810   0.949
 5912SOL    HW118392   4.136   0.846   0.954
 5912SOL    HW218393   4.037   0.725   1.001
 5913SOL     OW18394   4.063   0.509   1.006
 5913SOL    HW118395   4.011   0.426   0.989
 5913SOL    HW218396   4.140   0.514   0.942
 5914SOL     OW18397   3.732   1.326   0.200
 5914SOL    HW118398   3.639   1.347   0.169
 5914SOL    HW218399   3.742   1.227   0.213
 5915SOL     OW18400   3.812   1.801   0.927
 5915SOL    HW118401   3.770   1.715   0.900
 5915SOL    HW218402   3.906   1.804   0.893
 5916SOL     OW18403   4.228   1.568   0.910
 5916SOL    HW118404   4.294   1.642   0.919
 5916SOL    HW218405   4.272   1.489   0.868
 5917SOL     OW18406   3.764   0.544   1.114
 5917SOL    HW118407   3.849   0.511   1.073
 5917SOL    HW218408   3.777   0.559   1.212
 5918SOL     OW18409   3.913   0.520   1.722
 5918SOL    HW118410   3.972   0.480   1.652
 5918SOL    HW218411   3.855   0.591   1.681
 5919SOL     OW18412   4.539   0.572   0.325
 5919SOL    HW118413   4.546   0.483   0.279
 5919SOL    HW218414   4.445   0.606   0.317
 5920SOL     OW18415   3.976   1.564   1.744
 5920SOL    HW118416   3.946   1.621   1.820
 5920SOL    HW218417   3.969   1.467   1.770
 5921SOL     OW18418   4.197   0.500   0.191
 5921SOL    HW118419   4.258   0.580   0.195
 5921SOL    HW218420   4.102   0.531   0.198
 5922SOL     OW18421   3.883   1.137   1.466
 5922SOL    HW118422   3.905   1.076   1.542
 5922SOL    HW218423   3.893   1.088   1.380
 5923SOL     OW18424   3.807   1.258   1.022
 5923SOL    HW118425   3.802   1.257   1.122
 5923SOL    HW218426   3.724   1.217   0.984
 5924SOL     OW18427   4.412   1.662   1.716
 5924SOL    HW118428   4.356   1.743   1.725
 5924SOL    HW218429   4.464   1.666   1.630
 5925SOL     OW18430   3.854   1.794   1.851
 5925SOL    HW118431   3.813   1.720   1.904
 5925SOL    HW218432   3.918   1.845   1.909
 5926SOL     OW18433   3.987   0.326   0.720
 5926SOL    HW118434   3.908   0.377   0.686
 5926SOL    HW218435   3.978   0.311   0.818
 5927SOL     OW18436   4.096   1.288   1.490
 5927SOL    HW118437   4.083   1.381   1.456
 5927SOL    HW218438   4.012   1.236   1.477
 5928SOL     OW18439   4.314   1.487   0.491
 5928SOL    HW118440   4.356   1.429   0.421
 5928SOL    HW218441   4.270   1.566   0.447
 5929SOL     OW18442   3.979   1.348   0.290
 5929SOL    HW118443   3.883   1.349   0.263
 5929SOL    HW218444   3.991   1.401   0.374
 5930SOL     OW18445   3.829   1.013   1.726
 5930SOL    HW118446   3.752   0.980   1.780
 5930SOL    HW218447   3.914   0.983   1.768
 5931SOL     OW18448   4.396   0.203   1.489
 5931SOL    HW118449   4.486   0.187   1.449
 5931SOL    HW218450   4.404   0.208   1.588
 5932SOL     OW18451   3.799   0.345   0.033
 5932SOL    HW118452   3.707   0.317   0.004
 5932SOL    HW218453   3.830   0.422  -0.023
 5933SOL     OW18454   3.796   0.166   0.318
 5933SOL    HW118455   3.779   0.249   0.264
 5933SOL    HW218456   3.886   0.129   0.296
 5934SOL     OW18457   4.337   0.842   1.431
 5934SOL    HW118458   4.393   0.923   1.414
 5934SOL    HW218459   4.396   0.762   1.434
 5935SOL     OW18460   4.440   0.565   1.708
 5935SOL    HW118461   4.459   0.630   1.782
 5935SOL    HW218462   4.500   0.485   1.717
 5936SOL     OW18463   4.114   1.741   1.560
 5936SOL    HW118464   4.023   1.782   1.558
 5936SOL    HW218465   4.107   1.647   1.592
 5937SOL     OW18466   4.318   0.745   0.652
 5937SOL    HW118467   4.368   0.830   0.633
 5937SOL    HW218468   4.230   0.747   0.604
 5938SOL     OW18469   3.945   1.314   1.844
 5938SOL    HW118470   3.880   1.241   1.823
 5938SOL    HW218471   3.949   1.328   1.942
 5939SOL     OW18472   3.803   1.240   0.653
 5939SOL    HW118473   3.802   1.193   0.741
 5939SOL    HW218474   3.885   1.212   0.602
 5940SOL     OW18475   4.396   1.391   1.624
 5940SOL    HW118476   4.318   1.341   1.662
 5940SOL    HW218477   4.393   1.486   1.655
 5941SOL     OW18478   4.152   0.424   0.520
 5941SOL    HW118479   4.182   0.352   0.458
 5941SOL    HW218480   4.113   0.384   0.603
 5942SOL     OW18481   4.041   0.547   1.280
 5942SOL    HW118482   4.079   0.488   1.352
 5942SOL    HW218483   4.081   0.521   1.192
 5943SOL     OW18484   4.536   1.586   0.687
 5943SOL    HW118485   4.568   1.596   0.593
 5943SOL    HW218486   4.457   1.524   0.689
 5944SOL     OW18487   3.763   1.077   0.300
 5944SOL    HW118488   3.862   1.066   0.291
 5944SOL    HW218489   3.723   0.991   0.332
 5945SOL     OW18490   3.954   0.628   1.975
 5945SOL    HW118491   3.861   0.626   2.012
 5945SOL    HW218492   3.955   0.589   1.883
 5946SOL     OW18493   3.949   0.275   2.858
 5946SOL    HW118494   3.984   0.258   2.950
 5946SOL    HW218495   3.861   0.230   2.846
 5947SOL     OW18496   3.743   0.368   2.509
 5947SOL    HW118497   3.661   0.411   2.548
 5947SOL    HW218498   3.715   0.295   2.446
 5948SOL     OW18499   4.293   1.275   3.027
 5948SOL    HW118500   4.200   1.268   2.990
 5948SOL    HW218501   4.304   1.364   3.071
 5949SOL     OW18502   4.574   0.798   3.685
 5949SOL    HW118503   4.570   0.874   3.750
 5949SOL    HW218504   4.596   0.834   3.594
 5950SOL     OW18505   4.409   1.012   2.527
 5950SOL    HW118506   4.478   0.996   2.597
 5950SOL    HW218507   4.336   1.069   2.565
 5951SOL     OW18508   4.410   1.161   3.665
 5951SOL    HW118509   4.470   1.240   3.679
 5951SOL    HW218510   4.324   1.192   3.624
 5952SOL     OW18511   4.059   1.435   2.923
 5952SOL    HW118512   3.981   1.404   2.870
 5952SOL    HW218513   4.117   1.493   2.866
 5953SOL     OW18514   4.162   0.392   3.361
 5953SOL    HW118515   4.244   0.336   3.370
 5953SOL    HW218516   4.081   0.334   3.365
 5954SOL     OW18517   3.955   1.713   2.345
 5954SOL    HW118518   3.989   1.790   2.399
 5954SOL    HW218519   3.999   1.713   2.255
 5955SOL     OW18520   3.954   1.434   2.400
 5955SOL    HW118521   3.928   1.530   2.400
 5955SOL    HW218522   3.883   1.380   2.445
 5956SOL     OW18523   3.964   1.091   2.748
 5956SOL    HW118524   3.978   1.007   2.800
 5956SOL    HW218525   3.909   1.155   2.803
 5957SOL     OW18526   4.344   1.786   3.301
 5957SOL    HW118527   4.252   1.769   3.336
 5957SOL    HW218528   4.372   1.878   3.327
 5958SOL     OW18529   4.330   0.964   1.985
 5958SOL    HW118530   4.337   1.048   1.931
 5958SOL    HW218531   4.376   0.977   2.073
 5959SOL     OW18532   3.846   0.643   2.425
 5959SOL    HW118533   3.801   0.555   2.442
 5959SOL    HW218534   3.845   0.697   2.509
 5960SOL     OW18535   3.751   1.596   1.979
 5960SOL    HW118536   3.732   1.500   2.000
 5960SOL    HW218537   3.718   1.654   2.054
 5961SOL     OW18538   3.837   0.737   3.459
 5961SOL    HW118539   3.925   0.724   3.504
 5961SOL    HW218540   3.824   0.834   3.437
 5962SOL     OW18541   4.337   1.365   2.588
 5962SOL    HW118542   4.288   1.278   2.597
 5962SOL    HW218543   4.314   1.408   2.501
 5963SOL     OW18544   4.533   0.004   2.364
 5963SOL    HW118545   4.573   0.095   2.355
 5963SOL    HW218546   4.433   0.012   2.370
 5964SOL     OW18547   3.921   0.976   3.126
 5964SOL    HW118548   4.010   0.931   3.112
 5964SOL    HW218549   3.848   0.911   3.107
 5965SOL     OW18550   4.041   0.251   3.663
 5965SOL    HW118551   4.112   0.322   3.669
 5965SOL    HW218552   3.953   0.290   3.691
 5966SOL     OW18553   4.322   0.729   2.132
 5966SOL    HW118554   4.346   0.798   2.064
 5966SOL    HW218555   4.244   0.762   2.186
 5967SOL     OW18556   3.800   0.811   2.651
 5967SOL    HW118557   3.899   0.799   2.660
 5967SOL    HW218558   3.776   0.906   2.672
 5968SOL     OW18559   3.854   1.821   3.433
 5968SOL    HW118560   3.844   1.806   3.532
 5968SOL    HW218561   3.768   1.857   3.397
 5969SOL     OW18562   4.274   0.196   2.747
 5969SOL    HW118563   4.269   0.191   2.847
 5969SOL    HW218564   4.276   0.292   2.718
 5970SOL     OW18565   4.075   1.801   2.715
 5970SOL    HW118566   4.125   1.715   2.721
 5970SOL    HW218567   4.140   1.878   2.712
 5971SOL     OW18568   4.045   0.943   2.104
 5971SOL    HW118569   4.127   0.982   2.062
 5971SOL    HW218570   4.018   0.861   2.055
 5972SOL     OW18571   4.185   1.266   3.589
 5972SOL    HW118572   4.135   1.267   3.503
 5972SOL    HW218573   4.122   1.248   3.665
 5973SOL     OW18574   3.926   0.285   3.360
 5973SOL    HW118575   3.846   0.345   3.347
 5973SOL    HW218576   3.916   0.236   3.446
 5974SOL     OW18577   4.188   1.743   2.185
 5974SOL    HW118578   4.221   1.782   2.271
 5974SOL    HW218579   4.264   1.736   2.120
 5975SOL     OW18580   3.973   1.785   3.103
 5975SOL    HW118581   4.030   1.720   3.153
 5975SOL    HW218582   3.957   1.752   3.010
 5976SOL     OW18583   4.106   0.700   2.342
 5976SOL    HW118584   4.151   0.610   2.339
 5976SOL    HW218585   4.012   0.689   2.375
 5977SOL     OW18586   4.338   0.122   1.979
 5977SOL    HW118587   4.436   0.100   1.986
 5977SOL    HW218588   4.307   0.105   1.886
 5978SOL     OW18589   4.527   1.402   2.786
 5978SOL    HW118590   4.617   1.416   2.744
 5978SOL    HW218591   4.456   1.404   2.715
 5979SOL     OW18592   4.263   0.064   2.374
 5979SOL    HW118593   4.182   0.065   2.432
 5979SOL    HW218594   4.266   0.147   2.319
 5980SOL     OW18595   4.021   0.035   2.033
 5980SOL    HW118596   4.070   0.119   2.012
 5980SOL    HW218597   4.083  -0.030   2.078
 5981SOL     OW18598   4.800   0.683   3.326
 5981SOL    HW118599   4.720   0.622   3.329
 5981SOL    HW218600   4.881   0.630   3.302
 5982SOL     OW18601   4.183   1.152   2.603
 5982SOL    HW118602   4.112   1.125   2.668
 5982SOL    HW218603   4.157   1.124   2.510
 5983SOL     OW18604   3.802   0.556   3.248
 5983SOL    HW118605   3.894   0.555   3.207
 5983SOL    HW218606   3.796   0.630   3.315
 5984SOL     OW18607   4.285   0.222   3.009
 5984SOL    HW118608   4.323   0.138   3.046
 5984SOL    HW218609   4.197   0.241   3.053
 5985SOL     OW18610   4.212   1.385   2.036
 5985SOL    HW118611   4.125   1.370   2.083
 5985SOL    HW218612   4.195   1.411   1.941
 5986SOL     OW18613   4.251   0.256   2.190
 5986SOL    HW118614   4.278   0.197   2.115
 5986SOL    HW218615   4.251   0.351   2.159
 5987SOL     OW18616   4.134   0.813   3.113
 5987SOL    HW118617   4.220   0.825   3.163
 5987SOL    HW218618   4.092   0.726   3.140
 5988SOL     OW18619   3.788   1.564   3.193
 5988SOL    HW118620   3.742   1.646   3.159
 5988SOL    HW218621   3.886   1.583   3.202
 5989SOL     OW18622   4.091   1.100   2.363
 5989SOL    HW118623   4.084   1.183   2.307
 5989SOL    HW218624   4.095   1.020   2.303
 5990SOL     OW18625   4.290   0.537   2.727
 5990SOL    HW118626   4.302   0.603   2.653
 5990SOL    HW218627   4.336   0.571   2.810
 5991SOL     OW18628   4.078   1.510   3.191
 5991SOL    HW118629   4.057   1.466   3.104
 5991SOL    HW218630   4.175   1.536   3.194
 5992SOL     OW18631   4.126   0.751   3.460
 5992SOL    HW118632   4.194   0.806   3.413
 5992SOL    HW218633   4.166   0.663   3.487
 5993SOL     OW18634   4.228   0.050   3.602
 5993SOL    HW118635   4.186  -0.007   3.532
 5993SOL    HW218636   4.162   0.119   3.634
 5994SOL     OW18637   4.297   0.870   2.891
 5994SOL    HW118638   4.341   0.959   2.882
 5994SOL    HW218639   4.234   0.870   2.968
 5995SOL     OW18640   4.031   0.213   3.093
 5995SOL    HW118641   4.008   0.250   3.183
 5995SOL    HW218642   4.001   0.118   3.087
 5996SOL     OW18643   3.761   1.310   3.144
 5996SOL    HW118644   3.814   1.261   3.212
 5996SOL    HW218645   3.783   1.408   3.149
 5997SOL     OW18646   4.031   0.063   2.480
 5997SOL    HW118647   4.020   0.157   2.513
 5997SOL    HW218648   4.026   0.000   2.557
 5998SOL     OW18649   4.074   0.898   3.666
 5998SOL    HW118650   4.150   0.942   3.714
 5998SOL    HW218651   4.109   0.851   3.584
 5999SOL     OW18652   4.043   0.810   2.811
 5999SOL    HW118653   4.136   0.846   2.816
 5999SOL    HW218654   4.037   0.725   2.863
 6000SOL     OW18655   4.063   0.509   2.868
 6000SOL    HW118656   4.011   0.426   2.851
 6000SOL    HW218657   4.140   0.514   2.804
 6001SOL     OW18658   3.732   1.326   2.062
 6001SOL    HW118659   3.639   1.347   2.031
 6001SOL    HW218660   3.742   1.227   2.075
 6002SOL     OW18661   3.812   1.801   2.789
 6002SOL    HW118662   3.770   1.715   2.762
 6002SOL    HW218663   3.906   1.804   2.755
 6003SOL     OW18664   4.228   1.568   2.772
 6003SOL    HW118665   4.294   1.642   2.781
 6003SOL    HW218666   4.272   1.489   2.730
 6004SOL     OW18667   3.764   0.544   2.976
 6004SOL    HW118668   3.849   0.511   2.935
 6004SOL    HW218669   3.777   0.559   3.074
 6005SOL     OW18670   3.913   0.520   3.584
 6005SOL    HW118671   3.972   0.480   3.514
 6005SOL    HW218672   3.855   0.591   3.543
 6006SOL     OW18673   4.539   0.572   2.187
 6006SOL    HW118674   4.546   0.483   2.141
 6006SOL    HW218675   4.445   0.606   2.179
 6007SOL     OW18676   3.976   1.564   3.606
 6007SOL    HW118677   3.946   1.621   3.682
 6007SOL    HW218678   3.969   1.467   3.632
 6008SOL     OW18679   4.197   0.500   2.053
 6008SOL    HW118680   4.258   0.580   2.057
 6008SOL    HW218681   4.102   0.531   2.060
 6009SOL     OW18682   3.883   1.137   3.328
 6009SOL    HW118683   3.905   1.076   3.404
 6009SOL    HW218684   3.893   1.088   3.242
 6010SOL     OW18685   3.807   1.258   2.884
 6010SOL    HW118686   3.802   1.257   2.984
 6010SOL    HW218687   3.724   1.217   2.846
 6011SOL     OW18688   4.412   1.662   3.578
 6011SOL    HW118689   4.356   1.743   3.587
 6011SOL    HW218690   4.464   1.666   3.492
 6012SOL     OW18691   3.854   1.794   3.713
 6012SOL    HW118692   3.813   1.720   3.766
 6012SOL    HW218693   3.918   1.845   3.771
 6013SOL     OW18694   3.987   0.326   2.582
 6013SOL    HW118695   3.908   0.377   2.548
 6013SOL    HW218696   3.978   0.311   2.680
 6014SOL     OW18697   4.096   1.288   3.352
 6014SOL    HW118698   4.083   1.381   3.318
 6014SOL    HW218699   4.012   1.236   3.339
 6015SOL     OW18700   4.314   1.487   2.353
 6015SOL    HW118701   4.356   1.429   2.283
 6015SOL    HW218702   4.270   1.566   2.309
 6016SOL     OW18703   3.979   1.348   2.152
 6016SOL    HW118704   3.883   1.349   2.125
 6016SOL    HW218705   3.991   1.401   2.236
 6017SOL     OW18706   3.829   1.013   3.588
 6017SOL    HW118707   3.752   0.980   3.642
 6017SOL    HW218708   3.914   0.983   3.630
 6018SOL     OW18709   4.396   0.203   3.351
 6018SOL    HW118710   4.486   0.187   3.311
 6018SOL    HW218711   4.404   0.208   3.450
 6019SOL     OW18712   3.799   0.345   1.895
 6019SOL    HW118713   3.707   0.317   1.866
 6019SOL    HW218714   3.830   0.422   1.839
 6020SOL     OW18715   3.796   0.166   2.180
 6020SOL    HW118716   3.779   0.249   2.126
 6020SOL    HW218717   3.886   0.129   2.158
 6021SOL     OW18718   4.337   0.842   3.293
 6021SOL    HW118719   4.393   0.923   3.276
 6021SOL    HW218720   4.396   0.762   3.296
 6022SOL     OW18721   4.440   0.565   3.570
 6022SOL    HW118722   4.459   0.630   3.644
 6022SOL    HW218723   4.500   0.485   3.579
 6023SOL     OW18724   4.114   1.741   3.422
 6023SOL    HW118725   4.023   1.782   3.420
 6023SOL    HW218726   4.107   1.647   3.454
 6024SOL     OW18727   4.318   0.745   2.514
 6024SOL    HW118728   4.368   0.830   2.495
 6024SOL    HW218729   4.230   0.747   2.466
 6025SOL     OW18730   3.945   1.314   3.706
 6025SOL    HW118731   3.880   1.241   3.685
 6025SOL    HW218732   3.949   1.328   3.804
 6026SOL     OW18733   3.803   1.240   2.515
 6026SOL    HW118734   3.802   1.193   2.603
 6026SOL    HW218735   3.885   1.212   2.464
 6027SOL     OW18736   4.396   1.391   3.486
 6027SOL    HW118737   4.318   1.341   3.524
 6027SOL    HW218738   4.393   1.486   3.517
 6028SOL     OW18739   4.152   0.424   2.382
 6028SOL    HW118740   4.182   0.352   2.320
 6028SOL    HW218741   4.113   0.384   2.465
 6029SOL     OW18742   4.041   0.547   3.142
 6029SOL    HW118743   4.079   0.488   3.214
 6029SOL    HW218744   4.081   0.521   3.054
 6030SOL     OW18745   4.536   1.586   2.549
 6030SOL    HW118746   4.568   1.596   2.455
 6030SOL    HW218747   4.457   1.524   2.551
 6031SOL     OW18748   3.763   1.077   2.162
 6031SOL    HW118749   3.862   1.066   2.153
 6031SOL    HW218750   3.723   0.991   2.194
 6032SOL     OW18751   3.954   0.628   3.837
 6032SOL    HW118752   3.861   0.626   3.874
 6032SOL    HW218753   3.955   0.589   3.745
 6033SOL     OW18754   3.949   0.275   4.720
 6033SOL    HW118755   3.984   0.258   4.812
 6033SOL    HW218756   3.861   0.230   4.708
 6034SOL     OW18757   3.743   0.368   4.371
 6034SOL    HW118758   3.661   0.411   4.410
 6034SOL    HW218759   3.715   0.295   4.308
 6035SOL     OW18760   4.293   1.275   4.889
 6035SOL    HW118761   4.200   1.268   4.852
 6035SOL    HW218762   4.304   1.364   4.933
 6036SOL     OW18763   4.574   0.798   5.547
 6036SOL    HW118764   4.570   0.874   5.612
 6036SOL    HW218765   4.596   0.834   5.456
 6037SOL     OW18766   4.409   1.012   4.389
 6037SOL    HW118767   4.478   0.996   4.459
 6037SOL    HW218768   4.336   1.069   4.427
 6038SOL     OW18769   4.410   1.161   5.527
 6038SOL    HW118770   4.470   1.240   5.541
 6038SOL    HW218771   4.324   1.192   5.486
 6039SOL     OW18772   4.059   1.435   4.785
 6039SOL    HW118773   3.981   1.404   4.732
 6039SOL    HW218774   4.117   1.493   4.728
 6040SOL     OW18775   4.162   0.392   5.223
 6040SOL    HW118776   4.244   0.336   5.232
 6040SOL    HW218777   4.081   0.334   5.227
 6041SOL     OW18778   3.955   1.713   4.207
 6041SOL    HW118779   3.989   1.790   4.261
 6041SOL    HW218780   3.999   1.713   4.117
 6042SOL     OW18781   3.954   1.434   4.262
 6042SOL    HW118782   3.928   1.530   4.262
 6042SOL    HW218783   3.883   1.380   4.307
 6043SOL     OW18784   3.964   1.091   4.610
 6043SOL    HW118785   3.978   1.007   4.662
 6043SOL    HW218786   3.909   1.155   4.665
 6044SOL     OW18787   4.344   1.786   5.163
 6044SOL    HW118788   4.252   1.769   5.198
 6044SOL    HW218789   4.372   1.878   5.189
 6045SOL     OW18790   4.330   0.964   3.847
 6045SOL    HW118791   4.337   1.048   3.793
 6045SOL    HW218792   4.376   0.977   3.935
 6046SOL     OW18793   3.846   0.643   4.287
 6046SOL    HW118794   3.801   0.555   4.304
 6046SOL    HW218795   3.845   0.697   4.371
 6047SOL     OW18796   3.751   1.596   3.841
 6047SOL    HW118797   3.732   1.500   3.862
 6047SOL    HW218798   3.718   1.654   3.916
 6048SOL     OW18799   3.837   0.737   5.321
 6048SOL    HW118800   3.925   0.724   5.366
 6048SOL    HW218801   3.824   0.834   5.299
 6049SOL     OW18802   4.337   1.365   4.450
 6049SOL    HW118803   4.288   1.278   4.459
 6049SOL    HW218804   4.314   1.408   4.363
 6050SOL     OW18805   4.533   0.004   4.226
 6050SOL    HW118806   4.573   0.095   4.217
 6050SOL    HW218807   4.433   0.012   4.232
 6051SOL     OW18808   3.921   0.976   4.988
 6051SOL    HW118809   4.010   0.931   4.974
 6051SOL    HW218810   3.848   0.911   4.969
 6052SOL     OW18811   4.041   0.251   5.525
 6052SOL    HW118812   4.112   0.322   5.531
 6052SOL    HW218813   3.953   0.290   5.553
 6053SOL     OW18814   4.322   0.729   3.994
 6053SOL    HW118815   4.346   0.798   3.926
 6053SOL    HW218816   4.244   0.762   4.048
 6054SOL     OW18817   3.800   0.811   4.513
 6054SOL    HW118818   3.899   0.799   4.522
 6054SOL    HW218819   3.776   0.906   4.534
 6055SOL     OW18820   3.854   1.821   5.295
 6055SOL    HW118821   3.844   1.806   5.394
 6055SOL    HW218822   3.768   1.857   5.259
 6056SOL     OW18823   4.274   0.196   4.609
 6056SOL    HW118824   4.269   0.191   4.709
 6056SOL    HW218825   4.276   0.292   4.580
 6057SOL     OW18826   4.075   1.801   4.577
 6057SOL    HW118827   4.125   1.715   4.583
 6057SOL    HW218828   4.140   1.878   4.574
 6058SOL     OW18829   4.045   0.943   3.966
 6058SOL    HW118830   4.127   0.982   3.924
 6058SOL    HW218831   4.018   0.861   3.917
 6059SOL     OW18832   4.185   1.266   5.451
 6059SOL    HW118833   4.135   1.267   5.365
 6059SOL    HW218834   4.122   1.248   5.527
 6060SOL     OW18835   3.926   0.285   5.222
 6060SOL    HW118836   3.846   0.345   5.209
 6060SOL    HW218837   3.916   0.236   5.308
 6061SOL     OW18838   4.188   1.743   4.047
 6061SOL    HW118839   4.221   1.782   4.133
 6061SOL    HW218840   4.264   1.736   3.982
 6062SOL     OW18841   3.973   1.785   4.965
 6062SOL    HW118842   4.030   1.720   5.015
 6062SOL    HW218843   3.957   1.752   4.872
 6063SOL     OW18844   4.106   0.700   4.204
 6063SOL    HW118845   4.151   0.610   4.201
 6063SOL    HW218846   4.012   0.689   4.237
 6064SOL     OW18847   4.338   0.122   3.841
 6064SOL    HW118848   4.436   0.100   3.848
 6064SOL    HW218849   4.307   0.105   3.748
 6065SOL     OW18850   4.527   1.402   4.648
 6065SOL    HW118851   4.617   1.416   4.606
 6065SOL    HW218852   4.456   1.404   4.577
 6066SOL     OW18853   4.263   0.064   4.236
 6066SOL    HW118854   4.182   0.065   4.294
 6066SOL    HW218855   4.266   0.147   4.181
 6067SOL     OW18856   4.021   0.035   3.895
 6067SOL    HW118857   4.070   0.119   3.874
 6067SOL    HW218858   4.083  -0.030   3.940
 6068SOL     OW18859   4.800   0.683   5.188
 6068SOL    HW118860   4.720   0.622   5.191
 6068SOL    HW218861   4.881   0.630   5.164
 6069SOL     OW18862   4.183   1.152   4.465
 6069SOL    HW118863   4.112   1.125   4.530
 6069SOL    HW218864   4.157   1.124   4.372
 6070SOL     OW18865   3.802   0.556   5.110
 6070SOL    HW118866   3.894   0.555   5.069
 6070SOL    HW218867   3.796   0.630   5.177
 6071SOL     OW18868   4.285   0.222   4.871
 6071SOL    HW118869   4.323   0.138   4.908
 6071SOL    HW218870   4.197   0.241   4.915
 6072SOL     OW18871   4.212   1.385   3.898
 6072SOL    HW118872   4.125   1.370   3.945
 6072SOL    HW218873   4.195   1.411   3.803
 6073SOL     OW18874   4.251   0.256   4.052
 6073SOL    HW118875   4.278   0.197   3.977
 6073SOL    HW218876   4.251   0.351   4.021
 6074SOL     OW18877   4.134   0.813   4.975
 6074SOL    HW118878   4.220   0.825   5.025
 6074SOL    HW218879   4.092   0.726   5.002
 6075SOL     OW18880   3.788   1.564   5.055
 6075SOL    HW118881   3.742   1.646   5.021
 6075SOL    HW218882   3.886   1.583   5.064
 6076SOL     OW18883   4.091   1.100   4.225
 6076SOL    HW118884   4.084   1.183   4.169
 6076SOL    HW218885   4.095   1.020   4.165
 6077SOL     OW18886   4.290   0.537   4.589
 6077SOL    HW118887   4.302   0.603   4.515
 6077SOL    HW218888   4.336   0.571   4.672
 6078SOL     OW18889   4.078   1.510   5.053
 6078SOL    HW118890   4.057   1.466   4.966
 6078SOL    HW218891   4.175   1.536   5.056
 6079SOL     OW18892   4.126   0.751   5.322
 6079SOL    HW118893   4.194   0.806   5.275
 6079SOL    HW218894   4.166   0.663   5.349
 6080SOL     OW18895   4.228   0.050   5.464
 6080SOL    HW118896   4.186  -0.007   5.394
 6080SOL    HW218897   4.162   0.119   5.496
 6081SOL     OW18898   4.297   0.870   4.753
 6081SOL    HW118899   4.341   0.959   4.744
 6081SOL    HW218900   4.234   0.870   4.830
 6082SOL     OW18901   4.031   0.213   4.955
 6082SOL    HW118902   4.008   0.250   5.045
 6082SOL    HW218903   4.001   0.118   4.949
 6083SOL     OW18904   3.761   1.310   5.006
 6083SOL    HW118905   3.814   1.261   5.074
 6083SOL    HW218906   3.783   1.408   5.011
 6084SOL     OW18907   4.031   0.063   4.342
 6084SOL    HW118908   4.020   0.157   4.375
 6084SOL    HW218909   4.026   0.000   4.419
 6085SOL     OW18910   4.074   0.898   5.528
 6085SOL    HW118911   4.150   0.942   5.576
 6085SOL    HW218912   4.109   0.851   5.446
 6086SOL     OW18913   4.043   0.810   4.673
 6086SOL    HW118914   4.136   0.846   4.678
 6086SOL    HW218915   4.037   0.725   4.725
 6087SOL     OW18916   4.063   0.509   4.730
 6087SOL    HW118917   4.011   0.426   4.713
 6087SOL    HW218918   4.140   0.514   4.666
 6088SOL     OW18919   3.732   1.326   3.924
 6088SOL    HW118920   3.639   1.347   3.893
 6088SOL    HW218921   3.742   1.227   3.937
 6089SOL     OW18922   3.812   1.801   4.651
 6089SOL    HW118923   3.770   1.715   4.624
 6089SOL    HW218924   3.906   1.804   4.617
 6090SOL     OW18925   4.228   1.568   4.634
 6090SOL    HW118926   4.294   1.642   4.643
 6090SOL    HW218927   4.272   1.489   4.592
 6091SOL     OW18928   3.764   0.544   4.838
 6091SOL    HW118929   3.849   0.511   4.797
 6091SOL    HW218930   3.777   0.559   4.936
 6092SOL     OW18931   3.913   0.520   5.446
 6092SOL    HW118932   3.972   0.480   5.376
 6092SOL    HW218933   3.855   0.591   5.405
 6093SOL     OW18934   4.539   0.572   4.049
 6093SOL    HW118935   4.546   0.483   4.003
 6093SOL    HW218936   4.445   0.606   4.041
 6094SOL     OW18937   3.976   1.564   5.468
 6094SOL    HW118938   3.946   1.621   5.544
 6094SOL    HW218939   3.969   1.467   5.494
 6095SOL     OW18940   4.197   0.500   3.915
 6095SOL    HW118941   4.258   0.580   3.919
 6095SOL    HW218942   4.102   0.531   3.922
 6096SOL     OW18943   3.883   1.137   5.190
 6096SOL    HW118944   3.905   1.076   5.266
 6096SOL    HW218945   3.893   1.088   5.104
 6097SOL     OW18946   3.807   1.258   4.746
 6097SOL    HW118947   3.802   1.257   4.846
 6097SOL    HW218948   3.724   1.217   4.708
 6098SOL     OW18949   4.412   1.662   5.440
 6098SOL    HW118950   4.356   1.743   5.449
 6098SOL    HW218951   4.464   1.666   5.354
 6099SOL     OW18952   3.854   1.794   5.575
 6099SOL    HW118953   3.813   1.720   5.628
 6099SOL    HW218954   3.918   1.845   5.633
 6100SOL     OW18955   3.987   0.326   4.444
 6100SOL    HW118956   3.908   0.377   4.410
 6100SOL    HW218957   3.978   0.311   4.542
 6101SOL     OW18958   4.096   1.288   5.214
 6101SOL    HW118959   4.083   1.381   5.180
 6101SOL    HW218960   4.012   1.236   5.201
 6102SOL     OW18961   4.314   1.487   4.215
 6102SOL    HW118962   4.356   1.429   4.145
 6102SOL    HW218963   4.270   1.566   4.171
 6103SOL     OW18964   3.979   1.348   4.014
 6103SOL    HW118965   3.883   1.349   3.987
 6103SOL    HW218966   3.991   1.401   4.098
 6104SOL     OW18967   3.829   1.013   5.450
 6104SOL    HW118968   3.752   0.980   5.504
 6104SOL    HW218969   3.914   0.983   5.492
 6105SOL     OW18970   4.396   0.203   5.213
 6105SOL    HW118971   4.486   0.187   5.173
 6105SOL    HW218972   4.404   0.208   5.312
 6106SOL     OW18973   3.799   0.345   3.757
 6106SOL    HW118974   3.707   0.317   3.728
 6106SOL    HW218975   3.830   0.422   3.701
 6107SOL     OW18976   3.796   0.166   4.042
 6107SOL    HW118977   3.779   0.249   3.988
 6107SOL    HW218978   3.886   0.129   4.020
 6108SOL     OW18979   4.337   0.842   5.155
 6108SOL    HW118980   4.393   0.923   5.138
 6108SOL    HW218981   4.396   0.762   5.158
 6109SOL     OW18982   4.440   0.565   5.432
 6109SOL    HW118983   4.459   0.630   5.506
 6109SOL    HW218984   4.500   0.485   5.441
 6110SOL     OW18985   4.114   1.741   5.284
 6110SOL    HW118986   4.023   1.782   5.282
 6110SOL    HW218987   4.107   1.647   5.316
 6111SOL     OW18988   4.318   0.745   4.376
 6111SOL    HW118989   4.368   0.830   4.357
 6111SOL    HW218990   4.230   0.747   4.328
 6112SOL     OW18991   3.945   1.314   5.568
 6112SOL    HW118992   3.880   1.241   5.547
 6112SOL    HW218993   3.949   1.328   5.666
 6113SOL     OW18994   3.803   1.240   4.377
 6113SOL    HW118995   3.802   1.193   4.465
 6113SOL    HW218996   3.885   1.212   4.326
 6114SOL     OW18997   4.396   1.391   5.348
 6114SOL    HW118998   4.318   1.341   5.386
 6114SOL    HW218999   4.393   1.486   5.379
 6115SOL     OW19000   4.152   0.424   4.244
 6115SOL    HW119001   4.182   0.352   4.182
 6115SOL    HW219002   4.113   0.384   4.327
 6116SOL     OW19003   4.041   0.547   5.004
 6116SOL    HW119004   4.079   0.488   5.076
 6116SOL    HW219005   4.081   0.521   4.916
 6117SOL     OW19006   4.536   1.586   4.411
 6117SOL    HW119007   4.568   1.596   4.317
 6117SOL    HW219008   4.457   1.524   4.413
 6118SOL     OW19009   3.763   1.077   4.024
 6118SOL    HW119010   3.862   1.066   4.015
 6118SOL    HW219011   3.723   0.991   4.056
 6119SOL     OW19012   3.954   0.628   5.699
 6119SOL    HW119013   3.861   0.626   5.736
 6119SOL    HW219014   3.955   0.589   5.607
 6120SOL     OW19015   3.949   0.275   6.582
 6120SOL    HW119016   3.984   0.258   6.674
 6120SOL    HW219017   3.861   0.230   6.570
 6121SOL     OW19018   3.743   0.368   6.233
 6121SOL    HW119019   3.661   0.411   6.272
 6121SOL    HW219020   3.715   0.295   6.170
 6122SOL     OW19021   4.293   1.275   6.751
 6122SOL    HW119022   4.200   1.268   6.714
 6122SOL    HW219023   4.304   1.364   6.795
 6123SOL     OW19024   4.574   0.798   7.409
 6123SOL    HW119025   4.570   0.874   7.474
 6123SOL    HW219026   4.596   0.834   7.318
 6124SOL     OW19027   4.409   1.012   6.251
 6124SOL    HW119028   4.478   0.996   6.321
 6124SOL    HW219029   4.336   1.069   6.289
 6125SOL     OW19030   4.410   1.161   7.389
 6125SOL    HW119031   4.470   1.240   7.403
 6125SOL    HW219032   4.324   1.192   7.348
 6126SOL     OW19033   4.059   1.435   6.647
 6126SOL    HW119034   3.981   1.404   6.594
 6126SOL    HW219035   4.117   1.493   6.590
 6127SOL     OW19036   4.162   0.392   7.085
 6127SOL    HW119037   4.244   0.336   7.094
 6127SOL    HW219038   4.081   0.334   7.089
 6128SOL     OW19039   3.955   1.713   6.069
 6128SOL    HW119040   3.989   1.790   6.123
 6128SOL    HW219041   3.999   1.713   5.979
 6129SOL     OW19042   3.954   1.434   6.124
 6129SOL    HW119043   3.928   1.530   6.124
 6129SOL    HW219044   3.883   1.380   6.169
 6130SOL     OW19045   3.964   1.091   6.472
 6130SOL    HW119046   3.978   1.007   6.524
 6130SOL    HW219047   3.909   1.155   6.527
 6131SOL     OW19048   4.344   1.786   7.025
 6131SOL    HW119049   4.252   1.769   7.060
 6131SOL    HW219050   4.372   1.878   7.051
 6132SOL     OW19051   4.330   0.964   5.709
 6132SOL    HW119052   4.337   1.048   5.655
 6132SOL    HW219053   4.376   0.977   5.797
 6133SOL     OW19054   3.846   0.643   6.149
 6133SOL    HW119055   3.801   0.555   6.166
 6133SOL    HW219056   3.845   0.697   6.233
 6134SOL     OW19057   3.751   1.596   5.703
 6134SOL    HW119058   3.732   1.500   5.724
 6134SOL    HW219059   3.718   1.654   5.778
 6135SOL     OW19060   3.837   0.737   7.183
 6135SOL    HW119061   3.925   0.724   7.228
 6135SOL    HW219062   3.824   0.834   7.161
 6136SOL     OW19063   4.337   1.365   6.312
 6136SOL    HW119064   4.288   1.278   6.321
 6136SOL    HW219065   4.314   1.408   6.225
 6137SOL     OW19066   4.533   0.004   6.088
 6137SOL    HW119067   4.573   0.095   6.079
 6137SOL    HW219068   4.433   0.012   6.094
 6138SOL     OW19069   3.921   0.976   6.850
 6138SOL    HW119070   4.010   0.931   6.836
 6138SOL    HW219071   3.848   0.911   6.831
 6139SOL     OW19072   4.041   0.251   7.387
 6139SOL    HW119073   4.112   0.322   7.393
 6139SOL    HW219074   3.953   0.290   7.415
 6140SOL     OW19075   4.322   0.729   5.856
 6140SOL    HW119076   4.346   0.798   5.788
 6140SOL    HW219077   4.244   0.762   5.910
 6141SOL     OW19078   3.800   0.811   6.375
 6141SOL    HW119079   3.899   0.799   6.384
 6141SOL    HW219080   3.776   0.906   6.396
 6142SOL     OW19081   3.854   1.821   7.157
 6142SOL    HW119082   3.844   1.806   7.256
 6142SOL    HW219083   3.768   1.857   7.121
 6143SOL     OW19084   4.274   0.196   6.471
 6143SOL    HW119085   4.269   0.191   6.571
 6143SOL    HW219086   4.276   0.292   6.442
 6144SOL     OW19087   4.075   1.801   6.439
 6144SOL    HW119088   4.125   1.715   6.445
 6144SOL    HW219089   4.140   1.878   6.436
 6145SOL     OW19090   4.045   0.943   5.828
 6145SOL    HW119091   4.127   0.982   5.786
 6145SOL    HW219092   4.018   0.861   5.779
 6146SOL     OW19093   4.185   1.266   7.313
 6146SOL    HW119094   4.135   1.267   7.227
 6146SOL    HW219095   4.122   1.248   7.389
 6147SOL     OW19096   3.926   0.285   7.084
 6147SOL    HW119097   3.846   0.345   7.071
 6147SOL    HW219098   3.916   0.236   7.170
 6148SOL     OW19099   4.188   1.743   5.909
 6148SOL    HW119100   4.221   1.782   5.995
 6148SOL    HW219101   4.264   1.736   5.844
 6149SOL     OW19102   3.973   1.785   6.827
 6149SOL    HW119103   4.030   1.720   6.877
 6149SOL    HW219104   3.957   1.752   6.734
 6150SOL     OW19105   4.106   0.700   6.066
 6150SOL    HW119106   4.151   0.610   6.063
 6150SOL    HW219107   4.012   0.689   6.099
 6151SOL     OW19108   4.338   0.122   5.703
 6151SOL    HW119109   4.436   0.100   5.710
 6151SOL    HW219110   4.307   0.105   5.610
 6152SOL     OW19111   4.527   1.402   6.510
 6152SOL    HW119112   4.617   1.416   6.468
 6152SOL    HW219113   4.456   1.404   6.439
 6153SOL     OW19114   4.263   0.064   6.098
 6153SOL    HW119115   4.182   0.065   6.156
 6153SOL    HW219116   4.266   0.147   6.043
 6154SOL     OW19117   4.021   0.035   5.757
 6154SOL    HW119118   4.070   0.119   5.736
 6154SOL    HW219119   4.083  -0.030   5.802
 6155SOL     OW19120   4.800   0.683   7.050
 6155SOL    HW119121   4.720   0.622   7.053
 6155SOL    HW219122   4.881   0.630   7.026
 6156SOL     OW19123   4.183   1.152   6.327
 6156SOL    HW119124   4.112   1.125   6.392
 6156SOL    HW219125   4.157   1.124   6.234
 6157SOL     OW19126   3.802   0.556   6.972
 6157SOL    HW119127   3.894   0.555   6.931
 6157SOL    HW219128   3.796   0.630   7.039
 6158SOL     OW19129   4.285   0.222   6.733
 6158SOL    HW119130   4.323   0.138   6.770
 6158SOL    HW219131   4.197   0.241   6.777
 6159SOL     OW19132   4.212   1.385   5.760
 6159SOL    HW119133   4.125   1.370   5.807
 6159SOL    HW219134   4.195   1.411   5.665
 6160SOL     OW19135   4.251   0.256   5.914
 6160SOL    HW119136   4.278   0.197   5.839
 6160SOL    HW219137   4.251   0.351   5.883
 6161SOL     OW19138   4.134   0.813   6.837
 6161SOL    HW119139   4.220   0.825   6.887
 6161SOL    HW219140   4.092   0.726   6.864
 6162SOL     OW19141   3.788   1.564   6.917
 6162SOL    HW119142   3.742   1.646   6.883
 6162SOL    HW219143   3.886   1.583   6.926
 6163SOL     OW19144   4.091   1.100   6.087
 6163SOL    HW119145   4.084   1.183   6.031
 6163SOL    HW219146   4.095   1.020   6.027
 6164SOL     OW19147   4.290   0.537   6.451
 6164SOL    HW119148   4.302   0.603   6.377
 6164SOL    HW219149   4.336   0.571   6.534
 6165SOL     OW19150   4.078   1.510   6.915
 6165SOL    HW119151   4.057   1.466   6.828
 6165SOL    HW219152   4.175   1.536   6.918
 6166SOL     OW19153   4.126   0.751   7.184
 6166SOL    HW119154   4.194   0.806   7.137
 6166SOL    HW219155   4.166   0.663   7.211
 6167SOL     OW19156   4.228   0.050   7.326
 6167SOL    HW119157   4.186  -0.007   7.256
 6167SOL    HW219158   4.162   0.119   7.358
 6168SOL     OW19159   4.297   0.870   6.615
 6168SOL    HW119160   4.341   0.959   6.606
 6168SOL    HW219161   4.234   0.870   6.692
 6169SOL     OW19162   4.031   0.213   6.817
 6169SOL    HW119163   4.008   0.250   6.907
 6169SOL    HW219164   4.001   0.118   6.811
 6170SOL     OW19165   3.761   1.310   6.868
 6170SOL    HW119166   3.814   1.261   6.936
 6170SOL    HW219167   3.783   1.408   6.873
 6171SOL     OW19168   4.031   0.063   6.204
 6171SOL    HW119169   4.020   0.157   6.237
 6171SOL    HW219170   4.026   0.000   6.281
 6172SOL     OW19171   4.074   0.898   7.390
 6172SOL    HW119172   4.150   0.942   7.438
 6172SOL    HW219173   4.109   0.851   7.308
 6173SOL     OW19174   4.043   0.810   6.535
 6173SOL    HW119175   4.136   0.846   6.540
 6173SOL    HW219176   4.037   0.725   6.587
 6174SOL     OW19177   4.063   0.509   6.592
 6174SOL    HW119178   4.011   0.426   6.575
 6174SOL    HW219179   4.140   0.514   6.528
 6175SOL     OW19180   3.732   1.326   5.786
 6175SOL    HW119181   3.639   1.347   5.755
 6175SOL    HW219182   3.742   1.227   5.799
 6176SOL     OW19183   3.812   1.801   6.513
 6176SOL    HW119184   3.770   1.715   6.486
 6176SOL    HW219185   3.906   1.804   6.479
 6177SOL     OW19186   4.228   1.568   6.496
 6177SOL    HW119187   4.294   1.642   6.505
 6177SOL    HW219188   4.272   1.489   6.454
 6178SOL     OW19189   3.764   0.544   6.700
 6178SOL    HW119190   3.849   0.511   6.659
 6178SOL    HW219191   3.777   0.559   6.798
 6179SOL     OW19192   3.913   0.520   7.308
 6179SOL    HW119193   3.972   0.480   7.238
 6179SOL    HW219194   3.855   0.591   7.267
 6180SOL     OW19195   4.539   0.572   5.911
 6180SOL    HW119196   4.546   0.483   5.865
 6180SOL    HW219197   4.445   0.606   5.903
 6181SOL     OW19198   3.976   1.564   7.330
 6181SOL    HW119199   3.946   1.621   7.406
 6181SOL    HW219200   3.969   1.467   7.356
 6182SOL     OW19201   4.197   0.500   5.777
 6182SOL    HW119202   4.258   0.580   5.781
 6182SOL    HW219203   4.102   0.531   5.784
 6183SOL     OW19204   3.883   1.137   7.052
 6183SOL    HW119205   3.905   1.076   7.128
 6183SOL    HW219206   3.893   1.088   6.966
 6184SOL     OW19207   3.807   1.258   6.608
 6184SOL    HW119208   3.802   1.257   6.708
 6184SOL    HW219209   3.724   1.217   6.570
 6185SOL     OW19210   4.412   1.662   7.302
 6185SOL    HW119211   4.356   1.743   7.311
 6185SOL    HW219212   4.464   1.666   7.216
 6186SOL     OW19213   3.854   1.794   7.437
 6186SOL    HW119214   3.813   1.720   7.490
 6186SOL    HW219215   3.918   1.845   7.495
 6187SOL     OW19216   3.987   0.326   6.306
 6187SOL    HW119217   3.908   0.377   6.272
 6187SOL    HW219218   3.978   0.311   6.404
 6188SOL     OW19219   4.096   1.288   7.076
 6188SOL    HW119220   4.083   1.381   7.042
 6188SOL    HW219221   4.012   1.236   7.063
 6189SOL     OW19222   4.314   1.487   6.077
 6189SOL    HW119223   4.356   1.429   6.007
 6189SOL    HW219224   4.270   1.566   6.033
 6190SOL     OW19225   3.979   1.348   5.876
 6190SOL    HW119226   3.883   1.349   5.849
 6190SOL    HW219227   3.991   1.401   5.960
 6191SOL     OW19228   3.829   1.013   7.312
 6191SOL    HW119229   3.752   0.980   7.366
 6191SOL    HW219230   3.914   0.983   7.354
 6192SOL     OW19231   4.396   0.203   7.075
 6192SOL    HW119232   4.486   0.187   7.035
 6192SOL    HW219233   4.404   0.208   7.174
 6193SOL     OW19234   3.799   0.345   5.619
 6193SOL    HW119235   3.707   0.317   5.590
 6193SOL    HW219236   3.830   0.422   5.563
 6194SOL     OW19237   3.796   0.166   5.904
 6194SOL    HW119238   3.779   0.249   5.850
 6194SOL    HW219239   3.886   0.129   5.882
 6195SOL     OW19240   4.337   0.842   7.017
 6195SOL    HW119241   4.393   0.923   7.000
 6195SOL    HW219242   4.396   0.762   7.020
 6196SOL     OW19243   4.440   0.565   7.294
 6196SOL    HW119244   4.459   0.630   7.368
 6196SOL    HW219245   4.500   0.485   7.303
 6197SOL     OW19246   4.114   1.741   7.146
 6197SOL    HW119247   4.023   1.782   7.144
 6197SOL    HW219248   4.107   1.647   7.178
 6198SOL     OW19249   4.318   0.745   6.238
 6198SOL    HW119250   4.368   0.830   6.219
 6198SOL    HW219251   4.230   0.747   6.190
 6199SOL     OW19252   3.945   1.314   7.430
 6199SOL    HW119253   3.880   1.241   7.409
 6199SOL    HW219254   3.949   1.328   7.528
 6200SOL     OW19255   3.803   1.240   6.239
 6200SOL    HW119256   3.802   1.193   6.327
 6200SOL    HW219257   3.885   1.212   6.188
 6201SOL     OW19258   4.396   1.391   7.210
 6201SOL    HW119259   4.318   1.341   7.248
 6201SOL    HW219260   4.393   1.486   7.241
 6202SOL     OW19261   4.152   0.424   6.106
 6202SOL    HW119262   4.182   0.352   6.044
 6202SOL    HW219263   4.113   0.384   6.189
 6203SOL     OW19264   4.041   0.547   6.866
 6203SOL    HW119265   4.079   0.488   6.938
 6203SOL    HW219266   4.081   0.521   6.778
 6204SOL     OW19267   4.536   1.586   6.273
 6204SOL    HW119268   4.568   1.596   6.179
 6204SOL    HW219269   4.457   1.524   6.275
 6205SOL     OW19270   3.763   1.077   5.886
 6205SOL    HW119271   3.862   1.066   5.877
 6205SOL    HW219272   3.723   0.991   5.918
 6206SOL     OW19273   3.954   0.628   7.561
 6206SOL    HW119274   3.861   0.626   7.598
 6206SOL    HW219275   3.955   0.589   7.469
 6207SOL     OW19276   3.949   0.275   8.444
 6207SOL    HW119277   3.984   0.258   8.536
 6207SOL    HW219278   3.861   0.230   8.432
 6208SOL     OW19279   3.743   0.368   8.095
 6208SOL    HW119280   3.661   0.411   8.134
 6208SOL    HW219281   3.715   0.295   8.032
 6209SOL     OW19282   4.293   1.275   8.613
 6209SOL    HW119283   4.200   1.268   8.576
 6209SOL    HW219284   4.304   1.364   8.657
 6210SOL     OW19285   4.574   0.798   9.271
 6210SOL    HW119286   4.570   0.874   9.336
 6210SOL    HW219287   4.596   0.834   9.180
 6211SOL     OW19288   4.409   1.012   8.113
 6211SOL    HW119289   4.478   0.996   8.183
 6211SOL    HW219290   4.336   1.069   8.151
 6212SOL     OW19291   4.410   1.161   9.251
 6212SOL    HW119292   4.470   1.240   9.265
 6212SOL    HW219293   4.324   1.192   9.210
 6213SOL     OW19294   4.059   1.435   8.509
 6213SOL    HW119295   3.981   1.404   8.456
 6213SOL    HW219296   4.117   1.493   8.452
 6214SOL     OW19297   4.162   0.392   8.947
 6214SOL    HW119298   4.244   0.336   8.956
 6214SOL    HW219299   4.081   0.334   8.951
 6215SOL     OW19300   3.955   1.713   7.931
 6215SOL    HW119301   3.989   1.790   7.985
 6215SOL    HW219302   3.999   1.713   7.841
 6216SOL     OW19303   3.954   1.434   7.986
 6216SOL    HW119304   3.928   1.530   7.986
 6216SOL    HW219305   3.883   1.380   8.031
 6217SOL     OW19306   3.964   1.091   8.334
 6217SOL    HW119307   3.978   1.007   8.386
 6217SOL    HW219308   3.909   1.155   8.389
 6218SOL     OW19309   4.344   1.786   8.887
 6218SOL    HW119310   4.252   1.769   8.922
 6218SOL    HW219311   4.372   1.878   8.913
 6219SOL     OW19312   4.330   0.964   7.571
 6219SOL    HW119313   4.337   1.048   7.517
 6219SOL    HW219314   4.376   0.977   7.659
 6220SOL     OW19315   3.846   0.643   8.011
 6220SOL    HW119316   3.801   0.555   8.028
 6220SOL    HW219317   3.845   0.697   8.095
 6221SOL     OW19318   3.751   1.596   7.565
 6221SOL    HW119319   3.732   1.500   7.586
 6221SOL    HW219320   3.718   1.654   7.640
 6222SOL     OW19321   3.837   0.737   9.045
 6222SOL    HW119322   3.925   0.724   9.090
 6222SOL    HW219323   3.824   0.834   9.023
 6223SOL     OW19324   4.337   1.365   8.174
 6223SOL    HW119325   4.288   1.278   8.183
 6223SOL    HW219326   4.314   1.408   8.087
 6224SOL     OW19327   4.533   0.004   7.950
 6224SOL    HW119328   4.573   0.095   7.941
 6224SOL    HW219329   4.433   0.012   7.956
 6225SOL     OW19330   3.921   0.976   8.712
 6225SOL    HW119331   4.010   0.931   8.698
 6225SOL    HW219332   3.848   0.911   8.693
 6226SOL     OW19333   4.041   0.251   9.249
 6226SOL    HW119334   4.112   0.322   9.255
 6226SOL    HW219335   3.953   0.290   9.277
 6227SOL     OW19336   4.322   0.729   7.718
 6227SOL    HW119337   4.346   0.798   7.650
 6227SOL    HW219338   4.244   0.762   7.772
 6228SOL     OW19339   3.800   0.811   8.237
 6228SOL    HW119340   3.899   0.799   8.246
 6228SOL    HW219341   3.776   0.906   8.258
 6229SOL     OW19342   3.854   1.821   9.019
 6229SOL    HW119343   3.844   1.806   9.118
 6229SOL    HW219344   3.768   1.857   8.983
 6230SOL     OW19345   4.274   0.196   8.333
 6230SOL    HW119346   4.269   0.191   8.433
 6230SOL    HW219347   4.276   0.292   8.304
 6231SOL     OW19348   4.075   1.801   8.301
 6231SOL    HW119349   4.125   1.715   8.307
 6231SOL    HW219350   4.140   1.878   8.298
 6232SOL     OW19351   4.045   0.943   7.690
 6232SOL    HW119352   4.127   0.982   7.648
 6232SOL    HW219353   4.018   0.861   7.641
 6233SOL     OW19354   4.185   1.266   9.175
 6233SOL    HW119355   4.135   1.267   9.089
 6233SOL    HW219356   4.122   1.248   9.251
 6234SOL     OW19357   3.926   0.285   8.946
 6234SOL    HW119358   3.846   0.345   8.933
 6234SOL    HW219359   3.916   0.236   9.032
 6235SOL     OW19360   4.188   1.743   7.771
 6235SOL    HW119361   4.221   1.782   7.857
 6235SOL    HW219362   4.264   1.736   7.706
 6236SOL     OW19363   3.973   1.785   8.689
 6236SOL    HW119364   4.030   1.720   8.739
 6236SOL    HW219365   3.957   1.752   8.596
 6237SOL     OW19366   4.106   0.700   7.928
 6237SOL    HW119367   4.151   0.610   7.925
 6237SOL    HW219368   4.012   0.689   7.961
 6238SOL     OW19369   4.338   0.122   7.565
 6238SOL    HW119370   4.436   0.100   7.572
 6238SOL    HW219371   4.307   0.105   7.472
 6239SOL     OW19372   4.527   1.402   8.372
 6239SOL    HW119373   4.617   1.416   8.330
 6239SOL    HW219374   4.456   1.404   8.301
 6240SOL     OW19375   4.263   0.064   7.960
 6240SOL    HW119376   4.182   0.065   8.018
 6240SOL    HW219377   4.266   0.147   7.905
 6241SOL     OW19378   4.021   0.035   7.619
 6241SOL    HW119379   4.070   0.119   7.598
 6241SOL    HW219380   4.083  -0.030   7.664
 6242SOL     OW19381   4.800   0.683   8.912
 6242SOL    HW119382   4.720   0.622   8.915
 6242SOL    HW219383   4.881   0.630   8.888
 6243SOL     OW19384   4.183   1.152   8.189
 6243SOL    HW119385   4.112   1.125   8.254
 6243SOL    HW219386   4.157   1.124   8.096
 6244SOL     OW19387   3.802   0.556   8.834
 6244SOL    HW119388   3.894   0.555   8.793
 6244SOL    HW219389   3.796   0.630   8.901
 6245SOL     OW19390   4.285   0.222   8.595
 6245SOL    HW119391   4.323   0.138   8.632
 6245SOL    HW219392   4.197   0.241   8.639
 6246SOL     OW19393   4.212   1.385   7.622
 6246SOL    HW119394   4.125   1.370   7.669
 6246SOL    HW219395   4.195   1.411   7.527
 6247SOL     OW19396   4.251   0.256   7.776
 6247SOL    HW119397   4.278   0.197   7.701
 6247SOL    HW219398   4.251   0.351   7.745
 6248SOL     OW19399   4.134   0.813   8.699
 6248SOL    HW119400   4.220   0.825   8.749
 6248SOL    HW219401   4.092   0.726   8.726
 6249SOL     OW19402   3.788   1.564   8.779
 6249SOL    HW119403   3.742   1.646   8.745
 6249SOL    HW219404   3.886   1.583   8.788
 6250SOL     OW19405   4.091   1.100   7.949
 6250SOL    HW119406   4.084   1.183   7.893
 6250SOL    HW219407   4.095   1.020   7.889
 6251SOL     OW19408   4.290   0.537   8.313
 6251SOL    HW119409   4.302   0.603   8.239
 6251SOL    HW219410   4.336   0.571   8.396
 6252SOL     OW19411   4.078   1.510   8.777
 6252SOL    HW119412   4.057   1.466   8.690
 6252SOL    HW219413   4.175   1.536   8.780
 6253SOL     OW19414   4.126   0.751   9.046
 6253SOL    HW119415   4.194   0.806   8.999
 6253SOL    HW219416   4.166   0.663   9.073
 6254SOL     OW19417   4.228   0.050   9.188
 6254SOL    HW119418   4.186  -0.007   9.118
 6254SOL    HW219419   4.162   0.119   9.220
 6255SOL     OW19420   4.297   0.870   8.477
 6255SOL    HW119421   4.341   0.959   8.468
 6255SOL    HW219422   4.234   0.870   8.554
 6256SOL     OW19423   4.031   0.213   8.679
 6256SOL    HW119424   4.008   0.250   8.769
 6256SOL    HW219425   4.001   0.118   8.673
 6257SOL     OW19426   3.761   1.310   8.730
 6257SOL    HW119427   3.814   1.261   8.798
 6257SOL    HW219428   3.783   1.408   8.735
 6258SOL     OW19429   4.031   0.063   8.066
 6258SOL    HW119430   4.020   0.157   8.099
 6258SOL    HW219431   4.026   0.000   8.143
 6259SOL     OW19432   4.074   0.898   9.252
 6259SOL    HW119433   4.150   0.942   9.300
 6259SOL    HW219434   4.109   0.851   9.170
 6260SOL     OW19435   4.043   0.810   8.397
 6260SOL    HW119436   4.136   0.846   8.402
 6260SOL    HW219437   4.037   0.725   8.449
 6261SOL     OW19438   4.063   0.509   8.454
 6261SOL    HW119439   4.011   0.426   8.437
 6261SOL    HW219440   4.140   0.514   8.390
 6262SOL     OW19441   3.732   1.326   7.648
 6262SOL    HW119442   3.639   1.347   7.617
 6262SOL    HW219443   3.742   1.227   7.661
 6263SOL     OW19444   3.812   1.801   8.375
 6263SOL    HW119445   3.770   1.715   8.348
 6263SOL    HW219446   3.906   1.804   8.341
 6264SOL     OW19447   4.228   1.568   8.358
 6264SOL    HW119448   4.294   1.642   8.367
 6264SOL    HW219449   4.272   1.489   8.316
 6265SOL     OW19450   3.764   0.544   8.562
 6265SOL    HW119451   3.849   0.511   8.521
 6265SOL    HW219452   3.777   0.559   8.660
 6266SOL     OW19453   3.913   0.520   9.170
 6266SOL    HW119454   3.972   0.480   9.100
 6266SOL    HW219455   3.855   0.591   9.129
 6267SOL     OW19456   4.539   0.572   7.773
 6267SOL    HW119457   4.546   0.483   7.727
 6267SOL    HW219458   4.445   0.606   7.765
 6268SOL     OW19459   3.976   1.564   9.192
 6268SOL    HW119460   3.946   1.621   9.268
 6268SOL    HW219461   3.969   1.467   9.218
 6269SOL     OW19462   4.197   0.500   7.639
 6269SOL    HW119463   4.258   0.580   7.643
 6269SOL    HW219464   4.102   0.531   7.646
 6270SOL     OW19465   3.883   1.137   8.914
 6270SOL    HW119466   3.905   1.076   8.990
 6270SOL    HW219467   3.893   1.088   8.828
 6271SOL     OW19468   3.807   1.258   8.470
 6271SOL    HW119469   3.802   1.257   8.570
 6271SOL    HW219470   3.724   1.217   8.432
 6272SOL     OW19471   4.412   1.662   9.164
 6272SOL    HW119472   4.356   1.743   9.173
 6272SOL    HW219473   4.464   1.666   9.078
 6273SOL     OW19474   3.854   1.794   9.299
 6273SOL    HW119475   3.813   1.720   9.352
 6273SOL    HW219476   3.918   1.845   9.357
 6274SOL     OW19477   3.987   0.326   8.168
 6274SOL    HW119478   3.908   0.377   8.134
 6274SOL    HW219479   3.978   0.311   8.266
 6275SOL     OW19480   4.096   1.288   8.938
 6275SOL    HW119481   4.083   1.381   8.904
 6275SOL    HW219482   4.012   1.236   8.925
 6276SOL     OW19483   4.314   1.487   7.939
 6276SOL    HW119484   4.356   1.429   7.869
 6276SOL    HW219485   4.270   1.566   7.895
 6277SOL     OW19486   3.979   1.348   7.738
 6277SOL    HW119487   3.883   1.349   7.711
 6277SOL    HW219488   3.991   1.401   7.822
 6278SOL     OW19489   3.829   1.013   9.174
 6278SOL    HW119490   3.752   0.980   9.228
 6278SOL    HW219491   3.914   0.983   9.216
 6279SOL     OW19492   4.396   0.203   8.937
 6279SOL    HW119493   4.486   0.187   8.897
 6279SOL    HW219494   4.404   0.208   9.036
 6280SOL     OW19495   3.799   0.345   7.481
 6280SOL    HW119496   3.707   0.317   7.452
 6280SOL    HW219497   3.830   0.422   7.425
 6281SOL     OW19498   3.796   0.166   7.766
 6281SOL    HW119499   3.779   0.249   7.712
 6281SOL    HW219500   3.886   0.129   7.744
 6282SOL     OW19501   4.337   0.842   8.879
 6282SOL    HW119502   4.393   0.923   8.862
 6282SOL    HW219503   4.396   0.762   8.882
 6283SOL     OW19504   4.440   0.565   9.156
 6283SOL    HW119505   4.459   0.630   9.230
 6283SOL    HW219506   4.500   0.485   9.165
 6284SOL     OW19507   4.114   1.741   9.008
 6284SOL    HW119508   4.023   1.782   9.006
 6284SOL    HW219509   4.107   1.647   9.040
 6285SOL     OW19510   4.318   0.745   8.100
 6285SOL    HW119511   4.368   0.830   8.081
 6285SOL    HW219512   4.230   0.747   8.052
 6286SOL     OW19513   3.945   1.314   9.292
 6286SOL    HW119514   3.880   1.241   9.271
 6286SOL    HW219515   3.949   1.328   9.390
 6287SOL     OW19516   3.803   1.240   8.101
 6287SOL    HW119517   3.802   1.193   8.189
 6287SOL    HW219518   3.885   1.212   8.050
 6288SOL     OW19519   4.396   1.391   9.072
 6288SOL    HW119520   4.318   1.341   9.110
 6288SOL    HW219521   4.393   1.486   9.103
 6289SOL     OW19522   4.152   0.424   7.968
 6289SOL    HW119523   4.182   0.352   7.906
 6289SOL    HW219524   4.113   0.384   8.051
 6290SOL     OW19525   4.041   0.547   8.728
 6290SOL    HW119526   4.079   0.488   8.800
 6290SOL    HW219527   4.081   0.521   8.640
 6291SOL     OW19528   4.536   1.586   8.135
 6291SOL    HW119529   4.568   1.596   8.041
 6291SOL    HW219530   4.457   1.524   8.137
 6292SOL     OW19531   3.763   1.077   7.748
 6292SOL    HW119532   3.862   1.066   7.739
 6292SOL    HW219533   3.723   0.991   7.780
 6293SOL     OW19534   3.954   0.628   9.423
 6293SOL    HW119535   3.861   0.626   9.460
 6293SOL    HW219536   3.955   0.589   9.331
 6294SOL     OW19537   3.949   0.275  10.306
 6294SOL    HW119538   3.984   0.258  10.398
 6294SOL    HW219539   3.861   0.230  10.294
 6295SOL     OW19540   3.743   0.368   9.957
 6295SOL    HW119541   3.661   0.411   9.996
 6295SOL    HW219542   3.715   0.295   9.894
 6296SOL     OW19543   4.293   1.275  10.475
 6296SOL    HW119544   4.200   1.268  10.438
 6296SOL    HW219545   4.304   1.364  10.519
 6297SOL     OW19546   4.574   0.798  11.133
 6297SOL    HW119547   4.570   0.874  11.198
 6297SOL    HW219548   4.596   0.834  11.042
 6298SOL     OW19549   4.409   1.012   9.975
 6298SOL    HW119550   4.478   0.996  10.045
 6298SOL    HW219551   4.336   1.069  10.013
 6299SOL     OW19552   4.059   1.435  10.371
 6299SOL    HW119553   3.981   1.404  10.318
 6299SOL    HW219554   4.117   1.493  10.314
 6300SOL     OW19555   4.162   0.392  10.809
 6300SOL    HW119556   4.244   0.336  10.818
 6300SOL    HW219557   4.081   0.334  10.813
 6301SOL     OW19558   3.955   1.713   9.793
 6301SOL    HW119559   3.989   1.790   9.847
 6301SOL    HW219560   3.999   1.713   9.703
 6302SOL     OW19561   3.954   1.434   9.848
 6302SOL    HW119562   3.928   1.530   9.848
 6302SOL    HW219563   3.883   1.380   9.893
 6303SOL     OW19564   3.964   1.091  10.196
 6303SOL    HW119565   3.978   1.007  10.248
 6303SOL    HW219566   3.909   1.155  10.251
 6304SOL     OW19567   4.344   1.786  10.749
 6304SOL    HW119568   4.252   1.769  10.784
 6304SOL    HW219569   4.372   1.878  10.775
 6305SOL     OW19570   4.330   0.964   9.433
 6305SOL    HW119571   4.337   1.048   9.379
 6305SOL    HW219572   4.376   0.977   9.521
 6306SOL     OW19573   3.846   0.643   9.873
 6306SOL    HW119574   3.801   0.555   9.890
 6306SOL    HW219575   3.845   0.697   9.957
 6307SOL     OW19576   3.751   1.596   9.427
 6307SOL    HW119577   3.732   1.500   9.448
 6307SOL    HW219578   3.718   1.654   9.502
 6308SOL     OW19579   3.837   0.737  10.907
 6308SOL    HW119580   3.925   0.724  10.952
 6308SOL    HW219581   3.824   0.834  10.885
 6309SOL     OW19582   4.337   1.365  10.036
 6309SOL    HW119583   4.288   1.278  10.045
 6309SOL    HW219584   4.314   1.408   9.949
 6310SOL     OW19585   4.533   0.004   9.812
 6310SOL    HW119586   4.573   0.095   9.803
 6310SOL    HW219587   4.433   0.012   9.818
 6311SOL     OW19588   3.921   0.976  10.574
 6311SOL    HW119589   4.010   0.931  10.560
 6311SOL    HW219590   3.848   0.911  10.555
 6312SOL     OW19591   4.041   0.251  11.111
 6312SOL    HW119592   4.112   0.322  11.117
 6312SOL    HW219593   3.953   0.290  11.139
 6313SOL     OW19594   4.322   0.729   9.580
 6313SOL    HW119595   4.346   0.798   9.512
 6313SOL    HW219596   4.244   0.762   9.634
 6314SOL     OW19597   3.800   0.811  10.099
 6314SOL    HW119598   3.899   0.799  10.108
 6314SOL    HW219599   3.776   0.906  10.120
 6315SOL     OW19600   3.854   1.821  10.881
 6315SOL    HW119601   3.844   1.806  10.980
 6315SOL    HW219602   3.768   1.857  10.845
 6316SOL     OW19603   4.274   0.196  10.195
 6316SOL    HW119604   4.269   0.191  10.295
 6316SOL    HW219605   4.276   0.292  10.166
 6317SOL     OW19606   4.075   1.801  10.163
 6317SOL    HW119607   4.125   1.715  10.169
 6317SOL    HW219608   4.140   1.878  10.160
 6318SOL     OW19609   4.045   0.943   9.552
 6318SOL    HW119610   4.127   0.982   9.510
 6318SOL    HW219611   4.018   0.861   9.503
 6319SOL     OW19612   4.185   1.266  11.037
 6319SOL    HW119613   4.135   1.267  10.951
 6319SOL    HW219614   4.122   1.248  11.113
 6320SOL     OW19615   3.926   0.285  10.808
 6320SOL    HW119616   3.846   0.345  10.795
 6320SOL    HW219617   3.916   0.236  10.894
 6321SOL     OW19618   4.188   1.743   9.633
 6321SOL    HW119619   4.221   1.782   9.719
 6321SOL    HW219620   4.264   1.736   9.568
 6322SOL     OW19621   3.973   1.785  10.551
 6322SOL    HW119622   4.030   1.720  10.601
 6322SOL    HW219623   3.957   1.752  10.458
 6323SOL     OW19624   4.106   0.700   9.790
 6323SOL    HW119625   4.151   0.610   9.787
 6323SOL    HW219626   4.012   0.689   9.823
 6324SOL     OW19627   4.338   0.122   9.427
 6324SOL    HW119628   4.436   0.100   9.434
 6324SOL    HW219629   4.307   0.105   9.334
 6325SOL     OW19630   4.527   1.402  10.234
 6325SOL    HW119631   4.617   1.416  10.192
 6325SOL    HW219632   4.456   1.404  10.163
 6326SOL     OW19633   4.263   0.064   9.822
 6326SOL    HW119634   4.182   0.065   9.880
 6326SOL    HW219635   4.266   0.147   9.767
 6327SOL     OW19636   4.021   0.035   9.481
 6327SOL    HW119637   4.070   0.119   9.460
 6327SOL    HW219638   4.083  -0.030   9.526
 6328SOL     OW19639   4.800   0.683  10.774
 6328SOL    HW119640   4.720   0.622  10.777
 6328SOL    HW219641   4.881   0.630  10.750
 6329SOL     OW19642   4.183   1.152  10.051
 6329SOL    HW119643   4.112   1.125  10.116
 6329SOL    HW219644   4.157   1.124   9.958
 6330SOL     OW19645   3.802   0.556  10.696
 6330SOL    HW119646   3.894   0.555  10.655
 6330SOL    HW219647   3.796   0.630  10.763
 6331SOL     OW19648   4.285   0.222  10.457
 6331SOL    HW119649   4.323   0.138  10.494
 6331SOL    HW219650   4.197   0.241  10.501
 6332SOL     OW19651   4.212   1.385   9.484
 6332SOL    HW119652   4.125   1.370   9.531
 6332SOL    HW219653   4.195   1.411   9.389
 6333SOL     OW19654   4.251   0.256   9.638
 6333SOL    HW119655   4.278   0.197   9.563
 6333SOL    HW219656   4.251   0.351   9.607
 6334SOL     OW19657   4.134   0.813  10.561
 6334SOL    HW119658   4.220   0.825  10.611
 6334SOL    HW219659   4.092   0.726  10.588
 6335SOL     OW19660   3.788   1.564  10.641
 6335SOL    HW119661   3.742   1.646  10.607
 6335SOL    HW219662   3.886   1.583  10.650
 6336SOL     OW19663   4.091   1.100   9.811
 6336SOL    HW119664   4.084   1.183   9.755
 6336SOL    HW219665   4.095   1.020   9.751
 6337SOL     OW19666   4.290   0.537  10.175
 6337SOL    HW119667   4.302   0.603  10.101
 6337SOL    HW219668   4.336   0.571  10.258
 6338SOL     OW19669   4.078   1.510  10.639
 6338SOL    HW119670   4.057   1.466  10.552
 6338SOL    HW219671   4.175   1.536  10.642
 6339SOL     OW19672   4.126   0.751  10.908
 6339SOL    HW119673   4.194   0.806  10.861
 6339SOL    HW219674   4.166   0.663  10.935
 6340SOL     OW19675   4.297   0.870  10.339
 6340SOL    HW119676   4.341   0.959  10.330
 6340SOL    HW219677   4.234   0.870  10.416
 6341SOL     OW19678   4.031   0.213  10.541
 6341SOL    HW119679   4.008   0.250  10.631
 6341SOL    HW219680   4.001   0.118  10.535
 6342SOL     OW19681   3.761   1.310  10.592
 6342SOL    HW119682   3.814   1.261  10.660
 6342SOL    HW219683   3.783   1.408  10.597
 6343SOL     OW19684   4.031   0.063   9.928
 6343SOL    HW119685   4.020   0.157   9.961
 6343SOL    HW219686   4.026   0.000  10.005
 6344SOL     OW19687   4.074   0.898  11.114
 6344SOL    HW119688   4.150   0.942  11.162
 6344SOL    HW219689   4.109   0.851  11.032
 6345SOL     OW19690   4.043   0.810  10.259
 6345SOL    HW119691   4.136   0.846  10.264
 6345SOL    HW219692   4.037   0.725  10.311
 6346SOL     OW19693   4.063   0.509  10.316
 6346SOL    HW119694   4.011   0.426  10.299
 6346SOL    HW219695   4.140   0.514  10.252
 6347SOL     OW19696   3.732   1.326   9.510
 6347SOL    HW119697   3.639   1.347   9.479
 6347SOL    HW219698   3.742   1.227   9.523
 6348SOL     OW19699   3.812   1.801  10.237
 6348SOL    HW119700   3.770   1.715  10.210
 6348SOL    HW219701   3.906   1.804  10.203
 6349SOL     OW19702   4.228   1.568  10.220
 6349SOL    HW119703   4.294   1.642  10.229
 6349SOL    HW219704   4.272   1.489  10.178
 6350SOL     OW19705   3.764   0.544  10.424
 6350SOL    HW119706   3.849   0.511  10.383
 6350SOL    HW219707   3.777   0.559  10.522
 6351SOL     OW19708   4.539   0.572   9.635
 6351SOL    HW119709   4.546   0.483   9.589
 6351SOL    HW219710   4.445   0.606   9.627
 6352SOL     OW19711   3.976   1.564  11.054
 6352SOL    HW119712   3.946   1.621  11.130
 6352SOL    HW219713   3.969   1.467  11.080
 6353SOL     OW19714   4.197   0.500   9.501
 6353SOL    HW119715   4.258   0.580   9.505
 6353SOL    HW219716   4.102   0.531   9.508
 6354SOL     OW19717   3.883   1.137  10.776
 6354SOL    HW119718   3.905   1.076  10.852
 6354SOL    HW219719   3.893   1.088  10.690
 6355SOL     OW19720   3.807   1.258  10.332
 6355SOL    HW119721   3.802   1.257  10.432
 6355SOL    HW219722   3.724   1.217  10.294
 6356SOL     OW19723   4.412   1.662  11.026
 6356SOL    HW119724   4.356   1.743  11.035
 6356SOL    HW219725   4.464   1.666  10.940
 6357SOL     OW19726   3.987   0.326  10.030
 6357SOL    HW119727   3.908   0.377   9.996
 6357SOL    HW219728   3.978   0.311  10.128
 6358SOL     OW19729   4.096   1.288  10.800
 6358SOL    HW119730   4.083   1.381  10.766
 6358SOL    HW219731   4.012   1.236  10.787
 6359SOL     OW19732   4.314   1.487   9.801
 6359SOL    HW119733   4.356   1.429   9.731
 6359SOL    HW219734   4.270   1.566   9.757
 6360SOL     OW19735   3.979   1.348   9.600
 6360SOL    HW119736   3.883   1.349   9.573
 6360SOL    HW219737   3.991   1.401   9.684
 6361SOL     OW19738   3.829   1.013  11.036
 6361SOL    HW119739   3.752   0.980  11.090
 6361SOL    HW219740   3.914   0.983  11.078
 6362SOL     OW19741   4.396   0.203  10.799
 6362SOL    HW119742   4.486   0.187  10.759
 6362SOL    HW219743   4.404   0.208  10.898
 6363SOL     OW19744   3.799   0.345   9.343
 6363SOL    HW119745   3.707   0.317   9.314
 6363SOL    HW219746   3.830   0.422   9.287
 6364SOL     OW19747   3.796   0.166   9.628
 6364SOL    HW119748   3.779   0.249   9.574
 6364SOL    HW219749   3.886   0.129   9.606
 6365SOL     OW19750   4.337   0.842  10.741
 6365SOL    HW119751   4.393   0.923  10.724
 6365SOL    HW219752   4.396   0.762  10.744
 6366SOL     OW19753   4.114   1.741  10.870
 6366SOL    HW119754   4.023   1.782  10.868
 6366SOL    HW219755   4.107   1.647  10.902
 6367SOL     OW19756   4.318   0.745   9.962
 6367SOL    HW119757   4.368   0.830   9.943
 6367SOL    HW219758   4.230   0.747   9.914
 6368SOL     OW19759   3.803   1.240   9.963
 6368SOL    HW119760   3.802   1.193  10.051
 6368SOL    HW219761   3.885   1.212   9.912
 6369SOL     OW19762   4.396   1.391  10.934
 6369SOL    HW119763   4.318   1.341  10.972
 6369SOL    HW219764   4.393   1.486  10.965
 6370SOL     OW19765   4.152   0.424   9.830
 6370SOL    HW119766   4.182   0.352   9.768
 6370SOL    HW219767   4.113   0.384   9.913
 6371SOL     OW19768   4.041   0.547  10.590
 6371SOL    HW119769   4.079   0.488  10.662
 6371SOL    HW219770   4.081   0.521  10.502
 6372SOL     OW19771   4.536   1.586   9.997
 6372SOL    HW119772   4.568   1.596   9.903
 6372SOL    HW219773   4.457   1.524   9.999
 6373SOL     OW19774   3.763   1.077   9.610
 6373SOL    HW119775   3.862   1.066   9.601
 6373SOL    HW219776   3.723   0.991   9.642
 6374SOL     OW19777   3.954   2.490   0.113
 6374SOL    HW119778   3.861   2.488   0.150
 6374SOL    HW219779   3.955   2.451   0.021
 6375SOL     OW19780   3.949   2.137   0.996
 6375SOL    HW119781   3.984   2.120   1.088
 6375SOL    HW219782   3.861   2.092   0.984
 6376SOL     OW19783   3.743   2.230   0.647
 6376SOL    HW119784   3.661   2.273   0.686
 6376SOL    HW219785   3.715   2.157   0.584
 6377SOL     OW19786   4.293   3.137   1.165
 6377SOL    HW119787   4.200   3.130   1.128
 6377SOL    HW219788   4.304   3.226   1.209
 6378SOL     OW19789   4.574   2.660   1.823
 6378SOL    HW119790   4.570   2.736   1.888
 6378SOL    HW219791   4.596   2.696   1.732
 6379SOL     OW19792   4.409   2.874   0.665
 6379SOL    HW119793   4.478   2.858   0.735
 6379SOL    HW219794   4.336   2.931   0.703
 6380SOL     OW19795   4.410   3.023   1.803
 6380SOL    HW119796   4.470   3.102   1.817
 6380SOL    HW219797   4.324   3.054   1.762
 6381SOL     OW19798   4.059   3.297   1.061
 6381SOL    HW119799   3.981   3.266   1.008
 6381SOL    HW219800   4.117   3.355   1.004
 6382SOL     OW19801   4.162   2.254   1.499
 6382SOL    HW119802   4.244   2.198   1.508
 6382SOL    HW219803   4.081   2.196   1.503
 6383SOL     OW19804   3.955   3.575   0.483
 6383SOL    HW119805   3.989   3.652   0.537
 6383SOL    HW219806   3.999   3.575   0.393
 6384SOL     OW19807   3.954   3.296   0.538
 6384SOL    HW119808   3.928   3.392   0.538
 6384SOL    HW219809   3.883   3.242   0.583
 6385SOL     OW19810   3.964   2.953   0.886
 6385SOL    HW119811   3.978   2.869   0.938
 6385SOL    HW219812   3.909   3.017   0.941
 6386SOL     OW19813   4.344   3.648   1.439
 6386SOL    HW119814   4.252   3.631   1.474
 6386SOL    HW219815   4.372   3.740   1.465
 6387SOL     OW19816   4.330   2.826   0.123
 6387SOL    HW119817   4.337   2.910   0.069
 6387SOL    HW219818   4.376   2.839   0.211
 6388SOL     OW19819   3.846   2.505   0.563
 6388SOL    HW119820   3.801   2.417   0.580
 6388SOL    HW219821   3.845   2.559   0.647
 6389SOL     OW19822   3.751   3.458   0.117
 6389SOL    HW119823   3.732   3.362   0.138
 6389SOL    HW219824   3.718   3.516   0.192
 6390SOL     OW19825   3.837   2.599   1.597
 6390SOL    HW119826   3.925   2.586   1.642
 6390SOL    HW219827   3.824   2.696   1.575
 6391SOL     OW19828   4.337   3.227   0.726
 6391SOL    HW119829   4.288   3.140   0.735
 6391SOL    HW219830   4.314   3.270   0.639
 6392SOL     OW19831   4.533   1.866   0.502
 6392SOL    HW119832   4.573   1.957   0.493
 6392SOL    HW219833   4.433   1.874   0.508
 6393SOL     OW19834   3.921   2.838   1.264
 6393SOL    HW119835   4.010   2.793   1.250
 6393SOL    HW219836   3.848   2.773   1.245
 6394SOL     OW19837   4.041   2.113   1.801
 6394SOL    HW119838   4.112   2.184   1.807
 6394SOL    HW219839   3.953   2.152   1.829
 6395SOL     OW19840   4.322   2.591   0.270
 6395SOL    HW119841   4.346   2.660   0.202
 6395SOL    HW219842   4.244   2.624   0.324
 6396SOL     OW19843   3.800   2.673   0.789
 6396SOL    HW119844   3.899   2.661   0.798
 6396SOL    HW219845   3.776   2.768   0.810
 6397SOL     OW19846   3.854   3.683   1.571
 6397SOL    HW119847   3.844   3.668   1.670
 6397SOL    HW219848   3.768   3.719   1.535
 6398SOL     OW19849   4.274   2.058   0.885
 6398SOL    HW119850   4.269   2.053   0.985
 6398SOL    HW219851   4.276   2.154   0.856
 6399SOL     OW19852   4.075   3.663   0.853
 6399SOL    HW119853   4.125   3.577   0.859
 6399SOL    HW219854   4.140   3.740   0.850
 6400SOL     OW19855   4.045   2.805   0.242
 6400SOL    HW119856   4.127   2.844   0.200
 6400SOL    HW219857   4.018   2.723   0.193
 6401SOL     OW19858   4.185   3.128   1.727
 6401SOL    HW119859   4.135   3.129   1.641
 6401SOL    HW219860   4.122   3.110   1.803
 6402SOL     OW19861   3.926   2.147   1.498
 6402SOL    HW119862   3.846   2.207   1.485
 6402SOL    HW219863   3.916   2.098   1.584
 6403SOL     OW19864   4.188   3.605   0.323
 6403SOL    HW119865   4.221   3.644   0.409
 6403SOL    HW219866   4.264   3.598   0.258
 6404SOL     OW19867   3.973   3.647   1.241
 6404SOL    HW119868   4.030   3.582   1.291
 6404SOL    HW219869   3.957   3.614   1.148
 6405SOL     OW19870   4.106   2.562   0.480
 6405SOL    HW119871   4.151   2.472   0.477
 6405SOL    HW219872   4.012   2.551   0.513
 6406SOL     OW19873   4.338   1.984   0.117
 6406SOL    HW119874   4.436   1.962   0.124
 6406SOL    HW219875   4.307   1.967   0.024
 6407SOL     OW19876   4.527   3.264   0.924
 6407SOL    HW119877   4.617   3.278   0.882
 6407SOL    HW219878   4.456   3.266   0.853
 6408SOL     OW19879   4.263   1.926   0.512
 6408SOL    HW119880   4.182   1.927   0.570
 6408SOL    HW219881   4.266   2.009   0.457
 6409SOL     OW19882   4.021   1.897   0.171
 6409SOL    HW119883   4.070   1.981   0.150
 6409SOL    HW219884   4.083   1.832   0.216
 6410SOL     OW19885   4.800   2.545   1.464
 6410SOL    HW119886   4.720   2.484   1.467
 6410SOL    HW219887   4.881   2.492   1.440
 6411SOL     OW19888   4.183   3.014   0.741
 6411SOL    HW119889   4.112   2.987   0.806
 6411SOL    HW219890   4.157   2.986   0.648
 6412SOL     OW19891   3.802   2.418   1.386
 6412SOL    HW119892   3.894   2.417   1.345
 6412SOL    HW219893   3.796   2.492   1.453
 6413SOL     OW19894   4.285   2.084   1.147
 6413SOL    HW119895   4.323   2.000   1.184
 6413SOL    HW219896   4.197   2.103   1.191
 6414SOL     OW19897   4.212   3.247   0.174
 6414SOL    HW119898   4.125   3.232   0.221
 6414SOL    HW219899   4.195   3.273   0.079
 6415SOL     OW19900   4.251   2.118   0.328
 6415SOL    HW119901   4.278   2.059   0.253
 6415SOL    HW219902   4.251   2.213   0.297
 6416SOL     OW19903   4.134   2.675   1.251
 6416SOL    HW119904   4.220   2.687   1.301
 6416SOL    HW219905   4.092   2.588   1.278
 6417SOL     OW19906   3.788   3.426   1.331
 6417SOL    HW119907   3.742   3.508   1.297
 6417SOL    HW219908   3.886   3.445   1.340
 6418SOL     OW19909   4.091   2.962   0.501
 6418SOL    HW119910   4.084   3.045   0.445
 6418SOL    HW219911   4.095   2.882   0.441
 6419SOL     OW19912   4.290   2.399   0.865
 6419SOL    HW119913   4.302   2.465   0.791
 6419SOL    HW219914   4.336   2.433   0.948
 6420SOL     OW19915   4.078   3.372   1.329
 6420SOL    HW119916   4.057   3.328   1.242
 6420SOL    HW219917   4.175   3.398   1.332
 6421SOL     OW19918   4.126   2.613   1.598
 6421SOL    HW119919   4.194   2.668   1.551
 6421SOL    HW219920   4.166   2.525   1.625
 6422SOL     OW19921   4.228   1.912   1.740
 6422SOL    HW119922   4.186   1.855   1.670
 6422SOL    HW219923   4.162   1.981   1.772
 6423SOL     OW19924   4.297   2.732   1.029
 6423SOL    HW119925   4.341   2.821   1.020
 6423SOL    HW219926   4.234   2.732   1.106
 6424SOL     OW19927   4.031   2.075   1.231
 6424SOL    HW119928   4.008   2.112   1.321
 6424SOL    HW219929   4.001   1.980   1.225
 6425SOL     OW19930   3.761   3.172   1.282
 6425SOL    HW119931   3.814   3.123   1.350
 6425SOL    HW219932   3.783   3.270   1.287
 6426SOL     OW19933   4.031   1.925   0.618
 6426SOL    HW119934   4.020   2.019   0.651
 6426SOL    HW219935   4.026   1.862   0.695
 6427SOL     OW19936   4.074   2.760   1.804
 6427SOL    HW119937   4.150   2.804   1.852
 6427SOL    HW219938   4.109   2.713   1.722
 6428SOL     OW19939   4.043   2.672   0.949
 6428SOL    HW119940   4.136   2.708   0.954
 6428SOL    HW219941   4.037   2.587   1.001
 6429SOL     OW19942   4.063   2.371   1.006
 6429SOL    HW119943   4.011   2.288   0.989
 6429SOL    HW219944   4.140   2.376   0.942
 6430SOL     OW19945   3.732   3.188   0.200
 6430SOL    HW119946   3.639   3.209   0.169
 6430SOL    HW219947   3.742   3.089   0.213
 6431SOL     OW19948   3.812   3.663   0.927
 6431SOL    HW119949   3.770   3.577   0.900
 6431SOL    HW219950   3.906   3.666   0.893
 6432SOL     OW19951   4.228   3.430   0.910
 6432SOL    HW119952   4.294   3.504   0.919
 6432SOL    HW219953   4.272   3.351   0.868
 6433SOL     OW19954   3.764   2.406   1.114
 6433SOL    HW119955   3.849   2.373   1.073
 6433SOL    HW219956   3.777   2.421   1.212
 6434SOL     OW19957   3.913   2.382   1.722
 6434SOL    HW119958   3.972   2.342   1.652
 6434SOL    HW219959   3.855   2.453   1.681
 6435SOL     OW19960   4.539   2.434   0.325
 6435SOL    HW119961   4.546   2.345   0.279
 6435SOL    HW219962   4.445   2.468   0.317
 6436SOL     OW19963   3.976   3.426   1.744
 6436SOL    HW119964   3.946   3.483   1.820
 6436SOL    HW219965   3.969   3.329   1.770
 6437SOL     OW19966   4.197   2.362   0.191
 6437SOL    HW119967   4.258   2.442   0.195
 6437SOL    HW219968   4.102   2.393   0.198
 6438SOL     OW19969   3.883   2.999   1.466
 6438SOL    HW119970   3.905   2.938   1.542
 6438SOL    HW219971   3.893   2.950   1.380
 6439SOL     OW19972   3.807   3.120   1.022
 6439SOL    HW119973   3.802   3.119   1.122
 6439SOL    HW219974   3.724   3.079   0.984
 6440SOL     OW19975   4.412   3.524   1.716
 6440SOL    HW119976   4.356   3.605   1.725
 6440SOL    HW219977   4.464   3.528   1.630
 6441SOL     OW19978   3.854   3.656   1.851
 6441SOL    HW119979   3.813   3.582   1.904
 6441SOL    HW219980   3.918   3.707   1.909
 6442SOL     OW19981   3.987   2.188   0.720
 6442SOL    HW119982   3.908   2.239   0.686
 6442SOL    HW219983   3.978   2.173   0.818
 6443SOL     OW19984   4.096   3.150   1.490
 6443SOL    HW119985   4.083   3.243   1.456
 6443SOL    HW219986   4.012   3.098   1.477
 6444SOL     OW19987   4.314   3.349   0.491
 6444SOL    HW119988   4.356   3.291   0.421
 6444SOL    HW219989   4.270   3.428   0.447
 6445SOL     OW19990   3.979   3.210   0.290
 6445SOL    HW119991   3.883   3.211   0.263
 6445SOL    HW219992   3.991   3.263   0.374
 6446SOL     OW19993   3.829   2.875   1.726
 6446SOL    HW119994   3.752   2.842   1.780
 6446SOL    HW219995   3.914   2.845   1.768
 6447SOL     OW19996   4.396   2.065   1.489
 6447SOL    HW119997   4.486   2.049   1.449
 6447SOL    HW219998   4.404   2.070   1.588
 6448SOL     OW19999   3.799   2.207   0.033
 6448SOL    HW120000   3.707   2.179   0.004
 6448SOL    HW220001   3.830   2.284  -0.023
 6449SOL     OW20002   3.796   2.028   0.318
 6449SOL    HW120003   3.779   2.111   0.264
 6449SOL    HW220004   3.886   1.991   0.296
 6450SOL     OW20005   4.337   2.704   1.431
 6450SOL    HW120006   4.393   2.785   1.414
 6450SOL    HW220007   4.396   2.624   1.434
 6451SOL     OW20008   4.440   2.427   1.708
 6451SOL    HW120009   4.459   2.492   1.782
 6451SOL    HW220010   4.500   2.347   1.717
 6452SOL     OW20011   4.114   3.603   1.560
 6452SOL    HW120012   4.023   3.644   1.558
 6452SOL    HW220013   4.107   3.509   1.592
 6453SOL     OW20014   4.318   2.607   0.652
 6453SOL    HW120015   4.368   2.692   0.633
 6453SOL    HW220016   4.230   2.609   0.604
 6454SOL     OW20017   3.945   3.176   1.844
 6454SOL    HW120018   3.880   3.103   1.823
 6454SOL    HW220019   3.949   3.190   1.942
 6455SOL     OW20020   3.803   3.102   0.653
 6455SOL    HW120021   3.802   3.055   0.741
 6455SOL    HW220022   3.885   3.074   0.602
 6456SOL     OW20023   4.396   3.253   1.624
 6456SOL    HW120024   4.318   3.203   1.662
 6456SOL    HW220025   4.393   3.348   1.655
 6457SOL     OW20026   4.152   2.286   0.520
 6457SOL    HW120027   4.182   2.214   0.458
 6457SOL    HW220028   4.113   2.246   0.603
 6458SOL     OW20029   4.041   2.409   1.280
 6458SOL    HW120030   4.079   2.350   1.352
 6458SOL    HW220031   4.081   2.383   1.192
 6459SOL     OW20032   4.536   3.448   0.687
 6459SOL    HW120033   4.568   3.458   0.593
 6459SOL    HW220034   4.457   3.386   0.689
 6460SOL     OW20035   3.763   2.939   0.300
 6460SOL    HW120036   3.862   2.928   0.291
 6460SOL    HW220037   3.723   2.853   0.332
 6461SOL     OW20038   3.954   2.490   1.975
 6461SOL    HW120039   3.861   2.488   2.012
 6461SOL    HW220040   3.955   2.451   1.883
 6462SOL     OW20041   3.949   2.137   2.858
 6462SOL    HW120042   3.984   2.120   2.950
 6462SOL    HW220043   3.861   2.092   2.846
 6463SOL     OW20044   3.743   2.230   2.509
 6463SOL    HW120045   3.661   2.273   2.548
 6463SOL    HW220046   3.715   2.157   2.446
 6464SOL     OW20047   4.293   3.137   3.027
 6464SOL    HW120048   4.200   3.130   2.990
 6464SOL    HW220049   4.304   3.226   3.071
 6465SOL     OW20050   4.574   2.660   3.685
 6465SOL    HW120051   4.570   2.736   3.750
 6465SOL    HW220052   4.596   2.696   3.594
 6466SOL     OW20053   4.409   2.874   2.527
 6466SOL    HW120054   4.478   2.858   2.597
 6466SOL    HW220055   4.336   2.931   2.565
 6467SOL     OW20056   4.410   3.023   3.665
 6467SOL    HW120057   4.470   3.102   3.679
 6467SOL    HW220058   4.324   3.054   3.624
 6468SOL     OW20059   4.059   3.297   2.923
 6468SOL    HW120060   3.981   3.266   2.870
 6468SOL    HW220061   4.117   3.355   2.866
 6469SOL     OW20062   4.162   2.254   3.361
 6469SOL    HW120063   4.244   2.198   3.370
 6469SOL    HW220064   4.081   2.196   3.365
 6470SOL     OW20065   3.955   3.575   2.345
 6470SOL    HW120066   3.989   3.652   2.399
 6470SOL    HW220067   3.999   3.575   2.255
 6471SOL     OW20068   3.954   3.296   2.400
 6471SOL    HW120069   3.928   3.392   2.400
 6471SOL    HW220070   3.883   3.242   2.445
 6472SOL     OW20071   3.964   2.953   2.748
 6472SOL    HW120072   3.978   2.869   2.800
 6472SOL    HW220073   3.909   3.017   2.803
 6473SOL     OW20074   4.344   3.648   3.301
 6473SOL    HW120075   4.252   3.631   3.336
 6473SOL    HW220076   4.372   3.740   3.327
 6474SOL     OW20077   4.330   2.826   1.985
 6474SOL    HW120078   4.337   2.910   1.931
 6474SOL    HW220079   4.376   2.839   2.073
 6475SOL     OW20080   3.846   2.505   2.425
 6475SOL    HW120081   3.801   2.417   2.442
 6475SOL    HW220082   3.845   2.559   2.509
 6476SOL     OW20083   3.751   3.458   1.979
 6476SOL    HW120084   3.732   3.362   2.000
 6476SOL    HW220085   3.718   3.516   2.054
 6477SOL     OW20086   3.837   2.599   3.459
 6477SOL    HW120087   3.925   2.586   3.504
 6477SOL    HW220088   3.824   2.696   3.437
 6478SOL     OW20089   4.337   3.227   2.588
 6478SOL    HW120090   4.288   3.140   2.597
 6478SOL    HW220091   4.314   3.270   2.501
 6479SOL     OW20092   4.533   1.866   2.364
 6479SOL    HW120093   4.573   1.957   2.355
 6479SOL    HW220094   4.433   1.874   2.370
 6480SOL     OW20095   3.921   2.838   3.126
 6480SOL    HW120096   4.010   2.793   3.112
 6480SOL    HW220097   3.848   2.773   3.107
 6481SOL     OW20098   4.041   2.113   3.663
 6481SOL    HW120099   4.112   2.184   3.669
 6481SOL    HW220100   3.953   2.152   3.691
 6482SOL     OW20101   4.322   2.591   2.132
 6482SOL    HW120102   4.346   2.660   2.064
 6482SOL    HW220103   4.244   2.624   2.186
 6483SOL     OW20104   3.800   2.673   2.651
 6483SOL    HW120105   3.899   2.661   2.660
 6483SOL    HW220106   3.776   2.768   2.672
 6484SOL     OW20107   3.854   3.683   3.433
 6484SOL    HW120108   3.844   3.668   3.532
 6484SOL    HW220109   3.768   3.719   3.397
 6485SOL     OW20110   4.274   2.058   2.747
 6485SOL    HW120111   4.269   2.053   2.847
 6485SOL    HW220112   4.276   2.154   2.718
 6486SOL     OW20113   4.075   3.663   2.715
 6486SOL    HW120114   4.125   3.577   2.721
 6486SOL    HW220115   4.140   3.740   2.712
 6487SOL     OW20116   4.045   2.805   2.104
 6487SOL    HW120117   4.127   2.844   2.062
 6487SOL    HW220118   4.018   2.723   2.055
 6488SOL     OW20119   4.185   3.128   3.589
 6488SOL    HW120120   4.135   3.129   3.503
 6488SOL    HW220121   4.122   3.110   3.665
 6489SOL     OW20122   3.926   2.147   3.360
 6489SOL    HW120123   3.846   2.207   3.347
 6489SOL    HW220124   3.916   2.098   3.446
 6490SOL     OW20125   4.188   3.605   2.185
 6490SOL    HW120126   4.221   3.644   2.271
 6490SOL    HW220127   4.264   3.598   2.120
 6491SOL     OW20128   3.973   3.647   3.103
 6491SOL    HW120129   4.030   3.582   3.153
 6491SOL    HW220130   3.957   3.614   3.010
 6492SOL     OW20131   4.106   2.562   2.342
 6492SOL    HW120132   4.151   2.472   2.339
 6492SOL    HW220133   4.012   2.551   2.375
 6493SOL     OW20134   4.338   1.984   1.979
 6493SOL    HW120135   4.436   1.962   1.986
 6493SOL    HW220136   4.307   1.967   1.886
 6494SOL     OW20137   4.527   3.264   2.786
 6494SOL    HW120138   4.617   3.278   2.744
 6494SOL    HW220139   4.456   3.266   2.715
 6495SOL     OW20140   4.263   1.926   2.374
 6495SOL    HW120141   4.182   1.927   2.432
 6495SOL    HW220142   4.266   2.009   2.319
 6496SOL     OW20143   4.021   1.897   2.033
 6496SOL    HW120144   4.070   1.981   2.012
 6496SOL    HW220145   4.083   1.832   2.078
 6497SOL     OW20146   4.800   2.545   3.326
 6497SOL    HW120147   4.720   2.484   3.329
 6497SOL    HW220148   4.881   2.492   3.302
 6498SOL     OW20149   4.183   3.014   2.603
 6498SOL    HW120150   4.112   2.987   2.668
 6498SOL    HW220151   4.157   2.986   2.510
 6499SOL     OW20152   3.802   2.418   3.248
 6499SOL    HW120153   3.894   2.417   3.207
 6499SOL    HW220154   3.796   2.492   3.315
 6500SOL     OW20155   4.285   2.084   3.009
 6500SOL    HW120156   4.323   2.000   3.046
 6500SOL    HW220157   4.197   2.103   3.053
 6501SOL     OW20158   4.212   3.247   2.036
 6501SOL    HW120159   4.125   3.232   2.083
 6501SOL    HW220160   4.195   3.273   1.941
 6502SOL     OW20161   4.251   2.118   2.190
 6502SOL    HW120162   4.278   2.059   2.115
 6502SOL    HW220163   4.251   2.213   2.159
 6503SOL     OW20164   4.134   2.675   3.113
 6503SOL    HW120165   4.220   2.687   3.163
 6503SOL    HW220166   4.092   2.588   3.140
 6504SOL     OW20167   3.788   3.426   3.193
 6504SOL    HW120168   3.742   3.508   3.159
 6504SOL    HW220169   3.886   3.445   3.202
 6505SOL     OW20170   4.091   2.962   2.363
 6505SOL    HW120171   4.084   3.045   2.307
 6505SOL    HW220172   4.095   2.882   2.303
 6506SOL     OW20173   4.290   2.399   2.727
 6506SOL    HW120174   4.302   2.465   2.653
 6506SOL    HW220175   4.336   2.433   2.810
 6507SOL     OW20176   4.078   3.372   3.191
 6507SOL    HW120177   4.057   3.328   3.104
 6507SOL    HW220178   4.175   3.398   3.194
 6508SOL     OW20179   4.126   2.613   3.460
 6508SOL    HW120180   4.194   2.668   3.413
 6508SOL    HW220181   4.166   2.525   3.487
 6509SOL     OW20182   4.228   1.912   3.602
 6509SOL    HW120183   4.186   1.855   3.532
 6509SOL    HW220184   4.162   1.981   3.634
 6510SOL     OW20185   4.297   2.732   2.891
 6510SOL    HW120186   4.341   2.821   2.882
 6510SOL    HW220187   4.234   2.732   2.968
 6511SOL     OW20188   4.031   2.075   3.093
 6511SOL    HW120189   4.008   2.112   3.183
 6511SOL    HW220190   4.001   1.980   3.087
 6512SOL     OW20191   3.761   3.172   3.144
 6512SOL    HW120192   3.814   3.123   3.212
 6512SOL    HW220193   3.783   3.270   3.149
 6513SOL     OW20194   4.031   1.925   2.480
 6513SOL    HW120195   4.020   2.019   2.513
 6513SOL    HW220196   4.026   1.862   2.557
 6514SOL     OW20197   4.074   2.760   3.666
 6514SOL    HW120198   4.150   2.804   3.714
 6514SOL    HW220199   4.109   2.713   3.584
 6515SOL     OW20200   4.043   2.672   2.811
 6515SOL    HW120201   4.136   2.708   2.816
 6515SOL    HW220202   4.037   2.587   2.863
 6516SOL     OW20203   4.063   2.371   2.868
 6516SOL    HW120204   4.011   2.288   2.851
 6516SOL    HW220205   4.140   2.376   2.804
 6517SOL     OW20206   3.732   3.188   2.062
 6517SOL    HW120207   3.639   3.209   2.031
 6517SOL    HW220208   3.742   3.089   2.075
 6518SOL     OW20209   3.812   3.663   2.789
 6518SOL    HW120210   3.770   3.577   2.762
 6518SOL    HW220211   3.906   3.666   2.755
 6519SOL     OW20212   4.228   3.430   2.772
 6519SOL    HW120213   4.294   3.504   2.781
 6519SOL    HW220214   4.272   3.351   2.730
 6520SOL     OW20215   3.764   2.406   2.976
 6520SOL    HW120216   3.849   2.373   2.935
 6520SOL    HW220217   3.777   2.421   3.074
 6521SOL     OW20218   3.913   2.382   3.584
 6521SOL    HW120219   3.972   2.342   3.514
 6521SOL    HW220220   3.855   2.453   3.543
 6522SOL     OW20221   4.539   2.434   2.187
 6522SOL    HW120222   4.546   2.345   2.141
 6522SOL    HW220223   4.445   2.468   2.179
 6523SOL     OW20224   3.976   3.426   3.606
 6523SOL    HW120225   3.946   3.483   3.682
 6523SOL    HW220226   3.969   3.329   3.632
 6524SOL     OW20227   4.197   2.362   2.053
 6524SOL    HW120228   4.258   2.442   2.057
 6524SOL    HW220229   4.102   2.393   2.060
 6525SOL     OW20230   3.883   2.999   3.328
 6525SOL    HW120231   3.905   2.938   3.404
 6525SOL    HW220232   3.893   2.950   3.242
 6526SOL     OW20233   3.807   3.120   2.884
 6526SOL    HW120234   3.802   3.119   2.984
 6526SOL    HW220235   3.724   3.079   2.846
 6527SOL     OW20236   4.412   3.524   3.578
 6527SOL    HW120237   4.356   3.605   3.587
 6527SOL    HW220238   4.464   3.528   3.492
 6528SOL     OW20239   3.854   3.656   3.713
 6528SOL    HW120240   3.813   3.582   3.766
 6528SOL    HW220241   3.918   3.707   3.771
 6529SOL     OW20242   3.987   2.188   2.582
 6529SOL    HW120243   3.908   2.239   2.548
 6529SOL    HW220244   3.978   2.173   2.680
 6530SOL     OW20245   4.096   3.150   3.352
 6530SOL    HW120246   4.083   3.243   3.318
 6530SOL    HW220247   4.012   3.098   3.339
 6531SOL     OW20248   4.314   3.349   2.353
 6531SOL    HW120249   4.356   3.291   2.283
 6531SOL    HW220250   4.270   3.428   2.309
 6532SOL     OW20251   3.979   3.210   2.152
 6532SOL    HW120252   3.883   3.211   2.125
 6532SOL    HW220253   3.991   3.263   2.236
 6533SOL     OW20254   3.829   2.875   3.588
 6533SOL    HW120255   3.752   2.842   3.642
 6533SOL    HW220256   3.914   2.845   3.630
 6534SOL     OW20257   4.396   2.065   3.351
 6534SOL    HW120258   4.486   2.049   3.311
 6534SOL    HW220259   4.404   2.070   3.450
 6535SOL     OW20260   3.799   2.207   1.895
 6535SOL    HW120261   3.707   2.179   1.866
 6535SOL    HW220262   3.830   2.284   1.839
 6536SOL     OW20263   3.796   2.028   2.180
 6536SOL    HW120264   3.779   2.111   2.126
 6536SOL    HW220265   3.886   1.991   2.158
 6537SOL     OW20266   4.337   2.704   3.293
 6537SOL    HW120267   4.393   2.785   3.276
 6537SOL    HW220268   4.396   2.624   3.296
 6538SOL     OW20269   4.440   2.427   3.570
 6538SOL    HW120270   4.459   2.492   3.644
 6538SOL    HW220271   4.500   2.347   3.579
 6539SOL     OW20272   4.114   3.603   3.422
 6539SOL    HW120273   4.023   3.644   3.420
 6539SOL    HW220274   4.107   3.509   3.454
 6540SOL     OW20275   4.318   2.607   2.514
 6540SOL    HW120276   4.368   2.692   2.495
 6540SOL    HW220277   4.230   2.609   2.466
 6541SOL     OW20278   3.945   3.176   3.706
 6541SOL    HW120279   3.880   3.103   3.685
 6541SOL    HW220280   3.949   3.190   3.804
 6542SOL     OW20281   3.803   3.102   2.515
 6542SOL    HW120282   3.802   3.055   2.603
 6542SOL    HW220283   3.885   3.074   2.464
 6543SOL     OW20284   4.396   3.253   3.486
 6543SOL    HW120285   4.318   3.203   3.524
 6543SOL    HW220286   4.393   3.348   3.517
 6544SOL     OW20287   4.152   2.286   2.382
 6544SOL    HW120288   4.182   2.214   2.320
 6544SOL    HW220289   4.113   2.246   2.465
 6545SOL     OW20290   4.041   2.409   3.142
 6545SOL    HW120291   4.079   2.350   3.214
 6545SOL    HW220292   4.081   2.383   3.054
 6546SOL     OW20293   4.536   3.448   2.549
 6546SOL    HW120294   4.568   3.458   2.455
 6546SOL    HW220295   4.457   3.386   2.551
 6547SOL     OW20296   3.763   2.939   2.162
 6547SOL    HW120297   3.862   2.928   2.153
 6547SOL    HW220298   3.723   2.853   2.194
 6548SOL     OW20299   3.954   2.490   3.837
 6548SOL    HW120300   3.861   2.488   3.874
 6548SOL    HW220301   3.955   2.451   3.745
 6549SOL     OW20302   3.949   2.137   4.720
 6549SOL    HW120303   3.984   2.120   4.812
 6549SOL    HW220304   3.861   2.092   4.708
 6550SOL     OW20305   3.743   2.230   4.371
 6550SOL    HW120306   3.661   2.273   4.410
 6550SOL    HW220307   3.715   2.157   4.308
 6551SOL     OW20308   4.293   3.137   4.889
 6551SOL    HW120309   4.200   3.130   4.852
 6551SOL    HW220310   4.304   3.226   4.933
 6552SOL     OW20311   4.574   2.660   5.547
 6552SOL    HW120312   4.570   2.736   5.612
 6552SOL    HW220313   4.596   2.696   5.456
 6553SOL     OW20314   4.409   2.874   4.389
 6553SOL    HW120315   4.478   2.858   4.459
 6553SOL    HW220316   4.336   2.931   4.427
 6554SOL     OW20317   4.410   3.023   5.527
 6554SOL    HW120318   4.470   3.102   5.541
 6554SOL    HW220319   4.324   3.054   5.486
 6555SOL     OW20320   4.059   3.297   4.785
 6555SOL    HW120321   3.981   3.266   4.732
 6555SOL    HW220322   4.117   3.355   4.728
 6556SOL     OW20323   4.162   2.254   5.223
 6556SOL    HW120324   4.244   2.198   5.232
 6556SOL    HW220325   4.081   2.196   5.227
 6557SOL     OW20326   3.955   3.575   4.207
 6557SOL    HW120327   3.989   3.652   4.261
 6557SOL    HW220328   3.999   3.575   4.117
 6558SOL     OW20329   3.954   3.296   4.262
 6558SOL    HW120330   3.928   3.392   4.262
 6558SOL    HW220331   3.883   3.242   4.307
 6559SOL     OW20332   3.964   2.953   4.610
 6559SOL    HW120333   3.978   2.869   4.662
 6559SOL    HW220334   3.909   3.017   4.665
 6560SOL     OW20335   4.344   3.648   5.163
 6560SOL    HW120336   4.252   3.631   5.198
 6560SOL    HW220337   4.372   3.740   5.189
 6561SOL     OW20338   4.330   2.826   3.847
 6561SOL    HW120339   4.337   2.910   3.793
 6561SOL    HW220340   4.376   2.839   3.935
 6562SOL     OW20341   3.846   2.505   4.287
 6562SOL    HW120342   3.801   2.417   4.304
 6562SOL    HW220343   3.845   2.559   4.371
 6563SOL     OW20344   3.751   3.458   3.841
 6563SOL    HW120345   3.732   3.362   3.862
 6563SOL    HW220346   3.718   3.516   3.916
 6564SOL     OW20347   3.837   2.599   5.321
 6564SOL    HW120348   3.925   2.586   5.366
 6564SOL    HW220349   3.824   2.696   5.299
 6565SOL     OW20350   4.337   3.227   4.450
 6565SOL    HW120351   4.288   3.140   4.459
 6565SOL    HW220352   4.314   3.270   4.363
 6566SOL     OW20353   4.533   1.866   4.226
 6566SOL    HW120354   4.573   1.957   4.217
 6566SOL    HW220355   4.433   1.874   4.232
 6567SOL     OW20356   3.921   2.838   4.988
 6567SOL    HW120357   4.010   2.793   4.974
 6567SOL    HW220358   3.848   2.773   4.969
 6568SOL     OW20359   4.041   2.113   5.525
 6568SOL    HW120360   4.112   2.184   5.531
 6568SOL    HW220361   3.953   2.152   5.553
 6569SOL     OW20362   4.322   2.591   3.994
 6569SOL    HW120363   4.346   2.660   3.926
 6569SOL    HW220364   4.244   2.624   4.048
 6570SOL     OW20365   3.800   2.673   4.513
 6570SOL    HW120366   3.899   2.661   4.522
 6570SOL    HW220367   3.776   2.768   4.534
 6571SOL     OW20368   3.854   3.683   5.295
 6571SOL    HW120369   3.844   3.668   5.394
 6571SOL    HW220370   3.768   3.719   5.259
 6572SOL     OW20371   4.274   2.058   4.609
 6572SOL    HW120372   4.269   2.053   4.709
 6572SOL    HW220373   4.276   2.154   4.580
 6573SOL     OW20374   4.075   3.663   4.577
 6573SOL    HW120375   4.125   3.577   4.583
 6573SOL    HW220376   4.140   3.740   4.574
 6574SOL     OW20377   4.045   2.805   3.966
 6574SOL    HW120378   4.127   2.844   3.924
 6574SOL    HW220379   4.018   2.723   3.917
 6575SOL     OW20380   4.185   3.128   5.451
 6575SOL    HW120381   4.135   3.129   5.365
 6575SOL    HW220382   4.122   3.110   5.527
 6576SOL     OW20383   3.926   2.147   5.222
 6576SOL    HW120384   3.846   2.207   5.209
 6576SOL    HW220385   3.916   2.098   5.308
 6577SOL     OW20386   4.188   3.605   4.047
 6577SOL    HW120387   4.221   3.644   4.133
 6577SOL    HW220388   4.264   3.598   3.982
 6578SOL     OW20389   3.973   3.647   4.965
 6578SOL    HW120390   4.030   3.582   5.015
 6578SOL    HW220391   3.957   3.614   4.872
 6579SOL     OW20392   4.106   2.562   4.204
 6579SOL    HW120393   4.151   2.472   4.201
 6579SOL    HW220394   4.012   2.551   4.237
 6580SOL     OW20395   4.338   1.984   3.841
 6580SOL    HW120396   4.436   1.962   3.848
 6580SOL    HW220397   4.307   1.967   3.748
 6581SOL     OW20398   4.527   3.264   4.648
 6581SOL    HW120399   4.617   3.278   4.606
 6581SOL    HW220400   4.456   3.266   4.577
 6582SOL     OW20401   4.263   1.926   4.236
 6582SOL    HW120402   4.182   1.927   4.294
 6582SOL    HW220403   4.266   2.009   4.181
 6583SOL     OW20404   4.021   1.897   3.895
 6583SOL    HW120405   4.070   1.981   3.874
 6583SOL    HW220406   4.083   1.832   3.940
 6584SOL     OW20407   4.800   2.545   5.188
 6584SOL    HW120408   4.720   2.484   5.191
 6584SOL    HW220409   4.881   2.492   5.164
 6585SOL     OW20410   4.183   3.014   4.465
 6585SOL    HW120411   4.112   2.987   4.530
 6585SOL    HW220412   4.157   2.986   4.372
 6586SOL     OW20413   3.802   2.418   5.110
 6586SOL    HW120414   3.894   2.417   5.069
 6586SOL    HW220415   3.796   2.492   5.177
 6587SOL     OW20416   4.285   2.084   4.871
 6587SOL    HW120417   4.323   2.000   4.908
 6587SOL    HW220418   4.197   2.103   4.915
 6588SOL     OW20419   4.212   3.247   3.898
 6588SOL    HW120420   4.125   3.232   3.945
 6588SOL    HW220421   4.195   3.273   3.803
 6589SOL     OW20422   4.251   2.118   4.052
 6589SOL    HW120423   4.278   2.059   3.977
 6589SOL    HW220424   4.251   2.213   4.021
 6590SOL     OW20425   4.134   2.675   4.975
 6590SOL    HW120426   4.220   2.687   5.025
 6590SOL    HW220427   4.092   2.588   5.002
 6591SOL     OW20428   3.788   3.426   5.055
 6591SOL    HW120429   3.742   3.508   5.021
 6591SOL    HW220430   3.886   3.445   5.064
 6592SOL     OW20431   4.091   2.962   4.225
 6592SOL    HW120432   4.084   3.045   4.169
 6592SOL    HW220433   4.095   2.882   4.165
 6593SOL     OW20434   4.290   2.399   4.589
 6593SOL    HW120435   4.302   2.465   4.515
 6593SOL    HW220436   4.336   2.433   4.672
 6594SOL     OW20437   4.078   3.372   5.053
 6594SOL    HW120438   4.057   3.328   4.966
 6594SOL    HW220439   4.175   3.398   5.056
 6595SOL     OW20440   4.126   2.613   5.322
 6595SOL    HW120441   4.194   2.668   5.275
 6595SOL    HW220442   4.166   2.525   5.349
 6596SOL     OW20443   4.228   1.912   5.464
 6596SOL    HW120444   4.186   1.855   5.394
 6596SOL    HW220445   4.162   1.981   5.496
 6597SOL     OW20446   4.297   2.732   4.753
 6597SOL    HW120447   4.341   2.821   4.744
 6597SOL    HW220448   4.234   2.732   4.830
 6598SOL     OW20449   4.031   2.075   4.955
 6598SOL    HW120450   4.008   2.112   5.045
 6598SOL    HW220451   4.001   1.980   4.949
 6599SOL     OW20452   3.761   3.172   5.006
 6599SOL    HW120453   3.814   3.123   5.074
 6599SOL    HW220454   3.783   3.270   5.011
 6600SOL     OW20455   4.031   1.925   4.342
 6600SOL    HW120456   4.020   2.019   4.375
 6600SOL    HW220457   4.026   1.862   4.419
 6601SOL     OW20458   4.074   2.760   5.528
 6601SOL    HW120459   4.150   2.804   5.576
 6601SOL    HW220460   4.109   2.713   5.446
 6602SOL     OW20461   4.043   2.672   4.673
 6602SOL    HW120462   4.136   2.708   4.678
 6602SOL    HW220463   4.037   2.587   4.725
 6603SOL     OW20464   4.063   2.371   4.730
 6603SOL    HW120465   4.011   2.288   4.713
 6603SOL    HW220466   4.140   2.376   4.666
 6604SOL     OW20467   3.732   3.188   3.924
 6604SOL    HW120468   3.639   3.209   3.893
 6604SOL    HW220469   3.742   3.089   3.937
 6605SOL     OW20470   3.812   3.663   4.651
 6605SOL    HW120471   3.770   3.577   4.624
 6605SOL    HW220472   3.906   3.666   4.617
 6606SOL     OW20473   4.228   3.430   4.634
 6606SOL    HW120474   4.294   3.504   4.643
 6606SOL    HW220475   4.272   3.351   4.592
 6607SOL     OW20476   3.764   2.406   4.838
 6607SOL    HW120477   3.849   2.373   4.797
 6607SOL    HW220478   3.777   2.421   4.936
 6608SOL     OW20479   3.913   2.382   5.446
 6608SOL    HW120480   3.972   2.342   5.376
 6608SOL    HW220481   3.855   2.453   5.405
 6609SOL     OW20482   4.539   2.434   4.049
 6609SOL    HW120483   4.546   2.345   4.003
 6609SOL    HW220484   4.445   2.468   4.041
 6610SOL     OW20485   3.976   3.426   5.468
 6610SOL    HW120486   3.946   3.483   5.544
 6610SOL    HW220487   3.969   3.329   5.494
 6611SOL     OW20488   4.197   2.362   3.915
 6611SOL    HW120489   4.258   2.442   3.919
 6611SOL    HW220490   4.102   2.393   3.922
 6612SOL     OW20491   3.883   2.999   5.190
 6612SOL    HW120492   3.905   2.938   5.266
 6612SOL    HW220493   3.893   2.950   5.104
 6613SOL     OW20494   3.807   3.120   4.746
 6613SOL    HW120495   3.802   3.119   4.846
 6613SOL    HW220496   3.724   3.079   4.708
 6614SOL     OW20497   4.412   3.524   5.440
 6614SOL    HW120498   4.356   3.605   5.449
 6614SOL    HW220499   4.464   3.528   5.354
 6615SOL     OW20500   3.854   3.656   5.575
 6615SOL    HW120501   3.813   3.582   5.628
 6615SOL    HW220502   3.918   3.707   5.633
 6616SOL     OW20503   3.987   2.188   4.444
 6616SOL    HW120504   3.908   2.239   4.410
 6616SOL    HW220505   3.978   2.173   4.542
 6617SOL     OW20506   4.096   3.150   5.214
 6617SOL    HW120507   4.083   3.243   5.180
 6617SOL    HW220508   4.012   3.098   5.201
 6618SOL     OW20509   4.314   3.349   4.215
 6618SOL    HW120510   4.356   3.291   4.145
 6618SOL    HW220511   4.270   3.428   4.171
 6619SOL     OW20512   3.979   3.210   4.014
 6619SOL    HW120513   3.883   3.211   3.987
 6619SOL    HW220514   3.991   3.263   4.098
 6620SOL     OW20515   3.829   2.875   5.450
 6620SOL    HW120516   3.752   2.842   5.504
 6620SOL    HW220517   3.914   2.845   5.492
 6621SOL     OW20518   4.396   2.065   5.213
 6621SOL    HW120519   4.486   2.049   5.173
 6621SOL    HW220520   4.404   2.070   5.312
 6622SOL     OW20521   3.799   2.207   3.757
 6622SOL    HW120522   3.707   2.179   3.728
 6622SOL    HW220523   3.830   2.284   3.701
 6623SOL     OW20524   3.796   2.028   4.042
 6623SOL    HW120525   3.779   2.111   3.988
 6623SOL    HW220526   3.886   1.991   4.020
 6624SOL     OW20527   4.337   2.704   5.155
 6624SOL    HW120528   4.393   2.785   5.138
 6624SOL    HW220529   4.396   2.624   5.158
 6625SOL     OW20530   4.440   2.427   5.432
 6625SOL    HW120531   4.459   2.492   5.506
 6625SOL    HW220532   4.500   2.347   5.441
 6626SOL     OW20533   4.114   3.603   5.284
 6626SOL    HW120534   4.023   3.644   5.282
 6626SOL    HW220535   4.107   3.509   5.316
 6627SOL     OW20536   4.318   2.607   4.376
 6627SOL    HW120537   4.368   2.692   4.357
 6627SOL    HW220538   4.230   2.609   4.328
 6628SOL     OW20539   3.945   3.176   5.568
 6628SOL    HW120540   3.880   3.103   5.547
 6628SOL    HW220541   3.949   3.190   5.666
 6629SOL     OW20542   3.803   3.102   4.377
 6629SOL    HW120543   3.802   3.055   4.465
 6629SOL    HW220544   3.885   3.074   4.326
 6630SOL     OW20545   4.396   3.253   5.348
 6630SOL    HW120546   4.318   3.203   5.386
 6630SOL    HW220547   4.393   3.348   5.379
 6631SOL     OW20548   4.152   2.286   4.244
 6631SOL    HW120549   4.182   2.214   4.182
 6631SOL    HW220550   4.113   2.246   4.327
 6632SOL     OW20551   4.041   2.409   5.004
 6632SOL    HW120552   4.079   2.350   5.076
 6632SOL    HW220553   4.081   2.383   4.916
 6633SOL     OW20554   4.536   3.448   4.411
 6633SOL    HW120555   4.568   3.458   4.317
 6633SOL    HW220556   4.457   3.386   4.413
 6634SOL     OW20557   3.763   2.939   4.024
 6634SOL    HW120558   3.862   2.928   4.015
 6634SOL    HW220559   3.723   2.853   4.056
 6635SOL     OW20560   3.954   2.490   5.699
 6635SOL    HW120561   3.861   2.488   5.736
 6635SOL    HW220562   3.955   2.451   5.607
 6636SOL     OW20563   3.949   2.137   6.582
 6636SOL    HW120564   3.984   2.120   6.674
 6636SOL    HW220565   3.861   2.092   6.570
 6637SOL     OW20566   3.743   2.230   6.233
 6637SOL    HW120567   3.661   2.273   6.272
 6637SOL    HW220568   3.715   2.157   6.170
 6638SOL     OW20569   4.293   3.137   6.751
 6638SOL    HW120570   4.200   3.130   6.714
 6638SOL    HW220571   4.304   3.226   6.795
 6639SOL     OW20572   4.574   2.660   7.409
 6639SOL    HW120573   4.570   2.736   7.474
 6639SOL    HW220574   4.596   2.696   7.318
 6640SOL     OW20575   4.409   2.874   6.251
 6640SOL    HW120576   4.478   2.858   6.321
 6640SOL    HW220577   4.336   2.931   6.289
 6641SOL     OW20578   4.410   3.023   7.389
 6641SOL    HW120579   4.470   3.102   7.403
 6641SOL    HW220580   4.324   3.054   7.348
 6642SOL     OW20581   4.059   3.297   6.647
 6642SOL    HW120582   3.981   3.266   6.594
 6642SOL    HW220583   4.117   3.355   6.590
 6643SOL     OW20584   4.162   2.254   7.085
 6643SOL    HW120585   4.244   2.198   7.094
 6643SOL    HW220586   4.081   2.196   7.089
 6644SOL     OW20587   3.955   3.575   6.069
 6644SOL    HW120588   3.989   3.652   6.123
 6644SOL    HW220589   3.999   3.575   5.979
 6645SOL     OW20590   3.954   3.296   6.124
 6645SOL    HW120591   3.928   3.392   6.124
 6645SOL    HW220592   3.883   3.242   6.169
 6646SOL     OW20593   3.964   2.953   6.472
 6646SOL    HW120594   3.978   2.869   6.524
 6646SOL    HW220595   3.909   3.017   6.527
 6647SOL     OW20596   4.344   3.648   7.025
 6647SOL    HW120597   4.252   3.631   7.060
 6647SOL    HW220598   4.372   3.740   7.051
 6648SOL     OW20599   4.330   2.826   5.709
 6648SOL    HW120600   4.337   2.910   5.655
 6648SOL    HW220601   4.376   2.839   5.797
 6649SOL     OW20602   3.846   2.505   6.149
 6649SOL    HW120603   3.801   2.417   6.166
 6649SOL    HW220604   3.845   2.559   6.233
 6650SOL     OW20605   3.751   3.458   5.703
 6650SOL    HW120606   3.732   3.362   5.724
 6650SOL    HW220607   3.718   3.516   5.778
 6651SOL     OW20608   3.837   2.599   7.183
 6651SOL    HW120609   3.925   2.586   7.228
 6651SOL    HW220610   3.824   2.696   7.161
 6652SOL     OW20611   4.337   3.227   6.312
 6652SOL    HW120612   4.288   3.140   6.321
 6652SOL    HW220613   4.314   3.270   6.225
 6653SOL     OW20614   4.533   1.866   6.088
 6653SOL    HW120615   4.573   1.957   6.079
 6653SOL    HW220616   4.433   1.874   6.094
 6654SOL     OW20617   3.921   2.838   6.850
 6654SOL    HW120618   4.010   2.793   6.836
 6654SOL    HW220619   3.848   2.773   6.831
 6655SOL     OW20620   4.041   2.113   7.387
 6655SOL    HW120621   4.112   2.184   7.393
 6655SOL    HW220622   3.953   2.152   7.415
 6656SOL     OW20623   4.322   2.591   5.856
 6656SOL    HW120624   4.346   2.660   5.788
 6656SOL    HW220625   4.244   2.624   5.910
 6657SOL     OW20626   3.800   2.673   6.375
 6657SOL    HW120627   3.899   2.661   6.384
 6657SOL    HW220628   3.776   2.768   6.396
 6658SOL     OW20629   3.854   3.683   7.157
 6658SOL    HW120630   3.844   3.668   7.256
 6658SOL    HW220631   3.768   3.719   7.121
 6659SOL     OW20632   4.274   2.058   6.471
 6659SOL    HW120633   4.269   2.053   6.571
 6659SOL    HW220634   4.276   2.154   6.442
 6660SOL     OW20635   4.075   3.663   6.439
 6660SOL    HW120636   4.125   3.577   6.445
 6660SOL    HW220637   4.140   3.740   6.436
 6661SOL     OW20638   4.045   2.805   5.828
 6661SOL    HW120639   4.127   2.844   5.786
 6661SOL    HW220640   4.018   2.723   5.779
 6662SOL     OW20641   4.185   3.128   7.313
 6662SOL    HW120642   4.135   3.129   7.227
 6662SOL    HW220643   4.122   3.110   7.389
 6663SOL     OW20644   3.926   2.147   7.084
 6663SOL    HW120645   3.846   2.207   7.071
 6663SOL    HW220646   3.916   2.098   7.170
 6664SOL     OW20647   4.188   3.605   5.909
 6664SOL    HW120648   4.221   3.644   5.995
 6664SOL    HW220649   4.264   3.598   5.844
 6665SOL     OW20650   3.973   3.647   6.827
 6665SOL    HW120651   4.030   3.582   6.877
 6665SOL    HW220652   3.957   3.614   6.734
 6666SOL     OW20653   4.106   2.562   6.066
 6666SOL    HW120654   4.151   2.472   6.063
 6666SOL    HW220655   4.012   2.551   6.099
 6667SOL     OW20656   4.338   1.984   5.703
 6667SOL    HW120657   4.436   1.962   5.710
 6667SOL    HW220658   4.307   1.967   5.610
 6668SOL     OW20659   4.527   3.264   6.510
 6668SOL    HW120660   4.617   3.278   6.468
 6668SOL    HW220661   4.456   3.266   6.439
 6669SOL     OW20662   4.263   1.926   6.098
 6669SOL    HW120663   4.182   1.927   6.156
 6669SOL    HW220664   4.266   2.009   6.043
 6670SOL     OW20665   4.021   1.897   5.757
 6670SOL    HW120666   4.070   1.981   5.736
 6670SOL    HW220667   4.083   1.832   5.802
 6671SOL     OW20668   4.800   2.545   7.050
 6671SOL    HW120669   4.720   2.484   7.053
 6671SOL    HW220670   4.881   2.492   7.026
 6672SOL     OW20671   4.183   3.014   6.327
 6672SOL    HW120672   4.112   2.987   6.392
 6672SOL    HW220673   4.157   2.986   6.234
 6673SOL     OW20674   3.802   2.418   6.972
 6673SOL    HW120675   3.894   2.417   6.931
 6673SOL    HW220676   3.796   2.492   7.039
 6674SOL     OW20677   4.285   2.084   6.733
 6674SOL    HW120678   4.323   2.000   6.770
 6674SOL    HW220679   4.197   2.103   6.777
 6675SOL     OW20680   4.212   3.247   5.760
 6675SOL    HW120681   4.125   3.232   5.807
 6675SOL    HW220682   4.195   3.273   5.665
 6676SOL     OW20683   4.251   2.118   5.914
 6676SOL    HW120684   4.278   2.059   5.839
 6676SOL    HW220685   4.251   2.213   5.883
 6677SOL     OW20686   4.134   2.675   6.837
 6677SOL    HW120687   4.220   2.687   6.887
 6677SOL    HW220688   4.092   2.588   6.864
 6678SOL     OW20689   3.788   3.426   6.917
 6678SOL    HW120690   3.742   3.508   6.883
 6678SOL    HW220691   3.886   3.445   6.926
 6679SOL     OW20692   4.091   2.962   6.087
 6679SOL    HW120693   4.084   3.045   6.031
 6679SOL    HW220694   4.095   2.882   6.027
 6680SOL     OW20695   4.290   2.399   6.451
 6680SOL    HW120696   4.302   2.465   6.377
 6680SOL    HW220697   4.336   2.433   6.534
 6681SOL     OW20698   4.078   3.372   6.915
 6681SOL    HW120699   4.057   3.328   6.828
 6681SOL    HW220700   4.175   3.398   6.918
 6682SOL     OW20701   4.126   2.613   7.184
 6682SOL    HW120702   4.194   2.668   7.137
 6682SOL    HW220703   4.166   2.525   7.211
 6683SOL     OW20704   4.228   1.912   7.326
 6683SOL    HW120705   4.186   1.855   7.256
 6683SOL    HW220706   4.162   1.981   7.358
 6684SOL     OW20707   4.297   2.732   6.615
 6684SOL    HW120708   4.341   2.821   6.606
 6684SOL    HW220709   4.234   2.732   6.692
 6685SOL     OW20710   4.031   2.075   6.817
 6685SOL    HW120711   4.008   2.112   6.907
 6685SOL    HW220712   4.001   1.980   6.811
 6686SOL     OW20713   3.761   3.172   6.868
 6686SOL    HW120714   3.814   3.123   6.936
 6686SOL    HW220715   3.783   3.270   6.873
 6687SOL     OW20716   4.031   1.925   6.204
 6687SOL    HW120717   4.020   2.019   6.237
 6687SOL    HW220718   4.026   1.862   6.281
 6688SOL     OW20719   4.074   2.760   7.390
 6688SOL    HW120720   4.150   2.804   7.438
 6688SOL    HW220721   4.109   2.713   7.308
 6689SOL     OW20722   4.043   2.672   6.535
 6689SOL    HW120723   4.136   2.708   6.540
 6689SOL    HW220724   4.037   2.587   6.587
 6690SOL     OW20725   4.063   2.371   6.592
 6690SOL    HW120726   4.011   2.288   6.575
 6690SOL    HW220727   4.140   2.376   6.528
 6691SOL     OW20728   3.732   3.188   5.786
 6691SOL    HW120729   3.639   3.209   5.755
 6691SOL    HW220730   3.742   3.089   5.799
 6692SOL     OW20731   3.812   3.663   6.513
 6692SOL    HW120732   3.770   3.577   6.486
 6692SOL    HW220733   3.906   3.666   6.479
 6693SOL     OW20734   4.228   3.430   6.496
 6693SOL    HW120735   4.294   3.504   6.505
 6693SOL    HW220736   4.272   3.351   6.454
 6694SOL     OW20737   3.764   2.406   6.700
 6694SOL    HW120738   3.849   2.373   6.659
 6694SOL    HW220739   3.777   2.421   6.798
 6695SOL     OW20740   3.913   2.382   7.308
 6695SOL    HW120741   3.972   2.342   7.238
 6695SOL    HW220742   3.855   2.453   7.267
 6696SOL     OW20743   4.539   2.434   5.911
 6696SOL    HW120744   4.546   2.345   5.865
 6696SOL    HW220745   4.445   2.468   5.903
 6697SOL     OW20746   3.976   3.426   7.330
 6697SOL    HW120747   3.946   3.483   7.406
 6697SOL    HW220748   3.969   3.329   7.356
 6698SOL     OW20749   4.197   2.362   5.777
 6698SOL    HW120750   4.258   2.442   5.781
 6698SOL    HW220751   4.102   2.393   5.784
 6699SOL     OW20752   3.883   2.999   7.052
 6699SOL    HW120753   3.905   2.938   7.128
 6699SOL    HW220754   3.893   2.950   6.966
 6700SOL     OW20755   3.807   3.120   6.608
 6700SOL    HW120756   3.802   3.119   6.708
 6700SOL    HW220757   3.724   3.079   6.570
 6701SOL     OW20758   4.412   3.524   7.302
 6701SOL    HW120759   4.356   3.605   7.311
 6701SOL    HW220760   4.464   3.528   7.216
 6702SOL     OW20761   3.854   3.656   7.437
 6702SOL    HW120762   3.813   3.582   7.490
 6702SOL    HW220763   3.918   3.707   7.495
 6703SOL     OW20764   3.987   2.188   6.306
 6703SOL    HW120765   3.908   2.239   6.272
 6703SOL    HW220766   3.978   2.173   6.404
 6704SOL     OW20767   4.096   3.150   7.076
 6704SOL    HW120768   4.083   3.243   7.042
 6704SOL    HW220769   4.012   3.098   7.063
 6705SOL     OW20770   4.314   3.349   6.077
 6705SOL    HW120771   4.356   3.291   6.007
 6705SOL    HW220772   4.270   3.428   6.033
 6706SOL     OW20773   3.979   3.210   5.876
 6706SOL    HW120774   3.883   3.211   5.849
 6706SOL    HW220775   3.991   3.263   5.960
 6707SOL     OW20776   3.829   2.875   7.312
 6707SOL    HW120777   3.752   2.842   7.366
 6707SOL    HW220778   3.914   2.845   7.354
 6708SOL     OW20779   4.396   2.065   7.075
 6708SOL    HW120780   4.486   2.049   7.035
 6708SOL    HW220781   4.404   2.070   7.174
 6709SOL     OW20782   3.799   2.207   5.619
 6709SOL    HW120783   3.707   2.179   5.590
 6709SOL    HW220784   3.830   2.284   5.563
 6710SOL     OW20785   3.796   2.028   5.904
 6710SOL    HW120786   3.779   2.111   5.850
 6710SOL    HW220787   3.886   1.991   5.882
 6711SOL     OW20788   4.337   2.704   7.017
 6711SOL    HW120789   4.393   2.785   7.000
 6711SOL    HW220790   4.396   2.624   7.020
 6712SOL     OW20791   4.440   2.427   7.294
 6712SOL    HW120792   4.459   2.492   7.368
 6712SOL    HW220793   4.500   2.347   7.303
 6713SOL     OW20794   4.114   3.603   7.146
 6713SOL    HW120795   4.023   3.644   7.144
 6713SOL    HW220796   4.107   3.509   7.178
 6714SOL     OW20797   4.318   2.607   6.238
 6714SOL    HW120798   4.368   2.692   6.219
 6714SOL    HW220799   4.230   2.609   6.190
 6715SOL     OW20800   3.945   3.176   7.430
 6715SOL    HW120801   3.880   3.103   7.409
 6715SOL    HW220802   3.949   3.190   7.528
 6716SOL     OW20803   3.803   3.102   6.239
 6716SOL    HW120804   3.802   3.055   6.327
 6716SOL    HW220805   3.885   3.074   6.188
 6717SOL     OW20806   4.396   3.253   7.210
 6717SOL    HW120807   4.318   3.203   7.248
 6717SOL    HW220808   4.393   3.348   7.241
 6718SOL     OW20809   4.152   2.286   6.106
 6718SOL    HW120810   4.182   2.214   6.044
 6718SOL    HW220811   4.113   2.246   6.189
 6719SOL     OW20812   4.041   2.409   6.866
 6719SOL    HW120813   4.079   2.350   6.938
 6719SOL    HW220814   4.081   2.383   6.778
 6720SOL     OW20815   4.536   3.448   6.273
 6720SOL    HW120816   4.568   3.458   6.179
 6720SOL    HW220817   4.457   3.386   6.275
 6721SOL     OW20818   3.763   2.939   5.886
 6721SOL    HW120819   3.862   2.928   5.877
 6721SOL    HW220820   3.723   2.853   5.918
 6722SOL     OW20821   3.954   2.490   7.561
 6722SOL    HW120822   3.861   2.488   7.598
 6722SOL    HW220823   3.955   2.451   7.469
 6723SOL     OW20824   3.949   2.137   8.444
 6723SOL    HW120825   3.984   2.120   8.536
 6723SOL    HW220826   3.861   2.092   8.432
 6724SOL     OW20827   3.743   2.230   8.095
 6724SOL    HW120828   3.661   2.273   8.134
 6724SOL    HW220829   3.715   2.157   8.032
 6725SOL     OW20830   4.293   3.137   8.613
 6725SOL    HW120831   4.200   3.130   8.576
 6725SOL    HW220832   4.304   3.226   8.657
 6726SOL     OW20833   4.574   2.660   9.271
 6726SOL    HW120834   4.570   2.736   9.336
 6726SOL    HW220835   4.596   2.696   9.180
 6727SOL     OW20836   4.409   2.874   8.113
 6727SOL    HW120837   4.478   2.858   8.183
 6727SOL    HW220838   4.336   2.931   8.151
 6728SOL     OW20839   4.410   3.023   9.251
 6728SOL    HW120840   4.470   3.102   9.265
 6728SOL    HW220841   4.324   3.054   9.210
 6729SOL     OW20842   4.059   3.297   8.509
 6729SOL    HW120843   3.981   3.266   8.456
 6729SOL    HW220844   4.117   3.355   8.452
 6730SOL     OW20845   4.162   2.254   8.947
 6730SOL    HW120846   4.244   2.198   8.956
 6730SOL    HW220847   4.081   2.196   8.951
 6731SOL     OW20848   3.955   3.575   7.931
 6731SOL    HW120849   3.989   3.652   7.985
 6731SOL    HW220850   3.999   3.575   7.841
 6732SOL     OW20851   3.954   3.296   7.986
 6732SOL    HW120852   3.928   3.392   7.986
 6732SOL    HW220853   3.883   3.242   8.031
 6733SOL     OW20854   3.964   2.953   8.334
 6733SOL    HW120855   3.978   2.869   8.386
 6733SOL    HW220856   3.909   3.017   8.389
 6734SOL     OW20857   4.344   3.648   8.887
 6734SOL    HW120858   4.252   3.631   8.922
 6734SOL    HW220859   4.372   3.740   8.913
 6735SOL     OW20860   4.330   2.826   7.571
 6735SOL    HW120861   4.337   2.910   7.517
 6735SOL    HW220862   4.376   2.839   7.659
 6736SOL     OW20863   3.846   2.505   8.011
 6736SOL    HW120864   3.801   2.417   8.028
 6736SOL    HW220865   3.845   2.559   8.095
 6737SOL     OW20866   3.751   3.458   7.565
 6737SOL    HW120867   3.732   3.362   7.586
 6737SOL    HW220868   3.718   3.516   7.640
 6738SOL     OW20869   3.837   2.599   9.045
 6738SOL    HW120870   3.925   2.586   9.090
 6738SOL    HW220871   3.824   2.696   9.023
 6739SOL     OW20872   4.337   3.227   8.174
 6739SOL    HW120873   4.288   3.140   8.183
 6739SOL    HW220874   4.314   3.270   8.087
 6740SOL     OW20875   4.533   1.866   7.950
 6740SOL    HW120876   4.573   1.957   7.941
 6740SOL    HW220877   4.433   1.874   7.956
 6741SOL     OW20878   3.921   2.838   8.712
 6741SOL    HW120879   4.010   2.793   8.698
 6741SOL    HW220880   3.848   2.773   8.693
 6742SOL     OW20881   4.041   2.113   9.249
 6742SOL    HW120882   4.112   2.184   9.255
 6742SOL    HW220883   3.953   2.152   9.277
 6743SOL     OW20884   4.322   2.591   7.718
 6743SOL    HW120885   4.346   2.660   7.650
 6743SOL    HW220886   4.244   2.624   7.772
 6744SOL     OW20887   3.800   2.673   8.237
 6744SOL    HW120888   3.899   2.661   8.246
 6744SOL    HW220889   3.776   2.768   8.258
 6745SOL     OW20890   3.854   3.683   9.019
 6745SOL    HW120891   3.844   3.668   9.118
 6745SOL    HW220892   3.768   3.719   8.983
 6746SOL     OW20893   4.274   2.058   8.333
 6746SOL    HW120894   4.269   2.053   8.433
 6746SOL    HW220895   4.276   2.154   8.304
 6747SOL     OW20896   4.075   3.663   8.301
 6747SOL    HW120897   4.125   3.577   8.307
 6747SOL    HW220898   4.140   3.740   8.298
 6748SOL     OW20899   4.045   2.805   7.690
 6748SOL    HW120900   4.127   2.844   7.648
 6748SOL    HW220901   4.018   2.723   7.641
 6749SOL     OW20902   4.185   3.128   9.175
 6749SOL    HW120903   4.135   3.129   9.089
 6749SOL    HW220904   4.122   3.110   9.251
 6750SOL     OW20905   3.926   2.147   8.946
 6750SOL    HW120906   3.846   2.207   8.933
 6750SOL    HW220907   3.916   2.098   9.032
 6751SOL     OW20908   4.188   3.605   7.771
 6751SOL    HW120909   4.221   3.644   7.857
 6751SOL    HW220910   4.264   3.598   7.706
 6752SOL     OW20911   3.973   3.647   8.689
 6752SOL    HW120912   4.030   3.582   8.739
 6752SOL    HW220913   3.957   3.614   8.596
 6753SOL     OW20914   4.106   2.562   7.928
 6753SOL    HW120915   4.151   2.472   7.925
 6753SOL    HW220916   4.012   2.551   7.961
 6754SOL     OW20917   4.338   1.984   7.565
 6754SOL    HW120918   4.436   1.962   7.572
 6754SOL    HW220919   4.307   1.967   7.472
 6755SOL     OW20920   4.527   3.264   8.372
 6755SOL    HW120921   4.617   3.278   8.330
 6755SOL    HW220922   4.456   3.266   8.301
 6756SOL     OW20923   4.263   1.926   7.960
 6756SOL    HW120924   4.182   1.927   8.018
 6756SOL    HW220925   4.266   2.009   7.905
 6757SOL     OW20926   4.021   1.897   7.619
 6757SOL    HW120927   4.070   1.981   7.598
 6757SOL    HW220928   4.083   1.832   7.664
 6758SOL     OW20929   4.800   2.545   8.912
 6758SOL    HW120930   4.720   2.484   8.915
 6758SOL    HW220931   4.881   2.492   8.888
 6759SOL     OW20932   4.183   3.014   8.189
 6759SOL    HW120933   4.112   2.987   8.254
 6759SOL    HW220934   4.157   2.986   8.096
 6760SOL     OW20935   3.802   2.418   8.834
 6760SOL    HW120936   3.894   2.417   8.793
 6760SOL    HW220937   3.796   2.492   8.901
 6761SOL     OW20938   4.285   2.084   8.595
 6761SOL    HW120939   4.323   2.000   8.632
 6761SOL    HW220940   4.197   2.103   8.639
 6762SOL     OW20941   4.212   3.247   7.622
 6762SOL    HW120942   4.125   3.232   7.669
 6762SOL    HW220943   4.195   3.273   7.527
 6763SOL     OW20944   4.251   2.118   7.776
 6763SOL    HW120945   4.278   2.059   7.701
 6763SOL    HW220946   4.251   2.213   7.745
 6764SOL     OW20947   4.134   2.675   8.699
 6764SOL    HW120948   4.220   2.687   8.749
 6764SOL    HW220949   4.092   2.588   8.726
 6765SOL     OW20950   3.788   3.426   8.779
 6765SOL    HW120951   3.742   3.508   8.745
 6765SOL    HW220952   3.886   3.445   8.788
 6766SOL     OW20953   4.091   2.962   7.949
 6766SOL    HW120954   4.084   3.045   7.893
 6766SOL    HW220955   4.095   2.882   7.889
 6767SOL     OW20956   4.290   2.399   8.313
 6767SOL    HW120957   4.302   2.465   8.239
 6767SOL    HW220958   4.336   2.433   8.396
 6768SOL     OW20959   4.078   3.372   8.777
 6768SOL    HW120960   4.057   3.328   8.690
 6768SOL    HW220961   4.175   3.398   8.780
 6769SOL     OW20962   4.126   2.613   9.046
 6769SOL    HW120963   4.194   2.668   8.999
 6769SOL    HW220964   4.166   2.525   9.073
 6770SOL     OW20965   4.228   1.912   9.188
 6770SOL    HW120966   4.186   1.855   9.118
 6770SOL    HW220967   4.162   1.981   9.220
 6771SOL     OW20968   4.297   2.732   8.477
 6771SOL    HW120969   4.341   2.821   8.468
 6771SOL    HW220970   4.234   2.732   8.554
 6772SOL     OW20971   4.031   2.075   8.679
 6772SOL    HW120972   4.008   2.112   8.769
 6772SOL    HW220973   4.001   1.980   8.673
 6773SOL     OW20974   3.761   3.172   8.730
 6773SOL    HW120975   3.814   3.123   8.798
 6773SOL    HW220976   3.783   3.270   8.735
 6774SOL     OW20977   4.031   1.925   8.066
 6774SOL    HW120978   4.020   2.019   8.099
 6774SOL    HW220979   4.026   1.862   8.143
 6775SOL     OW20980   4.074   2.760   9.252
 6775SOL    HW120981   4.150   2.804   9.300
 6775SOL    HW220982   4.109   2.713   9.170
 6776SOL     OW20983   4.043   2.672   8.397
 6776SOL    HW120984   4.136   2.708   8.402
 6776SOL    HW220985   4.037   2.587   8.449
 6777SOL     OW20986   4.063   2.371   8.454
 6777SOL    HW120987   4.011   2.288   8.437
 6777SOL    HW220988   4.140   2.376   8.390
 6778SOL     OW20989   3.732   3.188   7.648
 6778SOL    HW120990   3.639   3.209   7.617
 6778SOL    HW220991   3.742   3.089   7.661
 6779SOL     OW20992   3.812   3.663   8.375
 6779SOL    HW120993   3.770   3.577   8.348
 6779SOL    HW220994   3.906   3.666   8.341
 6780SOL     OW20995   4.228   3.430   8.358
 6780SOL    HW120996   4.294   3.504   8.367
 6780SOL    HW220997   4.272   3.351   8.316
 6781SOL     OW20998   3.764   2.406   8.562
 6781SOL    HW120999   3.849   2.373   8.521
 6781SOL    HW221000   3.777   2.421   8.660
 6782SOL     OW21001   3.913   2.382   9.170
 6782SOL    HW121002   3.972   2.342   9.100
 6782SOL    HW221003   3.855   2.453   9.129
 6783SOL     OW21004   4.539   2.434   7.773
 6783SOL    HW121005   4.546   2.345   7.727
 6783SOL    HW221006   4.445   2.468   7.765
 6784SOL     OW21007   3.976   3.426   9.192
 6784SOL    HW121008   3.946   3.483   9.268
 6784SOL    HW221009   3.969   3.329   9.218
 6785SOL     OW21010   4.197   2.362   7.639
 6785SOL    HW121011   4.258   2.442   7.643
 6785SOL    HW221012   4.102   2.393   7.646
 6786SOL     OW21013   3.883   2.999   8.914
 6786SOL    HW121014   3.905   2.938   8.990
 6786SOL    HW221015   3.893   2.950   8.828
 6787SOL     OW21016   3.807   3.120   8.470
 6787SOL    HW121017   3.802   3.119   8.570
 6787SOL    HW221018   3.724   3.079   8.432
 6788SOL     OW21019   4.412   3.524   9.164
 6788SOL    HW121020   4.356   3.605   9.173
 6788SOL    HW221021   4.464   3.528   9.078
 6789SOL     OW21022   3.854   3.656   9.299
 6789SOL    HW121023   3.813   3.582   9.352
 6789SOL    HW221024   3.918   3.707   9.357
 6790SOL     OW21025   3.987   2.188   8.168
 6790SOL    HW121026   3.908   2.239   8.134
 6790SOL    HW221027   3.978   2.173   8.266
 6791SOL     OW21028   4.096   3.150   8.938
 6791SOL    HW121029   4.083   3.243   8.904
 6791SOL    HW221030   4.012   3.098   8.925
 6792SOL     OW21031   4.314   3.349   7.939
 6792SOL    HW121032   4.356   3.291   7.869
 6792SOL    HW221033   4.270   3.428   7.895
 6793SOL     OW21034   3.979   3.210   7.738
 6793SOL    HW121035   3.883   3.211   7.711
 6793SOL    HW221036   3.991   3.263   7.822
 6794SOL     OW21037   3.829   2.875   9.174
 6794SOL    HW121038   3.752   2.842   9.228
 6794SOL    HW221039   3.914   2.845   9.216
 6795SOL     OW21040   4.396   2.065   8.937
 6795SOL    HW121041   4.486   2.049   8.897
 6795SOL    HW221042   4.404   2.070   9.036
 6796SOL     OW21043   3.799   2.207   7.481
 6796SOL    HW121044   3.707   2.179   7.452
 6796SOL    HW221045   3.830   2.284   7.425
 6797SOL     OW21046   3.796   2.028   7.766
 6797SOL    HW121047   3.779   2.111   7.712
 6797SOL    HW221048   3.886   1.991   7.744
 6798SOL     OW21049   4.337   2.704   8.879
 6798SOL    HW121050   4.393   2.785   8.862
 6798SOL    HW221051   4.396   2.624   8.882
 6799SOL     OW21052   4.440   2.427   9.156
 6799SOL    HW121053   4.459   2.492   9.230
 6799SOL    HW221054   4.500   2.347   9.165
 6800SOL     OW21055   4.114   3.603   9.008
 6800SOL    HW121056   4.023   3.644   9.006
 6800SOL    HW221057   4.107   3.509   9.040
 6801SOL     OW21058   4.318   2.607   8.100
 6801SOL    HW121059   4.368   2.692   8.081
 6801SOL    HW221060   4.230   2.609   8.052
 6802SOL     OW21061   3.945   3.176   9.292
 6802SOL    HW121062   3.880   3.103   9.271
 6802SOL    HW221063   3.949   3.190   9.390
 6803SOL     OW21064   3.803   3.102   8.101
 6803SOL    HW121065   3.802   3.055   8.189
 6803SOL    HW221066   3.885   3.074   8.050
 6804SOL     OW21067   4.396   3.253   9.072
 6804SOL    HW121068   4.318   3.203   9.110
 6804SOL    HW221069   4.393   3.348   9.103
 6805SOL     OW21070   4.152   2.286   7.968
 6805SOL    HW121071   4.182   2.214   7.906
 6805SOL    HW221072   4.113   2.246   8.051
 6806SOL     OW21073   4.041   2.409   8.728
 6806SOL    HW121074   4.079   2.350   8.800
 6806SOL    HW221075   4.081   2.383   8.640
 6807SOL     OW21076   4.536   3.448   8.135
 6807SOL    HW121077   4.568   3.458   8.041
 6807SOL    HW221078   4.457   3.386   8.137
 6808SOL     OW21079   3.763   2.939   7.748
 6808SOL    HW121080   3.862   2.928   7.739
 6808SOL    HW221081   3.723   2.853   7.780
 6809SOL     OW21082   3.954   2.490   9.423
 6809SOL    HW121083   3.861   2.488   9.460
 6809SOL    HW221084   3.955   2.451   9.331
 6810SOL     OW21085   3.949   2.137  10.306
 6810SOL    HW121086   3.984   2.120  10.398
 6810SOL    HW221087   3.861   2.092  10.294
 6811SOL     OW21088   3.743   2.230   9.957
 6811SOL    HW121089   3.661   2.273   9.996
 6811SOL    HW221090   3.715   2.157   9.894
 6812SOL     OW21091   4.293   3.137  10.475
 6812SOL    HW121092   4.200   3.130  10.438
 6812SOL    HW221093   4.304   3.226  10.519
 6813SOL     OW21094   4.574   2.660  11.133
 6813SOL    HW121095   4.570   2.736  11.198
 6813SOL    HW221096   4.596   2.696  11.042
 6814SOL     OW21097   4.409   2.874   9.975
 6814SOL    HW121098   4.478   2.858  10.045
 6814SOL    HW221099   4.336   2.931  10.013
 6815SOL     OW21100   4.059   3.297  10.371
 6815SOL    HW121101   3.981   3.266  10.318
 6815SOL    HW221102   4.117   3.355  10.314
 6816SOL     OW21103   4.162   2.254  10.809
 6816SOL    HW121104   4.244   2.198  10.818
 6816SOL    HW221105   4.081   2.196  10.813
 6817SOL     OW21106   3.955   3.575   9.793
 6817SOL    HW121107   3.989   3.652   9.847
 6817SOL    HW221108   3.999   3.575   9.703
 6818SOL     OW21109   3.954   3.296   9.848
 6818SOL    HW121110   3.928   3.392   9.848
 6818SOL    HW221111   3.883   3.242   9.893
 6819SOL     OW21112   3.964   2.953  10.196
 6819SOL    HW121113   3.978   2.869  10.248
 6819SOL    HW221114   3.909   3.017  10.251
 6820SOL     OW21115   4.344   3.648  10.749
 6820SOL    HW121116   4.252   3.631  10.784
 6820SOL    HW221117   4.372   3.740  10.775
 6821SOL     OW21118   4.330   2.826   9.433
 6821SOL    HW121119   4.337   2.910   9.379
 6821SOL    HW221120   4.376   2.839   9.521
 6822SOL     OW21121   3.846   2.505   9.873
 6822SOL    HW121122   3.801   2.417   9.890
 6822SOL    HW221123   3.845   2.559   9.957
 6823SOL     OW21124   3.751   3.458   9.427
 6823SOL    HW121125   3.732   3.362   9.448
 6823SOL    HW221126   3.718   3.516   9.502
 6824SOL     OW21127   3.837   2.599  10.907
 6824SOL    HW121128   3.925   2.586  10.952
 6824SOL    HW221129   3.824   2.696  10.885
 6825SOL     OW21130   4.337   3.227  10.036
 6825SOL    HW121131   4.288   3.140  10.045
 6825SOL    HW221132   4.314   3.270   9.949
 6826SOL     OW21133   4.533   1.866   9.812
 6826SOL    HW121134   4.573   1.957   9.803
 6826SOL    HW221135   4.433   1.874   9.818
 6827SOL     OW21136   3.921   2.838  10.574
 6827SOL    HW121137   4.010   2.793  10.560
 6827SOL    HW221138   3.848   2.773  10.555
 6828SOL     OW21139   4.041   2.113  11.111
 6828SOL    HW121140   4.112   2.184  11.117
 6828SOL    HW221141   3.953   2.152  11.139
 6829SOL     OW21142   4.322   2.591   9.580
 6829SOL    HW121143   4.346   2.660   9.512
 6829SOL    HW221144   4.244   2.624   9.634
 6830SOL     OW21145   3.800   2.673  10.099
 6830SOL    HW121146   3.899   2.661  10.108
 6830SOL    HW221147   3.776   2.768  10.120
 6831SOL     OW21148   3.854   3.683  10.881
 6831SOL    HW121149   3.844   3.668  10.980
 6831SOL    HW221150   3.768   3.719  10.845
 6832SOL     OW21151   4.274   2.058  10.195
 6832SOL    HW121152   4.269   2.053  10.295
 6832SOL    HW221153   4.276   2.154  10.166
 6833SOL     OW21154   4.075   3.663  10.163
 6833SOL    HW121155   4.125   3.577  10.169
 6833SOL    HW221156   4.140   3.740  10.160
 6834SOL     OW21157   4.045   2.805   9.552
 6834SOL    HW121158   4.127   2.844   9.510
 6834SOL    HW221159   4.018   2.723   9.503
 6835SOL     OW21160   4.185   3.128  11.037
 6835SOL    HW121161   4.135   3.129  10.951
 6835SOL    HW221162   4.122   3.110  11.113
 6836SOL     OW21163   3.926   2.147  10.808
 6836SOL    HW121164   3.846   2.207  10.795
 6836SOL    HW221165   3.916   2.098  10.894
 6837SOL     OW21166   4.188   3.605   9.633
 6837SOL    HW121167   4.221   3.644   9.719
 6837SOL    HW221168   4.264   3.598   9.568
 6838SOL     OW21169   3.973   3.647  10.551
 6838SOL    HW121170   4.030   3.582  10.601
 6838SOL    HW221171   3.957   3.614  10.458
 6839SOL     OW21172   4.106   2.562   9.790
 6839SOL    HW121173   4.151   2.472   9.787
 6839SOL    HW221174   4.012   2.551   9.823
 6840SOL     OW21175   4.338   1.984   9.427
 6840SOL    HW121176   4.436   1.962   9.434
 6840SOL    HW221177   4.307   1.967   9.334
 6841SOL     OW21178   4.527   3.264  10.234
 6841SOL    HW121179   4.617   3.278  10.192
 6841SOL    HW221180   4.456   3.266  10.163
 6842SOL     OW21181   4.263   1.926   9.822
 6842SOL    HW121182   4.182   1.927   9.880
 6842SOL    HW221183   4.266   2.009   9.767
 6843SOL     OW21184   4.021   1.897   9.481
 6843SOL    HW121185   4.070   1.981   9.460
 6843SOL    HW221186   4.083   1.832   9.526
 6844SOL     OW21187   4.800   2.545  10.774
 6844SOL    HW121188   4.720   2.484  10.777
 6844SOL    HW221189   4.881   2.492  10.750
 6845SOL     OW21190   4.183   3.014  10.051
 6845SOL    HW121191   4.112   2.987  10.116
 6845SOL    HW221192   4.157   2.986   9.958
 6846SOL     OW21193   3.802   2.418  10.696
 6846SOL    HW121194   3.894   2.417  10.655
 6846SOL    HW221195   3.796   2.492  10.763
 6847SOL     OW21196   4.285   2.084  10.457
 6847SOL    HW121197   4.323   2.000  10.494
 6847SOL    HW221198   4.197   2.103  10.501
 6848SOL     OW21199   4.212   3.247   9.484
 6848SOL    HW121200   4.125   3.232   9.531
 6848SOL    HW221201   4.195   3.273   9.389
 6849SOL     OW21202   4.251   2.118   9.638
 6849SOL    HW121203   4.278   2.059   9.563
 6849SOL    HW221204   4.251   2.213   9.607
 6850SOL     OW21205   4.134   2.675  10.561
 6850SOL    HW121206   4.220   2.687  10.611
 6850SOL    HW221207   4.092   2.588  10.588
 6851SOL     OW21208   3.788   3.426  10.641
 6851SOL    HW121209   3.742   3.508  10.607
 6851SOL    HW221210   3.886   3.445  10.650
 6852SOL     OW21211   4.091   2.962   9.811
 6852SOL    HW121212   4.084   3.045   9.755
 6852SOL    HW221213   4.095   2.882   9.751
 6853SOL     OW21214   4.290   2.399  10.175
 6853SOL    HW121215   4.302   2.465  10.101
 6853SOL    HW221216   4.336   2.433  10.258
 6854SOL     OW21217   4.078   3.372  10.639
 6854SOL    HW121218   4.057   3.328  10.552
 6854SOL    HW221219   4.175   3.398  10.642
 6855SOL     OW21220   4.126   2.613  10.908
 6855SOL    HW121221   4.194   2.668  10.861
 6855SOL    HW221222   4.166   2.525  10.935
 6856SOL     OW21223   4.297   2.732  10.339
 6856SOL    HW121224   4.341   2.821  10.330
 6856SOL    HW221225   4.234   2.732  10.416
 6857SOL     OW21226   4.031   2.075  10.541
 6857SOL    HW121227   4.008   2.112  10.631
 6857SOL    HW221228   4.001   1.980  10.535
 6858SOL     OW21229   3.761   3.172  10.592
 6858SOL    HW121230   3.814   3.123  10.660
 6858SOL    HW221231   3.783   3.270  10.597
 6859SOL     OW21232   4.031   1.925   9.928
 6859SOL    HW121233   4.020   2.019   9.961
 6859SOL    HW221234   4.026   1.862  10.005
 6860SOL     OW21235   4.074   2.760  11.114
 6860SOL    HW121236   4.150   2.804  11.162
 6860SOL    HW221237   4.109   2.713  11.032
 6861SOL     OW21238   4.043   2.672  10.259
 6861SOL    HW121239   4.136   2.708  10.264
 6861SOL    HW221240   4.037   2.587  10.311
 6862SOL     OW21241   4.063   2.371  10.316
 6862SOL    HW121242   4.011   2.288  10.299
 6862SOL    HW221243   4.140   2.376  10.252
 6863SOL     OW21244   3.732   3.188   9.510
 6863SOL    HW121245   3.639   3.209   9.479
 6863SOL    HW221246   3.742   3.089   9.523
 6864SOL     OW21247   3.812   3.663  10.237
 6864SOL    HW121248   3.770   3.577  10.210
 6864SOL    HW221249   3.906   3.666  10.203
 6865SOL     OW21250   4.228   3.430  10.220
 6865SOL    HW121251   4.294   3.504  10.229
 6865SOL    HW221252   4.272   3.351  10.178
 6866SOL     OW21253   3.764   2.406  10.424
 6866SOL    HW121254   3.849   2.373  10.383
 6866SOL    HW221255   3.777   2.421  10.522
 6867SOL     OW21256   4.539   2.434   9.635
 6867SOL    HW121257   4.546   2.345   9.589
 6867SOL    HW221258   4.445   2.468   9.627
 6868SOL     OW21259   3.976   3.426  11.054
 6868SOL    HW121260   3.946   3.483  11.130
 6868SOL    HW221261   3.969   3.329  11.080
 6869SOL     OW21262   4.197   2.362   9.501
 6869SOL    HW121263   4.258   2.442   9.505
 6869SOL    HW221264   4.102   2.393   9.508
 6870SOL     OW21265   3.883   2.999  10.776
 6870SOL    HW121266   3.905   2.938  10.852
 6870SOL    HW221267   3.893   2.950  10.690
 6871SOL     OW21268   3.807   3.120  10.332
 6871SOL    HW121269   3.802   3.119  10.432
 6871SOL    HW221270   3.724   3.079  10.294
 6872SOL     OW21271   4.412   3.524  11.026
 6872SOL    HW121272   4.356   3.605  11.035
 6872SOL    HW221273   4.464   3.528  10.940
 6873SOL     OW21274   3.987   2.188  10.030
 6873SOL    HW121275   3.908   2.239   9.996
 6873SOL    HW221276   3.978   2.173  10.128
 6874SOL     OW21277   4.096   3.150  10.800
 6874SOL    HW121278   4.083   3.243  10.766
 6874SOL    HW221279   4.012   3.098  10.787
 6875SOL     OW21280   4.314   3.349   9.801
 6875SOL    HW121281   4.356   3.291   9.731
 6875SOL    HW221282   4.270   3.428   9.757
 6876SOL     OW21283   3.979   3.210   9.600
 6876SOL    HW121284   3.883   3.211   9.573
 6876SOL    HW221285   3.991   3.263   9.684
 6877SOL     OW21286   3.829   2.875  11.036
 6877SOL    HW121287   3.752   2.842  11.090
 6877SOL    HW221288   3.914   2.845  11.078
 6878SOL     OW21289   4.396   2.065  10.799
 6878SOL    HW121290   4.486   2.049  10.759
 6878SOL    HW221291   4.404   2.070  10.898
 6879SOL     OW21292   3.799   2.207   9.343
 6879SOL    HW121293   3.707   2.179   9.314
 6879SOL    HW221294   3.830   2.284   9.287
 6880SOL     OW21295   3.796   2.028   9.628
 6880SOL    HW121296   3.779   2.111   9.574
 6880SOL    HW221297   3.886   1.991   9.606
 6881SOL     OW21298   4.337   2.704  10.741
 6881SOL    HW121299   4.393   2.785  10.724
 6881SOL    HW221300   4.396   2.624  10.744
 6882SOL     OW21301   4.114   3.603  10.870
 6882SOL    HW121302   4.023   3.644  10.868
 6882SOL    HW221303   4.107   3.509  10.902
 6883SOL     OW21304   4.318   2.607   9.962
 6883SOL    HW121305   4.368   2.692   9.943
 6883SOL    HW221306   4.230   2.609   9.914
 6884SOL     OW21307   3.803   3.102   9.963
 6884SOL    HW121308   3.802   3.055  10.051
 6884SOL    HW221309   3.885   3.074   9.912
 6885SOL     OW21310   4.396   3.253  10.934
 6885SOL    HW121311   4.318   3.203  10.972
 6885SOL    HW221312   4.393   3.348  10.965
 6886SOL     OW21313   4.152   2.286   9.830
 6886SOL    HW121314   4.182   2.214   9.768
 6886SOL    HW221315   4.113   2.246   9.913
 6887SOL     OW21316   4.041   2.409  10.590
 6887SOL    HW121317   4.079   2.350  10.662
 6887SOL    HW221318   4.081   2.383  10.502
 6888SOL     OW21319   4.536   3.448   9.997
 6888SOL    HW121320   4.568   3.458   9.903
 6888SOL    HW221321   4.457   3.386   9.999
 6889SOL     OW21322   3.763   2.939   9.610
 6889SOL    HW121323   3.862   2.928   9.601
 6889SOL    HW221324   3.723   2.853   9.642
 6890SOL     OW21325   3.954   4.352   0.113
 6890SOL    HW121326   3.861   4.350   0.150
 6890SOL    HW221327   3.955   4.313   0.021
 6891SOL     OW21328   3.949   3.999   0.996
 6891SOL    HW121329   3.984   3.982   1.088
 6891SOL    HW221330   3.861   3.954   0.984
 6892SOL     OW21331   3.743   4.092   0.647
 6892SOL    HW121332   3.661   4.135   0.686
 6892SOL    HW221333   3.715   4.019   0.584
 6893SOL     OW21334   4.574   4.522   1.823
 6893SOL    HW121335   4.570   4.598   1.888
 6893SOL    HW221336   4.596   4.558   1.732
 6894SOL     OW21337   4.162   4.116   1.499
 6894SOL    HW121338   4.244   4.060   1.508
 6894SOL    HW221339   4.081   4.058   1.503
 6895SOL     OW21340   3.846   4.367   0.563
 6895SOL    HW121341   3.801   4.279   0.580
 6895SOL    HW221342   3.845   4.421   0.647
 6896SOL     OW21343   3.837   4.461   1.597
 6896SOL    HW121344   3.925   4.448   1.642
 6896SOL    HW221345   3.824   4.558   1.575
 6897SOL     OW21346   4.533   3.728   0.502
 6897SOL    HW121347   4.573   3.819   0.493
 6897SOL    HW221348   4.433   3.736   0.508
 6898SOL     OW21349   4.041   3.975   1.801
 6898SOL    HW121350   4.112   4.046   1.807
 6898SOL    HW221351   3.953   4.014   1.829
 6899SOL     OW21352   4.274   3.920   0.885
 6899SOL    HW121353   4.269   3.915   0.985
 6899SOL    HW221354   4.276   4.016   0.856
 6900SOL     OW21355   3.926   4.009   1.498
 6900SOL    HW121356   3.846   4.069   1.485
 6900SOL    HW221357   3.916   3.960   1.584
 6901SOL     OW21358   4.106   4.424   0.480
 6901SOL    HW121359   4.151   4.334   0.477
 6901SOL    HW221360   4.012   4.413   0.513
 6902SOL     OW21361   4.338   3.846   0.117
 6902SOL    HW121362   4.436   3.824   0.124
 6902SOL    HW221363   4.307   3.829   0.024
 6903SOL     OW21364   4.263   3.788   0.512
 6903SOL    HW121365   4.182   3.789   0.570
 6903SOL    HW221366   4.266   3.871   0.457
 6904SOL     OW21367   4.021   3.759   0.171
 6904SOL    HW121368   4.070   3.843   0.150
 6904SOL    HW221369   4.083   3.694   0.216
 6905SOL     OW21370   4.800   4.407   1.464
 6905SOL    HW121371   4.720   4.346   1.467
 6905SOL    HW221372   4.881   4.354   1.440
 6906SOL     OW21373   3.802   4.280   1.386
 6906SOL    HW121374   3.894   4.279   1.345
 6906SOL    HW221375   3.796   4.354   1.453
 6907SOL     OW21376   4.285   3.946   1.147
 6907SOL    HW121377   4.323   3.862   1.184
 6907SOL    HW221378   4.197   3.965   1.191
 6908SOL     OW21379   4.251   3.980   0.328
 6908SOL    HW121380   4.278   3.921   0.253
 6908SOL    HW221381   4.251   4.075   0.297
 6909SOL     OW21382   4.134   4.537   1.251
 6909SOL    HW121383   4.220   4.549   1.301
 6909SOL    HW221384   4.092   4.450   1.278
 6910SOL     OW21385   4.290   4.261   0.865
 6910SOL    HW121386   4.302   4.327   0.791
 6910SOL    HW221387   4.336   4.295   0.948
 6911SOL     OW21388   4.228   3.774   1.740
 6911SOL    HW121389   4.186   3.717   1.670
 6911SOL    HW221390   4.162   3.843   1.772
 6912SOL     OW21391   4.031   3.937   1.231
 6912SOL    HW121392   4.008   3.974   1.321
 6912SOL    HW221393   4.001   3.842   1.225
 6913SOL     OW21394   4.031   3.787   0.618
 6913SOL    HW121395   4.020   3.881   0.651
 6913SOL    HW221396   4.026   3.724   0.695
 6914SOL     OW21397   4.043   4.534   0.949
 6914SOL    HW121398   4.136   4.570   0.954
 6914SOL    HW221399   4.037   4.449   1.001
 6915SOL     OW21400   4.063   4.233   1.006
 6915SOL    HW121401   4.011   4.150   0.989
 6915SOL    HW221402   4.140   4.238   0.942
 6916SOL     OW21403   3.764   4.268   1.114
 6916SOL    HW121404   3.849   4.235   1.073
 6916SOL    HW221405   3.777   4.283   1.212
 6917SOL     OW21406   3.913   4.244   1.722
 6917SOL    HW121407   3.972   4.204   1.652
 6917SOL    HW221408   3.855   4.315   1.681
 6918SOL     OW21409   4.539   4.296   0.325
 6918SOL    HW121410   4.546   4.207   0.279
 6918SOL    HW221411   4.445   4.330   0.317
 6919SOL     OW21412   4.197   4.224   0.191
 6919SOL    HW121413   4.258   4.304   0.195
 6919SOL    HW221414   4.102   4.255   0.198
 6920SOL     OW21415   3.987   4.050   0.720
 6920SOL    HW121416   3.908   4.101   0.686
 6920SOL    HW221417   3.978   4.035   0.818
 6921SOL     OW21418   4.396   3.927   1.489
 6921SOL    HW121419   4.486   3.911   1.449
 6921SOL    HW221420   4.404   3.932   1.588
 6922SOL     OW21421   3.799   4.069   0.033
 6922SOL    HW121422   3.707   4.041   0.004
 6922SOL    HW221423   3.830   4.146  -0.023
 6923SOL     OW21424   3.796   3.890   0.318
 6923SOL    HW121425   3.779   3.973   0.264
 6923SOL    HW221426   3.886   3.853   0.296
 6924SOL     OW21427   4.440   4.289   1.708
 6924SOL    HW121428   4.459   4.354   1.782
 6924SOL    HW221429   4.500   4.209   1.717
 6925SOL     OW21430   4.152   4.148   0.520
 6925SOL    HW121431   4.182   4.076   0.458
 6925SOL    HW221432   4.113   4.108   0.603
 6926SOL     OW21433   4.041   4.271   1.280
 6926SOL    HW121434   4.079   4.212   1.352
 6926SOL    HW221435   4.081   4.245   1.192
 6927SOL     OW21436   3.954   4.352   1.975
 6927SOL    HW121437   3.861   4.350   2.012
 6927SOL    HW221438   3.955   4.313   1.883
 6928SOL     OW21439   3.949   3.999   2.858
 6928SOL    HW121440   3.984   3.982   2.950
 6928SOL    HW221441   3.861   3.954   2.846
 6929SOL     OW21442   3.743   4.092   2.509
 6929SOL    HW121443   3.661   4.135   2.548
 6929SOL    HW221444   3.715   4.019   2.446
 6930SOL     OW21445   4.574   4.522   3.685
 6930SOL    HW121446   4.570   4.598   3.750
 6930SOL    HW221447   4.596   4.558   3.594
 6931SOL     OW21448   4.162   4.116   3.361
 6931SOL    HW121449   4.244   4.060   3.370
 6931SOL    HW221450   4.081   4.058   3.365
 6932SOL     OW21451   3.846   4.367   2.425
 6932SOL    HW121452   3.801   4.279   2.442
 6932SOL    HW221453   3.845   4.421   2.509
 6933SOL     OW21454   3.837   4.461   3.459
 6933SOL    HW121455   3.925   4.448   3.504
 6933SOL    HW221456   3.824   4.558   3.437
 6934SOL     OW21457   4.533   3.728   2.364
 6934SOL    HW121458   4.573   3.819   2.355
 6934SOL    HW221459   4.433   3.736   2.370
 6935SOL     OW21460   4.041   3.975   3.663
 6935SOL    HW121461   4.112   4.046   3.669
 6935SOL    HW221462   3.953   4.014   3.691
 6936SOL     OW21463   4.274   3.920   2.747
 6936SOL    HW121464   4.269   3.915   2.847
 6936SOL    HW221465   4.276   4.016   2.718
 6937SOL     OW21466   3.926   4.009   3.360
 6937SOL    HW121467   3.846   4.069   3.347
 6937SOL    HW221468   3.916   3.960   3.446
 6938SOL     OW21469   4.106   4.424   2.342
 6938SOL    HW121470   4.151   4.334   2.339
 6938SOL    HW221471   4.012   4.413   2.375
 6939SOL     OW21472   4.338   3.846   1.979
 6939SOL    HW121473   4.436   3.824   1.986
 6939SOL    HW221474   4.307   3.829   1.886
 6940SOL     OW21475   4.263   3.788   2.374
 6940SOL    HW121476   4.182   3.789   2.432
 6940SOL    HW221477   4.266   3.871   2.319
 6941SOL     OW21478   4.021   3.759   2.033
 6941SOL    HW121479   4.070   3.843   2.012
 6941SOL    HW221480   4.083   3.694   2.078
 6942SOL     OW21481   4.800   4.407   3.326
 6942SOL    HW121482   4.720   4.346   3.329
 6942SOL    HW221483   4.881   4.354   3.302
 6943SOL     OW21484   3.802   4.280   3.248
 6943SOL    HW121485   3.894   4.279   3.207
 6943SOL    HW221486   3.796   4.354   3.315
 6944SOL     OW21487   4.285   3.946   3.009
 6944SOL    HW121488   4.323   3.862   3.046
 6944SOL    HW221489   4.197   3.965   3.053
 6945SOL     OW21490   4.251   3.980   2.190
 6945SOL    HW121491   4.278   3.921   2.115
 6945SOL    HW221492   4.251   4.075   2.159
 6946SOL     OW21493   4.134   4.537   3.113
 6946SOL    HW121494   4.220   4.549   3.163
 6946SOL    HW221495   4.092   4.450   3.140
 6947SOL     OW21496   4.290   4.261   2.727
 6947SOL    HW121497   4.302   4.327   2.653
 6947SOL    HW221498   4.336   4.295   2.810
 6948SOL     OW21499   4.228   3.774   3.602
 6948SOL    HW121500   4.186   3.717   3.532
 6948SOL    HW221501   4.162   3.843   3.634
 6949SOL     OW21502   4.031   3.937   3.093
 6949SOL    HW121503   4.008   3.974   3.183
 6949SOL    HW221504   4.001   3.842   3.087
 6950SOL     OW21505   4.031   3.787   2.480
 6950SOL    HW121506   4.020   3.881   2.513
 6950SOL    HW221507   4.026   3.724   2.557
 6951SOL     OW21508   4.043   4.534   2.811
 6951SOL    HW121509   4.136   4.570   2.816
 6951SOL    HW221510   4.037   4.449   2.863
 6952SOL     OW21511   4.063   4.233   2.868
 6952SOL    HW121512   4.011   4.150   2.851
 6952SOL    HW221513   4.140   4.238   2.804
 6953SOL     OW21514   3.764   4.268   2.976
 6953SOL    HW121515   3.849   4.235   2.935
 6953SOL    HW221516   3.777   4.283   3.074
 6954SOL     OW21517   3.913   4.244   3.584
 6954SOL    HW121518   3.972   4.204   3.514
 6954SOL    HW221519   3.855   4.315   3.543
 6955SOL     OW21520   4.539   4.296   2.187
 6955SOL    HW121521   4.546   4.207   2.141
 6955SOL    HW221522   4.445   4.330   2.179
 6956SOL     OW21523   4.197   4.224   2.053
 6956SOL    HW121524   4.258   4.304   2.057
 6956SOL    HW221525   4.102   4.255   2.060
 6957SOL     OW21526   3.987   4.050   2.582
 6957SOL    HW121527   3.908   4.101   2.548
 6957SOL    HW221528   3.978   4.035   2.680
 6958SOL     OW21529   4.396   3.927   3.351
 6958SOL    HW121530   4.486   3.911   3.311
 6958SOL    HW221531   4.404   3.932   3.450
 6959SOL     OW21532   3.799   4.069   1.895
 6959SOL    HW121533   3.707   4.041   1.866
 6959SOL    HW221534   3.830   4.146   1.839
 6960SOL     OW21535   3.796   3.890   2.180
 6960SOL    HW121536   3.779   3.973   2.126
 6960SOL    HW221537   3.886   3.853   2.158
 6961SOL     OW21538   4.440   4.289   3.570
 6961SOL    HW121539   4.459   4.354   3.644
 6961SOL    HW221540   4.500   4.209   3.579
 6962SOL     OW21541   4.152   4.148   2.382
 6962SOL    HW121542   4.182   4.076   2.320
 6962SOL    HW221543   4.113   4.108   2.465
 6963SOL     OW21544   4.041   4.271   3.142
 6963SOL    HW121545   4.079   4.212   3.214
 6963SOL    HW221546   4.081   4.245   3.054
 6964SOL     OW21547   3.954   4.352   3.837
 6964SOL    HW121548   3.861   4.350   3.874
 6964SOL    HW221549   3.955   4.313   3.745
 6965SOL     OW21550   3.949   3.999   4.720
 6965SOL    HW121551   3.984   3.982   4.812
 6965SOL    HW221552   3.861   3.954   4.708
 6966SOL     OW21553   3.743   4.092   4.371
 6966SOL    HW121554   3.661   4.135   4.410
 6966SOL    HW221555   3.715   4.019   4.308
 6967SOL     OW21556   4.574   4.522   5.547
 6967SOL    HW121557   4.570   4.598   5.612
 6967SOL    HW221558   4.596   4.558   5.456
 6968SOL     OW21559   4.162   4.116   5.223
 6968SOL    HW121560   4.244   4.060   5.232
 6968SOL    HW221561   4.081   4.058   5.227
 6969SOL     OW21562   3.846   4.367   4.287
 6969SOL    HW121563   3.801   4.279   4.304
 6969SOL    HW221564   3.845   4.421   4.371
 6970SOL     OW21565   3.837   4.461   5.321
 6970SOL    HW121566   3.925   4.448   5.366
 6970SOL    HW221567   3.824   4.558   5.299
 6971SOL     OW21568   4.533   3.728   4.226
 6971SOL    HW121569   4.573   3.819   4.217
 6971SOL    HW221570   4.433   3.736   4.232
 6972SOL     OW21571   4.041   3.975   5.525
 6972SOL    HW121572   4.112   4.046   5.531
 6972SOL    HW221573   3.953   4.014   5.553
 6973SOL     OW21574   4.274   3.920   4.609
 6973SOL    HW121575   4.269   3.915   4.709
 6973SOL    HW221576   4.276   4.016   4.580
 6974SOL     OW21577   3.926   4.009   5.222
 6974SOL    HW121578   3.846   4.069   5.209
 6974SOL    HW221579   3.916   3.960   5.308
 6975SOL     OW21580   4.106   4.424   4.204
 6975SOL    HW121581   4.151   4.334   4.201
 6975SOL    HW221582   4.012   4.413   4.237
 6976SOL     OW21583   4.338   3.846   3.841
 6976SOL    HW121584   4.436   3.824   3.848
 6976SOL    HW221585   4.307   3.829   3.748
 6977SOL     OW21586   4.263   3.788   4.236
 6977SOL    HW121587   4.182   3.789   4.294
 6977SOL    HW221588   4.266   3.871   4.181
 6978SOL     OW21589   4.021   3.759   3.895
 6978SOL    HW121590   4.070   3.843   3.874
 6978SOL    HW221591   4.083   3.694   3.940
 6979SOL     OW21592   4.800   4.407   5.188
 6979SOL    HW121593   4.720   4.346   5.191
 6979SOL    HW221594   4.881   4.354   5.164
 6980SOL     OW21595   3.802   4.280   5.110
 6980SOL    HW121596   3.894   4.279   5.069
 6980SOL    HW221597   3.796   4.354   5.177
 6981SOL     OW21598   4.285   3.946   4.871
 6981SOL    HW121599   4.323   3.862   4.908
 6981SOL    HW221600   4.197   3.965   4.915
 6982SOL     OW21601   4.251   3.980   4.052
 6982SOL    HW121602   4.278   3.921   3.977
 6982SOL    HW221603   4.251   4.075   4.021
 6983SOL     OW21604   4.134   4.537   4.975
 6983SOL    HW121605   4.220   4.549   5.025
 6983SOL    HW221606   4.092   4.450   5.002
 6984SOL     OW21607   4.290   4.261   4.589
 6984SOL    HW121608   4.302   4.327   4.515
 6984SOL    HW221609   4.336   4.295   4.672
 6985SOL     OW21610   4.228   3.774   5.464
 6985SOL    HW121611   4.186   3.717   5.394
 6985SOL    HW221612   4.162   3.843   5.496
 6986SOL     OW21613   4.031   3.937   4.955
 6986SOL    HW121614   4.008   3.974   5.045
 6986SOL    HW221615   4.001   3.842   4.949
 6987SOL     OW21616   4.031   3.787   4.342
 6987SOL    HW121617   4.020   3.881   4.375
 6987SOL    HW221618   4.026   3.724   4.419
 6988SOL     OW21619   4.043   4.534   4.673
 6988SOL    HW121620   4.136   4.570   4.678
 6988SOL    HW221621   4.037   4.449   4.725
 6989SOL     OW21622   4.063   4.233   4.730
 6989SOL    HW121623   4.011   4.150   4.713
 6989SOL    HW221624   4.140   4.238   4.666
 6990SOL     OW21625   3.764   4.268   4.838
 6990SOL    HW121626   3.849   4.235   4.797
 6990SOL    HW221627   3.777   4.283   4.936
 6991SOL     OW21628   3.913   4.244   5.446
 6991SOL    HW121629   3.972   4.204   5.376
 6991SOL    HW221630   3.855   4.315   5.405
 6992SOL     OW21631   4.539   4.296   4.049
 6992SOL    HW121632   4.546   4.207   4.003
 6992SOL    HW221633   4.445   4.330   4.041
 6993SOL     OW21634   4.197   4.224   3.915
 6993SOL    HW121635   4.258   4.304   3.919
 6993SOL    HW221636   4.102   4.255   3.922
 6994SOL     OW21637   3.987   4.050   4.444
 6994SOL    HW121638   3.908   4.101   4.410
 6994SOL    HW221639   3.978   4.035   4.542
 6995SOL     OW21640   4.396   3.927   5.213
 6995SOL    HW121641   4.486   3.911   5.173
 6995SOL    HW221642   4.404   3.932   5.312
 6996SOL     OW21643   3.799   4.069   3.757
 6996SOL    HW121644   3.707   4.041   3.728
 6996SOL    HW221645   3.830   4.146   3.701
 6997SOL     OW21646   3.796   3.890   4.042
 6997SOL    HW121647   3.779   3.973   3.988
 6997SOL    HW221648   3.886   3.853   4.020
 6998SOL     OW21649   4.440   4.289   5.432
 6998SOL    HW121650   4.459   4.354   5.506
 6998SOL    HW221651   4.500   4.209   5.441
 6999SOL     OW21652   4.152   4.148   4.244
 6999SOL    HW121653   4.182   4.076   4.182
 6999SOL    HW221654   4.113   4.108   4.327
 7000SOL     OW21655   4.041   4.271   5.004
 7000SOL    HW121656   4.079   4.212   5.076
 7000SOL    HW221657   4.081   4.245   4.916
 7001SOL     OW21658   3.954   4.352   5.699
 7001SOL    HW121659   3.861   4.350   5.736
 7001SOL    HW221660   3.955   4.313   5.607
 7002SOL     OW21661   3.949   3.999   6.582
 7002SOL    HW121662   3.984   3.982   6.674
 7002SOL    HW221663   3.861   3.954   6.570
 7003SOL     OW21664   3.743   4.092   6.233
 7003SOL    HW121665   3.661   4.135   6.272
 7003SOL    HW221666   3.715   4.019   6.170
 7004SOL     OW21667   4.574   4.522   7.409
 7004SOL    HW121668   4.570   4.598   7.474
 7004SOL    HW221669   4.596   4.558   7.318
 7005SOL     OW21670   4.162   4.116   7.085
 7005SOL    HW121671   4.244   4.060   7.094
 7005SOL    HW221672   4.081   4.058   7.089
 7006SOL     OW21673   3.846   4.367   6.149
 7006SOL    HW121674   3.801   4.279   6.166
 7006SOL    HW221675   3.845   4.421   6.233
 7007SOL     OW21676   3.837   4.461   7.183
 7007SOL    HW121677   3.925   4.448   7.228
 7007SOL    HW221678   3.824   4.558   7.161
 7008SOL     OW21679   4.533   3.728   6.088
 7008SOL    HW121680   4.573   3.819   6.079
 7008SOL    HW221681   4.433   3.736   6.094
 7009SOL     OW21682   4.041   3.975   7.387
 7009SOL    HW121683   4.112   4.046   7.393
 7009SOL    HW221684   3.953   4.014   7.415
 7010SOL     OW21685   4.274   3.920   6.471
 7010SOL    HW121686   4.269   3.915   6.571
 7010SOL    HW221687   4.276   4.016   6.442
 7011SOL     OW21688   3.926   4.009   7.084
 7011SOL    HW121689   3.846   4.069   7.071
 7011SOL    HW221690   3.916   3.960   7.170
 7012SOL     OW21691   4.106   4.424   6.066
 7012SOL    HW121692   4.151   4.334   6.063
 7012SOL    HW221693   4.012   4.413   6.099
 7013SOL     OW21694   4.338   3.846   5.703
 7013SOL    HW121695   4.436   3.824   5.710
 7013SOL    HW221696   4.307   3.829   5.610
 7014SOL     OW21697   4.263   3.788   6.098
 7014SOL    HW121698   4.182   3.789   6.156
 7014SOL    HW221699   4.266   3.871   6.043
 7015SOL     OW21700   4.021   3.759   5.757
 7015SOL    HW121701   4.070   3.843   5.736
 7015SOL    HW221702   4.083   3.694   5.802
 7016SOL     OW21703   4.800   4.407   7.050
 7016SOL    HW121704   4.720   4.346   7.053
 7016SOL    HW221705   4.881   4.354   7.026
 7017SOL     OW21706   3.802   4.280   6.972
 7017SOL    HW121707   3.894   4.279   6.931
 7017SOL    HW221708   3.796   4.354   7.039
 7018SOL     OW21709   4.285   3.946   6.733
 7018SOL    HW121710   4.323   3.862   6.770
 7018SOL    HW221711   4.197   3.965   6.777
 7019SOL     OW21712   4.251   3.980   5.914
 7019SOL    HW121713   4.278   3.921   5.839
 7019SOL    HW221714   4.251   4.075   5.883
 7020SOL     OW21715   4.134   4.537   6.837
 7020SOL    HW121716   4.220   4.549   6.887
 7020SOL    HW221717   4.092   4.450   6.864
 7021SOL     OW21718   4.290   4.261   6.451
 7021SOL    HW121719   4.302   4.327   6.377
 7021SOL    HW221720   4.336   4.295   6.534
 7022SOL     OW21721   4.228   3.774   7.326
 7022SOL    HW121722   4.186   3.717   7.256
 7022SOL    HW221723   4.162   3.843   7.358
 7023SOL     OW21724   4.031   3.937   6.817
 7023SOL    HW121725   4.008   3.974   6.907
 7023SOL    HW221726   4.001   3.842   6.811
 7024SOL     OW21727   4.031   3.787   6.204
 7024SOL    HW121728   4.020   3.881   6.237
 7024SOL    HW221729   4.026   3.724   6.281
 7025SOL     OW21730   4.043   4.534   6.535
 7025SOL    HW121731   4.136   4.570   6.540
 7025SOL    HW221732   4.037   4.449   6.587
 7026SOL     OW21733   4.063   4.233   6.592
 7026SOL    HW121734   4.011   4.150   6.575
 7026SOL    HW221735   4.140   4.238   6.528
 7027SOL     OW21736   3.764   4.268   6.700
 7027SOL    HW121737   3.849   4.235   6.659
 7027SOL    HW221738   3.777   4.283   6.798
 7028SOL     OW21739   3.913   4.244   7.308
 7028SOL    HW121740   3.972   4.204   7.238
 7028SOL    HW221741   3.855   4.315   7.267
 7029SOL     OW21742   4.539   4.296   5.911
 7029SOL    HW121743   4.546   4.207   5.865
 7029SOL    HW221744   4.445   4.330   5.903
 7030SOL     OW21745   4.197   4.224   5.777
 7030SOL    HW121746   4.258   4.304   5.781
 7030SOL    HW221747   4.102   4.255   5.784
 7031SOL     OW21748   3.987   4.050   6.306
 7031SOL    HW121749   3.908   4.101   6.272
 7031SOL    HW221750   3.978   4.035   6.404
 7032SOL     OW21751   4.396   3.927   7.075
 7032SOL    HW121752   4.486   3.911   7.035
 7032SOL    HW221753   4.404   3.932   7.174
 7033SOL     OW21754   3.799   4.069   5.619
 7033SOL    HW121755   3.707   4.041   5.590
 7033SOL    HW221756   3.830   4.146   5.563
 7034SOL     OW21757   3.796   3.890   5.904
 7034SOL    HW121758   3.779   3.973   5.850
 7034SOL    HW221759   3.886   3.853   5.882
 7035SOL     OW21760   4.440   4.289   7.294
 7035SOL    HW121761   4.459   4.354   7.368
 7035SOL    HW221762   4.500   4.209   7.303
 7036SOL     OW21763   4.152   4.148   6.106
 7036SOL    HW121764   4.182   4.076   6.044
 7036SOL    HW221765   4.113   4.108   6.189
 7037SOL     OW21766   4.041   4.271   6.866
 7037SOL    HW121767   4.079   4.212   6.938
 7037SOL    HW221768   4.081   4.245   6.778
 7038SOL     OW21769   3.954   4.352   7.561
 7038SOL    HW121770   3.861   4.350   7.598
 7038SOL    HW221771   3.955   4.313   7.469
 7039SOL     OW21772   3.949   3.999   8.444
 7039SOL    HW121773   3.984   3.982   8.536
 7039SOL    HW221774   3.861   3.954   8.432
 7040SOL     OW21775   3.743   4.092   8.095
 7040SOL    HW121776   3.661   4.135   8.134
 7040SOL    HW221777   3.715   4.019   8.032
 7041SOL     OW21778   4.574   4.522   9.271
 7041SOL    HW121779   4.570   4.598   9.336
 7041SOL    HW221780   4.596   4.558   9.180
 7042SOL     OW21781   4.162   4.116   8.947
 7042SOL    HW121782   4.244   4.060   8.956
 7042SOL    HW221783   4.081   4.058   8.951
 7043SOL     OW21784   3.846   4.367   8.011
 7043SOL    HW121785   3.801   4.279   8.028
 7043SOL    HW221786   3.845   4.421   8.095
 7044SOL     OW21787   3.837   4.461   9.045
 7044SOL    HW121788   3.925   4.448   9.090
 7044SOL    HW221789   3.824   4.558   9.023
 7045SOL     OW21790   4.533   3.728   7.950
 7045SOL    HW121791   4.573   3.819   7.941
 7045SOL    HW221792   4.433   3.736   7.956
 7046SOL     OW21793   4.041   3.975   9.249
 7046SOL    HW121794   4.112   4.046   9.255
 7046SOL    HW221795   3.953   4.014   9.277
 7047SOL     OW21796   4.274   3.920   8.333
 7047SOL    HW121797   4.269   3.915   8.433
 7047SOL    HW221798   4.276   4.016   8.304
 7048SOL     OW21799   3.926   4.009   8.946
 7048SOL    HW121800   3.846   4.069   8.933
 7048SOL    HW221801   3.916   3.960   9.032
 7049SOL     OW21802   4.106   4.424   7.928
 7049SOL    HW121803   4.151   4.334   7.925
 7049SOL    HW221804   4.012   4.413   7.961
 7050SOL     OW21805   4.338   3.846   7.565
 7050SOL    HW121806   4.436   3.824   7.572
 7050SOL    HW221807   4.307   3.829   7.472
 7051SOL     OW21808   4.263   3.788   7.960
 7051SOL    HW121809   4.182   3.789   8.018
 7051SOL    HW221810   4.266   3.871   7.905
 7052SOL     OW21811   4.021   3.759   7.619
 7052SOL    HW121812   4.070   3.843   7.598
 7052SOL    HW221813   4.083   3.694   7.664
 7053SOL     OW21814   4.800   4.407   8.912
 7053SOL    HW121815   4.720   4.346   8.915
 7053SOL    HW221816   4.881   4.354   8.888
 7054SOL     OW21817   3.802   4.280   8.834
 7054SOL    HW121818   3.894   4.279   8.793
 7054SOL    HW221819   3.796   4.354   8.901
 7055SOL     OW21820   4.285   3.946   8.595
 7055SOL    HW121821   4.323   3.862   8.632
 7055SOL    HW221822   4.197   3.965   8.639
 7056SOL     OW21823   4.251   3.980   7.776
 7056SOL    HW121824   4.278   3.921   7.701
 7056SOL    HW221825   4.251   4.075   7.745
 7057SOL     OW21826   4.134   4.537   8.699
 7057SOL    HW121827   4.220   4.549   8.749
 7057SOL    HW221828   4.092   4.450   8.726
 7058SOL     OW21829   4.290   4.261   8.313
 7058SOL    HW121830   4.302   4.327   8.239
 7058SOL    HW221831   4.336   4.295   8.396
 7059SOL     OW21832   4.228   3.774   9.188
 7059SOL    HW121833   4.186   3.717   9.118
 7059SOL    HW221834   4.162   3.843   9.220
 7060SOL     OW21835   4.031   3.937   8.679
 7060SOL    HW121836   4.008   3.974   8.769
 7060SOL    HW221837   4.001   3.842   8.673
 7061SOL     OW21838   4.031   3.787   8.066
 7061SOL    HW121839   4.020   3.881   8.099
 7061SOL    HW221840   4.026   3.724   8.143
 7062SOL     OW21841   4.043   4.534   8.397
 7062SOL    HW121842   4.136   4.570   8.402
 7062SOL    HW221843   4.037   4.449   8.449
 7063SOL     OW21844   4.063   4.233   8.454
 7063SOL    HW121845   4.011   4.150   8.437
 7063SOL    HW221846   4.140   4.238   8.390
 7064SOL     OW21847   3.764   4.268   8.562
 7064SOL    HW121848   3.849   4.235   8.521
 7064SOL    HW221849   3.777   4.283   8.660
 7065SOL     OW21850   3.913   4.244   9.170
 7065SOL    HW121851   3.972   4.204   9.100
 7065SOL    HW221852   3.855   4.315   9.129
 7066SOL     OW21853   4.539   4.296   7.773
 7066SOL    HW121854   4.546   4.207   7.727
 7066SOL    HW221855   4.445   4.330   7.765
 7067SOL     OW21856   4.197   4.224   7.639
 7067SOL    HW121857   4.258   4.304   7.643
 7067SOL    HW221858   4.102   4.255   7.646
 7068SOL     OW21859   3.987   4.050   8.168
 7068SOL    HW121860   3.908   4.101   8.134
 7068SOL    HW221861   3.978   4.035   8.266
 7069SOL     OW21862   4.396   3.927   8.937
 7069SOL    HW121863   4.486   3.911   8.897
 7069SOL    HW221864   4.404   3.932   9.036
 7070SOL     OW21865   3.799   4.069   7.481
 7070SOL    HW121866   3.707   4.041   7.452
 7070SOL    HW221867   3.830   4.146   7.425
 7071SOL     OW21868   3.796   3.890   7.766
 7071SOL    HW121869   3.779   3.973   7.712
 7071SOL    HW221870   3.886   3.853   7.744
 7072SOL     OW21871   4.440   4.289   9.156
 7072SOL    HW121872   4.459   4.354   9.230
 7072SOL    HW221873   4.500   4.209   9.165
 7073SOL     OW21874   4.152   4.148   7.968
 7073SOL    HW121875   4.182   4.076   7.906
 7073SOL    HW221876   4.113   4.108   8.051
 7074SOL     OW21877   4.041   4.271   8.728
 7074SOL    HW121878   4.079   4.212   8.800
 7074SOL    HW221879   4.081   4.245   8.640
 7075SOL     OW21880   3.954   4.352   9.423
 7075SOL    HW121881   3.861   4.350   9.460
 7075SOL    HW221882   3.955   4.313   9.331
 7076SOL     OW21883   3.949   3.999  10.306
 7076SOL    HW121884   3.984   3.982  10.398
 7076SOL    HW221885   3.861   3.954  10.294
 7077SOL     OW21886   3.743   4.092   9.957
 7077SOL    HW121887   3.661   4.135   9.996
 7077SOL    HW221888   3.715   4.019   9.894
 7078SOL     OW21889   4.162   4.116  10.809
 7078SOL    HW121890   4.244   4.060  10.818
 7078SOL    HW221891   4.081   4.058  10.813
 7079SOL     OW21892   3.846   4.367   9.873
 7079SOL    HW121893   3.801   4.279   9.890
 7079SOL    HW221894   3.845   4.421   9.957
 7080SOL     OW21895   3.837   4.461  10.907
 7080SOL    HW121896   3.925   4.448  10.952
 7080SOL    HW221897   3.824   4.558  10.885
 7081SOL     OW21898   4.533   3.728   9.812
 7081SOL    HW121899   4.573   3.819   9.803
 7081SOL    HW221900   4.433   3.736   9.818
 7082SOL     OW21901   4.041   3.975  11.111
 7082SOL    HW121902   4.112   4.046  11.117
 7082SOL    HW221903   3.953   4.014  11.139
 7083SOL     OW21904   4.274   3.920  10.195
 7083SOL    HW121905   4.269   3.915  10.295
 7083SOL    HW221906   4.276   4.016  10.166
 7084SOL     OW21907   3.926   4.009  10.808
 7084SOL    HW121908   3.846   4.069  10.795
 7084SOL    HW221909   3.916   3.960  10.894
 7085SOL     OW21910   4.106   4.424   9.790
 7085SOL    HW121911   4.151   4.334   9.787
 7085SOL    HW221912   4.012   4.413   9.823
 7086SOL     OW21913   4.338   3.846   9.427
 7086SOL    HW121914   4.436   3.824   9.434
 7086SOL    HW221915   4.307   3.829   9.334
 7087SOL     OW21916   4.263   3.788   9.822
 7087SOL    HW121917   4.182   3.789   9.880
 7087SOL    HW221918   4.266   3.871   9.767
 7088SOL     OW21919   4.021   3.759   9.481
 7088SOL    HW121920   4.070   3.843   9.460
 7088SOL    HW221921   4.083   3.694   9.526
 7089SOL     OW21922   4.800   4.407  10.774
 7089SOL    HW121923   4.720   4.346  10.777
 7089SOL    HW221924   4.881   4.354  10.750
 7090SOL     OW21925   3.802   4.280  10.696
 7090SOL    HW121926   3.894   4.279  10.655
 7090SOL    HW221927   3.796   4.354  10.763
 7091SOL     OW21928   4.285   3.946  10.457
 7091SOL    HW121929   4.323   3.862  10.494
 7091SOL    HW221930   4.197   3.965  10.501
 7092SOL     OW21931   4.251   3.980   9.638
 7092SOL    HW121932   4.278   3.921   9.563
 7092SOL    HW221933   4.251   4.075   9.607
 7093SOL     OW21934   4.134   4.537  10.561
 7093SOL    HW121935   4.220   4.549  10.611
 7093SOL    HW221936   4.092   4.450  10.588
 7094SOL     OW21937   4.290   4.261  10.175
 7094SOL    HW121938   4.302   4.327  10.101
 7094SOL    HW221939   4.336   4.295  10.258
 7095SOL     OW21940   4.126   4.475  10.908
 7095SOL    HW121941   4.194   4.530  10.861
 7095SOL    HW221942   4.166   4.387  10.935
 7096SOL     OW21943   4.031   3.937  10.541
 7096SOL    HW121944   4.008   3.974  10.631
 7096SOL    HW221945   4.001   3.842  10.535
 7097SOL     OW21946   4.031   3.787   9.928
 7097SOL    HW121947   4.020   3.881   9.961
 7097SOL    HW221948   4.026   3.724  10.005
 7098SOL     OW21949   4.043   4.534  10.259
 7098SOL    HW121950   4.136   4.570  10.264
 7098SOL    HW221951   4.037   4.449  10.311
 7099SOL     OW21952   4.063   4.233  10.316
 7099SOL    HW121953   4.011   4.150  10.299
 7099SOL    HW221954   4.140   4.238  10.252
 7100SOL     OW21955   3.764   4.268  10.424
 7100SOL    HW121956   3.849   4.235  10.383
 7100SOL    HW221957   3.777   4.283  10.522
 7101SOL     OW21958   4.539   4.296   9.635
 7101SOL    HW121959   4.546   4.207   9.589
 7101SOL    HW221960   4.445   4.330   9.627
 7102SOL     OW21961   4.197   4.224   9.501
 7102SOL    HW121962   4.258   4.304   9.505
 7102SOL    HW221963   4.102   4.255   9.508
 7103SOL     OW21964   3.987   4.050  10.030
 7103SOL    HW121965   3.908   4.101   9.996
 7103SOL    HW221966   3.978   4.035  10.128
 7104SOL     OW21967   4.396   3.927  10.799
 7104SOL    HW121968   4.486   3.911  10.759
 7104SOL    HW221969   4.404   3.932  10.898
 7105SOL     OW21970   3.799   4.069   9.343
 7105SOL    HW121971   3.707   4.041   9.314
 7105SOL    HW221972   3.830   4.146   9.287
 7106SOL     OW21973   3.796   3.890   9.628
 7106SOL    HW121974   3.779   3.973   9.574
 7106SOL    HW221975   3.886   3.853   9.606
 7107SOL     OW21976   4.152   4.148   9.830
 7107SOL    HW121977   4.182   4.076   9.768
 7107SOL    HW221978   4.113   4.108   9.913
 7108SOL     OW21979   4.041   4.271  10.590
 7108SOL    HW121980   4.079   4.212  10.662
 7108SOL    HW221981   4.081   4.245  10.502
   4.50000   4.50000  11.10000
