2gCDOH_2PEG_l14
22221
    1LIG      O    1   2.171   2.097   0.036
    1LIG      C    2   2.131   2.158   0.187
    1LIG     C1    3   2.184   2.096   0.353
    1LIG     O1    4   2.135   2.150   0.505
    1LIG     C2    5   2.185   2.102   0.658
    1LIG     C3    6   2.126   2.162   0.822
    1LIG     O2    7   2.184   2.119   0.974
    1LIG     C4    8   2.125   2.150   1.129
    1LIG     C5    9   2.195   2.095   1.289
    1LIG     O3   10   2.147   2.145   1.440
    1LIG     C6   11   2.194   2.085   1.589
    1LIG     C7   12   2.144   2.146   1.753
    1LIG     O4   13   2.184   2.083   1.902
    1LIG     C8   14   2.134   2.136   2.053
    1LIG     C9   15   2.190   2.078   2.217
    1LIG     O5   16   2.142   2.135   2.367
    1LIG    C10   17   2.183   2.083   2.520
    1LIG    C11   18   2.129   2.151   2.681
    1LIG     O6   19   2.185   2.107   2.833
    1LIG    C12   20   2.128   2.143   2.986
    1LIG    C13   21   2.197   2.089   3.144
    1LIG     O7   22   2.149   2.141   3.294
    1LIG    C14   23   2.196   2.083   3.442
    1LIG    C15   24   2.146   2.145   3.605
    1LIG     O8   25   2.189   2.085   3.753
    1LIG    C16   26   2.138   2.139   3.903
    1LIG    C17   27   2.199   2.086   4.067
    1LIG     O9   28   2.145   2.139   4.216
    1LIG    C18   29   2.193   2.093   4.368
    1LIG    C19   30   2.132   2.154   4.529
    1LIG    O10   31   2.189   2.112   4.680
    1LIG    C20   32   2.129   2.144   4.832
    1LIG    C21   33   2.198   2.090   4.991
    1LIG    O11   34   2.150   2.142   5.140
    1LIG    C22   35   2.196   2.082   5.288
    1LIG    C23   36   2.146   2.145   5.450
    1LIG    O12   37   2.189   2.085   5.599
    1LIG    C24   38   2.138   2.137   5.749
    1LIG    C25   39   2.200   2.086   5.912
    1LIG    O13   40   2.144   2.136   6.061
    1LIG    C26   41   2.196   2.092   6.213
    1LIG    C27   42   2.132   2.150   6.373
    1LIG    O14   43   2.194   2.114   6.523
    1LIG    C28   44   2.136   2.156   6.672
    1LIG    C29   45   2.202   2.105   6.833
    1LIG    O15   46   2.151   2.158   6.982
    1LIG    C30   47   2.197   2.101   7.131
    1LIG    C31   48   2.142   2.161   7.294
    1LIG    O16   49   2.191   2.107   7.445
    1LIG    C32   50   2.143   2.158   7.598
    1LIG    C33   51   2.198   2.097   7.759
    1LIG    O17   52   2.154   2.155   7.909
    1LIG    C34   53   2.195   2.101   8.061
    1LIG    C35   54   2.135   2.162   8.221
    1LIG    O18   55   2.187   2.112   8.371
    1LIG    C36   56   2.136   2.161   8.521
    1LIG    C37   57   2.196   2.100   8.681
    1LIG    O19   58   2.152   2.157   8.831
    1LIG    C38   59   2.198   2.098   8.980
    1LIG    C39   60   2.144   2.157   9.143
    1LIG    O20   61   2.194   2.100   9.291
    1LIG    C40   62   2.142   2.148   9.443
    1LIG    C41   63   2.205   2.094   9.605
    1LIG    O21   64   2.150   2.145   9.754
    1LIG    C42   65   2.198   2.099   9.907
    1LIG    C43   66   2.137   2.163  10.066
    1LIG    O22   67   2.186   2.112  10.216
    1LIG    C44   68   2.134   2.164  10.365
    1LIG    C45   69   2.192   2.102  10.525
    1LIG    O23   70   2.146   2.159  10.674
    1LIG    C46   71   2.189   2.102  10.824
    1LIG    C47   72   2.133   2.164  10.986
    1LIG    O24   73   2.178   2.105  11.135
    1LIG    C48   74   2.129   2.158  11.286
    1LIG    C49   75   2.188   2.099  11.449
    1LIG    O25   76   2.138   2.151  11.600
    1LIG    C50   77   2.189   2.104  11.752
    1LIG    C51   78   2.131   2.166  11.914
    1LIG    O26   79   2.182   2.116  12.065
    1LIG    C52   80   2.131   2.166  12.215
    1LIG    C53   81   2.190   2.104  12.377
    1LIG    O27   82   2.144   2.160  12.528
    1LIG    C54   83   2.188   2.103  12.679
    1LIG    C55   84   2.132   2.164  12.843
    1LIG    O28   85   2.177   2.105  12.994
    1LIG    C56   86   2.130   2.158  13.147
    1LIG    C57   87   2.186   2.096  13.312
    1LIG    O29   88   2.144   2.152  13.466
    1LIG    C58   89   2.178   2.090  13.619
    1LIG    C59   90   2.155   2.168  13.784
    1LIG      H   91   2.022   2.160   0.192
    1LIG     H1   92   2.155   2.264   0.183
    1LIG     H2   93   2.293   2.104   0.352
    1LIG     H3   94   2.163   1.989   0.351
    1LIG     H4   95   2.293   2.118   0.660
    1LIG     H5   96   2.171   1.994   0.660
    1LIG     H6   97   2.018   2.143   0.824
    1LIG     H7   98   2.133   2.271   0.816
    1LIG     H8   99   2.021   2.120   1.130
    1LIG     H9  100   2.118   2.258   1.139
    1LIG    H10  101   2.302   2.116   1.283
    1LIG    H11  102   2.187   1.986   1.288
    1LIG    H12  103   2.303   2.086   1.590
    1LIG    H13  104   2.166   1.979   1.589
    1LIG    H14  105   2.035   2.150   1.749
    1LIG    H15  106   2.178   2.250   1.755
    1LIG    H16  107   2.027   2.121   2.056
    1LIG    H17  108   2.143   2.244   2.053
    1LIG    H18  109   2.299   2.088   2.214
    1LIG    H19  110   2.171   1.970   2.218
    1LIG    H20  111   2.293   2.085   2.524
    1LIG    H21  112   2.156   1.977   2.523
    1LIG    H22  113   2.021   2.140   2.684
    1LIG    H23  114   2.145   2.259   2.673
    1LIG    H24  115   2.022   2.117   2.987
    1LIG    H25  116   2.124   2.252   2.994
    1LIG    H26  117   2.304   2.110   3.138
    1LIG    H27  118   2.188   1.980   3.145
    1LIG    H28  119   2.305   2.085   3.443
    1LIG    H29  120   2.168   1.977   3.443
    1LIG    H30  121   2.037   2.147   3.601
    1LIG    H31  122   2.178   2.250   3.605
    1LIG    H32  123   2.031   2.118   3.908
    1LIG    H33  124   2.142   2.248   3.901
    1LIG    H34  125   2.307   2.104   4.065
    1LIG    H35  126   2.187   1.977   4.068
    1LIG    H36  127   2.302   2.109   4.372
    1LIG    H37  128   2.180   1.985   4.371
    1LIG    H38  129   2.024   2.135   4.530
    1LIG    H39  130   2.139   2.264   4.523
    1LIG    H40  131   2.025   2.112   4.832
    1LIG    H41  132   2.119   2.252   4.842
    1LIG    H42  133   2.306   2.112   4.984
    1LIG    H43  134   2.191   1.981   4.991
    1LIG    H44  135   2.305   2.084   5.289
    1LIG    H45  136   2.168   1.976   5.288
    1LIG    H46  137   2.036   2.146   5.447
    1LIG    H47  138   2.177   2.249   5.450
    1LIG    H48  139   2.032   2.115   5.754
    1LIG    H49  140   2.141   2.246   5.747
    1LIG    H50  141   2.307   2.106   5.910
    1LIG    H51  142   2.191   1.976   5.912
    1LIG    H52  143   2.303   2.114   6.216
    1LIG    H53  144   2.190   1.983   6.217
    1LIG    H54  145   2.027   2.119   6.376
    1LIG    H55  146   2.127   2.259   6.365
    1LIG    H56  147   2.029   2.131   6.674
    1LIG    H57  148   2.138   2.265   6.675
    1LIG    H58  149   2.309   2.128   6.828
    1LIG    H59  150   2.197   1.997   6.835
    1LIG    H60  151   2.306   2.109   7.134
    1LIG    H61  152   2.175   1.994   7.130
    1LIG    H62  153   2.034   2.151   7.291
    1LIG    H63  154   2.160   2.269   7.293
    1LIG    H64  155   2.035   2.141   7.603
    1LIG    H65  156   2.155   2.267   7.600
    1LIG    H66  157   2.308   2.099   7.757
    1LIG    H67  158   2.171   1.991   7.759
    1LIG    H68  159   2.304   2.111   8.067
    1LIG    H69  160   2.176   1.993   8.061
    1LIG    H70  161   2.027   2.146   8.221
    1LIG    H71  162   2.148   2.271   8.219
    1LIG    H72  163   2.027   2.147   8.523
    1LIG    H73  164   2.149   2.270   8.523
    1LIG    H74  165   2.305   2.110   8.676
    1LIG    H75  166   2.177   1.992   8.681
    1LIG    H76  167   2.307   2.105   8.982
    1LIG    H77  168   2.175   1.991   8.979
    1LIG    H78  169   2.035   2.148   9.141
    1LIG    H79  170   2.163   2.265   9.143
    1LIG    H80  171   2.037   2.121   9.448
    1LIG    H81  172   2.142   2.257   9.443
    1LIG    H82  173   2.313   2.112   9.604
    1LIG    H83  174   2.194   1.985   9.605
    1LIG    H84  175   2.306   2.114   9.911
    1LIG    H85  176   2.183   1.991   9.912
    1LIG    H86  177   2.029   2.151  10.064
    1LIG    H87  178   2.153   2.272  10.063
    1LIG    H88  179   2.025   2.151  10.366
    1LIG    H89  180   2.149   2.272  10.367
    1LIG    H90  181   2.301   2.112  10.522
    1LIG    H91  182   2.173   1.995  10.525
    1LIG    H92  183   2.299   2.109  10.828
    1LIG    H93  184   2.167   1.995  10.824
    1LIG    H94  185   2.023   2.158  10.982
    1LIG    H95  186   2.155   2.271  10.986
    1LIG    H96  187   2.020   2.146  11.288
    1LIG    H97  188   2.141   2.266  11.284
    1LIG    H98  189   2.297   2.110  11.447
    1LIG    H99  190   2.171   1.991  11.448
    1LIG   H100  191   2.297   2.120  11.753
    1LIG   H101  192   2.176   1.995  11.756
    1LIG   H102  193   2.023   2.153  11.913
    1LIG   H103  194   2.146   2.275  11.911
    1LIG   H104  195   2.023   2.153  12.216
    1LIG   H105  196   2.146   2.274  12.218
    1LIG   H106  197   2.299   2.115  12.373
    1LIG   H107  198   2.171   1.996  12.376
    1LIG   H108  199   2.298   2.110  12.682
    1LIG   H109  200   2.166   1.995  12.679
    1LIG   H110  201   2.023   2.159  12.839
    1LIG   H111  202   2.155   2.271  12.843
    1LIG   H112  203   2.021   2.150  13.149
    1LIG   H113  204   2.145   2.266  13.146
    1LIG   H114  205   2.296   2.099  13.308
    1LIG   H115  206   2.162   1.989  13.312
    1LIG   H116  207   2.285   2.069  13.618
    1LIG   H117  208   2.129   1.992  13.624
    1LIG   H118  209   2.057   2.216  13.783
    1LIG   H119  210   2.226   2.252  13.784
    2LIG      O  211   1.843   1.862   0.042
    2LIG      C  212   1.903   1.900   0.195
    2LIG     C1  213   1.839   1.849   0.360
    2LIG     O1  214   1.897   1.895   0.511
    2LIG     C2  215   1.841   1.849   0.664
    2LIG     C3  216   1.894   1.906   0.829
    2LIG     O2  217   1.847   1.848   0.979
    2LIG     C4  218   1.888   1.905   1.130
    2LIG     C5  219   1.836   1.841   1.293
    2LIG     O3  220   1.881   1.895   1.446
    2LIG     C6  221   1.833   1.842   1.598
    2LIG     C7  222   1.888   1.902   1.762
    2LIG     O4  223   1.840   1.847   1.913
    2LIG     C8  224   1.885   1.904   2.063
    2LIG     C9  225   1.831   1.845   2.227
    2LIG     O5  226   1.884   1.897   2.376
    2LIG    C10  227   1.830   1.848   2.527
    2LIG    C11  228   1.886   1.906   2.690
    2LIG     O6  229   1.838   1.849   2.838
    2LIG    C12  230   1.882   1.906   2.987
    2LIG    C13  231   1.829   1.843   3.149
    2LIG     O7  232   1.876   1.897   3.300
    2LIG    C14  233   1.829   1.844   3.451
    2LIG    C15  234   1.885   1.904   3.613
    2LIG     O8  235   1.837   1.849   3.763
    2LIG    C16  236   1.884   1.907   3.912
    2LIG    C17  237   1.829   1.847   4.075
    2LIG     O9  238   1.883   1.898   4.224
    2LIG    C18  239   1.828   1.850   4.374
    2LIG    C19  240   1.885   1.907   4.536
    2LIG    O10  241   1.835   1.850   4.684
    2LIG    C20  242   1.879   1.906   4.832
    2LIG    C21  243   1.826   1.843   4.993
    2LIG    O11  244   1.871   1.899   5.144
    2LIG    C22  245   1.827   1.843   5.294
    2LIG    C23  246   1.883   1.904   5.456
    2LIG    O12  247   1.833   1.850   5.605
    2LIG    C24  248   1.879   1.905   5.754
    2LIG    C25  249   1.824   1.842   5.915
    2LIG    O13  250   1.871   1.895   6.064
    2LIG    C26  251   1.822   1.839   6.213
    2LIG    C27  252   1.874   1.905   6.374
    2LIG    O14  253   1.829   1.849   6.524
    2LIG    C28  254   1.877   1.905   6.673
    2LIG    C29  255   1.824   1.842   6.834
    2LIG    O15  256   1.869   1.897   6.985
    2LIG    C30  257   1.826   1.840   7.136
    2LIG    C31  258   1.892   1.893   7.298
    2LIG    O16  259   1.839   1.846   7.448
    2LIG    C32  260   1.888   1.898   7.598
    2LIG    C33  261   1.828   1.840   7.760
    2LIG    O17  262   1.884   1.887   7.910
    2LIG    C34  263   1.826   1.846   8.061
    2LIG    C35  264   1.885   1.907   8.222
    2LIG    O18  265   1.836   1.854   8.372
    2LIG    C36  266   1.882   1.912   8.520
    2LIG    C37  267   1.826   1.851   8.682
    2LIG    O19  268   1.876   1.902   8.832
    2LIG    C38  269   1.833   1.846   8.984
    2LIG    C39  270   1.890   1.909   9.145
    2LIG    O20  271   1.842   1.856   9.295
    2LIG    C40  272   1.890   1.911   9.444
    2LIG    C41  273   1.835   1.852   9.607
    2LIG    O21  274   1.890   1.901   9.756
    2LIG    C42  275   1.833   1.856   9.906
    2LIG    C43  276   1.893   1.911  10.068
    2LIG    O22  277   1.843   1.855  10.217
    2LIG    C44  278   1.887   1.911  10.366
    2LIG    C45  279   1.831   1.848  10.527
    2LIG    O23  280   1.880   1.900  10.678
    2LIG    C46  281   1.839   1.843  10.830
    2LIG    C47  282   1.895   1.906  10.991
    2LIG    O24  283   1.852   1.848  11.141
    2LIG    C48  284   1.896   1.906  11.290
    2LIG    C49  285   1.841   1.844  11.453
    2LIG    O25  286   1.895   1.894  11.603
    2LIG    C50  287   1.837   1.851  11.754
    2LIG    C51  288   1.895   1.905  11.918
    2LIG    O26  289   1.846   1.850  12.067
    2LIG    C52  290   1.890   1.907  12.218
    2LIG    C53  291   1.834   1.845  12.381
    2LIG    O27  292   1.882   1.897  12.534
    2LIG    C54  293   1.841   1.842  12.687
    2LIG    C55  294   1.897   1.905  12.850
    2LIG    O28  295   1.855   1.848  13.003
    2LIG    C56  296   1.900   1.905  13.154
    2LIG    C57  297   1.844   1.845  13.320
    2LIG    O29  298   1.903   1.888  13.472
    2LIG    C58  299   1.838   1.856  13.625
    2LIG    C59  300   1.916   1.875  13.791
    2LIG      H  301   1.898   2.009   0.199
    2LIG     H1  302   2.010   1.875   0.194
    2LIG     H2  303   1.840   1.740   0.359
    2LIG     H3  304   1.733   1.877   0.359
    2LIG     H4  305   1.847   1.739   0.667
    2LIG     H5  306   1.735   1.875   0.665
    2LIG     H6  307   1.866   2.012   0.830
    2LIG     H7  308   2.004   1.905   0.828
    2LIG     H8  309   1.854   2.009   1.132
    2LIG     H9  310   1.997   1.909   1.133
    2LIG    H10  311   1.854   1.733   1.292
    2LIG    H11  312   1.728   1.853   1.289
    2LIG    H12  313   1.853   1.735   1.599
    2LIG    H13  314   1.724   1.852   1.600
    2LIG    H14  315   1.867   2.010   1.761
    2LIG    H15  316   1.998   1.894   1.760
    2LIG    H16  317   1.859   2.010   2.063
    2LIG    H17  318   1.995   1.900   2.066
    2LIG    H18  319   1.844   1.736   2.225
    2LIG    H19  320   1.722   1.861   2.226
    2LIG    H20  321   1.838   1.739   2.529
    2LIG    H21  322   1.724   1.872   2.529
    2LIG    H22  323   1.862   2.012   2.690
    2LIG    H23  324   1.995   1.900   2.688
    2LIG    H24  325   1.850   2.011   2.989
    2LIG    H25  326   1.991   1.907   2.988
    2LIG    H26  327   1.847   1.735   3.147
    2LIG    H27  328   1.721   1.855   3.145
    2LIG    H28  329   1.850   1.736   3.451
    2LIG    H29  330   1.720   1.852   3.454
    2LIG    H30  331   1.864   2.012   3.612
    2LIG    H31  332   1.994   1.896   3.611
    2LIG    H32  333   1.858   2.013   3.912
    2LIG    H33  334   1.993   1.901   3.914
    2LIG    H34  335   1.843   1.739   4.073
    2LIG    H35  336   1.721   1.863   4.075
    2LIG    H36  337   1.834   1.741   4.376
    2LIG    H37  338   1.722   1.877   4.376
    2LIG    H38  339   1.861   2.014   4.537
    2LIG    H39  340   1.994   1.900   4.534
    2LIG    H40  341   1.850   2.011   4.834
    2LIG    H41  342   1.989   1.905   4.834
    2LIG    H42  343   1.844   1.735   4.992
    2LIG    H43  344   1.717   1.854   4.989
    2LIG    H44  345   1.850   1.736   5.294
    2LIG    H45  346   1.718   1.850   5.298
    2LIG    H46  347   1.863   2.012   5.454
    2LIG    H47  348   1.992   1.895   5.454
    2LIG    H48  349   1.855   2.012   5.756
    2LIG    H49  350   1.989   1.899   5.756
    2LIG    H50  351   1.842   1.735   5.912
    2LIG    H51  352   1.714   1.854   5.912
    2LIG    H52  353   1.846   1.732   6.216
    2LIG    H53  354   1.713   1.844   6.214
    2LIG    H54  355   1.845   2.010   6.373
    2LIG    H55  356   1.983   1.904   6.372
    2LIG    H56  357   1.851   2.011   6.674
    2LIG    H57  358   1.986   1.902   6.673
    2LIG    H58  359   1.843   1.734   6.833
    2LIG    H59  360   1.715   1.852   6.831
    2LIG    H60  361   1.838   1.732   7.133
    2LIG    H61  362   1.718   1.856   7.146
    2LIG    H62  363   1.887   2.001   7.298
    2LIG    H63  364   2.000   1.870   7.295
    2LIG    H64  365   1.869   2.005   7.600
    2LIG    H65  366   1.997   1.887   7.601
    2LIG    H66  367   1.837   1.730   7.757
    2LIG    H67  368   1.721   1.860   7.760
    2LIG    H68  369   1.831   1.737   8.067
    2LIG    H69  370   1.720   1.872   8.060
    2LIG    H70  371   1.864   2.014   8.220
    2LIG    H71  372   1.994   1.898   8.219
    2LIG    H72  373   1.856   2.018   8.520
    2LIG    H73  374   1.991   1.909   8.522
    2LIG    H74  375   1.840   1.742   8.679
    2LIG    H75  376   1.717   1.866   8.679
    2LIG    H76  377   1.857   1.739   8.984
    2LIG    H77  378   1.724   1.851   8.990
    2LIG    H78  379   1.868   2.016   9.143
    2LIG    H79  380   1.999   1.901   9.142
    2LIG    H80  381   1.865   2.017   9.445
    2LIG    H81  382   1.999   1.904   9.446
    2LIG    H82  383   1.846   1.743   9.604
    2LIG    H83  384   1.726   1.869   9.607
    2LIG    H84  385   1.833   1.747   9.909
    2LIG    H85  386   1.729   1.890   9.907
    2LIG    H86  387   1.872   2.018  10.069
    2LIG    H87  388   2.002   1.902  10.066
    2LIG    H88  389   1.862   2.017  10.367
    2LIG    H89  390   1.997   1.908  10.369
    2LIG    H90  391   1.847   1.740  10.524
    2LIG    H91  392   1.722   1.861  10.525
    2LIG    H92  393   1.863   1.736  10.830
    2LIG    H93  394   1.730   1.848  10.837
    2LIG    H94  395   1.868   2.012  10.990
    2LIG    H95  396   2.004   1.903  10.986
    2LIG    H96  397   1.867   2.011  11.290
    2LIG    H97  398   2.006   1.904  11.293
    2LIG    H98  399   1.855   1.736  11.450
    2LIG    H99  400   1.733   1.860  11.453
    2LIG   H100  401   1.833   1.742  11.757
    2LIG   H101  402   1.733   1.887  11.753
    2LIG   H102  403   1.874   2.013  11.918
    2LIG   H103  404   2.004   1.897  11.914
    2LIG   H104  405   1.864   2.013  12.218
    2LIG   H105  406   1.999   1.904  12.220
    2LIG   H106  407   1.851   1.737  12.378
    2LIG   H107  408   1.725   1.856  12.378
    2LIG   H108  409   1.864   1.735  12.688
    2LIG   H109  410   1.732   1.848  12.694
    2LIG   H110  411   1.870   2.011  12.849
    2LIG   H111  412   2.007   1.902  12.845
    2LIG   H112  413   1.873   2.011  13.154
    2LIG   H113  414   2.009   1.902  13.157
    2LIG   H114  415   1.851   1.736  13.315
    2LIG   H115  416   1.737   1.867  13.322
    2LIG   H116  417   1.810   1.751  13.622
    2LIG   H117  418   1.745   1.914  13.630
    2LIG   H118  419   1.968   1.971  13.789
    2LIG   H119  420   1.995   1.799  13.790
    3MOL     C1  421   1.305   2.200   6.346
    3MOL     H1  422   1.200   2.167   6.347
    3MOL     O1  423   1.337   2.262   6.473
    3MOL     C2  424   1.473   2.311   6.486
    3MOL     H2  425   1.543   2.228   6.471
    3MOL     C3  426   1.495   2.364   6.629
    3MOL     H3  427   1.602   2.378   6.643
    3MOL     H4  428   1.462   2.288   6.701
    3MOL     O2  429   1.426   2.488   6.654
    3MOL     H5  430   1.447   2.510   6.747
    3MOL     C4  431   1.326   2.302   6.231
    3MOL     H6  432   1.257   2.385   6.246
    3MOL     O3  433   1.302   2.241   6.104
    3MOL     H7  434   1.317   2.144   6.117
    3MOL     C5  435   1.472   2.356   6.235
    3MOL     H8  436   1.539   2.271   6.224
    3MOL     O4  437   1.497   2.452   6.129
    3MOL     H9  438   1.415   2.460   6.076
    3MOL     C6  439   1.498   2.417   6.375
    3MOL    H10  440   1.430   2.502   6.390
    3MOL     O5  441   1.637   2.460   6.378
    3MOL     C7  442   1.662   2.588   6.442
    3MOL    H11  443   1.569   2.628   6.486
    3MOL     O6  444   1.759   2.569   6.547
    3MOL     C8  445   1.889   2.520   6.503
    3MOL    H12  446   1.877   2.423   6.453
    3MOL     C9  447   1.979   2.501   6.627
    3MOL    H13  448   2.065   2.440   6.599
    3MOL    H14  449   1.923   2.445   6.704
    3MOL     O7  450   2.025   2.625   6.681
    3MOL    H15  451   2.116   2.636   6.645
    3MOL    C10  452   1.714   2.689   6.336
    3MOL    H16  453   1.723   2.788   6.384
    3MOL     O8  454   1.620   2.695   6.229
    3MOL    H17  455   1.604   2.602   6.202
    3MOL    C11  456   1.854   2.647   6.283
    3MOL    H18  457   1.844   2.553   6.228
    3MOL     O9  458   1.910   2.749   6.197
    3MOL    H19  459   1.847   2.760   6.122
    3MOL    C12  460   1.949   2.622   6.403
    3MOL    H20  461   1.963   2.718   6.455
    3MOL    O10  462   2.075   2.573   6.351
    3MOL    C13  463   2.189   2.657   6.377
    3MOL    H21  464   2.157   2.760   6.396
    3MOL    O11  465   2.262   2.604   6.491
    3MOL    C14  466   2.321   2.473   6.471
    3MOL    H22  467   2.242   2.403   6.443
    3MOL    C15  468   2.382   2.420   6.605
    3MOL    H23  469   2.361   2.312   6.613
    3MOL    H24  470   2.330   2.469   6.687
    3MOL    O12  471   2.523   2.438   6.620
    3MOL    H25  472   2.565   2.395   6.542
    3MOL    C16  473   2.280   2.662   6.251
    3MOL    H26  474   2.356   2.740   6.267
    3MOL    O13  475   2.198   2.697   6.139
    3MOL    H27  476   2.107   2.694   6.175
    3MOL    C17  477   2.352   2.528   6.225
    3MOL    H28  478   2.276   2.453   6.198
    3MOL    O14  479   2.450   2.539   6.120
    3MOL    H29  480   2.409   2.583   6.042
    3MOL    C18  481   2.422   2.482   6.354
    3MOL    H30  482   2.500   2.555   6.380
    3MOL    O15  483   2.478   2.352   6.327
    3MOL    C19  484   2.622   2.339   6.336
    3MOL    H31  485   2.670   2.438   6.341
    3MOL    O16  486   2.650   2.260   6.453
    3MOL    C20  487   2.590   2.127   6.451
    3MOL    H32  488   2.481   2.136   6.437
    3MOL    C21  489   2.612   2.056   6.588
    3MOL    H33  490   2.534   1.981   6.602
    3MOL    H34  491   2.601   2.130   6.668
    3MOL    O17  492   2.740   1.991   6.597
    3MOL    H35  493   2.727   1.908   6.545
    3MOL    C22  494   2.675   2.268   6.208
    3MOL    H36  495   2.785   2.263   6.214
    3MOL    O18  496   2.637   2.341   6.093
    3MOL    H37  497   2.562   2.399   6.119
    3MOL    C23  498   2.619   2.125   6.197
    3MOL    H38  499   2.511   2.134   6.186
    3MOL    O19  500   2.673   2.057   6.082
    3MOL    H39  501   2.693   2.126   6.013
    3MOL    C24  502   2.649   2.050   6.329
    3MOL    H40  503   2.758   2.044   6.341
    3MOL    O20  504   2.590   1.918   6.321
    3MOL    C25  505   2.682   1.808   6.336
    3MOL    H41  506   2.786   1.840   6.324
    3MOL    O21  507   2.662   1.751   6.468
    3MOL    C26  508   2.528   1.697   6.494
    3MOL    H42  509   2.456   1.780   6.491
    3MOL    C27  510   2.525   1.637   6.637
    3MOL    H43  511   2.422   1.610   6.663
    3MOL    H44  512   2.557   1.715   6.708
    3MOL    O22  513   2.610   1.522   6.649
    3MOL    H45  514   2.611   1.496   6.742
    3MOL    C28  515   2.655   1.700   6.228
    3MOL    H46  516   2.725   1.617   6.244
    3MOL    O23  517   2.676   1.756   6.099
    3MOL    H47  518   2.637   1.846   6.102
    3MOL    C29  519   2.511   1.646   6.241
    3MOL    H48  520   2.441   1.729   6.226
    3MOL    O24  521   2.485   1.542   6.144
    3MOL    H49  522   2.494   1.583   6.054
    3MOL    C30  523   2.489   1.592   6.385
    3MOL    H50  524   2.551   1.502   6.397
    3MOL    O25  525   2.348   1.562   6.396
    3MOL    C31  526   2.315   1.435   6.456
    3MOL    H51  527   2.403   1.391   6.506
    3MOL    O26  528   2.212   1.458   6.555
    3MOL    C32  529   2.085   1.507   6.502
    3MOL    H52  530   2.100   1.601   6.450
    3MOL    C33  531   1.987   1.533   6.620
    3MOL    H53  532   1.904   1.594   6.585
    3MOL    H54  533   2.040   1.591   6.696
    3MOL    O27  534   1.938   1.413   6.679
    3MOL    H55  535   1.844   1.408   6.649
    3MOL    C34  536   2.264   1.334   6.347
    3MOL    H56  537   2.246   1.237   6.396
    3MOL    O28  538   2.365   1.317   6.248
    3MOL    H57  539   2.389   1.408   6.216
    3MOL    C35  540   2.131   1.382   6.284
    3MOL    H58  541   2.148   1.480   6.236
    3MOL    O29  542   2.075   1.289   6.188
    3MOL    H59  543   2.143   1.220   6.163
    3MOL    C36  544   2.031   1.404   6.400
    3MOL    H60  545   2.018   1.308   6.453
    3MOL    O30  546   1.906   1.450   6.345
    3MOL    C37  547   1.800   1.354   6.358
    3MOL    H61  548   1.840   1.253   6.374
    3MOL    O31  549   1.718   1.393   6.471
    3MOL    C38  550   1.652   1.522   6.461
    3MOL    H62  551   1.726   1.602   6.453
    3MOL    C39  552   1.570   1.543   6.590
    3MOL    H63  553   1.497   1.461   6.598
    3MOL    H64  554   1.515   1.637   6.585
    3MOL    O32  555   1.653   1.542   6.706
    3MOL    H65  556   1.594   1.516   6.780
    3MOL    C40  557   1.715   1.350   6.229
    3MOL    H66  558   1.640   1.270   6.241
    3MOL    O33  559   1.800   1.320   6.118
    3MOL    H67  560   1.893   1.331   6.152
    3MOL    C41  561   1.639   1.483   6.206
    3MOL    H68  562   1.714   1.560   6.186
    3MOL    O34  563   1.549   1.472   6.094
    3MOL    H69  564   1.596   1.504   6.013
    3MOL    C42  565   1.562   1.522   6.334
    3MOL    H70  566   1.481   1.448   6.350
    3MOL    O35  567   1.509   1.654   6.312
    3MOL    C43  568   1.365   1.667   6.315
    3MOL    H71  569   1.317   1.568   6.314
    3MOL    O36  570   1.329   1.738   6.435
    3MOL    C44  571   1.383   1.873   6.449
    3MOL    H72  572   1.493   1.869   6.450
    3MOL    C45  573   1.336   1.932   6.586
    3MOL    H73  574   1.226   1.929   6.589
    3MOL    H74  575   1.366   2.037   6.592
    3MOL    O37  576   1.390   1.859   6.697
    3MOL    H75  577   1.372   1.911   6.778
    3MOL    C46  578   1.317   1.746   6.191
    3MOL    H76  579   1.208   1.753   6.194
    3MOL    O38  580   1.357   1.681   6.070
    3MOL    H77  581   1.439   1.630   6.092
    3MOL    C47  582   1.374   1.890   6.194
    3MOL    H78  583   1.484   1.883   6.190
    3MOL    O39  584   1.327   1.965   6.081
    3MOL    H79  585   1.325   1.901   6.006
    3MOL    C48  586   1.334   1.957   6.327
    3MOL    H80  587   1.225   1.964   6.331
    3MOL    O40  588   1.395   2.088   6.328
    4MOL     C1  589   2.684   2.199   7.548
    4MOL     H1  590   2.790   2.172   7.544
    4MOL     O1  591   2.644   2.254   7.419
    4MOL     C2  592   2.508   2.307   7.409
    4MOL     H2  593   2.437   2.225   7.425
    4MOL     C3  594   2.485   2.362   7.265
    4MOL     H3  595   2.378   2.382   7.252
    4MOL     H4  596   2.514   2.285   7.192
    4MOL     O2  597   2.559   2.483   7.239
    4MOL     H5  598   2.513   2.529   7.166
    4MOL     C4  599   2.663   2.305   7.660
    4MOL     H6  600   2.730   2.390   7.641
    4MOL     O3  601   2.691   2.250   7.790
    4MOL     H7  602   2.686   2.152   7.777
    4MOL     C5  603   2.517   2.356   7.659
    4MOL     H8  604   2.451   2.270   7.673
    4MOL     O4  605   2.494   2.453   7.763
    4MOL     H9  606   2.552   2.425   7.837
    4MOL     C6  607   2.487   2.415   7.519
    4MOL    H10  608   2.554   2.499   7.501
    4MOL     O5  609   2.349   2.458   7.522
    4MOL     C7  610   2.323   2.591   7.473
    4MOL    H11  611   2.415   2.637   7.434
    4MOL     O6  612   2.225   2.581   7.367
    4MOL     C8  613   2.098   2.524   7.407
    4MOL    H12  614   2.115   2.425   7.451
    4MOL     C9  615   2.009   2.505   7.281
    4MOL    H13  616   1.926   2.438   7.305
    4MOL    H14  617   2.069   2.455   7.204
    4MOL     O7  618   1.958   2.628   7.231
    4MOL    H15  619   1.864   2.634   7.260
    4MOL    C10  620   2.267   2.681   7.588
    4MOL    H16  621   2.254   2.782   7.549
    4MOL     O8  622   2.357   2.685   7.698
    4MOL    H17  623   2.404   2.598   7.699
    4MOL    C11  624   2.130   2.628   7.637
    4MOL    H18  625   2.145   2.527   7.677
    4MOL     O9  626   2.076   2.715   7.738
    4MOL    H19  627   2.140   2.708   7.814
    4MOL    C12  628   2.037   2.617   7.514
    4MOL    H20  629   2.026   2.717   7.471
    4MOL    O10  630   1.911   2.565   7.558
    4MOL    C13  631   1.799   2.652   7.532
    4MOL    H21  632   1.832   2.754   7.510
    4MOL    O11  633   1.725   2.598   7.420
    4MOL    C14  634   1.657   2.472   7.441
    4MOL    H22  635   1.733   2.398   7.467
    4MOL    C15  636   1.587   2.422   7.311
    4MOL    H23  637   1.587   2.313   7.311
    4MOL    H24  638   1.646   2.455   7.224
    4MOL    O12  639   1.450   2.464   7.297
    4MOL    H25  640   1.400   2.406   7.358
    4MOL    C16  641   1.711   2.659   7.659
    4MOL    H26  642   1.632   2.733   7.641
    4MOL    O13  643   1.792   2.698   7.769
    4MOL    H27  644   1.878   2.652   7.753
    4MOL    C17  645   1.645   2.523   7.688
    4MOL    H28  646   1.724   2.448   7.704
    4MOL    O14  647   1.560   2.529   7.805
    4MOL    H29  648   1.600   2.596   7.864
    4MOL    C18  649   1.564   2.483   7.564
    4MOL    H30  650   1.488   2.559   7.545
    4MOL    O15  651   1.506   2.356   7.592
    4MOL    C19  652   1.365   2.344   7.576
    4MOL    H31  653   1.316   2.442   7.568
    4MOL    O16  654   1.343   2.264   7.457
    4MOL    C20  655   1.406   2.132   7.461
    4MOL    H32  656   1.514   2.142   7.475
    4MOL    C21  657   1.382   2.062   7.325
    4MOL    H33  658   1.447   1.973   7.317
    4MOL    H34  659   1.411   2.130   7.244
    4MOL    O17  660   1.246   2.025   7.311
    4MOL    H35  661   1.245   1.928   7.287
    4MOL    C22  662   1.309   2.271   7.701
    4MOL    H36  663   1.200   2.263   7.691
    4MOL    O18  664   1.342   2.345   7.817
    4MOL    H37  665   1.413   2.409   7.792
    4MOL    C23  666   1.368   2.129   7.713
    4MOL    H38  667   1.477   2.138   7.725
    4MOL    O19  668   1.312   2.062   7.827
    4MOL    H39  669   1.315   2.128   7.900
    4MOL    C24  670   1.345   2.054   7.580
    4MOL    H40  671   1.236   2.043   7.565
    4MOL    O20  672   1.409   1.925   7.590
    4MOL    C25  673   1.322   1.812   7.568
    4MOL    H41  674   1.216   1.840   7.572
    4MOL    O21  675   1.351   1.756   7.438
    4MOL    C26  676   1.484   1.700   7.417
    4MOL    H42  677   1.558   1.780   7.426
    4MOL    C27  678   1.491   1.642   7.274
    4MOL    H43  679   1.596   1.624   7.247
    4MOL    H44  680   1.452   1.717   7.204
    4MOL    O22  681   1.416   1.520   7.261
    4MOL    H45  682   1.345   1.537   7.194
    4MOL    C28  683   1.346   1.709   7.680
    4MOL    H46  684   1.272   1.628   7.672
    4MOL    O23  685   1.332   1.775   7.806
    4MOL    H47  686   1.349   1.870   7.784
    4MOL    C29  687   1.487   1.647   7.667
    4MOL    H48  688   1.560   1.727   7.684
    4MOL    O24  689   1.503   1.543   7.765
    4MOL    H49  690   1.513   1.593   7.851
    4MOL    C30  691   1.511   1.593   7.525
    4MOL    H50  692   1.444   1.507   7.509
    4MOL    O25  693   1.649   1.554   7.518
    4MOL    C31  694   1.677   1.426   7.456
    4MOL    H51  695   1.585   1.382   7.414
    4MOL    O26  696   1.774   1.446   7.350
    4MOL    C32  697   1.903   1.498   7.392
    4MOL    H52  698   1.889   1.596   7.441
    4MOL    C33  699   1.996   1.520   7.269
    4MOL    H53  700   2.072   1.594   7.295
    4MOL    H54  701   1.936   1.562   7.187
    4MOL    O27  702   2.059   1.400   7.226
    4MOL    H55  703   2.150   1.404   7.260
    4MOL    C34  704   1.734   1.330   7.565
    4MOL    H56  705   1.752   1.232   7.520
    4MOL    O28  706   1.641   1.319   7.672
    4MOL    H57  707   1.604   1.409   7.685
    4MOL    C35  708   1.868   1.389   7.617
    4MOL    H58  709   1.848   1.491   7.653
    4MOL    O29  710   1.926   1.311   7.724
    4MOL    H59  711   1.883   1.224   7.730
    4MOL    C36  712   1.961   1.399   7.496
    4MOL    H60  713   1.969   1.300   7.448
    4MOL    O30  714   2.090   1.444   7.542
    4MOL    C37  715   2.196   1.346   7.532
    4MOL    H61  716   2.157   1.246   7.513
    4MOL    O31  717   2.284   1.387   7.425
    4MOL    C38  718   2.344   1.520   7.440
    4MOL    H62  719   2.265   1.595   7.446
    4MOL    C39  720   2.428   1.549   7.314
    4MOL    H63  721   2.502   1.469   7.299
    4MOL    H64  722   2.483   1.644   7.327
    4MOL    O32  723   2.343   1.559   7.199
    4MOL    H65  724   2.399   1.586   7.124
    4MOL    C40  725   2.275   1.345   7.666
    4MOL    H66  726   2.358   1.273   7.657
    4MOL    O33  727   2.191   1.307   7.773
    4MOL    H67  728   2.097   1.333   7.747
    4MOL    C41  729   2.333   1.485   7.692
    4MOL    H68  730   2.248   1.555   7.693
    4MOL    O34  731   2.399   1.489   7.819
    4MOL    H69  732   2.330   1.450   7.879
    4MOL    C42  733   2.425   1.522   7.573
    4MOL    H70  734   2.505   1.448   7.568
    4MOL    O35  735   2.477   1.655   7.597
    4MOL    C43  736   2.622   1.664   7.601
    4MOL    H71  737   2.667   1.564   7.606
    4MOL    O36  738   2.668   1.732   7.482
    4MOL    C44  739   2.623   1.869   7.462
    4MOL    H72  740   2.514   1.870   7.456
    4MOL    C45  741   2.681   1.922   7.327
    4MOL    H73  742   2.790   1.916   7.331
    4MOL    H74  743   2.653   2.027   7.316
    4MOL    O37  744   2.632   1.849   7.214
    4MOL    H75  745   2.690   1.875   7.139
    4MOL    C46  746   2.666   1.743   7.726
    4MOL    H76  747   2.775   1.742   7.729
    4MOL    O38  748   2.615   1.678   7.844
    4MOL    H77  749   2.540   1.620   7.814
    4MOL    C47  750   2.620   1.891   7.716
    4MOL    H78  751   2.511   1.892   7.713
    4MOL    O39  752   2.665   1.966   7.830
    4MOL    H79  753   2.606   1.935   7.903
    4MOL    C48  754   2.667   1.955   7.584
    4MOL    H80  755   2.777   1.965   7.584
    4MOL    O40  756   2.601   2.084   7.576
    5SOL     OW  757   0.228   0.661   0.119
    5SOL    HW1  758   0.134   0.647   0.131
    5SOL    HW2  759   0.250   0.614   0.039
    6SOL     OW  760   0.223   0.291   0.983
    6SOL    HW1  761   0.246   0.250   1.067
    6SOL    HW2  762   0.128   0.281   0.977
    7SOL     OW  763   0.019   0.384   0.633
    7SOL    HW1  764   3.929   0.399   0.659
    7SOL    HW2  765   0.025   0.289   0.622
    8SOL     OW  766   0.583   1.292   1.196
    8SOL    HW1  767   0.497   1.293   1.155
    8SOL    HW2  768   0.596   1.382   1.227
    9SOL     OW  769   1.546   1.493   0.710
    9SOL    HW1  770   1.517   1.475   0.799
    9SOL    HW2  771   1.466   1.493   0.657
   10SOL     OW  772   1.134   0.698   0.696
   10SOL    HW1  773   1.181   0.781   0.685
   10SOL    HW2  774   1.086   0.709   0.777
   11SOL     OW  775   1.769   0.623   0.213
   11SOL    HW1  776   1.783   0.597   0.121
   11SOL    HW2  777   1.773   0.540   0.261
   12SOL     OW  778   0.750   1.138   1.044
   12SOL    HW1  779   0.689   1.174   1.108
   12SOL    HW2  780   0.787   1.214   0.999
   13SOL     OW  781   0.874   0.767   1.825
   13SOL    HW1  782   0.863   0.838   1.888
   13SOL    HW2  783   0.895   0.811   1.743
   14SOL     OW  784   0.684   1.000   0.646
   14SOL    HW1  785   0.750   0.989   0.715
   14SOL    HW2  786   0.616   1.053   0.687
   15SOL     OW  787   0.713   1.148   1.818
   15SOL    HW1  788   0.760   1.226   1.848
   15SOL    HW2  789   0.632   1.183   1.780
   16SOL     OW  790   0.352   1.400   1.078
   16SOL    HW1  791   0.270   1.378   1.033
   16SOL    HW2  792   0.398   1.458   1.018
   17SOL     OW  793   1.447   1.483   1.362
   17SOL    HW1  794   1.493   1.566   1.376
   17SOL    HW2  795   1.376   1.484   1.427
   18SOL     OW  796   0.459   0.409   1.493
   18SOL    HW1  797   0.541   0.360   1.493
   18SOL    HW2  798   0.391   0.341   1.497
   19SOL     OW  799   1.611   0.451   0.735
   19SOL    HW1  800   1.543   0.486   0.677
   19SOL    HW2  801   1.629   0.521   0.797
   20SOL     OW  802   0.223   1.710   0.472
   20SOL    HW1  803   0.242   1.789   0.523
   20SOL    HW2  804   0.287   1.711   0.401
   21SOL     OW  805   1.137   1.342   1.695
   21SOL    HW1  806   1.178   1.336   1.781
   21SOL    HW2  807   1.085   1.262   1.687
   22SOL     OW  808   0.247   1.447   0.542
   22SOL    HW1  809   0.224   1.539   0.527
   22SOL    HW2  810   0.173   1.412   0.593
   23SOL     OW  811   0.248   1.064   0.883
   23SOL    HW1  812   0.269   0.978   0.921
   23SOL    HW2  813   0.196   1.108   0.950
   24SOL     OW  814   0.609   1.793   1.426
   24SOL    HW1  815   0.526   1.775   1.470
   24SOL    HW2  816   0.632   1.882   1.453
   25SOL     OW  817   0.559   0.980   0.169
   25SOL    HW1  818   0.588   1.020   0.087
   25SOL    HW2  819   0.615   1.020   0.236
   26SOL     OW  820   1.583   0.142   1.455
   26SOL    HW1  821   1.614   0.214   1.401
   26SOL    HW2  822   1.547   0.184   1.533
   27SOL     OW  823   0.140   0.655   0.568
   27SOL    HW1  824   0.098   0.569   0.575
   27SOL    HW2  825   0.104   0.705   0.641
   28SOL     OW  826   0.029   1.596   0.140
   28SOL    HW1  827   0.029   1.501   0.150
   28SOL    HW2  828   3.976   1.629   0.213
   29SOL     OW  829   1.685   0.915   0.644
   29SOL    HW1  830   1.771   0.876   0.626
   29SOL    HW2  831   1.667   0.969   0.566
   30SOL     OW  832   1.650   1.105   0.430
   30SOL    HW1  833   1.739   1.104   0.393
   30SOL    HW2  834   1.656   1.166   0.504
   31SOL     OW  835   0.144   0.756   1.589
   31SOL    HW1  836   0.239   0.752   1.582
   31SOL    HW2  837   0.126   0.842   1.625
   32SOL     OW  838   0.613   1.388   0.737
   32SOL    HW1  839   0.567   1.304   0.745
   32SOL    HW2  840   0.598   1.414   0.647
   33SOL     OW  841   1.283   1.233   1.424
   33SOL    HW1  842   1.314   1.167   1.363
   33SOL    HW2  843   1.343   1.228   1.498
   34SOL     OW  844   0.825   0.004   0.523
   34SOL    HW1  845   0.869   0.084   0.494
   34SOL    HW2  846   0.732   0.026   0.520
   35SOL     OW  847   0.184   0.949   1.280
   35SOL    HW1  848   0.272   0.913   1.268
   35SOL    HW2  849   0.132   0.907   1.211
   36SOL     OW  850   1.528   1.000   0.206
   36SOL    HW1  851   1.461   0.942   0.242
   36SOL    HW2  852   1.572   1.036   0.283
   37SOL     OW  853   1.187   1.812   1.625
   37SOL    HW1  854   1.192   1.872   1.551
   37SOL    HW2  855   1.202   1.725   1.587
   38SOL     OW  856   0.347   0.248   1.848
   38SOL    HW1  857   0.389   0.331   1.828
   38SOL    HW2  858   0.255   0.271   1.864
   39SOL     OW  859   1.467   1.417   0.957
   39SOL    HW1  860   1.398   1.433   1.021
   39SOL    HW2  861   1.455   1.326   0.930
   40SOL     OW  862   1.603   1.710   0.563
   40SOL    HW1  863   1.587   1.681   0.473
   40SOL    HW2  864   1.597   1.629   0.615
   41SOL     OW  865   0.594   0.713   0.267
   41SOL    HW1  866   0.594   0.798   0.222
   41SOL    HW2  867   0.533   0.725   0.340
   42SOL     OW  868   1.274   0.371   0.940
   42SOL    HW1  869   1.187   0.333   0.948
   42SOL    HW2  870   1.332   0.311   0.986
   43SOL     OW  871   1.537   1.709   0.297
   43SOL    HW1  872   1.612   1.650   0.303
   43SOL    HW2  873   1.511   1.704   0.205
   44SOL     OW  874   0.794   0.615   1.452
   44SOL    HW1  875   0.765   0.589   1.540
   44SOL    HW2  876   0.758   0.549   1.394
   45SOL     OW  877   1.392   0.475   1.677
   45SOL    HW1  878   1.399   0.521   1.761
   45SOL    HW2  879   1.449   0.399   1.687
   46SOL     OW  880   0.951   0.886   1.586
   46SOL    HW1  881   1.006   0.818   1.548
   46SOL    HW2  882   0.902   0.922   1.512
   47SOL     OW  883   0.994   0.402   1.236
   47SOL    HW1  884   0.907   0.421   1.272
   47SOL    HW2  885   0.976   0.374   1.146
   48SOL     OW  886   1.053   0.704   0.428
   48SOL    HW1  887   1.071   0.695   0.522
   48SOL    HW2  888   0.969   0.658   0.415
   49SOL     OW  889   0.082   0.830   0.790
   49SOL    HW1  890   0.152   0.795   0.845
   49SOL    HW2  891   0.105   0.922   0.777
   50SOL     OW  892   0.130   1.866   1.580
   50SOL    HW1  893   0.138   1.830   1.668
   50SOL    HW2  894   0.038   1.856   1.558
   51SOL     OW  895   0.874   0.361   0.223
   51SOL    HW1  896   0.910   0.420   0.156
   51SOL    HW2  897   0.878   0.274   0.183
   52SOL     OW  898   1.706   0.575   1.830
   52SOL    HW1  899   1.669   0.648   1.781
   52SOL    HW2  900   1.731   0.511   1.763
   53SOL     OW  901   1.381   1.142   0.543
   53SOL    HW1  902   1.459   1.131   0.489
   53SOL    HW2  903   1.326   1.203   0.493
   54SOL     OW  904   0.563   0.196   0.881
   54SOL    HW1  905   0.567   0.221   0.973
   54SOL    HW2  906   0.549   0.279   0.835
   55SOL     OW  907   0.999   1.439   0.474
   55SOL    HW1  908   0.971   1.515   0.423
   55SOL    HW2  909   0.977   1.462   0.565
   56SOL     OW  910   0.364   1.823   0.875
   56SOL    HW1  911   0.426   1.750   0.885
   56SOL    HW2  912   0.417   1.902   0.890
   57SOL     OW  913   1.800   1.045   0.874
   57SOL    HW1  914   1.746   1.036   0.795
   57SOL    HW2  915   1.737   1.055   0.945
   58SOL     OW  916   1.222   1.537   1.515
   58SOL    HW1  917   1.209   1.465   1.577
   58SOL    HW2  918   1.155   1.524   1.449
   59SOL     OW  919   0.306   0.928   0.242
   59SOL    HW1  920   0.397   0.942   0.217
   59SOL    HW2  921   0.292   0.834   0.233
   60SOL     OW  922   1.478   0.751   0.730
   60SOL    HW1  923   1.476   0.709   0.816
   60SOL    HW2  924   1.557   0.806   0.731
   61SOL     OW  925   0.470   1.262   1.737
   61SOL    HW1  926   0.444   1.269   1.646
   61SOL    HW2  927   0.388   1.263   1.786
   62SOL     OW  928   1.121   1.779   0.227
   62SOL    HW1  929   1.058   1.733   0.282
   62SOL    HW2  930   1.150   1.713   0.164
   63SOL     OW  931   0.202   0.293   1.501
   63SOL    HW1  932   0.108   0.312   1.501
   63SOL    HW2  933   0.210   0.217   1.558
   64SOL     OW  934   1.631   1.377   0.090
   64SOL    HW1  935   1.596   1.456   0.049
   64SOL    HW2  936   1.565   1.310   0.074
   65SOL     OW  937   0.474   1.731   0.323
   65SOL    HW1  938   0.515   1.790   0.385
   65SOL    HW2  939   0.546   1.694   0.273
   66SOL     OW  940   1.443   0.140   0.396
   66SOL    HW1  941   1.395   0.057   0.406
   66SOL    HW2  942   1.525   0.125   0.442
   67SOL     OW  943   0.254   1.790   1.230
   67SOL    HW1  944   0.297   1.723   1.282
   67SOL    HW2  945   0.251   1.755   1.141
   68SOL     OW  946   0.939   1.700   0.896
   68SOL    HW1  947   1.017   1.649   0.919
   68SOL    HW2  948   0.897   1.649   0.827
   69SOL     OW  949   0.398   0.694   0.470
   69SOL    HW1  950   0.421   0.602   0.485
   69SOL    HW2  951   0.306   0.700   0.497
   70SOL     OW  952   1.528   0.227   1.726
   70SOL    HW1  953   1.522   0.252   1.819
   70SOL    HW2  954   1.515   0.133   1.726
   71SOL     OW  955   0.628   0.110   0.123
   71SOL    HW1  956   0.724   0.109   0.127
   71SOL    HW2  957   0.608   0.133   0.032
   72SOL     OW  958   0.775   0.285   1.770
   72SOL    HW1  959   0.853   0.229   1.771
   72SOL    HW2  960   0.721   0.251   1.841
   73SOL     OW  961   0.876   1.523   1.194
   73SOL    HW1  962   0.859   1.485   1.108
   73SOL    HW2  963   0.945   1.468   1.231
   74SOL     OW  964   1.338   0.588   1.431
   74SOL    HW1  965   1.369   0.558   1.517
   74SOL    HW2  966   1.374   0.676   1.421
   75SOL     OW  967   0.817   1.391   0.944
   75SOL    HW1  968   0.902   1.379   0.901
   75SOL    HW2  969   0.755   1.395   0.871
   76SOL     OW  970   0.930   0.513   0.899
   76SOL    HW1  971   0.905   0.504   0.806
   76SOL    HW2  972   0.955   0.424   0.925
   77SOL     OW  973   0.552   0.050   0.498
   77SOL    HW1  974   0.477   0.057   0.558
   77SOL    HW2  975   0.545   0.128   0.443
   78SOL     OW  976   1.430   1.207   0.044
   78SOL    HW1  977   1.449   1.127   0.092
   78SOL    HW2  978   1.338   1.226   0.064
   79SOL     OW  979   0.360   3.988   0.176
   79SOL    HW1  980   0.322   0.072   0.152
   79SOL    HW2  981   0.442   0.010   0.220
   80SOL     OW  982   0.945   0.250   0.466
   80SOL    HW1  983   0.912   0.289   0.385
   80SOL    HW2  984   1.040   0.252   0.457
   81SOL     OW  985   1.079   0.685   1.457
   81SOL    HW1  986   1.010   0.619   1.464
   81SOL    HW2  987   1.160   0.635   1.453
   82SOL     OW  988   1.223   1.570   0.794
   82SOL    HW1  989   1.234   1.640   0.728
   82SOL    HW2  990   1.290   1.587   0.859
   83SOL     OW  991   0.465   1.152   0.732
   83SOL    HW1  992   0.395   1.125   0.791
   83SOL    HW2  993   0.428   1.138   0.644
   84SOL     OW  994   1.259   1.792   0.612
   84SOL    HW1  995   1.310   1.854   0.561
   84SOL    HW2  996   1.193   1.847   0.656
   85SOL     OW  997   0.997   0.530   0.050
   85SOL    HW1  998   0.994   0.524  13.855
   85SOL    HW2  999   1.089   0.548   0.070
   86SOL     OW 1000   0.081   0.575   1.392
   86SOL    HW1 1001   0.171   0.557   1.363
   86SOL    HW2 1002   0.091   0.646   1.456
   87SOL     OW 1003   0.572   0.231   1.160
   87SOL    HW1 1004   0.593   0.138   1.167
   87SOL    HW2 1005   0.481   0.237   1.189
   88SOL     OW 1006   0.871   0.463   0.638
   88SOL    HW1 1007   0.825   0.516   0.573
   88SOL    HW2 1008   0.892   0.381   0.592
   89SOL     OW 1009   0.997   0.039   0.780
   89SOL    HW1 1010   0.952   0.068   0.701
   89SOL    HW2 1011   1.009   3.945   0.767
   90SOL     OW 1012   1.439   1.162   0.858
   90SOL    HW1 1013   1.369   1.097   0.856
   90SOL    HW2 1014   1.465   1.171   0.766
   91SOL     OW 1015   1.464   0.609   0.972
   91SOL    HW1 1016   1.408   0.531   0.977
   91SOL    HW2 1017   1.523   0.601   1.047
   92SOL     OW 1018   1.842   0.816   0.386
   92SOL    HW1 1019   1.898   0.763   0.443
   92SOL    HW2 1020   1.813   0.756   0.318
   93SOL     OW 1021   0.492   1.384   0.166
   93SOL    HW1 1022   0.422   1.349   0.222
   93SOL    HW2 1023   0.447   1.425   0.093
   94SOL     OW 1024   1.675   1.260   0.643
   94SOL    HW1 1025   1.769   1.259   0.662
   94SOL    HW2 1026   1.647   1.347   0.671
   95SOL     OW 1027   1.422   0.591   0.087
   95SOL    HW1 1028   1.353   0.578   0.152
   95SOL    HW2 1029   1.472   0.510   0.089
   96SOL     OW 1030   0.530   0.259   0.329
   96SOL    HW1 1031   0.567   0.211   0.255
   96SOL    HW2 1032   0.503   0.343   0.292
   97SOL     OW 1033   1.747   1.232   1.569
   97SOL    HW1 1034   1.834   1.192   1.564
   97SOL    HW2 1035   1.764   1.323   1.594
   98SOL     OW 1036   1.054   1.353   1.334
   98SOL    HW1 1037   0.978   1.322   1.383
   98SOL    HW2 1038   1.129   1.311   1.375
   99SOL     OW 1039   1.607   1.611   1.665
   99SOL    HW1 1040   1.588   1.644   1.577
   99SOL    HW2 1041   1.688   1.561   1.655
  100SOL     OW 1042   1.134   1.210   1.103
  100SOL    HW1 1043   1.072   1.245   1.167
  100SOL    HW2 1044   1.103   1.242   1.018
  101SOL     OW 1045   1.623   1.094   1.075
  101SOL    HW1 1046   1.616   1.157   1.147
  101SOL    HW2 1047   1.548   1.114   1.019
  102SOL     OW 1048   0.912   0.118   1.401
  102SOL    HW1 1049   0.932   0.089   1.312
  102SOL    HW2 1050   0.993   0.159   1.431
  103SOL     OW 1051   0.984   1.116   1.723
  103SOL    HW1 1052   0.893   1.132   1.747
  103SOL    HW2 1053   0.981   1.037   1.669
  104SOL     OW 1054   0.717   1.061   0.377
  104SOL    HW1 1055   0.701   1.042   0.470
  104SOL    HW2 1056   0.790   1.006   0.353
  105SOL     OW 1057   0.424   0.818   1.253
  105SOL    HW1 1058   0.492   0.824   1.320
  105SOL    HW2 1059   0.389   0.729   1.262
  106SOL     OW 1060   1.265   0.375   1.278
  106SOL    HW1 1061   1.299   0.453   1.322
  106SOL    HW2 1062   1.178   0.399   1.249
  107SOL     OW 1063   0.065   1.579   1.345
  107SOL    HW1 1064   0.071   1.625   1.261
  107SOL    HW2 1065   0.156   1.570   1.373
  108SOL     OW 1066   0.361   1.103   0.480
  108SOL    HW1 1067   0.350   1.179   0.423
  108SOL    HW2 1068   0.377   1.030   0.420
  109SOL     OW 1069   0.554   0.530   0.857
  109SOL    HW1 1070   0.567   0.590   0.783
  109SOL    HW2 1071   0.620   0.557   0.921
  110SOL     OW 1072   1.243   1.340   0.398
  110SOL    HW1 1073   1.296   1.417   0.421
  110SOL    HW2 1074   1.155   1.361   0.430
  111SOL     OW 1075   1.281   1.461   1.147
  111SOL    HW1 1076   1.337   1.462   1.225
  111SOL    HW2 1077   1.226   1.383   1.157
  112SOL     OW 1078   1.575   0.638   0.491
  112SOL    HW1 1079   1.533   0.692   0.557
  112SOL    HW2 1080   1.610   0.700   0.427
  113SOL     OW 1081   0.345   1.528   1.317
  113SOL    HW1 1082   0.336   1.477   1.237
  113SOL    HW2 1083   0.440   1.542   1.325
  114SOL     OW 1084   0.419   0.736   1.601
  114SOL    HW1 1085   0.483   0.781   1.545
  114SOL    HW2 1086   0.455   0.649   1.613
  115SOL     OW 1087   1.606   0.781   1.687
  115SOL    HW1 1088   1.520   0.823   1.680
  115SOL    HW2 1089   1.658   0.822   1.618
  116SOL     OW 1090   1.007   0.139   1.780
  116SOL    HW1 1091   1.065   0.208   1.747
  116SOL    HW2 1092   0.998   0.078   1.707
  117SOL     OW 1093   0.485   0.037   1.763
  117SOL    HW1 1094   0.490   0.050   1.669
  117SOL    HW2 1095   0.423   0.103   1.793
  118SOL     OW 1096   0.585   0.876   1.032
  118SOL    HW1 1097   0.619   0.965   1.036
  118SOL    HW2 1098   0.529   0.867   1.109
  119SOL     OW 1099   1.349   0.858   1.024
  119SOL    HW1 1100   1.264   0.844   0.983
  119SOL    HW2 1101   1.395   0.775   1.016
  120SOL     OW 1102   1.217   0.553   0.266
  120SOL    HW1 1103   1.224   0.472   0.318
  120SOL    HW2 1104   1.159   0.609   0.317
  121SOL     OW 1105   0.310   0.211   1.239
  121SOL    HW1 1106   0.267   0.248   1.316
  121SOL    HW2 1107   0.297   0.117   1.246
  122SOL     OW 1108   0.064   1.306   1.280
  122SOL    HW1 1109   0.092   1.262   1.361
  122SOL    HW2 1110   0.053   1.398   1.305
  123SOL     OW 1111   0.723   0.633   1.051
  123SOL    HW1 1112   0.798   0.619   0.993
  123SOL    HW2 1113   0.693   0.722   1.030
  124SOL     OW 1114   1.739   0.960   1.856
  124SOL    HW1 1115   1.694   0.894   1.803
  124SOL    HW2 1116   1.679   0.976   1.930
  125SOL     OW 1117   0.334   0.055   0.660
  125SOL    HW1 1118   0.309   0.148   0.667
  125SOL    HW2 1119   0.286   0.013   0.731
  126SOL     OW 1120   1.576   0.392   0.391
  126SOL    HW1 1121   1.542   0.332   0.458
  126SOL    HW2 1122   1.567   0.479   0.430
  127SOL     OW 1123   1.030   0.759   0.958
  127SOL    HW1 1124   1.021   0.776   1.052
  127SOL    HW2 1125   1.003   0.668   0.947
  128SOL     OW 1126   0.981   1.567   1.720
  128SOL    HW1 1127   0.966   1.610   1.636
  128SOL    HW2 1128   1.023   1.484   1.697
  129SOL     OW 1129   1.851   1.488   1.604
  129SOL    HW1 1130   1.882   1.516   1.518
  129SOL    HW2 1131   1.925   1.505   1.662
  130SOL     OW 1132   0.355   0.922   1.797
  130SOL    HW1 1133   0.432   0.942   1.850
  130SOL    HW2 1134   0.384   0.854   1.737
  131SOL     OW 1135   1.532   0.270   0.145
  131SOL    HW1 1136   1.467   0.200   0.146
  131SOL    HW2 1137   1.535   0.301   0.236
  132SOL     OW 1138   1.287   0.832   0.056
  132SOL    HW1 1139   1.334   0.749   0.061
  132SOL    HW2 1140   1.305   0.864  13.868
  133SOL     OW 1141   1.067   1.338   0.856
  133SOL    HW1 1142   1.072   1.266   0.793
  133SOL    HW2 1143   1.127   1.404   0.820
  134SOL     OW 1144   0.314   0.802   0.950
  134SOL    HW1 1145   0.408   0.818   0.945
  134SOL    HW2 1146   0.306   0.712   0.982
  135SOL     OW 1147   0.340   0.529   1.016
  135SOL    HW1 1148   0.297   0.445   0.999
  135SOL    HW2 1149   0.415   0.531   0.957
  136SOL     OW 1150   1.134   0.380   1.699
  136SOL    HW1 1151   1.085   0.434   1.761
  136SOL    HW2 1152   1.220   0.420   1.694
  137SOL     OW 1153   1.151   0.226   1.482
  137SOL    HW1 1154   1.142   0.279   1.560
  137SOL    HW2 1155   1.178   0.287   1.414
  138SOL     OW 1156   0.016   1.324   0.193
  138SOL    HW1 1157   3.922   1.337   0.184
  138SOL    HW2 1158   0.025   1.230   0.213
  139SOL     OW 1159   0.079   1.799   0.887
  139SOL    HW1 1160   0.086   1.704   0.888
  139SOL    HW2 1161   0.169   1.830   0.893
  140SOL     OW 1162   0.498   1.572   0.910
  140SOL    HW1 1163   0.567   1.632   0.935
  140SOL    HW2 1164   0.541   1.509   0.852
  141SOL     OW 1165   0.975   0.788   1.223
  141SOL    HW1 1166   1.032   0.769   1.297
  141SOL    HW2 1167   0.891   0.748   1.247
  142SOL     OW 1168   0.035   0.580   1.112
  142SOL    HW1 1169   0.090   0.520   1.061
  142SOL    HW2 1170   0.061   0.565   1.203
  143SOL     OW 1171   0.211   0.515   1.722
  143SOL    HW1 1172   0.255   0.473   1.648
  143SOL    HW2 1173   0.167   0.591   1.684
  144SOL     OW 1174   1.380   0.935   1.656
  144SOL    HW1 1175   1.401   1.028   1.653
  144SOL    HW2 1176   1.376   0.907   1.564
  145SOL     OW 1177   0.815   0.581   0.377
  145SOL    HW1 1178   0.825   0.503   0.323
  145SOL    HW2 1179   0.741   0.628   0.338
  146SOL     OW 1180   1.639   0.602   1.181
  146SOL    HW1 1181   1.630   0.542   1.255
  146SOL    HW2 1182   1.727   0.586   1.147
  147SOL     OW 1183   0.301   1.543   1.722
  147SOL    HW1 1184   0.254   1.612   1.769
  147SOL    HW2 1185   0.272   1.462   1.764
  148SOL     OW 1186   0.715   0.452   1.253
  148SOL    HW1 1187   0.663   0.375   1.230
  148SOL    HW2 1188   0.703   0.512   1.179
  149SOL     OW 1189   0.924   1.679   1.470
  149SOL    HW1 1190   0.899   1.640   1.386
  149SOL    HW2 1191   0.917   1.773   1.456
  150SOL     OW 1192   0.425   0.490   0.227
  150SOL    HW1 1193   0.500   0.548   0.236
  150SOL    HW2 1194   0.352   0.548   0.204
  151SOL     OW 1195   0.155   1.134   1.476
  151SOL    HW1 1196   0.155   1.084   1.557
  151SOL    HW2 1197   0.170   1.069   1.407
  152SOL     OW 1198   1.321   1.044   1.221
  152SOL    HW1 1199   1.343   0.981   1.152
  152SOL    HW2 1200   1.255   1.100   1.180
  153SOL     OW 1201   1.316   0.859   0.328
  153SOL    HW1 1202   1.244   0.824   0.380
  153SOL    HW2 1203   1.291   0.843   0.237
  154SOL     OW 1204   1.245   1.736   1.106
  154SOL    HW1 1205   1.329   1.757   1.065
  154SOL    HW2 1206   1.251   1.642   1.126
  155SOL     OW 1207   0.079   1.216   1.027
  155SOL    HW1 1208   0.086   1.242   1.119
  155SOL    HW2 1209   3.986   1.227   1.006
  156SOL     OW 1210   0.680   1.669   1.738
  156SOL    HW1 1211   0.620   1.743   1.728
  156SOL    HW2 1212   0.748   1.685   1.672
  157SOL     OW 1213   0.902   0.104   0.133
  157SOL    HW1 1214   0.941   0.092   0.046
  157SOL    HW2 1215   0.910   0.019   0.175
  158SOL     OW 1216   1.701   0.122   0.497
  158SOL    HW1 1217   1.781   0.132   0.446
  158SOL    HW2 1218   1.692   0.028   0.509
  159SOL     OW 1219   1.364   1.572   0.472
  159SOL    HW1 1220   1.415   1.615   0.403
  159SOL    HW2 1221   1.324   1.644   0.520
  160SOL     OW 1222   0.177   1.761   1.831
  160SOL    HW1 1223   0.120   1.709   1.888
  160SOL    HW2 1224   0.216   1.827   1.889
  161SOL     OW 1225   1.276   0.929   0.672
  161SOL    HW1 1226   1.350   0.869   0.684
  161SOL    HW2 1227   1.311   1.000   0.618
  162SOL     OW 1228   0.806   1.275   1.426
  162SOL    HW1 1229   0.778   1.317   1.507
  162SOL    HW2 1230   0.734   1.290   1.364
  163SOL     OW 1231   0.672   1.587   0.189
  163SOL    HW1 1232   0.665   1.618   0.099
  163SOL    HW2 1233   0.627   1.502   0.188
  164SOL     OW 1234   1.577   1.713   1.411
  164SOL    HW1 1235   1.632   1.705   1.334
  164SOL    HW2 1236   1.564   1.807   1.423
  165SOL     OW 1237   1.839   0.178   0.964
  165SOL    HW1 1238   1.873   0.116   0.900
  165SOL    HW2 1239   1.750   0.196   0.935
  166SOL     OW 1240   0.274   0.320   0.714
  166SOL    HW1 1241   0.189   0.355   0.689
  166SOL    HW2 1242   0.267   0.306   0.809
  167SOL     OW 1243   1.216   1.600   0.033
  167SOL    HW1 1244   1.206   1.508   0.060
  167SOL    HW2 1245   1.176   1.604  13.847
  168SOL     OW 1246   0.823   1.005   1.375
  168SOL    HW1 1247   0.867   0.999   1.290
  168SOL    HW2 1248   0.821   1.099   1.394
  169SOL     OW 1249   0.922   0.911   0.288
  169SOL    HW1 1250   0.992   0.952   0.237
  169SOL    HW2 1251   0.966   0.841   0.337
  170SOL     OW 1252   1.480   1.651   0.044
  170SOL    HW1 1253   1.387   1.628   0.040
  170SOL    HW2 1254   1.509   1.649  13.853
  171SOL     OW 1255   0.374   1.302   1.491
  171SOL    HW1 1256   0.358   1.383   1.442
  171SOL    HW2 1257   0.297   1.248   1.474
  172SOL     OW 1258   1.611   1.280   1.277
  172SOL    HW1 1259   1.674   1.272   1.349
  172SOL    HW2 1260   1.546   1.342   1.309
  173SOL     OW 1261   1.058   1.110   0.710
  173SOL    HW1 1262   0.987   1.058   0.747
  173SOL    HW2 1263   1.123   1.044   0.683
  174SOL     OW 1264   1.015   0.250   0.970
  174SOL    HW1 1265   1.005   0.200   0.889
  174SOL    HW2 1266   1.012   0.184   1.040
  175SOL     OW 1267   0.608   1.486   0.483
  175SOL    HW1 1268   0.654   1.437   0.415
  175SOL    HW2 1269   0.536   1.529   0.438
  176SOL     OW 1270   1.721   0.395   1.371
  176SOL    HW1 1271   1.794   0.456   1.376
  176SOL    HW2 1272   1.754   0.323   1.317
  177SOL     OW 1273   0.267   1.313   0.312
  177SOL    HW1 1274   0.188   1.339   0.265
  177SOL    HW2 1275   0.265   1.364   0.393
  178SOL     OW 1276   0.109   0.999   1.718
  178SOL    HW1 1277   0.049   0.992   1.793
  178SOL    HW2 1278   0.195   0.981   1.755
  179SOL     OW 1279   0.695   0.258   1.503
  179SOL    HW1 1280   0.762   0.204   1.462
  179SOL    HW2 1281   0.723   0.266   1.594
  180SOL     OW 1282   0.069   0.364   0.036
  180SOL    HW1 1283   3.980   0.375   0.069
  180SOL    HW2 1284   0.061   0.378  13.841
  181SOL     OW 1285   1.425   0.856   1.397
  181SOL    HW1 1286   1.376   0.918   1.343
  181SOL    HW2 1287   1.514   0.859   1.362
  182SOL     OW 1288   0.052   0.202   0.320
  182SOL    HW1 1289   0.082   0.277   0.268
  182SOL    HW2 1290   0.132   0.159   0.349
  183SOL     OW 1291   1.186   1.345   0.122
  183SOL    HW1 1292   1.092   1.336   0.110
  183SOL    HW2 1293   1.200   1.331   0.215
  184SOL     OW 1294   0.622   0.828   1.437
  184SOL    HW1 1295   0.678   0.904   1.422
  184SOL    HW2 1296   0.682   0.754   1.445
  185SOL     OW 1297   1.493   1.786   0.984
  185SOL    HW1 1298   1.514   1.858   0.925
  185SOL    HW2 1299   1.576   1.739   0.995
  186SOL     OW 1300   0.718   0.560   1.706
  186SOL    HW1 1301   0.763   0.621   1.764
  186SOL    HW2 1302   0.742   0.474   1.739
  187SOL     OW 1303   1.472   1.196   1.630
  187SOL    HW1 1304   1.461   1.210   1.724
  187SOL    HW2 1305   1.565   1.211   1.614
  188SOL     OW 1306   0.377   1.744   1.556
  188SOL    HW1 1307   0.290   1.782   1.544
  188SOL    HW2 1308   0.361   1.661   1.601
  189SOL     OW 1309   1.665   0.880   1.255
  189SOL    HW1 1310   1.661   0.795   1.212
  189SOL    HW2 1311   1.655   0.943   1.184
  190SOL     OW 1312   1.232   0.335   0.432
  190SOL    HW1 1313   1.293   0.262   0.429
  190SOL    HW2 1314   1.247   0.375   0.517
  191SOL     OW 1315   0.588   0.736   0.674
  191SOL    HW1 1316   0.626   0.823   0.657
  191SOL    HW2 1317   0.522   0.726   0.605
  192SOL     OW 1318   1.749   0.384   1.643
  192SOL    HW1 1319   1.732   0.390   1.549
  192SOL    HW2 1320   1.692   0.313   1.673
  193SOL     OW 1321   1.746   0.933   1.511
  193SOL    HW1 1322   1.734   1.027   1.524
  193SOL    HW2 1323   1.729   0.920   1.418
  194SOL     OW 1324   0.908   1.400   0.069
  194SOL    HW1 1325   0.846   1.378   0.138
  194SOL    HW2 1326   0.858   1.394  13.888
  195SOL     OW 1327   0.664   1.786   0.940
  195SOL    HW1 1328   0.644   1.877   0.920
  195SOL    HW2 1329   0.759   1.780   0.933
  196SOL     OW 1330   0.869   0.969   0.853
  196SOL    HW1 1331   0.919   0.897   0.891
  196SOL    HW2 1332   0.831   1.014   0.929
  197SOL     OW 1333   1.097   1.017   0.112
  197SOL    HW1 1334   1.087   1.061   0.028
  197SOL    HW2 1335   1.170   0.956   0.099
  198SOL     OW 1336   1.855   1.515   0.836
  198SOL    HW1 1337   1.778   1.555   0.797
  198SOL    HW2 1338   1.839   1.517   0.931
  199SOL     OW 1339   0.228   1.304   1.857
  199SOL    HW1 1340   0.154   1.250   1.828
  199SOL    HW2 1341   0.214   1.317   1.950
  200SOL     OW 1342   0.116   1.286   0.732
  200SOL    HW1 1343   0.132   1.237   0.813
  200SOL    HW2 1344   0.103   1.219   0.665
  201SOL     OW 1345   0.683   1.407   1.630
  201SOL    HW1 1346   0.603   1.364   1.662
  201SOL    HW2 1347   0.679   1.495   1.668
  202SOL     OW 1348   1.810   0.183   1.237
  202SOL    HW1 1349   1.813   0.089   1.253
  202SOL    HW2 1350   1.826   0.192   1.143
  203SOL     OW 1351   0.444   0.437   0.534
  203SOL    HW1 1352   0.473   0.363   0.481
  203SOL    HW2 1353   0.390   0.398   0.603
  204SOL     OW 1354   1.699   1.500   1.096
  204SOL    HW1 1355   1.620   1.472   1.050
  204SOL    HW2 1356   1.714   1.431   1.161
  205SOL     OW 1357   0.334   0.559   1.294
  205SOL    HW1 1358   0.390   0.503   1.347
  205SOL    HW2 1359   0.349   0.530   1.204
  206SOL     OW 1360   0.830   1.579   0.675
  206SOL    HW1 1361   0.813   1.644   0.607
  206SOL    HW2 1362   0.755   1.520   0.672
  207SOL     OW 1363   1.459   0.255   1.110
  207SOL    HW1 1364   1.478   0.169   1.146
  207SOL    HW2 1365   1.405   0.297   1.176
  208SOL     OW 1366   1.002   0.026   1.145
  208SOL    HW1 1367   0.920   3.998   1.106
  208SOL    HW2 1368   1.053   3.946   1.154
  209SOL     OW 1369   0.781   1.324   0.320
  209SOL    HW1 1370   0.750   1.235   0.336
  209SOL    HW2 1371   0.860   1.333   0.373
  210SOL     OW 1372   0.621   1.557   1.287
  210SOL    HW1 1373   0.622   1.639   1.336
  210SOL    HW2 1374   0.709   1.550   1.250
  211SOL     OW 1375   1.319   0.069   0.127
  211SOL    HW1 1376   1.334   3.979   0.097
  211SOL    HW2 1377   1.257   0.060   0.200
  212SOL     OW 1378   1.279   0.454   0.682
  212SOL    HW1 1379   1.233   0.538   0.675
  212SOL    HW2 1380   1.283   0.436   0.775
  213SOL     OW 1381   1.587   0.210   0.868
  213SOL    HW1 1382   1.538   0.234   0.946
  213SOL    HW2 1383   1.587   0.288   0.814
  214SOL     OW 1384   0.045   1.028   0.257
  214SOL    HW1 1385   0.138   1.007   0.253
  214SOL    HW2 1386   0.006   0.954   0.304
  215SOL     OW 1387   0.895   1.657   0.342
  215SOL    HW1 1388   0.819   1.628   0.293
  215SOL    HW2 1389   0.864   1.729   0.396
  216SOL     OW 1390   0.232   0.630   1.978
  216SOL    HW1 1391   0.139   0.634   1.999
  216SOL    HW2 1392   0.235   0.599   1.887
  217SOL     OW 1393   0.223   0.290   2.844
  217SOL    HW1 1394   0.246   0.250   2.928
  217SOL    HW2 1395   0.128   0.281   2.838
  218SOL     OW 1396   0.019   0.384   2.498
  218SOL    HW1 1397   3.928   0.400   2.523
  218SOL    HW2 1398   0.025   0.290   2.485
  219SOL     OW 1399   0.583   1.292   3.058
  219SOL    HW1 1400   0.497   1.293   3.017
  219SOL    HW2 1401   0.596   1.382   3.089
  220SOL     OW 1402   1.550   1.502   2.570
  220SOL    HW1 1403   1.520   1.481   2.658
  220SOL    HW2 1404   1.471   1.497   2.516
  221SOL     OW 1405   1.133   0.699   2.557
  221SOL    HW1 1406   1.181   0.781   2.545
  221SOL    HW2 1407   1.085   0.710   2.639
  222SOL     OW 1408   1.772   0.619   2.085
  222SOL    HW1 1409   1.748   0.611   1.993
  222SOL    HW2 1410   1.752   0.533   2.122
  223SOL     OW 1411   0.750   1.138   2.907
  223SOL    HW1 1412   0.689   1.174   2.970
  223SOL    HW2 1413   0.787   1.214   2.861
  224SOL     OW 1414   0.874   0.767   3.687
  224SOL    HW1 1415   0.863   0.838   3.750
  224SOL    HW2 1416   0.895   0.811   3.605
  225SOL     OW 1417   0.685   1.001   2.507
  225SOL    HW1 1418   0.751   0.990   2.575
  225SOL    HW2 1419   0.616   1.053   2.548
  226SOL     OW 1420   0.713   1.148   3.680
  226SOL    HW1 1421   0.760   1.226   3.710
  226SOL    HW2 1422   0.632   1.183   3.642
  227SOL     OW 1423   0.352   1.400   2.941
  227SOL    HW1 1424   0.271   1.377   2.895
  227SOL    HW2 1425   0.398   1.458   2.880
  228SOL     OW 1426   1.447   1.483   3.224
  228SOL    HW1 1427   1.493   1.566   3.238
  228SOL    HW2 1428   1.376   1.484   3.289
  229SOL     OW 1429   0.459   0.408   3.355
  229SOL    HW1 1430   0.541   0.360   3.355
  229SOL    HW2 1431   0.391   0.341   3.359
  230SOL     OW 1432   1.612   0.451   2.597
  230SOL    HW1 1433   1.544   0.482   2.538
  230SOL    HW2 1434   1.626   0.523   2.658
  231SOL     OW 1435   0.219   1.720   2.318
  231SOL    HW1 1436   0.240   1.794   2.376
  231SOL    HW2 1437   0.296   1.712   2.261
  232SOL     OW 1438   1.137   1.342   3.557
  232SOL    HW1 1439   1.178   1.336   3.643
  232SOL    HW2 1440   1.085   1.262   3.549
  233SOL     OW 1441   0.252   1.452   2.401
  233SOL    HW1 1442   0.216   1.539   2.387
  233SOL    HW2 1443   0.186   1.406   2.453
  234SOL     OW 1444   0.249   1.065   2.746
  234SOL    HW1 1445   0.268   0.979   2.784
  234SOL    HW2 1446   0.195   1.109   2.812
  235SOL     OW 1447   0.609   1.793   3.288
  235SOL    HW1 1448   0.526   1.775   3.332
  235SOL    HW2 1449   0.632   1.882   3.315
  236SOL     OW 1450   0.574   0.987   2.002
  236SOL    HW1 1451   0.624   1.030   1.933
  236SOL    HW2 1452   0.615   1.017   2.083
  237SOL     OW 1453   1.583   0.142   3.317
  237SOL    HW1 1454   1.614   0.214   3.263
  237SOL    HW2 1455   1.547   0.184   3.395
  238SOL     OW 1456   0.142   0.653   2.431
  238SOL    HW1 1457   0.099   0.567   2.436
  238SOL    HW2 1458   0.103   0.703   2.503
  239SOL     OW 1459   0.044   1.588   1.999
  239SOL    HW1 1460   0.039   1.497   2.027
  239SOL    HW2 1461   3.958   1.625   2.022
  240SOL     OW 1462   1.685   0.915   2.504
  240SOL    HW1 1463   1.771   0.877   2.486
  240SOL    HW2 1464   1.667   0.969   2.427
  241SOL     OW 1465   1.650   1.105   2.292
  241SOL    HW1 1466   1.737   1.106   2.251
  241SOL    HW2 1467   1.657   1.167   2.365
  242SOL     OW 1468   0.144   0.756   3.451
  242SOL    HW1 1469   0.239   0.752   3.444
  242SOL    HW2 1470   0.126   0.842   3.487
  243SOL     OW 1471   0.613   1.388   2.599
  243SOL    HW1 1472   0.567   1.304   2.607
  243SOL    HW2 1473   0.598   1.414   2.508
  244SOL     OW 1474   1.283   1.233   3.286
  244SOL    HW1 1475   1.314   1.167   3.225
  244SOL    HW2 1476   1.343   1.228   3.360
  245SOL     OW 1477   0.822   0.005   2.379
  245SOL    HW1 1478   0.867   0.085   2.354
  245SOL    HW2 1479   0.729   0.028   2.378
  246SOL     OW 1480   0.184   0.949   3.142
  246SOL    HW1 1481   0.272   0.913   3.130
  246SOL    HW2 1482   0.132   0.908   3.072
  247SOL     OW 1483   1.532   0.998   2.063
  247SOL    HW1 1484   1.462   0.941   2.096
  247SOL    HW2 1485   1.575   1.032   2.141
  248SOL     OW 1486   1.187   1.812   3.487
  248SOL    HW1 1487   1.192   1.872   3.413
  248SOL    HW2 1488   1.202   1.725   3.449
  249SOL     OW 1489   0.347   0.248   3.710
  249SOL    HW1 1490   0.389   0.331   3.690
  249SOL    HW2 1491   0.255   0.271   3.726
  250SOL     OW 1492   1.468   1.419   2.816
  250SOL    HW1 1493   1.399   1.435   2.881
  250SOL    HW2 1494   1.456   1.327   2.790
  251SOL     OW 1495   1.592   1.717   2.406
  251SOL    HW1 1496   1.590   1.674   2.321
  251SOL    HW2 1497   1.591   1.645   2.470
  252SOL     OW 1498   0.595   0.716   2.130
  252SOL    HW1 1499   0.600   0.801   2.086
  252SOL    HW2 1500   0.533   0.729   2.201
  253SOL     OW 1501   1.274   0.371   2.803
  253SOL    HW1 1502   1.187   0.333   2.811
  253SOL    HW2 1503   1.332   0.311   2.849
  254SOL     OW 1504   1.564   1.648   2.149
  254SOL    HW1 1505   1.645   1.694   2.126
  254SOL    HW2 1506   1.523   1.629   2.064
  255SOL     OW 1507   0.794   0.615   3.314
  255SOL    HW1 1508   0.765   0.589   3.402
  255SOL    HW2 1509   0.758   0.549   3.256
  256SOL     OW 1510   1.392   0.475   3.539
  256SOL    HW1 1511   1.399   0.521   3.623
  256SOL    HW2 1512   1.449   0.399   3.549
  257SOL     OW 1513   0.951   0.886   3.448
  257SOL    HW1 1514   1.006   0.818   3.410
  257SOL    HW2 1515   0.902   0.922   3.373
  258SOL     OW 1516   0.994   0.402   3.098
  258SOL    HW1 1517   0.907   0.421   3.134
  258SOL    HW2 1518   0.976   0.375   3.008
  259SOL     OW 1519   1.053   0.700   2.287
  259SOL    HW1 1520   1.071   0.693   2.380
  259SOL    HW2 1521   0.970   0.654   2.274
  260SOL     OW 1522   0.082   0.831   2.652
  260SOL    HW1 1523   0.152   0.796   2.706
  260SOL    HW2 1524   0.106   0.922   2.637
  261SOL     OW 1525   0.130   1.866   3.442
  261SOL    HW1 1526   0.138   1.830   3.530
  261SOL    HW2 1527   0.038   1.856   3.420
  262SOL     OW 1528   0.895   0.352   2.061
  262SOL    HW1 1529   0.937   0.413   2.000
  262SOL    HW2 1530   0.891   0.269   2.014
  263SOL     OW 1531   1.706   0.575   3.692
  263SOL    HW1 1532   1.669   0.648   3.643
  263SOL    HW2 1533   1.731   0.511   3.625
  264SOL     OW 1534   1.380   1.141   2.401
  264SOL    HW1 1535   1.460   1.132   2.350
  264SOL    HW2 1536   1.326   1.201   2.350
  265SOL     OW 1537   0.562   0.195   2.742
  265SOL    HW1 1538   0.567   0.220   2.834
  265SOL    HW2 1539   0.547   0.277   2.695
  266SOL     OW 1540   0.996   1.440   2.330
  266SOL    HW1 1541   0.967   1.517   2.281
  266SOL    HW2 1542   0.979   1.463   2.421
  267SOL     OW 1543   0.364   1.824   2.735
  267SOL    HW1 1544   0.426   1.751   2.745
  267SOL    HW2 1545   0.417   1.902   2.750
  268SOL     OW 1546   1.801   1.046   2.735
  268SOL    HW1 1547   1.747   1.039   2.656
  268SOL    HW2 1548   1.737   1.055   2.806
  269SOL     OW 1549   1.222   1.537   3.377
  269SOL    HW1 1550   1.209   1.465   3.439
  269SOL    HW2 1551   1.155   1.524   3.310
  270SOL     OW 1552   0.310   0.952   2.104
  270SOL    HW1 1553   0.394   0.974   2.062
  270SOL    HW2 1554   0.298   0.859   2.086
  271SOL     OW 1555   1.479   0.750   2.590
  271SOL    HW1 1556   1.477   0.709   2.677
  271SOL    HW2 1557   1.558   0.805   2.592
  272SOL     OW 1558   0.470   1.262   3.599
  272SOL    HW1 1559   0.444   1.269   3.508
  272SOL    HW2 1560   0.388   1.263   3.648
  273SOL     OW 1561   1.123   1.777   2.091
  273SOL    HW1 1562   1.048   1.738   2.136
  273SOL    HW2 1563   1.146   1.714   2.022
  274SOL     OW 1564   0.202   0.293   3.363
  274SOL    HW1 1565   0.108   0.312   3.363
  274SOL    HW2 1566   0.210   0.217   3.421
  275SOL     OW 1567   1.627   1.383   1.946
  275SOL    HW1 1568   1.581   1.465   1.929
  275SOL    HW2 1569   1.562   1.314   1.929
  276SOL     OW 1570   0.466   1.739   2.177
  276SOL    HW1 1571   0.510   1.795   2.241
  276SOL    HW2 1572   0.537   1.702   2.125
  277SOL     OW 1573   1.444   0.170   2.268
  277SOL    HW1 1574   1.393   0.102   2.224
  277SOL    HW2 1575   1.511   0.123   2.316
  278SOL     OW 1576   0.254   1.790   3.092
  278SOL    HW1 1577   0.298   1.723   3.144
  278SOL    HW2 1578   0.251   1.755   3.003
  279SOL     OW 1579   0.939   1.699   2.759
  279SOL    HW1 1580   1.018   1.650   2.780
  279SOL    HW2 1581   0.897   1.649   2.689
  280SOL     OW 1582   0.399   0.695   2.332
  280SOL    HW1 1583   0.423   0.603   2.348
  280SOL    HW2 1584   0.306   0.699   2.358
  281SOL     OW 1585   1.529   0.227   3.588
  281SOL    HW1 1586   1.522   0.252   3.681
  281SOL    HW2 1587   1.515   0.133   3.588
  282SOL     OW 1588   0.646   0.127   1.965
  282SOL    HW1 1589   0.666   0.042   2.004
  282SOL    HW2 1590   0.585   0.107   1.894
  283SOL     OW 1591   0.775   0.285   3.632
  283SOL    HW1 1592   0.853   0.229   3.633
  283SOL    HW2 1593   0.721   0.251   3.703
  284SOL     OW 1594   0.875   1.523   3.056
  284SOL    HW1 1595   0.859   1.485   2.970
  284SOL    HW2 1596   0.945   1.468   3.093
  285SOL     OW 1597   1.338   0.588   3.293
  285SOL    HW1 1598   1.369   0.559   3.379
  285SOL    HW2 1599   1.374   0.676   3.283
  286SOL     OW 1600   0.817   1.390   2.806
  286SOL    HW1 1601   0.903   1.379   2.764
  286SOL    HW2 1602   0.755   1.395   2.733
  287SOL     OW 1603   0.930   0.512   2.761
  287SOL    HW1 1604   0.906   0.504   2.669
  287SOL    HW2 1605   0.955   0.424   2.788
  288SOL     OW 1606   0.547   0.055   2.349
  288SOL    HW1 1607   0.473   0.063   2.410
  288SOL    HW2 1608   0.548   0.139   2.303
  289SOL     OW 1609   1.428   1.199   1.902
  289SOL    HW1 1610   1.458   1.123   1.953
  289SOL    HW2 1611   1.343   1.221   1.939
  290SOL     OW 1612   0.352   0.032   2.062
  290SOL    HW1 1613   0.357   0.087   1.983
  290SOL    HW2 1614   0.438   0.039   2.102
  291SOL     OW 1615   0.944   0.251   2.321
  291SOL    HW1 1616   0.918   0.290   2.237
  291SOL    HW2 1617   1.040   0.256   2.321
  292SOL     OW 1618   1.079   0.685   3.319
  292SOL    HW1 1619   1.010   0.619   3.326
  292SOL    HW2 1620   1.161   0.635   3.315
  293SOL     OW 1621   1.221   1.571   2.656
  293SOL    HW1 1622   1.233   1.638   2.589
  293SOL    HW2 1623   1.290   1.587   2.720
  294SOL     OW 1624   0.467   1.151   2.595
  294SOL    HW1 1625   0.396   1.126   2.655
  294SOL    HW2 1626   0.431   1.136   2.508
  295SOL     OW 1627   1.259   1.790   2.475
  295SOL    HW1 1628   1.309   1.851   2.421
  295SOL    HW2 1629   1.193   1.844   2.518
  296SOL     OW 1630   1.021   0.540   1.893
  296SOL    HW1 1631   0.978   0.623   1.873
  296SOL    HW2 1632   1.085   0.562   1.961
  297SOL     OW 1633   0.082   0.575   3.254
  297SOL    HW1 1634   0.171   0.557   3.225
  297SOL    HW2 1635   0.091   0.646   3.318
  298SOL     OW 1636   0.572   0.231   3.021
  298SOL    HW1 1637   0.593   0.138   3.029
  298SOL    HW2 1638   0.481   0.237   3.051
  299SOL     OW 1639   0.871   0.461   2.500
  299SOL    HW1 1640   0.821   0.514   2.438
  299SOL    HW2 1641   0.891   0.381   2.451
  300SOL     OW 1642   0.997   0.038   2.644
  300SOL    HW1 1643   0.958   0.069   2.562
  300SOL    HW2 1644   1.009   3.944   2.631
  301SOL     OW 1645   1.440   1.162   2.720
  301SOL    HW1 1646   1.369   1.098   2.716
  301SOL    HW2 1647   1.469   1.171   2.630
  302SOL     OW 1648   1.464   0.609   2.834
  302SOL    HW1 1649   1.408   0.531   2.839
  302SOL    HW2 1650   1.523   0.601   2.909
  303SOL     OW 1651   1.843   0.817   2.251
  303SOL    HW1 1652   1.900   0.766   2.307
  303SOL    HW2 1653   1.816   0.756   2.182
  304SOL     OW 1654   0.487   1.423   2.020
  304SOL    HW1 1655   0.411   1.392   2.070
  304SOL    HW2 1656   0.475   1.386   1.933
  305SOL     OW 1657   1.673   1.260   2.510
  305SOL    HW1 1658   1.768   1.258   2.523
  305SOL    HW2 1659   1.648   1.349   2.532
  306SOL     OW 1660   1.395   0.577   1.930
  306SOL    HW1 1661   1.332   0.557   2.000
  306SOL    HW2 1662   1.481   0.559   1.970
  307SOL     OW 1663   0.556   0.270   2.179
  307SOL    HW1 1664   0.606   0.231   2.108
  307SOL    HW2 1665   0.528   0.355   2.144
  308SOL     OW 1666   1.747   1.233   3.431
  308SOL    HW1 1667   1.834   1.193   3.425
  308SOL    HW2 1668   1.764   1.323   3.457
  309SOL     OW 1669   1.054   1.354   3.196
  309SOL    HW1 1670   0.979   1.322   3.245
  309SOL    HW2 1671   1.129   1.311   3.237
  310SOL     OW 1672   1.607   1.612   3.526
  310SOL    HW1 1673   1.588   1.644   3.439
  310SOL    HW2 1674   1.688   1.562   3.517
  311SOL     OW 1675   1.134   1.210   2.965
  311SOL    HW1 1676   1.072   1.245   3.029
  311SOL    HW2 1677   1.103   1.243   2.881
  312SOL     OW 1678   1.623   1.094   2.937
  312SOL    HW1 1679   1.616   1.157   3.009
  312SOL    HW2 1680   1.548   1.114   2.881
  313SOL     OW 1681   0.912   0.118   3.263
  313SOL    HW1 1682   0.932   0.089   3.174
  313SOL    HW2 1683   0.993   0.159   3.293
  314SOL     OW 1684   0.984   1.115   3.585
  314SOL    HW1 1685   0.893   1.132   3.609
  314SOL    HW2 1686   0.981   1.037   3.531
  315SOL     OW 1687   0.708   1.062   2.232
  315SOL    HW1 1688   0.694   1.044   2.325
  315SOL    HW2 1689   0.784   1.009   2.209
  316SOL     OW 1690   0.423   0.818   3.115
  316SOL    HW1 1691   0.492   0.824   3.182
  316SOL    HW2 1692   0.389   0.729   3.125
  317SOL     OW 1693   1.265   0.375   3.140
  317SOL    HW1 1694   1.299   0.453   3.184
  317SOL    HW2 1695   1.178   0.399   3.110
  318SOL     OW 1696   0.065   1.579   3.207
  318SOL    HW1 1697   0.071   1.626   3.124
  318SOL    HW2 1698   0.156   1.569   3.236
  319SOL     OW 1699   0.368   1.104   2.343
  319SOL    HW1 1700   0.363   1.183   2.289
  319SOL    HW2 1701   0.367   1.032   2.279
  320SOL     OW 1702   0.554   0.532   2.719
  320SOL    HW1 1703   0.567   0.591   2.645
  320SOL    HW2 1704   0.620   0.558   2.783
  321SOL     OW 1705   1.239   1.339   2.249
  321SOL    HW1 1706   1.293   1.412   2.279
  321SOL    HW2 1707   1.151   1.359   2.283
  322SOL     OW 1708   1.282   1.461   3.008
  322SOL    HW1 1709   1.338   1.462   3.086
  322SOL    HW2 1710   1.227   1.383   3.018
  323SOL     OW 1711   1.573   0.635   2.350
  323SOL    HW1 1712   1.529   0.688   2.417
  323SOL    HW2 1713   1.621   0.699   2.297
  324SOL     OW 1714   0.345   1.528   3.180
  324SOL    HW1 1715   0.336   1.477   3.099
  324SOL    HW2 1716   0.440   1.542   3.187
  325SOL     OW 1717   0.419   0.736   3.463
  325SOL    HW1 1718   0.483   0.781   3.407
  325SOL    HW2 1719   0.456   0.649   3.475
  326SOL     OW 1720   1.606   0.781   3.549
  326SOL    HW1 1721   1.520   0.823   3.541
  326SOL    HW2 1722   1.658   0.822   3.479
  327SOL     OW 1723   1.007   0.139   3.642
  327SOL    HW1 1724   1.065   0.208   3.609
  327SOL    HW2 1725   0.998   0.079   3.568
  328SOL     OW 1726   0.485   0.037   3.625
  328SOL    HW1 1727   0.490   0.050   3.531
  328SOL    HW2 1728   0.423   0.103   3.655
  329SOL     OW 1729   0.585   0.875   2.894
  329SOL    HW1 1730   0.618   0.965   2.897
  329SOL    HW2 1731   0.529   0.868   2.971
  330SOL     OW 1732   1.349   0.858   2.886
  330SOL    HW1 1733   1.264   0.844   2.845
  330SOL    HW2 1734   1.395   0.774   2.878
  331SOL     OW 1735   1.198   0.538   2.118
  331SOL    HW1 1736   1.208   0.459   2.171
  331SOL    HW2 1737   1.156   0.601   2.176
  332SOL     OW 1738   0.310   0.211   3.101
  332SOL    HW1 1739   0.267   0.248   3.178
  332SOL    HW2 1740   0.296   0.117   3.108
  333SOL     OW 1741   0.064   1.306   3.142
  333SOL    HW1 1742   0.092   1.263   3.222
  333SOL    HW2 1743   0.053   1.398   3.167
  334SOL     OW 1744   0.723   0.633   2.913
  334SOL    HW1 1745   0.799   0.620   2.855
  334SOL    HW2 1746   0.693   0.722   2.893
  335SOL     OW 1747   1.739   0.960   3.718
  335SOL    HW1 1748   1.694   0.894   3.665
  335SOL    HW2 1749   1.679   0.976   3.792
  336SOL     OW 1750   0.333   0.054   2.520
  336SOL    HW1 1751   0.303   0.145   2.521
  336SOL    HW2 1752   0.298   0.017   2.601
  337SOL     OW 1753   1.609   0.394   2.240
  337SOL    HW1 1754   1.564   0.327   2.291
  337SOL    HW2 1755   1.589   0.476   2.287
  338SOL     OW 1756   1.030   0.759   2.820
  338SOL    HW1 1757   1.022   0.776   2.914
  338SOL    HW2 1758   1.003   0.668   2.809
  339SOL     OW 1759   0.981   1.567   3.582
  339SOL    HW1 1760   0.965   1.610   3.498
  339SOL    HW2 1761   1.023   1.484   3.559
  340SOL     OW 1762   1.851   1.489   3.467
  340SOL    HW1 1763   1.882   1.515   3.380
  340SOL    HW2 1764   1.924   1.507   3.526
  341SOL     OW 1765   0.355   0.922   3.659
  341SOL    HW1 1766   0.432   0.942   3.712
  341SOL    HW2 1767   0.384   0.854   3.599
  342SOL     OW 1768   1.502   0.273   1.995
  342SOL    HW1 1769   1.430   0.212   2.007
  342SOL    HW2 1770   1.515   0.312   2.082
  343SOL     OW 1771   1.286   0.827   1.889
  343SOL    HW1 1772   1.329   0.741   1.894
  343SOL    HW2 1773   1.319   0.866   1.808
  344SOL     OW 1774   1.068   1.338   2.718
  344SOL    HW1 1775   1.072   1.266   2.656
  344SOL    HW2 1776   1.127   1.405   2.683
  345SOL     OW 1777   0.313   0.802   2.812
  345SOL    HW1 1778   0.407   0.818   2.806
  345SOL    HW2 1779   0.306   0.712   2.844
  346SOL     OW 1780   0.339   0.529   2.878
  346SOL    HW1 1781   0.297   0.444   2.860
  346SOL    HW2 1782   0.414   0.531   2.818
  347SOL     OW 1783   1.134   0.379   3.561
  347SOL    HW1 1784   1.085   0.434   3.623
  347SOL    HW2 1785   1.220   0.420   3.556
  348SOL     OW 1786   1.151   0.225   3.344
  348SOL    HW1 1787   1.142   0.279   3.422
  348SOL    HW2 1788   1.178   0.287   3.276
  349SOL     OW 1789   0.001   1.315   2.044
  349SOL    HW1 1790   3.907   1.332   2.047
  349SOL    HW2 1791   0.010   1.222   2.063
  350SOL     OW 1792   0.079   1.799   2.750
  350SOL    HW1 1793   0.087   1.704   2.751
  350SOL    HW2 1794   0.169   1.831   2.754
  351SOL     OW 1795   0.497   1.572   2.772
  351SOL    HW1 1796   0.567   1.632   2.798
  351SOL    HW2 1797   0.541   1.509   2.714
  352SOL     OW 1798   0.975   0.788   3.085
  352SOL    HW1 1799   1.032   0.769   3.159
  352SOL    HW2 1800   0.891   0.748   3.109
  353SOL     OW 1801   0.034   0.578   2.974
  353SOL    HW1 1802   0.093   0.522   2.923
  353SOL    HW2 1803   0.061   0.565   3.065
  354SOL     OW 1804   0.211   0.515   3.584
  354SOL    HW1 1805   0.256   0.474   3.510
  354SOL    HW2 1806   0.167   0.591   3.546
  355SOL     OW 1807   1.380   0.935   3.518
  355SOL    HW1 1808   1.401   1.028   3.515
  355SOL    HW2 1809   1.376   0.907   3.426
  356SOL     OW 1810   0.819   0.572   2.226
  356SOL    HW1 1811   0.825   0.496   2.168
  356SOL    HW2 1812   0.744   0.621   2.193
  357SOL     OW 1813   1.639   0.602   3.043
  357SOL    HW1 1814   1.630   0.542   3.117
  357SOL    HW2 1815   1.727   0.585   3.009
  358SOL     OW 1816   0.301   1.543   3.584
  358SOL    HW1 1817   0.254   1.613   3.631
  358SOL    HW2 1818   0.272   1.462   3.626
  359SOL     OW 1819   0.715   0.452   3.115
  359SOL    HW1 1820   0.663   0.375   3.091
  359SOL    HW2 1821   0.703   0.512   3.041
  360SOL     OW 1822   0.924   1.679   3.332
  360SOL    HW1 1823   0.899   1.640   3.248
  360SOL    HW2 1824   0.917   1.773   3.318
  361SOL     OW 1825   0.451   0.492   2.061
  361SOL    HW1 1826   0.516   0.561   2.078
  361SOL    HW2 1827   0.372   0.539   2.036
  362SOL     OW 1828   0.154   1.134   3.338
  362SOL    HW1 1829   0.155   1.084   3.419
  362SOL    HW2 1830   0.170   1.069   3.269
  363SOL     OW 1831   1.321   1.044   3.083
  363SOL    HW1 1832   1.343   0.981   3.014
  363SOL    HW2 1833   1.255   1.100   3.043
  364SOL     OW 1834   1.316   0.856   2.166
  364SOL    HW1 1835   1.241   0.827   2.218
  364SOL    HW2 1836   1.288   0.844   2.075
  365SOL     OW 1837   1.245   1.736   2.968
  365SOL    HW1 1838   1.329   1.757   2.927
  365SOL    HW2 1839   1.251   1.642   2.988
  366SOL     OW 1840   0.079   1.217   2.889
  366SOL    HW1 1841   0.085   1.243   2.981
  366SOL    HW2 1842   3.986   1.228   2.867
  367SOL     OW 1843   0.680   1.669   3.600
  367SOL    HW1 1844   0.620   1.743   3.590
  367SOL    HW2 1845   0.748   1.685   3.534
  368SOL     OW 1846   1.716   0.123   2.352
  368SOL    HW1 1847   1.793   0.134   2.297
  368SOL    HW2 1848   1.706   0.028   2.360
  369SOL     OW 1849   1.366   1.559   2.339
  369SOL    HW1 1850   1.426   1.591   2.271
  369SOL    HW2 1851   1.329   1.639   2.377
  370SOL     OW 1852   0.177   1.761   3.693
  370SOL    HW1 1853   0.120   1.709   3.750
  370SOL    HW2 1854   0.216   1.827   3.751
  371SOL     OW 1855   1.277   0.929   2.533
  371SOL    HW1 1856   1.351   0.869   2.545
  371SOL    HW2 1857   1.312   1.000   2.480
  372SOL     OW 1858   0.806   1.275   3.288
  372SOL    HW1 1859   0.778   1.316   3.369
  372SOL    HW2 1860   0.734   1.290   3.226
  373SOL     OW 1861   0.670   1.624   2.018
  373SOL    HW1 1862   0.681   1.637   1.923
  373SOL    HW2 1863   0.614   1.547   2.024
  374SOL     OW 1864   1.576   1.713   3.273
  374SOL    HW1 1865   1.634   1.705   3.197
  374SOL    HW2 1866   1.562   1.808   3.283
  375SOL     OW 1867   1.840   0.178   2.827
  375SOL    HW1 1868   1.872   0.115   2.763
  375SOL    HW2 1869   1.750   0.197   2.798
  376SOL     OW 1870   0.276   0.322   2.576
  376SOL    HW1 1871   0.191   0.356   2.549
  376SOL    HW2 1872   0.267   0.307   2.670
  377SOL     OW 1873   1.202   1.602   1.893
  377SOL    HW1 1874   1.193   1.511   1.921
  377SOL    HW2 1875   1.135   1.614   1.826
  378SOL     OW 1876   0.823   1.005   3.237
  378SOL    HW1 1877   0.867   0.999   3.151
  378SOL    HW2 1878   0.821   1.099   3.256
  379SOL     OW 1879   0.915   0.910   2.152
  379SOL    HW1 1880   0.976   0.943   2.086
  379SOL    HW2 1881   0.965   0.843   2.199
  380SOL     OW 1882   1.477   1.622   1.899
  380SOL    HW1 1883   1.383   1.616   1.881
  380SOL    HW2 1884   1.517   1.625   1.812
  381SOL     OW 1885   0.374   1.302   3.354
  381SOL    HW1 1886   0.358   1.383   3.304
  381SOL    HW2 1887   0.297   1.248   3.336
  382SOL     OW 1888   1.611   1.280   3.139
  382SOL    HW1 1889   1.674   1.272   3.210
  382SOL    HW2 1890   1.546   1.343   3.171
  383SOL     OW 1891   1.059   1.110   2.572
  383SOL    HW1 1892   0.987   1.059   2.609
  383SOL    HW2 1893   1.123   1.044   2.544
  384SOL     OW 1894   1.015   0.250   2.833
  384SOL    HW1 1895   1.005   0.199   2.752
  384SOL    HW2 1896   1.012   0.185   2.903
  385SOL     OW 1897   0.607   1.488   2.344
  385SOL    HW1 1898   0.654   1.438   2.277
  385SOL    HW2 1899   0.530   1.523   2.299
  386SOL     OW 1900   1.721   0.395   3.233
  386SOL    HW1 1901   1.794   0.456   3.238
  386SOL    HW2 1902   1.754   0.323   3.179
  387SOL     OW 1903   0.255   1.341   2.156
  387SOL    HW1 1904   0.161   1.345   2.138
  387SOL    HW2 1905   0.264   1.381   2.242
  388SOL     OW 1906   0.109   0.998   3.580
  388SOL    HW1 1907   0.049   0.992   3.655
  388SOL    HW2 1908   0.195   0.981   3.617
  389SOL     OW 1909   0.695   0.257   3.365
  389SOL    HW1 1910   0.762   0.203   3.324
  389SOL    HW2 1911   0.723   0.266   3.456
  390SOL     OW 1912   0.088   0.318   1.887
  390SOL    HW1 1913   3.993   0.317   1.880
  390SOL    HW2 1914   0.115   0.401   1.847
  391SOL     OW 1915   1.425   0.856   3.259
  391SOL    HW1 1916   1.376   0.918   3.205
  391SOL    HW2 1917   1.514   0.859   3.224
  392SOL     OW 1918   0.035   0.173   2.146
  392SOL    HW1 1919   0.037   0.226   2.067
  392SOL    HW2 1920   0.110   0.203   2.197
  393SOL     OW 1921   1.177   1.335   1.978
  393SOL    HW1 1922   1.086   1.305   1.979
  393SOL    HW2 1923   1.203   1.334   2.070
  394SOL     OW 1924   0.622   0.828   3.299
  394SOL    HW1 1925   0.678   0.904   3.284
  394SOL    HW2 1926   0.682   0.754   3.307
  395SOL     OW 1927   1.493   1.786   2.846
  395SOL    HW1 1928   1.513   1.858   2.787
  395SOL    HW2 1929   1.577   1.740   2.857
  396SOL     OW 1930   0.718   0.560   3.568
  396SOL    HW1 1931   0.763   0.622   3.626
  396SOL    HW2 1932   0.742   0.474   3.601
  397SOL     OW 1933   1.472   1.195   3.492
  397SOL    HW1 1934   1.461   1.210   3.586
  397SOL    HW2 1935   1.565   1.211   3.476
  398SOL     OW 1936   0.377   1.744   3.418
  398SOL    HW1 1937   0.290   1.782   3.406
  398SOL    HW2 1938   0.361   1.661   3.463
  399SOL     OW 1939   1.665   0.880   3.117
  399SOL    HW1 1940   1.661   0.795   3.074
  399SOL    HW2 1941   1.655   0.943   3.046
  400SOL     OW 1942   1.222   0.338   2.302
  400SOL    HW1 1943   1.291   0.271   2.296
  400SOL    HW2 1944   1.240   0.382   2.386
  401SOL     OW 1945   0.589   0.737   2.534
  401SOL    HW1 1946   0.627   0.823   2.519
  401SOL    HW2 1947   0.523   0.727   2.466
  402SOL     OW 1948   1.749   0.384   3.505
  402SOL    HW1 1949   1.732   0.390   3.411
  402SOL    HW2 1950   1.692   0.313   3.535
  403SOL     OW 1951   1.746   0.933   3.373
  403SOL    HW1 1952   1.734   1.027   3.386
  403SOL    HW2 1953   1.729   0.920   3.280
  404SOL     OW 1954   0.863   1.365   1.903
  404SOL    HW1 1955   0.826   1.392   1.987
  404SOL    HW2 1956   0.878   1.447   1.856
  405SOL     OW 1957   0.664   1.786   2.802
  405SOL    HW1 1958   0.644   1.877   2.782
  405SOL    HW2 1959   0.759   1.779   2.795
  406SOL     OW 1960   0.869   0.969   2.715
  406SOL    HW1 1961   0.920   0.897   2.753
  406SOL    HW2 1962   0.831   1.014   2.790
  407SOL     OW 1963   1.077   0.989   1.951
  407SOL    HW1 1964   1.056   1.040   1.873
  407SOL    HW2 1965   1.151   0.935   1.924
  408SOL     OW 1966   1.855   1.520   2.698
  408SOL    HW1 1967   1.772   1.551   2.660
  408SOL    HW2 1968   1.839   1.520   2.793
  409SOL     OW 1969   0.228   1.304   3.719
  409SOL    HW1 1970   0.154   1.250   3.691
  409SOL    HW2 1971   0.214   1.317   3.812
  410SOL     OW 1972   0.127   1.284   2.586
  410SOL    HW1 1973   0.140   1.232   2.665
  410SOL    HW2 1974   0.106   1.220   2.518
  411SOL     OW 1975   0.683   1.407   3.492
  411SOL    HW1 1976   0.603   1.364   3.524
  411SOL    HW2 1977   0.679   1.495   3.530
  412SOL     OW 1978   1.810   0.183   3.099
  412SOL    HW1 1979   1.813   0.089   3.115
  412SOL    HW2 1980   1.826   0.192   3.005
  413SOL     OW 1981   0.446   0.438   2.393
  413SOL    HW1 1982   0.467   0.362   2.339
  413SOL    HW2 1983   0.390   0.404   2.463
  414SOL     OW 1984   1.700   1.500   2.958
  414SOL    HW1 1985   1.621   1.473   2.912
  414SOL    HW2 1986   1.714   1.431   3.023
  415SOL     OW 1987   0.334   0.559   3.156
  415SOL    HW1 1988   0.390   0.503   3.209
  415SOL    HW2 1989   0.350   0.530   3.066
  416SOL     OW 1990   0.830   1.580   2.538
  416SOL    HW1 1991   0.812   1.644   2.469
  416SOL    HW2 1992   0.755   1.521   2.535
  417SOL     OW 1993   1.460   0.255   2.972
  417SOL    HW1 1994   1.479   0.169   3.009
  417SOL    HW2 1995   1.405   0.298   3.038
  418SOL     OW 1996   1.002   0.026   3.008
  418SOL    HW1 1997   0.920   3.997   2.968
  418SOL    HW2 1998   1.054   3.947   3.016
  419SOL     OW 1999   0.773   1.333   2.181
  419SOL    HW1 2000   0.746   1.242   2.189
  419SOL    HW2 2001   0.854   1.339   2.231
  420SOL     OW 2002   0.621   1.557   3.149
  420SOL    HW1 2003   0.622   1.639   3.198
  420SOL    HW2 2004   0.709   1.550   3.112
  421SOL     OW 2005   1.308   0.073   2.028
  421SOL    HW1 2006   1.318   3.989   1.983
  421SOL    HW2 2007   1.224   0.067   2.073
  422SOL     OW 2008   1.279   0.456   2.546
  422SOL    HW1 2009   1.234   0.540   2.540
  422SOL    HW2 2010   1.282   0.437   2.640
  423SOL     OW 2011   1.587   0.210   2.730
  423SOL    HW1 2012   1.538   0.235   2.808
  423SOL    HW2 2013   1.588   0.288   2.676
  424SOL     OW 2014   0.047   1.047   2.105
  424SOL    HW1 2015   0.142   1.031   2.096
  424SOL    HW2 2016   0.011   0.962   2.128
  425SOL     OW 2017   0.889   1.659   2.200
  425SOL    HW1 2018   0.814   1.642   2.143
  425SOL    HW2 2019   0.861   1.731   2.256
  426SOL     OW 2020   0.232   0.630   3.840
  426SOL    HW1 2021   0.139   0.634   3.861
  426SOL    HW2 2022   0.235   0.599   3.749
  427SOL     OW 2023   0.223   0.290   4.706
  427SOL    HW1 2024   0.246   0.250   4.790
  427SOL    HW2 2025   0.128   0.281   4.700
  428SOL     OW 2026   0.019   0.384   4.360
  428SOL    HW1 2027   3.928   0.400   4.385
  428SOL    HW2 2028   0.025   0.289   4.347
  429SOL     OW 2029   0.583   1.292   4.920
  429SOL    HW1 2030   0.497   1.293   4.879
  429SOL    HW2 2031   0.596   1.382   4.951
  430SOL     OW 2032   1.548   1.502   4.432
  430SOL    HW1 2033   1.519   1.481   4.520
  430SOL    HW2 2034   1.469   1.495   4.379
  431SOL     OW 2035   1.133   0.699   4.419
  431SOL    HW1 2036   1.181   0.781   4.407
  431SOL    HW2 2037   1.085   0.710   4.501
  432SOL     OW 2038   1.772   0.619   3.947
  432SOL    HW1 2039   1.748   0.612   3.855
  432SOL    HW2 2040   1.753   0.533   3.984
  433SOL     OW 2041   0.750   1.138   4.769
  433SOL    HW1 2042   0.689   1.174   4.832
  433SOL    HW2 2043   0.787   1.214   4.723
  434SOL     OW 2044   0.874   0.767   5.549
  434SOL    HW1 2045   0.862   0.838   5.611
  434SOL    HW2 2046   0.895   0.810   5.466
  435SOL     OW 2047   0.685   1.001   4.369
  435SOL    HW1 2048   0.751   0.990   4.437
  435SOL    HW2 2049   0.616   1.053   4.410
  436SOL     OW 2050   0.713   1.149   5.543
  436SOL    HW1 2051   0.761   1.226   5.572
  436SOL    HW2 2052   0.633   1.183   5.504
  437SOL     OW 2053   0.352   1.400   4.803
  437SOL    HW1 2054   0.271   1.377   4.757
  437SOL    HW2 2055   0.398   1.458   4.742
  438SOL     OW 2056   1.447   1.484   5.085
  438SOL    HW1 2057   1.494   1.567   5.097
  438SOL    HW2 2058   1.378   1.486   5.151
  439SOL     OW 2059   0.459   0.409   5.217
  439SOL    HW1 2060   0.541   0.360   5.218
  439SOL    HW2 2061   0.391   0.341   5.221
  440SOL     OW 2062   1.612   0.451   4.459
  440SOL    HW1 2063   1.544   0.483   4.399
  440SOL    HW2 2064   1.626   0.523   4.520
  441SOL     OW 2065   0.219   1.720   4.180
  441SOL    HW1 2066   0.240   1.794   4.238
  441SOL    HW2 2067   0.296   1.712   4.123
  442SOL     OW 2068   1.137   1.342   5.419
  442SOL    HW1 2069   1.179   1.336   5.505
  442SOL    HW2 2070   1.085   1.262   5.411
  443SOL     OW 2071   0.252   1.452   4.263
  443SOL    HW1 2072   0.216   1.539   4.249
  443SOL    HW2 2073   0.186   1.407   4.315
  444SOL     OW 2074   0.249   1.065   4.608
  444SOL    HW1 2075   0.268   0.979   4.646
  444SOL    HW2 2076   0.195   1.109   4.674
  445SOL     OW 2077   0.609   1.794   5.150
  445SOL    HW1 2078   0.526   1.776   5.194
  445SOL    HW2 2079   0.632   1.883   5.177
  446SOL     OW 2080   0.575   0.987   3.864
  446SOL    HW1 2081   0.624   1.030   3.795
  446SOL    HW2 2082   0.615   1.017   3.945
  447SOL     OW 2083   1.583   0.142   5.179
  447SOL    HW1 2084   1.615   0.214   5.125
  447SOL    HW2 2085   1.547   0.184   5.257
  448SOL     OW 2086   0.142   0.653   4.293
  448SOL    HW1 2087   0.099   0.567   4.298
  448SOL    HW2 2088   0.103   0.703   4.365
  449SOL     OW 2089   0.044   1.588   3.861
  449SOL    HW1 2090   0.039   1.497   3.889
  449SOL    HW2 2091   3.958   1.625   3.884
  450SOL     OW 2092   1.685   0.914   4.365
  450SOL    HW1 2093   1.771   0.877   4.349
  450SOL    HW2 2094   1.667   0.969   4.289
  451SOL     OW 2095   1.650   1.105   4.154
  451SOL    HW1 2096   1.737   1.106   4.113
  451SOL    HW2 2097   1.657   1.167   4.227
  452SOL     OW 2098   0.144   0.756   5.313
  452SOL    HW1 2099   0.239   0.752   5.306
  452SOL    HW2 2100   0.126   0.843   5.349
  453SOL     OW 2101   0.613   1.388   4.461
  453SOL    HW1 2102   0.567   1.304   4.469
  453SOL    HW2 2103   0.598   1.414   4.370
  454SOL     OW 2104   1.282   1.233   5.148
  454SOL    HW1 2105   1.314   1.167   5.087
  454SOL    HW2 2106   1.344   1.228   5.222
  455SOL     OW 2107   0.822   0.005   4.241
  455SOL    HW1 2108   0.867   0.085   4.216
  455SOL    HW2 2109   0.729   0.028   4.240
  456SOL     OW 2110   0.183   0.949   5.004
  456SOL    HW1 2111   0.272   0.913   4.992
  456SOL    HW2 2112   0.132   0.908   4.934
  457SOL     OW 2113   1.532   0.998   3.925
  457SOL    HW1 2114   1.462   0.941   3.958
  457SOL    HW2 2115   1.575   1.032   4.003
  458SOL     OW 2116   1.184   1.811   5.349
  458SOL    HW1 2117   1.191   1.871   5.275
  458SOL    HW2 2118   1.201   1.725   5.311
  459SOL     OW 2119   0.347   0.248   5.573
  459SOL    HW1 2120   0.389   0.331   5.552
  459SOL    HW2 2121   0.255   0.271   5.588
  460SOL     OW 2122   1.468   1.419   4.678
  460SOL    HW1 2123   1.399   1.435   4.743
  460SOL    HW2 2124   1.456   1.327   4.653
  461SOL     OW 2125   1.587   1.717   4.267
  461SOL    HW1 2126   1.588   1.672   4.183
  461SOL    HW2 2127   1.587   1.646   4.332
  462SOL     OW 2128   0.596   0.716   3.992
  462SOL    HW1 2129   0.600   0.801   3.948
  462SOL    HW2 2130   0.533   0.729   4.063
  463SOL     OW 2131   1.274   0.371   4.665
  463SOL    HW1 2132   1.187   0.333   4.673
  463SOL    HW2 2133   1.332   0.311   4.711
  464SOL     OW 2134   1.564   1.645   4.011
  464SOL    HW1 2135   1.642   1.695   3.990
  464SOL    HW2 2136   1.523   1.627   3.926
  465SOL     OW 2137   0.794   0.615   5.176
  465SOL    HW1 2138   0.765   0.589   5.264
  465SOL    HW2 2139   0.758   0.549   5.118
  466SOL     OW 2140   1.392   0.475   5.401
  466SOL    HW1 2141   1.399   0.521   5.485
  466SOL    HW2 2142   1.449   0.399   5.411
  467SOL     OW 2143   0.951   0.886   5.310
  467SOL    HW1 2144   1.006   0.818   5.272
  467SOL    HW2 2145   0.902   0.922   5.235
  468SOL     OW 2146   0.993   0.402   4.960
  468SOL    HW1 2147   0.907   0.421   4.996
  468SOL    HW2 2148   0.976   0.375   4.870
  469SOL     OW 2149   1.053   0.700   4.149
  469SOL    HW1 2150   1.071   0.693   4.242
  469SOL    HW2 2151   0.970   0.654   4.136
  470SOL     OW 2152   0.082   0.831   4.514
  470SOL    HW1 2153   0.152   0.796   4.568
  470SOL    HW2 2154   0.106   0.922   4.499
  471SOL     OW 2155   0.130   1.867   5.304
  471SOL    HW1 2156   0.138   1.830   5.392
  471SOL    HW2 2157   0.038   1.856   5.281
  472SOL     OW 2158   0.895   0.352   3.923
  472SOL    HW1 2159   0.937   0.413   3.862
  472SOL    HW2 2160   0.891   0.269   3.876
  473SOL     OW 2161   1.705   0.575   5.554
  473SOL    HW1 2162   1.669   0.648   5.504
  473SOL    HW2 2163   1.730   0.511   5.487
  474SOL     OW 2164   1.380   1.141   4.263
  474SOL    HW1 2165   1.460   1.132   4.212
  474SOL    HW2 2166   1.326   1.201   4.211
  475SOL     OW 2167   0.562   0.195   4.604
  475SOL    HW1 2168   0.567   0.220   4.696
  475SOL    HW2 2169   0.547   0.277   4.557
  476SOL     OW 2170   0.995   1.440   4.192
  476SOL    HW1 2171   0.967   1.517   4.143
  476SOL    HW2 2172   0.980   1.462   4.283
  477SOL     OW 2173   0.364   1.824   4.597
  477SOL    HW1 2174   0.426   1.751   4.607
  477SOL    HW2 2175   0.417   1.902   4.612
  478SOL     OW 2176   1.801   1.045   4.598
  478SOL    HW1 2177   1.747   1.040   4.518
  478SOL    HW2 2178   1.737   1.055   4.669
  479SOL     OW 2179   1.222   1.537   5.239
  479SOL    HW1 2180   1.209   1.465   5.301
  479SOL    HW2 2181   1.156   1.523   5.172
  480SOL     OW 2182   0.310   0.952   3.966
  480SOL    HW1 2183   0.394   0.974   3.924
  480SOL    HW2 2184   0.298   0.859   3.948
  481SOL     OW 2185   1.479   0.750   4.452
  481SOL    HW1 2186   1.477   0.710   4.539
  481SOL    HW2 2187   1.557   0.805   4.453
  482SOL     OW 2188   0.470   1.261   5.462
  482SOL    HW1 2189   0.444   1.269   5.370
  482SOL    HW2 2190   0.387   1.263   5.510
  483SOL     OW 2191   1.123   1.777   3.953
  483SOL    HW1 2192   1.048   1.738   3.998
  483SOL    HW2 2193   1.146   1.714   3.884
  484SOL     OW 2194   0.202   0.293   5.225
  484SOL    HW1 2195   0.108   0.312   5.225
  484SOL    HW2 2196   0.210   0.217   5.282
  485SOL     OW 2197   1.627   1.382   3.808
  485SOL    HW1 2198   1.581   1.464   3.791
  485SOL    HW2 2199   1.562   1.314   3.791
  486SOL     OW 2200   0.466   1.739   4.039
  486SOL    HW1 2201   0.510   1.795   4.103
  486SOL    HW2 2202   0.537   1.702   3.987
  487SOL     OW 2203   1.443   0.170   4.130
  487SOL    HW1 2204   1.393   0.102   4.086
  487SOL    HW2 2205   1.511   0.123   4.178
  488SOL     OW 2206   0.254   1.790   4.954
  488SOL    HW1 2207   0.298   1.722   5.005
  488SOL    HW2 2208   0.251   1.755   4.865
  489SOL     OW 2209   0.939   1.699   4.621
  489SOL    HW1 2210   1.018   1.650   4.641
  489SOL    HW2 2211   0.897   1.649   4.551
  490SOL     OW 2212   0.399   0.695   4.194
  490SOL    HW1 2213   0.423   0.603   4.210
  490SOL    HW2 2214   0.307   0.699   4.220
  491SOL     OW 2215   1.529   0.227   5.451
  491SOL    HW1 2216   1.522   0.252   5.543
  491SOL    HW2 2217   1.515   0.132   5.450
  492SOL     OW 2218   0.646   0.127   3.827
  492SOL    HW1 2219   0.666   0.042   3.866
  492SOL    HW2 2220   0.585   0.107   3.756
  493SOL     OW 2221   0.775   0.285   5.494
  493SOL    HW1 2222   0.853   0.229   5.495
  493SOL    HW2 2223   0.721   0.251   5.565
  494SOL     OW 2224   0.875   1.522   4.918
  494SOL    HW1 2225   0.859   1.485   4.832
  494SOL    HW2 2226   0.945   1.468   4.955
  495SOL     OW 2227   1.338   0.588   5.155
  495SOL    HW1 2228   1.369   0.559   5.241
  495SOL    HW2 2229   1.374   0.676   5.145
  496SOL     OW 2230   0.817   1.390   4.668
  496SOL    HW1 2231   0.903   1.379   4.626
  496SOL    HW2 2232   0.755   1.395   4.595
  497SOL     OW 2233   0.930   0.512   4.623
  497SOL    HW1 2234   0.906   0.504   4.531
  497SOL    HW2 2235   0.955   0.424   4.650
  498SOL     OW 2236   0.547   0.055   4.211
  498SOL    HW1 2237   0.473   0.063   4.272
  498SOL    HW2 2238   0.548   0.139   4.164
  499SOL     OW 2239   1.428   1.199   3.764
  499SOL    HW1 2240   1.458   1.123   3.815
  499SOL    HW2 2241   1.342   1.221   3.801
  500SOL     OW 2242   0.352   0.032   3.924
  500SOL    HW1 2243   0.357   0.087   3.846
  500SOL    HW2 2244   0.438   0.039   3.964
  501SOL     OW 2245   0.944   0.251   4.183
  501SOL    HW1 2246   0.918   0.290   4.099
  501SOL    HW2 2247   1.040   0.256   4.183
  502SOL     OW 2248   1.079   0.685   5.181
  502SOL    HW1 2249   1.011   0.618   5.188
  502SOL    HW2 2250   1.161   0.635   5.176
  503SOL     OW 2251   1.221   1.571   4.518
  503SOL    HW1 2252   1.233   1.638   4.451
  503SOL    HW2 2253   1.290   1.588   4.582
  504SOL     OW 2254   0.467   1.151   4.457
  504SOL    HW1 2255   0.396   1.126   4.517
  504SOL    HW2 2256   0.431   1.136   4.370
  505SOL     OW 2257   1.259   1.789   4.337
  505SOL    HW1 2258   1.310   1.850   4.283
  505SOL    HW2 2259   1.193   1.844   4.380
  506SOL     OW 2260   1.021   0.540   3.755
  506SOL    HW1 2261   0.978   0.623   3.735
  506SOL    HW2 2262   1.085   0.562   3.823
  507SOL     OW 2263   0.082   0.575   5.116
  507SOL    HW1 2264   0.171   0.557   5.087
  507SOL    HW2 2265   0.091   0.646   5.180
  508SOL     OW 2266   0.572   0.231   4.883
  508SOL    HW1 2267   0.593   0.138   4.891
  508SOL    HW2 2268   0.481   0.237   4.913
  509SOL     OW 2269   0.871   0.461   4.362
  509SOL    HW1 2270   0.821   0.514   4.300
  509SOL    HW2 2271   0.891   0.381   4.313
  510SOL     OW 2272   0.997   0.038   4.506
  510SOL    HW1 2273   0.958   0.069   4.424
  510SOL    HW2 2274   1.009   3.944   4.492
  511SOL     OW 2275   1.440   1.162   4.583
  511SOL    HW1 2276   1.369   1.098   4.578
  511SOL    HW2 2277   1.470   1.171   4.492
  512SOL     OW 2278   1.464   0.609   4.696
  512SOL    HW1 2279   1.409   0.531   4.701
  512SOL    HW2 2280   1.523   0.601   4.771
  513SOL     OW 2281   1.843   0.818   4.113
  513SOL    HW1 2282   1.900   0.766   4.169
  513SOL    HW2 2283   1.816   0.756   4.044
  514SOL     OW 2284   0.487   1.423   3.882
  514SOL    HW1 2285   0.411   1.392   3.932
  514SOL    HW2 2286   0.475   1.386   3.795
  515SOL     OW 2287   1.673   1.259   4.372
  515SOL    HW1 2288   1.768   1.258   4.385
  515SOL    HW2 2289   1.648   1.349   4.394
  516SOL     OW 2290   1.395   0.577   3.792
  516SOL    HW1 2291   1.332   0.557   3.862
  516SOL    HW2 2292   1.481   0.559   3.832
  517SOL     OW 2293   0.556   0.270   4.041
  517SOL    HW1 2294   0.606   0.231   3.969
  517SOL    HW2 2295   0.528   0.355   4.006
  518SOL     OW 2296   1.747   1.234   5.293
  518SOL    HW1 2297   1.834   1.194   5.287
  518SOL    HW2 2298   1.764   1.324   5.320
  519SOL     OW 2299   1.054   1.354   5.058
  519SOL    HW1 2300   0.979   1.322   5.107
  519SOL    HW2 2301   1.129   1.310   5.099
  520SOL     OW 2302   1.603   1.614   5.388
  520SOL    HW1 2303   1.586   1.645   5.300
  520SOL    HW2 2304   1.686   1.565   5.380
  521SOL     OW 2305   1.134   1.210   4.827
  521SOL    HW1 2306   1.072   1.245   4.891
  521SOL    HW2 2307   1.103   1.243   4.743
  522SOL     OW 2308   1.622   1.094   4.799
  522SOL    HW1 2309   1.616   1.157   4.871
  522SOL    HW2 2310   1.548   1.114   4.743
  523SOL     OW 2311   0.912   0.118   5.125
  523SOL    HW1 2312   0.932   0.089   5.036
  523SOL    HW2 2313   0.993   0.159   5.155
  524SOL     OW 2314   0.984   1.115   5.448
  524SOL    HW1 2315   0.893   1.131   5.471
  524SOL    HW2 2316   0.981   1.037   5.393
  525SOL     OW 2317   0.708   1.062   4.095
  525SOL    HW1 2318   0.694   1.044   4.187
  525SOL    HW2 2319   0.784   1.009   4.071
  526SOL     OW 2320   0.423   0.818   4.977
  526SOL    HW1 2321   0.492   0.824   5.044
  526SOL    HW2 2322   0.389   0.729   4.986
  527SOL     OW 2323   1.265   0.374   5.002
  527SOL    HW1 2324   1.299   0.453   5.046
  527SOL    HW2 2325   1.178   0.399   4.973
  528SOL     OW 2326   0.065   1.580   5.069
  528SOL    HW1 2327   0.070   1.625   4.985
  528SOL    HW2 2328   0.156   1.570   5.097
  529SOL     OW 2329   0.368   1.104   4.205
  529SOL    HW1 2330   0.363   1.183   4.152
  529SOL    HW2 2331   0.367   1.032   4.141
  530SOL     OW 2332   0.554   0.532   4.581
  530SOL    HW1 2333   0.567   0.591   4.507
  530SOL    HW2 2334   0.620   0.558   4.645
  531SOL     OW 2335   1.238   1.337   4.111
  531SOL    HW1 2336   1.291   1.411   4.140
  531SOL    HW2 2337   1.150   1.357   4.144
  532SOL     OW 2338   1.282   1.461   4.871
  532SOL    HW1 2339   1.338   1.462   4.948
  532SOL    HW2 2340   1.228   1.383   4.881
  533SOL     OW 2341   1.573   0.635   4.212
  533SOL    HW1 2342   1.529   0.688   4.279
  533SOL    HW2 2343   1.621   0.699   4.159
  534SOL     OW 2344   0.345   1.528   5.041
  534SOL    HW1 2345   0.336   1.477   4.961
  534SOL    HW2 2346   0.440   1.542   5.049
  535SOL     OW 2347   0.419   0.736   5.325
  535SOL    HW1 2348   0.483   0.781   5.269
  535SOL    HW2 2349   0.456   0.649   5.337
  536SOL     OW 2350   1.605   0.781   5.410
  536SOL    HW1 2351   1.520   0.823   5.403
  536SOL    HW2 2352   1.658   0.822   5.341
  537SOL     OW 2353   1.007   0.139   5.504
  537SOL    HW1 2354   1.065   0.208   5.471
  537SOL    HW2 2355   0.998   0.079   5.430
  538SOL     OW 2356   0.485   0.037   5.487
  538SOL    HW1 2357   0.490   0.049   5.393
  538SOL    HW2 2358   0.423   0.103   5.518
  539SOL     OW 2359   0.585   0.875   4.756
  539SOL    HW1 2360   0.618   0.965   4.759
  539SOL    HW2 2361   0.529   0.868   4.833
  540SOL     OW 2362   1.349   0.858   4.748
  540SOL    HW1 2363   1.264   0.844   4.707
  540SOL    HW2 2364   1.395   0.774   4.740
  541SOL     OW 2365   1.198   0.538   3.980
  541SOL    HW1 2366   1.207   0.459   4.033
  541SOL    HW2 2367   1.156   0.601   4.038
  542SOL     OW 2368   0.310   0.211   4.963
  542SOL    HW1 2369   0.267   0.248   5.040
  542SOL    HW2 2370   0.296   0.117   4.970
  543SOL     OW 2371   0.064   1.306   5.004
  543SOL    HW1 2372   0.092   1.263   5.085
  543SOL    HW2 2373   0.053   1.398   5.029
  544SOL     OW 2374   0.723   0.633   4.775
  544SOL    HW1 2375   0.799   0.620   4.717
  544SOL    HW2 2376   0.693   0.722   4.755
  545SOL     OW 2377   1.739   0.959   5.579
  545SOL    HW1 2378   1.694   0.893   5.526
  545SOL    HW2 2379   1.679   0.976   5.652
  546SOL     OW 2380   0.333   0.054   4.382
  546SOL    HW1 2381   0.304   0.145   4.383
  546SOL    HW2 2382   0.298   0.017   4.463
  547SOL     OW 2383   1.609   0.394   4.102
  547SOL    HW1 2384   1.564   0.327   4.153
  547SOL    HW2 2385   1.589   0.476   4.149
  548SOL     OW 2386   1.030   0.759   4.682
  548SOL    HW1 2387   1.022   0.776   4.776
  548SOL    HW2 2388   1.003   0.668   4.671
  549SOL     OW 2389   0.980   1.566   5.444
  549SOL    HW1 2390   0.965   1.610   5.361
  549SOL    HW2 2391   1.025   1.484   5.421
  550SOL     OW 2392   1.849   1.490   5.330
  550SOL    HW1 2393   1.883   1.515   5.244
  550SOL    HW2 2394   1.921   1.509   5.390
  551SOL     OW 2395   0.355   0.922   5.522
  551SOL    HW1 2396   0.432   0.942   5.574
  551SOL    HW2 2397   0.384   0.854   5.461
  552SOL     OW 2398   1.502   0.273   3.857
  552SOL    HW1 2399   1.430   0.212   3.869
  552SOL    HW2 2400   1.515   0.312   3.944
  553SOL     OW 2401   1.287   0.827   3.751
  553SOL    HW1 2402   1.329   0.741   3.755
  553SOL    HW2 2403   1.319   0.866   3.670
  554SOL     OW 2404   1.068   1.338   4.581
  554SOL    HW1 2405   1.072   1.266   4.518
  554SOL    HW2 2406   1.127   1.405   4.545
  555SOL     OW 2407   0.313   0.802   4.674
  555SOL    HW1 2408   0.407   0.818   4.668
  555SOL    HW2 2409   0.306   0.712   4.706
  556SOL     OW 2410   0.339   0.529   4.740
  556SOL    HW1 2411   0.297   0.444   4.722
  556SOL    HW2 2412   0.414   0.531   4.681
  557SOL     OW 2413   1.134   0.379   5.424
  557SOL    HW1 2414   1.085   0.434   5.485
  557SOL    HW2 2415   1.220   0.420   5.418
  558SOL     OW 2416   1.151   0.225   5.206
  558SOL    HW1 2417   1.142   0.279   5.285
  558SOL    HW2 2418   1.178   0.287   5.138
  559SOL     OW 2419   0.001   1.315   3.906
  559SOL    HW1 2420   3.907   1.332   3.909
  559SOL    HW2 2421   0.010   1.222   3.925
  560SOL     OW 2422   0.079   1.799   4.612
  560SOL    HW1 2423   0.087   1.704   4.612
  560SOL    HW2 2424   0.169   1.831   4.616
  561SOL     OW 2425   0.497   1.572   4.634
  561SOL    HW1 2426   0.567   1.632   4.660
  561SOL    HW2 2427   0.541   1.509   4.576
  562SOL     OW 2428   0.975   0.788   4.947
  562SOL    HW1 2429   1.032   0.769   5.021
  562SOL    HW2 2430   0.891   0.748   4.971
  563SOL     OW 2431   0.034   0.578   4.836
  563SOL    HW1 2432   0.093   0.522   4.785
  563SOL    HW2 2433   0.061   0.565   4.927
  564SOL     OW 2434   0.211   0.515   5.446
  564SOL    HW1 2435   0.256   0.474   5.372
  564SOL    HW2 2436   0.167   0.591   5.408
  565SOL     OW 2437   1.379   0.935   5.380
  565SOL    HW1 2438   1.401   1.028   5.377
  565SOL    HW2 2439   1.375   0.907   5.289
  566SOL     OW 2440   0.819   0.572   4.088
  566SOL    HW1 2441   0.825   0.496   4.030
  566SOL    HW2 2442   0.744   0.621   4.055
  567SOL     OW 2443   1.639   0.602   4.905
  567SOL    HW1 2444   1.630   0.541   4.979
  567SOL    HW2 2445   1.727   0.585   4.871
  568SOL     OW 2446   0.302   1.544   5.447
  568SOL    HW1 2447   0.254   1.613   5.493
  568SOL    HW2 2448   0.272   1.462   5.488
  569SOL     OW 2449   0.715   0.452   4.977
  569SOL    HW1 2450   0.663   0.375   4.953
  569SOL    HW2 2451   0.703   0.512   4.903
  570SOL     OW 2452   0.923   1.679   5.195
  570SOL    HW1 2453   0.899   1.640   5.111
  570SOL    HW2 2454   0.917   1.773   5.180
  571SOL     OW 2455   0.451   0.492   3.923
  571SOL    HW1 2456   0.516   0.561   3.940
  571SOL    HW2 2457   0.372   0.539   3.898
  572SOL     OW 2458   0.155   1.134   5.200
  572SOL    HW1 2459   0.155   1.084   5.281
  572SOL    HW2 2460   0.170   1.069   5.131
  573SOL     OW 2461   1.321   1.044   4.945
  573SOL    HW1 2462   1.343   0.981   4.876
  573SOL    HW2 2463   1.254   1.100   4.905
  574SOL     OW 2464   1.316   0.856   4.027
  574SOL    HW1 2465   1.241   0.827   4.080
  574SOL    HW2 2466   1.288   0.844   3.937
  575SOL     OW 2467   1.245   1.736   4.830
  575SOL    HW1 2468   1.329   1.757   4.789
  575SOL    HW2 2469   1.251   1.642   4.850
  576SOL     OW 2470   0.079   1.217   4.751
  576SOL    HW1 2471   0.085   1.242   4.843
  576SOL    HW2 2472   3.986   1.228   4.729
  577SOL     OW 2473   0.680   1.669   5.462
  577SOL    HW1 2474   0.620   1.743   5.451
  577SOL    HW2 2475   0.748   1.684   5.396
  578SOL     OW 2476   1.716   0.123   4.214
  578SOL    HW1 2477   1.793   0.134   4.159
  578SOL    HW2 2478   1.706   0.028   4.222
  579SOL     OW 2479   1.363   1.558   4.199
  579SOL    HW1 2480   1.424   1.589   4.133
  579SOL    HW2 2481   1.328   1.638   4.239
  580SOL     OW 2482   0.176   1.761   5.555
  580SOL    HW1 2483   0.120   1.709   5.612
  580SOL    HW2 2484   0.215   1.827   5.614
  581SOL     OW 2485   1.277   0.929   4.395
  581SOL    HW1 2486   1.351   0.869   4.407
  581SOL    HW2 2487   1.312   1.000   4.342
  582SOL     OW 2488   0.806   1.275   5.150
  582SOL    HW1 2489   0.778   1.316   5.231
  582SOL    HW2 2490   0.735   1.290   5.088
  583SOL     OW 2491   0.670   1.624   3.880
  583SOL    HW1 2492   0.682   1.637   3.785
  583SOL    HW2 2493   0.614   1.547   3.886
  584SOL     OW 2494   1.577   1.714   5.131
  584SOL    HW1 2495   1.638   1.706   5.058
  584SOL    HW2 2496   1.563   1.808   5.139
  585SOL     OW 2497   1.840   0.178   4.689
  585SOL    HW1 2498   1.872   0.115   4.625
  585SOL    HW2 2499   1.750   0.197   4.660
  586SOL     OW 2500   0.276   0.322   4.438
  586SOL    HW1 2501   0.190   0.356   4.411
  586SOL    HW2 2502   0.267   0.307   4.532
  587SOL     OW 2503   1.202   1.602   3.755
  587SOL    HW1 2504   1.193   1.511   3.783
  587SOL    HW2 2505   1.135   1.614   3.688
  588SOL     OW 2506   0.823   1.005   5.099
  588SOL    HW1 2507   0.867   0.999   5.013
  588SOL    HW2 2508   0.821   1.099   5.117
  589SOL     OW 2509   0.915   0.910   4.014
  589SOL    HW1 2510   0.976   0.943   3.948
  589SOL    HW2 2511   0.965   0.843   4.061
  590SOL     OW 2512   1.477   1.621   3.760
  590SOL    HW1 2513   1.383   1.616   3.743
  590SOL    HW2 2514   1.517   1.625   3.674
  591SOL     OW 2515   0.374   1.303   5.216
  591SOL    HW1 2516   0.359   1.383   5.166
  591SOL    HW2 2517   0.297   1.248   5.198
  592SOL     OW 2518   1.611   1.280   5.001
  592SOL    HW1 2519   1.675   1.273   5.072
  592SOL    HW2 2520   1.546   1.343   5.033
  593SOL     OW 2521   1.059   1.110   4.434
  593SOL    HW1 2522   0.987   1.059   4.471
  593SOL    HW2 2523   1.123   1.045   4.406
  594SOL     OW 2524   1.015   0.250   4.695
  594SOL    HW1 2525   1.005   0.199   4.614
  594SOL    HW2 2526   1.012   0.185   4.765
  595SOL     OW 2527   0.607   1.488   4.206
  595SOL    HW1 2528   0.654   1.438   4.139
  595SOL    HW2 2529   0.530   1.523   4.160
  596SOL     OW 2530   1.721   0.395   5.095
  596SOL    HW1 2531   1.794   0.456   5.100
  596SOL    HW2 2532   1.754   0.323   5.041
  597SOL     OW 2533   0.255   1.341   4.018
  597SOL    HW1 2534   0.161   1.345   4.000
  597SOL    HW2 2535   0.264   1.381   4.104
  598SOL     OW 2536   0.109   0.999   5.442
  598SOL    HW1 2537   0.049   0.992   5.516
  598SOL    HW2 2538   0.196   0.981   5.479
  599SOL     OW 2539   0.694   0.257   5.227
  599SOL    HW1 2540   0.762   0.203   5.186
  599SOL    HW2 2541   0.723   0.265   5.318
  600SOL     OW 2542   0.088   0.318   3.749
  600SOL    HW1 2543   3.993   0.317   3.742
  600SOL    HW2 2544   0.115   0.401   3.709
  601SOL     OW 2545   1.425   0.856   5.121
  601SOL    HW1 2546   1.376   0.918   5.067
  601SOL    HW2 2547   1.514   0.859   5.086
  602SOL     OW 2548   0.035   0.173   4.008
  602SOL    HW1 2549   0.037   0.226   3.929
  602SOL    HW2 2550   0.110   0.203   4.059
  603SOL     OW 2551   1.176   1.335   3.840
  603SOL    HW1 2552   1.086   1.305   3.841
  603SOL    HW2 2553   1.203   1.334   3.932
  604SOL     OW 2554   0.622   0.828   5.161
  604SOL    HW1 2555   0.679   0.904   5.145
  604SOL    HW2 2556   0.682   0.754   5.169
  605SOL     OW 2557   1.493   1.786   4.708
  605SOL    HW1 2558   1.514   1.858   4.649
  605SOL    HW2 2559   1.576   1.738   4.717
  606SOL     OW 2560   0.718   0.560   5.430
  606SOL    HW1 2561   0.764   0.621   5.488
  606SOL    HW2 2562   0.742   0.474   5.463
  607SOL     OW 2563   1.473   1.195   5.353
  607SOL    HW1 2564   1.461   1.210   5.447
  607SOL    HW2 2565   1.566   1.211   5.337
  608SOL     OW 2566   0.377   1.744   5.280
  608SOL    HW1 2567   0.290   1.782   5.268
  608SOL    HW2 2568   0.361   1.662   5.326
  609SOL     OW 2569   1.664   0.880   4.979
  609SOL    HW1 2570   1.661   0.795   4.936
  609SOL    HW2 2571   1.655   0.943   4.908
  610SOL     OW 2572   1.222   0.338   4.164
  610SOL    HW1 2573   1.290   0.271   4.158
  610SOL    HW2 2574   1.240   0.382   4.248
  611SOL     OW 2575   0.589   0.737   4.396
  611SOL    HW1 2576   0.627   0.823   4.381
  611SOL    HW2 2577   0.523   0.727   4.328
  612SOL     OW 2578   1.749   0.384   5.367
  612SOL    HW1 2579   1.732   0.390   5.273
  612SOL    HW2 2580   1.692   0.313   5.397
  613SOL     OW 2581   1.746   0.933   5.235
  613SOL    HW1 2582   1.735   1.027   5.248
  613SOL    HW2 2583   1.729   0.920   5.142
  614SOL     OW 2584   0.863   1.365   3.765
  614SOL    HW1 2585   0.826   1.392   3.849
  614SOL    HW2 2586   0.878   1.447   3.718
  615SOL     OW 2587   0.664   1.786   4.665
  615SOL    HW1 2588   0.644   1.877   4.644
  615SOL    HW2 2589   0.759   1.779   4.657
  616SOL     OW 2590   0.869   0.969   4.577
  616SOL    HW1 2591   0.920   0.897   4.614
  616SOL    HW2 2592   0.831   1.014   4.652
  617SOL     OW 2593   1.077   0.989   3.813
  617SOL    HW1 2594   1.056   1.040   3.735
  617SOL    HW2 2595   1.151   0.934   3.786
  618SOL     OW 2596   1.855   1.518   4.557
  618SOL    HW1 2597   1.775   1.557   4.522
  618SOL    HW2 2598   1.841   1.519   4.652
  619SOL     OW 2599   0.228   1.304   5.580
  619SOL    HW1 2600   0.154   1.250   5.551
  619SOL    HW2 2601   0.212   1.317   5.674
  620SOL     OW 2602   0.127   1.284   4.448
  620SOL    HW1 2603   0.140   1.232   4.527
  620SOL    HW2 2604   0.106   1.220   4.380
  621SOL     OW 2605   0.683   1.407   5.355
  621SOL    HW1 2606   0.603   1.364   5.386
  621SOL    HW2 2607   0.679   1.495   5.392
  622SOL     OW 2608   1.810   0.183   4.961
  622SOL    HW1 2609   1.813   0.089   4.977
  622SOL    HW2 2610   1.826   0.192   4.867
  623SOL     OW 2611   0.446   0.438   4.255
  623SOL    HW1 2612   0.467   0.362   4.201
  623SOL    HW2 2613   0.390   0.403   4.325
  624SOL     OW 2614   1.700   1.502   4.821
  624SOL    HW1 2615   1.621   1.474   4.774
  624SOL    HW2 2616   1.715   1.433   4.885
  625SOL     OW 2617   0.335   0.559   5.018
  625SOL    HW1 2618   0.390   0.502   5.071
  625SOL    HW2 2619   0.349   0.530   4.928
  626SOL     OW 2620   0.830   1.580   4.400
  626SOL    HW1 2621   0.813   1.644   4.330
  626SOL    HW2 2622   0.755   1.521   4.396
  627SOL     OW 2623   1.460   0.255   4.834
  627SOL    HW1 2624   1.479   0.169   4.871
  627SOL    HW2 2625   1.405   0.298   4.900
  628SOL     OW 2626   1.002   0.026   4.870
  628SOL    HW1 2627   0.920   3.997   4.830
  628SOL    HW2 2628   1.054   3.947   4.878
  629SOL     OW 2629   0.773   1.333   4.043
  629SOL    HW1 2630   0.746   1.242   4.051
  629SOL    HW2 2631   0.854   1.339   4.093
  630SOL     OW 2632   0.621   1.557   5.011
  630SOL    HW1 2633   0.622   1.639   5.060
  630SOL    HW2 2634   0.709   1.550   4.974
  631SOL     OW 2635   1.308   0.073   3.890
  631SOL    HW1 2636   1.318   3.989   3.845
  631SOL    HW2 2637   1.224   0.067   3.935
  632SOL     OW 2638   1.279   0.456   4.408
  632SOL    HW1 2639   1.234   0.540   4.402
  632SOL    HW2 2640   1.282   0.437   4.502
  633SOL     OW 2641   1.587   0.210   4.592
  633SOL    HW1 2642   1.538   0.235   4.670
  633SOL    HW2 2643   1.588   0.288   4.538
  634SOL     OW 2644   0.048   1.047   3.967
  634SOL    HW1 2645   0.142   1.031   3.958
  634SOL    HW2 2646   0.011   0.962   3.991
  635SOL     OW 2647   0.889   1.659   4.062
  635SOL    HW1 2648   0.814   1.642   4.005
  635SOL    HW2 2649   0.861   1.731   4.118
  636SOL     OW 2650   0.232   0.630   5.702
  636SOL    HW1 2651   0.139   0.634   5.723
  636SOL    HW2 2652   0.235   0.600   5.611
  637SOL     OW 2653   0.223   0.290   6.568
  637SOL    HW1 2654   0.246   0.250   6.652
  637SOL    HW2 2655   0.128   0.281   6.562
  638SOL     OW 2656   0.019   0.384   6.222
  638SOL    HW1 2657   3.928   0.400   6.247
  638SOL    HW2 2658   0.025   0.290   6.209
  639SOL     OW 2659   0.583   1.293   6.782
  639SOL    HW1 2660   0.496   1.294   6.740
  639SOL    HW2 2661   0.595   1.382   6.814
  640SOL     OW 2662   1.134   0.699   6.281
  640SOL    HW1 2663   1.181   0.781   6.268
  640SOL    HW2 2664   1.087   0.711   6.363
  641SOL     OW 2665   1.772   0.619   5.808
  641SOL    HW1 2666   1.747   0.612   5.716
  641SOL    HW2 2667   1.754   0.532   5.844
  642SOL     OW 2668   0.748   1.138   6.628
  642SOL    HW1 2669   0.687   1.174   6.693
  642SOL    HW2 2670   0.786   1.214   6.585
  643SOL     OW 2671   0.873   0.767   7.410
  643SOL    HW1 2672   0.870   0.838   7.474
  643SOL    HW2 2673   0.895   0.810   7.327
  644SOL     OW 2674   0.685   1.001   6.231
  644SOL    HW1 2675   0.751   0.990   6.299
  644SOL    HW2 2676   0.616   1.053   6.272
  645SOL     OW 2677   0.711   1.148   7.404
  645SOL    HW1 2678   0.758   1.225   7.434
  645SOL    HW2 2679   0.631   1.183   7.365
  646SOL     OW 2680   0.351   1.400   6.665
  646SOL    HW1 2681   0.271   1.377   6.619
  646SOL    HW2 2682   0.397   1.458   6.605
  647SOL     OW 2683   1.461   1.485   6.911
  647SOL    HW1 2684   1.492   1.569   6.944
  647SOL    HW2 2685   1.400   1.454   6.978
  648SOL     OW 2686   0.458   0.408   7.080
  648SOL    HW1 2687   0.541   0.360   7.080
  648SOL    HW2 2688   0.391   0.341   7.083
  649SOL     OW 2689   1.612   0.451   6.322
  649SOL    HW1 2690   1.545   0.483   6.262
  649SOL    HW2 2691   1.624   0.522   6.384
  650SOL     OW 2692   0.219   1.720   6.042
  650SOL    HW1 2693   0.240   1.794   6.100
  650SOL    HW2 2694   0.295   1.712   5.985
  651SOL     OW 2695   1.129   1.345   7.272
  651SOL    HW1 2696   1.195   1.336   7.341
  651SOL    HW2 2697   1.079   1.264   7.276
  652SOL     OW 2698   0.253   1.453   6.125
  652SOL    HW1 2699   0.216   1.540   6.111
  652SOL    HW2 2700   0.186   1.407   6.177
  653SOL     OW 2701   0.249   1.065   6.470
  653SOL    HW1 2702   0.269   0.979   6.508
  653SOL    HW2 2703   0.196   1.109   6.536
  654SOL     OW 2704   0.608   1.795   7.009
  654SOL    HW1 2705   0.526   1.776   7.055
  654SOL    HW2 2706   0.631   1.883   7.038
  655SOL     OW 2707   0.574   0.987   5.726
  655SOL    HW1 2708   0.624   1.030   5.657
  655SOL    HW2 2709   0.615   1.017   5.807
  656SOL     OW 2710   1.583   0.142   7.041
  656SOL    HW1 2711   1.615   0.215   6.988
  656SOL    HW2 2712   1.547   0.184   7.119
  657SOL     OW 2713   0.142   0.653   6.155
  657SOL    HW1 2714   0.099   0.567   6.160
  657SOL    HW2 2715   0.103   0.703   6.227
  658SOL     OW 2716   0.044   1.588   5.724
  658SOL    HW1 2717   0.039   1.497   5.752
  658SOL    HW2 2718   3.957   1.624   5.745
  659SOL     OW 2719   1.691   0.925   6.231
  659SOL    HW1 2720   1.773   0.880   6.211
  659SOL    HW2 2721   1.674   0.978   6.152
  660SOL     OW 2722   1.659   1.110   6.007
  660SOL    HW1 2723   1.739   1.084   5.960
  660SOL    HW2 2724   1.681   1.194   6.046
  661SOL     OW 2725   0.144   0.756   7.175
  661SOL    HW1 2726   0.239   0.752   7.168
  661SOL    HW2 2727   0.126   0.843   7.211
  662SOL     OW 2728   0.614   1.388   6.323
  662SOL    HW1 2729   0.568   1.305   6.331
  662SOL    HW2 2730   0.599   1.415   6.233
  663SOL     OW 2731   1.293   1.243   7.003
  663SOL    HW1 2732   1.320   1.174   6.942
  663SOL    HW2 2733   1.350   1.231   7.079
  664SOL     OW 2734   0.822   0.005   6.103
  664SOL    HW1 2735   0.867   0.085   6.078
  664SOL    HW2 2736   0.729   0.028   6.102
  665SOL     OW 2737   0.184   0.949   6.865
  665SOL    HW1 2738   0.272   0.913   6.854
  665SOL    HW2 2739   0.132   0.907   6.796
  666SOL     OW 2740   1.530   0.998   5.784
  666SOL    HW1 2741   1.461   0.941   5.819
  666SOL    HW2 2742   1.573   1.033   5.862
  667SOL     OW 2743   1.176   1.795   7.186
  667SOL    HW1 2744   1.172   1.848   7.107
  667SOL    HW2 2745   1.181   1.705   7.155
  668SOL     OW 2746   0.347   0.248   7.435
  668SOL    HW1 2747   0.390   0.331   7.414
  668SOL    HW2 2748   0.255   0.271   7.450
  669SOL     OW 2749   0.595   0.716   5.854
  669SOL    HW1 2750   0.600   0.801   5.809
  669SOL    HW2 2751   0.532   0.729   5.925
  670SOL     OW 2752   1.274   0.371   6.527
  670SOL    HW1 2753   1.187   0.332   6.535
  670SOL    HW2 2754   1.332   0.311   6.573
  671SOL     OW 2755   1.599   1.628   5.873
  671SOL    HW1 2756   1.624   1.720   5.872
  671SOL    HW2 2757   1.548   1.616   5.793
  672SOL     OW 2758   0.793   0.615   7.038
  672SOL    HW1 2759   0.765   0.589   7.126
  672SOL    HW2 2760   0.757   0.548   6.980
  673SOL     OW 2761   1.391   0.475   7.263
  673SOL    HW1 2762   1.398   0.521   7.346
  673SOL    HW2 2763   1.449   0.399   7.273
  674SOL     OW 2764   0.950   0.887   7.172
  674SOL    HW1 2765   1.007   0.819   7.134
  674SOL    HW2 2766   0.902   0.922   7.098
  675SOL     OW 2767   0.993   0.401   6.822
  675SOL    HW1 2768   0.907   0.421   6.859
  675SOL    HW2 2769   0.976   0.375   6.732
  676SOL     OW 2770   1.053   0.700   6.011
  676SOL    HW1 2771   1.071   0.693   6.104
  676SOL    HW2 2772   0.970   0.654   5.998
  677SOL     OW 2773   0.082   0.831   6.376
  677SOL    HW1 2774   0.152   0.796   6.430
  677SOL    HW2 2775   0.107   0.922   6.361
  678SOL     OW 2776   0.130   1.866   7.166
  678SOL    HW1 2777   0.138   1.830   7.254
  678SOL    HW2 2778   0.038   1.856   7.144
  679SOL     OW 2779   0.895   0.352   5.785
  679SOL    HW1 2780   0.937   0.413   5.724
  679SOL    HW2 2781   0.891   0.269   5.738
  680SOL     OW 2782   1.705   0.574   7.414
  680SOL    HW1 2783   1.669   0.648   7.366
  680SOL    HW2 2784   1.730   0.511   7.346
  681SOL     OW 2785   1.391   1.149   6.133
  681SOL    HW1 2786   1.467   1.133   6.079
  681SOL    HW2 2787   1.336   1.208   6.082
  682SOL     OW 2788   0.562   0.195   6.466
  682SOL    HW1 2789   0.567   0.220   6.558
  682SOL    HW2 2790   0.547   0.277   6.419
  683SOL     OW 2791   1.007   1.449   6.060
  683SOL    HW1 2792   0.973   1.521   6.008
  683SOL    HW2 2793   0.972   1.464   6.148
  684SOL     OW 2794   0.364   1.824   6.459
  684SOL    HW1 2795   0.426   1.752   6.469
  684SOL    HW2 2796   0.416   1.903   6.474
  685SOL     OW 2797   1.812   1.028   6.467
  685SOL    HW1 2798   1.753   1.013   6.394
  685SOL    HW2 2799   1.755   1.055   6.540
  686SOL     OW 2800   1.211   1.529   7.085
  686SOL    HW1 2801   1.187   1.457   7.142
  686SOL    HW2 2802   1.165   1.513   7.003
  687SOL     OW 2803   0.310   0.952   5.828
  687SOL    HW1 2804   0.393   0.974   5.786
  687SOL    HW2 2805   0.298   0.859   5.810
  688SOL     OW 2806   1.481   0.752   6.314
  688SOL    HW1 2807   1.475   0.710   6.400
  688SOL    HW2 2808   1.558   0.809   6.321
  689SOL     OW 2809   0.469   1.261   7.324
  689SOL    HW1 2810   0.443   1.268   7.232
  689SOL    HW2 2811   0.386   1.265   7.372
  690SOL     OW 2812   1.121   1.783   5.817
  690SOL    HW1 2813   1.047   1.741   5.860
  690SOL    HW2 2814   1.148   1.722   5.749
  691SOL     OW 2815   0.201   0.292   7.086
  691SOL    HW1 2816   0.108   0.312   7.087
  691SOL    HW2 2817   0.211   0.217   7.145
  692SOL     OW 2818   1.628   1.380   5.674
  692SOL    HW1 2819   1.585   1.464   5.659
  692SOL    HW2 2820   1.560   1.315   5.654
  693SOL     OW 2821   0.465   1.739   5.900
  693SOL    HW1 2822   0.509   1.795   5.964
  693SOL    HW2 2823   0.537   1.701   5.849
  694SOL     OW 2824   1.443   0.170   5.992
  694SOL    HW1 2825   1.393   0.102   5.947
  694SOL    HW2 2826   1.511   0.122   6.040
  695SOL     OW 2827   0.253   1.790   6.816
  695SOL    HW1 2828   0.298   1.723   6.868
  695SOL    HW2 2829   0.251   1.755   6.727
  696SOL     OW 2830   0.940   1.694   6.488
  696SOL    HW1 2831   1.005   1.633   6.524
  696SOL    HW2 2832   0.900   1.645   6.416
  697SOL     OW 2833   0.399   0.695   6.056
  697SOL    HW1 2834   0.423   0.603   6.072
  697SOL    HW2 2835   0.306   0.699   6.082
  698SOL     OW 2836   1.530   0.227   7.312
  698SOL    HW1 2837   1.523   0.252   7.405
  698SOL    HW2 2838   1.515   0.133   7.312
  699SOL     OW 2839   0.646   0.127   5.689
  699SOL    HW1 2840   0.667   0.042   5.728
  699SOL    HW2 2841   0.585   0.107   5.618
  700SOL     OW 2842   0.775   0.285   7.356
  700SOL    HW1 2843   0.853   0.229   7.357
  700SOL    HW2 2844   0.721   0.252   7.427
  701SOL     OW 2845   0.878   1.524   6.778
  701SOL    HW1 2846   0.859   1.483   6.694
  701SOL    HW2 2847   0.947   1.469   6.816
  702SOL     OW 2848   1.338   0.588   7.017
  702SOL    HW1 2849   1.370   0.560   7.103
  702SOL    HW2 2850   1.374   0.677   7.006
  703SOL     OW 2851   0.818   1.392   6.528
  703SOL    HW1 2852   0.901   1.380   6.484
  703SOL    HW2 2853   0.753   1.395   6.458
  704SOL     OW 2854   0.930   0.512   6.485
  704SOL    HW1 2855   0.906   0.504   6.393
  704SOL    HW2 2856   0.955   0.424   6.512
  705SOL     OW 2857   0.547   0.055   6.073
  705SOL    HW1 2858   0.473   0.063   6.134
  705SOL    HW2 2859   0.548   0.139   6.026
  706SOL     OW 2860   1.427   1.199   5.625
  706SOL    HW1 2861   1.457   1.124   5.675
  706SOL    HW2 2862   1.342   1.221   5.662
  707SOL     OW 2863   0.352   0.033   5.786
  707SOL    HW1 2864   0.357   0.087   5.707
  707SOL    HW2 2865   0.438   0.039   5.826
  708SOL     OW 2866   0.944   0.251   6.045
  708SOL    HW1 2867   0.918   0.290   5.961
  708SOL    HW2 2868   1.040   0.256   6.045
  709SOL     OW 2869   1.080   0.686   7.043
  709SOL    HW1 2870   1.012   0.618   7.050
  709SOL    HW2 2871   1.162   0.637   7.039
  710SOL     OW 2872   0.467   1.152   6.319
  710SOL    HW1 2873   0.396   1.126   6.379
  710SOL    HW2 2874   0.431   1.137   6.232
  711SOL     OW 2875   1.021   0.540   5.617
  711SOL    HW1 2876   0.978   0.623   5.597
  711SOL    HW2 2877   1.085   0.562   5.684
  712SOL     OW 2878   0.082   0.575   6.979
  712SOL    HW1 2879   0.171   0.556   6.949
  712SOL    HW2 2880   0.092   0.646   7.042
  713SOL     OW 2881   0.571   0.231   6.745
  713SOL    HW1 2882   0.593   0.138   6.753
  713SOL    HW2 2883   0.481   0.237   6.774
  714SOL     OW 2884   0.871   0.461   6.224
  714SOL    HW1 2885   0.821   0.514   6.162
  714SOL    HW2 2886   0.892   0.381   6.175
  715SOL     OW 2887   0.997   0.038   6.368
  715SOL    HW1 2888   0.958   0.069   6.286
  715SOL    HW2 2889   1.009   3.944   6.354
  716SOL     OW 2890   1.439   1.154   6.436
  716SOL    HW1 2891   1.379   1.083   6.458
  716SOL    HW2 2892   1.430   1.165   6.341
  717SOL     OW 2893   1.463   0.608   6.555
  717SOL    HW1 2894   1.407   0.531   6.562
  717SOL    HW2 2895   1.522   0.601   6.630
  718SOL     OW 2896   1.839   0.816   5.976
  718SOL    HW1 2897   1.898   0.765   6.032
  718SOL    HW2 2898   1.813   0.755   5.907
  719SOL     OW 2899   0.487   1.423   5.744
  719SOL    HW1 2900   0.411   1.392   5.794
  719SOL    HW2 2901   0.474   1.386   5.657
  720SOL     OW 2902   1.395   0.577   5.655
  720SOL    HW1 2903   1.332   0.557   5.724
  720SOL    HW2 2904   1.481   0.558   5.693
  721SOL     OW 2905   0.556   0.270   5.903
  721SOL    HW1 2906   0.606   0.231   5.831
  721SOL    HW2 2907   0.528   0.355   5.868
  722SOL     OW 2908   1.752   1.212   7.184
  722SOL    HW1 2909   1.842   1.198   7.154
  722SOL    HW2 2910   1.750   1.303   7.215
  723SOL     OW 2911   1.051   1.345   6.918
  723SOL    HW1 2912   0.976   1.314   6.970
  723SOL    HW2 2913   1.127   1.305   6.959
  724SOL     OW 2914   1.126   1.203   6.692
  724SOL    HW1 2915   1.080   1.250   6.761
  724SOL    HW2 2916   1.088   1.237   6.611
  725SOL     OW 2917   1.623   1.092   6.655
  725SOL    HW1 2918   1.620   1.151   6.730
  725SOL    HW2 2919   1.558   1.126   6.594
  726SOL     OW 2920   0.912   0.117   6.987
  726SOL    HW1 2921   0.932   0.090   6.897
  726SOL    HW2 2922   0.993   0.159   7.017
  727SOL     OW 2923   0.982   1.118   7.309
  727SOL    HW1 2924   0.891   1.132   7.333
  727SOL    HW2 2925   0.981   1.038   7.255
  728SOL     OW 2926   0.708   1.062   5.956
  728SOL    HW1 2927   0.694   1.044   6.049
  728SOL    HW2 2928   0.784   1.009   5.933
  729SOL     OW 2929   0.423   0.818   6.839
  729SOL    HW1 2930   0.492   0.824   6.906
  729SOL    HW2 2931   0.389   0.729   6.849
  730SOL     OW 2932   1.266   0.375   6.864
  730SOL    HW1 2933   1.299   0.453   6.908
  730SOL    HW2 2934   1.178   0.399   6.835
  731SOL     OW 2935   0.065   1.579   6.932
  731SOL    HW1 2936   0.071   1.626   6.849
  731SOL    HW2 2937   0.156   1.569   6.960
  732SOL     OW 2938   0.369   1.104   6.067
  732SOL    HW1 2939   0.362   1.183   6.013
  732SOL    HW2 2940   0.367   1.032   6.004
  733SOL     OW 2941   0.554   0.532   6.442
  733SOL    HW1 2942   0.567   0.591   6.368
  733SOL    HW2 2943   0.619   0.558   6.507
  734SOL     OW 2944   1.251   1.352   5.976
  734SOL    HW1 2945   1.309   1.426   5.996
  734SOL    HW2 2946   1.166   1.379   6.011
  735SOL     OW 2947   1.256   1.463   6.716
  735SOL    HW1 2948   1.331   1.481   6.774
  735SOL    HW2 2949   1.241   1.369   6.725
  736SOL     OW 2950   1.572   0.635   6.075
  736SOL    HW1 2951   1.530   0.688   6.142
  736SOL    HW2 2952   1.622   0.698   6.023
  737SOL     OW 2953   0.346   1.528   6.904
  737SOL    HW1 2954   0.336   1.477   6.824
  737SOL    HW2 2955   0.440   1.542   6.912
  738SOL     OW 2956   0.419   0.736   7.187
  738SOL    HW1 2957   0.483   0.781   7.131
  738SOL    HW2 2958   0.457   0.649   7.200
  739SOL     OW 2959   1.605   0.781   7.273
  739SOL    HW1 2960   1.519   0.822   7.267
  739SOL    HW2 2961   1.657   0.823   7.205
  740SOL     OW 2962   1.008   0.139   7.366
  740SOL    HW1 2963   1.065   0.209   7.334
  740SOL    HW2 2964   0.998   0.079   7.292
  741SOL     OW 2965   0.486   0.037   7.349
  741SOL    HW1 2966   0.490   0.049   7.255
  741SOL    HW2 2967   0.423   0.102   7.380
  742SOL     OW 2968   0.585   0.876   6.618
  742SOL    HW1 2969   0.619   0.965   6.622
  742SOL    HW2 2970   0.530   0.868   6.695
  743SOL     OW 2971   1.348   0.860   6.604
  743SOL    HW1 2972   1.260   0.840   6.572
  743SOL    HW2 2973   1.394   0.777   6.600
  744SOL     OW 2974   1.199   0.538   5.842
  744SOL    HW1 2975   1.208   0.459   5.895
  744SOL    HW2 2976   1.155   0.601   5.900
  745SOL     OW 2977   0.310   0.211   6.825
  745SOL    HW1 2978   0.267   0.248   6.902
  745SOL    HW2 2979   0.296   0.117   6.832
  746SOL     OW 2980   0.061   1.306   6.867
  746SOL    HW1 2981   0.091   1.262   6.946
  746SOL    HW2 2982   0.053   1.398   6.891
  747SOL     OW 2983   0.722   0.632   6.636
  747SOL    HW1 2984   0.799   0.619   6.580
  747SOL    HW2 2985   0.693   0.722   6.617
  748SOL     OW 2986   1.740   0.960   7.447
  748SOL    HW1 2987   1.693   0.900   7.388
  748SOL    HW2 2988   1.678   0.977   7.518
  749SOL     OW 2989   0.333   0.054   6.244
  749SOL    HW1 2990   0.304   0.145   6.245
  749SOL    HW2 2991   0.298   0.017   6.325
  750SOL     OW 2992   1.609   0.394   5.965
  750SOL    HW1 2993   1.564   0.327   6.015
  750SOL    HW2 2994   1.589   0.476   6.011
  751SOL     OW 2995   1.031   0.759   6.544
  751SOL    HW1 2996   1.022   0.776   6.638
  751SOL    HW2 2997   1.003   0.668   6.533
  752SOL     OW 2998   0.956   1.560   7.275
  752SOL    HW1 2999   0.952   1.599   7.188
  752SOL    HW2 3000   1.006   1.479   7.263
  753SOL     OW 3001   0.355   0.922   7.383
  753SOL    HW1 3002   0.432   0.943   7.436
  753SOL    HW2 3003   0.385   0.854   7.323
  754SOL     OW 3004   1.502   0.273   5.719
  754SOL    HW1 3005   1.430   0.212   5.732
  754SOL    HW2 3006   1.515   0.313   5.806
  755SOL     OW 3007   1.287   0.827   5.614
  755SOL    HW1 3008   1.329   0.741   5.618
  755SOL    HW2 3009   1.319   0.866   5.533
  756SOL     OW 3010   1.063   1.335   6.432
  756SOL    HW1 3011   1.060   1.258   6.375
  756SOL    HW2 3012   1.154   1.365   6.427
  757SOL     OW 3013   0.313   0.802   6.536
  757SOL    HW1 3014   0.407   0.818   6.531
  757SOL    HW2 3015   0.306   0.712   6.568
  758SOL     OW 3016   0.339   0.529   6.602
  758SOL    HW1 3017   0.297   0.445   6.584
  758SOL    HW2 3018   0.414   0.531   6.542
  759SOL     OW 3019   1.133   0.379   7.286
  759SOL    HW1 3020   1.085   0.434   7.348
  759SOL    HW2 3021   1.220   0.419   7.281
  760SOL     OW 3022   1.151   0.226   7.068
  760SOL    HW1 3023   1.142   0.279   7.147
  760SOL    HW2 3024   1.179   0.287   7.000
  761SOL     OW 3025   0.001   1.315   5.769
  761SOL    HW1 3026   3.907   1.332   5.771
  761SOL    HW2 3027   0.010   1.222   5.787
  762SOL     OW 3028   0.079   1.799   6.474
  762SOL    HW1 3029   0.087   1.704   6.474
  762SOL    HW2 3030   0.169   1.831   6.479
  763SOL     OW 3031   0.497   1.572   6.496
  763SOL    HW1 3032   0.567   1.633   6.521
  763SOL    HW2 3033   0.541   1.509   6.438
  764SOL     OW 3034   0.974   0.787   6.808
  764SOL    HW1 3035   1.033   0.770   6.882
  764SOL    HW2 3036   0.891   0.749   6.835
  765SOL     OW 3037   0.034   0.578   6.698
  765SOL    HW1 3038   0.093   0.523   6.647
  765SOL    HW2 3039   0.061   0.565   6.789
  766SOL     OW 3040   0.211   0.515   7.308
  766SOL    HW1 3041   0.257   0.475   7.234
  766SOL    HW2 3042   0.168   0.592   7.270
  767SOL     OW 3043   1.378   0.931   7.243
  767SOL    HW1 3044   1.400   1.024   7.242
  767SOL    HW2 3045   1.377   0.906   7.150
  768SOL     OW 3046   0.819   0.572   5.950
  768SOL    HW1 3047   0.826   0.496   5.892
  768SOL    HW2 3048   0.744   0.621   5.917
  769SOL     OW 3049   1.638   0.600   6.764
  769SOL    HW1 3050   1.629   0.543   6.840
  769SOL    HW2 3051   1.726   0.584   6.732
  770SOL     OW 3052   0.298   1.543   7.305
  770SOL    HW1 3053   0.253   1.612   7.354
  770SOL    HW2 3054   0.272   1.462   7.350
  771SOL     OW 3055   0.714   0.451   6.839
  771SOL    HW1 3056   0.662   0.375   6.815
  771SOL    HW2 3057   0.702   0.512   6.765
  772SOL     OW 3058   0.924   1.679   7.033
  772SOL    HW1 3059   0.897   1.642   6.949
  772SOL    HW2 3060   0.909   1.773   7.023
  773SOL     OW 3061   0.451   0.492   5.785
  773SOL    HW1 3062   0.516   0.561   5.802
  773SOL    HW2 3063   0.372   0.539   5.760
  774SOL     OW 3064   0.153   1.134   7.061
  774SOL    HW1 3065   0.155   1.084   7.143
  774SOL    HW2 3066   0.169   1.068   6.993
  775SOL     OW 3067   1.316   1.041   6.808
  775SOL    HW1 3068   1.345   0.983   6.738
  775SOL    HW2 3069   1.248   1.095   6.768
  776SOL     OW 3070   1.314   0.859   5.891
  776SOL    HW1 3071   1.241   0.826   5.943
  776SOL    HW2 3072   1.287   0.845   5.800
  777SOL     OW 3073   0.079   1.217   6.613
  777SOL    HW1 3074   0.084   1.242   6.706
  777SOL    HW2 3075   3.986   1.228   6.591
  778SOL     OW 3076   0.680   1.666   7.330
  778SOL    HW1 3077   0.627   1.742   7.306
  778SOL    HW2 3078   0.757   1.673   7.274
  779SOL     OW 3079   1.716   0.123   6.076
  779SOL    HW1 3080   1.793   0.134   6.021
  779SOL    HW2 3081   1.706   0.028   6.085
  780SOL     OW 3082   0.176   1.761   7.418
  780SOL    HW1 3083   0.120   1.708   7.475
  780SOL    HW2 3084   0.215   1.826   7.476
  781SOL     OW 3085   1.278   0.929   6.252
  781SOL    HW1 3086   1.351   0.870   6.268
  781SOL    HW2 3087   1.315   1.001   6.202
  782SOL     OW 3088   0.804   1.272   7.014
  782SOL    HW1 3089   0.775   1.315   7.094
  782SOL    HW2 3090   0.732   1.287   6.951
  783SOL     OW 3091   0.670   1.624   5.741
  783SOL    HW1 3092   0.682   1.637   5.647
  783SOL    HW2 3093   0.614   1.546   5.748
  784SOL     OW 3094   1.573   1.716   6.979
  784SOL    HW1 3095   1.658   1.709   6.936
  784SOL    HW2 3096   1.558   1.810   6.987
  785SOL     OW 3097   1.840   0.178   6.551
  785SOL    HW1 3098   1.872   0.116   6.486
  785SOL    HW2 3099   1.750   0.198   6.523
  786SOL     OW 3100   0.276   0.322   6.300
  786SOL    HW1 3101   0.191   0.356   6.273
  786SOL    HW2 3102   0.267   0.307   6.394
  787SOL     OW 3103   1.202   1.605   5.620
  787SOL    HW1 3104   1.193   1.513   5.646
  787SOL    HW2 3105   1.136   1.617   5.552
  788SOL     OW 3106   0.824   1.004   6.960
  788SOL    HW1 3107   0.870   0.999   6.876
  788SOL    HW2 3108   0.820   1.098   6.980
  789SOL     OW 3109   0.916   0.911   5.877
  789SOL    HW1 3110   0.977   0.944   5.811
  789SOL    HW2 3111   0.965   0.843   5.923
  790SOL     OW 3112   1.479   1.626   5.629
  790SOL    HW1 3113   1.385   1.620   5.612
  790SOL    HW2 3114   1.519   1.629   5.542
  791SOL     OW 3115   0.373   1.301   7.078
  791SOL    HW1 3116   0.358   1.382   7.029
  791SOL    HW2 3117   0.296   1.248   7.060
  792SOL     OW 3118   1.616   1.259   6.867
  792SOL    HW1 3119   1.701   1.282   6.904
  792SOL    HW2 3120   1.558   1.331   6.893
  793SOL     OW 3121   1.058   1.105   6.295
  793SOL    HW1 3122   0.986   1.053   6.332
  793SOL    HW2 3123   1.123   1.040   6.269
  794SOL     OW 3124   1.015   0.250   6.557
  794SOL    HW1 3125   1.005   0.199   6.476
  794SOL    HW2 3126   1.012   0.185   6.627
  795SOL     OW 3127   0.608   1.489   6.069
  795SOL    HW1 3128   0.655   1.439   6.002
  795SOL    HW2 3129   0.530   1.522   6.023
  796SOL     OW 3130   1.721   0.394   6.957
  796SOL    HW1 3131   1.793   0.457   6.962
  796SOL    HW2 3132   1.754   0.323   6.903
  797SOL     OW 3133   0.255   1.341   5.881
  797SOL    HW1 3134   0.161   1.345   5.862
  797SOL    HW2 3135   0.264   1.381   5.967
  798SOL     OW 3136   0.109   0.999   7.305
  798SOL    HW1 3137   0.050   0.992   7.380
  798SOL    HW2 3138   0.196   0.981   7.341
  799SOL     OW 3139   0.694   0.257   7.089
  799SOL    HW1 3140   0.762   0.203   7.048
  799SOL    HW2 3141   0.723   0.266   7.180
  800SOL     OW 3142   0.088   0.318   5.611
  800SOL    HW1 3143   3.993   0.317   5.604
  800SOL    HW2 3144   0.115   0.401   5.571
  801SOL     OW 3145   1.426   0.855   6.982
  801SOL    HW1 3146   1.377   0.919   6.930
  801SOL    HW2 3147   1.516   0.861   6.951
  802SOL     OW 3148   0.035   0.173   5.870
  802SOL    HW1 3149   0.037   0.226   5.791
  802SOL    HW2 3150   0.110   0.203   5.921
  803SOL     OW 3151   1.177   1.336   5.703
  803SOL    HW1 3152   1.087   1.305   5.704
  803SOL    HW2 3153   1.204   1.335   5.795
  804SOL     OW 3154   0.622   0.828   7.023
  804SOL    HW1 3155   0.679   0.904   7.007
  804SOL    HW2 3156   0.682   0.754   7.031
  805SOL     OW 3157   0.717   0.561   7.292
  805SOL    HW1 3158   0.762   0.623   7.349
  805SOL    HW2 3159   0.742   0.475   7.326
  806SOL     OW 3160   1.471   1.190   7.206
  806SOL    HW1 3161   1.458   1.204   7.300
  806SOL    HW2 3162   1.566   1.198   7.194
  807SOL     OW 3163   0.378   1.745   7.143
  807SOL    HW1 3164   0.291   1.783   7.130
  807SOL    HW2 3165   0.362   1.662   7.187
  808SOL     OW 3166   1.664   0.882   6.839
  808SOL    HW1 3167   1.661   0.798   6.794
  808SOL    HW2 3168   1.654   0.947   6.770
  809SOL     OW 3169   1.222   0.338   6.027
  809SOL    HW1 3170   1.291   0.271   6.020
  809SOL    HW2 3171   1.240   0.382   6.110
  810SOL     OW 3172   0.589   0.737   6.258
  810SOL    HW1 3173   0.627   0.823   6.242
  810SOL    HW2 3174   0.523   0.727   6.190
  811SOL     OW 3175   1.750   0.382   7.229
  811SOL    HW1 3176   1.733   0.389   7.135
  811SOL    HW2 3177   1.690   0.314   7.259
  812SOL     OW 3178   1.742   0.933   7.099
  812SOL    HW1 3179   1.739   1.027   7.119
  812SOL    HW2 3180   1.727   0.928   7.005
  813SOL     OW 3181   0.864   1.366   5.627
  813SOL    HW1 3182   0.825   1.396   5.709
  813SOL    HW2 3183   0.880   1.446   5.577
  814SOL     OW 3184   0.663   1.787   6.524
  814SOL    HW1 3185   0.642   1.878   6.505
  814SOL    HW2 3186   0.759   1.783   6.518
  815SOL     OW 3187   0.869   0.968   6.440
  815SOL    HW1 3188   0.919   0.896   6.478
  815SOL    HW2 3189   0.830   1.013   6.515
  816SOL     OW 3190   1.077   0.989   5.675
  816SOL    HW1 3191   1.056   1.040   5.597
  816SOL    HW2 3192   1.151   0.935   5.649
  817SOL     OW 3193   0.227   1.305   7.443
  817SOL    HW1 3194   0.154   1.250   7.417
  817SOL    HW2 3195   0.216   1.317   7.537
  818SOL     OW 3196   0.127   1.284   6.310
  818SOL    HW1 3197   0.141   1.231   6.388
  818SOL    HW2 3198   0.106   1.220   6.241
  819SOL     OW 3199   0.677   1.407   7.212
  819SOL    HW1 3200   0.600   1.363   7.248
  819SOL    HW2 3201   0.679   1.492   7.256
  820SOL     OW 3202   1.811   0.183   6.823
  820SOL    HW1 3203   1.814   0.089   6.839
  820SOL    HW2 3204   1.827   0.192   6.729
  821SOL     OW 3205   0.446   0.438   6.117
  821SOL    HW1 3206   0.467   0.362   6.063
  821SOL    HW2 3207   0.390   0.404   6.187
  822SOL     OW 3208   0.334   0.559   6.880
  822SOL    HW1 3209   0.390   0.503   6.933
  822SOL    HW2 3210   0.350   0.530   6.790
  823SOL     OW 3211   0.833   1.579   6.261
  823SOL    HW1 3212   0.813   1.644   6.194
  823SOL    HW2 3213   0.757   1.520   6.261
  824SOL     OW 3214   1.460   0.255   6.696
  824SOL    HW1 3215   1.479   0.170   6.734
  824SOL    HW2 3216   1.405   0.299   6.762
  825SOL     OW 3217   1.002   0.027   6.732
  825SOL    HW1 3218   0.920   3.997   6.692
  825SOL    HW2 3219   1.054   3.947   6.740
  826SOL     OW 3220   0.773   1.333   5.908
  826SOL    HW1 3221   0.742   1.242   5.912
  826SOL    HW2 3222   0.857   1.333   5.953
  827SOL     OW 3223   0.621   1.557   6.871
  827SOL    HW1 3224   0.622   1.639   6.921
  827SOL    HW2 3225   0.710   1.550   6.835
  828SOL     OW 3226   1.308   0.073   5.753
  828SOL    HW1 3227   1.319   3.990   5.707
  828SOL    HW2 3228   1.224   0.066   5.797
  829SOL     OW 3229   1.280   0.457   6.270
  829SOL    HW1 3230   1.233   0.540   6.264
  829SOL    HW2 3231   1.283   0.437   6.364
  830SOL     OW 3232   1.587   0.210   6.454
  830SOL    HW1 3233   1.538   0.235   6.532
  830SOL    HW2 3234   1.588   0.288   6.400
  831SOL     OW 3235   0.047   1.047   5.829
  831SOL    HW1 3236   0.141   1.031   5.821
  831SOL    HW2 3237   0.011   0.961   5.851
  832SOL     OW 3238   0.888   1.658   5.925
  832SOL    HW1 3239   0.814   1.641   5.867
  832SOL    HW2 3240   0.858   1.729   5.981
  833SOL     OW 3241   0.232   0.630   7.564
  833SOL    HW1 3242   0.139   0.633   7.585
  833SOL    HW2 3243   0.235   0.599   7.473
  834SOL     OW 3244   0.223   0.290   8.430
  834SOL    HW1 3245   0.246   0.250   8.514
  834SOL    HW2 3246   0.128   0.281   8.424
  835SOL     OW 3247   0.019   0.384   8.085
  835SOL    HW1 3248   3.928   0.399   8.109
  835SOL    HW2 3249   0.025   0.290   8.071
  836SOL     OW 3250   0.583   1.292   8.644
  836SOL    HW1 3251   0.497   1.293   8.602
  836SOL    HW2 3252   0.596   1.382   8.675
  837SOL     OW 3253   1.553   1.509   8.180
  837SOL    HW1 3254   1.534   1.479   8.268
  837SOL    HW2 3255   1.468   1.514   8.137
  838SOL     OW 3256   1.133   0.699   8.143
  838SOL    HW1 3257   1.181   0.781   8.131
  838SOL    HW2 3258   1.086   0.711   8.225
  839SOL     OW 3259   1.777   0.613   7.668
  839SOL    HW1 3260   1.750   0.610   7.576
  839SOL    HW2 3261   1.754   0.527   7.703
  840SOL     OW 3262   0.751   1.138   8.493
  840SOL    HW1 3263   0.689   1.175   8.556
  840SOL    HW2 3264   0.787   1.213   8.447
  841SOL     OW 3265   0.874   0.767   9.273
  841SOL    HW1 3266   0.863   0.838   9.336
  841SOL    HW2 3267   0.895   0.811   9.190
  842SOL     OW 3268   0.684   1.000   8.093
  842SOL    HW1 3269   0.751   0.990   8.161
  842SOL    HW2 3270   0.616   1.053   8.134
  843SOL     OW 3271   0.713   1.148   9.267
  843SOL    HW1 3272   0.761   1.226   9.296
  843SOL    HW2 3273   0.632   1.183   9.228
  844SOL     OW 3274   0.352   1.400   8.527
  844SOL    HW1 3275   0.271   1.377   8.480
  844SOL    HW2 3276   0.399   1.458   8.467
  845SOL     OW 3277   1.448   1.486   8.809
  845SOL    HW1 3278   1.494   1.570   8.816
  845SOL    HW2 3279   1.380   1.491   8.876
  846SOL     OW 3280   0.458   0.409   8.942
  846SOL    HW1 3281   0.541   0.360   8.942
  846SOL    HW2 3282   0.391   0.341   8.945
  847SOL     OW 3283   1.612   0.451   8.183
  847SOL    HW1 3284   1.544   0.483   8.123
  847SOL    HW2 3285   1.626   0.524   8.243
  848SOL     OW 3286   0.219   1.720   7.904
  848SOL    HW1 3287   0.240   1.793   7.962
  848SOL    HW2 3288   0.295   1.711   7.847
  849SOL     OW 3289   1.137   1.342   9.143
  849SOL    HW1 3290   1.178   1.336   9.229
  849SOL    HW2 3291   1.085   1.262   9.134
  850SOL     OW 3292   0.250   1.451   7.987
  850SOL    HW1 3293   0.216   1.540   7.972
  850SOL    HW2 3294   0.182   1.407   8.038
  851SOL     OW 3295   0.247   1.065   8.331
  851SOL    HW1 3296   0.268   0.979   8.369
  851SOL    HW2 3297   0.194   1.109   8.398
  852SOL     OW 3298   0.609   1.794   8.874
  852SOL    HW1 3299   0.526   1.776   8.918
  852SOL    HW2 3300   0.632   1.882   8.900
  853SOL     OW 3301   0.574   0.987   7.588
  853SOL    HW1 3302   0.624   1.030   7.518
  853SOL    HW2 3303   0.615   1.017   7.669
  854SOL     OW 3304   1.583   0.141   8.903
  854SOL    HW1 3305   1.614   0.214   8.849
  854SOL    HW2 3306   1.547   0.184   8.981
  855SOL     OW 3307   0.141   0.653   8.017
  855SOL    HW1 3308   0.099   0.567   8.022
  855SOL    HW2 3309   0.103   0.702   8.089
  856SOL     OW 3310   0.044   1.589   7.585
  856SOL    HW1 3311   0.039   1.497   7.612
  856SOL    HW2 3312   3.958   1.625   7.608
  857SOL     OW 3313   1.686   0.913   8.094
  857SOL    HW1 3314   1.768   0.872   8.067
  857SOL    HW2 3315   1.662   0.969   8.020
  858SOL     OW 3316   1.641   1.095   7.889
  858SOL    HW1 3317   1.721   1.102   7.836
  858SOL    HW2 3318   1.650   1.164   7.955
  859SOL     OW 3319   0.144   0.756   9.037
  859SOL    HW1 3320   0.239   0.752   9.030
  859SOL    HW2 3321   0.126   0.843   9.073
  860SOL     OW 3322   0.611   1.387   8.187
  860SOL    HW1 3323   0.566   1.303   8.194
  860SOL    HW2 3324   0.598   1.413   8.096
  861SOL     OW 3325   1.282   1.233   8.872
  861SOL    HW1 3326   1.314   1.167   8.811
  861SOL    HW2 3327   1.344   1.229   8.946
  862SOL     OW 3328   0.822   0.005   7.965
  862SOL    HW1 3329   0.867   0.085   7.940
  862SOL    HW2 3330   0.729   0.028   7.964
  863SOL     OW 3331   0.183   0.948   8.727
  863SOL    HW1 3332   0.272   0.913   8.716
  863SOL    HW2 3333   0.132   0.908   8.657
  864SOL     OW 3334   1.533   0.996   7.648
  864SOL    HW1 3335   1.463   0.941   7.681
  864SOL    HW2 3336   1.571   1.037   7.725
  865SOL     OW 3337   1.187   1.812   9.073
  865SOL    HW1 3338   1.191   1.872   8.999
  865SOL    HW2 3339   1.202   1.725   9.035
  866SOL     OW 3340   0.347   0.248   9.296
  866SOL    HW1 3341   0.389   0.331   9.276
  866SOL    HW2 3342   0.255   0.271   9.312
  867SOL     OW 3343   1.476   1.413   8.416
  867SOL    HW1 3344   1.403   1.431   8.475
  867SOL    HW2 3345   1.459   1.324   8.384
  868SOL     OW 3346   1.589   1.677   7.973
  868SOL    HW1 3347   1.678   1.670   7.940
  868SOL    HW2 3348   1.591   1.634   8.059
  869SOL     OW 3349   0.596   0.716   7.715
  869SOL    HW1 3350   0.602   0.800   7.671
  869SOL    HW2 3351   0.533   0.730   7.786
  870SOL     OW 3352   1.274   0.372   8.389
  870SOL    HW1 3353   1.187   0.333   8.397
  870SOL    HW2 3354   1.332   0.310   8.435
  871SOL     OW 3355   0.794   0.615   8.900
  871SOL    HW1 3356   0.765   0.589   8.988
  871SOL    HW2 3357   0.758   0.549   8.842
  872SOL     OW 3358   1.392   0.475   9.125
  872SOL    HW1 3359   1.399   0.521   9.209
  872SOL    HW2 3360   1.449   0.399   9.135
  873SOL     OW 3361   0.950   0.886   9.034
  873SOL    HW1 3362   1.006   0.818   8.996
  873SOL    HW2 3363   0.902   0.922   8.959
  874SOL     OW 3364   0.993   0.402   8.684
  874SOL    HW1 3365   0.907   0.421   8.720
  874SOL    HW2 3366   0.976   0.375   8.594
  875SOL     OW 3367   1.053   0.699   7.873
  875SOL    HW1 3368   1.071   0.693   7.966
  875SOL    HW2 3369   0.970   0.653   7.861
  876SOL     OW 3370   0.081   0.830   8.238
  876SOL    HW1 3371   0.152   0.795   8.292
  876SOL    HW2 3372   0.106   0.921   8.222
  877SOL     OW 3373   0.130   1.866   9.028
  877SOL    HW1 3374   0.138   1.830   9.116
  877SOL    HW2 3375   0.038   1.856   9.006
  878SOL     OW 3376   0.895   0.353   7.647
  878SOL    HW1 3377   0.937   0.414   7.586
  878SOL    HW2 3378   0.893   0.270   7.599
  879SOL     OW 3379   1.706   0.575   9.278
  879SOL    HW1 3380   1.669   0.648   9.229
  879SOL    HW2 3381   1.730   0.511   9.211
  880SOL     OW 3382   1.377   1.140   7.987
  880SOL    HW1 3383   1.458   1.127   7.937
  880SOL    HW2 3384   1.326   1.201   7.934
  881SOL     OW 3385   0.562   0.195   8.328
  881SOL    HW1 3386   0.567   0.220   8.420
  881SOL    HW2 3387   0.547   0.277   8.281
  882SOL     OW 3388   1.008   1.441   7.922
  882SOL    HW1 3389   0.966   1.512   7.873
  882SOL    HW2 3390   0.987   1.459   8.013
  883SOL     OW 3391   0.365   1.824   8.321
  883SOL    HW1 3392   0.426   1.752   8.330
  883SOL    HW2 3393   0.418   1.903   8.335
  884SOL     OW 3394   1.803   1.048   8.321
  884SOL    HW1 3395   1.750   1.036   8.242
  884SOL    HW2 3396   1.740   1.056   8.392
  885SOL     OW 3397   1.223   1.538   8.963
  885SOL    HW1 3398   1.210   1.466   9.025
  885SOL    HW2 3399   1.157   1.524   8.895
  886SOL     OW 3400   0.311   0.952   7.689
  886SOL    HW1 3401   0.394   0.974   7.648
  886SOL    HW2 3402   0.299   0.859   7.671
  887SOL     OW 3403   1.480   0.749   8.176
  887SOL    HW1 3404   1.477   0.709   8.263
  887SOL    HW2 3405   1.558   0.804   8.177
  888SOL     OW 3406   0.470   1.262   9.186
  888SOL    HW1 3407   0.444   1.269   9.094
  888SOL    HW2 3408   0.387   1.264   9.234
  889SOL     OW 3409   0.202   0.292   8.948
  889SOL    HW1 3410   0.108   0.312   8.949
  889SOL    HW2 3411   0.210   0.217   9.006
  890SOL     OW 3412   0.464   1.740   7.762
  890SOL    HW1 3413   0.509   1.794   7.827
  890SOL    HW2 3414   0.534   1.701   7.710
  891SOL     OW 3415   1.443   0.171   7.855
  891SOL    HW1 3416   1.394   0.103   7.808
  891SOL    HW2 3417   1.512   0.123   7.901
  892SOL     OW 3418   0.253   1.790   8.678
  892SOL    HW1 3419   0.298   1.723   8.730
  892SOL    HW2 3420   0.252   1.756   8.589
  893SOL     OW 3421   0.938   1.700   8.343
  893SOL    HW1 3422   1.014   1.647   8.367
  893SOL    HW2 3423   0.897   1.652   8.271
  894SOL     OW 3424   0.398   0.695   7.918
  894SOL    HW1 3425   0.423   0.604   7.934
  894SOL    HW2 3426   0.306   0.699   7.944
  895SOL     OW 3427   1.529   0.227   9.175
  895SOL    HW1 3428   1.522   0.252   9.267
  895SOL    HW2 3429   1.515   0.133   9.174
  896SOL     OW 3430   0.646   0.127   7.552
  896SOL    HW1 3431   0.667   0.042   7.590
  896SOL    HW2 3432   0.585   0.107   7.480
  897SOL     OW 3433   0.775   0.285   9.218
  897SOL    HW1 3434   0.853   0.229   9.219
  897SOL    HW2 3435   0.721   0.251   9.289
  898SOL     OW 3436   0.875   1.522   8.642
  898SOL    HW1 3437   0.859   1.484   8.556
  898SOL    HW2 3438   0.945   1.468   8.679
  899SOL     OW 3439   1.338   0.588   8.879
  899SOL    HW1 3440   1.369   0.559   8.965
  899SOL    HW2 3441   1.374   0.676   8.869
  900SOL     OW 3442   0.818   1.390   8.391
  900SOL    HW1 3443   0.903   1.379   8.349
  900SOL    HW2 3444   0.755   1.396   8.319
  901SOL     OW 3445   0.930   0.512   8.347
  901SOL    HW1 3446   0.905   0.504   8.255
  901SOL    HW2 3447   0.955   0.424   8.373
  902SOL     OW 3448   0.547   0.055   7.935
  902SOL    HW1 3449   0.473   0.063   7.996
  902SOL    HW2 3450   0.548   0.139   7.888
  903SOL     OW 3451   1.421   1.187   7.470
  903SOL    HW1 3452   1.461   1.128   7.534
  903SOL    HW2 3453   1.347   1.226   7.517
  904SOL     OW 3454   0.352   0.032   7.648
  904SOL    HW1 3455   0.357   0.088   7.570
  904SOL    HW2 3456   0.439   0.039   7.687
  905SOL     OW 3457   0.944   0.251   7.907
  905SOL    HW1 3458   0.918   0.290   7.824
  905SOL    HW2 3459   1.040   0.257   7.907
  906SOL     OW 3460   1.079   0.685   8.906
  906SOL    HW1 3461   1.011   0.618   8.912
  906SOL    HW2 3462   1.161   0.635   8.900
  907SOL     OW 3463   1.233   1.557   8.244
  907SOL    HW1 3464   1.235   1.631   8.183
  907SOL    HW2 3465   1.290   1.584   8.316
  908SOL     OW 3466   0.466   1.150   8.182
  908SOL    HW1 3467   0.395   1.125   8.241
  908SOL    HW2 3468   0.430   1.135   8.094
  909SOL     OW 3469   1.259   1.777   8.090
  909SOL    HW1 3470   1.293   1.784   8.001
  909SOL    HW2 3471   1.207   1.857   8.102
  910SOL     OW 3472   1.021   0.540   7.479
  910SOL    HW1 3473   0.978   0.624   7.458
  910SOL    HW2 3474   1.086   0.563   7.545
  911SOL     OW 3475   0.082   0.575   8.841
  911SOL    HW1 3476   0.171   0.556   8.811
  911SOL    HW2 3477   0.092   0.646   8.904
  912SOL     OW 3478   0.572   0.231   8.607
  912SOL    HW1 3479   0.593   0.138   8.615
  912SOL    HW2 3480   0.481   0.237   8.637
  913SOL     OW 3481   0.870   0.461   8.086
  913SOL    HW1 3482   0.822   0.514   8.023
  913SOL    HW2 3483   0.891   0.381   8.037
  914SOL     OW 3484   0.997   0.038   8.230
  914SOL    HW1 3485   0.959   0.069   8.148
  914SOL    HW2 3486   1.009   3.944   8.217
  915SOL     OW 3487   1.441   1.162   8.306
  915SOL    HW1 3488   1.368   1.100   8.300
  915SOL    HW2 3489   1.472   1.173   8.216
  916SOL     OW 3490   1.464   0.609   8.420
  916SOL    HW1 3491   1.409   0.531   8.425
  916SOL    HW2 3492   1.523   0.601   8.495
  917SOL     OW 3493   1.836   0.802   7.848
  917SOL    HW1 3494   1.897   0.751   7.900
  917SOL    HW2 3495   1.814   0.744   7.775
  918SOL     OW 3496   0.486   1.424   7.607
  918SOL    HW1 3497   0.411   1.392   7.656
  918SOL    HW2 3498   0.479   1.384   7.521
  919SOL     OW 3499   1.672   1.263   8.099
  919SOL    HW1 3500   1.768   1.262   8.105
  919SOL    HW2 3501   1.648   1.352   8.123
  920SOL     OW 3502   1.395   0.576   7.516
  920SOL    HW1 3503   1.333   0.557   7.586
  920SOL    HW2 3504   1.481   0.564   7.556
  921SOL     OW 3505   0.556   0.270   7.765
  921SOL    HW1 3506   0.606   0.231   7.694
  921SOL    HW2 3507   0.528   0.355   7.731
  922SOL     OW 3508   1.748   1.236   9.015
  922SOL    HW1 3509   1.836   1.197   9.010
  922SOL    HW2 3510   1.763   1.326   9.045
  923SOL     OW 3511   1.054   1.354   8.782
  923SOL    HW1 3512   0.979   1.322   8.832
  923SOL    HW2 3513   1.129   1.311   8.823
  924SOL     OW 3514   1.603   1.623   9.104
  924SOL    HW1 3515   1.586   1.651   9.015
  924SOL    HW2 3516   1.686   1.575   9.099
  925SOL     OW 3517   1.135   1.211   8.551
  925SOL    HW1 3518   1.071   1.245   8.614
  925SOL    HW2 3519   1.104   1.243   8.466
  926SOL     OW 3520   1.624   1.094   8.523
  926SOL    HW1 3521   1.618   1.158   8.594
  926SOL    HW2 3522   1.549   1.114   8.467
  927SOL     OW 3523   0.912   0.118   8.849
  927SOL    HW1 3524   0.932   0.089   8.760
  927SOL    HW2 3525   0.993   0.159   8.879
  928SOL     OW 3526   0.984   1.115   9.172
  928SOL    HW1 3527   0.893   1.132   9.195
  928SOL    HW2 3528   0.981   1.037   9.117
  929SOL     OW 3529   0.707   1.060   7.819
  929SOL    HW1 3530   0.694   1.043   7.912
  929SOL    HW2 3531   0.783   1.008   7.795
  930SOL     OW 3532   0.423   0.818   8.702
  930SOL    HW1 3533   0.492   0.824   8.768
  930SOL    HW2 3534   0.389   0.729   8.711
  931SOL     OW 3535   1.265   0.374   8.726
  931SOL    HW1 3536   1.299   0.453   8.770
  931SOL    HW2 3537   1.178   0.399   8.696
  932SOL     OW 3538   0.065   1.579   8.793
  932SOL    HW1 3539   0.072   1.627   8.710
  932SOL    HW2 3540   0.156   1.569   8.822
  933SOL     OW 3541   0.364   1.102   7.930
  933SOL    HW1 3542   0.366   1.183   7.877
  933SOL    HW2 3543   0.366   1.032   7.865
  934SOL     OW 3544   0.554   0.532   8.305
  934SOL    HW1 3545   0.566   0.591   8.231
  934SOL    HW2 3546   0.620   0.558   8.369
  935SOL     OW 3547   1.248   1.342   7.836
  935SOL    HW1 3548   1.304   1.420   7.841
  935SOL    HW2 3549   1.164   1.371   7.871
  936SOL     OW 3550   1.280   1.462   8.596
  936SOL    HW1 3551   1.336   1.462   8.674
  936SOL    HW2 3552   1.227   1.383   8.605
  937SOL     OW 3553   1.574   0.636   7.935
  937SOL    HW1 3554   1.528   0.687   8.002
  937SOL    HW2 3555   1.623   0.700   7.884
  938SOL     OW 3556   0.346   1.527   8.766
  938SOL    HW1 3557   0.336   1.477   8.685
  938SOL    HW2 3558   0.440   1.542   8.773
  939SOL     OW 3559   0.419   0.736   9.049
  939SOL    HW1 3560   0.483   0.781   8.993
  939SOL    HW2 3561   0.456   0.649   9.061
  940SOL     OW 3562   1.606   0.782   9.134
  940SOL    HW1 3563   1.520   0.823   9.127
  940SOL    HW2 3564   1.658   0.822   9.065
  941SOL     OW 3565   1.008   0.139   9.228
  941SOL    HW1 3566   1.065   0.208   9.195
  941SOL    HW2 3567   0.998   0.079   9.154
  942SOL     OW 3568   0.485   0.037   9.211
  942SOL    HW1 3569   0.490   0.049   9.117
  942SOL    HW2 3570   0.423   0.102   9.241
  943SOL     OW 3571   0.585   0.876   8.480
  943SOL    HW1 3572   0.619   0.965   8.483
  943SOL    HW2 3573   0.529   0.868   8.557
  944SOL     OW 3574   1.350   0.858   8.473
  944SOL    HW1 3575   1.266   0.845   8.429
  944SOL    HW2 3576   1.395   0.774   8.464
  945SOL     OW 3577   1.199   0.537   7.704
  945SOL    HW1 3578   1.207   0.458   7.758
  945SOL    HW2 3579   1.157   0.601   7.761
  946SOL     OW 3580   0.310   0.211   8.687
  946SOL    HW1 3581   0.267   0.248   8.764
  946SOL    HW2 3582   0.296   0.117   8.694
  947SOL     OW 3583   0.061   1.306   8.729
  947SOL    HW1 3584   0.091   1.263   8.809
  947SOL    HW2 3585   0.053   1.398   8.753
  948SOL     OW 3586   0.723   0.633   8.499
  948SOL    HW1 3587   0.799   0.620   8.442
  948SOL    HW2 3588   0.693   0.722   8.479
  949SOL     OW 3589   1.739   0.959   9.305
  949SOL    HW1 3590   1.694   0.894   9.251
  949SOL    HW2 3591   1.678   0.976   9.378
  950SOL     OW 3592   0.333   0.054   8.106
  950SOL    HW1 3593   0.304   0.145   8.107
  950SOL    HW2 3594   0.298   0.017   8.187
  951SOL     OW 3595   1.609   0.394   7.826
  951SOL    HW1 3596   1.563   0.328   7.877
  951SOL    HW2 3597   1.590   0.477   7.872
  952SOL     OW 3598   1.030   0.759   8.406
  952SOL    HW1 3599   1.022   0.776   8.500
  952SOL    HW2 3600   1.003   0.668   8.395
  953SOL     OW 3601   0.981   1.567   9.169
  953SOL    HW1 3602   0.966   1.610   9.085
  953SOL    HW2 3603   1.024   1.484   9.145
  954SOL     OW 3604   1.846   1.493   9.059
  954SOL    HW1 3605   1.878   1.515   8.972
  954SOL    HW2 3606   1.918   1.515   9.118
  955SOL     OW 3607   0.355   0.922   9.245
  955SOL    HW1 3608   0.432   0.942   9.298
  955SOL    HW2 3609   0.384   0.854   9.185
  956SOL     OW 3610   1.503   0.271   7.581
  956SOL    HW1 3611   1.429   0.211   7.594
  956SOL    HW2 3612   1.515   0.313   7.667
  957SOL     OW 3613   1.286   0.826   7.477
  957SOL    HW1 3614   1.330   0.741   7.480
  957SOL    HW2 3615   1.319   0.868   7.397
  958SOL     OW 3616   1.068   1.339   8.304
  958SOL    HW1 3617   1.072   1.266   8.242
  958SOL    HW2 3618   1.130   1.403   8.270
  959SOL     OW 3619   0.313   0.802   8.398
  959SOL    HW1 3620   0.407   0.818   8.392
  959SOL    HW2 3621   0.306   0.712   8.430
  960SOL     OW 3622   0.339   0.529   8.464
  960SOL    HW1 3623   0.297   0.445   8.446
  960SOL    HW2 3624   0.414   0.532   8.405
  961SOL     OW 3625   1.134   0.379   9.148
  961SOL    HW1 3626   1.085   0.434   9.209
  961SOL    HW2 3627   1.220   0.420   9.142
  962SOL     OW 3628   1.151   0.225   8.930
  962SOL    HW1 3629   1.142   0.279   9.009
  962SOL    HW2 3630   1.178   0.287   8.862
  963SOL     OW 3631   0.001   1.316   7.631
  963SOL    HW1 3632   3.906   1.332   7.634
  963SOL    HW2 3633   0.009   1.222   7.648
  964SOL     OW 3634   0.079   1.800   8.336
  964SOL    HW1 3635   0.088   1.704   8.336
  964SOL    HW2 3636   0.169   1.832   8.340
  965SOL     OW 3637   0.497   1.572   8.358
  965SOL    HW1 3638   0.567   1.632   8.384
  965SOL    HW2 3639   0.540   1.509   8.300
  966SOL     OW 3640   0.975   0.788   8.671
  966SOL    HW1 3641   1.032   0.769   8.745
  966SOL    HW2 3642   0.891   0.748   8.695
  967SOL     OW 3643   0.034   0.578   8.560
  967SOL    HW1 3644   0.093   0.523   8.509
  967SOL    HW2 3645   0.061   0.564   8.651
  968SOL     OW 3646   0.211   0.515   9.170
  968SOL    HW1 3647   0.256   0.474   9.096
  968SOL    HW2 3648   0.167   0.591   9.132
  969SOL     OW 3649   1.380   0.935   9.104
  969SOL    HW1 3650   1.401   1.028   9.100
  969SOL    HW2 3651   1.376   0.907   9.012
  970SOL     OW 3652   0.818   0.571   7.814
  970SOL    HW1 3653   0.826   0.496   7.755
  970SOL    HW2 3654   0.744   0.621   7.780
  971SOL     OW 3655   1.639   0.602   8.630
  971SOL    HW1 3656   1.630   0.541   8.703
  971SOL    HW2 3657   1.727   0.585   8.595
  972SOL     OW 3658   0.301   1.543   9.170
  972SOL    HW1 3659   0.254   1.613   9.217
  972SOL    HW2 3660   0.272   1.462   9.212
  973SOL     OW 3661   0.714   0.452   8.701
  973SOL    HW1 3662   0.663   0.375   8.677
  973SOL    HW2 3663   0.703   0.512   8.628
  974SOL     OW 3664   0.923   1.679   8.919
  974SOL    HW1 3665   0.899   1.640   8.835
  974SOL    HW2 3666   0.917   1.774   8.904
  975SOL     OW 3667   0.451   0.492   7.647
  975SOL    HW1 3668   0.516   0.561   7.664
  975SOL    HW2 3669   0.372   0.539   7.622
  976SOL     OW 3670   0.155   1.134   8.923
  976SOL    HW1 3671   0.155   1.084   9.005
  976SOL    HW2 3672   0.170   1.069   8.855
  977SOL     OW 3673   1.320   1.044   8.669
  977SOL    HW1 3674   1.343   0.981   8.601
  977SOL    HW2 3675   1.255   1.101   8.629
  978SOL     OW 3676   1.316   0.855   7.752
  978SOL    HW1 3677   1.239   0.828   7.802
  978SOL    HW2 3678   1.290   0.845   7.660
  979SOL     OW 3679   1.244   1.735   8.554
  979SOL    HW1 3680   1.328   1.757   8.514
  979SOL    HW2 3681   1.250   1.642   8.575
  980SOL     OW 3682   0.078   1.216   8.476
  980SOL    HW1 3683   0.084   1.242   8.568
  980SOL    HW2 3684   3.986   1.228   8.454
  981SOL     OW 3685   0.680   1.669   9.186
  981SOL    HW1 3686   0.620   1.743   9.175
  981SOL    HW2 3687   0.748   1.684   9.120
  982SOL     OW 3688   1.716   0.123   7.938
  982SOL    HW1 3689   1.793   0.134   7.883
  982SOL    HW2 3690   1.706   0.028   7.947
  983SOL     OW 3691   0.177   1.761   9.279
  983SOL    HW1 3692   0.120   1.709   9.337
  983SOL    HW2 3693   0.216   1.827   9.337
  984SOL     OW 3694   1.277   0.928   8.120
  984SOL    HW1 3695   1.352   0.869   8.131
  984SOL    HW2 3696   1.311   1.000   8.066
  985SOL     OW 3697   0.806   1.274   8.874
  985SOL    HW1 3698   0.777   1.316   8.955
  985SOL    HW2 3699   0.735   1.290   8.812
  986SOL     OW 3700   0.666   1.629   7.604
  986SOL    HW1 3701   0.679   1.639   7.510
  986SOL    HW2 3702   0.613   1.549   7.612
  987SOL     OW 3703   1.576   1.720   8.841
  987SOL    HW1 3704   1.638   1.715   8.768
  987SOL    HW2 3705   1.561   1.814   8.852
  988SOL     OW 3706   1.840   0.178   8.413
  988SOL    HW1 3707   1.872   0.115   8.348
  988SOL    HW2 3708   1.750   0.198   8.384
  989SOL     OW 3709   0.276   0.321   8.162
  989SOL    HW1 3710   0.191   0.356   8.135
  989SOL    HW2 3711   0.267   0.307   8.256
  990SOL     OW 3712   1.095   1.588   7.510
  990SOL    HW1 3713   1.145   1.506   7.509
  990SOL    HW2 3714   1.060   1.595   7.421
  991SOL     OW 3715   0.823   1.005   8.822
  991SOL    HW1 3716   0.867   0.999   8.737
  991SOL    HW2 3717   0.821   1.099   8.841
  992SOL     OW 3718   0.915   0.910   7.741
  992SOL    HW1 3719   0.973   0.941   7.672
  992SOL    HW2 3720   0.965   0.842   7.786
  993SOL     OW 3721   0.374   1.302   8.940
  993SOL    HW1 3722   0.359   1.382   8.890
  993SOL    HW2 3723   0.297   1.248   8.922
  994SOL     OW 3724   1.606   1.279   8.726
  994SOL    HW1 3725   1.668   1.267   8.798
  994SOL    HW2 3726   1.545   1.345   8.758
  995SOL     OW 3727   1.059   1.110   8.159
  995SOL    HW1 3728   0.987   1.058   8.195
  995SOL    HW2 3729   1.123   1.045   8.130
  996SOL     OW 3730   1.015   0.250   8.419
  996SOL    HW1 3731   1.005   0.200   8.338
  996SOL    HW2 3732   1.012   0.185   8.489
  997SOL     OW 3733   0.601   1.480   7.932
  997SOL    HW1 3734   0.656   1.437   7.866
  997SOL    HW2 3735   0.531   1.521   7.883
  998SOL     OW 3736   1.721   0.394   8.819
  998SOL    HW1 3737   1.794   0.456   8.824
  998SOL    HW2 3738   1.754   0.323   8.765
  999SOL     OW 3739   0.254   1.341   7.741
  999SOL    HW1 3740   0.160   1.346   7.723
  999SOL    HW2 3741   0.265   1.380   7.827
 1000SOL     OW 3742   0.109   0.999   9.166
 1000SOL    HW1 3743   0.050   0.992   9.241
 1000SOL    HW2 3744   0.196   0.981   9.203
 1001SOL     OW 3745   0.694   0.257   8.951
 1001SOL    HW1 3746   0.762   0.204   8.910
 1001SOL    HW2 3747   0.723   0.266   9.042
 1002SOL     OW 3748   0.088   0.317   7.472
 1002SOL    HW1 3749   3.993   0.317   7.465
 1002SOL    HW2 3750   0.115   0.400   7.433
 1003SOL     OW 3751   1.425   0.856   8.845
 1003SOL    HW1 3752   1.376   0.918   8.791
 1003SOL    HW2 3753   1.514   0.859   8.809
 1004SOL     OW 3754   0.035   0.172   7.732
 1004SOL    HW1 3755   0.037   0.226   7.652
 1004SOL    HW2 3756   0.110   0.203   7.783
 1005SOL     OW 3757   1.189   1.321   7.565
 1005SOL    HW1 3758   1.098   1.294   7.563
 1005SOL    HW2 3759   1.212   1.323   7.658
 1006SOL     OW 3760   0.622   0.828   8.885
 1006SOL    HW1 3761   0.679   0.904   8.869
 1006SOL    HW2 3762   0.682   0.754   8.893
 1007SOL     OW 3763   1.492   1.785   8.433
 1007SOL    HW1 3764   1.509   1.858   8.373
 1007SOL    HW2 3765   1.575   1.738   8.437
 1008SOL     OW 3766   0.718   0.560   9.154
 1008SOL    HW1 3767   0.763   0.622   9.212
 1008SOL    HW2 3768   0.742   0.474   9.187
 1009SOL     OW 3769   1.473   1.195   9.078
 1009SOL    HW1 3770   1.461   1.210   9.172
 1009SOL    HW2 3771   1.566   1.212   9.062
 1010SOL     OW 3772   0.377   1.744   9.004
 1010SOL    HW1 3773   0.290   1.782   8.992
 1010SOL    HW2 3774   0.361   1.661   9.049
 1011SOL     OW 3775   1.665   0.880   8.703
 1011SOL    HW1 3776   1.661   0.795   8.660
 1011SOL    HW2 3777   1.655   0.944   8.633
 1012SOL     OW 3778   1.221   0.337   7.889
 1012SOL    HW1 3779   1.290   0.271   7.883
 1012SOL    HW2 3780   1.239   0.382   7.972
 1013SOL     OW 3781   0.588   0.737   8.121
 1013SOL    HW1 3782   0.627   0.823   8.105
 1013SOL    HW2 3783   0.522   0.727   8.052
 1014SOL     OW 3784   1.749   0.384   9.091
 1014SOL    HW1 3785   1.732   0.390   8.997
 1014SOL    HW2 3786   1.692   0.314   9.121
 1015SOL     OW 3787   1.748   0.933   8.959
 1015SOL    HW1 3788   1.736   1.028   8.972
 1015SOL    HW2 3789   1.730   0.920   8.866
 1016SOL     OW 3790   0.853   1.365   7.486
 1016SOL    HW1 3791   0.828   1.393   7.574
 1016SOL    HW2 3792   0.877   1.446   7.441
 1017SOL     OW 3793   0.664   1.786   8.390
 1017SOL    HW1 3794   0.645   1.877   8.367
 1017SOL    HW2 3795   0.759   1.778   8.379
 1018SOL     OW 3796   0.869   0.968   8.301
 1018SOL    HW1 3797   0.919   0.897   8.339
 1018SOL    HW2 3798   0.831   1.014   8.377
 1019SOL     OW 3799   1.071   0.983   7.534
 1019SOL    HW1 3800   1.055   1.040   7.459
 1019SOL    HW2 3801   1.149   0.933   7.510
 1020SOL     OW 3802   1.854   1.524   8.277
 1020SOL    HW1 3803   1.766   1.556   8.256
 1020SOL    HW2 3804   1.851   1.507   8.371
 1021SOL     OW 3805   0.228   1.304   9.305
 1021SOL    HW1 3806   0.154   1.250   9.277
 1021SOL    HW2 3807   0.214   1.317   9.398
 1022SOL     OW 3808   0.123   1.282   8.172
 1022SOL    HW1 3809   0.142   1.229   8.250
 1022SOL    HW2 3810   0.104   1.219   8.103
 1023SOL     OW 3811   0.683   1.407   9.079
 1023SOL    HW1 3812   0.603   1.364   9.110
 1023SOL    HW2 3813   0.679   1.495   9.116
 1024SOL     OW 3814   1.811   0.183   8.685
 1024SOL    HW1 3815   1.814   0.089   8.701
 1024SOL    HW2 3816   1.826   0.192   8.591
 1025SOL     OW 3817   0.446   0.438   7.979
 1025SOL    HW1 3818   0.468   0.362   7.926
 1025SOL    HW2 3819   0.390   0.403   8.049
 1026SOL     OW 3820   1.702   1.503   8.552
 1026SOL    HW1 3821   1.623   1.478   8.504
 1026SOL    HW2 3822   1.718   1.429   8.612
 1027SOL     OW 3823   0.334   0.559   8.742
 1027SOL    HW1 3824   0.390   0.502   8.795
 1027SOL    HW2 3825   0.349   0.530   8.652
 1028SOL     OW 3826   0.829   1.579   8.122
 1028SOL    HW1 3827   0.825   1.629   8.040
 1028SOL    HW2 3828   0.753   1.522   8.120
 1029SOL     OW 3829   1.460   0.255   8.558
 1029SOL    HW1 3830   1.478   0.168   8.595
 1029SOL    HW2 3831   1.405   0.298   8.624
 1030SOL     OW 3832   1.002   0.026   8.594
 1030SOL    HW1 3833   0.920   3.998   8.554
 1030SOL    HW2 3834   1.054   3.946   8.602
 1031SOL     OW 3835   0.773   1.331   7.768
 1031SOL    HW1 3836   0.746   1.240   7.776
 1031SOL    HW2 3837   0.856   1.336   7.816
 1032SOL     OW 3838   0.621   1.557   8.735
 1032SOL    HW1 3839   0.622   1.639   8.784
 1032SOL    HW2 3840   0.708   1.550   8.697
 1033SOL     OW 3841   1.309   0.072   7.617
 1033SOL    HW1 3842   1.316   3.990   7.569
 1033SOL    HW2 3843   1.224   0.067   7.661
 1034SOL     OW 3844   1.279   0.456   8.132
 1034SOL    HW1 3845   1.234   0.540   8.126
 1034SOL    HW2 3846   1.282   0.437   8.226
 1035SOL     OW 3847   1.587   0.210   8.316
 1035SOL    HW1 3848   1.538   0.235   8.395
 1035SOL    HW2 3849   1.588   0.289   8.262
 1036SOL     OW 3850   0.048   1.048   7.689
 1036SOL    HW1 3851   0.142   1.032   7.681
 1036SOL    HW2 3852   0.012   0.963   7.717
 1037SOL     OW 3853   0.858   1.640   7.818
 1037SOL    HW1 3854   0.803   1.637   7.740
 1037SOL    HW2 3855   0.850   1.730   7.850
 1038SOL     OW 3856   0.232   0.630   9.426
 1038SOL    HW1 3857   0.139   0.634   9.447
 1038SOL    HW2 3858   0.235   0.599   9.335
 1039SOL     OW 3859   0.223   0.290  10.292
 1039SOL    HW1 3860   0.246   0.250  10.376
 1039SOL    HW2 3861   0.128   0.281  10.286
 1040SOL     OW 3862   0.019   0.384   9.946
 1040SOL    HW1 3863   3.928   0.400   9.971
 1040SOL    HW2 3864   0.025   0.290   9.933
 1041SOL     OW 3865   0.583   1.292  10.506
 1041SOL    HW1 3866   0.497   1.293  10.464
 1041SOL    HW2 3867   0.596   1.382  10.537
 1042SOL     OW 3868   1.541   1.497  10.018
 1042SOL    HW1 3869   1.516   1.475  10.108
 1042SOL    HW2 3870   1.461   1.487   9.967
 1043SOL     OW 3871   1.133   0.699  10.005
 1043SOL    HW1 3872   1.181   0.781   9.993
 1043SOL    HW2 3873   1.086   0.710  10.087
 1044SOL     OW 3874   1.772   0.619   9.533
 1044SOL    HW1 3875   1.748   0.612   9.440
 1044SOL    HW2 3876   1.753   0.533   9.569
 1045SOL     OW 3877   0.750   1.137  10.354
 1045SOL    HW1 3878   0.689   1.174  10.418
 1045SOL    HW2 3879   0.787   1.213  10.309
 1046SOL     OW 3880   0.874   0.767  11.135
 1046SOL    HW1 3881   0.864   0.838  11.198
 1046SOL    HW2 3882   0.895   0.811  11.052
 1047SOL     OW 3883   0.685   1.001   9.955
 1047SOL    HW1 3884   0.751   0.990  10.023
 1047SOL    HW2 3885   0.616   1.053   9.996
 1048SOL     OW 3886   0.712   1.148  11.128
 1048SOL    HW1 3887   0.760   1.226  11.158
 1048SOL    HW2 3888   0.632   1.183  11.090
 1049SOL     OW 3889   0.352   1.400  10.389
 1049SOL    HW1 3890   0.271   1.377  10.343
 1049SOL    HW2 3891   0.398   1.458  10.328
 1050SOL     OW 3892   1.449   1.487  10.671
 1050SOL    HW1 3893   1.493   1.571  10.676
 1050SOL    HW2 3894   1.380   1.492  10.738
 1051SOL     OW 3895   0.459   0.409  10.803
 1051SOL    HW1 3896   0.541   0.360  10.804
 1051SOL    HW2 3897   0.391   0.341  10.807
 1052SOL     OW 3898   1.612   0.451  10.045
 1052SOL    HW1 3899   1.544   0.483   9.985
 1052SOL    HW2 3900   1.626   0.524  10.106
 1053SOL     OW 3901   0.219   1.720   9.766
 1053SOL    HW1 3902   0.240   1.793   9.824
 1053SOL    HW2 3903   0.296   1.712   9.709
 1054SOL     OW 3904   1.137   1.342  11.005
 1054SOL    HW1 3905   1.178   1.336  11.091
 1054SOL    HW2 3906   1.085   1.262  10.996
 1055SOL     OW 3907   0.252   1.452   9.849
 1055SOL    HW1 3908   0.216   1.539   9.835
 1055SOL    HW2 3909   0.185   1.407   9.901
 1056SOL     OW 3910   0.248   1.065  10.194
 1056SOL    HW1 3911   0.268   0.979  10.232
 1056SOL    HW2 3912   0.195   1.109  10.260
 1057SOL     OW 3913   0.609   1.794  10.735
 1057SOL    HW1 3914   0.526   1.776  10.780
 1057SOL    HW2 3915   0.632   1.882  10.762
 1058SOL     OW 3916   0.574   0.987   9.450
 1058SOL    HW1 3917   0.624   1.030   9.381
 1058SOL    HW2 3918   0.616   1.017   9.531
 1059SOL     OW 3919   1.583   0.142  10.765
 1059SOL    HW1 3920   1.614   0.214  10.711
 1059SOL    HW2 3921   1.547   0.184  10.843
 1060SOL     OW 3922   0.142   0.653   9.879
 1060SOL    HW1 3923   0.099   0.567   9.884
 1060SOL    HW2 3924   0.103   0.703   9.951
 1061SOL     OW 3925   0.044   1.588   9.447
 1061SOL    HW1 3926   0.039   1.497   9.475
 1061SOL    HW2 3927   3.958   1.625   9.470
 1062SOL     OW 3928   1.685   0.914   9.951
 1062SOL    HW1 3929   1.771   0.877   9.934
 1062SOL    HW2 3930   1.667   0.969   9.875
 1063SOL     OW 3931   1.650   1.105   9.740
 1063SOL    HW1 3932   1.737   1.106   9.699
 1063SOL    HW2 3933   1.657   1.166   9.813
 1064SOL     OW 3934   0.144   0.756  10.899
 1064SOL    HW1 3935   0.239   0.752  10.892
 1064SOL    HW2 3936   0.126   0.843  10.935
 1065SOL     OW 3937   0.613   1.388  10.047
 1065SOL    HW1 3938   0.567   1.304  10.055
 1065SOL    HW2 3939   0.598   1.414   9.956
 1066SOL     OW 3940   1.282   1.233  10.734
 1066SOL    HW1 3941   1.314   1.167  10.673
 1066SOL    HW2 3942   1.343   1.229  10.808
 1067SOL     OW 3943   0.822   0.005   9.827
 1067SOL    HW1 3944   0.867   0.085   9.802
 1067SOL    HW2 3945   0.729   0.028   9.826
 1068SOL     OW 3946   0.183   0.949  10.590
 1068SOL    HW1 3947   0.272   0.913  10.578
 1068SOL    HW2 3948   0.132   0.908  10.520
 1069SOL     OW 3949   1.532   0.998   9.511
 1069SOL    HW1 3950   1.462   0.941   9.544
 1069SOL    HW2 3951   1.575   1.032   9.589
 1070SOL     OW 3952   1.185   1.811  10.935
 1070SOL    HW1 3953   1.192   1.872  10.861
 1070SOL    HW2 3954   1.202   1.725  10.897
 1071SOL     OW 3955   0.347   0.248  11.158
 1071SOL    HW1 3956   0.389   0.331  11.138
 1071SOL    HW2 3957   0.255   0.271  11.174
 1072SOL     OW 3958   1.469   1.419  10.268
 1072SOL    HW1 3959   1.400   1.435  10.332
 1072SOL    HW2 3960   1.458   1.328  10.242
 1073SOL     OW 3961   1.574   1.719   9.865
 1073SOL    HW1 3962   1.579   1.676   9.780
 1073SOL    HW2 3963   1.575   1.646   9.928
 1074SOL     OW 3964   0.596   0.716   9.578
 1074SOL    HW1 3965   0.601   0.800   9.533
 1074SOL    HW2 3966   0.533   0.729   9.649
 1075SOL     OW 3967   1.274   0.371  10.251
 1075SOL    HW1 3968   1.187   0.333  10.259
 1075SOL    HW2 3969   1.332   0.310  10.297
 1076SOL     OW 3970   1.561   1.648   9.604
 1076SOL    HW1 3971   1.641   1.697   9.586
 1076SOL    HW2 3972   1.525   1.628   9.517
 1077SOL     OW 3973   0.794   0.615  10.762
 1077SOL    HW1 3974   0.765   0.589  10.850
 1077SOL    HW2 3975   0.758   0.549  10.704
 1078SOL     OW 3976   1.392   0.475  10.987
 1078SOL    HW1 3977   1.399   0.521  11.071
 1078SOL    HW2 3978   1.449   0.399  10.997
 1079SOL     OW 3979   0.950   0.886  10.896
 1079SOL    HW1 3980   1.006   0.818  10.858
 1079SOL    HW2 3981   0.902   0.922  10.821
 1080SOL     OW 3982   0.993   0.402  10.546
 1080SOL    HW1 3983   0.907   0.421  10.582
 1080SOL    HW2 3984   0.976   0.375  10.456
 1081SOL     OW 3985   1.053   0.700   9.735
 1081SOL    HW1 3986   1.071   0.693   9.828
 1081SOL    HW2 3987   0.970   0.654   9.722
 1082SOL     OW 3988   0.082   0.831  10.100
 1082SOL    HW1 3989   0.152   0.796  10.154
 1082SOL    HW2 3990   0.106   0.922  10.085
 1083SOL     OW 3991   0.130   1.866  10.890
 1083SOL    HW1 3992   0.138   1.830  10.978
 1083SOL    HW2 3993   0.038   1.856  10.868
 1084SOL     OW 3994   0.895   0.353   9.509
 1084SOL    HW1 3995   0.937   0.413   9.448
 1084SOL    HW2 3996   0.891   0.269   9.461
 1085SOL     OW 3997   1.706   0.575  11.140
 1085SOL    HW1 3998   1.669   0.648  11.090
 1085SOL    HW2 3999   1.730   0.511  11.073
 1086SOL     OW 4000   1.380   1.141   9.849
 1086SOL    HW1 4001   1.460   1.132   9.798
 1086SOL    HW2 4002   1.325   1.200   9.797
 1087SOL     OW 4003   0.562   0.195  10.190
 1087SOL    HW1 4004   0.567   0.220  10.282
 1087SOL    HW2 4005   0.547   0.277  10.143
 1088SOL     OW 4006   0.995   1.439   9.777
 1088SOL    HW1 4007   0.967   1.517   9.728
 1088SOL    HW2 4008   0.980   1.462   9.869
 1089SOL     OW 4009   0.364   1.824  10.183
 1089SOL    HW1 4010   0.426   1.752  10.193
 1089SOL    HW2 4011   0.417   1.903  10.198
 1090SOL     OW 4012   1.801   1.045  10.184
 1090SOL    HW1 4013   1.748   1.041  10.105
 1090SOL    HW2 4014   1.738   1.055  10.255
 1091SOL     OW 4015   1.224   1.538  10.825
 1091SOL    HW1 4016   1.210   1.466  10.887
 1091SOL    HW2 4017   1.157   1.524  10.757
 1092SOL     OW 4018   0.310   0.952   9.552
 1092SOL    HW1 4019   0.394   0.974   9.510
 1092SOL    HW2 4020   0.298   0.859   9.534
 1093SOL     OW 4021   1.479   0.749  10.038
 1093SOL    HW1 4022   1.477   0.710  10.125
 1093SOL    HW2 4023   1.557   0.805  10.039
 1094SOL     OW 4024   0.470   1.262  11.048
 1094SOL    HW1 4025   0.444   1.269  10.956
 1094SOL    HW2 4026   0.387   1.264  11.096
 1095SOL     OW 4027   1.123   1.778   9.539
 1095SOL    HW1 4028   1.048   1.738   9.584
 1095SOL    HW2 4029   1.146   1.714   9.471
 1096SOL     OW 4030   0.202   0.293  10.811
 1096SOL    HW1 4031   0.108   0.312  10.811
 1096SOL    HW2 4032   0.210   0.217  10.869
 1097SOL     OW 4033   1.627   1.382   9.398
 1097SOL    HW1 4034   1.584   1.465   9.377
 1097SOL    HW2 4035   1.560   1.315   9.380
 1098SOL     OW 4036   0.466   1.739   9.625
 1098SOL    HW1 4037   0.510   1.795   9.689
 1098SOL    HW2 4038   0.537   1.702   9.573
 1099SOL     OW 4039   1.443   0.170   9.716
 1099SOL    HW1 4040   1.393   0.103   9.671
 1099SOL    HW2 4041   1.511   0.122   9.764
 1100SOL     OW 4042   0.253   1.790  10.540
 1100SOL    HW1 4043   0.298   1.723  10.592
 1100SOL    HW2 4044   0.252   1.755  10.451
 1101SOL     OW 4045   0.939   1.700  10.207
 1101SOL    HW1 4046   1.018   1.650  10.228
 1101SOL    HW2 4047   0.897   1.649  10.137
 1102SOL     OW 4048   0.399   0.695   9.780
 1102SOL    HW1 4049   0.423   0.604   9.796
 1102SOL    HW2 4050   0.306   0.699   9.806
 1103SOL     OW 4051   1.529   0.227  11.037
 1103SOL    HW1 4052   1.522   0.252  11.129
 1103SOL    HW2 4053   1.515   0.133  11.036
 1104SOL     OW 4054   0.646   0.127   9.414
 1104SOL    HW1 4055   0.667   0.042   9.452
 1104SOL    HW2 4056   0.585   0.107   9.342
 1105SOL     OW 4057   0.775   0.285  11.080
 1105SOL    HW1 4058   0.853   0.229  11.081
 1105SOL    HW2 4059   0.721   0.251  11.151
 1106SOL     OW 4060   0.875   1.522  10.504
 1106SOL    HW1 4061   0.859   1.485  10.418
 1106SOL    HW2 4062   0.945   1.468  10.541
 1107SOL     OW 4063   1.338   0.588  10.741
 1107SOL    HW1 4064   1.369   0.559  10.827
 1107SOL    HW2 4065   1.374   0.676  10.731
 1108SOL     OW 4066   0.817   1.390  10.254
 1108SOL    HW1 4067   0.903   1.379  10.212
 1108SOL    HW2 4068   0.755   1.395  10.181
 1109SOL     OW 4069   0.930   0.512  10.209
 1109SOL    HW1 4070   0.906   0.504  10.117
 1109SOL    HW2 4071   0.955   0.424  10.235
 1110SOL     OW 4072   0.547   0.055   9.797
 1110SOL    HW1 4073   0.473   0.063   9.858
 1110SOL    HW2 4074   0.548   0.139   9.750
 1111SOL     OW 4075   1.428   1.199   9.350
 1111SOL    HW1 4076   1.457   1.124   9.401
 1111SOL    HW2 4077   1.342   1.221   9.387
 1112SOL     OW 4078   0.352   0.033   9.510
 1112SOL    HW1 4079   0.357   0.087   9.431
 1112SOL    HW2 4080   0.439   0.039   9.549
 1113SOL     OW 4081   0.944   0.251   9.769
 1113SOL    HW1 4082   0.918   0.290   9.685
 1113SOL    HW2 4083   1.040   0.256   9.769
 1114SOL     OW 4084   1.079   0.685  10.767
 1114SOL    HW1 4085   1.011   0.619  10.774
 1114SOL    HW2 4086   1.161   0.635  10.762
 1115SOL     OW 4087   1.222   1.570  10.104
 1115SOL    HW1 4088   1.233   1.637  10.036
 1115SOL    HW2 4089   1.290   1.590  10.168
 1116SOL     OW 4090   0.466   1.151  10.043
 1116SOL    HW1 4091   0.396   1.126  10.103
 1116SOL    HW2 4092   0.431   1.136   9.956
 1117SOL     OW 4093   1.257   1.789   9.924
 1117SOL    HW1 4094   1.309   1.849   9.871
 1117SOL    HW2 4095   1.191   1.845   9.966
 1118SOL     OW 4096   1.021   0.540   9.341
 1118SOL    HW1 4097   0.978   0.623   9.321
 1118SOL    HW2 4098   1.085   0.562   9.408
 1119SOL     OW 4099   0.082   0.575  10.703
 1119SOL    HW1 4100   0.171   0.557  10.673
 1119SOL    HW2 4101   0.092   0.646  10.766
 1120SOL     OW 4102   0.572   0.231  10.469
 1120SOL    HW1 4103   0.593   0.138  10.477
 1120SOL    HW2 4104   0.481   0.237  10.499
 1121SOL     OW 4105   0.871   0.461   9.948
 1121SOL    HW1 4106   0.821   0.514   9.886
 1121SOL    HW2 4107   0.891   0.381   9.899
 1122SOL     OW 4108   0.997   0.038  10.092
 1122SOL    HW1 4109   0.958   0.069  10.010
 1122SOL    HW2 4110   1.009   3.944  10.079
 1123SOL     OW 4111   1.440   1.163  10.169
 1123SOL    HW1 4112   1.369   1.099  10.165
 1123SOL    HW2 4113   1.470   1.172  10.078
 1124SOL     OW 4114   1.464   0.609  10.282
 1124SOL    HW1 4115   1.408   0.531  10.287
 1124SOL    HW2 4116   1.523   0.601  10.357
 1125SOL     OW 4117   1.843   0.817   9.699
 1125SOL    HW1 4118   1.900   0.766   9.755
 1125SOL    HW2 4119   1.816   0.756   9.630
 1126SOL     OW 4120   0.487   1.423   9.468
 1126SOL    HW1 4121   0.411   1.392   9.518
 1126SOL    HW2 4122   0.476   1.385   9.381
 1127SOL     OW 4123   1.674   1.258   9.959
 1127SOL    HW1 4124   1.769   1.257   9.971
 1127SOL    HW2 4125   1.648   1.347   9.981
 1128SOL     OW 4126   1.395   0.577   9.378
 1128SOL    HW1 4127   1.332   0.557   9.448
 1128SOL    HW2 4128   1.481   0.559   9.418
 1129SOL     OW 4129   0.556   0.270   9.627
 1129SOL    HW1 4130   0.606   0.231   9.556
 1129SOL    HW2 4131   0.528   0.355   9.592
 1130SOL     OW 4132   1.748   1.236  10.878
 1130SOL    HW1 4133   1.836   1.198  10.871
 1130SOL    HW2 4134   1.763   1.326  10.907
 1131SOL     OW 4135   1.054   1.353  10.644
 1131SOL    HW1 4136   0.979   1.322  10.693
 1131SOL    HW2 4137   1.129   1.311  10.685
 1132SOL     OW 4138   1.603   1.624  10.965
 1132SOL    HW1 4139   1.585   1.652  10.875
 1132SOL    HW2 4140   1.686   1.577  10.960
 1133SOL     OW 4141   1.134   1.210  10.413
 1133SOL    HW1 4142   1.072   1.245  10.477
 1133SOL    HW2 4143   1.103   1.243  10.329
 1134SOL     OW 4144   1.623   1.094  10.385
 1134SOL    HW1 4145   1.618   1.158  10.456
 1134SOL    HW2 4146   1.548   1.114  10.329
 1135SOL     OW 4147   0.912   0.118  10.711
 1135SOL    HW1 4148   0.932   0.089  10.622
 1135SOL    HW2 4149   0.993   0.159  10.741
 1136SOL     OW 4150   0.984   1.116  11.033
 1136SOL    HW1 4151   0.893   1.132  11.057
 1136SOL    HW2 4152   0.981   1.037  10.979
 1137SOL     OW 4153   0.708   1.062   9.681
 1137SOL    HW1 4154   0.694   1.044   9.774
 1137SOL    HW2 4155   0.784   1.009   9.657
 1138SOL     OW 4156   0.423   0.818  10.563
 1138SOL    HW1 4157   0.492   0.824  10.630
 1138SOL    HW2 4158   0.389   0.729  10.573
 1139SOL     OW 4159   1.265   0.374  10.588
 1139SOL    HW1 4160   1.299   0.453  10.632
 1139SOL    HW2 4161   1.178   0.399  10.558
 1140SOL     OW 4162   0.065   1.579  10.655
 1140SOL    HW1 4163   0.071   1.626  10.572
 1140SOL    HW2 4164   0.156   1.569  10.684
 1141SOL     OW 4165   0.367   1.103   9.791
 1141SOL    HW1 4166   0.363   1.183   9.737
 1141SOL    HW2 4167   0.367   1.032   9.727
 1142SOL     OW 4168   0.554   0.532  10.167
 1142SOL    HW1 4169   0.567   0.591  10.093
 1142SOL    HW2 4170   0.620   0.558  10.231
 1143SOL     OW 4171   1.236   1.335   9.697
 1143SOL    HW1 4172   1.289   1.409   9.725
 1143SOL    HW2 4173   1.148   1.354   9.730
 1144SOL     OW 4174   1.281   1.461  10.458
 1144SOL    HW1 4175   1.337   1.462  10.536
 1144SOL    HW2 4176   1.227   1.383  10.468
 1145SOL     OW 4177   1.573   0.635   9.798
 1145SOL    HW1 4178   1.529   0.688   9.865
 1145SOL    HW2 4179   1.621   0.699   9.745
 1146SOL     OW 4180   0.345   1.528  10.628
 1146SOL    HW1 4181   0.336   1.477  10.547
 1146SOL    HW2 4182   0.440   1.542  10.635
 1147SOL     OW 4183   0.419   0.736  10.911
 1147SOL    HW1 4184   0.483   0.781  10.855
 1147SOL    HW2 4185   0.456   0.649  10.923
 1148SOL     OW 4186   1.606   0.781  10.996
 1148SOL    HW1 4187   1.520   0.823  10.989
 1148SOL    HW2 4188   1.658   0.822  10.927
 1149SOL     OW 4189   1.007   0.139  11.090
 1149SOL    HW1 4190   1.065   0.208  11.057
 1149SOL    HW2 4191   0.998   0.079  11.016
 1150SOL     OW 4192   0.485   0.037  11.073
 1150SOL    HW1 4193   0.490   0.049  10.979
 1150SOL    HW2 4194   0.423   0.103  11.103
 1151SOL     OW 4195   0.585   0.876  10.342
 1151SOL    HW1 4196   0.619   0.965  10.345
 1151SOL    HW2 4197   0.529   0.868  10.419
 1152SOL     OW 4198   1.349   0.858  10.334
 1152SOL    HW1 4199   1.264   0.844  10.292
 1152SOL    HW2 4200   1.395   0.774  10.325
 1153SOL     OW 4201   1.199   0.538   9.566
 1153SOL    HW1 4202   1.207   0.459   9.619
 1153SOL    HW2 4203   1.156   0.601   9.624
 1154SOL     OW 4204   0.310   0.211  10.549
 1154SOL    HW1 4205   0.267   0.248  10.626
 1154SOL    HW2 4206   0.296   0.117  10.556
 1155SOL     OW 4207   0.063   1.306  10.590
 1155SOL    HW1 4208   0.092   1.263  10.671
 1155SOL    HW2 4209   0.053   1.398  10.615
 1156SOL     OW 4210   0.723   0.633  10.361
 1156SOL    HW1 4211   0.799   0.620  10.304
 1156SOL    HW2 4212   0.693   0.722  10.341
 1157SOL     OW 4213   1.739   0.959  11.166
 1157SOL    HW1 4214   1.693   0.894  11.113
 1157SOL    HW2 4215   1.680   0.976  11.239
 1158SOL     OW 4216   0.333   0.054   9.968
 1158SOL    HW1 4217   0.304   0.145   9.969
 1158SOL    HW2 4218   0.298   0.017  10.049
 1159SOL     OW 4219   1.609   0.394   9.688
 1159SOL    HW1 4220   1.564   0.327   9.739
 1159SOL    HW2 4221   1.589   0.476   9.735
 1160SOL     OW 4222   1.030   0.759  10.268
 1160SOL    HW1 4223   1.022   0.776  10.362
 1160SOL    HW2 4224   1.003   0.668  10.257
 1161SOL     OW 4225   0.981   1.566  11.031
 1161SOL    HW1 4226   0.966   1.610  10.947
 1161SOL    HW2 4227   1.025   1.484  11.008
 1162SOL     OW 4228   1.847   1.495  10.917
 1162SOL    HW1 4229   1.878   1.515  10.829
 1162SOL    HW2 4230   1.922   1.516  10.973
 1163SOL     OW 4231   0.355   0.922  11.107
 1163SOL    HW1 4232   0.432   0.942  11.160
 1163SOL    HW2 4233   0.384   0.854  11.047
 1164SOL     OW 4234   1.502   0.273   9.443
 1164SOL    HW1 4235   1.430   0.212   9.456
 1164SOL    HW2 4236   1.515   0.312   9.530
 1165SOL     OW 4237   1.287   0.827   9.337
 1165SOL    HW1 4238   1.329   0.741   9.341
 1165SOL    HW2 4239   1.319   0.866   9.256
 1166SOL     OW 4240   1.068   1.338  10.166
 1166SOL    HW1 4241   1.072   1.266  10.104
 1166SOL    HW2 4242   1.127   1.405  10.131
 1167SOL     OW 4243   0.313   0.802  10.260
 1167SOL    HW1 4244   0.407   0.818  10.254
 1167SOL    HW2 4245   0.306   0.712  10.292
 1168SOL     OW 4246   0.339   0.529  10.326
 1168SOL    HW1 4247   0.297   0.445  10.308
 1168SOL    HW2 4248   0.414   0.531  10.267
 1169SOL     OW 4249   1.134   0.379  11.010
 1169SOL    HW1 4250   1.085   0.434  11.071
 1169SOL    HW2 4251   1.220   0.420  11.004
 1170SOL     OW 4252   1.151   0.225  10.792
 1170SOL    HW1 4253   1.142   0.279  10.871
 1170SOL    HW2 4254   1.178   0.287  10.724
 1171SOL     OW 4255   0.001   1.315   9.493
 1171SOL    HW1 4256   3.907   1.332   9.496
 1171SOL    HW2 4257   0.010   1.222   9.511
 1172SOL     OW 4258   0.079   1.799  10.198
 1172SOL    HW1 4259   0.087   1.704  10.198
 1172SOL    HW2 4260   0.169   1.831  10.202
 1173SOL     OW 4261   0.497   1.572  10.220
 1173SOL    HW1 4262   0.567   1.632  10.246
 1173SOL    HW2 4263   0.541   1.509  10.162
 1174SOL     OW 4264   0.975   0.787  10.533
 1174SOL    HW1 4265   1.032   0.769  10.607
 1174SOL    HW2 4266   0.891   0.748  10.557
 1175SOL     OW 4267   0.034   0.578  10.422
 1175SOL    HW1 4268   0.093   0.523  10.371
 1175SOL    HW2 4269   0.061   0.564  10.513
 1176SOL     OW 4270   0.211   0.515  11.032
 1176SOL    HW1 4271   0.256   0.474  10.958
 1176SOL    HW2 4272   0.167   0.591  10.994
 1177SOL     OW 4273   1.380   0.935  10.966
 1177SOL    HW1 4274   1.401   1.028  10.963
 1177SOL    HW2 4275   1.376   0.908  10.874
 1178SOL     OW 4276   0.819   0.572   9.674
 1178SOL    HW1 4277   0.826   0.496   9.616
 1178SOL    HW2 4278   0.744   0.621   9.641
 1179SOL     OW 4279   1.639   0.602  10.491
 1179SOL    HW1 4280   1.630   0.541  10.565
 1179SOL    HW2 4281   1.727   0.585  10.457
 1180SOL     OW 4282   0.301   1.543  11.032
 1180SOL    HW1 4283   0.254   1.613  11.079
 1180SOL    HW2 4284   0.272   1.462  11.074
 1181SOL     OW 4285   0.715   0.452  10.563
 1181SOL    HW1 4286   0.663   0.375  10.539
 1181SOL    HW2 4287   0.703   0.512  10.490
 1182SOL     OW 4288   0.923   1.679  10.781
 1182SOL    HW1 4289   0.899   1.640  10.697
 1182SOL    HW2 4290   0.917   1.773  10.766
 1183SOL     OW 4291   0.451   0.492   9.509
 1183SOL    HW1 4292   0.516   0.561   9.526
 1183SOL    HW2 4293   0.372   0.539   9.484
 1184SOL     OW 4294   0.154   1.134  10.785
 1184SOL    HW1 4295   0.155   1.084  10.867
 1184SOL    HW2 4296   0.170   1.069  10.717
 1185SOL     OW 4297   1.321   1.044  10.531
 1185SOL    HW1 4298   1.343   0.981  10.462
 1185SOL    HW2 4299   1.255   1.100  10.491
 1186SOL     OW 4300   1.316   0.856   9.613
 1186SOL    HW1 4301   1.241   0.827   9.666
 1186SOL    HW2 4302   1.288   0.844   9.523
 1187SOL     OW 4303   1.243   1.736  10.416
 1187SOL    HW1 4304   1.327   1.757  10.375
 1187SOL    HW2 4305   1.250   1.642  10.436
 1188SOL     OW 4306   0.079   1.217  10.337
 1188SOL    HW1 4307   0.085   1.242  10.429
 1188SOL    HW2 4308   3.986   1.228  10.315
 1189SOL     OW 4309   0.680   1.669  11.048
 1189SOL    HW1 4310   0.620   1.743  11.037
 1189SOL    HW2 4311   0.748   1.684  10.982
 1190SOL     OW 4312   1.716   0.123   9.800
 1190SOL    HW1 4313   1.793   0.134   9.745
 1190SOL    HW2 4314   1.706   0.028   9.808
 1191SOL     OW 4315   1.358   1.557   9.782
 1191SOL    HW1 4316   1.422   1.588   9.718
 1191SOL    HW2 4317   1.325   1.636   9.823
 1192SOL     OW 4318   0.177   1.761  11.141
 1192SOL    HW1 4319   0.120   1.709  11.199
 1192SOL    HW2 4320   0.216   1.827  11.199
 1193SOL     OW 4321   1.277   0.929   9.981
 1193SOL    HW1 4322   1.351   0.869   9.993
 1193SOL    HW2 4323   1.312   1.000   9.928
 1194SOL     OW 4324   0.806   1.274  10.736
 1194SOL    HW1 4325   0.778   1.316  10.817
 1194SOL    HW2 4326   0.735   1.290  10.674
 1195SOL     OW 4327   0.670   1.624   9.466
 1195SOL    HW1 4328   0.682   1.637   9.371
 1195SOL    HW2 4329   0.614   1.547   9.472
 1196SOL     OW 4330   1.574   1.723  10.697
 1196SOL    HW1 4331   1.639   1.720  10.627
 1196SOL    HW2 4332   1.559   1.816  10.712
 1197SOL     OW 4333   1.840   0.178  10.275
 1197SOL    HW1 4334   1.872   0.115  10.211
 1197SOL    HW2 4335   1.750   0.197  10.246
 1198SOL     OW 4336   0.276   0.322  10.024
 1198SOL    HW1 4337   0.191   0.356   9.997
 1198SOL    HW2 4338   0.267   0.307  10.118
 1199SOL     OW 4339   1.206   1.602   9.342
 1199SOL    HW1 4340   1.195   1.511   9.369
 1199SOL    HW2 4341   1.139   1.615   9.274
 1200SOL     OW 4342   0.823   1.005  10.684
 1200SOL    HW1 4343   0.867   0.999  10.599
 1200SOL    HW2 4344   0.821   1.099  10.704
 1201SOL     OW 4345   0.915   0.910   9.601
 1201SOL    HW1 4346   0.976   0.943   9.534
 1201SOL    HW2 4347   0.965   0.843   9.647
 1202SOL     OW 4348   1.483   1.623   9.347
 1202SOL    HW1 4349   1.389   1.617   9.330
 1202SOL    HW2 4350   1.522   1.630   9.260
 1203SOL     OW 4351   0.374   1.302  10.802
 1203SOL    HW1 4352   0.359   1.382  10.752
 1203SOL    HW2 4353   0.297   1.248  10.784
 1204SOL     OW 4354   1.606   1.280  10.587
 1204SOL    HW1 4355   1.669   1.268  10.658
 1204SOL    HW2 4356   1.544   1.345  10.620
 1205SOL     OW 4357   1.059   1.110  10.020
 1205SOL    HW1 4358   0.987   1.059  10.057
 1205SOL    HW2 4359   1.123   1.045   9.992
 1206SOL     OW 4360   1.015   0.250  10.281
 1206SOL    HW1 4361   1.005   0.200  10.200
 1206SOL    HW2 4362   1.012   0.185  10.351
 1207SOL     OW 4363   0.607   1.488   9.792
 1207SOL    HW1 4364   0.654   1.438   9.725
 1207SOL    HW2 4365   0.531   1.523   9.746
 1208SOL     OW 4366   1.721   0.394  10.681
 1208SOL    HW1 4367   1.794   0.456  10.686
 1208SOL    HW2 4368   1.754   0.323  10.627
 1209SOL     OW 4369   0.255   1.341   9.604
 1209SOL    HW1 4370   0.161   1.346   9.586
 1209SOL    HW2 4371   0.265   1.381   9.690
 1210SOL     OW 4372   0.109   0.999  11.028
 1210SOL    HW1 4373   0.049   0.992  11.103
 1210SOL    HW2 4374   0.196   0.981  11.065
 1211SOL     OW 4375   0.694   0.257  10.813
 1211SOL    HW1 4376   0.762   0.203  10.772
 1211SOL    HW2 4377   0.723   0.266  10.904
 1212SOL     OW 4378   0.088   0.318   9.334
 1212SOL    HW1 4379   3.993   0.317   9.327
 1212SOL    HW2 4380   0.115   0.401   9.295
 1213SOL     OW 4381   1.425   0.856  10.707
 1213SOL    HW1 4382   1.376   0.918  10.653
 1213SOL    HW2 4383   1.514   0.859  10.672
 1214SOL     OW 4384   0.035   0.173   9.594
 1214SOL    HW1 4385   0.037   0.226   9.515
 1214SOL    HW2 4386   0.110   0.203   9.645
 1215SOL     OW 4387   1.176   1.335   9.426
 1215SOL    HW1 4388   1.086   1.305   9.426
 1215SOL    HW2 4389   1.202   1.333   9.518
 1216SOL     OW 4390   0.622   0.828  10.747
 1216SOL    HW1 4391   0.679   0.904  10.731
 1216SOL    HW2 4392   0.682   0.754  10.755
 1217SOL     OW 4393   1.490   1.785  10.293
 1217SOL    HW1 4394   1.514   1.857  10.234
 1217SOL    HW2 4395   1.569   1.731  10.297
 1218SOL     OW 4396   0.718   0.561  11.016
 1218SOL    HW1 4397   0.763   0.622  11.074
 1218SOL    HW2 4398   0.742   0.474  11.049
 1219SOL     OW 4399   1.473   1.195  10.940
 1219SOL    HW1 4400   1.462   1.210  11.034
 1219SOL    HW2 4401   1.565   1.212  10.924
 1220SOL     OW 4402   0.377   1.744  10.866
 1220SOL    HW1 4403   0.290   1.782  10.854
 1220SOL    HW2 4404   0.361   1.661  10.911
 1221SOL     OW 4405   1.665   0.880  10.566
 1221SOL    HW1 4406   1.661   0.795  10.522
 1221SOL    HW2 4407   1.655   0.944  10.495
 1222SOL     OW 4408   1.222   0.338   9.751
 1222SOL    HW1 4409   1.290   0.271   9.744
 1222SOL    HW2 4410   1.240   0.382   9.834
 1223SOL     OW 4411   0.589   0.737   9.982
 1223SOL    HW1 4412   0.627   0.823   9.967
 1223SOL    HW2 4413   0.523   0.727   9.914
 1224SOL     OW 4414   1.749   0.384  10.953
 1224SOL    HW1 4415   1.732   0.390  10.859
 1224SOL    HW2 4416   1.692   0.313  10.983
 1225SOL     OW 4417   1.748   0.934  10.821
 1225SOL    HW1 4418   1.736   1.028  10.834
 1225SOL    HW2 4419   1.730   0.920  10.728
 1226SOL     OW 4420   0.864   1.365   9.351
 1226SOL    HW1 4421   0.826   1.393   9.434
 1226SOL    HW2 4422   0.879   1.447   9.303
 1227SOL     OW 4423   0.664   1.786  10.251
 1227SOL    HW1 4424   0.644   1.877  10.230
 1227SOL    HW2 4425   0.759   1.779  10.243
 1228SOL     OW 4426   0.869   0.969  10.163
 1228SOL    HW1 4427   0.920   0.897  10.200
 1228SOL    HW2 4428   0.831   1.014  10.238
 1229SOL     OW 4429   1.077   0.989   9.399
 1229SOL    HW1 4430   1.055   1.040   9.321
 1229SOL    HW2 4431   1.151   0.934   9.372
 1230SOL     OW 4432   1.857   1.513  10.137
 1230SOL    HW1 4433   1.791   1.578  10.115
 1230SOL    HW2 4434   1.848   1.500  10.232
 1231SOL     OW 4435   0.228   1.304  11.167
 1231SOL    HW1 4436   0.154   1.250  11.139
 1231SOL    HW2 4437   0.214   1.317  11.260
 1232SOL     OW 4438   0.126   1.284  10.034
 1232SOL    HW1 4439   0.140   1.231  10.112
 1232SOL    HW2 4440   0.106   1.220   9.965
 1233SOL     OW 4441   0.683   1.407  10.940
 1233SOL    HW1 4442   0.603   1.364  10.972
 1233SOL    HW2 4443   0.679   1.495  10.978
 1234SOL     OW 4444   1.810   0.183  10.547
 1234SOL    HW1 4445   1.813   0.089  10.563
 1234SOL    HW2 4446   1.826   0.192  10.453
 1235SOL     OW 4447   0.446   0.438   9.841
 1235SOL    HW1 4448   0.467   0.362   9.787
 1235SOL    HW2 4449   0.390   0.403   9.911
 1236SOL     OW 4450   1.700   1.504  10.409
 1236SOL    HW1 4451   1.623   1.478  10.360
 1236SOL    HW2 4452   1.715   1.431  10.470
 1237SOL     OW 4453   0.334   0.559  10.604
 1237SOL    HW1 4454   0.390   0.502  10.657
 1237SOL    HW2 4455   0.349   0.530  10.514
 1238SOL     OW 4456   0.830   1.580   9.986
 1238SOL    HW1 4457   0.813   1.644   9.916
 1238SOL    HW2 4458   0.755   1.521   9.982
 1239SOL     OW 4459   1.460   0.255  10.420
 1239SOL    HW1 4460   1.478   0.169  10.457
 1239SOL    HW2 4461   1.405   0.298  10.486
 1240SOL     OW 4462   1.002   0.026  10.456
 1240SOL    HW1 4463   0.920   3.997  10.416
 1240SOL    HW2 4464   1.054   3.947  10.464
 1241SOL     OW 4465   0.773   1.333   9.629
 1241SOL    HW1 4466   0.746   1.242   9.637
 1241SOL    HW2 4467   0.854   1.340   9.679
 1242SOL     OW 4468   0.621   1.557  10.597
 1242SOL    HW1 4469   0.622   1.639  10.645
 1242SOL    HW2 4470   0.709   1.550  10.560
 1243SOL     OW 4471   1.308   0.073   9.477
 1243SOL    HW1 4472   1.318   3.990   9.431
 1243SOL    HW2 4473   1.224   0.067   9.522
 1244SOL     OW 4474   1.279   0.456   9.994
 1244SOL    HW1 4475   1.234   0.540   9.988
 1244SOL    HW2 4476   1.282   0.437  10.088
 1245SOL     OW 4477   1.587   0.210  10.178
 1245SOL    HW1 4478   1.538   0.235  10.256
 1245SOL    HW2 4479   1.588   0.289  10.124
 1246SOL     OW 4480   0.048   1.047   9.553
 1246SOL    HW1 4481   0.142   1.031   9.544
 1246SOL    HW2 4482   0.011   0.962   9.577
 1247SOL     OW 4483   0.889   1.659   9.648
 1247SOL    HW1 4484   0.814   1.643   9.591
 1247SOL    HW2 4485   0.861   1.731   9.704
 1248SOL     OW 4486   0.232   0.630  11.288
 1248SOL    HW1 4487   0.139   0.634  11.309
 1248SOL    HW2 4488   0.235   0.599  11.197
 1249SOL     OW 4489   0.223   0.290  12.154
 1249SOL    HW1 4490   0.246   0.250  12.238
 1249SOL    HW2 4491   0.128   0.281  12.148
 1250SOL     OW 4492   0.019   0.384  11.808
 1250SOL    HW1 4493   3.928   0.399  11.833
 1250SOL    HW2 4494   0.025   0.290  11.795
 1251SOL     OW 4495   0.583   1.292  12.368
 1251SOL    HW1 4496   0.497   1.293  12.326
 1251SOL    HW2 4497   0.596   1.382  12.399
 1252SOL     OW 4498   1.540   1.496  11.878
 1252SOL    HW1 4499   1.516   1.475  11.968
 1252SOL    HW2 4500   1.459   1.485  11.828
 1253SOL     OW 4501   1.133   0.699  11.867
 1253SOL    HW1 4502   1.181   0.781  11.855
 1253SOL    HW2 4503   1.086   0.710  11.949
 1254SOL     OW 4504   1.773   0.618  11.394
 1254SOL    HW1 4505   1.748   0.612  11.302
 1254SOL    HW2 4506   1.753   0.532  11.431
 1255SOL     OW 4507   0.750   1.137  12.217
 1255SOL    HW1 4508   0.689   1.175  12.280
 1255SOL    HW2 4509   0.787   1.213  12.171
 1256SOL     OW 4510   0.874   0.767  12.996
 1256SOL    HW1 4511   0.863   0.839  13.058
 1256SOL    HW2 4512   0.895   0.810  12.913
 1257SOL     OW 4513   0.685   1.001  11.817
 1257SOL    HW1 4514   0.751   0.990  11.885
 1257SOL    HW2 4515   0.616   1.053  11.858
 1258SOL     OW 4516   0.713   1.149  12.990
 1258SOL    HW1 4517   0.761   1.226  13.020
 1258SOL    HW2 4518   0.632   1.184  12.951
 1259SOL     OW 4519   0.352   1.400  12.251
 1259SOL    HW1 4520   0.271   1.377  12.205
 1259SOL    HW2 4521   0.398   1.458  12.190
 1260SOL     OW 4522   1.449   1.487  12.533
 1260SOL    HW1 4523   1.493   1.572  12.537
 1260SOL    HW2 4524   1.381   1.493  12.600
 1261SOL     OW 4525   0.458   0.409  12.666
 1261SOL    HW1 4526   0.541   0.360  12.666
 1261SOL    HW2 4527   0.391   0.341  12.670
 1262SOL     OW 4528   1.612   0.451  11.907
 1262SOL    HW1 4529   1.544   0.483  11.847
 1262SOL    HW2 4530   1.626   0.524  11.968
 1263SOL     OW 4531   0.219   1.720  11.628
 1263SOL    HW1 4532   0.240   1.793  11.686
 1263SOL    HW2 4533   0.296   1.712  11.571
 1264SOL     OW 4534   1.137   1.342  12.866
 1264SOL    HW1 4535   1.177   1.336  12.952
 1264SOL    HW2 4536   1.085   1.262  12.858
 1265SOL     OW 4537   0.252   1.452  11.711
 1265SOL    HW1 4538   0.216   1.540  11.697
 1265SOL    HW2 4539   0.185   1.407  11.763
 1266SOL     OW 4540   0.248   1.065  12.056
 1266SOL    HW1 4541   0.268   0.979  12.094
 1266SOL    HW2 4542   0.195   1.109  12.122
 1267SOL     OW 4543   0.609   1.794  12.597
 1267SOL    HW1 4544   0.526   1.776  12.642
 1267SOL    HW2 4545   0.632   1.882  12.624
 1268SOL     OW 4546   0.574   0.987  11.312
 1268SOL    HW1 4547   0.624   1.030  11.243
 1268SOL    HW2 4548   0.616   1.017  11.393
 1269SOL     OW 4549   1.583   0.142  12.627
 1269SOL    HW1 4550   1.614   0.214  12.573
 1269SOL    HW2 4551   1.547   0.183  12.705
 1270SOL     OW 4552   0.142   0.653  11.741
 1270SOL    HW1 4553   0.099   0.567  11.746
 1270SOL    HW2 4554   0.103   0.703  11.813
 1271SOL     OW 4555   0.044   1.588  11.309
 1271SOL    HW1 4556   0.039   1.497  11.337
 1271SOL    HW2 4557   3.958   1.625  11.332
 1272SOL     OW 4558   1.685   0.913  11.813
 1272SOL    HW1 4559   1.771   0.877  11.796
 1272SOL    HW2 4560   1.667   0.969  11.736
 1273SOL     OW 4561   1.649   1.105  11.602
 1273SOL    HW1 4562   1.736   1.106  11.561
 1273SOL    HW2 4563   1.657   1.165  11.675
 1274SOL     OW 4564   0.144   0.756  12.761
 1274SOL    HW1 4565   0.239   0.752  12.754
 1274SOL    HW2 4566   0.126   0.842  12.797
 1275SOL     OW 4567   0.613   1.388  11.909
 1275SOL    HW1 4568   0.567   1.304  11.917
 1275SOL    HW2 4569   0.598   1.414  11.818
 1276SOL     OW 4570   1.282   1.232  12.596
 1276SOL    HW1 4571   1.314   1.167  12.535
 1276SOL    HW2 4572   1.343   1.229  12.670
 1277SOL     OW 4573   0.822   0.005  11.689
 1277SOL    HW1 4574   0.867   0.085  11.664
 1277SOL    HW2 4575   0.729   0.028  11.688
 1278SOL     OW 4576   0.183   0.949  12.452
 1278SOL    HW1 4577   0.272   0.913  12.440
 1278SOL    HW2 4578   0.132   0.908  12.382
 1279SOL     OW 4579   1.532   0.998  11.373
 1279SOL    HW1 4580   1.462   0.941  11.406
 1279SOL    HW2 4581   1.575   1.032  11.451
 1280SOL     OW 4582   1.185   1.811  12.797
 1280SOL    HW1 4583   1.192   1.872  12.723
 1280SOL    HW2 4584   1.202   1.725  12.759
 1281SOL     OW 4585   0.346   0.249  13.017
 1281SOL    HW1 4586   0.388   0.333  12.997
 1281SOL    HW2 4587   0.255   0.273  13.034
 1282SOL     OW 4588   1.469   1.419  12.130
 1282SOL    HW1 4589   1.400   1.435  12.194
 1282SOL    HW2 4590   1.457   1.328  12.104
 1283SOL     OW 4591   1.565   1.726  11.734
 1283SOL    HW1 4592   1.577   1.690  11.646
 1283SOL    HW2 4593   1.570   1.650  11.792
 1284SOL     OW 4594   0.596   0.716  11.440
 1284SOL    HW1 4595   0.601   0.801  11.395
 1284SOL    HW2 4596   0.533   0.729  11.511
 1285SOL     OW 4597   1.274   0.371  12.113
 1285SOL    HW1 4598   1.187   0.333  12.121
 1285SOL    HW2 4599   1.332   0.310  12.159
 1286SOL     OW 4600   1.570   1.649  11.471
 1286SOL    HW1 4601   1.663   1.637  11.455
 1286SOL    HW2 4602   1.530   1.643  11.384
 1287SOL     OW 4603   0.794   0.615  12.624
 1287SOL    HW1 4604   0.765   0.589  12.712
 1287SOL    HW2 4605   0.758   0.549  12.566
 1288SOL     OW 4606   1.392   0.476  12.850
 1288SOL    HW1 4607   1.399   0.521  12.934
 1288SOL    HW2 4608   1.448   0.399  12.859
 1289SOL     OW 4609   0.950   0.886  12.758
 1289SOL    HW1 4610   1.006   0.818  12.720
 1289SOL    HW2 4611   0.902   0.922  12.683
 1290SOL     OW 4612   0.993   0.402  12.408
 1290SOL    HW1 4613   0.907   0.421  12.444
 1290SOL    HW2 4614   0.976   0.375  12.318
 1291SOL     OW 4615   1.053   0.700  11.597
 1291SOL    HW1 4616   1.071   0.693  11.690
 1291SOL    HW2 4617   0.970   0.654  11.584
 1292SOL     OW 4618   0.082   0.831  11.962
 1292SOL    HW1 4619   0.152   0.796  12.016
 1292SOL    HW2 4620   0.106   0.922  11.946
 1293SOL     OW 4621   0.130   1.866  12.752
 1293SOL    HW1 4622   0.138   1.831  12.840
 1293SOL    HW2 4623   0.038   1.856  12.730
 1294SOL     OW 4624   0.895   0.353  11.371
 1294SOL    HW1 4625   0.937   0.413  11.310
 1294SOL    HW2 4626   0.892   0.269  11.323
 1295SOL     OW 4627   1.706   0.576  13.000
 1295SOL    HW1 4628   1.669   0.649  12.951
 1295SOL    HW2 4629   1.730   0.512  12.934
 1296SOL     OW 4630   1.380   1.141  11.711
 1296SOL    HW1 4631   1.460   1.132  11.660
 1296SOL    HW2 4632   1.325   1.200  11.659
 1297SOL     OW 4633   0.562   0.195  12.052
 1297SOL    HW1 4634   0.567   0.220  12.144
 1297SOL    HW2 4635   0.547   0.277  12.005
 1298SOL     OW 4636   0.995   1.439  11.639
 1298SOL    HW1 4637   0.967   1.516  11.591
 1298SOL    HW2 4638   0.980   1.462  11.731
 1299SOL     OW 4639   0.364   1.824  12.045
 1299SOL    HW1 4640   0.426   1.752  12.055
 1299SOL    HW2 4641   0.417   1.903  12.060
 1300SOL     OW 4642   1.802   1.045  12.047
 1300SOL    HW1 4643   1.748   1.043  11.967
 1300SOL    HW2 4644   1.738   1.055  12.118
 1301SOL     OW 4645   1.224   1.538  12.687
 1301SOL    HW1 4646   1.211   1.466  12.748
 1301SOL    HW2 4647   1.157   1.524  12.619
 1302SOL     OW 4648   0.310   0.952  11.414
 1302SOL    HW1 4649   0.394   0.974  11.372
 1302SOL    HW2 4650   0.298   0.859  11.396
 1303SOL     OW 4651   1.479   0.749  11.900
 1303SOL    HW1 4652   1.477   0.710  11.987
 1303SOL    HW2 4653   1.557   0.805  11.901
 1304SOL     OW 4654   0.470   1.261  12.909
 1304SOL    HW1 4655   0.444   1.269  12.818
 1304SOL    HW2 4656   0.387   1.264  12.958
 1305SOL     OW 4657   1.123   1.778  11.400
 1305SOL    HW1 4658   1.048   1.738  11.446
 1305SOL    HW2 4659   1.146   1.714  11.333
 1306SOL     OW 4660   0.202   0.293  12.673
 1306SOL    HW1 4661   0.108   0.312  12.673
 1306SOL    HW2 4662   0.211   0.217  12.730
 1307SOL     OW 4663   1.631   1.385  11.261
 1307SOL    HW1 4664   1.586   1.467  11.241
 1307SOL    HW2 4665   1.566   1.317  11.243
 1308SOL     OW 4666   0.466   1.739  11.487
 1308SOL    HW1 4667   0.510   1.795  11.551
 1308SOL    HW2 4668   0.537   1.702  11.435
 1309SOL     OW 4669   1.443   0.170  11.578
 1309SOL    HW1 4670   1.393   0.102  11.533
 1309SOL    HW2 4671   1.511   0.123  11.626
 1310SOL     OW 4672   0.253   1.790  12.402
 1310SOL    HW1 4673   0.298   1.723  12.454
 1310SOL    HW2 4674   0.252   1.755  12.313
 1311SOL     OW 4675   0.939   1.700  12.069
 1311SOL    HW1 4676   1.018   1.650  12.090
 1311SOL    HW2 4677   0.897   1.649  11.999
 1312SOL     OW 4678   0.399   0.695  11.642
 1312SOL    HW1 4679   0.423   0.603  11.658
 1312SOL    HW2 4680   0.306   0.699  11.668
 1313SOL     OW 4681   1.529   0.227  12.898
 1313SOL    HW1 4682   1.523   0.252  12.990
 1313SOL    HW2 4683   1.516   0.132  12.898
 1314SOL     OW 4684   0.646   0.127  11.275
 1314SOL    HW1 4685   0.667   0.042  11.314
 1314SOL    HW2 4686   0.585   0.107  11.204
 1315SOL     OW 4687   0.775   0.286  12.942
 1315SOL    HW1 4688   0.853   0.230  12.942
 1315SOL    HW2 4689   0.721   0.252  13.013
 1316SOL     OW 4690   0.875   1.522  12.366
 1316SOL    HW1 4691   0.859   1.485  12.280
 1316SOL    HW2 4692   0.945   1.468  12.403
 1317SOL     OW 4693   1.338   0.588  12.603
 1317SOL    HW1 4694   1.369   0.559  12.689
 1317SOL    HW2 4695   1.374   0.676  12.593
 1318SOL     OW 4696   0.817   1.390  12.116
 1318SOL    HW1 4697   0.903   1.379  12.074
 1318SOL    HW2 4698   0.755   1.395  12.043
 1319SOL     OW 4699   0.930   0.512  12.071
 1319SOL    HW1 4700   0.906   0.504  11.979
 1319SOL    HW2 4701   0.955   0.424  12.098
 1320SOL     OW 4702   0.547   0.055  11.659
 1320SOL    HW1 4703   0.473   0.063  11.720
 1320SOL    HW2 4704   0.548   0.139  11.612
 1321SOL     OW 4705   1.430   1.201  11.213
 1321SOL    HW1 4706   1.459   1.125  11.264
 1321SOL    HW2 4707   1.345   1.222  11.249
 1322SOL     OW 4708   0.352   0.032  11.372
 1322SOL    HW1 4709   0.357   0.087  11.293
 1322SOL    HW2 4710   0.439   0.039  11.412
 1323SOL     OW 4711   0.944   0.251  11.631
 1323SOL    HW1 4712   0.918   0.290  11.547
 1323SOL    HW2 4713   1.040   0.256  11.631
 1324SOL     OW 4714   1.079   0.685  12.629
 1324SOL    HW1 4715   1.011   0.618  12.636
 1324SOL    HW2 4716   1.161   0.635  12.624
 1325SOL     OW 4717   1.222   1.571  11.966
 1325SOL    HW1 4718   1.232   1.638  11.898
 1325SOL    HW2 4719   1.290   1.590  12.030
 1326SOL     OW 4720   0.466   1.151  11.905
 1326SOL    HW1 4721   0.396   1.126  11.965
 1326SOL    HW2 4722   0.431   1.136  11.818
 1327SOL     OW 4723   1.255   1.789  11.786
 1327SOL    HW1 4724   1.310   1.849  11.735
 1327SOL    HW2 4725   1.190   1.846  11.827
 1328SOL     OW 4726   1.021   0.540  11.203
 1328SOL    HW1 4727   0.978   0.623  11.183
 1328SOL    HW2 4728   1.085   0.562  11.270
 1329SOL     OW 4729   0.082   0.575  12.565
 1329SOL    HW1 4730   0.171   0.557  12.535
 1329SOL    HW2 4731   0.092   0.646  12.628
 1330SOL     OW 4732   0.572   0.231  12.331
 1330SOL    HW1 4733   0.593   0.138  12.339
 1330SOL    HW2 4734   0.481   0.237  12.361
 1331SOL     OW 4735   0.871   0.461  11.810
 1331SOL    HW1 4736   0.821   0.514  11.748
 1331SOL    HW2 4737   0.891   0.381  11.761
 1332SOL     OW 4738   0.997   0.038  11.954
 1332SOL    HW1 4739   0.958   0.069  11.872
 1332SOL    HW2 4740   1.009   3.944  11.941
 1333SOL     OW 4741   1.441   1.163  12.031
 1333SOL    HW1 4742   1.369   1.100  12.026
 1333SOL    HW2 4743   1.472   1.172  11.941
 1334SOL     OW 4744   1.464   0.609  12.144
 1334SOL    HW1 4745   1.409   0.531  12.149
 1334SOL    HW2 4746   1.523   0.601  12.219
 1335SOL     OW 4747   1.843   0.816  11.561
 1335SOL    HW1 4748   1.901   0.765  11.617
 1335SOL    HW2 4749   1.816   0.755  11.492
 1336SOL     OW 4750   0.487   1.423  11.330
 1336SOL    HW1 4751   0.411   1.392  11.380
 1336SOL    HW2 4752   0.475   1.386  11.243
 1337SOL     OW 4753   1.674   1.256  11.822
 1337SOL    HW1 4754   1.769   1.256  11.834
 1337SOL    HW2 4755   1.648   1.346  11.844
 1338SOL     OW 4756   1.395   0.577  11.240
 1338SOL    HW1 4757   1.332   0.557  11.310
 1338SOL    HW2 4758   1.481   0.560  11.280
 1339SOL     OW 4759   0.556   0.270  11.489
 1339SOL    HW1 4760   0.606   0.231  11.418
 1339SOL    HW2 4761   0.528   0.355  11.454
 1340SOL     OW 4762   1.748   1.237  12.740
 1340SOL    HW1 4763   1.836   1.199  12.733
 1340SOL    HW2 4764   1.764   1.327  12.768
 1341SOL     OW 4765   1.054   1.353  12.506
 1341SOL    HW1 4766   0.978   1.322  12.555
 1341SOL    HW2 4767   1.129   1.310  12.547
 1342SOL     OW 4768   1.603   1.625  12.827
 1342SOL    HW1 4769   1.584   1.652  12.737
 1342SOL    HW2 4770   1.686   1.578  12.821
 1343SOL     OW 4771   1.134   1.210  12.275
 1343SOL    HW1 4772   1.072   1.245  12.339
 1343SOL    HW2 4773   1.103   1.243  12.191
 1344SOL     OW 4774   1.623   1.094  12.247
 1344SOL    HW1 4775   1.617   1.158  12.318
 1344SOL    HW2 4776   1.548   1.114  12.191
 1345SOL     OW 4777   0.912   0.118  12.573
 1345SOL    HW1 4778   0.932   0.089  12.483
 1345SOL    HW2 4779   0.993   0.159  12.603
 1346SOL     OW 4780   0.984   1.115  12.896
 1346SOL    HW1 4781   0.893   1.132  12.918
 1346SOL    HW2 4782   0.981   1.037  12.841
 1347SOL     OW 4783   0.708   1.062  11.543
 1347SOL    HW1 4784   0.694   1.044  11.636
 1347SOL    HW2 4785   0.784   1.009  11.519
 1348SOL     OW 4786   0.423   0.818  12.425
 1348SOL    HW1 4787   0.492   0.824  12.492
 1348SOL    HW2 4788   0.389   0.729  12.435
 1349SOL     OW 4789   1.265   0.374  12.450
 1349SOL    HW1 4790   1.299   0.453  12.494
 1349SOL    HW2 4791   1.178   0.399  12.420
 1350SOL     OW 4792   0.065   1.579  12.517
 1350SOL    HW1 4793   0.071   1.626  12.434
 1350SOL    HW2 4794   0.156   1.569  12.546
 1351SOL     OW 4795   0.367   1.103  11.653
 1351SOL    HW1 4796   0.363   1.183  11.600
 1351SOL    HW2 4797   0.367   1.032  11.589
 1352SOL     OW 4798   0.554   0.532  12.029
 1352SOL    HW1 4799   0.567   0.591  11.955
 1352SOL    HW2 4800   0.620   0.558  12.093
 1353SOL     OW 4801   1.236   1.335  11.559
 1353SOL    HW1 4802   1.290   1.410  11.586
 1353SOL    HW2 4803   1.149   1.354  11.592
 1354SOL     OW 4804   1.281   1.461  12.320
 1354SOL    HW1 4805   1.337   1.462  12.398
 1354SOL    HW2 4806   1.227   1.383  12.330
 1355SOL     OW 4807   1.573   0.635  11.660
 1355SOL    HW1 4808   1.529   0.688  11.727
 1355SOL    HW2 4809   1.621   0.699  11.607
 1356SOL     OW 4810   0.345   1.528  12.490
 1356SOL    HW1 4811   0.336   1.477  12.409
 1356SOL    HW2 4812   0.440   1.542  12.497
 1357SOL     OW 4813   0.419   0.737  12.773
 1357SOL    HW1 4814   0.483   0.781  12.717
 1357SOL    HW2 4815   0.456   0.649  12.785
 1358SOL     OW 4816   1.606   0.782  12.858
 1358SOL    HW1 4817   1.520   0.824  12.851
 1358SOL    HW2 4818   1.658   0.823  12.789
 1359SOL     OW 4819   1.007   0.140  12.952
 1359SOL    HW1 4820   1.065   0.209  12.919
 1359SOL    HW2 4821   1.000   0.078  12.879
 1360SOL     OW 4822   0.484   0.037  12.936
 1360SOL    HW1 4823   0.490   0.048  12.842
 1360SOL    HW2 4824   0.422   0.103  12.965
 1361SOL     OW 4825   0.585   0.876  12.204
 1361SOL    HW1 4826   0.619   0.965  12.207
 1361SOL    HW2 4827   0.529   0.868  12.281
 1362SOL     OW 4828   1.349   0.858  12.196
 1362SOL    HW1 4829   1.265   0.844  12.154
 1362SOL    HW2 4830   1.395   0.774  12.188
 1363SOL     OW 4831   1.198   0.538  11.428
 1363SOL    HW1 4832   1.207   0.459  11.481
 1363SOL    HW2 4833   1.156   0.601  11.486
 1364SOL     OW 4834   0.311   0.211  12.411
 1364SOL    HW1 4835   0.267   0.248  12.488
 1364SOL    HW2 4836   0.296   0.117  12.418
 1365SOL     OW 4837   0.063   1.306  12.452
 1365SOL    HW1 4838   0.092   1.263  12.533
 1365SOL    HW2 4839   0.053   1.398  12.477
 1366SOL     OW 4840   0.723   0.633  12.223
 1366SOL    HW1 4841   0.799   0.620  12.166
 1366SOL    HW2 4842   0.693   0.722  12.203
 1367SOL     OW 4843   1.739   0.958  13.029
 1367SOL    HW1 4844   1.694   0.894  12.975
 1367SOL    HW2 4845   1.678   0.976  13.101
 1368SOL     OW 4846   0.333   0.054  11.830
 1368SOL    HW1 4847   0.304   0.145  11.831
 1368SOL    HW2 4848   0.298   0.017  11.911
 1369SOL     OW 4849   1.609   0.394  11.550
 1369SOL    HW1 4850   1.564   0.327  11.601
 1369SOL    HW2 4851   1.589   0.476  11.596
 1370SOL     OW 4852   1.030   0.759  12.130
 1370SOL    HW1 4853   1.022   0.776  12.224
 1370SOL    HW2 4854   1.003   0.668  12.119
 1371SOL     OW 4855   0.981   1.567  12.893
 1371SOL    HW1 4856   0.966   1.610  12.809
 1371SOL    HW2 4857   1.025   1.484  12.869
 1372SOL     OW 4858   1.848   1.496  12.777
 1372SOL    HW1 4859   1.878   1.516  12.688
 1372SOL    HW2 4860   1.923   1.517  12.833
 1373SOL     OW 4861   0.355   0.921  12.971
 1373SOL    HW1 4862   0.432   0.942  13.022
 1373SOL    HW2 4863   0.384   0.854  12.910
 1374SOL     OW 4864   1.502   0.273  11.305
 1374SOL    HW1 4865   1.430   0.212  11.318
 1374SOL    HW2 4866   1.515   0.313  11.392
 1375SOL     OW 4867   1.286   0.827  11.199
 1375SOL    HW1 4868   1.329   0.741  11.203
 1375SOL    HW2 4869   1.319   0.866  11.118
 1376SOL     OW 4870   1.068   1.338  12.028
 1376SOL    HW1 4871   1.072   1.266  11.966
 1376SOL    HW2 4872   1.127   1.405  11.993
 1377SOL     OW 4873   0.313   0.802  12.122
 1377SOL    HW1 4874   0.407   0.818  12.116
 1377SOL    HW2 4875   0.306   0.712  12.154
 1378SOL     OW 4876   0.339   0.529  12.188
 1378SOL    HW1 4877   0.297   0.445  12.170
 1378SOL    HW2 4878   0.414   0.531  12.129
 1379SOL     OW 4879   1.134   0.379  12.872
 1379SOL    HW1 4880   1.085   0.434  12.933
 1379SOL    HW2 4881   1.220   0.420  12.867
 1380SOL     OW 4882   1.151   0.225  12.654
 1380SOL    HW1 4883   1.142   0.279  12.733
 1380SOL    HW2 4884   1.178   0.287  12.586
 1381SOL     OW 4885   0.001   1.315  11.355
 1381SOL    HW1 4886   3.907   1.332  11.358
 1381SOL    HW2 4887   0.010   1.222  11.373
 1382SOL     OW 4888   0.079   1.799  12.060
 1382SOL    HW1 4889   0.087   1.704  12.060
 1382SOL    HW2 4890   0.169   1.831  12.064
 1383SOL     OW 4891   0.497   1.572  12.082
 1383SOL    HW1 4892   0.567   1.632  12.108
 1383SOL    HW2 4893   0.541   1.509  12.024
 1384SOL     OW 4894   0.975   0.788  12.395
 1384SOL    HW1 4895   1.032   0.769  12.469
 1384SOL    HW2 4896   0.891   0.748  12.419
 1385SOL     OW 4897   0.034   0.578  12.284
 1385SOL    HW1 4898   0.093   0.523  12.233
 1385SOL    HW2 4899   0.061   0.564  12.375
 1386SOL     OW 4900   0.212   0.515  12.894
 1386SOL    HW1 4901   0.256   0.474  12.820
 1386SOL    HW2 4902   0.167   0.591  12.856
 1387SOL     OW 4903   1.379   0.935  12.828
 1387SOL    HW1 4904   1.401   1.028  12.824
 1387SOL    HW2 4905   1.375   0.908  12.736
 1388SOL     OW 4906   0.819   0.572  11.537
 1388SOL    HW1 4907   0.825   0.496  11.478
 1388SOL    HW2 4908   0.744   0.621  11.503
 1389SOL     OW 4909   1.639   0.602  12.353
 1389SOL    HW1 4910   1.630   0.541  12.427
 1389SOL    HW2 4911   1.727   0.585  12.319
 1390SOL     OW 4912   0.301   1.544  12.894
 1390SOL    HW1 4913   0.254   1.613  12.941
 1390SOL    HW2 4914   0.272   1.463  12.936
 1391SOL     OW 4915   0.715   0.452  12.425
 1391SOL    HW1 4916   0.663   0.375  12.401
 1391SOL    HW2 4917   0.703   0.512  12.352
 1392SOL     OW 4918   0.923   1.679  12.643
 1392SOL    HW1 4919   0.899   1.640  12.559
 1392SOL    HW2 4920   0.917   1.773  12.628
 1393SOL     OW 4921   0.451   0.492  11.371
 1393SOL    HW1 4922   0.516   0.561  11.388
 1393SOL    HW2 4923   0.372   0.539  11.346
 1394SOL     OW 4924   0.154   1.134  12.647
 1394SOL    HW1 4925   0.155   1.084  12.729
 1394SOL    HW2 4926   0.170   1.069  12.579
 1395SOL     OW 4927   1.320   1.044  12.393
 1395SOL    HW1 4928   1.343   0.981  12.324
 1395SOL    HW2 4929   1.254   1.100  12.353
 1396SOL     OW 4930   1.316   0.856  11.475
 1396SOL    HW1 4931   1.241   0.827  11.528
 1396SOL    HW2 4932   1.288   0.844  11.385
 1397SOL     OW 4933   1.243   1.736  12.278
 1397SOL    HW1 4934   1.327   1.757  12.237
 1397SOL    HW2 4935   1.250   1.642  12.299
 1398SOL     OW 4936   0.078   1.216  12.200
 1398SOL    HW1 4937   0.084   1.242  12.291
 1398SOL    HW2 4938   3.986   1.228  12.177
 1399SOL     OW 4939   0.680   1.669  12.909
 1399SOL    HW1 4940   0.620   1.743  12.899
 1399SOL    HW2 4941   0.748   1.684  12.844
 1400SOL     OW 4942   1.716   0.123  11.662
 1400SOL    HW1 4943   1.793   0.134  11.607
 1400SOL    HW2 4944   1.706   0.028  11.670
 1401SOL     OW 4945   1.359   1.557  11.642
 1401SOL    HW1 4946   1.425   1.589  11.581
 1401SOL    HW2 4947   1.326   1.636  11.685
 1402SOL     OW 4948   0.176   1.761  13.003
 1402SOL    HW1 4949   0.120   1.709  13.061
 1402SOL    HW2 4950   0.217   1.825  13.062
 1403SOL     OW 4951   1.277   0.929  11.843
 1403SOL    HW1 4952   1.351   0.869  11.855
 1403SOL    HW2 4953   1.312   1.000  11.790
 1404SOL     OW 4954   0.806   1.274  12.598
 1404SOL    HW1 4955   0.778   1.316  12.679
 1404SOL    HW2 4956   0.735   1.290  12.536
 1405SOL     OW 4957   0.670   1.624  11.328
 1405SOL    HW1 4958   0.682   1.637  11.233
 1405SOL    HW2 4959   0.614   1.547  11.334
 1406SOL     OW 4960   1.574   1.724  12.556
 1406SOL    HW1 4961   1.640   1.722  12.487
 1406SOL    HW2 4962   1.558   1.817  12.572
 1407SOL     OW 4963   1.840   0.178  12.137
 1407SOL    HW1 4964   1.872   0.115  12.073
 1407SOL    HW2 4965   1.750   0.197  12.108
 1408SOL     OW 4966   0.276   0.322  11.886
 1408SOL    HW1 4967   0.190   0.356  11.859
 1408SOL    HW2 4968   0.267   0.307  11.980
 1409SOL     OW 4969   1.206   1.602  11.204
 1409SOL    HW1 4970   1.196   1.511  11.231
 1409SOL    HW2 4971   1.140   1.615  11.136
 1410SOL     OW 4972   0.823   1.005  12.546
 1410SOL    HW1 4973   0.867   0.999  12.461
 1410SOL    HW2 4974   0.821   1.099  12.565
 1411SOL     OW 4975   0.915   0.910  11.463
 1411SOL    HW1 4976   0.976   0.943  11.396
 1411SOL    HW2 4977   0.965   0.843  11.509
 1412SOL     OW 4978   1.484   1.626  11.212
 1412SOL    HW1 4979   1.390   1.618  11.195
 1412SOL    HW2 4980   1.523   1.633  11.125
 1413SOL     OW 4981   0.374   1.302  12.664
 1413SOL    HW1 4982   0.359   1.383  12.614
 1413SOL    HW2 4983   0.297   1.248  12.646
 1414SOL     OW 4984   1.605   1.280  12.448
 1414SOL    HW1 4985   1.670   1.269  12.518
 1414SOL    HW2 4986   1.544   1.345  12.482
 1415SOL     OW 4987   1.059   1.110  11.882
 1415SOL    HW1 4988   0.987   1.059  11.919
 1415SOL    HW2 4989   1.123   1.045  11.854
 1416SOL     OW 4990   1.015   0.250  12.143
 1416SOL    HW1 4991   1.005   0.200  12.062
 1416SOL    HW2 4992   1.012   0.185  12.213
 1417SOL     OW 4993   0.607   1.488  11.654
 1417SOL    HW1 4994   0.654   1.438  11.587
 1417SOL    HW2 4995   0.531   1.523  11.608
 1418SOL     OW 4996   1.721   0.394  12.543
 1418SOL    HW1 4997   1.794   0.456  12.548
 1418SOL    HW2 4998   1.754   0.323  12.489
 1419SOL     OW 4999   0.255   1.341  11.466
 1419SOL    HW1 5000   0.161   1.346  11.448
 1419SOL    HW2 5001   0.264   1.381  11.552
 1420SOL     OW 5002   0.109   0.998  12.890
 1420SOL    HW1 5003   0.049   0.993  12.965
 1420SOL    HW2 5004   0.195   0.980  12.927
 1421SOL     OW 5005   0.694   0.257  12.675
 1421SOL    HW1 5006   0.762   0.204  12.633
 1421SOL    HW2 5007   0.723   0.265  12.766
 1422SOL     OW 5008   0.088   0.318  11.196
 1422SOL    HW1 5009   3.993   0.317  11.189
 1422SOL    HW2 5010   0.115   0.401  11.157
 1423SOL     OW 5011   1.425   0.856  12.569
 1423SOL    HW1 5012   1.376   0.918  12.515
 1423SOL    HW2 5013   1.514   0.859  12.533
 1424SOL     OW 5014   0.035   0.173  11.456
 1424SOL    HW1 5015   0.037   0.226  11.377
 1424SOL    HW2 5016   0.110   0.203  11.507
 1425SOL     OW 5017   1.177   1.335  11.288
 1425SOL    HW1 5018   1.086   1.305  11.288
 1425SOL    HW2 5019   1.203   1.333  11.380
 1426SOL     OW 5020   0.622   0.828  12.609
 1426SOL    HW1 5021   0.679   0.904  12.593
 1426SOL    HW2 5022   0.682   0.754  12.617
 1427SOL     OW 5023   1.489   1.784  12.154
 1427SOL    HW1 5024   1.514   1.855  12.095
 1427SOL    HW2 5025   1.567   1.728  12.158
 1428SOL     OW 5026   0.718   0.561  12.878
 1428SOL    HW1 5027   0.763   0.622  12.936
 1428SOL    HW2 5028   0.742   0.474  12.911
 1429SOL     OW 5029   1.473   1.195  12.802
 1429SOL    HW1 5030   1.462   1.211  12.896
 1429SOL    HW2 5031   1.565   1.212  12.786
 1430SOL     OW 5032   0.377   1.744  12.728
 1430SOL    HW1 5033   0.290   1.782  12.716
 1430SOL    HW2 5034   0.361   1.662  12.773
 1431SOL     OW 5035   1.665   0.880  12.428
 1431SOL    HW1 5036   1.661   0.795  12.384
 1431SOL    HW2 5037   1.655   0.944  12.357
 1432SOL     OW 5038   1.222   0.338  11.613
 1432SOL    HW1 5039   1.290   0.271  11.606
 1432SOL    HW2 5040   1.240   0.382  11.696
 1433SOL     OW 5041   0.589   0.737  11.844
 1433SOL    HW1 5042   0.627   0.823  11.829
 1433SOL    HW2 5043   0.523   0.727  11.776
 1434SOL     OW 5044   1.749   0.384  12.815
 1434SOL    HW1 5045   1.732   0.390  12.721
 1434SOL    HW2 5046   1.692   0.314  12.846
 1435SOL     OW 5047   1.748   0.934  12.683
 1435SOL    HW1 5048   1.736   1.028  12.696
 1435SOL    HW2 5049   1.730   0.920  12.590
 1436SOL     OW 5050   0.863   1.365  11.213
 1436SOL    HW1 5051   0.826   1.393  11.296
 1436SOL    HW2 5052   0.879   1.447  11.165
 1437SOL     OW 5053   0.664   1.786  12.113
 1437SOL    HW1 5054   0.644   1.877  12.092
 1437SOL    HW2 5055   0.759   1.779  12.105
 1438SOL     OW 5056   0.869   0.969  12.025
 1438SOL    HW1 5057   0.920   0.897  12.062
 1438SOL    HW2 5058   0.831   1.014  12.100
 1439SOL     OW 5059   1.076   0.988  11.261
 1439SOL    HW1 5060   1.055   1.040  11.183
 1439SOL    HW2 5061   1.151   0.934  11.234
 1440SOL     OW 5062   1.857   1.511  12.000
 1440SOL    HW1 5063   1.801   1.586  11.980
 1440SOL    HW2 5064   1.845   1.497  12.094
 1441SOL     OW 5065   0.229   1.304  13.029
 1441SOL    HW1 5066   0.153   1.252  13.001
 1441SOL    HW2 5067   0.215   1.317  13.122
 1442SOL     OW 5068   0.126   1.284  11.896
 1442SOL    HW1 5069   0.141   1.231  11.974
 1442SOL    HW2 5070   0.106   1.220  11.827
 1443SOL     OW 5071   0.683   1.407  12.803
 1443SOL    HW1 5072   0.603   1.364  12.834
 1443SOL    HW2 5073   0.679   1.495  12.840
 1444SOL     OW 5074   1.810   0.183  12.409
 1444SOL    HW1 5075   1.813   0.089  12.425
 1444SOL    HW2 5076   1.826   0.192  12.315
 1445SOL     OW 5077   0.446   0.438  11.703
 1445SOL    HW1 5078   0.467   0.362  11.649
 1445SOL    HW2 5079   0.390   0.403  11.773
 1446SOL     OW 5080   1.701   1.503  12.270
 1446SOL    HW1 5081   1.623   1.478  12.220
 1446SOL    HW2 5082   1.714   1.431  12.332
 1447SOL     OW 5083   0.335   0.559  12.466
 1447SOL    HW1 5084   0.390   0.502  12.519
 1447SOL    HW2 5085   0.349   0.530  12.376
 1448SOL     OW 5086   0.829   1.581  11.848
 1448SOL    HW1 5087   0.813   1.644  11.778
 1448SOL    HW2 5088   0.755   1.521  11.844
 1449SOL     OW 5089   1.460   0.255  12.282
 1449SOL    HW1 5090   1.479   0.169  12.319
 1449SOL    HW2 5091   1.405   0.298  12.348
 1450SOL     OW 5092   1.002   0.026  12.318
 1450SOL    HW1 5093   0.920   3.997  12.278
 1450SOL    HW2 5094   1.054   3.947  12.326
 1451SOL     OW 5095   0.773   1.333  11.491
 1451SOL    HW1 5096   0.746   1.242  11.499
 1451SOL    HW2 5097   0.854   1.340  11.541
 1452SOL     OW 5098   0.621   1.557  12.459
 1452SOL    HW1 5099   0.622   1.639  12.507
 1452SOL    HW2 5100   0.709   1.550  12.422
 1453SOL     OW 5101   1.308   0.073  11.339
 1453SOL    HW1 5102   1.318   3.990  11.293
 1453SOL    HW2 5103   1.224   0.067  11.384
 1454SOL     OW 5104   1.279   0.456  11.856
 1454SOL    HW1 5105   1.234   0.540  11.850
 1454SOL    HW2 5106   1.282   0.437  11.950
 1455SOL     OW 5107   1.587   0.210  12.040
 1455SOL    HW1 5108   1.538   0.235  12.118
 1455SOL    HW2 5109   1.588   0.289  11.986
 1456SOL     OW 5110   0.048   1.047  11.415
 1456SOL    HW1 5111   0.142   1.031  11.406
 1456SOL    HW2 5112   0.011   0.962  11.439
 1457SOL     OW 5113   0.889   1.659  11.510
 1457SOL    HW1 5114   0.814   1.643  11.453
 1457SOL    HW2 5115   0.861   1.731  11.566
 1458SOL     OW 5116   0.230   0.630  13.150
 1458SOL    HW1 5117   0.137   0.633  13.170
 1458SOL    HW2 5118   0.234   0.600  13.059
 1459SOL     OW 5119   0.285   0.254   0.142
 1459SOL    HW1 5120   0.337   0.323   0.183
 1459SOL    HW2 5121   0.207   0.299   0.110
 1460SOL     OW 5122   0.020   0.379  13.666
 1460SOL    HW1 5123   3.930   0.403  13.642
 1460SOL    HW2 5124   0.028   0.287  13.643
 1461SOL     OW 5125   1.507   1.471  13.721
 1461SOL    HW1 5126   1.456   1.404  13.767
 1461SOL    HW2 5127   1.456   1.490  13.642
 1462SOL     OW 5128   1.132   0.698  13.729
 1462SOL    HW1 5129   1.185   0.775  13.708
 1462SOL    HW2 5130   1.076   0.726  13.801
 1463SOL     OW 5131   1.776   0.616  13.254
 1463SOL    HW1 5132   1.749   0.612  13.162
 1463SOL    HW2 5133   1.757   0.529  13.289
 1464SOL     OW 5134   0.688   1.011  13.670
 1464SOL    HW1 5135   0.739   0.992  13.748
 1464SOL    HW2 5136   0.614   1.063  13.702
 1465SOL     OW 5137   1.614   0.453  13.756
 1465SOL    HW1 5138   1.528   0.472  13.717
 1465SOL    HW2 5139   1.644   0.536  13.792
 1466SOL     OW 5140   0.217   1.714  13.484
 1466SOL    HW1 5141   0.236   1.787  13.543
 1466SOL    HW2 5142   0.295   1.707  13.429
 1467SOL     OW 5143   0.251   1.446  13.571
 1467SOL    HW1 5144   0.221   1.536  13.560
 1467SOL    HW2 5145   0.187   1.407  13.631
 1468SOL     OW 5146   0.258   1.073   0.016
 1468SOL    HW1 5147   0.275   1.035   0.102
 1468SOL    HW2 5148   0.217   1.158   0.035
 1469SOL     OW 5149   0.574   0.987  13.172
 1469SOL    HW1 5150   0.623   1.030  13.102
 1469SOL    HW2 5151   0.615   1.018  13.253
 1470SOL     OW 5152   0.148   0.655  13.609
 1470SOL    HW1 5153   0.090   0.579  13.601
 1470SOL    HW2 5154   0.102   0.715  13.668
 1471SOL     OW 5155   0.044   1.589  13.172
 1471SOL    HW1 5156   0.039   1.498  13.199
 1471SOL    HW2 5157   3.960   1.627  13.198
 1472SOL     OW 5158   1.683   0.913  13.665
 1472SOL    HW1 5159   1.770   0.880  13.643
 1472SOL    HW2 5160   1.661   0.971  13.592
 1473SOL     OW 5161   1.649   1.102  13.456
 1473SOL    HW1 5162   1.735   1.102  13.415
 1473SOL    HW2 5163   1.657   1.163  13.529
 1474SOL     OW 5164   0.614   1.387  13.760
 1474SOL    HW1 5165   0.564   1.308  13.778
 1474SOL    HW2 5166   0.583   1.417  13.675
 1475SOL     OW 5167   0.823   0.005  13.549
 1475SOL    HW1 5168   0.866   0.087  13.523
 1475SOL    HW2 5169   0.729   0.026  13.545
 1476SOL     OW 5170   1.530   0.996  13.232
 1476SOL    HW1 5171   1.461   0.938  13.266
 1476SOL    HW2 5172   1.572   1.031  13.311
 1477SOL     OW 5173   1.571   1.726  13.605
 1477SOL    HW1 5174   1.577   1.703  13.512
 1477SOL    HW2 5175   1.580   1.643  13.651
 1478SOL     OW 5176   0.594   0.717  13.298
 1478SOL    HW1 5177   0.598   0.802  13.254
 1478SOL    HW2 5178   0.531   0.730  13.369
 1479SOL     OW 5179   1.236   0.340   0.052
 1479SOL    HW1 5180   1.147   0.331   0.084
 1479SOL    HW2 5181   1.290   0.291   0.114
 1480SOL     OW 5182   1.571   1.658  13.336
 1480SOL    HW1 5183   1.664   1.640  13.321
 1480SOL    HW2 5184   1.531   1.651  13.249
 1481SOL     OW 5185   1.051   0.697  13.458
 1481SOL    HW1 5186   1.066   0.684  13.552
 1481SOL    HW2 5187   0.968   0.651  13.441
 1482SOL     OW 5188   0.077   0.844  13.806
 1482SOL    HW1 5189   0.155   0.822  13.858
 1482SOL    HW2 5190   0.078   0.940  13.802
 1483SOL     OW 5191   0.895   0.352  13.231
 1483SOL    HW1 5192   0.937   0.412  13.170
 1483SOL    HW2 5193   0.893   0.268  13.184
 1484SOL     OW 5194   1.365   1.135  13.551
 1484SOL    HW1 5195   1.454   1.135  13.515
 1484SOL    HW2 5196   1.319   1.203  13.501
 1485SOL     OW 5197   0.993   1.437  13.500
 1485SOL    HW1 5198   0.968   1.515  13.451
 1485SOL    HW2 5199   0.962   1.453  13.589
 1486SOL     OW 5200   0.412   1.799  13.857
 1486SOL    HW1 5201   0.408   1.704  13.868
 1486SOL    HW2 5202   0.496   1.824  13.896
 1487SOL     OW 5203   1.788   1.041   0.000
 1487SOL    HW1 5204   1.732   1.044  13.822
 1487SOL    HW2 5205   1.726   1.036   0.073
 1488SOL     OW 5206   0.311   0.953  13.276
 1488SOL    HW1 5207   0.393   0.975  13.233
 1488SOL    HW2 5208   0.298   0.860  13.258
 1489SOL     OW 5209   1.493   0.734  13.753
 1489SOL    HW1 5210   1.483   0.697  13.841
 1489SOL    HW2 5211   1.563   0.799  13.762
 1490SOL     OW 5212   1.123   1.777  13.263
 1490SOL    HW1 5213   1.048   1.739  13.308
 1490SOL    HW2 5214   1.146   1.714  13.195
 1491SOL     OW 5215   1.630   1.385  13.125
 1491SOL    HW1 5216   1.586   1.467  13.104
 1491SOL    HW2 5217   1.566   1.317  13.105
 1492SOL     OW 5218   0.466   1.739  13.348
 1492SOL    HW1 5219   0.508   1.793  13.414
 1492SOL    HW2 5220   0.538   1.703  13.297
 1493SOL     OW 5221   1.430   0.164  13.444
 1493SOL    HW1 5222   1.392   0.111  13.374
 1493SOL    HW2 5223   1.520   0.133  13.451
 1494SOL     OW 5224   0.916   1.687   0.010
 1494SOL    HW1 5225   0.940   1.619   0.073
 1494SOL    HW2 5226   0.882   1.639  13.835
 1495SOL     OW 5227   0.399   0.697  13.501
 1495SOL    HW1 5228   0.426   0.606  13.515
 1495SOL    HW2 5229   0.308   0.700  13.530
 1496SOL     OW 5230   0.646   0.128  13.138
 1496SOL    HW1 5231   0.668   0.043  13.176
 1496SOL    HW2 5232   0.586   0.108  13.066
 1497SOL     OW 5233   0.552   0.054  13.520
 1497SOL    HW1 5234   0.475   0.058  13.577
 1497SOL    HW2 5235   0.550   0.137  13.472
 1498SOL     OW 5236   1.431   1.201  13.075
 1498SOL    HW1 5237   1.459   1.124  13.125
 1498SOL    HW2 5238   1.344   1.222  13.110
 1499SOL     OW 5239   0.350   0.046  13.235
 1499SOL    HW1 5240   0.358   0.095  13.153
 1499SOL    HW2 5241   0.441   0.035  13.265
 1500SOL     OW 5242   0.944   0.251  13.492
 1500SOL    HW1 5243   0.917   0.290  13.409
 1500SOL    HW2 5244   1.039   0.258  13.492
 1501SOL     OW 5245   0.470   1.145  13.763
 1501SOL    HW1 5246   0.399   1.120  13.823
 1501SOL    HW2 5247   0.432   1.135  13.675
 1502SOL     OW 5248   1.258   1.791  13.635
 1502SOL    HW1 5249   1.305   1.860  13.587
 1502SOL    HW2 5250   1.190   1.838  13.683
 1503SOL     OW 5251   1.021   0.540  13.065
 1503SOL    HW1 5252   0.978   0.623  13.045
 1503SOL    HW2 5253   1.085   0.562  13.132
 1504SOL     OW 5254   0.902   0.474  13.671
 1504SOL    HW1 5255   0.831   0.519  13.625
 1504SOL    HW2 5256   0.909   0.390  13.626
 1505SOL     OW 5257   1.002   0.037  13.792
 1505SOL    HW1 5258   0.970   0.063  13.706
 1505SOL    HW2 5259   1.025   3.945  13.783
 1506SOL     OW 5260   1.844   0.817  13.418
 1506SOL    HW1 5261   1.903   0.766  13.474
 1506SOL    HW2 5262   1.817   0.756  13.350
 1507SOL     OW 5263   0.487   1.423  13.193
 1507SOL    HW1 5264   0.410   1.392  13.242
 1507SOL    HW2 5265   0.475   1.387  13.105
 1508SOL     OW 5266   1.682   1.258  13.666
 1508SOL    HW1 5267   1.775   1.262  13.690
 1508SOL    HW2 5268   1.644   1.338  13.701
 1509SOL     OW 5269   1.395   0.578  13.104
 1509SOL    HW1 5270   1.332   0.556  13.173
 1509SOL    HW2 5271   1.480   0.557  13.141
 1510SOL     OW 5272   0.558   0.272  13.351
 1510SOL    HW1 5273   0.606   0.229  13.280
 1510SOL    HW2 5274   0.528   0.355  13.314
 1511SOL     OW 5275   0.709   1.064  13.399
 1511SOL    HW1 5276   0.695   1.048  13.492
 1511SOL    HW2 5277   0.785   1.010  13.377
 1512SOL     OW 5278   0.369   1.104  13.512
 1512SOL    HW1 5279   0.364   1.185  13.462
 1512SOL    HW2 5280   0.366   1.035  13.446
 1513SOL     OW 5281   0.564   0.541  13.863
 1513SOL    HW1 5282   0.576   0.607  13.796
 1513SOL    HW2 5283   0.626   0.565   0.032
 1514SOL     OW 5284   1.236   1.343  13.416
 1514SOL    HW1 5285   1.289   1.418  13.443
 1514SOL    HW2 5286   1.149   1.362  13.451
 1515SOL     OW 5287   1.583   0.636  13.512
 1515SOL    HW1 5288   1.544   0.682  13.585
 1515SOL    HW2 5289   1.625   0.704  13.460
 1516SOL     OW 5290   1.199   0.533  13.292
 1516SOL    HW1 5291   1.206   0.454  13.345
 1516SOL    HW2 5292   1.156   0.597  13.349
 1517SOL     OW 5293   0.337   0.048  13.681
 1517SOL    HW1 5294   0.314   0.140  13.692
 1517SOL    HW2 5295   0.276   0.001  13.736
 1518SOL     OW 5296   1.593   0.394  13.406
 1518SOL    HW1 5297   1.562   0.329  13.469
 1518SOL    HW2 5298   1.582   0.478  13.449
 1519SOL     OW 5299   1.501   0.279  13.165
 1519SOL    HW1 5300   1.431   0.216  13.180
 1519SOL    HW2 5301   1.517   0.319  13.250
 1520SOL     OW 5302   1.286   0.826  13.061
 1520SOL    HW1 5303   1.329   0.741  13.065
 1520SOL    HW2 5304   1.319   0.865  12.980
 1521SOL     OW 5305   0.001   1.316  13.214
 1521SOL    HW1 5306   3.906   1.333  13.219
 1521SOL    HW2 5307   0.009   1.222  13.232
 1522SOL     OW 5308   0.819   0.575  13.389
 1522SOL    HW1 5309   0.823   0.497  13.335
 1522SOL    HW2 5310   0.742   0.622  13.357
 1523SOL     OW 5311   0.450   0.492  13.233
 1523SOL    HW1 5312   0.514   0.561  13.249
 1523SOL    HW2 5313   0.370   0.539  13.208
 1524SOL     OW 5314   1.317   0.851  13.336
 1524SOL    HW1 5315   1.240   0.827  13.388
 1524SOL    HW2 5316   1.289   0.840  13.245
 1525SOL     OW 5317   1.694   0.112  13.454
 1525SOL    HW1 5318   1.786   0.130  13.434
 1525SOL    HW2 5319   1.696   0.042  13.519
 1526SOL     OW 5320   1.362   1.563  13.504
 1526SOL    HW1 5321   1.422   1.600  13.439
 1526SOL    HW2 5322   1.323   1.640  13.546
 1527SOL     OW 5323   1.290   0.913  13.683
 1527SOL    HW1 5324   1.368   0.858  13.672
 1527SOL    HW2 5325   1.313   0.995  13.641
 1528SOL     OW 5326   0.670   1.624  13.189
 1528SOL    HW1 5327   0.682   1.637  13.095
 1528SOL    HW2 5328   0.614   1.547  13.196
 1529SOL     OW 5329   1.821   0.179   0.066
 1529SOL    HW1 5330   1.861   0.092   0.057
 1529SOL    HW2 5331   1.732   0.167   0.035
 1530SOL     OW 5332   0.289   0.309  13.735
 1530SOL    HW1 5333   0.208   0.354  13.709
 1530SOL    HW2 5334   0.295   0.325  13.829
 1531SOL     OW 5335   1.207   1.602  13.066
 1531SOL    HW1 5336   1.196   1.510  13.092
 1531SOL    HW2 5337   1.141   1.616  12.998
 1532SOL     OW 5338   0.919   0.913  13.330
 1532SOL    HW1 5339   0.978   0.943  13.261
 1532SOL    HW2 5340   0.965   0.840  13.371
 1533SOL     OW 5341   1.485   1.627  13.075
 1533SOL    HW1 5342   1.391   1.618  13.059
 1533SOL    HW2 5343   1.524   1.634  12.988
 1534SOL     OW 5344   1.051   1.090  13.756
 1534SOL    HW1 5345   0.964   1.055  13.736
 1534SOL    HW2 5346   1.107   1.056  13.687
 1535SOL     OW 5347   0.601   1.493  13.504
 1535SOL    HW1 5348   0.648   1.441  13.439
 1535SOL    HW2 5349   0.525   1.528  13.456
 1536SOL     OW 5350   0.253   1.340  13.325
 1536SOL    HW1 5351   0.159   1.345  13.307
 1536SOL    HW2 5352   0.263   1.379  13.412
 1537SOL     OW 5353   0.088   0.319  13.059
 1537SOL    HW1 5354   3.992   0.318  13.050
 1537SOL    HW2 5355   0.115   0.401  13.018
 1538SOL     OW 5356   0.042   0.174  13.304
 1538SOL    HW1 5357   0.045   0.229  13.226
 1538SOL    HW2 5358   0.117   0.203  13.356
 1539SOL     OW 5359   1.176   1.335  13.147
 1539SOL    HW1 5360   1.085   1.306  13.147
 1539SOL    HW2 5361   1.202   1.335  13.239
 1540SOL     OW 5362   1.219   0.332  13.482
 1540SOL    HW1 5363   1.289   0.267  13.471
 1540SOL    HW2 5364   1.245   0.382  13.559
 1541SOL     OW 5365   0.594   0.750  13.691
 1541SOL    HW1 5366   0.628   0.837  13.673
 1541SOL    HW2 5367   0.525   0.737  13.626
 1542SOL     OW 5368   0.865   1.365  13.074
 1542SOL    HW1 5369   0.826   1.392  13.157
 1542SOL    HW2 5370   0.879   1.447  13.027
 1543SOL     OW 5371   0.662   1.856   0.059
 1543SOL    HW1 5372   0.681   1.949   0.043
 1543SOL    HW2 5373   0.748   1.816   0.072
 1544SOL     OW 5374   0.823   0.966  13.899
 1544SOL    HW1 5375   0.843   0.882   0.040
 1544SOL    HW2 5376   0.862   1.031   0.058
 1545SOL     OW 5377   1.075   0.987  13.123
 1545SOL    HW1 5378   1.055   1.039  13.046
 1545SOL    HW2 5379   1.150   0.933  13.096
 1546SOL     OW 5380   0.116   1.278  13.763
 1546SOL    HW1 5381   0.049   1.241  13.820
 1546SOL    HW2 5382   0.119   1.220  13.687
 1547SOL     OW 5383   0.454   0.441  13.556
 1547SOL    HW1 5384   0.482   0.367  13.502
 1547SOL    HW2 5385   0.407   0.401  13.629
 1548SOL     OW 5386   1.707   1.507   0.319
 1548SOL    HW1 5387   1.674   1.451   0.248
 1548SOL    HW2 5388   1.770   1.451   0.365
 1549SOL     OW 5389   0.821   1.551  13.702
 1549SOL    HW1 5390   0.789   1.606  13.631
 1549SOL    HW2 5391   0.748   1.492  13.721
 1550SOL     OW 5392   0.772   1.334  13.348
 1550SOL    HW1 5393   0.746   1.243  13.357
 1550SOL    HW2 5394   0.852   1.341  13.400
 1551SOL     OW 5395   1.310   0.077  13.208
 1551SOL    HW1 5396   1.332   3.996  13.161
 1551SOL    HW2 5397   1.221   0.063  13.240
 1552SOL     OW 5398   1.291   0.459  13.714
 1552SOL    HW1 5399   1.243   0.541  13.713
 1552SOL    HW2 5400   1.282   0.427  13.804
 1553SOL     OW 5401   0.047   1.047  13.271
 1553SOL    HW1 5402   0.142   1.031  13.264
 1553SOL    HW2 5403   0.011   0.963  13.299
 1554SOL     OW 5404   0.889   1.658  13.372
 1554SOL    HW1 5405   0.814   1.643  13.315
 1554SOL    HW2 5406   0.862   1.729  13.430
 1555SOL     OW 5407   0.230   2.517   0.120
 1555SOL    HW1 5408   0.135   2.508   0.132
 1555SOL    HW2 5409   0.247   2.475   0.036
 1556SOL     OW 5410   0.229   2.135   0.987
 1556SOL    HW1 5411   0.250   2.100   1.074
 1556SOL    HW2 5412   0.134   2.127   0.981
 1557SOL     OW 5413   0.009   2.222   0.629
 1557SOL    HW1 5414   3.922   2.240   0.664
 1557SOL    HW2 5415   3.993   2.192   0.539
 1558SOL     OW 5416   0.581   3.153   1.194
 1558SOL    HW1 5417   0.495   3.156   1.152
 1558SOL    HW2 5418   0.595   3.243   1.226
 1559SOL     OW 5419   1.566   3.372   0.708
 1559SOL    HW1 5420   1.522   3.349   0.790
 1559SOL    HW2 5421   1.497   3.374   0.643
 1560SOL     OW 5422   1.133   2.560   0.698
 1560SOL    HW1 5423   1.181   2.641   0.685
 1560SOL    HW2 5424   1.086   2.572   0.780
 1561SOL     OW 5425   1.772   2.459   0.228
 1561SOL    HW1 5426   1.796   2.407   0.151
 1561SOL    HW2 5427   1.724   2.398   0.283
 1562SOL     OW 5428   0.749   2.999   1.044
 1562SOL    HW1 5429   0.687   3.036   1.107
 1562SOL    HW2 5430   0.787   3.075   0.999
 1563SOL     OW 5431   0.873   2.627   1.824
 1563SOL    HW1 5432   0.864   2.698   1.888
 1563SOL    HW2 5433   0.895   2.672   1.742
 1564SOL     OW 5434   0.684   2.860   0.647
 1564SOL    HW1 5435   0.751   2.851   0.715
 1564SOL    HW2 5436   0.616   2.914   0.687
 1565SOL     OW 5437   0.713   3.011   1.819
 1565SOL    HW1 5438   0.761   3.089   1.848
 1565SOL    HW2 5439   0.633   3.046   1.780
 1566SOL     OW 5440   0.351   3.262   1.078
 1566SOL    HW1 5441   0.269   3.248   1.030
 1566SOL    HW2 5442   0.401   3.320   1.021
 1567SOL     OW 5443   1.460   3.364   1.359
 1567SOL    HW1 5444   1.514   3.442   1.369
 1567SOL    HW2 5445   1.391   3.373   1.426
 1568SOL     OW 5446   0.450   2.258   1.484
 1568SOL    HW1 5447   0.526   2.199   1.489
 1568SOL    HW2 5448   0.375   2.202   1.499
 1569SOL     OW 5449   1.602   2.297   0.733
 1569SOL    HW1 5450   1.519   2.317   0.691
 1569SOL    HW2 5451   1.625   2.377   0.781
 1570SOL     OW 5452   0.224   3.572   0.471
 1570SOL    HW1 5453   0.218   3.657   0.515
 1570SOL    HW2 5454   0.300   3.580   0.414
 1571SOL     OW 5455   1.138   3.204   1.694
 1571SOL    HW1 5456   1.178   3.197   1.781
 1571SOL    HW2 5457   1.085   3.124   1.686
 1572SOL     OW 5458   0.245   3.308   0.543
 1572SOL    HW1 5459   0.223   3.400   0.527
 1572SOL    HW2 5460   0.170   3.275   0.594
 1573SOL     OW 5461   0.248   2.927   0.882
 1573SOL    HW1 5462   0.269   2.842   0.921
 1573SOL    HW2 5463   0.196   2.971   0.949
 1574SOL     OW 5464   0.609   3.648   1.426
 1574SOL    HW1 5465   0.527   3.634   1.473
 1574SOL    HW2 5466   0.636   3.736   1.451
 1575SOL     OW 5467   0.560   2.843   0.168
 1575SOL    HW1 5468   0.590   2.881   0.086
 1575SOL    HW2 5469   0.615   2.883   0.235
 1576SOL     OW 5470   1.560   1.994   1.448
 1576SOL    HW1 5471   1.577   2.079   1.407
 1576SOL    HW2 5472   1.558   2.012   1.542
 1577SOL     OW 5473   0.142   2.521   0.572
 1577SOL    HW1 5474   0.088   2.442   0.573
 1577SOL    HW2 5475   0.108   2.574   0.644
 1578SOL     OW 5476   1.838   3.601   0.336
 1578SOL    HW1 5477   1.902   3.569   0.400
 1578SOL    HW2 5478   1.860   3.694   0.326
 1579SOL     OW 5479   0.030   3.468   0.136
 1579SOL    HW1 5480   0.036   3.375   0.158
 1579SOL    HW2 5481   3.936   3.487   0.135
 1580SOL     OW 5482   1.688   2.779   0.644
 1580SOL    HW1 5483   1.769   2.735   0.618
 1580SOL    HW2 5484   1.664   2.833   0.569
 1581SOL     OW 5485   1.649   2.965   0.433
 1581SOL    HW1 5486   1.736   2.967   0.393
 1581SOL    HW2 5487   1.653   3.030   0.503
 1582SOL     OW 5488   0.142   2.614   1.590
 1582SOL    HW1 5489   0.238   2.611   1.584
 1582SOL    HW2 5490   0.124   2.701   1.624
 1583SOL     OW 5491   0.617   3.248   0.735
 1583SOL    HW1 5492   0.569   3.166   0.744
 1583SOL    HW2 5493   0.601   3.276   0.645
 1584SOL     OW 5494   1.286   3.098   1.421
 1584SOL    HW1 5495   1.317   3.030   1.361
 1584SOL    HW2 5496   1.345   3.093   1.496
 1585SOL     OW 5497   0.824   1.863   0.515
 1585SOL    HW1 5498   0.864   1.947   0.491
 1585SOL    HW2 5499   0.730   1.881   0.520
 1586SOL     OW 5500   0.184   2.811   1.281
 1586SOL    HW1 5501   0.272   2.775   1.269
 1586SOL    HW2 5502   0.133   2.775   1.209
 1587SOL     OW 5503   1.529   2.863   0.206
 1587SOL    HW1 5504   1.461   2.804   0.240
 1587SOL    HW2 5505   1.571   2.898   0.284
 1588SOL     OW 5506   1.222   3.667   1.628
 1588SOL    HW1 5507   1.195   3.729   1.560
 1588SOL    HW2 5508   1.222   3.582   1.585
 1589SOL     OW 5509   0.343   2.109   1.819
 1589SOL    HW1 5510   0.378   2.198   1.826
 1589SOL    HW2 5511   0.251   2.117   1.843
 1590SOL     OW 5512   1.466   3.281   0.949
 1590SOL    HW1 5513   1.399   3.296   1.015
 1590SOL    HW2 5514   1.453   3.190   0.922
 1591SOL     OW 5515   1.659   3.601   0.589
 1591SOL    HW1 5516   1.642   3.577   0.498
 1591SOL    HW2 5517   1.634   3.523   0.639
 1592SOL     OW 5518   0.597   2.576   0.268
 1592SOL    HW1 5519   0.597   2.660   0.222
 1592SOL    HW2 5520   0.535   2.589   0.340
 1593SOL     OW 5521   1.280   2.225   0.935
 1593SOL    HW1 5522   1.192   2.190   0.945
 1593SOL    HW2 5523   1.335   2.169   0.990
 1594SOL     OW 5524   1.562   3.591   0.315
 1594SOL    HW1 5525   1.657   3.591   0.313
 1594SOL    HW2 5526   1.535   3.561   0.228
 1595SOL     OW 5527   0.791   2.480   1.449
 1595SOL    HW1 5528   0.765   2.454   1.537
 1595SOL    HW2 5529   0.756   2.411   1.393
 1596SOL     OW 5530   1.393   2.335   1.678
 1596SOL    HW1 5531   1.396   2.381   1.762
 1596SOL    HW2 5532   1.454   2.261   1.688
 1597SOL     OW 5533   0.951   2.747   1.585
 1597SOL    HW1 5534   1.006   2.679   1.547
 1597SOL    HW2 5535   0.902   2.783   1.511
 1598SOL     OW 5536   0.994   2.272   1.235
 1598SOL    HW1 5537   0.905   2.291   1.266
 1598SOL    HW2 5538   0.981   2.229   1.150
 1599SOL     OW 5539   1.053   2.563   0.429
 1599SOL    HW1 5540   1.071   2.555   0.522
 1599SOL    HW2 5541   0.970   2.518   0.416
 1600SOL     OW 5542   0.083   2.692   0.790
 1600SOL    HW1 5543   0.155   2.661   0.844
 1600SOL    HW2 5544   0.102   2.785   0.774
 1601SOL     OW 5545   0.127   3.720   1.581
 1601SOL    HW1 5546   0.135   3.687   1.670
 1601SOL    HW2 5547   0.035   3.706   1.559
 1602SOL     OW 5548   0.869   2.223   0.216
 1602SOL    HW1 5549   0.907   2.285   0.154
 1602SOL    HW2 5550   0.885   2.137   0.177
 1603SOL     OW 5551   1.677   2.447   1.831
 1603SOL    HW1 5552   1.650   2.520   1.775
 1603SOL    HW2 5553   1.716   2.384   1.770
 1604SOL     OW 5554   1.380   3.004   0.543
 1604SOL    HW1 5555   1.458   2.992   0.489
 1604SOL    HW2 5556   1.326   3.067   0.495
 1605SOL     OW 5557   0.547   2.040   0.896
 1605SOL    HW1 5558   0.554   2.071   0.986
 1605SOL    HW2 5559   0.546   2.119   0.843
 1606SOL     OW 5560   1.001   3.304   0.474
 1606SOL    HW1 5561   0.971   3.380   0.423
 1606SOL    HW2 5562   0.978   3.326   0.564
 1607SOL     OW 5563   0.359   3.672   0.865
 1607SOL    HW1 5564   0.440   3.623   0.878
 1607SOL    HW2 5565   0.385   3.764   0.874
 1608SOL     OW 5566   1.800   2.910   0.872
 1608SOL    HW1 5567   1.747   2.896   0.793
 1608SOL    HW2 5568   1.737   2.920   0.943
 1609SOL     OW 5569   1.227   3.399   1.511
 1609SOL    HW1 5570   1.215   3.327   1.573
 1609SOL    HW2 5571   1.157   3.389   1.447
 1610SOL     OW 5572   0.307   2.790   0.242
 1610SOL    HW1 5573   0.398   2.804   0.216
 1610SOL    HW2 5574   0.294   2.696   0.235
 1611SOL     OW 5575   1.482   2.607   0.722
 1611SOL    HW1 5576   1.477   2.568   0.810
 1611SOL    HW2 5577   1.558   2.664   0.725
 1612SOL     OW 5578   0.470   3.122   1.737
 1612SOL    HW1 5579   0.444   3.131   1.645
 1612SOL    HW2 5580   0.388   3.125   1.785
 1613SOL     OW 5581   1.127   3.639   0.230
 1613SOL    HW1 5582   1.062   3.595   0.284
 1613SOL    HW2 5583   1.154   3.574   0.165
 1614SOL     OW 5584   0.204   2.132   1.508
 1614SOL    HW1 5585   0.114   2.165   1.504
 1614SOL    HW2 5586   0.195   2.043   1.545
 1615SOL     OW 5587   1.636   3.238   0.089
 1615SOL    HW1 5588   1.603   3.320   0.053
 1615SOL    HW2 5589   1.567   3.174   0.069
 1616SOL     OW 5590   0.464   3.605   0.322
 1616SOL    HW1 5591   0.502   3.666   0.385
 1616SOL    HW2 5592   0.539   3.570   0.274
 1617SOL     OW 5593   1.405   1.964   0.434
 1617SOL    HW1 5594   1.389   1.948   0.341
 1617SOL    HW2 5595   1.486   1.916   0.453
 1618SOL     OW 5596   0.256   3.657   1.224
 1618SOL    HW1 5597   0.297   3.588   1.276
 1618SOL    HW2 5598   0.253   3.622   1.135
 1619SOL     OW 5599   0.939   3.564   0.899
 1619SOL    HW1 5600   1.017   3.514   0.921
 1619SOL    HW2 5601   0.896   3.514   0.829
 1620SOL     OW 5602   0.399   2.556   0.471
 1620SOL    HW1 5603   0.422   2.464   0.485
 1620SOL    HW2 5604   0.307   2.563   0.499
 1621SOL     OW 5605   1.529   2.080   1.722
 1621SOL    HW1 5606   1.543   2.101   1.815
 1621SOL    HW2 5607   1.456   2.018   1.722
 1622SOL     OW 5608   0.765   2.141   1.755
 1622SOL    HW1 5609   0.845   2.089   1.752
 1622SOL    HW2 5610   0.719   2.109   1.833
 1623SOL     OW 5611   0.876   3.383   1.194
 1623SOL    HW1 5612   0.859   3.346   1.108
 1623SOL    HW2 5613   0.945   3.328   1.230
 1624SOL     OW 5614   1.340   2.451   1.433
 1624SOL    HW1 5615   1.370   2.420   1.518
 1624SOL    HW2 5616   1.376   2.539   1.425
 1625SOL     OW 5617   0.818   3.251   0.944
 1625SOL    HW1 5618   0.904   3.240   0.901
 1625SOL    HW2 5619   0.756   3.256   0.871
 1626SOL     OW 5620   0.929   2.371   0.900
 1626SOL    HW1 5621   0.904   2.363   0.808
 1626SOL    HW2 5622   0.959   2.284   0.925
 1627SOL     OW 5623   0.559   1.921   0.501
 1627SOL    HW1 5624   0.478   1.919   0.552
 1627SOL    HW2 5625   0.551   1.999   0.446
 1628SOL     OW 5626   1.431   3.071   0.044
 1628SOL    HW1 5627   1.450   2.991   0.092
 1628SOL    HW2 5628   1.339   3.091   0.064
 1629SOL     OW 5629   0.260   1.874   0.214
 1629SOL    HW1 5630   0.291   1.958   0.180
 1629SOL    HW2 5631   0.340   1.826   0.237
 1630SOL     OW 5632   0.944   2.109   0.460
 1630SOL    HW1 5633   0.912   2.150   0.380
 1630SOL    HW2 5634   1.038   2.128   0.461
 1631SOL     OW 5635   1.080   2.545   1.457
 1631SOL    HW1 5636   1.014   2.477   1.462
 1631SOL    HW2 5637   1.164   2.498   1.452
 1632SOL     OW 5638   1.219   3.435   0.795
 1632SOL    HW1 5639   1.234   3.500   0.726
 1632SOL    HW2 5640   1.290   3.449   0.858
 1633SOL     OW 5641   0.466   3.014   0.731
 1633SOL    HW1 5642   0.396   2.989   0.791
 1633SOL    HW2 5643   0.428   3.000   0.644
 1634SOL     OW 5644   1.264   3.656   0.609
 1634SOL    HW1 5645   1.314   3.721   0.559
 1634SOL    HW2 5646   1.191   3.705   0.646
 1635SOL     OW 5647   0.995   2.404   0.052
 1635SOL    HW1 5648   0.989   2.384  13.858
 1635SOL    HW2 5649   1.088   2.391   0.073
 1636SOL     OW 5650   0.083   2.436   1.389
 1636SOL    HW1 5651   0.173   2.423   1.359
 1636SOL    HW2 5652   0.090   2.505   1.455
 1637SOL     OW 5653   0.567   2.089   1.168
 1637SOL    HW1 5654   0.608   2.015   1.212
 1637SOL    HW2 5655   0.475   2.085   1.196
 1638SOL     OW 5656   0.867   2.320   0.639
 1638SOL    HW1 5657   0.825   2.376   0.573
 1638SOL    HW2 5658   0.889   2.240   0.591
 1639SOL     OW 5659   1.018   1.916   0.748
 1639SOL    HW1 5660   0.958   1.911   0.673
 1639SOL    HW2 5661   0.993   1.841   0.803
 1640SOL     OW 5662   1.439   3.023   0.857
 1640SOL    HW1 5663   1.367   2.959   0.856
 1640SOL    HW2 5664   1.463   3.033   0.765
 1641SOL     OW 5665   1.463   2.471   0.970
 1641SOL    HW1 5666   1.408   2.392   0.972
 1641SOL    HW2 5667   1.520   2.462   1.046
 1642SOL     OW 5668   1.846   2.671   0.382
 1642SOL    HW1 5669   1.902   2.620   0.441
 1642SOL    HW2 5670   1.816   2.607   0.317
 1643SOL     OW 5671   0.490   3.249   0.165
 1643SOL    HW1 5672   0.420   3.213   0.219
 1643SOL    HW2 5673   0.445   3.295   0.094
 1644SOL     OW 5674   1.674   3.123   0.647
 1644SOL    HW1 5675   1.769   3.125   0.659
 1644SOL    HW2 5676   1.646   3.214   0.659
 1645SOL     OW 5677   1.422   2.443   0.087
 1645SOL    HW1 5678   1.353   2.437   0.153
 1645SOL    HW2 5679   1.464   2.357   0.088
 1646SOL     OW 5680   0.535   2.126   0.327
 1646SOL    HW1 5681   0.586   2.094   0.253
 1646SOL    HW2 5682   0.498   2.209   0.297
 1647SOL     OW 5683   1.750   3.104   1.564
 1647SOL    HW1 5684   1.837   3.066   1.560
 1647SOL    HW2 5685   1.765   3.195   1.592
 1648SOL     OW 5686   1.055   3.213   1.331
 1648SOL    HW1 5687   0.980   3.183   1.382
 1648SOL    HW2 5688   1.130   3.173   1.373
 1649SOL     OW 5689   1.610   3.489   1.658
 1649SOL    HW1 5690   1.601   3.523   1.569
 1649SOL    HW2 5691   1.693   3.440   1.656
 1650SOL     OW 5692   1.134   3.069   1.102
 1650SOL    HW1 5693   1.074   3.107   1.167
 1650SOL    HW2 5694   1.104   3.104   1.018
 1651SOL     OW 5695   1.624   2.959   1.076
 1651SOL    HW1 5696   1.618   3.021   1.147
 1651SOL    HW2 5697   1.548   2.977   1.020
 1652SOL     OW 5698   0.918   1.956   1.392
 1652SOL    HW1 5699   0.941   1.938   1.301
 1652SOL    HW2 5700   0.997   1.996   1.429
 1653SOL     OW 5701   0.984   2.977   1.723
 1653SOL    HW1 5702   0.893   2.994   1.746
 1653SOL    HW2 5703   0.981   2.898   1.668
 1654SOL     OW 5704   0.717   2.922   0.378
 1654SOL    HW1 5705   0.702   2.902   0.470
 1654SOL    HW2 5706   0.791   2.868   0.353
 1655SOL     OW 5707   0.423   2.680   1.253
 1655SOL    HW1 5708   0.491   2.688   1.320
 1655SOL    HW2 5709   0.389   2.591   1.264
 1656SOL     OW 5710   1.264   2.237   1.280
 1656SOL    HW1 5711   1.296   2.315   1.325
 1656SOL    HW2 5712   1.173   2.257   1.257
 1657SOL     OW 5713   0.065   3.441   1.345
 1657SOL    HW1 5714   0.071   3.484   1.259
 1657SOL    HW2 5715   0.156   3.432   1.373
 1658SOL     OW 5716   0.359   2.964   0.480
 1658SOL    HW1 5717   0.350   3.042   0.425
 1658SOL    HW2 5718   0.378   2.893   0.419
 1659SOL     OW 5719   0.548   2.394   0.861
 1659SOL    HW1 5720   0.561   2.452   0.786
 1659SOL    HW2 5721   0.616   2.421   0.924
 1660SOL     OW 5722   1.248   3.209   0.400
 1660SOL    HW1 5723   1.304   3.282   0.426
 1660SOL    HW2 5724   1.161   3.233   0.432
 1661SOL     OW 5725   1.287   3.322   1.149
 1661SOL    HW1 5726   1.343   3.327   1.226
 1661SOL    HW2 5727   1.231   3.246   1.164
 1662SOL     OW 5728   1.576   2.490   0.477
 1662SOL    HW1 5729   1.528   2.531   0.549
 1662SOL    HW2 5730   1.604   2.564   0.422
 1663SOL     OW 5731   0.345   3.391   1.316
 1663SOL    HW1 5732   0.335   3.340   1.236
 1663SOL    HW2 5733   0.439   3.405   1.324
 1664SOL     OW 5734   0.418   2.600   1.602
 1664SOL    HW1 5735   0.482   2.644   1.545
 1664SOL    HW2 5736   0.458   2.514   1.619
 1665SOL     OW 5737   1.603   2.651   1.676
 1665SOL    HW1 5738   1.517   2.693   1.672
 1665SOL    HW2 5739   1.655   2.696   1.610
 1666SOL     OW 5740   0.996   1.993   1.753
 1666SOL    HW1 5741   1.055   2.066   1.731
 1666SOL    HW2 5742   1.045   1.914   1.728
 1667SOL     OW 5743   0.497   1.896   1.747
 1667SOL    HW1 5744   0.452   1.844   1.680
 1667SOL    HW2 5745   0.443   1.975   1.757
 1668SOL     OW 5746   0.585   2.737   1.032
 1668SOL    HW1 5747   0.620   2.826   1.034
 1668SOL    HW2 5748   0.530   2.731   1.110
 1669SOL     OW 5749   1.350   2.720   1.023
 1669SOL    HW1 5750   1.265   2.707   0.982
 1669SOL    HW2 5751   1.394   2.636   1.014
 1670SOL     OW 5752   1.220   2.403   0.272
 1670SOL    HW1 5753   1.222   2.324   0.325
 1670SOL    HW2 5754   1.163   2.463   0.321
 1671SOL     OW 5755   0.310   2.057   1.247
 1671SOL    HW1 5756   0.263   2.093   1.322
 1671SOL    HW2 5757   0.287   1.964   1.247
 1672SOL     OW 5758   0.062   3.167   1.281
 1672SOL    HW1 5759   0.092   3.125   1.361
 1672SOL    HW2 5760   0.053   3.259   1.303
 1673SOL     OW 5761   0.722   2.492   1.054
 1673SOL    HW1 5762   0.798   2.478   0.998
 1673SOL    HW2 5763   0.694   2.581   1.034
 1674SOL     OW 5764   1.738   2.821   1.856
 1674SOL    HW1 5765   1.692   2.757   1.801
 1674SOL    HW2 5766   1.677   2.837   1.929
 1675SOL     OW 5767   0.317   1.921   0.624
 1675SOL    HW1 5768   0.292   2.012   0.643
 1675SOL    HW2 5769   0.322   1.879   0.709
 1676SOL     OW 5770   1.623   2.243   0.381
 1676SOL    HW1 5771   1.620   2.183   0.455
 1676SOL    HW2 5772   1.598   2.328   0.418
 1677SOL     OW 5773   1.029   2.620   0.959
 1677SOL    HW1 5774   1.021   2.637   1.052
 1677SOL    HW2 5775   1.002   2.529   0.949
 1678SOL     OW 5776   0.986   3.430   1.722
 1678SOL    HW1 5777   0.966   3.470   1.637
 1678SOL    HW2 5778   1.028   3.347   1.699
 1679SOL     OW 5779   1.852   3.364   1.603
 1679SOL    HW1 5780   1.873   3.392   1.514
 1679SOL    HW2 5781   1.933   3.379   1.653
 1680SOL     OW 5782   0.354   2.784   1.799
 1680SOL    HW1 5783   0.432   2.806   1.850
 1680SOL    HW2 5784   0.383   2.717   1.738
 1681SOL     OW 5785   1.516   2.168   0.141
 1681SOL    HW1 5786   1.496   2.074   0.148
 1681SOL    HW2 5787   1.556   2.190   0.224
 1682SOL     OW 5788   1.290   2.689   0.056
 1682SOL    HW1 5789   1.338   2.607   0.059
 1682SOL    HW2 5790   1.308   2.724  13.868
 1683SOL     OW 5791   1.069   3.200   0.856
 1683SOL    HW1 5792   1.073   3.128   0.793
 1683SOL    HW2 5793   1.127   3.267   0.821
 1684SOL     OW 5794   0.314   2.663   0.949
 1684SOL    HW1 5795   0.408   2.680   0.944
 1684SOL    HW2 5796   0.308   2.572   0.981
 1685SOL     OW 5797   0.328   2.383   1.015
 1685SOL    HW1 5798   0.294   2.295   0.999
 1685SOL    HW2 5799   0.405   2.390   0.957
 1686SOL     OW 5800   1.134   2.235   1.685
 1686SOL    HW1 5801   1.086   2.290   1.748
 1686SOL    HW2 5802   1.222   2.274   1.681
 1687SOL     OW 5803   1.160   2.061   1.472
 1687SOL    HW1 5804   1.149   2.124   1.543
 1687SOL    HW2 5805   1.203   2.111   1.402
 1688SOL     OW 5806   0.015   3.189   0.192
 1688SOL    HW1 5807   3.921   3.204   0.184
 1688SOL    HW2 5808   0.022   3.096   0.213
 1689SOL     OW 5809   0.075   3.664   0.894
 1689SOL    HW1 5810   0.094   3.570   0.889
 1689SOL    HW2 5811   0.161   3.705   0.896
 1690SOL     OW 5812   0.507   3.423   0.919
 1690SOL    HW1 5813   0.572   3.491   0.937
 1690SOL    HW2 5814   0.549   3.366   0.855
 1691SOL     OW 5815   0.975   2.650   1.224
 1691SOL    HW1 5816   1.035   2.630   1.297
 1691SOL    HW2 5817   0.892   2.612   1.251
 1692SOL     OW 5818   0.038   2.423   1.109
 1692SOL    HW1 5819   0.121   2.400   1.067
 1692SOL    HW2 5820   0.057   2.420   1.203
 1693SOL     OW 5821   0.207   2.374   1.728
 1693SOL    HW1 5822   0.243   2.324   1.655
 1693SOL    HW2 5823   0.163   2.448   1.686
 1694SOL     OW 5824   1.375   2.799   1.656
 1694SOL    HW1 5825   1.397   2.892   1.652
 1694SOL    HW2 5826   1.371   2.772   1.564
 1695SOL     OW 5827   0.815   2.439   0.379
 1695SOL    HW1 5828   0.824   2.364   0.321
 1695SOL    HW2 5829   0.743   2.490   0.341
 1696SOL     OW 5830   1.638   2.463   1.182
 1696SOL    HW1 5831   1.627   2.409   1.260
 1696SOL    HW2 5832   1.723   2.439   1.147
 1697SOL     OW 5833   0.301   3.406   1.723
 1697SOL    HW1 5834   0.253   3.475   1.769
 1697SOL    HW2 5835   0.272   3.325   1.765
 1698SOL     OW 5836   0.711   2.310   1.255
 1698SOL    HW1 5837   0.657   2.236   1.227
 1698SOL    HW2 5838   0.704   2.373   1.184
 1699SOL     OW 5839   0.926   3.532   1.470
 1699SOL    HW1 5840   0.899   3.493   1.387
 1699SOL    HW2 5841   0.918   3.626   1.456
 1700SOL     OW 5842   0.425   2.355   0.233
 1700SOL    HW1 5843   0.502   2.412   0.237
 1700SOL    HW2 5844   0.354   2.413   0.205
 1701SOL     OW 5845   0.155   2.996   1.477
 1701SOL    HW1 5846   0.154   2.946   1.558
 1701SOL    HW2 5847   0.170   2.931   1.408
 1702SOL     OW 5848   1.322   2.906   1.220
 1702SOL    HW1 5849   1.344   2.843   1.151
 1702SOL    HW2 5850   1.255   2.962   1.181
 1703SOL     OW 5851   1.317   2.719   0.327
 1703SOL    HW1 5852   1.243   2.685   0.378
 1703SOL    HW2 5853   1.292   2.703   0.236
 1704SOL     OW 5854   1.775   3.599   1.153
 1704SOL    HW1 5855   1.837   3.627   1.086
 1704SOL    HW2 5856   1.752   3.509   1.128
 1705SOL     OW 5857   1.244   3.594   1.106
 1705SOL    HW1 5858   1.327   3.617   1.064
 1705SOL    HW2 5859   1.252   3.501   1.126
 1706SOL     OW 5860   0.077   3.074   1.028
 1706SOL    HW1 5861   0.085   3.102   1.119
 1706SOL    HW2 5862   3.985   3.087   1.007
 1707SOL     OW 5863   0.680   3.528   1.737
 1707SOL    HW1 5864   0.621   3.603   1.740
 1707SOL    HW2 5865   0.740   3.549   1.665
 1708SOL     OW 5866   0.934   1.975   0.126
 1708SOL    HW1 5867   0.965   1.963   0.037
 1708SOL    HW2 5868   0.982   1.910   0.178
 1709SOL     OW 5869   1.390   3.434   0.489
 1709SOL    HW1 5870   1.452   3.469   0.425
 1709SOL    HW2 5871   1.342   3.511   0.520
 1710SOL     OW 5872   0.172   3.620   1.833
 1710SOL    HW1 5873   0.117   3.567   1.891
 1710SOL    HW2 5874   0.218   3.681   1.891
 1711SOL     OW 5875   1.278   2.788   0.671
 1711SOL    HW1 5876   1.352   2.728   0.679
 1711SOL    HW2 5877   1.311   2.861   0.618
 1712SOL     OW 5878   0.807   3.137   1.426
 1712SOL    HW1 5879   0.779   3.178   1.508
 1712SOL    HW2 5880   0.736   3.154   1.365
 1713SOL     OW 5881   0.671   3.451   0.193
 1713SOL    HW1 5882   0.658   3.493   0.108
 1713SOL    HW2 5883   0.625   3.368   0.185
 1714SOL     OW 5884   1.621   3.589   1.390
 1714SOL    HW1 5885   1.673   3.593   1.310
 1714SOL    HW2 5886   1.606   3.680   1.414
 1715SOL     OW 5887   0.265   2.172   0.716
 1715SOL    HW1 5888   0.178   2.205   0.691
 1715SOL    HW2 5889   0.260   2.164   0.811
 1716SOL     OW 5890   1.222   3.459   0.036
 1716SOL    HW1 5891   1.210   3.368   0.062
 1716SOL    HW2 5892   1.176   3.467  13.852
 1717SOL     OW 5893   0.823   2.868   1.374
 1717SOL    HW1 5894   0.867   2.863   1.290
 1717SOL    HW2 5895   0.820   2.962   1.394
 1718SOL     OW 5896   0.923   2.774   0.290
 1718SOL    HW1 5897   0.992   2.813   0.237
 1718SOL    HW2 5898   0.967   2.703   0.337
 1719SOL     OW 5899   1.484   3.515   0.064
 1719SOL    HW1 5900   1.392   3.489   0.059
 1719SOL    HW2 5901   1.519   3.499  13.876
 1720SOL     OW 5902   0.374   3.165   1.491
 1720SOL    HW1 5903   0.359   3.245   1.441
 1720SOL    HW2 5904   0.297   3.111   1.474
 1721SOL     OW 5905   1.608   3.146   1.280
 1721SOL    HW1 5906   1.669   3.133   1.352
 1721SOL    HW2 5907   1.548   3.213   1.311
 1722SOL     OW 5908   1.059   2.971   0.710
 1722SOL    HW1 5909   0.987   2.920   0.747
 1722SOL    HW2 5910   1.123   2.906   0.682
 1723SOL     OW 5911   1.025   2.103   0.966
 1723SOL    HW1 5912   1.021   2.057   0.883
 1723SOL    HW2 5913   1.019   2.035   1.033
 1724SOL     OW 5914   0.608   3.347   0.482
 1724SOL    HW1 5915   0.656   3.300   0.413
 1724SOL    HW2 5916   0.536   3.390   0.436
 1725SOL     OW 5917   1.734   2.248   1.379
 1725SOL    HW1 5918   1.803   2.314   1.384
 1725SOL    HW2 5919   1.771   2.178   1.324
 1726SOL     OW 5920   0.266   3.176   0.311
 1726SOL    HW1 5921   0.186   3.202   0.264
 1726SOL    HW2 5922   0.264   3.226   0.392
 1727SOL     OW 5923   0.108   2.858   1.717
 1727SOL    HW1 5924   0.049   2.854   1.792
 1727SOL    HW2 5925   0.195   2.841   1.755
 1728SOL     OW 5926   0.677   2.058   1.500
 1728SOL    HW1 5927   0.761   2.036   1.460
 1728SOL    HW2 5928   0.699   2.091   1.587
 1729SOL     OW 5929   0.051   2.222   0.035
 1729SOL    HW1 5930   3.962   2.233   0.069
 1729SOL    HW2 5931   0.040   2.223  13.840
 1730SOL     OW 5932   1.426   2.720   1.397
 1730SOL    HW1 5933   1.377   2.781   1.342
 1730SOL    HW2 5934   1.515   2.723   1.362
 1731SOL     OW 5935   0.051   2.038   0.312
 1731SOL    HW1 5936   0.083   2.101   0.248
 1731SOL    HW2 5937   0.111   1.964   0.304
 1732SOL     OW 5938   1.186   3.205   0.123
 1732SOL    HW1 5939   1.091   3.198   0.112
 1732SOL    HW2 5940   1.201   3.193   0.217
 1733SOL     OW 5941   0.620   2.692   1.437
 1733SOL    HW1 5942   0.677   2.768   1.422
 1733SOL    HW2 5943   0.681   2.619   1.444
 1734SOL     OW 5944   1.486   3.643   0.982
 1734SOL    HW1 5945   1.508   3.703   0.910
 1734SOL    HW2 5946   1.571   3.619   1.020
 1735SOL     OW 5947   0.716   2.423   1.702
 1735SOL    HW1 5948   0.762   2.483   1.761
 1735SOL    HW2 5949   0.739   2.336   1.735
 1736SOL     OW 5950   1.474   3.058   1.629
 1736SOL    HW1 5951   1.461   3.072   1.723
 1736SOL    HW2 5952   1.566   3.077   1.614
 1737SOL     OW 5953   0.378   3.609   1.560
 1737SOL    HW1 5954   0.290   3.645   1.547
 1737SOL    HW2 5955   0.363   3.526   1.604
 1738SOL     OW 5956   1.666   2.743   1.253
 1738SOL    HW1 5957   1.658   2.658   1.210
 1738SOL    HW2 5958   1.655   2.807   1.183
 1739SOL     OW 5959   1.219   2.181   0.456
 1739SOL    HW1 5960   1.283   2.110   0.450
 1739SOL    HW2 5961   1.246   2.231   0.533
 1740SOL     OW 5962   0.586   2.597   0.675
 1740SOL    HW1 5963   0.626   2.683   0.660
 1740SOL    HW2 5964   0.522   2.588   0.605
 1741SOL     OW 5965   1.748   2.231   1.661
 1741SOL    HW1 5966   1.752   2.237   1.565
 1741SOL    HW2 5967   1.676   2.171   1.678
 1742SOL     OW 5968   1.746   2.807   1.507
 1742SOL    HW1 5969   1.733   2.901   1.519
 1742SOL    HW2 5970   1.728   2.792   1.415
 1743SOL     OW 5971   0.908   3.262   0.071
 1743SOL    HW1 5972   0.844   3.241   0.140
 1743SOL    HW2 5973   0.857   3.255  13.890
 1744SOL     OW 5974   0.658   3.649   0.931
 1744SOL    HW1 5975   0.637   3.741   0.914
 1744SOL    HW2 5976   0.754   3.646   0.930
 1745SOL     OW 5977   0.869   2.831   0.853
 1745SOL    HW1 5978   0.919   2.759   0.891
 1745SOL    HW2 5979   0.832   2.877   0.928
 1746SOL     OW 5980   1.098   2.874   0.111
 1746SOL    HW1 5981   1.089   2.920   0.027
 1746SOL    HW2 5982   1.171   2.814   0.097
 1747SOL     OW 5983   1.849   3.411   0.841
 1747SOL    HW1 5984   1.769   3.403   0.787
 1747SOL    HW2 5985   1.833   3.353   0.915
 1748SOL     OW 5986   0.229   3.166   1.857
 1748SOL    HW1 5987   0.153   3.115   1.830
 1748SOL    HW2 5988   0.217   3.179   1.951
 1749SOL     OW 5989   0.109   3.145   0.731
 1749SOL    HW1 5990   0.131   3.098   0.812
 1749SOL    HW2 5991   0.102   3.076   0.665
 1750SOL     OW 5992   0.684   3.268   1.632
 1750SOL    HW1 5993   0.604   3.226   1.662
 1750SOL    HW2 5994   0.681   3.356   1.669
 1751SOL     OW 5995   0.440   2.297   0.539
 1751SOL    HW1 5996   0.468   2.225   0.484
 1751SOL    HW2 5997   0.384   2.257   0.606
 1752SOL     OW 5998   1.700   3.345   1.088
 1752SOL    HW1 5999   1.619   3.326   1.041
 1752SOL    HW2 6000   1.706   3.278   1.156
 1753SOL     OW 6001   0.336   2.421   1.292
 1753SOL    HW1 6002   0.389   2.363   1.347
 1753SOL    HW2 6003   0.350   2.389   1.203
 1754SOL     OW 6004   0.830   3.442   0.676
 1754SOL    HW1 6005   0.812   3.502   0.603
 1754SOL    HW2 6006   0.756   3.381   0.676
 1755SOL     OW 6007   1.435   2.092   1.120
 1755SOL    HW1 6008   1.439   2.002   1.154
 1755SOL    HW2 6009   1.382   2.140   1.183
 1756SOL     OW 6010   1.010   1.878   1.137
 1756SOL    HW1 6011   0.956   1.811   1.095
 1756SOL    HW2 6012   1.098   1.840   1.139
 1757SOL     OW 6013   0.781   3.186   0.321
 1757SOL    HW1 6014   0.750   3.096   0.337
 1757SOL    HW2 6015   0.861   3.194   0.372
 1758SOL     OW 6016   0.621   3.415   1.287
 1758SOL    HW1 6017   0.621   3.497   1.336
 1758SOL    HW2 6018   0.709   3.410   1.249
 1759SOL     OW 6019   1.346   1.926   0.165
 1759SOL    HW1 6020   1.378   1.871   0.093
 1759SOL    HW2 6021   1.263   1.886   0.191
 1760SOL     OW 6022   1.299   2.325   0.679
 1760SOL    HW1 6023   1.246   2.404   0.683
 1760SOL    HW2 6024   1.292   2.287   0.767
 1761SOL     OW 6025   1.573   2.051   0.875
 1761SOL    HW1 6026   1.536   2.080   0.959
 1761SOL    HW2 6027   1.585   2.132   0.825
 1762SOL     OW 6028   0.044   2.890   0.256
 1762SOL    HW1 6029   0.137   2.872   0.251
 1762SOL    HW2 6030   0.008   2.817   0.307
 1763SOL     OW 6031   0.894   3.522   0.344
 1763SOL    HW1 6032   0.819   3.492   0.293
 1763SOL    HW2 6033   0.862   3.597   0.393
 1764SOL     OW 6034   0.231   2.488   1.980
 1764SOL    HW1 6035   0.138   2.496   2.001
 1764SOL    HW2 6036   0.232   2.456   1.890
 1765SOL     OW 6037   0.229   2.134   2.849
 1765SOL    HW1 6038   0.250   2.100   2.935
 1765SOL    HW2 6039   0.134   2.127   2.842
 1766SOL     OW 6040   0.007   2.220   2.492
 1766SOL    HW1 6041   3.917   2.238   2.521
 1766SOL    HW2 6042   3.997   2.190   2.401
 1767SOL     OW 6043   0.581   3.154   3.057
 1767SOL    HW1 6044   0.496   3.156   3.014
 1767SOL    HW2 6045   0.595   3.243   3.088
 1768SOL     OW 6046   1.566   3.373   2.571
 1768SOL    HW1 6047   1.524   3.350   2.654
 1768SOL    HW2 6048   1.495   3.376   2.508
 1769SOL     OW 6049   1.133   2.560   2.558
 1769SOL    HW1 6050   1.180   2.642   2.546
 1769SOL    HW2 6051   1.085   2.572   2.641
 1770SOL     OW 6052   1.763   2.473   2.090
 1770SOL    HW1 6053   1.739   2.471   1.997
 1770SOL    HW2 6054   1.756   2.382   2.118
 1771SOL     OW 6055   0.750   2.999   2.906
 1771SOL    HW1 6056   0.688   3.036   2.969
 1771SOL    HW2 6057   0.787   3.075   2.862
 1772SOL     OW 6058   0.873   2.627   3.686
 1772SOL    HW1 6059   0.864   2.698   3.750
 1772SOL    HW2 6060   0.895   2.672   3.604
 1773SOL     OW 6061   0.685   2.862   2.507
 1773SOL    HW1 6062   0.751   2.852   2.575
 1773SOL    HW2 6063   0.616   2.915   2.548
 1774SOL     OW 6064   0.713   3.011   3.681
 1774SOL    HW1 6065   0.761   3.089   3.710
 1774SOL    HW2 6066   0.633   3.046   3.642
 1775SOL     OW 6067   0.351   3.262   2.940
 1775SOL    HW1 6068   0.269   3.245   2.893
 1775SOL    HW2 6069   0.400   3.320   2.882
 1776SOL     OW 6070   1.459   3.364   3.221
 1776SOL    HW1 6071   1.514   3.442   3.231
 1776SOL    HW2 6072   1.391   3.373   3.288
 1777SOL     OW 6073   0.450   2.258   3.346
 1777SOL    HW1 6074   0.526   2.200   3.351
 1777SOL    HW2 6075   0.375   2.202   3.361
 1778SOL     OW 6076   1.606   2.298   2.596
 1778SOL    HW1 6077   1.526   2.319   2.547
 1778SOL    HW2 6078   1.624   2.377   2.647
 1779SOL     OW 6079   0.222   3.572   2.328
 1779SOL    HW1 6080   0.220   3.656   2.372
 1779SOL    HW2 6081   0.299   3.576   2.271
 1780SOL     OW 6082   1.138   3.204   3.556
 1780SOL    HW1 6083   1.178   3.197   3.643
 1780SOL    HW2 6084   1.085   3.124   3.548
 1781SOL     OW 6085   0.253   3.306   2.401
 1781SOL    HW1 6086   0.224   3.397   2.388
 1781SOL    HW2 6087   0.184   3.267   2.455
 1782SOL     OW 6088   0.248   2.927   2.745
 1782SOL    HW1 6089   0.269   2.842   2.784
 1782SOL    HW2 6090   0.195   2.972   2.811
 1783SOL     OW 6091   0.609   3.648   3.288
 1783SOL    HW1 6092   0.527   3.634   3.335
 1783SOL    HW2 6093   0.636   3.737   3.312
 1784SOL     OW 6094   0.575   2.849   2.001
 1784SOL    HW1 6095   0.624   2.893   1.932
 1784SOL    HW2 6096   0.616   2.879   2.083
 1785SOL     OW 6097   1.556   1.997   3.306
 1785SOL    HW1 6098   1.576   2.082   3.266
 1785SOL    HW2 6099   1.553   2.015   3.400
 1786SOL     OW 6100   0.144   2.518   2.435
 1786SOL    HW1 6101   0.087   2.441   2.433
 1786SOL    HW2 6102   0.108   2.572   2.506
 1787SOL     OW 6103   1.844   3.606   2.199
 1787SOL    HW1 6104   1.913   3.583   2.261
 1787SOL    HW2 6105   1.861   3.697   2.176
 1788SOL     OW 6106   0.040   3.451   2.001
 1788SOL    HW1 6107   0.036   3.360   2.029
 1788SOL    HW2 6108   3.955   3.488   2.025
 1789SOL     OW 6109   1.690   2.781   2.505
 1789SOL    HW1 6110   1.769   2.735   2.477
 1789SOL    HW2 6111   1.665   2.833   2.429
 1790SOL     OW 6112   1.649   2.966   2.291
 1790SOL    HW1 6113   1.735   2.967   2.250
 1790SOL    HW2 6114   1.655   3.029   2.363
 1791SOL     OW 6115   0.142   2.614   3.452
 1791SOL    HW1 6116   0.238   2.611   3.446
 1791SOL    HW2 6117   0.124   2.702   3.486
 1792SOL     OW 6118   0.617   3.249   2.596
 1792SOL    HW1 6119   0.570   3.167   2.605
 1792SOL    HW2 6120   0.599   3.277   2.506
 1793SOL     OW 6121   1.286   3.098   3.283
 1793SOL    HW1 6122   1.317   3.030   3.223
 1793SOL    HW2 6123   1.345   3.093   3.358
 1794SOL     OW 6124   0.822   1.864   2.376
 1794SOL    HW1 6125   0.862   1.948   2.352
 1794SOL    HW2 6126   0.729   1.882   2.379
 1795SOL     OW 6127   0.184   2.811   3.143
 1795SOL    HW1 6128   0.272   2.776   3.131
 1795SOL    HW2 6129   0.133   2.774   3.071
 1796SOL     OW 6130   1.531   2.860   2.062
 1796SOL    HW1 6131   1.462   2.803   2.094
 1796SOL    HW2 6132   1.573   2.894   2.141
 1797SOL     OW 6133   1.222   3.667   3.490
 1797SOL    HW1 6134   1.195   3.729   3.422
 1797SOL    HW2 6135   1.222   3.582   3.447
 1798SOL     OW 6136   0.343   2.109   3.681
 1798SOL    HW1 6137   0.378   2.198   3.688
 1798SOL    HW2 6138   0.251   2.117   3.705
 1799SOL     OW 6139   1.467   3.281   2.810
 1799SOL    HW1 6140   1.400   3.297   2.877
 1799SOL    HW2 6141   1.453   3.190   2.784
 1800SOL     OW 6142   1.653   3.603   2.443
 1800SOL    HW1 6143   1.639   3.572   2.354
 1800SOL    HW2 6144   1.631   3.529   2.499
 1801SOL     OW 6145   0.596   2.576   2.129
 1801SOL    HW1 6146   0.601   2.661   2.085
 1801SOL    HW2 6147   0.533   2.590   2.200
 1802SOL     OW 6148   1.280   2.226   2.798
 1802SOL    HW1 6149   1.192   2.190   2.807
 1802SOL    HW2 6150   1.335   2.169   2.852
 1803SOL     OW 6151   1.576   3.538   2.171
 1803SOL    HW1 6152   1.669   3.559   2.165
 1803SOL    HW2 6153   1.550   3.519   2.081
 1804SOL     OW 6154   0.791   2.480   3.311
 1804SOL    HW1 6155   0.765   2.454   3.400
 1804SOL    HW2 6156   0.756   2.411   3.255
 1805SOL     OW 6157   1.393   2.335   3.540
 1805SOL    HW1 6158   1.396   2.381   3.624
 1805SOL    HW2 6159   1.452   2.261   3.550
 1806SOL     OW 6160   0.951   2.747   3.447
 1806SOL    HW1 6161   1.006   2.679   3.409
 1806SOL    HW2 6162   0.902   2.783   3.373
 1807SOL     OW 6163   0.994   2.273   3.097
 1807SOL    HW1 6164   0.905   2.291   3.128
 1807SOL    HW2 6165   0.981   2.229   3.012
 1808SOL     OW 6166   1.054   2.560   2.287
 1808SOL    HW1 6167   1.071   2.554   2.381
 1808SOL    HW2 6168   0.971   2.514   2.274
 1809SOL     OW 6169   0.083   2.693   2.651
 1809SOL    HW1 6170   0.155   2.661   2.706
 1809SOL    HW2 6171   0.104   2.785   2.635
 1810SOL     OW 6172   0.127   3.719   3.443
 1810SOL    HW1 6173   0.135   3.687   3.532
 1810SOL    HW2 6174   0.035   3.706   3.421
 1811SOL     OW 6175   0.898   2.212   2.056
 1811SOL    HW1 6176   0.938   2.276   1.996
 1811SOL    HW2 6177   0.913   2.128   2.014
 1812SOL     OW 6178   1.677   2.448   3.694
 1812SOL    HW1 6179   1.649   2.521   3.638
 1812SOL    HW2 6180   1.714   2.384   3.633
 1813SOL     OW 6181   1.380   3.004   2.402
 1813SOL    HW1 6182   1.459   2.992   2.349
 1813SOL    HW2 6183   1.327   3.066   2.352
 1814SOL     OW 6184   0.547   2.039   2.758
 1814SOL    HW1 6185   0.553   2.072   2.847
 1814SOL    HW2 6186   0.545   2.118   2.703
 1815SOL     OW 6187   1.001   3.307   2.331
 1815SOL    HW1 6188   0.967   3.381   2.282
 1815SOL    HW2 6189   0.979   3.326   2.422
 1816SOL     OW 6190   0.359   3.673   2.726
 1816SOL    HW1 6191   0.440   3.623   2.739
 1816SOL    HW2 6192   0.386   3.764   2.735
 1817SOL     OW 6193   1.800   2.912   2.733
 1817SOL    HW1 6194   1.748   2.894   2.655
 1817SOL    HW2 6195   1.736   2.920   2.803
 1818SOL     OW 6196   1.227   3.399   3.373
 1818SOL    HW1 6197   1.215   3.327   3.435
 1818SOL    HW2 6198   1.157   3.388   3.309
 1819SOL     OW 6199   0.311   2.814   2.105
 1819SOL    HW1 6200   0.394   2.837   2.062
 1819SOL    HW2 6201   0.299   2.722   2.085
 1820SOL     OW 6202   1.481   2.610   2.585
 1820SOL    HW1 6203   1.477   2.568   2.671
 1820SOL    HW2 6204   1.560   2.665   2.589
 1821SOL     OW 6205   0.470   3.123   3.599
 1821SOL    HW1 6206   0.444   3.131   3.507
 1821SOL    HW2 6207   0.388   3.125   3.647
 1822SOL     OW 6208   1.113   3.643   2.082
 1822SOL    HW1 6209   1.048   3.598   2.135
 1822SOL    HW2 6210   1.145   3.577   2.021
 1823SOL     OW 6211   0.204   2.132   3.371
 1823SOL    HW1 6212   0.114   2.165   3.366
 1823SOL    HW2 6213   0.195   2.043   3.407
 1824SOL     OW 6214   1.627   3.243   1.953
 1824SOL    HW1 6215   1.587   3.329   1.936
 1824SOL    HW2 6216   1.559   3.180   1.932
 1825SOL     OW 6217   0.467   3.603   2.183
 1825SOL    HW1 6218   0.506   3.664   2.245
 1825SOL    HW2 6219   0.540   3.573   2.129
 1826SOL     OW 6220   1.397   1.965   2.300
 1826SOL    HW1 6221   1.385   1.945   2.207
 1826SOL    HW2 6222   1.484   1.930   2.321
 1827SOL     OW 6223   0.255   3.657   3.086
 1827SOL    HW1 6224   0.297   3.588   3.139
 1827SOL    HW2 6225   0.253   3.621   2.998
 1828SOL     OW 6226   0.938   3.564   2.761
 1828SOL    HW1 6227   1.015   3.513   2.784
 1828SOL    HW2 6228   0.896   3.514   2.691
 1829SOL     OW 6229   0.400   2.554   2.332
 1829SOL    HW1 6230   0.424   2.463   2.348
 1829SOL    HW2 6231   0.309   2.560   2.359
 1830SOL     OW 6232   1.528   2.080   3.583
 1830SOL    HW1 6233   1.543   2.101   3.676
 1830SOL    HW2 6234   1.457   2.016   3.584
 1831SOL     OW 6235   0.647   1.979   1.957
 1831SOL    HW1 6236   0.704   1.905   1.979
 1831SOL    HW2 6237   0.595   1.947   1.883
 1832SOL     OW 6238   0.765   2.141   3.617
 1832SOL    HW1 6239   0.845   2.089   3.614
 1832SOL    HW2 6240   0.719   2.109   3.695
 1833SOL     OW 6241   0.876   3.383   3.056
 1833SOL    HW1 6242   0.858   3.346   2.970
 1833SOL    HW2 6243   0.945   3.328   3.093
 1834SOL     OW 6244   1.340   2.451   3.295
 1834SOL    HW1 6245   1.370   2.420   3.380
 1834SOL    HW2 6246   1.376   2.539   3.287
 1835SOL     OW 6247   0.818   3.252   2.806
 1835SOL    HW1 6248   0.903   3.240   2.763
 1835SOL    HW2 6249   0.756   3.256   2.733
 1836SOL     OW 6250   0.929   2.371   2.763
 1836SOL    HW1 6251   0.905   2.363   2.671
 1836SOL    HW2 6252   0.959   2.284   2.788
 1837SOL     OW 6253   0.558   1.924   2.355
 1837SOL    HW1 6254   0.476   1.929   2.404
 1837SOL    HW2 6255   0.562   2.006   2.306
 1838SOL     OW 6256   1.427   3.062   1.901
 1838SOL    HW1 6257   1.457   2.987   1.952
 1838SOL    HW2 6258   1.342   3.084   1.938
 1839SOL     OW 6259   0.309   1.913   2.031
 1839SOL    HW1 6260   0.372   1.951   1.970
 1839SOL    HW2 6261   0.360   1.848   2.080
 1840SOL     OW 6262   0.942   2.110   2.319
 1840SOL    HW1 6263   0.914   2.150   2.236
 1840SOL    HW2 6264   1.036   2.127   2.323
 1841SOL     OW 6265   1.080   2.545   3.319
 1841SOL    HW1 6266   1.014   2.476   3.324
 1841SOL    HW2 6267   1.164   2.498   3.314
 1842SOL     OW 6268   1.221   3.433   2.656
 1842SOL    HW1 6269   1.235   3.500   2.589
 1842SOL    HW2 6270   1.290   3.449   2.720
 1843SOL     OW 6271   0.467   3.014   2.595
 1843SOL    HW1 6272   0.397   2.989   2.655
 1843SOL    HW2 6273   0.431   2.998   2.508
 1844SOL     OW 6274   1.264   3.655   2.471
 1844SOL    HW1 6275   1.313   3.719   2.420
 1844SOL    HW2 6276   1.191   3.704   2.508
 1845SOL     OW 6277   1.024   2.398   1.888
 1845SOL    HW1 6278   0.981   2.481   1.869
 1845SOL    HW2 6279   1.090   2.420   1.954
 1846SOL     OW 6280   0.083   2.436   3.251
 1846SOL    HW1 6281   0.173   2.423   3.221
 1846SOL    HW2 6282   0.090   2.505   3.317
 1847SOL     OW 6283   0.567   2.089   3.030
 1847SOL    HW1 6284   0.608   2.015   3.074
 1847SOL    HW2 6285   0.475   2.085   3.058
 1848SOL     OW 6286   0.867   2.320   2.501
 1848SOL    HW1 6287   0.820   2.374   2.438
 1848SOL    HW2 6288   0.888   2.240   2.453
 1849SOL     OW 6289   1.017   1.917   2.611
 1849SOL    HW1 6290   0.959   1.911   2.535
 1849SOL    HW2 6291   0.993   1.841   2.665
 1850SOL     OW 6292   1.439   3.023   2.719
 1850SOL    HW1 6293   1.368   2.959   2.719
 1850SOL    HW2 6294   1.463   3.031   2.626
 1851SOL     OW 6295   1.463   2.471   2.832
 1851SOL    HW1 6296   1.408   2.393   2.833
 1851SOL    HW2 6297   1.520   2.461   2.908
 1852SOL     OW 6298   1.845   2.674   2.251
 1852SOL    HW1 6299   1.903   2.622   2.306
 1852SOL    HW2 6300   1.814   2.613   2.184
 1853SOL     OW 6301   0.488   3.283   2.019
 1853SOL    HW1 6302   0.411   3.254   2.069
 1853SOL    HW2 6303   0.472   3.250   1.931
 1854SOL     OW 6304   1.675   3.125   2.505
 1854SOL    HW1 6305   1.770   3.126   2.519
 1854SOL    HW2 6306   1.647   3.214   2.527
 1855SOL     OW 6307   1.391   2.437   1.930
 1855SOL    HW1 6308   1.336   2.413   2.005
 1855SOL    HW2 6309   1.480   2.416   1.959
 1856SOL     OW 6310   0.575   2.129   2.177
 1856SOL    HW1 6311   0.608   2.083   2.100
 1856SOL    HW2 6312   0.543   2.213   2.143
 1857SOL     OW 6313   1.750   3.104   3.426
 1857SOL    HW1 6314   1.837   3.066   3.422
 1857SOL    HW2 6315   1.765   3.195   3.454
 1858SOL     OW 6316   1.055   3.214   3.193
 1858SOL    HW1 6317   0.980   3.183   3.244
 1858SOL    HW2 6318   1.130   3.173   3.235
 1859SOL     OW 6319   1.610   3.489   3.520
 1859SOL    HW1 6320   1.601   3.523   3.431
 1859SOL    HW2 6321   1.693   3.440   3.518
 1860SOL     OW 6322   1.134   3.070   2.964
 1860SOL    HW1 6323   1.074   3.107   3.029
 1860SOL    HW2 6324   1.103   3.104   2.881
 1861SOL     OW 6325   1.624   2.958   2.937
 1861SOL    HW1 6326   1.618   3.021   3.010
 1861SOL    HW2 6327   1.548   2.977   2.883
 1862SOL     OW 6328   0.918   1.956   3.254
 1862SOL    HW1 6329   0.941   1.937   3.163
 1862SOL    HW2 6330   0.997   1.996   3.291
 1863SOL     OW 6331   0.984   2.977   3.585
 1863SOL    HW1 6332   0.893   2.993   3.608
 1863SOL    HW2 6333   0.981   2.898   3.530
 1864SOL     OW 6334   0.708   2.923   2.233
 1864SOL    HW1 6335   0.694   2.905   2.326
 1864SOL    HW2 6336   0.784   2.870   2.209
 1865SOL     OW 6337   0.423   2.680   3.115
 1865SOL    HW1 6338   0.491   2.688   3.182
 1865SOL    HW2 6339   0.389   2.591   3.126
 1866SOL     OW 6340   1.264   2.237   3.142
 1866SOL    HW1 6341   1.296   2.315   3.187
 1866SOL    HW2 6342   1.173   2.257   3.119
 1867SOL     OW 6343   0.065   3.441   3.207
 1867SOL    HW1 6344   0.071   3.486   3.123
 1867SOL    HW2 6345   0.156   3.432   3.235
 1868SOL     OW 6346   0.366   2.965   2.343
 1868SOL    HW1 6347   0.363   3.046   2.293
 1868SOL    HW2 6348   0.366   2.895   2.277
 1869SOL     OW 6349   0.548   2.396   2.723
 1869SOL    HW1 6350   0.562   2.453   2.648
 1869SOL    HW2 6351   0.616   2.421   2.786
 1870SOL     OW 6352   1.247   3.212   2.252
 1870SOL    HW1 6353   1.303   3.283   2.284
 1870SOL    HW2 6354   1.160   3.233   2.285
 1871SOL     OW 6355   1.287   3.322   3.010
 1871SOL    HW1 6356   1.343   3.327   3.088
 1871SOL    HW2 6357   1.231   3.246   3.025
 1872SOL     OW 6358   1.574   2.483   2.340
 1872SOL    HW1 6359   1.529   2.535   2.405
 1872SOL    HW2 6360   1.619   2.546   2.284
 1873SOL     OW 6361   0.345   3.391   3.179
 1873SOL    HW1 6362   0.335   3.340   3.098
 1873SOL    HW2 6363   0.439   3.405   3.187
 1874SOL     OW 6364   0.418   2.600   3.464
 1874SOL    HW1 6365   0.482   2.644   3.407
 1874SOL    HW2 6366   0.458   2.514   3.481
 1875SOL     OW 6367   1.603   2.652   3.539
 1875SOL    HW1 6368   1.517   2.694   3.534
 1875SOL    HW2 6369   1.655   2.696   3.472
 1876SOL     OW 6370   0.996   1.993   3.615
 1876SOL    HW1 6371   1.055   2.066   3.593
 1876SOL    HW2 6372   1.045   1.914   3.590
 1877SOL     OW 6373   0.497   1.896   3.609
 1877SOL    HW1 6374   0.452   1.844   3.542
 1877SOL    HW2 6375   0.443   1.975   3.619
 1878SOL     OW 6376   0.586   2.736   2.894
 1878SOL    HW1 6377   0.620   2.826   2.896
 1878SOL    HW2 6378   0.530   2.730   2.972
 1879SOL     OW 6379   1.350   2.720   2.885
 1879SOL    HW1 6380   1.264   2.707   2.845
 1879SOL    HW2 6381   1.395   2.636   2.875
 1880SOL     OW 6382   1.201   2.389   2.125
 1880SOL    HW1 6383   1.209   2.311   2.181
 1880SOL    HW2 6384   1.159   2.454   2.182
 1881SOL     OW 6385   0.310   2.057   3.109
 1881SOL    HW1 6386   0.263   2.093   3.184
 1881SOL    HW2 6387   0.287   1.964   3.109
 1882SOL     OW 6388   0.062   3.167   3.142
 1882SOL    HW1 6389   0.092   3.125   3.223
 1882SOL    HW2 6390   0.053   3.260   3.165
 1883SOL     OW 6391   0.722   2.492   2.916
 1883SOL    HW1 6392   0.798   2.478   2.860
 1883SOL    HW2 6393   0.694   2.581   2.897
 1884SOL     OW 6394   1.738   2.821   3.718
 1884SOL    HW1 6395   1.693   2.757   3.663
 1884SOL    HW2 6396   1.678   2.838   3.791
 1885SOL     OW 6397   0.316   1.923   2.482
 1885SOL    HW1 6398   0.293   2.014   2.502
 1885SOL    HW2 6399   0.323   1.880   2.567
 1886SOL     OW 6400   1.610   2.237   2.231
 1886SOL    HW1 6401   1.622   2.184   2.309
 1886SOL    HW2 6402   1.590   2.324   2.263
 1887SOL     OW 6403   1.029   2.620   2.821
 1887SOL    HW1 6404   1.021   2.637   2.914
 1887SOL    HW2 6405   1.003   2.529   2.810
 1888SOL     OW 6406   0.986   3.430   3.584
 1888SOL    HW1 6407   0.966   3.470   3.499
 1888SOL    HW2 6408   1.028   3.347   3.561
 1889SOL     OW 6409   1.852   3.364   3.465
 1889SOL    HW1 6410   1.873   3.392   3.376
 1889SOL    HW2 6411   1.933   3.379   3.515
 1890SOL     OW 6412   0.354   2.784   3.661
 1890SOL    HW1 6413   0.432   2.805   3.712
 1890SOL    HW2 6414   0.383   2.717   3.600
 1891SOL     OW 6415   1.528   2.130   1.987
 1891SOL    HW1 6416   1.462   2.068   2.017
 1891SOL    HW2 6417   1.562   2.170   2.068
 1892SOL     OW 6418   1.287   2.688   1.891
 1892SOL    HW1 6419   1.329   2.602   1.895
 1892SOL    HW2 6420   1.319   2.727   1.809
 1893SOL     OW 6421   1.068   3.200   2.718
 1893SOL    HW1 6422   1.073   3.128   2.655
 1893SOL    HW2 6423   1.127   3.267   2.682
 1894SOL     OW 6424   0.313   2.663   2.812
 1894SOL    HW1 6425   0.407   2.680   2.806
 1894SOL    HW2 6426   0.307   2.572   2.843
 1895SOL     OW 6427   0.328   2.383   2.877
 1895SOL    HW1 6428   0.294   2.295   2.861
 1895SOL    HW2 6429   0.405   2.390   2.819
 1896SOL     OW 6430   1.134   2.235   3.547
 1896SOL    HW1 6431   1.086   2.290   3.610
 1896SOL    HW2 6432   1.222   2.274   3.543
 1897SOL     OW 6433   1.160   2.061   3.334
 1897SOL    HW1 6434   1.149   2.124   3.405
 1897SOL    HW2 6435   1.203   2.111   3.264
 1898SOL     OW 6436   0.000   3.178   2.044
 1898SOL    HW1 6437   3.906   3.194   2.048
 1898SOL    HW2 6438   0.009   3.084   2.062
 1899SOL     OW 6439   0.076   3.662   2.757
 1899SOL    HW1 6440   0.094   3.568   2.752
 1899SOL    HW2 6441   0.162   3.703   2.757
 1900SOL     OW 6442   0.506   3.423   2.780
 1900SOL    HW1 6443   0.571   3.491   2.799
 1900SOL    HW2 6444   0.549   3.366   2.716
 1901SOL     OW 6445   0.975   2.650   3.086
 1901SOL    HW1 6446   1.034   2.630   3.159
 1901SOL    HW2 6447   0.892   2.612   3.112
 1902SOL     OW 6448   0.038   2.423   2.971
 1902SOL    HW1 6449   0.121   2.400   2.929
 1902SOL    HW2 6450   0.057   2.419   3.065
 1903SOL     OW 6451   0.207   2.374   3.590
 1903SOL    HW1 6452   0.243   2.324   3.517
 1903SOL    HW2 6453   0.162   2.448   3.548
 1904SOL     OW 6454   1.374   2.800   3.518
 1904SOL    HW1 6455   1.397   2.892   3.514
 1904SOL    HW2 6456   1.370   2.772   3.426
 1905SOL     OW 6457   0.819   2.431   2.226
 1905SOL    HW1 6458   0.824   2.356   2.167
 1905SOL    HW2 6459   0.745   2.482   2.193
 1906SOL     OW 6460   1.639   2.463   3.044
 1906SOL    HW1 6461   1.627   2.408   3.121
 1906SOL    HW2 6462   1.724   2.438   3.009
 1907SOL     OW 6463   0.301   3.406   3.585
 1907SOL    HW1 6464   0.253   3.475   3.631
 1907SOL    HW2 6465   0.272   3.325   3.627
 1908SOL     OW 6466   0.711   2.310   3.117
 1908SOL    HW1 6467   0.657   2.236   3.089
 1908SOL    HW2 6468   0.704   2.373   3.046
 1909SOL     OW 6469   0.926   3.532   3.332
 1909SOL    HW1 6470   0.899   3.493   3.249
 1909SOL    HW2 6471   0.918   3.626   3.318
 1910SOL     OW 6472   0.452   2.350   2.058
 1910SOL    HW1 6473   0.518   2.417   2.076
 1910SOL    HW2 6474   0.373   2.399   2.036
 1911SOL     OW 6475   0.154   2.996   3.339
 1911SOL    HW1 6476   0.154   2.946   3.420
 1911SOL    HW2 6477   0.170   2.931   3.270
 1912SOL     OW 6478   1.322   2.906   3.082
 1912SOL    HW1 6479   1.343   2.842   3.013
 1912SOL    HW2 6480   1.255   2.962   3.043
 1913SOL     OW 6481   1.315   2.719   2.166
 1913SOL    HW1 6482   1.241   2.687   2.218
 1913SOL    HW2 6483   1.288   2.705   2.075
 1914SOL     OW 6484   1.774   3.599   3.014
 1914SOL    HW1 6485   1.836   3.628   2.947
 1914SOL    HW2 6486   1.752   3.509   2.990
 1915SOL     OW 6487   1.244   3.594   2.968
 1915SOL    HW1 6488   1.328   3.616   2.926
 1915SOL    HW2 6489   1.252   3.501   2.988
 1916SOL     OW 6490   0.077   3.075   2.890
 1916SOL    HW1 6491   0.084   3.103   2.981
 1916SOL    HW2 6492   3.985   3.088   2.868
 1917SOL     OW 6493   0.680   3.528   3.599
 1917SOL    HW1 6494   0.621   3.603   3.602
 1917SOL    HW2 6495   0.740   3.549   3.527
 1918SOL     OW 6496   1.391   3.431   2.351
 1918SOL    HW1 6497   1.450   3.465   2.283
 1918SOL    HW2 6498   1.342   3.507   2.381
 1919SOL     OW 6499   0.172   3.620   3.695
 1919SOL    HW1 6500   0.117   3.567   3.753
 1919SOL    HW2 6501   0.218   3.681   3.753
 1920SOL     OW 6502   1.278   2.790   2.533
 1920SOL    HW1 6503   1.351   2.729   2.543
 1920SOL    HW2 6504   1.312   2.861   2.480
 1921SOL     OW 6505   0.807   3.137   3.288
 1921SOL    HW1 6506   0.778   3.178   3.369
 1921SOL    HW2 6507   0.735   3.154   3.227
 1922SOL     OW 6508   0.674   3.480   2.021
 1922SOL    HW1 6509   0.684   3.498   1.927
 1922SOL    HW2 6510   0.615   3.405   2.025
 1923SOL     OW 6511   1.620   3.589   3.252
 1923SOL    HW1 6512   1.673   3.593   3.172
 1923SOL    HW2 6513   1.606   3.680   3.276
 1924SOL     OW 6514   0.265   2.174   2.577
 1924SOL    HW1 6515   0.178   2.205   2.552
 1924SOL    HW2 6516   0.260   2.165   2.672
 1925SOL     OW 6517   1.208   3.464   1.899
 1925SOL    HW1 6518   1.197   3.372   1.923
 1925SOL    HW2 6519   1.147   3.477   1.826
 1926SOL     OW 6520   0.823   2.868   3.237
 1926SOL    HW1 6521   0.867   2.862   3.152
 1926SOL    HW2 6522   0.820   2.962   3.256
 1927SOL     OW 6523   0.916   2.772   2.153
 1927SOL    HW1 6524   0.976   2.805   2.086
 1927SOL    HW2 6525   0.966   2.704   2.199
 1928SOL     OW 6526   1.488   3.492   1.905
 1928SOL    HW1 6527   1.395   3.481   1.889
 1928SOL    HW2 6528   1.528   3.498   1.818
 1929SOL     OW 6529   0.374   3.164   3.353
 1929SOL    HW1 6530   0.359   3.245   3.303
 1929SOL    HW2 6531   0.297   3.111   3.336
 1930SOL     OW 6532   1.608   3.146   3.142
 1930SOL    HW1 6533   1.669   3.132   3.214
 1930SOL    HW2 6534   1.548   3.213   3.173
 1931SOL     OW 6535   1.059   2.972   2.572
 1931SOL    HW1 6536   0.987   2.921   2.609
 1931SOL    HW2 6537   1.123   2.906   2.544
 1932SOL     OW 6538   1.025   2.104   2.829
 1932SOL    HW1 6539   1.021   2.057   2.745
 1932SOL    HW2 6540   1.019   2.035   2.895
 1933SOL     OW 6541   0.607   3.352   2.342
 1933SOL    HW1 6542   0.654   3.302   2.275
 1933SOL    HW2 6543   0.533   3.392   2.296
 1934SOL     OW 6544   1.734   2.246   3.239
 1934SOL    HW1 6545   1.802   2.313   3.244
 1934SOL    HW2 6546   1.773   2.175   3.189
 1935SOL     OW 6547   0.254   3.202   2.154
 1935SOL    HW1 6548   0.160   3.208   2.136
 1935SOL    HW2 6549   0.265   3.241   2.241
 1936SOL     OW 6550   0.108   2.859   3.579
 1936SOL    HW1 6551   0.049   2.854   3.654
 1936SOL    HW2 6552   0.195   2.842   3.617
 1937SOL     OW 6553   0.677   2.058   3.362
 1937SOL    HW1 6554   0.761   2.036   3.322
 1937SOL    HW2 6555   0.699   2.091   3.449
 1938SOL     OW 6556   0.081   2.173   1.899
 1938SOL    HW1 6557   3.985   2.173   1.908
 1938SOL    HW2 6558   0.101   2.255   1.853
 1939SOL     OW 6559   1.426   2.720   3.259
 1939SOL    HW1 6560   1.377   2.781   3.204
 1939SOL    HW2 6561   1.515   2.722   3.224
 1940SOL     OW 6562   0.016   2.103   2.240
 1940SOL    HW1 6563   0.046   2.167   2.175
 1940SOL    HW2 6564   0.096   2.061   2.271
 1941SOL     OW 6565   1.177   3.197   1.979
 1941SOL    HW1 6566   1.086   3.169   1.980
 1941SOL    HW2 6567   1.203   3.197   2.071
 1942SOL     OW 6568   0.620   2.692   3.299
 1942SOL    HW1 6569   0.677   2.768   3.284
 1942SOL    HW2 6570   0.681   2.618   3.306
 1943SOL     OW 6571   1.487   3.642   2.844
 1943SOL    HW1 6572   1.508   3.704   2.774
 1943SOL    HW2 6573   1.571   3.619   2.883
 1944SOL     OW 6574   0.716   2.423   3.564
 1944SOL    HW1 6575   0.762   2.483   3.623
 1944SOL    HW2 6576   0.739   2.336   3.597
 1945SOL     OW 6577   1.474   3.058   3.491
 1945SOL    HW1 6578   1.461   3.072   3.585
 1945SOL    HW2 6579   1.566   3.077   3.476
 1946SOL     OW 6580   0.377   3.609   3.422
 1946SOL    HW1 6581   0.290   3.645   3.410
 1946SOL    HW2 6582   0.363   3.526   3.466
 1947SOL     OW 6583   1.666   2.743   3.116
 1947SOL    HW1 6584   1.659   2.657   3.073
 1947SOL    HW2 6585   1.655   2.806   3.045
 1948SOL     OW 6586   1.216   2.182   2.319
 1948SOL    HW1 6587   1.278   2.109   2.313
 1948SOL    HW2 6588   1.245   2.231   2.396
 1949SOL     OW 6589   0.588   2.598   2.536
 1949SOL    HW1 6590   0.627   2.684   2.521
 1949SOL    HW2 6591   0.523   2.589   2.466
 1950SOL     OW 6592   1.745   2.234   3.520
 1950SOL    HW1 6593   1.749   2.240   3.425
 1950SOL    HW2 6594   1.673   2.173   3.538
 1951SOL     OW 6595   1.747   2.807   3.369
 1951SOL    HW1 6596   1.733   2.901   3.381
 1951SOL    HW2 6597   1.728   2.791   3.277
 1952SOL     OW 6598   0.866   3.228   1.904
 1952SOL    HW1 6599   0.824   3.256   1.986
 1952SOL    HW2 6600   0.878   3.309   1.855
 1953SOL     OW 6601   0.658   3.649   2.793
 1953SOL    HW1 6602   0.638   3.741   2.776
 1953SOL    HW2 6603   0.754   3.645   2.793
 1954SOL     OW 6604   0.869   2.831   2.715
 1954SOL    HW1 6605   0.919   2.759   2.753
 1954SOL    HW2 6606   0.832   2.877   2.790
 1955SOL     OW 6607   1.076   2.850   1.951
 1955SOL    HW1 6608   1.056   2.902   1.873
 1955SOL    HW2 6609   1.151   2.796   1.925
 1956SOL     OW 6610   1.848   3.411   2.702
 1956SOL    HW1 6611   1.768   3.402   2.652
 1956SOL    HW2 6612   1.838   3.351   2.776
 1957SOL     OW 6613   0.229   3.166   3.719
 1957SOL    HW1 6614   0.153   3.114   3.692
 1957SOL    HW2 6615   0.216   3.179   3.813
 1958SOL     OW 6616   0.119   3.144   2.586
 1958SOL    HW1 6617   0.138   3.092   2.665
 1958SOL    HW2 6618   0.104   3.078   2.518
 1959SOL     OW 6619   0.684   3.268   3.494
 1959SOL    HW1 6620   0.604   3.226   3.524
 1959SOL    HW2 6621   0.681   3.356   3.531
 1960SOL     OW 6622   0.440   2.295   2.396
 1960SOL    HW1 6623   0.440   2.225   2.331
 1960SOL    HW2 6624   0.385   2.262   2.467
 1961SOL     OW 6625   1.700   3.346   2.951
 1961SOL    HW1 6626   1.618   3.326   2.905
 1961SOL    HW2 6627   1.706   3.278   3.018
 1962SOL     OW 6628   0.336   2.421   3.154
 1962SOL    HW1 6629   0.389   2.363   3.209
 1962SOL    HW2 6630   0.350   2.389   3.065
 1963SOL     OW 6631   0.830   3.441   2.538
 1963SOL    HW1 6632   0.810   3.498   2.463
 1963SOL    HW2 6633   0.756   3.380   2.542
 1964SOL     OW 6634   1.436   2.091   2.982
 1964SOL    HW1 6635   1.439   2.002   3.017
 1964SOL    HW2 6636   1.382   2.139   3.045
 1965SOL     OW 6637   1.010   1.878   2.999
 1965SOL    HW1 6638   0.956   1.811   2.956
 1965SOL    HW2 6639   1.098   1.840   3.001
 1966SOL     OW 6640   0.773   3.194   2.183
 1966SOL    HW1 6641   0.745   3.103   2.189
 1966SOL    HW2 6642   0.856   3.197   2.231
 1967SOL     OW 6643   0.621   3.415   3.149
 1967SOL    HW1 6644   0.621   3.497   3.198
 1967SOL    HW2 6645   0.709   3.410   3.111
 1968SOL     OW 6646   1.354   1.911   2.032
 1968SOL    HW1 6647   1.384   1.847   1.968
 1968SOL    HW2 6648   1.265   1.884   2.055
 1969SOL     OW 6649   1.298   2.325   2.541
 1969SOL    HW1 6650   1.245   2.404   2.545
 1969SOL    HW2 6651   1.292   2.287   2.629
 1970SOL     OW 6652   1.572   2.052   2.736
 1970SOL    HW1 6653   1.536   2.080   2.820
 1970SOL    HW2 6654   1.584   2.133   2.687
 1971SOL     OW 6655   0.047   2.909   2.103
 1971SOL    HW1 6656   0.142   2.894   2.095
 1971SOL    HW2 6657   0.012   2.824   2.128
 1972SOL     OW 6658   0.887   3.523   2.203
 1972SOL    HW1 6659   0.815   3.504   2.143
 1972SOL    HW2 6660   0.856   3.597   2.256
 1973SOL     OW 6661   0.231   2.488   3.842
 1973SOL    HW1 6662   0.138   2.496   3.863
 1973SOL    HW2 6663   0.232   2.456   3.752
 1974SOL     OW 6664   0.229   2.135   4.711
 1974SOL    HW1 6665   0.250   2.099   4.797
 1974SOL    HW2 6666   0.134   2.127   4.704
 1975SOL     OW 6667   0.006   2.219   4.354
 1975SOL    HW1 6668   3.917   2.238   4.382
 1975SOL    HW2 6669   3.997   2.190   4.263
 1976SOL     OW 6670   0.581   3.154   4.919
 1976SOL    HW1 6671   0.496   3.156   4.876
 1976SOL    HW2 6672   0.595   3.243   4.950
 1977SOL     OW 6673   1.566   3.373   4.433
 1977SOL    HW1 6674   1.524   3.350   4.516
 1977SOL    HW2 6675   1.495   3.376   4.370
 1978SOL     OW 6676   1.133   2.560   4.421
 1978SOL    HW1 6677   1.180   2.642   4.408
 1978SOL    HW2 6678   1.085   2.572   4.503
 1979SOL     OW 6679   1.766   2.471   3.951
 1979SOL    HW1 6680   1.741   2.469   3.859
 1979SOL    HW2 6681   1.755   2.381   3.981
 1980SOL     OW 6682   0.750   2.999   4.768
 1980SOL    HW1 6683   0.688   3.036   4.831
 1980SOL    HW2 6684   0.787   3.075   4.724
 1981SOL     OW 6685   0.873   2.627   5.547
 1981SOL    HW1 6686   0.862   2.698   5.610
 1981SOL    HW2 6687   0.895   2.671   5.465
 1982SOL     OW 6688   0.685   2.862   4.369
 1982SOL    HW1 6689   0.751   2.852   4.437
 1982SOL    HW2 6690   0.616   2.915   4.410
 1983SOL     OW 6691   0.713   3.011   5.543
 1983SOL    HW1 6692   0.761   3.089   5.573
 1983SOL    HW2 6693   0.633   3.046   5.504
 1984SOL     OW 6694   0.351   3.262   4.802
 1984SOL    HW1 6695   0.269   3.245   4.755
 1984SOL    HW2 6696   0.400   3.320   4.744
 1985SOL     OW 6697   1.460   3.364   5.083
 1985SOL    HW1 6698   1.514   3.442   5.093
 1985SOL    HW2 6699   1.391   3.373   5.150
 1986SOL     OW 6700   0.450   2.258   5.209
 1986SOL    HW1 6701   0.525   2.199   5.213
 1986SOL    HW2 6702   0.374   2.202   5.223
 1987SOL     OW 6703   1.605   2.298   4.458
 1987SOL    HW1 6704   1.525   2.319   4.409
 1987SOL    HW2 6705   1.624   2.378   4.507
 1988SOL     OW 6706   0.222   3.572   4.190
 1988SOL    HW1 6707   0.220   3.657   4.234
 1988SOL    HW2 6708   0.299   3.576   4.133
 1989SOL     OW 6709   1.138   3.203   5.418
 1989SOL    HW1 6710   1.178   3.197   5.504
 1989SOL    HW2 6711   1.085   3.124   5.410
 1990SOL     OW 6712   0.253   3.307   4.263
 1990SOL    HW1 6713   0.224   3.397   4.250
 1990SOL    HW2 6714   0.184   3.267   4.317
 1991SOL     OW 6715   0.248   2.927   4.607
 1991SOL    HW1 6716   0.269   2.842   4.646
 1991SOL    HW2 6717   0.195   2.972   4.673
 1992SOL     OW 6718   0.609   3.648   5.150
 1992SOL    HW1 6719   0.527   3.634   5.197
 1992SOL    HW2 6720   0.636   3.737   5.174
 1993SOL     OW 6721   0.575   2.849   3.863
 1993SOL    HW1 6722   0.624   2.893   3.794
 1993SOL    HW2 6723   0.616   2.879   3.945
 1994SOL     OW 6724   1.554   1.999   5.164
 1994SOL    HW1 6725   1.577   2.084   5.125
 1994SOL    HW2 6726   1.548   2.017   5.258
 1995SOL     OW 6727   0.144   2.518   4.297
 1995SOL    HW1 6728   0.087   2.441   4.295
 1995SOL    HW2 6729   0.108   2.572   4.368
 1996SOL     OW 6730   1.844   3.606   4.061
 1996SOL    HW1 6731   1.913   3.583   4.123
 1996SOL    HW2 6732   1.861   3.697   4.038
 1997SOL     OW 6733   0.040   3.451   3.863
 1997SOL    HW1 6734   0.036   3.360   3.891
 1997SOL    HW2 6735   3.955   3.487   3.887
 1998SOL     OW 6736   1.690   2.781   4.367
 1998SOL    HW1 6737   1.769   2.735   4.340
 1998SOL    HW2 6738   1.665   2.833   4.291
 1999SOL     OW 6739   1.648   2.966   4.153
 1999SOL    HW1 6740   1.735   2.967   4.112
 1999SOL    HW2 6741   1.655   3.029   4.225
 2000SOL     OW 6742   0.142   2.614   5.314
 2000SOL    HW1 6743   0.238   2.611   5.308
 2000SOL    HW2 6744   0.124   2.702   5.348
 2001SOL     OW 6745   0.617   3.249   4.458
 2001SOL    HW1 6746   0.570   3.167   4.467
 2001SOL    HW2 6747   0.599   3.277   4.368
 2002SOL     OW 6748   1.286   3.098   5.145
 2002SOL    HW1 6749   1.317   3.030   5.086
 2002SOL    HW2 6750   1.345   3.093   5.220
 2003SOL     OW 6751   0.823   1.864   4.238
 2003SOL    HW1 6752   0.862   1.948   4.214
 2003SOL    HW2 6753   0.729   1.882   4.241
 2004SOL     OW 6754   0.183   2.811   5.005
 2004SOL    HW1 6755   0.272   2.775   4.993
 2004SOL    HW2 6756   0.133   2.775   4.933
 2005SOL     OW 6757   1.531   2.860   3.924
 2005SOL    HW1 6758   1.462   2.803   3.956
 2005SOL    HW2 6759   1.573   2.894   4.003
 2006SOL     OW 6760   1.221   3.667   5.353
 2006SOL    HW1 6761   1.195   3.729   5.284
 2006SOL    HW2 6762   1.222   3.582   5.309
 2007SOL     OW 6763   0.343   2.109   5.544
 2007SOL    HW1 6764   0.377   2.199   5.549
 2007SOL    HW2 6765   0.251   2.117   5.568
 2008SOL     OW 6766   1.467   3.281   4.672
 2008SOL    HW1 6767   1.400   3.297   4.739
 2008SOL    HW2 6768   1.453   3.190   4.646
 2009SOL     OW 6769   1.653   3.603   4.305
 2009SOL    HW1 6770   1.639   3.572   4.216
 2009SOL    HW2 6771   1.631   3.529   4.361
 2010SOL     OW 6772   0.596   2.576   3.991
 2010SOL    HW1 6773   0.601   2.661   3.947
 2010SOL    HW2 6774   0.533   2.590   4.062
 2011SOL     OW 6775   1.280   2.226   4.660
 2011SOL    HW1 6776   1.192   2.190   4.669
 2011SOL    HW2 6777   1.335   2.169   4.714
 2012SOL     OW 6778   1.576   3.538   4.033
 2012SOL    HW1 6779   1.669   3.559   4.027
 2012SOL    HW2 6780   1.550   3.519   3.943
 2013SOL     OW 6781   0.791   2.480   5.173
 2013SOL    HW1 6782   0.764   2.454   5.261
 2013SOL    HW2 6783   0.756   2.411   5.116
 2014SOL     OW 6784   1.392   2.334   5.400
 2014SOL    HW1 6785   1.395   2.380   5.484
 2014SOL    HW2 6786   1.450   2.259   5.411
 2015SOL     OW 6787   0.951   2.747   5.309
 2015SOL    HW1 6788   1.005   2.679   5.271
 2015SOL    HW2 6789   0.902   2.783   5.235
 2016SOL     OW 6790   0.993   2.273   4.959
 2016SOL    HW1 6791   0.904   2.290   4.989
 2016SOL    HW2 6792   0.982   2.229   4.874
 2017SOL     OW 6793   1.054   2.561   4.149
 2017SOL    HW1 6794   1.071   2.554   4.243
 2017SOL    HW2 6795   0.971   2.514   4.136
 2018SOL     OW 6796   0.083   2.693   4.513
 2018SOL    HW1 6797   0.155   2.661   4.568
 2018SOL    HW2 6798   0.104   2.785   4.497
 2019SOL     OW 6799   0.127   3.719   5.305
 2019SOL    HW1 6800   0.135   3.687   5.394
 2019SOL    HW2 6801   0.035   3.706   5.283
 2020SOL     OW 6802   0.898   2.212   3.918
 2020SOL    HW1 6803   0.938   2.276   3.858
 2020SOL    HW2 6804   0.913   2.128   3.876
 2021SOL     OW 6805   1.670   2.446   5.557
 2021SOL    HW1 6806   1.646   2.520   5.501
 2021SOL    HW2 6807   1.710   2.383   5.497
 2022SOL     OW 6808   1.380   3.004   4.264
 2022SOL    HW1 6809   1.459   2.992   4.211
 2022SOL    HW2 6810   1.327   3.066   4.214
 2023SOL     OW 6811   0.547   2.039   4.619
 2023SOL    HW1 6812   0.553   2.072   4.709
 2023SOL    HW2 6813   0.545   2.118   4.565
 2024SOL     OW 6814   1.001   3.307   4.193
 2024SOL    HW1 6815   0.967   3.381   4.144
 2024SOL    HW2 6816   0.979   3.326   4.284
 2025SOL     OW 6817   0.359   3.673   4.588
 2025SOL    HW1 6818   0.440   3.623   4.602
 2025SOL    HW2 6819   0.386   3.764   4.597
 2026SOL     OW 6820   1.800   2.912   4.595
 2026SOL    HW1 6821   1.748   2.894   4.517
 2026SOL    HW2 6822   1.736   2.920   4.665
 2027SOL     OW 6823   1.227   3.399   5.235
 2027SOL    HW1 6824   1.215   3.327   5.297
 2027SOL    HW2 6825   1.157   3.388   5.171
 2028SOL     OW 6826   0.311   2.814   3.967
 2028SOL    HW1 6827   0.394   2.837   3.924
 2028SOL    HW2 6828   0.298   2.722   3.947
 2029SOL     OW 6829   1.481   2.610   4.447
 2029SOL    HW1 6830   1.477   2.568   4.533
 2029SOL    HW2 6831   1.560   2.665   4.451
 2030SOL     OW 6832   0.470   3.122   5.461
 2030SOL    HW1 6833   0.444   3.131   5.369
 2030SOL    HW2 6834   0.387   3.125   5.509
 2031SOL     OW 6835   1.113   3.643   3.944
 2031SOL    HW1 6836   1.048   3.598   3.997
 2031SOL    HW2 6837   1.145   3.577   3.883
 2032SOL     OW 6838   0.203   2.132   5.233
 2032SOL    HW1 6839   0.114   2.165   5.228
 2032SOL    HW2 6840   0.194   2.043   5.268
 2033SOL     OW 6841   1.627   3.244   3.815
 2033SOL    HW1 6842   1.587   3.329   3.798
 2033SOL    HW2 6843   1.559   3.180   3.794
 2034SOL     OW 6844   0.467   3.603   4.045
 2034SOL    HW1 6845   0.506   3.664   4.107
 2034SOL    HW2 6846   0.540   3.573   3.991
 2035SOL     OW 6847   1.397   1.965   4.162
 2035SOL    HW1 6848   1.385   1.945   4.069
 2035SOL    HW2 6849   1.483   1.929   4.183
 2036SOL     OW 6850   0.256   3.657   4.948
 2036SOL    HW1 6851   0.297   3.588   5.001
 2036SOL    HW2 6852   0.253   3.621   4.859
 2037SOL     OW 6853   0.938   3.564   4.623
 2037SOL    HW1 6854   1.015   3.513   4.646
 2037SOL    HW2 6855   0.896   3.514   4.553
 2038SOL     OW 6856   0.400   2.554   4.195
 2038SOL    HW1 6857   0.424   2.463   4.210
 2038SOL    HW2 6858   0.309   2.560   4.221
 2039SOL     OW 6859   1.526   2.080   5.444
 2039SOL    HW1 6860   1.540   2.102   5.536
 2039SOL    HW2 6861   1.459   2.012   5.446
 2040SOL     OW 6862   0.647   1.979   3.819
 2040SOL    HW1 6863   0.704   1.905   3.841
 2040SOL    HW2 6864   0.595   1.947   3.745
 2041SOL     OW 6865   0.766   2.142   5.480
 2041SOL    HW1 6866   0.846   2.090   5.475
 2041SOL    HW2 6867   0.718   2.106   5.555
 2042SOL     OW 6868   0.876   3.383   4.918
 2042SOL    HW1 6869   0.858   3.346   4.832
 2042SOL    HW2 6870   0.945   3.328   4.954
 2043SOL     OW 6871   1.339   2.451   5.156
 2043SOL    HW1 6872   1.370   2.420   5.241
 2043SOL    HW2 6873   1.376   2.540   5.149
 2044SOL     OW 6874   0.818   3.252   4.668
 2044SOL    HW1 6875   0.903   3.240   4.625
 2044SOL    HW2 6876   0.756   3.256   4.595
 2045SOL     OW 6877   0.929   2.371   4.625
 2045SOL    HW1 6878   0.905   2.363   4.533
 2045SOL    HW2 6879   0.959   2.284   4.650
 2046SOL     OW 6880   0.558   1.924   4.217
 2046SOL    HW1 6881   0.476   1.929   4.266
 2046SOL    HW2 6882   0.562   2.006   4.168
 2047SOL     OW 6883   1.428   3.062   3.763
 2047SOL    HW1 6884   1.458   2.987   3.814
 2047SOL    HW2 6885   1.342   3.084   3.800
 2048SOL     OW 6886   0.309   1.913   3.893
 2048SOL    HW1 6887   0.371   1.952   3.832
 2048SOL    HW2 6888   0.360   1.848   3.942
 2049SOL     OW 6889   0.942   2.110   4.181
 2049SOL    HW1 6890   0.914   2.150   4.098
 2049SOL    HW2 6891   1.036   2.127   4.185
 2050SOL     OW 6892   1.080   2.545   5.182
 2050SOL    HW1 6893   1.014   2.476   5.185
 2050SOL    HW2 6894   1.164   2.498   5.175
 2051SOL     OW 6895   1.220   3.433   4.518
 2051SOL    HW1 6896   1.234   3.500   4.451
 2051SOL    HW2 6897   1.290   3.449   4.582
 2052SOL     OW 6898   0.467   3.014   4.457
 2052SOL    HW1 6899   0.397   2.989   4.517
 2052SOL    HW2 6900   0.431   2.998   4.370
 2053SOL     OW 6901   1.264   3.655   4.333
 2053SOL    HW1 6902   1.313   3.719   4.282
 2053SOL    HW2 6903   1.191   3.704   4.370
 2054SOL     OW 6904   1.024   2.398   3.750
 2054SOL    HW1 6905   0.981   2.481   3.731
 2054SOL    HW2 6906   1.090   2.420   3.816
 2055SOL     OW 6907   0.084   2.436   5.113
 2055SOL    HW1 6908   0.174   2.423   5.083
 2055SOL    HW2 6909   0.090   2.505   5.179
 2056SOL     OW 6910   0.567   2.089   4.892
 2056SOL    HW1 6911   0.608   2.015   4.935
 2056SOL    HW2 6912   0.475   2.085   4.920
 2057SOL     OW 6913   0.867   2.320   4.363
 2057SOL    HW1 6914   0.820   2.374   4.300
 2057SOL    HW2 6915   0.889   2.240   4.315
 2058SOL     OW 6916   1.016   1.917   4.473
 2058SOL    HW1 6917   0.958   1.911   4.397
 2058SOL    HW2 6918   0.993   1.842   4.527
 2059SOL     OW 6919   1.439   3.023   4.580
 2059SOL    HW1 6920   1.368   2.959   4.581
 2059SOL    HW2 6921   1.463   3.031   4.488
 2060SOL     OW 6922   1.463   2.471   4.694
 2060SOL    HW1 6923   1.408   2.392   4.695
 2060SOL    HW2 6924   1.520   2.461   4.770
 2061SOL     OW 6925   1.844   2.674   4.113
 2061SOL    HW1 6926   1.903   2.623   4.168
 2061SOL    HW2 6927   1.815   2.613   4.045
 2062SOL     OW 6928   0.488   3.283   3.881
 2062SOL    HW1 6929   0.411   3.254   3.931
 2062SOL    HW2 6930   0.472   3.250   3.793
 2063SOL     OW 6931   1.675   3.125   4.367
 2063SOL    HW1 6932   1.770   3.126   4.381
 2063SOL    HW2 6933   1.647   3.214   4.389
 2064SOL     OW 6934   1.391   2.437   3.792
 2064SOL    HW1 6935   1.336   2.413   3.867
 2064SOL    HW2 6936   1.480   2.416   3.820
 2065SOL     OW 6937   0.575   2.129   4.039
 2065SOL    HW1 6938   0.608   2.083   3.962
 2065SOL    HW2 6939   0.543   2.213   4.005
 2066SOL     OW 6940   1.750   3.104   5.288
 2066SOL    HW1 6941   1.837   3.066   5.283
 2066SOL    HW2 6942   1.765   3.194   5.317
 2067SOL     OW 6943   1.055   3.214   5.055
 2067SOL    HW1 6944   0.980   3.183   5.106
 2067SOL    HW2 6945   1.130   3.173   5.098
 2068SOL     OW 6946   1.610   3.489   5.382
 2068SOL    HW1 6947   1.601   3.523   5.293
 2068SOL    HW2 6948   1.693   3.440   5.381
 2069SOL     OW 6949   1.134   3.070   4.826
 2069SOL    HW1 6950   1.074   3.107   4.891
 2069SOL    HW2 6951   1.103   3.104   4.743
 2070SOL     OW 6952   1.624   2.958   4.799
 2070SOL    HW1 6953   1.618   3.021   4.872
 2070SOL    HW2 6954   1.548   2.977   4.745
 2071SOL     OW 6955   0.918   1.956   5.116
 2071SOL    HW1 6956   0.941   1.937   5.025
 2071SOL    HW2 6957   0.997   1.996   5.153
 2072SOL     OW 6958   0.984   2.977   5.448
 2072SOL    HW1 6959   0.893   2.993   5.471
 2072SOL    HW2 6960   0.981   2.898   5.393
 2073SOL     OW 6961   0.708   2.923   4.095
 2073SOL    HW1 6962   0.694   2.905   4.188
 2073SOL    HW2 6963   0.784   2.870   4.071
 2074SOL     OW 6964   0.423   2.680   4.977
 2074SOL    HW1 6965   0.491   2.688   5.044
 2074SOL    HW2 6966   0.389   2.591   4.988
 2075SOL     OW 6967   1.264   2.237   5.004
 2075SOL    HW1 6968   1.296   2.315   5.049
 2075SOL    HW2 6969   1.173   2.257   4.981
 2076SOL     OW 6970   0.065   3.442   5.069
 2076SOL    HW1 6971   0.071   3.486   4.984
 2076SOL    HW2 6972   0.156   3.432   5.097
 2077SOL     OW 6973   0.366   2.965   4.205
 2077SOL    HW1 6974   0.363   3.046   4.154
 2077SOL    HW2 6975   0.366   2.895   4.139
 2078SOL     OW 6976   0.548   2.396   4.585
 2078SOL    HW1 6977   0.562   2.453   4.510
 2078SOL    HW2 6978   0.616   2.422   4.648
 2079SOL     OW 6979   1.247   3.212   4.114
 2079SOL    HW1 6980   1.303   3.283   4.146
 2079SOL    HW2 6981   1.160   3.233   4.147
 2080SOL     OW 6982   1.287   3.322   4.872
 2080SOL    HW1 6983   1.343   3.327   4.950
 2080SOL    HW2 6984   1.231   3.246   4.887
 2081SOL     OW 6985   1.574   2.483   4.201
 2081SOL    HW1 6986   1.529   2.535   4.267
 2081SOL    HW2 6987   1.620   2.547   4.147
 2082SOL     OW 6988   0.345   3.391   5.041
 2082SOL    HW1 6989   0.335   3.340   4.960
 2082SOL    HW2 6990   0.439   3.405   5.049
 2083SOL     OW 6991   0.418   2.600   5.326
 2083SOL    HW1 6992   0.482   2.644   5.269
 2083SOL    HW2 6993   0.457   2.514   5.342
 2084SOL     OW 6994   1.604   2.653   5.402
 2084SOL    HW1 6995   1.518   2.694   5.396
 2084SOL    HW2 6996   1.656   2.696   5.334
 2085SOL     OW 6997   0.996   1.993   5.477
 2085SOL    HW1 6998   1.055   2.065   5.454
 2085SOL    HW2 6999   1.044   1.914   5.452
 2086SOL     OW 7000   0.496   1.896   5.472
 2086SOL    HW1 7001   0.452   1.845   5.405
 2086SOL    HW2 7002   0.442   1.975   5.481
 2087SOL     OW 7003   0.586   2.736   4.756
 2087SOL    HW1 7004   0.620   2.826   4.758
 2087SOL    HW2 7005   0.530   2.731   4.834
 2088SOL     OW 7006   1.350   2.720   4.747
 2088SOL    HW1 7007   1.265   2.707   4.706
 2088SOL    HW2 7008   1.395   2.636   4.738
 2089SOL     OW 7009   1.201   2.389   3.988
 2089SOL    HW1 7010   1.209   2.311   4.043
 2089SOL    HW2 7011   1.158   2.454   4.044
 2090SOL     OW 7012   0.310   2.057   4.971
 2090SOL    HW1 7013   0.262   2.093   5.045
 2090SOL    HW2 7014   0.287   1.964   4.971
 2091SOL     OW 7015   0.063   3.167   5.004
 2091SOL    HW1 7016   0.092   3.125   5.085
 2091SOL    HW2 7017   0.053   3.260   5.027
 2092SOL     OW 7018   0.723   2.492   4.778
 2092SOL    HW1 7019   0.798   2.478   4.722
 2092SOL    HW2 7020   0.694   2.581   4.759
 2093SOL     OW 7021   1.739   2.821   5.581
 2093SOL    HW1 7022   1.693   2.758   5.526
 2093SOL    HW2 7023   1.678   2.838   5.654
 2094SOL     OW 7024   0.316   1.923   4.344
 2094SOL    HW1 7025   0.293   2.014   4.364
 2094SOL    HW2 7026   0.323   1.880   4.429
 2095SOL     OW 7027   1.610   2.238   4.091
 2095SOL    HW1 7028   1.624   2.184   4.169
 2095SOL    HW2 7029   1.589   2.325   4.125
 2096SOL     OW 7030   1.029   2.620   4.683
 2096SOL    HW1 7031   1.021   2.637   4.776
 2096SOL    HW2 7032   1.002   2.529   4.672
 2097SOL     OW 7033   0.986   3.430   5.446
 2097SOL    HW1 7034   0.966   3.470   5.362
 2097SOL    HW2 7035   1.028   3.347   5.423
 2098SOL     OW 7036   1.852   3.363   5.327
 2098SOL    HW1 7037   1.873   3.392   5.238
 2098SOL    HW2 7038   1.933   3.380   5.377
 2099SOL     OW 7039   0.354   2.784   5.523
 2099SOL    HW1 7040   0.432   2.805   5.574
 2099SOL    HW2 7041   0.383   2.717   5.462
 2100SOL     OW 7042   1.527   2.131   3.848
 2100SOL    HW1 7043   1.461   2.068   3.879
 2100SOL    HW2 7044   1.561   2.170   3.928
 2101SOL     OW 7045   1.287   2.688   3.753
 2101SOL    HW1 7046   1.329   2.602   3.757
 2101SOL    HW2 7047   1.319   2.727   3.671
 2102SOL     OW 7048   1.068   3.200   4.580
 2102SOL    HW1 7049   1.073   3.128   4.517
 2102SOL    HW2 7050   1.127   3.267   4.544
 2103SOL     OW 7051   0.313   2.663   4.674
 2103SOL    HW1 7052   0.407   2.680   4.667
 2103SOL    HW2 7053   0.307   2.572   4.705
 2104SOL     OW 7054   0.328   2.383   4.739
 2104SOL    HW1 7055   0.294   2.295   4.723
 2104SOL    HW2 7056   0.405   2.390   4.682
 2105SOL     OW 7057   1.133   2.235   5.409
 2105SOL    HW1 7058   1.086   2.290   5.471
 2105SOL    HW2 7059   1.221   2.274   5.405
 2106SOL     OW 7060   1.160   2.061   5.196
 2106SOL    HW1 7061   1.149   2.124   5.267
 2106SOL    HW2 7062   1.203   2.110   5.126
 2107SOL     OW 7063   0.000   3.178   3.906
 2107SOL    HW1 7064   3.906   3.194   3.910
 2107SOL    HW2 7065   0.009   3.084   3.924
 2108SOL     OW 7066   0.076   3.662   4.619
 2108SOL    HW1 7067   0.094   3.568   4.614
 2108SOL    HW2 7068   0.162   3.703   4.619
 2109SOL     OW 7069   0.506   3.423   4.642
 2109SOL    HW1 7070   0.571   3.491   4.661
 2109SOL    HW2 7071   0.549   3.366   4.578
 2110SOL     OW 7072   0.976   2.650   4.948
 2110SOL    HW1 7073   1.034   2.631   5.021
 2110SOL    HW2 7074   0.892   2.611   4.974
 2111SOL     OW 7075   0.038   2.423   4.833
 2111SOL    HW1 7076   0.121   2.400   4.791
 2111SOL    HW2 7077   0.057   2.419   4.927
 2112SOL     OW 7078   0.207   2.373   5.452
 2112SOL    HW1 7079   0.243   2.323   5.378
 2112SOL    HW2 7080   0.162   2.447   5.411
 2113SOL     OW 7081   1.374   2.800   5.380
 2113SOL    HW1 7082   1.397   2.893   5.377
 2113SOL    HW2 7083   1.370   2.773   5.288
 2114SOL     OW 7084   0.819   2.431   4.088
 2114SOL    HW1 7085   0.824   2.356   4.029
 2114SOL    HW2 7086   0.745   2.482   4.055
 2115SOL     OW 7087   1.638   2.463   4.906
 2115SOL    HW1 7088   1.627   2.407   4.983
 2115SOL    HW2 7089   1.724   2.439   4.871
 2116SOL     OW 7090   0.301   3.406   5.447
 2116SOL    HW1 7091   0.254   3.475   5.493
 2116SOL    HW2 7092   0.272   3.325   5.489
 2117SOL     OW 7093   0.711   2.310   4.979
 2117SOL    HW1 7094   0.657   2.236   4.951
 2117SOL    HW2 7095   0.704   2.373   4.908
 2118SOL     OW 7096   0.926   3.532   5.194
 2118SOL    HW1 7097   0.899   3.493   5.111
 2118SOL    HW2 7098   0.918   3.626   5.180
 2119SOL     OW 7099   0.452   2.350   3.920
 2119SOL    HW1 7100   0.517   2.417   3.939
 2119SOL    HW2 7101   0.373   2.399   3.898
 2120SOL     OW 7102   0.155   2.996   5.201
 2120SOL    HW1 7103   0.154   2.946   5.282
 2120SOL    HW2 7104   0.170   2.931   5.132
 2121SOL     OW 7105   1.322   2.906   4.944
 2121SOL    HW1 7106   1.343   2.842   4.875
 2121SOL    HW2 7107   1.255   2.962   4.905
 2122SOL     OW 7108   1.315   2.719   4.028
 2122SOL    HW1 7109   1.241   2.687   4.080
 2122SOL    HW2 7110   1.289   2.705   3.937
 2123SOL     OW 7111   1.774   3.599   4.876
 2123SOL    HW1 7112   1.836   3.628   4.810
 2123SOL    HW2 7113   1.752   3.509   4.852
 2124SOL     OW 7114   1.244   3.594   4.830
 2124SOL    HW1 7115   1.327   3.616   4.788
 2124SOL    HW2 7116   1.252   3.501   4.850
 2125SOL     OW 7117   0.077   3.075   4.752
 2125SOL    HW1 7118   0.084   3.103   4.843
 2125SOL    HW2 7119   3.985   3.088   4.730
 2126SOL     OW 7120   0.680   3.528   5.461
 2126SOL    HW1 7121   0.621   3.603   5.464
 2126SOL    HW2 7122   0.740   3.549   5.389
 2127SOL     OW 7123   1.391   3.431   4.213
 2127SOL    HW1 7124   1.450   3.465   4.145
 2127SOL    HW2 7125   1.342   3.507   4.243
 2128SOL     OW 7126   0.172   3.620   5.557
 2128SOL    HW1 7127   0.117   3.567   5.615
 2128SOL    HW2 7128   0.217   3.681   5.615
 2129SOL     OW 7129   1.278   2.790   4.395
 2129SOL    HW1 7130   1.351   2.729   4.405
 2129SOL    HW2 7131   1.312   2.861   4.342
 2130SOL     OW 7132   0.807   3.137   5.150
 2130SOL    HW1 7133   0.778   3.178   5.232
 2130SOL    HW2 7134   0.735   3.154   5.088
 2131SOL     OW 7135   0.674   3.480   3.883
 2131SOL    HW1 7136   0.684   3.498   3.789
 2131SOL    HW2 7137   0.615   3.405   3.887
 2132SOL     OW 7138   1.620   3.589   5.114
 2132SOL    HW1 7139   1.673   3.593   5.034
 2132SOL    HW2 7140   1.606   3.680   5.138
 2133SOL     OW 7141   0.264   2.174   4.439
 2133SOL    HW1 7142   0.178   2.205   4.414
 2133SOL    HW2 7143   0.260   2.165   4.534
 2134SOL     OW 7144   1.208   3.464   3.761
 2134SOL    HW1 7145   1.197   3.372   3.785
 2134SOL    HW2 7146   1.147   3.477   3.688
 2135SOL     OW 7147   0.823   2.868   5.099
 2135SOL    HW1 7148   0.867   2.862   5.014
 2135SOL    HW2 7149   0.820   2.962   5.118
 2136SOL     OW 7150   0.916   2.772   4.015
 2136SOL    HW1 7151   0.976   2.805   3.948
 2136SOL    HW2 7152   0.966   2.704   4.061
 2137SOL     OW 7153   1.488   3.492   3.767
 2137SOL    HW1 7154   1.395   3.481   3.751
 2137SOL    HW2 7155   1.528   3.498   3.680
 2138SOL     OW 7156   0.374   3.165   5.215
 2138SOL    HW1 7157   0.359   3.245   5.165
 2138SOL    HW2 7158   0.297   3.111   5.198
 2139SOL     OW 7159   1.608   3.146   5.004
 2139SOL    HW1 7160   1.669   3.133   5.076
 2139SOL    HW2 7161   1.548   3.213   5.035
 2140SOL     OW 7162   1.059   2.972   4.434
 2140SOL    HW1 7163   0.987   2.921   4.471
 2140SOL    HW2 7164   1.123   2.906   4.406
 2141SOL     OW 7165   1.024   2.104   4.691
 2141SOL    HW1 7166   1.021   2.057   4.608
 2141SOL    HW2 7167   1.019   2.035   4.757
 2142SOL     OW 7168   0.607   3.352   4.204
 2142SOL    HW1 7169   0.654   3.302   4.137
 2142SOL    HW2 7170   0.533   3.392   4.158
 2143SOL     OW 7171   1.734   2.244   5.100
 2143SOL    HW1 7172   1.802   2.311   5.104
 2143SOL    HW2 7173   1.775   2.171   5.053
 2144SOL     OW 7174   0.254   3.202   4.016
 2144SOL    HW1 7175   0.160   3.208   3.998
 2144SOL    HW2 7176   0.265   3.241   4.103
 2145SOL     OW 7177   0.108   2.859   5.441
 2145SOL    HW1 7178   0.048   2.854   5.516
 2145SOL    HW2 7179   0.195   2.842   5.479
 2146SOL     OW 7180   0.677   2.058   5.224
 2146SOL    HW1 7181   0.761   2.036   5.183
 2146SOL    HW2 7182   0.700   2.092   5.311
 2147SOL     OW 7183   0.081   2.173   3.761
 2147SOL    HW1 7184   3.985   2.173   3.770
 2147SOL    HW2 7185   0.101   2.254   3.715
 2148SOL     OW 7186   1.426   2.721   5.122
 2148SOL    HW1 7187   1.377   2.781   5.067
 2148SOL    HW2 7188   1.515   2.722   5.086
 2149SOL     OW 7189   0.016   2.103   4.102
 2149SOL    HW1 7190   0.046   2.167   4.037
 2149SOL    HW2 7191   0.096   2.061   4.133
 2150SOL     OW 7192   1.177   3.197   3.841
 2150SOL    HW1 7193   1.086   3.169   3.842
 2150SOL    HW2 7194   1.203   3.197   3.933
 2151SOL     OW 7195   0.620   2.692   5.161
 2151SOL    HW1 7196   0.677   2.768   5.146
 2151SOL    HW2 7197   0.681   2.618   5.168
 2152SOL     OW 7198   1.487   3.642   4.706
 2152SOL    HW1 7199   1.508   3.705   4.636
 2152SOL    HW2 7200   1.571   3.619   4.744
 2153SOL     OW 7201   0.716   2.422   5.426
 2153SOL    HW1 7202   0.761   2.482   5.485
 2153SOL    HW2 7203   0.738   2.335   5.459
 2154SOL     OW 7204   1.474   3.058   5.354
 2154SOL    HW1 7205   1.462   3.072   5.448
 2154SOL    HW2 7206   1.566   3.077   5.338
 2155SOL     OW 7207   0.378   3.609   5.284
 2155SOL    HW1 7208   0.290   3.645   5.271
 2155SOL    HW2 7209   0.364   3.526   5.328
 2156SOL     OW 7210   1.666   2.743   4.978
 2156SOL    HW1 7211   1.659   2.657   4.935
 2156SOL    HW2 7212   1.655   2.806   4.907
 2157SOL     OW 7213   1.216   2.182   4.181
 2157SOL    HW1 7214   1.278   2.109   4.175
 2157SOL    HW2 7215   1.245   2.231   4.258
 2158SOL     OW 7216   0.588   2.598   4.398
 2158SOL    HW1 7217   0.627   2.684   4.383
 2158SOL    HW2 7218   0.523   2.589   4.328
 2159SOL     OW 7219   1.741   2.235   5.379
 2159SOL    HW1 7220   1.744   2.241   5.283
 2159SOL    HW2 7221   1.670   2.174   5.397
 2160SOL     OW 7222   1.748   2.806   5.231
 2160SOL    HW1 7223   1.734   2.900   5.243
 2160SOL    HW2 7224   1.729   2.790   5.139
 2161SOL     OW 7225   0.866   3.228   3.766
 2161SOL    HW1 7226   0.824   3.256   3.848
 2161SOL    HW2 7227   0.878   3.309   3.717
 2162SOL     OW 7228   0.658   3.649   4.655
 2162SOL    HW1 7229   0.638   3.741   4.638
 2162SOL    HW2 7230   0.754   3.645   4.655
 2163SOL     OW 7231   0.869   2.831   4.577
 2163SOL    HW1 7232   0.919   2.759   4.615
 2163SOL    HW2 7233   0.832   2.877   4.652
 2164SOL     OW 7234   1.076   2.850   3.813
 2164SOL    HW1 7235   1.056   2.902   3.735
 2164SOL    HW2 7236   1.151   2.796   3.787
 2165SOL     OW 7237   1.848   3.411   4.564
 2165SOL    HW1 7238   1.768   3.402   4.514
 2165SOL    HW2 7239   1.838   3.351   4.638
 2166SOL     OW 7240   0.229   3.166   5.581
 2166SOL    HW1 7241   0.153   3.115   5.553
 2166SOL    HW2 7242   0.216   3.179   5.675
 2167SOL     OW 7243   0.120   3.144   4.448
 2167SOL    HW1 7244   0.138   3.092   4.527
 2167SOL    HW2 7245   0.104   3.078   4.380
 2168SOL     OW 7246   0.684   3.268   5.356
 2168SOL    HW1 7247   0.604   3.226   5.386
 2168SOL    HW2 7248   0.681   3.356   5.393
 2169SOL     OW 7249   0.440   2.295   4.258
 2169SOL    HW1 7250   0.440   2.226   4.193
 2169SOL    HW2 7251   0.385   2.262   4.329
 2170SOL     OW 7252   1.700   3.346   4.813
 2170SOL    HW1 7253   1.618   3.326   4.766
 2170SOL    HW2 7254   1.706   3.278   4.880
 2171SOL     OW 7255   0.337   2.421   5.016
 2171SOL    HW1 7256   0.390   2.363   5.071
 2171SOL    HW2 7257   0.350   2.389   4.927
 2172SOL     OW 7258   0.830   3.441   4.400
 2172SOL    HW1 7259   0.810   3.498   4.325
 2172SOL    HW2 7260   0.756   3.380   4.403
 2173SOL     OW 7261   1.435   2.091   4.844
 2173SOL    HW1 7262   1.441   2.003   4.880
 2173SOL    HW2 7263   1.382   2.139   4.908
 2174SOL     OW 7264   1.010   1.878   4.861
 2174SOL    HW1 7265   0.956   1.811   4.818
 2174SOL    HW2 7266   1.098   1.840   4.863
 2175SOL     OW 7267   0.773   3.194   4.045
 2175SOL    HW1 7268   0.745   3.103   4.051
 2175SOL    HW2 7269   0.856   3.197   4.093
 2176SOL     OW 7270   0.621   3.415   5.011
 2176SOL    HW1 7271   0.621   3.497   5.060
 2176SOL    HW2 7272   0.709   3.410   4.973
 2177SOL     OW 7273   1.354   1.911   3.894
 2177SOL    HW1 7274   1.384   1.847   3.830
 2177SOL    HW2 7275   1.266   1.883   3.917
 2178SOL     OW 7276   1.298   2.325   4.403
 2178SOL    HW1 7277   1.245   2.404   4.408
 2178SOL    HW2 7278   1.292   2.287   4.491
 2179SOL     OW 7279   1.571   2.052   4.598
 2179SOL    HW1 7280   1.535   2.080   4.682
 2179SOL    HW2 7281   1.584   2.134   4.549
 2180SOL     OW 7282   0.047   2.909   3.965
 2180SOL    HW1 7283   0.142   2.894   3.957
 2180SOL    HW2 7284   0.012   2.824   3.989
 2181SOL     OW 7285   0.887   3.523   4.065
 2181SOL    HW1 7286   0.815   3.504   4.005
 2181SOL    HW2 7287   0.856   3.597   4.118
 2182SOL     OW 7288   0.231   2.487   5.704
 2182SOL    HW1 7289   0.138   2.495   5.725
 2182SOL    HW2 7290   0.232   2.455   5.614
 2183SOL     OW 7291   0.229   2.135   6.573
 2183SOL    HW1 7292   0.250   2.100   6.659
 2183SOL    HW2 7293   0.134   2.127   6.566
 2184SOL     OW 7294   0.007   2.219   6.216
 2184SOL    HW1 7295   3.917   2.237   6.244
 2184SOL    HW2 7296   3.997   2.190   6.125
 2185SOL     OW 7297   0.581   3.154   6.781
 2185SOL    HW1 7298   0.495   3.156   6.739
 2185SOL    HW2 7299   0.595   3.244   6.813
 2186SOL     OW 7300   1.566   3.371   6.294
 2186SOL    HW1 7301   1.524   3.350   6.376
 2186SOL    HW2 7302   1.495   3.375   6.230
 2187SOL     OW 7303   1.113   2.600   6.275
 2187SOL    HW1 7304   1.181   2.667   6.277
 2187SOL    HW2 7305   1.075   2.601   6.363
 2188SOL     OW 7306   1.763   2.453   5.814
 2188SOL    HW1 7307   1.739   2.454   5.721
 2188SOL    HW2 7308   1.741   2.364   5.844
 2189SOL     OW 7309   0.749   3.000   6.631
 2189SOL    HW1 7310   0.687   3.037   6.694
 2189SOL    HW2 7311   0.786   3.076   6.587
 2190SOL     OW 7312   0.867   2.628   7.406
 2190SOL    HW1 7313   0.859   2.698   7.470
 2190SOL    HW2 7314   0.891   2.673   7.325
 2191SOL     OW 7315   0.684   2.862   6.231
 2191SOL    HW1 7316   0.751   2.852   6.298
 2191SOL    HW2 7317   0.616   2.915   6.271
 2192SOL     OW 7318   0.713   3.011   7.405
 2192SOL    HW1 7319   0.761   3.088   7.434
 2192SOL    HW2 7320   0.633   3.046   7.366
 2193SOL     OW 7321   0.350   3.262   6.664
 2193SOL    HW1 7322   0.269   3.245   6.617
 2193SOL    HW2 7323   0.400   3.320   6.606
 2194SOL     OW 7324   1.460   3.363   6.945
 2194SOL    HW1 7325   1.514   3.442   6.955
 2194SOL    HW2 7326   1.392   3.372   7.011
 2195SOL     OW 7327   0.449   2.259   7.072
 2195SOL    HW1 7328   0.525   2.200   7.075
 2195SOL    HW2 7329   0.374   2.201   7.086
 2196SOL     OW 7330   0.222   3.572   6.052
 2196SOL    HW1 7331   0.220   3.657   6.096
 2196SOL    HW2 7332   0.299   3.576   5.995
 2197SOL     OW 7333   1.137   3.203   7.278
 2197SOL    HW1 7334   1.178   3.197   7.364
 2197SOL    HW2 7335   1.085   3.123   7.270
 2198SOL     OW 7336   0.253   3.307   6.126
 2198SOL    HW1 7337   0.224   3.397   6.112
 2198SOL    HW2 7338   0.184   3.267   6.179
 2199SOL     OW 7339   0.248   2.927   6.469
 2199SOL    HW1 7340   0.269   2.842   6.508
 2199SOL    HW2 7341   0.195   2.972   6.535
 2200SOL     OW 7342   0.609   3.648   7.012
 2200SOL    HW1 7343   0.527   3.634   7.059
 2200SOL    HW2 7344   0.636   3.736   7.037
 2201SOL     OW 7345   0.575   2.849   5.726
 2201SOL    HW1 7346   0.624   2.893   5.657
 2201SOL    HW2 7347   0.616   2.879   5.807
 2202SOL     OW 7348   1.546   1.993   7.018
 2202SOL    HW1 7349   1.546   2.078   6.975
 2202SOL    HW2 7350   1.589   2.008   7.102
 2203SOL     OW 7351   0.144   2.518   6.159
 2203SOL    HW1 7352   0.087   2.441   6.157
 2203SOL    HW2 7353   0.108   2.572   6.230
 2204SOL     OW 7354   1.844   3.606   5.923
 2204SOL    HW1 7355   1.913   3.583   5.985
 2204SOL    HW2 7356   1.861   3.697   5.900
 2205SOL     OW 7357   0.040   3.451   5.725
 2205SOL    HW1 7358   0.036   3.360   5.753
 2205SOL    HW2 7359   3.955   3.487   5.749
 2206SOL     OW 7360   1.642   2.981   6.008
 2206SOL    HW1 7361   1.731   2.974   5.976
 2206SOL    HW2 7362   1.650   3.022   6.095
 2207SOL     OW 7363   0.143   2.614   7.176
 2207SOL    HW1 7364   0.238   2.611   7.170
 2207SOL    HW2 7365   0.124   2.702   7.210
 2208SOL     OW 7366   0.617   3.249   6.320
 2208SOL    HW1 7367   0.570   3.167   6.329
 2208SOL    HW2 7368   0.599   3.277   6.230
 2209SOL     OW 7369   1.286   3.099   7.003
 2209SOL    HW1 7370   1.317   3.030   6.945
 2209SOL    HW2 7371   1.345   3.095   7.079
 2210SOL     OW 7372   0.818   1.860   6.104
 2210SOL    HW1 7373   0.857   1.944   6.079
 2210SOL    HW2 7374   0.724   1.876   6.106
 2211SOL     OW 7375   0.183   2.811   6.867
 2211SOL    HW1 7376   0.271   2.775   6.855
 2211SOL    HW2 7377   0.133   2.775   6.794
 2212SOL     OW 7378   1.530   2.858   5.787
 2212SOL    HW1 7379   1.466   2.796   5.822
 2212SOL    HW2 7380   1.570   2.897   5.865
 2213SOL     OW 7381   1.223   3.668   7.214
 2213SOL    HW1 7382   1.196   3.729   7.146
 2213SOL    HW2 7383   1.222   3.582   7.171
 2214SOL     OW 7384   0.342   2.110   7.407
 2214SOL    HW1 7385   0.376   2.200   7.410
 2214SOL    HW2 7386   0.250   2.118   7.430
 2215SOL     OW 7387   1.466   3.280   6.535
 2215SOL    HW1 7388   1.399   3.297   6.601
 2215SOL    HW2 7389   1.451   3.189   6.509
 2216SOL     OW 7390   1.654   3.603   6.168
 2216SOL    HW1 7391   1.640   3.572   6.078
 2216SOL    HW2 7392   1.630   3.528   6.222
 2217SOL     OW 7393   0.596   2.577   5.853
 2217SOL    HW1 7394   0.600   2.662   5.809
 2217SOL    HW2 7395   0.533   2.590   5.924
 2218SOL     OW 7396   1.576   3.538   5.895
 2218SOL    HW1 7397   1.669   3.560   5.889
 2218SOL    HW2 7398   1.550   3.520   5.805
 2219SOL     OW 7399   0.792   2.480   7.036
 2219SOL    HW1 7400   0.764   2.453   7.123
 2219SOL    HW2 7401   0.758   2.412   6.977
 2220SOL     OW 7402   0.951   2.745   7.171
 2220SOL    HW1 7403   1.007   2.678   7.133
 2220SOL    HW2 7404   0.903   2.782   7.097
 2221SOL     OW 7405   0.992   2.275   6.815
 2221SOL    HW1 7406   0.902   2.288   6.843
 2221SOL    HW2 7407   0.985   2.235   6.728
 2222SOL     OW 7408   1.055   2.560   6.008
 2222SOL    HW1 7409   1.066   2.568   6.103
 2222SOL    HW2 7410   0.971   2.514   5.998
 2223SOL     OW 7411   0.083   2.693   6.375
 2223SOL    HW1 7412   0.155   2.661   6.430
 2223SOL    HW2 7413   0.104   2.785   6.359
 2224SOL     OW 7414   0.127   3.719   7.167
 2224SOL    HW1 7415   0.135   3.687   7.257
 2224SOL    HW2 7416   0.035   3.706   7.145
 2225SOL     OW 7417   0.902   2.211   5.781
 2225SOL    HW1 7418   0.941   2.275   5.722
 2225SOL    HW2 7419   0.906   2.129   5.732
 2226SOL     OW 7420   1.376   3.009   6.119
 2226SOL    HW1 7421   1.458   2.996   6.071
 2226SOL    HW2 7422   1.327   3.072   6.067
 2227SOL     OW 7423   0.545   2.039   6.482
 2227SOL    HW1 7424   0.554   2.072   6.572
 2227SOL    HW2 7425   0.546   2.118   6.428
 2228SOL     OW 7426   1.001   3.307   6.056
 2228SOL    HW1 7427   0.967   3.381   6.006
 2228SOL    HW2 7428   0.979   3.326   6.147
 2229SOL     OW 7429   0.359   3.673   6.450
 2229SOL    HW1 7430   0.440   3.623   6.464
 2229SOL    HW2 7431   0.386   3.764   6.459
 2230SOL     OW 7432   1.228   3.399   7.096
 2230SOL    HW1 7433   1.215   3.327   7.158
 2230SOL    HW2 7434   1.156   3.390   7.033
 2231SOL     OW 7435   0.311   2.815   5.829
 2231SOL    HW1 7436   0.394   2.837   5.786
 2231SOL    HW2 7437   0.298   2.722   5.809
 2232SOL     OW 7438   0.470   3.123   7.323
 2232SOL    HW1 7439   0.444   3.131   7.231
 2232SOL    HW2 7440   0.387   3.126   7.371
 2233SOL     OW 7441   1.113   3.643   5.806
 2233SOL    HW1 7442   1.048   3.598   5.859
 2233SOL    HW2 7443   1.145   3.577   5.745
 2234SOL     OW 7444   0.203   2.131   7.094
 2234SOL    HW1 7445   0.114   2.165   7.090
 2234SOL    HW2 7446   0.194   2.042   7.130
 2235SOL     OW 7447   1.628   3.244   5.675
 2235SOL    HW1 7448   1.586   3.329   5.659
 2235SOL    HW2 7449   1.560   3.180   5.656
 2236SOL     OW 7450   0.467   3.603   5.907
 2236SOL    HW1 7451   0.506   3.664   5.969
 2236SOL    HW2 7452   0.540   3.573   5.853
 2237SOL     OW 7453   0.256   3.657   6.810
 2237SOL    HW1 7454   0.297   3.588   6.862
 2237SOL    HW2 7455   0.253   3.621   6.721
 2238SOL     OW 7456   0.938   3.564   6.484
 2238SOL    HW1 7457   1.015   3.513   6.508
 2238SOL    HW2 7458   0.895   3.514   6.415
 2239SOL     OW 7459   0.400   2.553   6.056
 2239SOL    HW1 7460   0.424   2.462   6.072
 2239SOL    HW2 7461   0.309   2.560   6.083
 2240SOL     OW 7462   0.650   1.978   5.679
 2240SOL    HW1 7463   0.704   1.903   5.702
 2240SOL    HW2 7464   0.596   1.947   5.606
 2241SOL     OW 7465   0.763   2.149   7.347
 2241SOL    HW1 7466   0.841   2.093   7.338
 2241SOL    HW2 7467   0.712   2.107   7.416
 2242SOL     OW 7468   0.876   3.383   6.780
 2242SOL    HW1 7469   0.858   3.346   6.694
 2242SOL    HW2 7470   0.945   3.328   6.816
 2243SOL     OW 7471   1.358   2.460   7.025
 2243SOL    HW1 7472   1.385   2.452   7.116
 2243SOL    HW2 7473   1.374   2.552   7.003
 2244SOL     OW 7474   0.818   3.252   6.530
 2244SOL    HW1 7475   0.903   3.240   6.488
 2244SOL    HW2 7476   0.756   3.256   6.457
 2245SOL     OW 7477   0.928   2.370   6.488
 2245SOL    HW1 7478   0.907   2.359   6.395
 2245SOL    HW2 7479   0.956   2.282   6.516
 2246SOL     OW 7480   0.557   1.923   6.078
 2246SOL    HW1 7481   0.475   1.930   6.128
 2246SOL    HW2 7482   0.562   2.006   6.029
 2247SOL     OW 7483   1.428   3.061   5.626
 2247SOL    HW1 7484   1.458   2.986   5.678
 2247SOL    HW2 7485   1.343   3.084   5.663
 2248SOL     OW 7486   0.308   1.914   5.756
 2248SOL    HW1 7487   0.369   1.952   5.693
 2248SOL    HW2 7488   0.359   1.849   5.803
 2249SOL     OW 7489   0.930   2.104   6.040
 2249SOL    HW1 7490   0.906   2.147   5.958
 2249SOL    HW2 7491   1.026   2.104   6.039
 2250SOL     OW 7492   1.081   2.540   7.044
 2250SOL    HW1 7493   1.007   2.479   7.049
 2250SOL    HW2 7494   1.159   2.484   7.049
 2251SOL     OW 7495   1.221   3.434   6.380
 2251SOL    HW1 7496   1.234   3.500   6.312
 2251SOL    HW2 7497   1.289   3.451   6.444
 2252SOL     OW 7498   0.467   3.014   6.319
 2252SOL    HW1 7499   0.397   2.989   6.379
 2252SOL    HW2 7500   0.431   2.998   6.231
 2253SOL     OW 7501   1.264   3.655   6.195
 2253SOL    HW1 7502   1.313   3.719   6.144
 2253SOL    HW2 7503   1.191   3.704   6.232
 2254SOL     OW 7504   1.023   2.400   5.612
 2254SOL    HW1 7505   0.976   2.481   5.590
 2254SOL    HW2 7506   1.093   2.429   5.670
 2255SOL     OW 7507   0.084   2.435   6.975
 2255SOL    HW1 7508   0.173   2.423   6.945
 2255SOL    HW2 7509   0.090   2.505   7.041
 2256SOL     OW 7510   0.566   2.089   6.754
 2256SOL    HW1 7511   0.608   2.015   6.798
 2256SOL    HW2 7512   0.475   2.085   6.782
 2257SOL     OW 7513   0.871   2.318   6.225
 2257SOL    HW1 7514   0.823   2.375   6.166
 2257SOL    HW2 7515   0.882   2.236   6.175
 2258SOL     OW 7516   0.977   1.927   6.348
 2258SOL    HW1 7517   0.931   1.909   6.267
 2258SOL    HW2 7518   0.974   1.844   6.396
 2259SOL     OW 7519   1.446   3.019   6.444
 2259SOL    HW1 7520   1.368   2.968   6.423
 2259SOL    HW2 7521   1.491   3.030   6.360
 2260SOL     OW 7522   1.844   2.677   5.938
 2260SOL    HW1 7523   1.922   2.632   5.970
 2260SOL    HW2 7524   1.797   2.611   5.888
 2261SOL     OW 7525   0.488   3.283   5.743
 2261SOL    HW1 7526   0.411   3.253   5.793
 2261SOL    HW2 7527   0.472   3.251   5.655
 2262SOL     OW 7528   1.672   3.116   6.246
 2262SOL    HW1 7529   1.768   3.116   6.251
 2262SOL    HW2 7530   1.647   3.208   6.255
 2263SOL     OW 7531   1.389   2.437   5.653
 2263SOL    HW1 7532   1.340   2.412   5.731
 2263SOL    HW2 7533   1.480   2.417   5.674
 2264SOL     OW 7534   0.578   2.129   5.900
 2264SOL    HW1 7535   0.609   2.083   5.822
 2264SOL    HW2 7536   0.543   2.212   5.867
 2265SOL     OW 7537   1.756   3.106   7.152
 2265SOL    HW1 7538   1.846   3.079   7.135
 2265SOL    HW2 7539   1.762   3.197   7.182
 2266SOL     OW 7540   1.054   3.214   6.916
 2266SOL    HW1 7541   0.979   3.184   6.967
 2266SOL    HW2 7542   1.130   3.174   6.959
 2267SOL     OW 7543   1.610   3.489   7.244
 2267SOL    HW1 7544   1.601   3.523   7.155
 2267SOL    HW2 7545   1.693   3.442   7.242
 2268SOL     OW 7546   1.133   3.068   6.689
 2268SOL    HW1 7547   1.074   3.106   6.753
 2268SOL    HW2 7548   1.103   3.102   6.605
 2269SOL     OW 7549   1.646   2.975   6.645
 2269SOL    HW1 7550   1.625   3.032   6.719
 2269SOL    HW2 7551   1.578   2.993   6.581
 2270SOL     OW 7552   0.907   1.957   6.977
 2270SOL    HW1 7553   0.925   1.941   6.885
 2270SOL    HW2 7554   0.986   2.000   7.010
 2271SOL     OW 7555   0.982   2.978   7.309
 2271SOL    HW1 7556   0.889   2.991   7.329
 2271SOL    HW2 7557   0.984   2.899   7.254
 2272SOL     OW 7558   0.708   2.923   5.957
 2272SOL    HW1 7559   0.693   2.905   6.050
 2272SOL    HW2 7560   0.784   2.870   5.933
 2273SOL     OW 7561   0.423   2.680   6.839
 2273SOL    HW1 7562   0.491   2.688   6.906
 2273SOL    HW2 7563   0.389   2.591   6.850
 2274SOL     OW 7564   1.265   2.241   6.875
 2274SOL    HW1 7565   1.298   2.322   6.915
 2274SOL    HW2 7566   1.179   2.265   6.841
 2275SOL     OW 7567   0.065   3.442   6.931
 2275SOL    HW1 7568   0.071   3.485   6.846
 2275SOL    HW2 7569   0.157   3.432   6.959
 2276SOL     OW 7570   0.366   2.965   6.067
 2276SOL    HW1 7571   0.363   3.046   6.017
 2276SOL    HW2 7572   0.366   2.895   6.001
 2277SOL     OW 7573   0.548   2.397   6.447
 2277SOL    HW1 7574   0.562   2.454   6.372
 2277SOL    HW2 7575   0.617   2.421   6.509
 2278SOL     OW 7576   1.246   3.214   5.973
 2278SOL    HW1 7577   1.303   3.284   6.006
 2278SOL    HW2 7578   1.160   3.235   6.008
 2279SOL     OW 7579   1.287   3.322   6.735
 2279SOL    HW1 7580   1.342   3.327   6.813
 2279SOL    HW2 7581   1.230   3.247   6.750
 2280SOL     OW 7582   0.345   3.391   6.903
 2280SOL    HW1 7583   0.335   3.340   6.822
 2280SOL    HW2 7584   0.439   3.405   6.911
 2281SOL     OW 7585   0.419   2.599   7.188
 2281SOL    HW1 7586   0.482   2.644   7.131
 2281SOL    HW2 7587   0.458   2.513   7.204
 2282SOL     OW 7588   1.561   2.746   7.252
 2282SOL    HW1 7589   1.492   2.724   7.189
 2282SOL    HW2 7590   1.636   2.770   7.198
 2283SOL     OW 7591   0.974   1.977   7.342
 2283SOL    HW1 7592   1.057   2.021   7.325
 2283SOL    HW2 7593   0.991   1.885   7.323
 2284SOL     OW 7594   0.497   1.899   7.333
 2284SOL    HW1 7595   0.453   1.846   7.267
 2284SOL    HW2 7596   0.441   1.977   7.342
 2285SOL     OW 7597   0.584   2.737   6.618
 2285SOL    HW1 7598   0.620   2.826   6.620
 2285SOL    HW2 7599   0.530   2.731   6.696
 2286SOL     OW 7600   1.221   2.389   5.868
 2286SOL    HW1 7601   1.238   2.322   5.934
 2286SOL    HW2 7602   1.163   2.451   5.912
 2287SOL     OW 7603   0.309   2.057   6.833
 2287SOL    HW1 7604   0.262   2.093   6.908
 2287SOL    HW2 7605   0.287   1.964   6.833
 2288SOL     OW 7606   0.062   3.167   6.867
 2288SOL    HW1 7607   0.092   3.125   6.947
 2288SOL    HW2 7608   0.053   3.260   6.890
 2289SOL     OW 7609   0.723   2.492   6.641
 2289SOL    HW1 7610   0.800   2.477   6.585
 2289SOL    HW2 7611   0.696   2.582   6.620
 2290SOL     OW 7612   0.316   1.923   6.206
 2290SOL    HW1 7613   0.293   2.014   6.226
 2290SOL    HW2 7614   0.322   1.881   6.291
 2291SOL     OW 7615   1.617   2.238   5.955
 2291SOL    HW1 7616   1.610   2.162   6.013
 2291SOL    HW2 7617   1.580   2.310   6.004
 2292SOL     OW 7618   1.013   2.623   6.540
 2292SOL    HW1 7619   1.020   2.638   6.635
 2292SOL    HW2 7620   0.998   2.529   6.533
 2293SOL     OW 7621   0.987   3.430   7.308
 2293SOL    HW1 7622   0.966   3.470   7.224
 2293SOL    HW2 7623   1.027   3.346   7.285
 2294SOL     OW 7624   1.853   3.365   7.190
 2294SOL    HW1 7625   1.873   3.395   7.101
 2294SOL    HW2 7626   1.933   3.381   7.239
 2295SOL     OW 7627   0.354   2.784   7.385
 2295SOL    HW1 7628   0.432   2.805   7.436
 2295SOL    HW2 7629   0.383   2.717   7.324
 2296SOL     OW 7630   1.524   2.132   5.709
 2296SOL    HW1 7631   1.463   2.067   5.742
 2296SOL    HW2 7632   1.564   2.170   5.788
 2297SOL     OW 7633   1.288   2.689   5.616
 2297SOL    HW1 7634   1.329   2.603   5.618
 2297SOL    HW2 7635   1.319   2.728   5.534
 2298SOL     OW 7636   1.069   3.200   6.443
 2298SOL    HW1 7637   1.074   3.128   6.380
 2298SOL    HW2 7638   1.127   3.267   6.406
 2299SOL     OW 7639   0.313   2.663   6.536
 2299SOL    HW1 7640   0.407   2.681   6.531
 2299SOL    HW2 7641   0.308   2.572   6.566
 2300SOL     OW 7642   0.328   2.383   6.601
 2300SOL    HW1 7643   0.294   2.295   6.585
 2300SOL    HW2 7644   0.405   2.390   6.544
 2301SOL     OW 7645   1.124   2.280   7.246
 2301SOL    HW1 7646   1.072   2.327   7.311
 2301SOL    HW2 7647   1.194   2.238   7.296
 2302SOL     OW 7648   1.145   2.065   7.042
 2302SOL    HW1 7649   1.138   2.125   7.116
 2302SOL    HW2 7650   1.193   2.115   6.975
 2303SOL     OW 7651   0.000   3.178   5.768
 2303SOL    HW1 7652   3.906   3.194   5.772
 2303SOL    HW2 7653   0.009   3.084   5.786
 2304SOL     OW 7654   0.076   3.662   6.481
 2304SOL    HW1 7655   0.094   3.569   6.476
 2304SOL    HW2 7656   0.162   3.703   6.481
 2305SOL     OW 7657   0.506   3.423   6.504
 2305SOL    HW1 7658   0.571   3.491   6.523
 2305SOL    HW2 7659   0.549   3.366   6.440
 2306SOL     OW 7660   0.979   2.653   6.813
 2306SOL    HW1 7661   1.036   2.627   6.885
 2306SOL    HW2 7662   0.895   2.610   6.832
 2307SOL     OW 7663   0.038   2.423   6.695
 2307SOL    HW1 7664   0.121   2.400   6.652
 2307SOL    HW2 7665   0.057   2.419   6.789
 2308SOL     OW 7666   0.207   2.373   7.313
 2308SOL    HW1 7667   0.245   2.324   7.240
 2308SOL    HW2 7668   0.163   2.447   7.272
 2309SOL     OW 7669   1.291   2.840   7.227
 2309SOL    HW1 7670   1.354   2.911   7.233
 2309SOL    HW2 7671   1.305   2.803   7.140
 2310SOL     OW 7672   0.819   2.432   5.948
 2310SOL    HW1 7673   0.822   2.356   5.890
 2310SOL    HW2 7674   0.744   2.483   5.918
 2311SOL     OW 7675   1.658   2.503   6.848
 2311SOL    HW1 7676   1.653   2.423   6.899
 2311SOL    HW2 7677   1.709   2.480   6.771
 2312SOL     OW 7678   0.301   3.406   7.309
 2312SOL    HW1 7679   0.253   3.475   7.355
 2312SOL    HW2 7680   0.272   3.325   7.351
 2313SOL     OW 7681   0.710   2.310   6.841
 2313SOL    HW1 7682   0.656   2.236   6.812
 2313SOL    HW2 7683   0.704   2.374   6.770
 2314SOL     OW 7684   0.927   3.532   7.056
 2314SOL    HW1 7685   0.899   3.493   6.973
 2314SOL    HW2 7686   0.919   3.626   7.042
 2315SOL     OW 7687   0.453   2.350   5.783
 2315SOL    HW1 7688   0.518   2.418   5.801
 2315SOL    HW2 7689   0.374   2.399   5.760
 2316SOL     OW 7690   0.155   2.996   7.063
 2316SOL    HW1 7691   0.154   2.946   7.144
 2316SOL    HW2 7692   0.170   2.931   6.994
 2317SOL     OW 7693   1.320   2.903   6.804
 2317SOL    HW1 7694   1.370   2.875   6.727
 2317SOL    HW2 7695   1.246   2.952   6.768
 2318SOL     OW 7696   1.313   2.705   5.893
 2318SOL    HW1 7697   1.231   2.686   5.938
 2318SOL    HW2 7698   1.291   2.700   5.800
 2319SOL     OW 7699   1.774   3.600   6.739
 2319SOL    HW1 7700   1.836   3.629   6.672
 2319SOL    HW2 7701   1.751   3.511   6.714
 2320SOL     OW 7702   1.244   3.594   6.692
 2320SOL    HW1 7703   1.328   3.616   6.650
 2320SOL    HW2 7704   1.252   3.501   6.712
 2321SOL     OW 7705   0.077   3.075   6.614
 2321SOL    HW1 7706   0.084   3.103   6.706
 2321SOL    HW2 7707   3.985   3.088   6.592
 2322SOL     OW 7708   0.680   3.529   7.323
 2322SOL    HW1 7709   0.620   3.603   7.326
 2322SOL    HW2 7710   0.740   3.549   7.251
 2323SOL     OW 7711   1.391   3.431   6.075
 2323SOL    HW1 7712   1.450   3.465   6.007
 2323SOL    HW2 7713   1.342   3.507   6.105
 2324SOL     OW 7714   0.171   3.620   7.419
 2324SOL    HW1 7715   0.117   3.567   7.477
 2324SOL    HW2 7716   0.217   3.681   7.477
 2325SOL     OW 7717   1.312   2.787   6.257
 2325SOL    HW1 7718   1.394   2.740   6.243
 2325SOL    HW2 7719   1.323   2.868   6.206
 2326SOL     OW 7720   0.807   3.138   7.011
 2326SOL    HW1 7721   0.779   3.179   7.093
 2326SOL    HW2 7722   0.735   3.153   6.950
 2327SOL     OW 7723   0.674   3.480   5.745
 2327SOL    HW1 7724   0.683   3.498   5.651
 2327SOL    HW2 7725   0.615   3.405   5.749
 2328SOL     OW 7726   1.621   3.589   6.976
 2328SOL    HW1 7727   1.673   3.593   6.896
 2328SOL    HW2 7728   1.606   3.680   7.000
 2329SOL     OW 7729   0.264   2.174   6.301
 2329SOL    HW1 7730   0.178   2.205   6.276
 2329SOL    HW2 7731   0.260   2.165   6.397
 2330SOL     OW 7732   1.208   3.464   5.623
 2330SOL    HW1 7733   1.197   3.372   5.646
 2330SOL    HW2 7734   1.147   3.478   5.550
 2331SOL     OW 7735   0.823   2.868   6.962
 2331SOL    HW1 7736   0.868   2.860   6.878
 2331SOL    HW2 7737   0.821   2.962   6.979
 2332SOL     OW 7738   0.916   2.772   5.878
 2332SOL    HW1 7739   0.975   2.805   5.811
 2332SOL    HW2 7740   0.964   2.702   5.921
 2333SOL     OW 7741   1.488   3.493   5.629
 2333SOL    HW1 7742   1.395   3.481   5.613
 2333SOL    HW2 7743   1.527   3.498   5.542
 2334SOL     OW 7744   0.374   3.165   7.077
 2334SOL    HW1 7745   0.359   3.245   7.027
 2334SOL    HW2 7746   0.297   3.111   7.060
 2335SOL     OW 7747   1.607   3.147   6.859
 2335SOL    HW1 7748   1.667   3.131   6.932
 2335SOL    HW2 7749   1.546   3.214   6.893
 2336SOL     OW 7750   1.060   2.971   6.297
 2336SOL    HW1 7751   0.988   2.922   6.337
 2336SOL    HW2 7752   1.113   2.904   6.254
 2337SOL     OW 7753   0.992   2.107   6.563
 2337SOL    HW1 7754   0.988   2.062   6.479
 2337SOL    HW2 7755   0.997   2.037   6.628
 2338SOL     OW 7756   0.607   3.353   6.066
 2338SOL    HW1 7757   0.653   3.303   5.999
 2338SOL    HW2 7758   0.533   3.392   6.020
 2339SOL     OW 7759   1.737   2.238   6.945
 2339SOL    HW1 7760   1.807   2.302   6.953
 2339SOL    HW2 7761   1.780   2.159   6.913
 2340SOL     OW 7762   0.254   3.202   5.878
 2340SOL    HW1 7763   0.160   3.208   5.860
 2340SOL    HW2 7764   0.265   3.241   5.965
 2341SOL     OW 7765   0.108   2.859   7.303
 2341SOL    HW1 7766   0.049   2.854   7.378
 2341SOL    HW2 7767   0.195   2.841   7.341
 2342SOL     OW 7768   0.673   2.061   7.089
 2342SOL    HW1 7769   0.756   2.038   7.047
 2342SOL    HW2 7770   0.698   2.096   7.174
 2343SOL     OW 7771   0.080   2.174   5.625
 2343SOL    HW1 7772   3.985   2.173   5.632
 2343SOL    HW2 7773   0.101   2.254   5.577
 2344SOL     OW 7774   1.423   2.729   6.989
 2344SOL    HW1 7775   1.371   2.784   6.931
 2344SOL    HW2 7776   1.513   2.737   6.955
 2345SOL     OW 7777   0.017   2.104   5.963
 2345SOL    HW1 7778   0.044   2.167   5.897
 2345SOL    HW2 7779   0.098   2.063   5.993
 2346SOL     OW 7780   1.177   3.197   5.702
 2346SOL    HW1 7781   1.086   3.170   5.704
 2346SOL    HW2 7782   1.203   3.198   5.794
 2347SOL     OW 7783   0.620   2.692   7.023
 2347SOL    HW1 7784   0.677   2.768   7.008
 2347SOL    HW2 7785   0.681   2.618   7.029
 2348SOL     OW 7786   1.487   3.642   6.567
 2348SOL    HW1 7787   1.507   3.704   6.498
 2348SOL    HW2 7788   1.571   3.621   6.607
 2349SOL     OW 7789   0.711   2.422   7.286
 2349SOL    HW1 7790   0.754   2.483   7.346
 2349SOL    HW2 7791   0.733   2.336   7.320
 2350SOL     OW 7792   1.472   3.060   7.210
 2350SOL    HW1 7793   1.457   3.072   7.304
 2350SOL    HW2 7794   1.566   3.074   7.199
 2351SOL     OW 7795   0.378   3.609   7.146
 2351SOL    HW1 7796   0.290   3.645   7.133
 2351SOL    HW2 7797   0.364   3.526   7.190
 2352SOL     OW 7798   1.662   2.775   6.848
 2352SOL    HW1 7799   1.669   2.682   6.825
 2352SOL    HW2 7800   1.669   2.821   6.764
 2353SOL     OW 7801   0.588   2.598   6.259
 2353SOL    HW1 7802   0.627   2.684   6.245
 2353SOL    HW2 7803   0.523   2.589   6.189
 2354SOL     OW 7804   1.763   2.185   7.207
 2354SOL    HW1 7805   1.763   2.206   7.114
 2354SOL    HW2 7806   1.677   2.214   7.238
 2355SOL     OW 7807   1.761   2.830   7.094
 2355SOL    HW1 7808   1.743   2.924   7.098
 2355SOL    HW2 7809   1.740   2.806   7.003
 2356SOL     OW 7810   0.866   3.228   5.628
 2356SOL    HW1 7811   0.824   3.256   5.710
 2356SOL    HW2 7812   0.879   3.309   5.579
 2357SOL     OW 7813   0.658   3.649   6.517
 2357SOL    HW1 7814   0.638   3.741   6.500
 2357SOL    HW2 7815   0.754   3.645   6.517
 2358SOL     OW 7816   0.867   2.835   6.438
 2358SOL    HW1 7817   0.914   2.759   6.473
 2358SOL    HW2 7818   0.830   2.878   6.515
 2359SOL     OW 7819   1.076   2.849   5.676
 2359SOL    HW1 7820   1.055   2.902   5.598
 2359SOL    HW2 7821   1.151   2.796   5.649
 2360SOL     OW 7822   1.849   3.408   6.429
 2360SOL    HW1 7823   1.771   3.402   6.373
 2360SOL    HW2 7824   1.828   3.353   6.504
 2361SOL     OW 7825   0.228   3.166   7.443
 2361SOL    HW1 7826   0.153   3.114   7.415
 2361SOL    HW2 7827   0.216   3.179   7.537
 2362SOL     OW 7828   0.119   3.143   6.310
 2362SOL    HW1 7829   0.139   3.092   6.388
 2362SOL    HW2 7830   0.104   3.078   6.242
 2363SOL     OW 7831   0.684   3.268   7.218
 2363SOL    HW1 7832   0.604   3.226   7.248
 2363SOL    HW2 7833   0.681   3.356   7.255
 2364SOL     OW 7834   0.440   2.294   6.120
 2364SOL    HW1 7835   0.433   2.226   6.053
 2364SOL    HW2 7836   0.386   2.263   6.192
 2365SOL     OW 7837   1.699   3.348   6.673
 2365SOL    HW1 7838   1.617   3.328   6.627
 2365SOL    HW2 7839   1.704   3.281   6.741
 2366SOL     OW 7840   0.336   2.421   6.878
 2366SOL    HW1 7841   0.390   2.363   6.933
 2366SOL    HW2 7842   0.351   2.389   6.789
 2367SOL     OW 7843   0.830   3.441   6.262
 2367SOL    HW1 7844   0.810   3.498   6.187
 2367SOL    HW2 7845   0.756   3.380   6.266
 2368SOL     OW 7846   0.998   1.874   6.725
 2368SOL    HW1 7847   0.952   1.806   6.675
 2368SOL    HW2 7848   1.085   1.838   6.741
 2369SOL     OW 7849   0.773   3.194   5.907
 2369SOL    HW1 7850   0.745   3.103   5.914
 2369SOL    HW2 7851   0.855   3.197   5.956
 2370SOL     OW 7852   0.621   3.415   6.873
 2370SOL    HW1 7853   0.621   3.497   6.922
 2370SOL    HW2 7854   0.709   3.410   6.835
 2371SOL     OW 7855   1.357   1.916   5.762
 2371SOL    HW1 7856   1.389   1.846   5.705
 2371SOL    HW2 7857   1.268   1.889   5.784
 2372SOL     OW 7858   0.047   2.909   5.827
 2372SOL    HW1 7859   0.142   2.894   5.819
 2372SOL    HW2 7860   0.011   2.824   5.851
 2373SOL     OW 7861   0.887   3.523   5.927
 2373SOL    HW1 7862   0.815   3.504   5.867
 2373SOL    HW2 7863   0.856   3.597   5.979
 2374SOL     OW 7864   0.231   2.486   7.566
 2374SOL    HW1 7865   0.138   2.494   7.587
 2374SOL    HW2 7866   0.232   2.455   7.476
 2375SOL     OW 7867   0.229   2.135   8.435
 2375SOL    HW1 7868   0.250   2.100   8.521
 2375SOL    HW2 7869   0.134   2.127   8.428
 2376SOL     OW 7870   0.007   2.219   8.078
 2376SOL    HW1 7871   3.917   2.238   8.106
 2376SOL    HW2 7872   3.998   2.190   7.987
 2377SOL     OW 7873   0.581   3.154   8.643
 2377SOL    HW1 7874   0.495   3.156   8.600
 2377SOL    HW2 7875   0.595   3.243   8.674
 2378SOL     OW 7876   1.566   3.374   8.158
 2378SOL    HW1 7877   1.523   3.351   8.241
 2378SOL    HW2 7878   1.494   3.377   8.094
 2379SOL     OW 7879   1.132   2.558   8.140
 2379SOL    HW1 7880   1.180   2.639   8.128
 2379SOL    HW2 7881   1.085   2.570   8.223
 2380SOL     OW 7882   0.750   2.999   8.493
 2380SOL    HW1 7883   0.688   3.036   8.556
 2380SOL    HW2 7884   0.787   3.075   8.448
 2381SOL     OW 7885   0.873   2.627   9.271
 2381SOL    HW1 7886   0.864   2.698   9.335
 2381SOL    HW2 7887   0.895   2.671   9.189
 2382SOL     OW 7888   0.684   2.861   8.093
 2382SOL    HW1 7889   0.751   2.852   8.161
 2382SOL    HW2 7890   0.616   2.915   8.134
 2383SOL     OW 7891   0.713   3.011   9.267
 2383SOL    HW1 7892   0.761   3.089   9.297
 2383SOL    HW2 7893   0.633   3.046   9.228
 2384SOL     OW 7894   0.350   3.262   8.526
 2384SOL    HW1 7895   0.269   3.245   8.478
 2384SOL    HW2 7896   0.401   3.320   8.469
 2385SOL     OW 7897   1.459   3.364   8.807
 2385SOL    HW1 7898   1.513   3.442   8.817
 2385SOL    HW2 7899   1.391   3.373   8.874
 2386SOL     OW 7900   0.450   2.259   8.933
 2386SOL    HW1 7901   0.526   2.200   8.937
 2386SOL    HW2 7902   0.375   2.201   8.948
 2387SOL     OW 7903   1.598   2.306   8.184
 2387SOL    HW1 7904   1.507   2.312   8.152
 2387SOL    HW2 7905   1.609   2.384   8.239
 2388SOL     OW 7906   0.222   3.572   7.914
 2388SOL    HW1 7907   0.220   3.657   7.958
 2388SOL    HW2 7908   0.299   3.576   7.857
 2389SOL     OW 7909   1.138   3.204   9.142
 2389SOL    HW1 7910   1.178   3.197   9.229
 2389SOL    HW2 7911   1.085   3.124   9.134
 2390SOL     OW 7912   0.253   3.307   7.988
 2390SOL    HW1 7913   0.224   3.397   7.974
 2390SOL    HW2 7914   0.183   3.267   8.040
 2391SOL     OW 7915   0.248   2.927   8.331
 2391SOL    HW1 7916   0.268   2.842   8.370
 2391SOL    HW2 7917   0.195   2.972   8.397
 2392SOL     OW 7918   0.609   3.648   8.874
 2392SOL    HW1 7919   0.527   3.634   8.921
 2392SOL    HW2 7920   0.636   3.737   8.898
 2393SOL     OW 7921   0.575   2.849   7.587
 2393SOL    HW1 7922   0.625   2.893   7.518
 2393SOL    HW2 7923   0.615   2.879   7.669
 2394SOL     OW 7924   1.551   2.003   8.886
 2394SOL    HW1 7925   1.574   2.088   8.847
 2394SOL    HW2 7926   1.544   2.021   8.979
 2395SOL     OW 7927   0.144   2.518   8.021
 2395SOL    HW1 7928   0.087   2.441   8.019
 2395SOL    HW2 7929   0.108   2.572   8.092
 2396SOL     OW 7930   1.844   3.606   7.786
 2396SOL    HW1 7931   1.913   3.583   7.847
 2396SOL    HW2 7932   1.862   3.697   7.763
 2397SOL     OW 7933   0.040   3.451   7.587
 2397SOL    HW1 7934   0.036   3.360   7.615
 2397SOL    HW2 7935   3.955   3.487   7.611
 2398SOL     OW 7936   1.691   2.772   8.090
 2398SOL    HW1 7937   1.777   2.735   8.072
 2398SOL    HW2 7938   1.672   2.826   8.014
 2399SOL     OW 7939   1.643   2.968   7.887
 2399SOL    HW1 7940   1.725   2.979   7.840
 2399SOL    HW2 7941   1.650   3.029   7.961
 2400SOL     OW 7942   0.142   2.615   9.038
 2400SOL    HW1 7943   0.238   2.611   9.032
 2400SOL    HW2 7944   0.124   2.702   9.072
 2401SOL     OW 7945   0.617   3.249   8.182
 2401SOL    HW1 7946   0.569   3.167   8.191
 2401SOL    HW2 7947   0.599   3.277   8.092
 2402SOL     OW 7948   1.286   3.098   8.869
 2402SOL    HW1 7949   1.317   3.030   8.809
 2402SOL    HW2 7950   1.346   3.093   8.944
 2403SOL     OW 7951   0.822   1.872   7.966
 2403SOL    HW1 7952   0.855   1.958   7.941
 2403SOL    HW2 7953   0.727   1.884   7.969
 2404SOL     OW 7954   0.183   2.811   8.729
 2404SOL    HW1 7955   0.271   2.775   8.717
 2404SOL    HW2 7956   0.133   2.775   8.656
 2405SOL     OW 7957   1.468   2.907   7.682
 2405SOL    HW1 7958   1.410   2.839   7.715
 2405SOL    HW2 7959   1.530   2.922   7.754
 2406SOL     OW 7960   1.222   3.667   9.076
 2406SOL    HW1 7961   1.195   3.729   9.008
 2406SOL    HW2 7962   1.222   3.582   9.033
 2407SOL     OW 7963   0.343   2.109   9.267
 2407SOL    HW1 7964   0.378   2.198   9.274
 2407SOL    HW2 7965   0.251   2.117   9.291
 2408SOL     OW 7966   1.467   3.280   8.396
 2408SOL    HW1 7967   1.400   3.296   8.463
 2408SOL    HW2 7968   1.453   3.189   8.370
 2409SOL     OW 7969   1.654   3.603   8.029
 2409SOL    HW1 7970   1.639   3.572   7.940
 2409SOL    HW2 7971   1.630   3.529   8.085
 2410SOL     OW 7972   0.596   2.576   7.715
 2410SOL    HW1 7973   0.602   2.661   7.672
 2410SOL    HW2 7974   0.533   2.590   7.786
 2411SOL     OW 7975   1.275   2.224   8.390
 2411SOL    HW1 7976   1.187   2.187   8.398
 2411SOL    HW2 7977   1.330   2.167   8.444
 2412SOL     OW 7978   1.576   3.537   7.757
 2412SOL    HW1 7979   1.669   3.560   7.751
 2412SOL    HW2 7980   1.550   3.520   7.667
 2413SOL     OW 7981   0.791   2.480   8.897
 2413SOL    HW1 7982   0.764   2.454   8.986
 2413SOL    HW2 7983   0.755   2.411   8.841
 2414SOL     OW 7984   1.392   2.335   9.125
 2414SOL    HW1 7985   1.395   2.381   9.209
 2414SOL    HW2 7986   1.449   2.260   9.136
 2415SOL     OW 7987   0.951   2.747   9.033
 2415SOL    HW1 7988   1.006   2.678   8.995
 2415SOL    HW2 7989   0.902   2.783   8.959
 2416SOL     OW 7990   0.993   2.272   8.683
 2416SOL    HW1 7991   0.904   2.290   8.713
 2416SOL    HW2 7992   0.982   2.230   8.598
 2417SOL     OW 7993   1.052   2.573   7.867
 2417SOL    HW1 7994   1.077   2.558   7.958
 2417SOL    HW2 7995   0.975   2.519   7.854
 2418SOL     OW 7996   0.082   2.693   8.237
 2418SOL    HW1 7997   0.155   2.661   8.292
 2418SOL    HW2 7998   0.104   2.785   8.221
 2419SOL     OW 7999   0.127   3.719   9.029
 2419SOL    HW1 8000   0.135   3.687   9.118
 2419SOL    HW2 8001   0.035   3.706   9.007
 2420SOL     OW 8002   0.905   2.209   7.641
 2420SOL    HW1 8003   0.938   2.273   7.577
 2420SOL    HW2 8004   0.882   2.133   7.588
 2421SOL     OW 8005   1.669   2.446   9.280
 2421SOL    HW1 8006   1.643   2.523   9.229
 2421SOL    HW2 8007   1.703   2.385   9.215
 2422SOL     OW 8008   1.377   3.007   7.990
 2422SOL    HW1 8009   1.458   2.997   7.940
 2422SOL    HW2 8010   1.324   3.067   7.938
 2423SOL     OW 8011   0.546   2.039   8.343
 2423SOL    HW1 8012   0.553   2.072   8.433
 2423SOL    HW2 8013   0.546   2.118   8.289
 2424SOL     OW 8014   1.001   3.307   7.917
 2424SOL    HW1 8015   0.967   3.382   7.868
 2424SOL    HW2 8016   0.979   3.326   8.009
 2425SOL     OW 8017   0.359   3.673   8.313
 2425SOL    HW1 8018   0.440   3.623   8.326
 2425SOL    HW2 8019   0.386   3.764   8.321
 2426SOL     OW 8020   1.799   2.911   8.318
 2426SOL    HW1 8021   1.744   2.894   8.242
 2426SOL    HW2 8022   1.737   2.920   8.391
 2427SOL     OW 8023   1.227   3.399   8.959
 2427SOL    HW1 8024   1.215   3.327   9.021
 2427SOL    HW2 8025   1.158   3.388   8.894
 2428SOL     OW 8026   0.311   2.815   7.691
 2428SOL    HW1 8027   0.394   2.837   7.648
 2428SOL    HW2 8028   0.299   2.722   7.671
 2429SOL     OW 8029   1.469   2.626   8.186
 2429SOL    HW1 8030   1.476   2.570   8.264
 2429SOL    HW2 8031   1.557   2.661   8.173
 2430SOL     OW 8032   0.470   3.123   9.185
 2430SOL    HW1 8033   0.444   3.131   9.093
 2430SOL    HW2 8034   0.387   3.125   9.233
 2431SOL     OW 8035   1.113   3.643   7.668
 2431SOL    HW1 8036   1.048   3.598   7.721
 2431SOL    HW2 8037   1.144   3.577   7.607
 2432SOL     OW 8038   0.204   2.131   8.956
 2432SOL    HW1 8039   0.114   2.165   8.952
 2432SOL    HW2 8040   0.195   2.043   8.992
 2433SOL     OW 8041   1.627   3.244   7.536
 2433SOL    HW1 8042   1.588   3.330   7.521
 2433SOL    HW2 8043   1.557   3.182   7.515
 2434SOL     OW 8044   0.467   3.603   7.769
 2434SOL    HW1 8045   0.506   3.664   7.831
 2434SOL    HW2 8046   0.540   3.573   7.715
 2435SOL     OW 8047   0.255   3.657   8.672
 2435SOL    HW1 8048   0.297   3.588   8.724
 2435SOL    HW2 8049   0.253   3.621   8.583
 2436SOL     OW 8050   0.938   3.564   8.347
 2436SOL    HW1 8051   1.015   3.513   8.369
 2436SOL    HW2 8052   0.895   3.514   8.277
 2437SOL     OW 8053   0.401   2.554   7.918
 2437SOL    HW1 8054   0.424   2.462   7.934
 2437SOL    HW2 8055   0.309   2.560   7.945
 2438SOL     OW 8056   1.526   2.082   9.168
 2438SOL    HW1 8057   1.541   2.101   9.261
 2438SOL    HW2 8058   1.460   2.013   9.168
 2439SOL     OW 8059   0.652   1.978   7.540
 2439SOL    HW1 8060   0.699   1.900   7.569
 2439SOL    HW2 8061   0.597   1.947   7.468
 2440SOL     OW 8062   0.765   2.141   9.203
 2440SOL    HW1 8063   0.845   2.089   9.200
 2440SOL    HW2 8064   0.719   2.109   9.281
 2441SOL     OW 8065   0.876   3.383   8.642
 2441SOL    HW1 8066   0.859   3.346   8.556
 2441SOL    HW2 8067   0.945   3.328   8.679
 2442SOL     OW 8068   1.340   2.452   8.880
 2442SOL    HW1 8069   1.370   2.421   8.966
 2442SOL    HW2 8070   1.376   2.540   8.872
 2443SOL     OW 8071   0.818   3.252   8.392
 2443SOL    HW1 8072   0.903   3.240   8.350
 2443SOL    HW2 8073   0.756   3.256   8.319
 2444SOL     OW 8074   0.929   2.371   8.350
 2444SOL    HW1 8075   0.904   2.363   8.258
 2444SOL    HW2 8076   0.960   2.284   8.375
 2445SOL     OW 8077   0.557   1.925   7.940
 2445SOL    HW1 8078   0.475   1.930   7.989
 2445SOL    HW2 8079   0.561   2.007   7.891
 2446SOL     OW 8080   1.417   3.077   7.479
 2446SOL    HW1 8081   1.438   3.008   7.542
 2446SOL    HW2 8082   1.332   3.110   7.509
 2447SOL     OW 8083   0.307   1.914   7.617
 2447SOL    HW1 8084   0.368   1.951   7.554
 2447SOL    HW2 8085   0.359   1.849   7.665
 2448SOL     OW 8086   0.932   2.114   7.903
 2448SOL    HW1 8087   0.911   2.152   7.817
 2448SOL    HW2 8088   1.028   2.114   7.907
 2449SOL     OW 8089   1.080   2.545   8.906
 2449SOL    HW1 8090   1.014   2.476   8.909
 2449SOL    HW2 8091   1.164   2.498   8.899
 2450SOL     OW 8092   1.220   3.434   8.242
 2450SOL    HW1 8093   1.234   3.500   8.175
 2450SOL    HW2 8094   1.289   3.450   8.307
 2451SOL     OW 8095   0.467   3.014   8.181
 2451SOL    HW1 8096   0.396   2.989   8.241
 2451SOL    HW2 8097   0.431   2.998   8.094
 2452SOL     OW 8098   1.264   3.655   8.057
 2452SOL    HW1 8099   1.313   3.719   8.006
 2452SOL    HW2 8100   1.191   3.704   8.094
 2453SOL     OW 8101   1.016   2.413   7.479
 2453SOL    HW1 8102   0.962   2.483   7.443
 2453SOL    HW2 8103   1.067   2.455   7.548
 2454SOL     OW 8104   0.084   2.436   8.838
 2454SOL    HW1 8105   0.173   2.422   8.807
 2454SOL    HW2 8106   0.090   2.505   8.903
 2455SOL     OW 8107   0.567   2.090   8.616
 2455SOL    HW1 8108   0.608   2.014   8.658
 2455SOL    HW2 8109   0.475   2.085   8.644
 2456SOL     OW 8110   0.863   2.320   8.089
 2456SOL    HW1 8111   0.821   2.379   8.027
 2456SOL    HW2 8112   0.880   2.240   8.039
 2457SOL     OW 8113   1.002   1.924   8.196
 2457SOL    HW1 8114   0.947   1.909   8.120
 2457SOL    HW2 8115   0.991   1.846   8.250
 2458SOL     OW 8116   1.438   3.022   8.304
 2458SOL    HW1 8117   1.368   2.957   8.305
 2458SOL    HW2 8118   1.460   3.031   8.212
 2459SOL     OW 8119   1.467   2.468   8.418
 2459SOL    HW1 8120   1.409   2.392   8.421
 2459SOL    HW2 8121   1.521   2.460   8.497
 2460SOL     OW 8122   0.488   3.283   7.605
 2460SOL    HW1 8123   0.411   3.253   7.655
 2460SOL    HW2 8124   0.472   3.250   7.517
 2461SOL     OW 8125   1.675   3.127   8.097
 2461SOL    HW1 8126   1.770   3.129   8.110
 2461SOL    HW2 8127   1.646   3.217   8.118
 2462SOL     OW 8128   0.578   2.129   7.760
 2462SOL    HW1 8129   0.609   2.083   7.682
 2462SOL    HW2 8130   0.543   2.211   7.727
 2463SOL     OW 8131   1.750   3.105   9.012
 2463SOL    HW1 8132   1.837   3.066   9.008
 2463SOL    HW2 8133   1.765   3.195   9.041
 2464SOL     OW 8134   1.055   3.215   8.780
 2464SOL    HW1 8135   0.980   3.184   8.831
 2464SOL    HW2 8136   1.130   3.174   8.822
 2465SOL     OW 8137   1.610   3.489   9.106
 2465SOL    HW1 8138   1.601   3.523   9.017
 2465SOL    HW2 8139   1.693   3.440   9.104
 2466SOL     OW 8140   1.135   3.072   8.551
 2466SOL    HW1 8141   1.074   3.108   8.615
 2466SOL    HW2 8142   1.104   3.104   8.466
 2467SOL     OW 8143   1.625   2.960   8.523
 2467SOL    HW1 8144   1.618   3.022   8.596
 2467SOL    HW2 8145   1.548   2.977   8.470
 2468SOL     OW 8146   0.918   1.956   8.840
 2468SOL    HW1 8147   0.941   1.937   8.749
 2468SOL    HW2 8148   0.997   1.996   8.877
 2469SOL     OW 8149   0.984   2.977   9.171
 2469SOL    HW1 8150   0.893   2.993   9.194
 2469SOL    HW2 8151   0.981   2.898   9.116
 2470SOL     OW 8152   0.706   2.924   7.819
 2470SOL    HW1 8153   0.693   2.905   7.912
 2470SOL    HW2 8154   0.782   2.871   7.794
 2471SOL     OW 8155   0.423   2.680   8.701
 2471SOL    HW1 8156   0.491   2.688   8.768
 2471SOL    HW2 8157   0.389   2.591   8.712
 2472SOL     OW 8158   1.264   2.236   8.729
 2472SOL    HW1 8159   1.296   2.315   8.773
 2472SOL    HW2 8160   1.173   2.257   8.706
 2473SOL     OW 8161   0.066   3.441   8.793
 2473SOL    HW1 8162   0.071   3.486   8.708
 2473SOL    HW2 8163   0.157   3.432   8.821
 2474SOL     OW 8164   0.365   2.964   7.929
 2474SOL    HW1 8165   0.363   3.046   7.879
 2474SOL    HW2 8166   0.366   2.895   7.863
 2475SOL     OW 8167   0.547   2.397   8.310
 2475SOL    HW1 8168   0.562   2.454   8.234
 2475SOL    HW2 8169   0.616   2.421   8.372
 2476SOL     OW 8170   1.246   3.213   7.838
 2476SOL    HW1 8171   1.302   3.283   7.870
 2476SOL    HW2 8172   1.159   3.234   7.871
 2477SOL     OW 8173   1.287   3.322   8.596
 2477SOL    HW1 8174   1.342   3.326   8.674
 2477SOL    HW2 8175   1.232   3.245   8.609
 2478SOL     OW 8176   0.345   3.391   8.765
 2478SOL    HW1 8177   0.335   3.340   8.684
 2478SOL    HW2 8178   0.439   3.405   8.773
 2479SOL     OW 8179   0.418   2.599   9.050
 2479SOL    HW1 8180   0.482   2.644   8.993
 2479SOL    HW2 8181   0.458   2.514   9.066
 2480SOL     OW 8182   1.602   2.654   9.128
 2480SOL    HW1 8183   1.516   2.697   9.120
 2480SOL    HW2 8184   1.655   2.695   9.060
 2481SOL     OW 8185   0.996   1.993   9.201
 2481SOL    HW1 8186   1.055   2.066   9.178
 2481SOL    HW2 8187   1.045   1.914   9.176
 2482SOL     OW 8188   0.496   1.896   9.196
 2482SOL    HW1 8189   0.452   1.844   9.128
 2482SOL    HW2 8190   0.443   1.975   9.205
 2483SOL     OW 8191   0.585   2.737   8.480
 2483SOL    HW1 8192   0.620   2.826   8.482
 2483SOL    HW2 8193   0.530   2.731   8.558
 2484SOL     OW 8194   1.350   2.718   8.476
 2484SOL    HW1 8195   1.269   2.708   8.426
 2484SOL    HW2 8196   1.397   2.636   8.462
 2485SOL     OW 8197   0.309   2.057   8.695
 2485SOL    HW1 8198   0.263   2.093   8.771
 2485SOL    HW2 8199   0.287   1.964   8.695
 2486SOL     OW 8200   0.060   3.167   8.729
 2486SOL    HW1 8201   0.091   3.125   8.809
 2486SOL    HW2 8202   0.053   3.260   8.752
 2487SOL     OW 8203   0.723   2.492   8.503
 2487SOL    HW1 8204   0.799   2.477   8.447
 2487SOL    HW2 8205   0.695   2.581   8.482
 2488SOL     OW 8206   1.739   2.821   9.305
 2488SOL    HW1 8207   1.693   2.759   9.249
 2488SOL    HW2 8208   1.678   2.838   9.377
 2489SOL     OW 8209   0.315   1.923   8.068
 2489SOL    HW1 8210   0.293   2.014   8.089
 2489SOL    HW2 8211   0.323   1.880   8.153
 2490SOL     OW 8212   1.667   2.224   7.871
 2490SOL    HW1 8213   1.611   2.157   7.910
 2490SOL    HW2 8214   1.611   2.301   7.865
 2491SOL     OW 8215   1.027   2.621   8.406
 2491SOL    HW1 8216   1.021   2.638   8.500
 2491SOL    HW2 8217   1.002   2.530   8.396
 2492SOL     OW 8218   0.986   3.430   9.170
 2492SOL    HW1 8219   0.966   3.470   9.086
 2492SOL    HW2 8220   1.028   3.347   9.147
 2493SOL     OW 8221   1.853   3.363   9.052
 2493SOL    HW1 8222   1.873   3.392   8.962
 2493SOL    HW2 8223   1.933   3.380   9.101
 2494SOL     OW 8224   0.354   2.784   9.247
 2494SOL    HW1 8225   0.432   2.805   9.298
 2494SOL    HW2 8226   0.383   2.717   9.186
 2495SOL     OW 8227   1.287   2.690   7.451
 2495SOL    HW1 8228   1.372   2.647   7.440
 2495SOL    HW2 8229   1.278   2.746   7.374
 2496SOL     OW 8230   1.068   3.200   8.304
 2496SOL    HW1 8231   1.072   3.127   8.241
 2496SOL    HW2 8232   1.127   3.266   8.268
 2497SOL     OW 8233   0.313   2.663   8.398
 2497SOL    HW1 8234   0.407   2.680   8.392
 2497SOL    HW2 8235   0.308   2.572   8.428
 2498SOL     OW 8236   0.328   2.383   8.463
 2498SOL    HW1 8237   0.294   2.295   8.447
 2498SOL    HW2 8238   0.404   2.390   8.406
 2499SOL     OW 8239   1.134   2.235   9.134
 2499SOL    HW1 8240   1.086   2.290   9.196
 2499SOL    HW2 8241   1.221   2.275   9.129
 2500SOL     OW 8242   1.160   2.061   8.920
 2500SOL    HW1 8243   1.149   2.124   8.991
 2500SOL    HW2 8244   1.202   2.110   8.850
 2501SOL     OW 8245   0.000   3.178   7.630
 2501SOL    HW1 8246   3.906   3.194   7.634
 2501SOL    HW2 8247   0.009   3.084   7.648
 2502SOL     OW 8248   0.076   3.662   8.343
 2502SOL    HW1 8249   0.094   3.569   8.338
 2502SOL    HW2 8250   0.162   3.704   8.344
 2503SOL     OW 8251   0.506   3.423   8.366
 2503SOL    HW1 8252   0.571   3.491   8.385
 2503SOL    HW2 8253   0.548   3.366   8.302
 2504SOL     OW 8254   0.975   2.651   8.672
 2504SOL    HW1 8255   1.034   2.631   8.745
 2504SOL    HW2 8256   0.892   2.611   8.698
 2505SOL     OW 8257   0.038   2.423   8.557
 2505SOL    HW1 8258   0.120   2.400   8.514
 2505SOL    HW2 8259   0.057   2.419   8.651
 2506SOL     OW 8260   0.206   2.374   9.176
 2506SOL    HW1 8261   0.245   2.325   9.103
 2506SOL    HW2 8262   0.163   2.448   9.134
 2507SOL     OW 8263   1.373   2.801   9.103
 2507SOL    HW1 8264   1.396   2.894   9.099
 2507SOL    HW2 8265   1.369   2.773   9.012
 2508SOL     OW 8266   0.821   2.432   7.810
 2508SOL    HW1 8267   0.821   2.355   7.754
 2508SOL    HW2 8268   0.746   2.484   7.780
 2509SOL     OW 8269   1.633   2.466   8.635
 2509SOL    HW1 8270   1.622   2.408   8.711
 2509SOL    HW2 8271   1.719   2.442   8.599
 2510SOL     OW 8272   0.301   3.406   9.171
 2510SOL    HW1 8273   0.253   3.475   9.217
 2510SOL    HW2 8274   0.272   3.325   9.213
 2511SOL     OW 8275   0.711   2.310   8.703
 2511SOL    HW1 8276   0.657   2.236   8.675
 2511SOL    HW2 8277   0.704   2.373   8.632
 2512SOL     OW 8278   0.926   3.532   8.919
 2512SOL    HW1 8279   0.899   3.493   8.835
 2512SOL    HW2 8280   0.918   3.627   8.904
 2513SOL     OW 8281   0.453   2.350   7.644
 2513SOL    HW1 8282   0.518   2.418   7.663
 2513SOL    HW2 8283   0.374   2.398   7.621
 2514SOL     OW 8284   0.155   2.996   8.924
 2514SOL    HW1 8285   0.154   2.946   9.006
 2514SOL    HW2 8286   0.170   2.931   8.856
 2515SOL     OW 8287   1.322   2.906   8.668
 2515SOL    HW1 8288   1.342   2.841   8.601
 2515SOL    HW2 8289   1.256   2.962   8.628
 2516SOL     OW 8290   1.293   2.707   7.748
 2516SOL    HW1 8291   1.224   2.667   7.801
 2516SOL    HW2 8292   1.259   2.706   7.659
 2517SOL     OW 8293   1.774   3.599   8.601
 2517SOL    HW1 8294   1.836   3.627   8.534
 2517SOL    HW2 8295   1.752   3.509   8.576
 2518SOL     OW 8296   1.245   3.594   8.554
 2518SOL    HW1 8297   1.328   3.616   8.512
 2518SOL    HW2 8298   1.252   3.501   8.575
 2519SOL     OW 8299   0.077   3.075   8.477
 2519SOL    HW1 8300   0.083   3.103   8.568
 2519SOL    HW2 8301   3.985   3.088   8.454
 2520SOL     OW 8302   0.680   3.528   9.185
 2520SOL    HW1 8303   0.621   3.604   9.188
 2520SOL    HW2 8304   0.740   3.549   9.113
 2521SOL     OW 8305   1.392   3.431   7.937
 2521SOL    HW1 8306   1.450   3.465   7.870
 2521SOL    HW2 8307   1.342   3.507   7.967
 2522SOL     OW 8308   0.172   3.620   9.281
 2522SOL    HW1 8309   0.117   3.567   9.339
 2522SOL    HW2 8310   0.217   3.681   9.339
 2523SOL     OW 8311   1.271   2.794   8.121
 2523SOL    HW1 8312   1.344   2.734   8.137
 2523SOL    HW2 8313   1.308   2.863   8.066
 2524SOL     OW 8314   0.807   3.137   8.874
 2524SOL    HW1 8315   0.778   3.178   8.955
 2524SOL    HW2 8316   0.735   3.154   8.812
 2525SOL     OW 8317   0.674   3.480   7.607
 2525SOL    HW1 8318   0.684   3.498   7.513
 2525SOL    HW2 8319   0.615   3.405   7.611
 2526SOL     OW 8320   1.621   3.589   8.838
 2526SOL    HW1 8321   1.673   3.593   8.758
 2526SOL    HW2 8322   1.606   3.680   8.862
 2527SOL     OW 8323   0.265   2.174   8.164
 2527SOL    HW1 8324   0.178   2.206   8.138
 2527SOL    HW2 8325   0.260   2.165   8.259
 2528SOL     OW 8326   1.209   3.465   7.484
 2528SOL    HW1 8327   1.197   3.373   7.509
 2528SOL    HW2 8328   1.147   3.478   7.412
 2529SOL     OW 8329   0.823   2.868   8.823
 2529SOL    HW1 8330   0.867   2.861   8.738
 2529SOL    HW2 8331   0.821   2.962   8.841
 2530SOL     OW 8332   0.911   2.774   7.735
 2530SOL    HW1 8333   0.973   2.807   7.669
 2530SOL    HW2 8334   0.962   2.710   7.785
 2531SOL     OW 8335   1.489   3.493   7.492
 2531SOL    HW1 8336   1.395   3.481   7.476
 2531SOL    HW2 8337   1.528   3.498   7.404
 2532SOL     OW 8338   0.374   3.165   8.939
 2532SOL    HW1 8339   0.359   3.245   8.889
 2532SOL    HW2 8340   0.297   3.111   8.922
 2533SOL     OW 8341   1.609   3.147   8.728
 2533SOL    HW1 8342   1.668   3.132   8.802
 2533SOL    HW2 8343   1.548   3.214   8.759
 2534SOL     OW 8344   1.057   2.972   8.157
 2534SOL    HW1 8345   0.985   2.921   8.194
 2534SOL    HW2 8346   1.123   2.907   8.132
 2535SOL     OW 8347   1.022   2.103   8.416
 2535SOL    HW1 8348   1.014   2.058   8.332
 2535SOL    HW2 8349   1.016   2.033   8.482
 2536SOL     OW 8350   0.607   3.353   7.928
 2536SOL    HW1 8351   0.654   3.302   7.862
 2536SOL    HW2 8352   0.533   3.392   7.881
 2537SOL     OW 8353   1.733   2.244   8.820
 2537SOL    HW1 8354   1.801   2.310   8.823
 2537SOL    HW2 8355   1.772   2.172   8.770
 2538SOL     OW 8356   0.254   3.202   7.740
 2538SOL    HW1 8357   0.160   3.208   7.722
 2538SOL    HW2 8358   0.265   3.241   7.827
 2539SOL     OW 8359   0.108   2.859   9.165
 2539SOL    HW1 8360   0.049   2.853   9.240
 2539SOL    HW2 8361   0.195   2.842   9.203
 2540SOL     OW 8362   0.676   2.058   8.948
 2540SOL    HW1 8363   0.760   2.036   8.907
 2540SOL    HW2 8364   0.700   2.091   9.035
 2541SOL     OW 8365   0.080   2.174   7.487
 2541SOL    HW1 8366   3.985   2.173   7.494
 2541SOL    HW2 8367   0.100   2.254   7.439
 2542SOL     OW 8368   1.427   2.720   8.846
 2542SOL    HW1 8369   1.377   2.781   8.790
 2542SOL    HW2 8370   1.516   2.723   8.811
 2543SOL     OW 8371   0.017   2.104   7.826
 2543SOL    HW1 8372   0.044   2.167   7.760
 2543SOL    HW2 8373   0.098   2.063   7.856
 2544SOL     OW 8374   1.177   3.199   7.565
 2544SOL    HW1 8375   1.086   3.170   7.565
 2544SOL    HW2 8376   1.203   3.196   7.657
 2545SOL     OW 8377   0.620   2.692   8.885
 2545SOL    HW1 8378   0.677   2.768   8.870
 2545SOL    HW2 8379   0.681   2.618   8.892
 2546SOL     OW 8380   1.487   3.642   8.429
 2546SOL    HW1 8381   1.508   3.705   8.360
 2546SOL    HW2 8382   1.571   3.620   8.468
 2547SOL     OW 8383   0.716   2.423   9.151
 2547SOL    HW1 8384   0.762   2.483   9.209
 2547SOL    HW2 8385   0.739   2.336   9.183
 2548SOL     OW 8386   1.474   3.058   9.077
 2548SOL    HW1 8387   1.462   3.073   9.171
 2548SOL    HW2 8388   1.566   3.077   9.062
 2549SOL     OW 8389   0.378   3.609   9.008
 2549SOL    HW1 8390   0.290   3.645   8.995
 2549SOL    HW2 8391   0.364   3.526   9.052
 2550SOL     OW 8392   1.667   2.743   8.701
 2550SOL    HW1 8393   1.657   2.658   8.659
 2550SOL    HW2 8394   1.654   2.806   8.630
 2551SOL     OW 8395   0.587   2.598   8.122
 2551SOL    HW1 8396   0.627   2.684   8.107
 2551SOL    HW2 8397   0.523   2.589   8.052
 2552SOL     OW 8398   1.736   2.244   9.095
 2552SOL    HW1 8399   1.737   2.247   9.000
 2552SOL    HW2 8400   1.669   2.179   9.116
 2553SOL     OW 8401   1.747   2.801   8.955
 2553SOL    HW1 8402   1.739   2.896   8.966
 2553SOL    HW2 8403   1.730   2.786   8.862
 2554SOL     OW 8404   0.866   3.228   7.491
 2554SOL    HW1 8405   0.824   3.256   7.572
 2554SOL    HW2 8406   0.878   3.309   7.441
 2555SOL     OW 8407   0.658   3.649   8.380
 2555SOL    HW1 8408   0.638   3.741   8.362
 2555SOL    HW2 8409   0.754   3.645   8.379
 2556SOL     OW 8410   0.868   2.831   8.301
 2556SOL    HW1 8411   0.919   2.759   8.337
 2556SOL    HW2 8412   0.832   2.876   8.377
 2557SOL     OW 8413   1.076   2.848   7.534
 2557SOL    HW1 8414   1.052   2.904   7.460
 2557SOL    HW2 8415   1.151   2.798   7.503
 2558SOL     OW 8416   1.848   3.410   8.288
 2558SOL    HW1 8417   1.767   3.403   8.238
 2558SOL    HW2 8418   1.835   3.353   8.364
 2559SOL     OW 8419   0.228   3.166   9.305
 2559SOL    HW1 8420   0.153   3.114   9.277
 2559SOL    HW2 8421   0.216   3.179   9.399
 2560SOL     OW 8422   0.119   3.143   8.172
 2560SOL    HW1 8423   0.140   3.091   8.250
 2560SOL    HW2 8424   0.103   3.078   8.104
 2561SOL     OW 8425   0.684   3.268   9.080
 2561SOL    HW1 8426   0.604   3.226   9.110
 2561SOL    HW2 8427   0.681   3.356   9.117
 2562SOL     OW 8428   0.439   2.294   7.982
 2562SOL    HW1 8429   0.433   2.226   7.915
 2562SOL    HW2 8430   0.386   2.262   8.054
 2563SOL     OW 8431   1.700   3.345   8.535
 2563SOL    HW1 8432   1.618   3.326   8.490
 2563SOL    HW2 8433   1.706   3.279   8.604
 2564SOL     OW 8434   0.336   2.421   8.740
 2564SOL    HW1 8435   0.390   2.363   8.795
 2564SOL    HW2 8436   0.350   2.389   8.651
 2565SOL     OW 8437   0.829   3.441   8.124
 2565SOL    HW1 8438   0.810   3.498   8.049
 2565SOL    HW2 8439   0.756   3.380   8.127
 2566SOL     OW 8440   1.436   2.091   8.571
 2566SOL    HW1 8441   1.439   2.002   8.605
 2566SOL    HW2 8442   1.382   2.139   8.634
 2567SOL     OW 8443   1.009   1.877   8.585
 2567SOL    HW1 8444   0.955   1.812   8.541
 2567SOL    HW2 8445   1.097   1.839   8.587
 2568SOL     OW 8446   0.773   3.194   7.769
 2568SOL    HW1 8447   0.744   3.103   7.776
 2568SOL    HW2 8448   0.856   3.197   7.817
 2569SOL     OW 8449   0.621   3.415   8.735
 2569SOL    HW1 8450   0.621   3.497   8.784
 2569SOL    HW2 8451   0.709   3.410   8.697
 2570SOL     OW 8452   1.327   2.324   8.142
 2570SOL    HW1 8453   1.267   2.396   8.125
 2570SOL    HW2 8454   1.299   2.288   8.226
 2571SOL     OW 8455   1.570   2.055   8.322
 2571SOL    HW1 8456   1.534   2.084   8.406
 2571SOL    HW2 8457   1.586   2.135   8.273
 2572SOL     OW 8458   0.048   2.910   7.689
 2572SOL    HW1 8459   0.142   2.895   7.681
 2572SOL    HW2 8460   0.012   2.825   7.714
 2573SOL     OW 8461   0.887   3.523   7.789
 2573SOL    HW1 8462   0.815   3.504   7.729
 2573SOL    HW2 8463   0.856   3.597   7.841
 2574SOL     OW 8464   0.231   2.488   9.428
 2574SOL    HW1 8465   0.138   2.496   9.449
 2574SOL    HW2 8466   0.232   2.456   9.338
 2575SOL     OW 8467   0.229   2.135  10.297
 2575SOL    HW1 8468   0.250   2.100  10.383
 2575SOL    HW2 8469   0.134   2.127  10.290
 2576SOL     OW 8470   0.007   2.220   9.940
 2576SOL    HW1 8471   3.917   2.238   9.968
 2576SOL    HW2 8472   3.997   2.190   9.849
 2577SOL     OW 8473   0.581   3.154  10.505
 2577SOL    HW1 8474   0.496   3.156  10.462
 2577SOL    HW2 8475   0.595   3.243  10.536
 2578SOL     OW 8476   1.566   3.373  10.019
 2578SOL    HW1 8477   1.524   3.350  10.102
 2578SOL    HW2 8478   1.495   3.376   9.956
 2579SOL     OW 8479   1.133   2.560  10.007
 2579SOL    HW1 8480   1.181   2.642   9.994
 2579SOL    HW2 8481   1.085   2.572  10.089
 2580SOL     OW 8482   1.771   2.471   9.535
 2580SOL    HW1 8483   1.742   2.467   9.443
 2580SOL    HW2 8484   1.751   2.384   9.570
 2581SOL     OW 8485   0.750   2.999  10.354
 2581SOL    HW1 8486   0.688   3.036  10.417
 2581SOL    HW2 8487   0.787   3.075  10.310
 2582SOL     OW 8488   0.873   2.627  11.134
 2582SOL    HW1 8489   0.864   2.698  11.197
 2582SOL    HW2 8490   0.895   2.671  11.052
 2583SOL     OW 8491   0.685   2.862   9.955
 2583SOL    HW1 8492   0.751   2.852  10.023
 2583SOL    HW2 8493   0.616   2.915   9.996
 2584SOL     OW 8494   0.713   3.011  11.129
 2584SOL    HW1 8495   0.761   3.089  11.158
 2584SOL    HW2 8496   0.633   3.046  11.090
 2585SOL     OW 8497   0.350   3.262  10.388
 2585SOL    HW1 8498   0.269   3.245  10.340
 2585SOL    HW2 8499   0.401   3.320  10.331
 2586SOL     OW 8500   1.459   3.364  10.669
 2586SOL    HW1 8501   1.514   3.442  10.679
 2586SOL    HW2 8502   1.391   3.373  10.736
 2587SOL     OW 8503   0.450   2.258  10.795
 2587SOL    HW1 8504   0.526   2.200  10.799
 2587SOL    HW2 8505   0.375   2.201  10.809
 2588SOL     OW 8506   1.601   2.301  10.045
 2588SOL    HW1 8507   1.519   2.319   9.999
 2588SOL    HW2 8508   1.617   2.378  10.098
 2589SOL     OW 8509   0.222   3.572   9.776
 2589SOL    HW1 8510   0.220   3.657   9.820
 2589SOL    HW2 8511   0.299   3.576   9.719
 2590SOL     OW 8512   1.138   3.204  11.004
 2590SOL    HW1 8513   1.178   3.197  11.091
 2590SOL    HW2 8514   1.085   3.124  10.996
 2591SOL     OW 8515   0.253   3.307   9.850
 2591SOL    HW1 8516   0.224   3.397   9.836
 2591SOL    HW2 8517   0.183   3.267   9.903
 2592SOL     OW 8518   0.248   2.927  10.193
 2592SOL    HW1 8519   0.269   2.842  10.232
 2592SOL    HW2 8520   0.195   2.972  10.259
 2593SOL     OW 8521   0.609   3.648  10.736
 2593SOL    HW1 8522   0.527   3.634  10.783
 2593SOL    HW2 8523   0.636   3.737  10.760
 2594SOL     OW 8524   0.575   2.849   9.449
 2594SOL    HW1 8525   0.624   2.893   9.380
 2594SOL    HW2 8526   0.616   2.879   9.531
 2595SOL     OW 8527   1.553   2.005  10.750
 2595SOL    HW1 8528   1.577   2.089  10.712
 2595SOL    HW2 8529   1.546   2.023  10.844
 2596SOL     OW 8530   0.144   2.518   9.883
 2596SOL    HW1 8531   0.088   2.441   9.881
 2596SOL    HW2 8532   0.108   2.572   9.954
 2597SOL     OW 8533   1.844   3.606   9.647
 2597SOL    HW1 8534   1.913   3.583   9.709
 2597SOL    HW2 8535   1.861   3.697   9.624
 2598SOL     OW 8536   0.040   3.451   9.449
 2598SOL    HW1 8537   0.036   3.360   9.477
 2598SOL    HW2 8538   3.955   3.487   9.473
 2599SOL     OW 8539   1.690   2.781   9.953
 2599SOL    HW1 8540   1.769   2.735   9.926
 2599SOL    HW2 8541   1.665   2.833   9.877
 2600SOL     OW 8542   1.648   2.966   9.739
 2600SOL    HW1 8543   1.735   2.967   9.698
 2600SOL    HW2 8544   1.655   3.029   9.811
 2601SOL     OW 8545   0.142   2.614  10.900
 2601SOL    HW1 8546   0.238   2.611  10.894
 2601SOL    HW2 8547   0.124   2.702  10.934
 2602SOL     OW 8548   0.617   3.249  10.044
 2602SOL    HW1 8549   0.569   3.167  10.053
 2602SOL    HW2 8550   0.599   3.277   9.954
 2603SOL     OW 8551   1.286   3.098  10.731
 2603SOL    HW1 8552   1.317   3.030  10.672
 2603SOL    HW2 8553   1.345   3.093  10.806
 2604SOL     OW 8554   0.823   1.864   9.824
 2604SOL    HW1 8555   0.862   1.948   9.800
 2604SOL    HW2 8556   0.729   1.882   9.827
 2605SOL     OW 8557   0.183   2.811  10.591
 2605SOL    HW1 8558   0.272   2.775  10.579
 2605SOL    HW2 8559   0.133   2.775  10.518
 2606SOL     OW 8560   1.531   2.860   9.510
 2606SOL    HW1 8561   1.462   2.803   9.542
 2606SOL    HW2 8562   1.573   2.894   9.589
 2607SOL     OW 8563   1.222   3.667  10.939
 2607SOL    HW1 8564   1.195   3.729  10.870
 2607SOL    HW2 8565   1.222   3.582  10.895
 2608SOL     OW 8566   0.343   2.109  11.129
 2608SOL    HW1 8567   0.378   2.198  11.136
 2608SOL    HW2 8568   0.251   2.117  11.153
 2609SOL     OW 8569   1.467   3.281  10.258
 2609SOL    HW1 8570   1.400   3.297  10.325
 2609SOL    HW2 8571   1.453   3.190  10.232
 2610SOL     OW 8572   1.653   3.603   9.891
 2610SOL    HW1 8573   1.639   3.572   9.802
 2610SOL    HW2 8574   1.631   3.529   9.947
 2611SOL     OW 8575   0.596   2.576   9.577
 2611SOL    HW1 8576   0.601   2.661   9.533
 2611SOL    HW2 8577   0.533   2.590   9.648
 2612SOL     OW 8578   1.280   2.225  10.246
 2612SOL    HW1 8579   1.191   2.190  10.255
 2612SOL    HW2 8580   1.334   2.169  10.301
 2613SOL     OW 8581   1.576   3.538   9.619
 2613SOL    HW1 8582   1.669   3.559   9.613
 2613SOL    HW2 8583   1.550   3.519   9.529
 2614SOL     OW 8584   0.791   2.480  10.759
 2614SOL    HW1 8585   0.765   2.454  10.848
 2614SOL    HW2 8586   0.755   2.411  10.703
 2615SOL     OW 8587   1.393   2.335  10.987
 2615SOL    HW1 8588   1.397   2.380  11.071
 2615SOL    HW2 8589   1.453   2.261  10.997
 2616SOL     OW 8590   0.951   2.747  10.895
 2616SOL    HW1 8591   1.006   2.679  10.857
 2616SOL    HW2 8592   0.902   2.783  10.821
 2617SOL     OW 8593   0.993   2.273  10.545
 2617SOL    HW1 8594   0.904   2.291  10.576
 2617SOL    HW2 8595   0.981   2.229  10.460
 2618SOL     OW 8596   1.054   2.560   9.735
 2618SOL    HW1 8597   1.071   2.553   9.829
 2618SOL    HW2 8598   0.971   2.514   9.722
 2619SOL     OW 8599   0.082   2.693  10.100
 2619SOL    HW1 8600   0.155   2.661  10.154
 2619SOL    HW2 8601   0.104   2.785  10.083
 2620SOL     OW 8602   0.127   3.719  10.891
 2620SOL    HW1 8603   0.135   3.687  10.980
 2620SOL    HW2 8604   0.035   3.706  10.869
 2621SOL     OW 8605   0.899   2.212   9.504
 2621SOL    HW1 8606   0.938   2.276   9.444
 2621SOL    HW2 8607   0.913   2.128   9.462
 2622SOL     OW 8608   1.704   2.439  11.145
 2622SOL    HW1 8609   1.669   2.510  11.092
 2622SOL    HW2 8610   1.732   2.373  11.081
 2623SOL     OW 8611   1.380   3.004   9.850
 2623SOL    HW1 8612   1.459   2.992   9.797
 2623SOL    HW2 8613   1.326   3.066   9.800
 2624SOL     OW 8614   0.547   2.039  10.205
 2624SOL    HW1 8615   0.553   2.072  10.295
 2624SOL    HW2 8616   0.545   2.118  10.151
 2625SOL     OW 8617   1.001   3.307   9.779
 2625SOL    HW1 8618   0.967   3.381   9.730
 2625SOL    HW2 8619   0.979   3.326   9.870
 2626SOL     OW 8620   0.359   3.673  10.174
 2626SOL    HW1 8621   0.440   3.623  10.187
 2626SOL    HW2 8622   0.386   3.764  10.183
 2627SOL     OW 8623   1.801   2.912  10.181
 2627SOL    HW1 8624   1.748   2.894  10.103
 2627SOL    HW2 8625   1.737   2.920  10.251
 2628SOL     OW 8626   1.227   3.399  10.821
 2628SOL    HW1 8627   1.215   3.327  10.883
 2628SOL    HW2 8628   1.157   3.388  10.757
 2629SOL     OW 8629   0.311   2.814   9.553
 2629SOL    HW1 8630   0.394   2.837   9.510
 2629SOL    HW2 8631   0.298   2.722   9.533
 2630SOL     OW 8632   1.482   2.610  10.033
 2630SOL    HW1 8633   1.476   2.569  10.119
 2630SOL    HW2 8634   1.560   2.665  10.037
 2631SOL     OW 8635   0.470   3.123  11.047
 2631SOL    HW1 8636   0.444   3.131  10.955
 2631SOL    HW2 8637   0.387   3.125  11.095
 2632SOL     OW 8638   1.113   3.643   9.530
 2632SOL    HW1 8639   1.048   3.598   9.583
 2632SOL    HW2 8640   1.145   3.577   9.469
 2633SOL     OW 8641   0.204   2.132  10.818
 2633SOL    HW1 8642   0.114   2.165  10.814
 2633SOL    HW2 8643   0.195   2.043  10.854
 2634SOL     OW 8644   1.628   3.244   9.402
 2634SOL    HW1 8645   1.587   3.329   9.384
 2634SOL    HW2 8646   1.559   3.180   9.380
 2635SOL     OW 8647   0.467   3.603   9.631
 2635SOL    HW1 8648   0.506   3.664   9.693
 2635SOL    HW2 8649   0.540   3.573   9.577
 2636SOL     OW 8650   1.398   1.967   9.747
 2636SOL    HW1 8651   1.385   1.945   9.655
 2636SOL    HW2 8652   1.481   1.925   9.771
 2637SOL     OW 8653   0.255   3.657  10.534
 2637SOL    HW1 8654   0.297   3.588  10.586
 2637SOL    HW2 8655   0.253   3.621  10.445
 2638SOL     OW 8656   0.938   3.564  10.209
 2638SOL    HW1 8657   1.015   3.513  10.231
 2638SOL    HW2 8658   0.896   3.514  10.139
 2639SOL     OW 8659   0.400   2.554   9.781
 2639SOL    HW1 8660   0.424   2.463   9.796
 2639SOL    HW2 8661   0.309   2.560   9.807
 2640SOL     OW 8662   1.531   2.084  11.031
 2640SOL    HW1 8663   1.547   2.106  11.124
 2640SOL    HW2 8664   1.465   2.015  11.033
 2641SOL     OW 8665   0.648   1.978   9.405
 2641SOL    HW1 8666   0.705   1.905   9.427
 2641SOL    HW2 8667   0.595   1.947   9.331
 2642SOL     OW 8668   0.765   2.141  11.065
 2642SOL    HW1 8669   0.845   2.089  11.061
 2642SOL    HW2 8670   0.719   2.109  11.143
 2643SOL     OW 8671   0.876   3.383  10.504
 2643SOL    HW1 8672   0.859   3.346  10.418
 2643SOL    HW2 8673   0.945   3.328  10.541
 2644SOL     OW 8674   1.340   2.451  10.743
 2644SOL    HW1 8675   1.370   2.420  10.828
 2644SOL    HW2 8676   1.376   2.539  10.735
 2645SOL     OW 8677   0.818   3.252  10.254
 2645SOL    HW1 8678   0.903   3.240  10.211
 2645SOL    HW2 8679   0.756   3.256  10.181
 2646SOL     OW 8680   0.929   2.372  10.211
 2646SOL    HW1 8681   0.905   2.363  10.119
 2646SOL    HW2 8682   0.959   2.284  10.236
 2647SOL     OW 8683   0.558   1.924   9.803
 2647SOL    HW1 8684   0.476   1.929   9.852
 2647SOL    HW2 8685   0.562   2.006   9.753
 2648SOL     OW 8686   1.428   3.062   9.349
 2648SOL    HW1 8687   1.458   2.987   9.400
 2648SOL    HW2 8688   1.342   3.084   9.386
 2649SOL     OW 8689   0.309   1.913   9.479
 2649SOL    HW1 8690   0.371   1.951   9.417
 2649SOL    HW2 8691   0.360   1.848   9.528
 2650SOL     OW 8692   0.942   2.110   9.767
 2650SOL    HW1 8693   0.914   2.150   9.684
 2650SOL    HW2 8694   1.036   2.127   9.771
 2651SOL     OW 8695   1.080   2.545  10.767
 2651SOL    HW1 8696   1.014   2.476  10.772
 2651SOL    HW2 8697   1.164   2.499  10.762
 2652SOL     OW 8698   1.220   3.434  10.104
 2652SOL    HW1 8699   1.234   3.500  10.037
 2652SOL    HW2 8700   1.290   3.449  10.168
 2653SOL     OW 8701   0.467   3.013  10.043
 2653SOL    HW1 8702   0.396   2.989  10.103
 2653SOL    HW2 8703   0.431   2.998   9.955
 2654SOL     OW 8704   1.264   3.655   9.919
 2654SOL    HW1 8705   1.313   3.719   9.868
 2654SOL    HW2 8706   1.191   3.704   9.956
 2655SOL     OW 8707   1.023   2.398   9.336
 2655SOL    HW1 8708   0.980   2.482   9.317
 2655SOL    HW2 8709   1.090   2.420   9.401
 2656SOL     OW 8710   0.084   2.436  10.699
 2656SOL    HW1 8711   0.173   2.423  10.669
 2656SOL    HW2 8712   0.090   2.505  10.765
 2657SOL     OW 8713   0.567   2.089  10.478
 2657SOL    HW1 8714   0.608   2.015  10.521
 2657SOL    HW2 8715   0.475   2.085  10.506
 2658SOL     OW 8716   0.867   2.320   9.949
 2658SOL    HW1 8717   0.820   2.374   9.886
 2658SOL    HW2 8718   0.888   2.240   9.901
 2659SOL     OW 8719   1.016   1.917  10.059
 2659SOL    HW1 8720   0.958   1.911   9.983
 2659SOL    HW2 8721   0.993   1.842  10.113
 2660SOL     OW 8722   1.439   3.023  10.166
 2660SOL    HW1 8723   1.368   2.959  10.167
 2660SOL    HW2 8724   1.462   3.031  10.074
 2661SOL     OW 8725   1.463   2.470  10.279
 2661SOL    HW1 8726   1.408   2.392  10.281
 2661SOL    HW2 8727   1.519   2.462  10.356
 2662SOL     OW 8728   1.843   2.675   9.698
 2662SOL    HW1 8729   1.904   2.625   9.753
 2662SOL    HW2 8730   1.816   2.613   9.630
 2663SOL     OW 8731   0.488   3.283   9.467
 2663SOL    HW1 8732   0.411   3.253   9.517
 2663SOL    HW2 8733   0.473   3.250   9.379
 2664SOL     OW 8734   1.675   3.126   9.952
 2664SOL    HW1 8735   1.770   3.126   9.967
 2664SOL    HW2 8736   1.647   3.214   9.975
 2665SOL     OW 8737   1.389   2.437   9.378
 2665SOL    HW1 8738   1.335   2.413   9.453
 2665SOL    HW2 8739   1.479   2.419   9.406
 2666SOL     OW 8740   0.575   2.129   9.625
 2666SOL    HW1 8741   0.608   2.083   9.548
 2666SOL    HW2 8742   0.543   2.213   9.591
 2667SOL     OW 8743   1.750   3.105  10.875
 2667SOL    HW1 8744   1.837   3.066  10.869
 2667SOL    HW2 8745   1.765   3.195  10.903
 2668SOL     OW 8746   1.055   3.214  10.641
 2668SOL    HW1 8747   0.980   3.183  10.692
 2668SOL    HW2 8748   1.130   3.173  10.683
 2669SOL     OW 8749   1.610   3.489  10.968
 2669SOL    HW1 8750   1.601   3.523  10.879
 2669SOL    HW2 8751   1.693   3.440  10.966
 2670SOL     OW 8752   1.134   3.070  10.412
 2670SOL    HW1 8753   1.074   3.107  10.477
 2670SOL    HW2 8754   1.103   3.104  10.329
 2671SOL     OW 8755   1.624   2.959  10.385
 2671SOL    HW1 8756   1.618   3.021  10.457
 2671SOL    HW2 8757   1.548   2.977  10.331
 2672SOL     OW 8758   0.918   1.956  10.702
 2672SOL    HW1 8759   0.941   1.937  10.611
 2672SOL    HW2 8760   0.997   1.996  10.739
 2673SOL     OW 8761   0.984   2.977  11.033
 2673SOL    HW1 8762   0.893   2.993  11.056
 2673SOL    HW2 8763   0.981   2.898  10.978
 2674SOL     OW 8764   0.708   2.923   9.681
 2674SOL    HW1 8765   0.694   2.905   9.774
 2674SOL    HW2 8766   0.784   2.870   9.657
 2675SOL     OW 8767   0.423   2.680  10.563
 2675SOL    HW1 8768   0.491   2.688  10.630
 2675SOL    HW2 8769   0.389   2.591  10.574
 2676SOL     OW 8770   1.263   2.237  10.590
 2676SOL    HW1 8771   1.296   2.315  10.635
 2676SOL    HW2 8772   1.173   2.258  10.568
 2677SOL     OW 8773   0.066   3.441  10.655
 2677SOL    HW1 8774   0.071   3.486  10.570
 2677SOL    HW2 8775   0.157   3.432  10.683
 2678SOL     OW 8776   0.366   2.964   9.791
 2678SOL    HW1 8777   0.363   3.046   9.740
 2678SOL    HW2 8778   0.366   2.895   9.725
 2679SOL     OW 8779   0.548   2.396  10.171
 2679SOL    HW1 8780   0.562   2.453  10.096
 2679SOL    HW2 8781   0.616   2.421  10.234
 2680SOL     OW 8782   1.247   3.212   9.700
 2680SOL    HW1 8783   1.303   3.283   9.732
 2680SOL    HW2 8784   1.160   3.233   9.733
 2681SOL     OW 8785   1.287   3.322  10.458
 2681SOL    HW1 8786   1.343   3.326  10.536
 2681SOL    HW2 8787   1.231   3.246  10.473
 2682SOL     OW 8788   1.573   2.486   9.785
 2682SOL    HW1 8789   1.528   2.534   9.854
 2682SOL    HW2 8790   1.621   2.553   9.736
 2683SOL     OW 8791   0.345   3.391  10.627
 2683SOL    HW1 8792   0.335   3.340  10.546
 2683SOL    HW2 8793   0.439   3.405  10.635
 2684SOL     OW 8794   0.418   2.600  10.912
 2684SOL    HW1 8795   0.482   2.644  10.855
 2684SOL    HW2 8796   0.458   2.514  10.929
 2685SOL     OW 8797   1.606   2.644  10.996
 2685SOL    HW1 8798   1.520   2.686  10.990
 2685SOL    HW2 8799   1.658   2.685  10.927
 2686SOL     OW 8800   0.996   1.993  11.063
 2686SOL    HW1 8801   1.055   2.066  11.040
 2686SOL    HW2 8802   1.044   1.915  11.038
 2687SOL     OW 8803   0.497   1.896  11.058
 2687SOL    HW1 8804   0.452   1.844  10.990
 2687SOL    HW2 8805   0.443   1.975  11.067
 2688SOL     OW 8806   0.586   2.736  10.342
 2688SOL    HW1 8807   0.620   2.826  10.344
 2688SOL    HW2 8808   0.530   2.731  10.420
 2689SOL     OW 8809   1.350   2.720  10.333
 2689SOL    HW1 8810   1.264   2.707  10.293
 2689SOL    HW2 8811   1.395   2.636  10.324
 2690SOL     OW 8812   1.202   2.389   9.575
 2690SOL    HW1 8813   1.209   2.311   9.630
 2690SOL    HW2 8814   1.159   2.454   9.630
 2691SOL     OW 8815   0.310   2.057  10.557
 2691SOL    HW1 8816   0.263   2.093  10.632
 2691SOL    HW2 8817   0.287   1.964  10.557
 2692SOL     OW 8818   0.061   3.167  10.591
 2692SOL    HW1 8819   0.092   3.125  10.671
 2692SOL    HW2 8820   0.053   3.260  10.613
 2693SOL     OW 8821   0.722   2.492  10.364
 2693SOL    HW1 8822   0.798   2.478  10.308
 2693SOL    HW2 8823   0.694   2.581  10.345
 2694SOL     OW 8824   1.739   2.820  11.168
 2694SOL    HW1 8825   1.695   2.755  11.113
 2694SOL    HW2 8826   1.677   2.838  11.239
 2695SOL     OW 8827   0.316   1.923   9.930
 2695SOL    HW1 8828   0.293   2.014   9.950
 2695SOL    HW2 8829   0.323   1.880  10.015
 2696SOL     OW 8830   1.611   2.242   9.675
 2696SOL    HW1 8831   1.617   2.185   9.752
 2696SOL    HW2 8832   1.590   2.328   9.710
 2697SOL     OW 8833   1.029   2.620  10.269
 2697SOL    HW1 8834   1.021   2.637  10.362
 2697SOL    HW2 8835   1.003   2.529  10.259
 2698SOL     OW 8836   0.986   3.430  11.032
 2698SOL    HW1 8837   0.966   3.470  10.948
 2698SOL    HW2 8838   1.028   3.347  11.009
 2699SOL     OW 8839   1.853   3.364  10.914
 2699SOL    HW1 8840   1.873   3.392  10.824
 2699SOL    HW2 8841   1.933   3.380  10.963
 2700SOL     OW 8842   0.354   2.784  11.109
 2700SOL    HW1 8843   0.432   2.805  11.160
 2700SOL    HW2 8844   0.383   2.717  11.048
 2701SOL     OW 8845   1.534   2.126   9.435
 2701SOL    HW1 8846   1.465   2.066   9.463
 2701SOL    HW2 8847   1.562   2.170   9.516
 2702SOL     OW 8848   1.287   2.689   9.339
 2702SOL    HW1 8849   1.328   2.602   9.342
 2702SOL    HW2 8850   1.318   2.727   9.257
 2703SOL     OW 8851   1.068   3.200  10.166
 2703SOL    HW1 8852   1.073   3.128  10.103
 2703SOL    HW2 8853   1.127   3.267  10.130
 2704SOL     OW 8854   0.313   2.663  10.260
 2704SOL    HW1 8855   0.407   2.680  10.254
 2704SOL    HW2 8856   0.307   2.572  10.291
 2705SOL     OW 8857   0.328   2.383  10.325
 2705SOL    HW1 8858   0.294   2.295  10.309
 2705SOL    HW2 8859   0.405   2.390  10.267
 2706SOL     OW 8860   1.134   2.235  10.995
 2706SOL    HW1 8861   1.086   2.290  11.058
 2706SOL    HW2 8862   1.222   2.274  10.991
 2707SOL     OW 8863   1.159   2.061  10.781
 2707SOL    HW1 8864   1.149   2.124  10.853
 2707SOL    HW2 8865   1.203   2.110  10.712
 2708SOL     OW 8866   0.000   3.178   9.492
 2708SOL    HW1 8867   3.906   3.194   9.496
 2708SOL    HW2 8868   0.009   3.084   9.510
 2709SOL     OW 8869   0.076   3.662  10.205
 2709SOL    HW1 8870   0.094   3.569  10.200
 2709SOL    HW2 8871   0.162   3.703  10.205
 2710SOL     OW 8872   0.506   3.423  10.228
 2710SOL    HW1 8873   0.571   3.491  10.247
 2710SOL    HW2 8874   0.549   3.366  10.164
 2711SOL     OW 8875   0.975   2.650  10.534
 2711SOL    HW1 8876   1.034   2.631  10.607
 2711SOL    HW2 8877   0.892   2.611  10.560
 2712SOL     OW 8878   0.038   2.423  10.419
 2712SOL    HW1 8879   0.120   2.400  10.376
 2712SOL    HW2 8880   0.057   2.419  10.513
 2713SOL     OW 8881   0.207   2.374  11.038
 2713SOL    HW1 8882   0.244   2.324  10.965
 2713SOL    HW2 8883   0.163   2.448  10.996
 2714SOL     OW 8884   1.379   2.797  10.967
 2714SOL    HW1 8885   1.401   2.890  10.963
 2714SOL    HW2 8886   1.375   2.770  10.875
 2715SOL     OW 8887   0.819   2.431   9.674
 2715SOL    HW1 8888   0.824   2.356   9.615
 2715SOL    HW2 8889   0.745   2.482   9.641
 2716SOL     OW 8890   1.633   2.465  10.494
 2716SOL    HW1 8891   1.622   2.409  10.571
 2716SOL    HW2 8892   1.719   2.441  10.460
 2717SOL     OW 8893   0.301   3.406  11.033
 2717SOL    HW1 8894   0.253   3.475  11.079
 2717SOL    HW2 8895   0.272   3.325  11.075
 2718SOL     OW 8896   0.711   2.310  10.565
 2718SOL    HW1 8897   0.657   2.236  10.537
 2718SOL    HW2 8898   0.704   2.373  10.494
 2719SOL     OW 8899   0.926   3.532  10.780
 2719SOL    HW1 8900   0.899   3.493  10.697
 2719SOL    HW2 8901   0.918   3.627  10.766
 2720SOL     OW 8902   0.452   2.350   9.507
 2720SOL    HW1 8903   0.517   2.417   9.525
 2720SOL    HW2 8904   0.373   2.399   9.484
 2721SOL     OW 8905   0.154   2.996  10.786
 2721SOL    HW1 8906   0.154   2.946  10.868
 2721SOL    HW2 8907   0.170   2.931  10.718
 2722SOL     OW 8908   1.322   2.906  10.530
 2722SOL    HW1 8909   1.344   2.842  10.461
 2722SOL    HW2 8910   1.255   2.962  10.491
 2723SOL     OW 8911   1.315   2.719   9.614
 2723SOL    HW1 8912   1.241   2.687   9.666
 2723SOL    HW2 8913   1.289   2.706   9.523
 2724SOL     OW 8914   1.774   3.599  10.463
 2724SOL    HW1 8915   1.836   3.627  10.396
 2724SOL    HW2 8916   1.752   3.509  10.438
 2725SOL     OW 8917   1.244   3.594  10.416
 2725SOL    HW1 8918   1.327   3.616  10.374
 2725SOL    HW2 8919   1.252   3.501  10.437
 2726SOL     OW 8920   0.077   3.075  10.338
 2726SOL    HW1 8921   0.084   3.103  10.430
 2726SOL    HW2 8922   3.985   3.088  10.316
 2727SOL     OW 8923   0.680   3.528  11.047
 2727SOL    HW1 8924   0.621   3.603  11.050
 2727SOL    HW2 8925   0.740   3.549  10.975
 2728SOL     OW 8926   1.391   3.431   9.799
 2728SOL    HW1 8927   1.450   3.465   9.731
 2728SOL    HW2 8928   1.342   3.507   9.829
 2729SOL     OW 8929   0.172   3.620  11.143
 2729SOL    HW1 8930   0.117   3.567  11.201
 2729SOL    HW2 8931   0.217   3.681  11.201
 2730SOL     OW 8932   1.278   2.790   9.981
 2730SOL    HW1 8933   1.352   2.729   9.990
 2730SOL    HW2 8934   1.312   2.861   9.928
 2731SOL     OW 8935   0.807   3.137  10.736
 2731SOL    HW1 8936   0.778   3.178  10.818
 2731SOL    HW2 8937   0.735   3.154  10.674
 2732SOL     OW 8938   0.674   3.480   9.469
 2732SOL    HW1 8939   0.684   3.498   9.375
 2732SOL    HW2 8940   0.615   3.406   9.473
 2733SOL     OW 8941   1.620   3.589  10.700
 2733SOL    HW1 8942   1.673   3.593  10.620
 2733SOL    HW2 8943   1.606   3.680  10.724
 2734SOL     OW 8944   0.265   2.174  10.025
 2734SOL    HW1 8945   0.178   2.205  10.000
 2734SOL    HW2 8946   0.260   2.165  10.120
 2735SOL     OW 8947   1.208   3.464   9.347
 2735SOL    HW1 8948   1.197   3.372   9.371
 2735SOL    HW2 8949   1.147   3.478   9.274
 2736SOL     OW 8950   0.823   2.868  10.685
 2736SOL    HW1 8951   0.867   2.862  10.600
 2736SOL    HW2 8952   0.820   2.962  10.704
 2737SOL     OW 8953   0.916   2.772   9.601
 2737SOL    HW1 8954   0.976   2.805   9.534
 2737SOL    HW2 8955   0.966   2.704   9.647
 2738SOL     OW 8956   1.488   3.492   9.353
 2738SOL    HW1 8957   1.395   3.481   9.337
 2738SOL    HW2 8958   1.528   3.498   9.266
 2739SOL     OW 8959   0.374   3.165  10.801
 2739SOL    HW1 8960   0.359   3.245  10.751
 2739SOL    HW2 8961   0.297   3.111  10.784
 2740SOL     OW 8962   1.609   3.146  10.589
 2740SOL    HW1 8963   1.668   3.131  10.663
 2740SOL    HW2 8964   1.548   3.213  10.621
 2741SOL     OW 8965   1.059   2.972  10.020
 2741SOL    HW1 8966   0.987   2.921  10.057
 2741SOL    HW2 8967   1.123   2.906   9.992
 2742SOL     OW 8968   1.024   2.104  10.277
 2742SOL    HW1 8969   1.020   2.057  10.193
 2742SOL    HW2 8970   1.019   2.035  10.343
 2743SOL     OW 8971   0.607   3.353   9.790
 2743SOL    HW1 8972   0.654   3.302   9.724
 2743SOL    HW2 8973   0.533   3.392   9.743
 2744SOL     OW 8974   1.733   2.241  10.684
 2744SOL    HW1 8975   1.800   2.309  10.689
 2744SOL    HW2 8976   1.775   2.170  10.636
 2745SOL     OW 8977   0.254   3.202   9.602
 2745SOL    HW1 8978   0.160   3.208   9.584
 2745SOL    HW2 8979   0.265   3.241   9.689
 2746SOL     OW 8980   0.108   2.859  11.027
 2746SOL    HW1 8981   0.049   2.853  11.102
 2746SOL    HW2 8982   0.195   2.842  11.065
 2747SOL     OW 8983   0.677   2.058  10.810
 2747SOL    HW1 8984   0.760   2.036  10.769
 2747SOL    HW2 8985   0.700   2.091  10.897
 2748SOL     OW 8986   0.081   2.173   9.347
 2748SOL    HW1 8987   3.985   2.174   9.356
 2748SOL    HW2 8988   0.101   2.254   9.301
 2749SOL     OW 8989   1.426   2.719  10.708
 2749SOL    HW1 8990   1.378   2.781  10.653
 2749SOL    HW2 8991   1.516   2.723  10.674
 2750SOL     OW 8992   0.016   2.103   9.688
 2750SOL    HW1 8993   0.046   2.167   9.623
 2750SOL    HW2 8994   0.096   2.061   9.719
 2751SOL     OW 8995   1.177   3.197   9.427
 2751SOL    HW1 8996   1.086   3.169   9.428
 2751SOL    HW2 8997   1.203   3.197   9.519
 2752SOL     OW 8998   0.620   2.692  10.747
 2752SOL    HW1 8999   0.677   2.768  10.732
 2752SOL    HW2 9000   0.681   2.618  10.754
 2753SOL     OW 9001   1.487   3.643  10.292
 2753SOL    HW1 9002   1.508   3.705  10.222
 2753SOL    HW2 9003   1.571   3.619  10.330
 2754SOL     OW 9004   0.716   2.423  11.013
 2754SOL    HW1 9005   0.762   2.483  11.071
 2754SOL    HW2 9006   0.739   2.335  11.045
 2755SOL     OW 9007   1.474   3.058  10.939
 2755SOL    HW1 9008   1.462   3.072  11.033
 2755SOL    HW2 9009   1.566   3.076  10.924
 2756SOL     OW 9010   0.378   3.609  10.870
 2756SOL    HW1 9011   0.290   3.645  10.857
 2756SOL    HW2 9012   0.364   3.526  10.914
 2757SOL     OW 9013   1.667   2.743  10.564
 2757SOL    HW1 9014   1.658   2.658  10.522
 2757SOL    HW2 9015   1.655   2.806  10.493
 2758SOL     OW 9016   1.216   2.182   9.768
 2758SOL    HW1 9017   1.278   2.109   9.761
 2758SOL    HW2 9018   1.245   2.231   9.844
 2759SOL     OW 9019   0.588   2.598   9.984
 2759SOL    HW1 9020   0.627   2.684   9.969
 2759SOL    HW2 9021   0.523   2.589   9.914
 2760SOL     OW 9022   1.751   2.242  10.962
 2760SOL    HW1 9023   1.743   2.245  10.866
 2760SOL    HW2 9024   1.686   2.177  10.989
 2761SOL     OW 9025   1.742   2.798  10.821
 2761SOL    HW1 9026   1.736   2.893  10.832
 2761SOL    HW2 9027   1.728   2.784  10.727
 2762SOL     OW 9028   0.866   3.228   9.352
 2762SOL    HW1 9029   0.824   3.257   9.433
 2762SOL    HW2 9030   0.879   3.309   9.302
 2763SOL     OW 9031   0.658   3.649  10.241
 2763SOL    HW1 9032   0.638   3.741  10.224
 2763SOL    HW2 9033   0.754   3.645  10.241
 2764SOL     OW 9034   0.869   2.831  10.163
 2764SOL    HW1 9035   0.919   2.759  10.201
 2764SOL    HW2 9036   0.832   2.877  10.238
 2765SOL     OW 9037   1.076   2.850   9.399
 2765SOL    HW1 9038   1.055   2.902   9.321
 2765SOL    HW2 9039   1.151   2.796   9.373
 2766SOL     OW 9040   1.848   3.411  10.150
 2766SOL    HW1 9041   1.768   3.402  10.100
 2766SOL    HW2 9042   1.837   3.351  10.224
 2767SOL     OW 9043   0.229   3.166  11.167
 2767SOL    HW1 9044   0.153   3.114  11.139
 2767SOL    HW2 9045   0.216   3.179  11.261
 2768SOL     OW 9046   0.119   3.143  10.034
 2768SOL    HW1 9047   0.139   3.092  10.112
 2768SOL    HW2 9048   0.103   3.078   9.966
 2769SOL     OW 9049   0.684   3.268  10.942
 2769SOL    HW1 9050   0.604   3.226  10.972
 2769SOL    HW2 9051   0.681   3.356  10.979
 2770SOL     OW 9052   0.440   2.295   9.845
 2770SOL    HW1 9053   0.441   2.226   9.779
 2770SOL    HW2 9054   0.385   2.262   9.915
 2771SOL     OW 9055   1.700   3.346  10.399
 2771SOL    HW1 9056   1.618   3.326  10.352
 2771SOL    HW2 9057   1.706   3.278  10.466
 2772SOL     OW 9058   0.336   2.421  10.602
 2772SOL    HW1 9059   0.389   2.363  10.657
 2772SOL    HW2 9060   0.350   2.389  10.513
 2773SOL     OW 9061   0.830   3.441   9.986
 2773SOL    HW1 9062   0.810   3.498   9.911
 2773SOL    HW2 9063   0.756   3.380   9.989
 2774SOL     OW 9064   1.434   2.091  10.431
 2774SOL    HW1 9065   1.439   2.003  10.467
 2774SOL    HW2 9066   1.381   2.140  10.494
 2775SOL     OW 9067   1.009   1.878  10.447
 2775SOL    HW1 9068   0.956   1.812  10.404
 2775SOL    HW2 9069   1.097   1.840  10.449
 2776SOL     OW 9070   0.773   3.194   9.631
 2776SOL    HW1 9071   0.745   3.103   9.637
 2776SOL    HW2 9072   0.856   3.197   9.679
 2777SOL     OW 9073   0.621   3.415  10.597
 2777SOL    HW1 9074   0.621   3.497  10.646
 2777SOL    HW2 9075   0.709   3.410  10.559
 2778SOL     OW 9076   1.355   1.911   9.480
 2778SOL    HW1 9077   1.384   1.847   9.415
 2778SOL    HW2 9078   1.266   1.884   9.502
 2779SOL     OW 9079   1.299   2.325   9.990
 2779SOL    HW1 9080   1.246   2.404   9.993
 2779SOL    HW2 9081   1.292   2.287  10.077
 2780SOL     OW 9082   1.572   2.054  10.187
 2780SOL    HW1 9083   1.534   2.082  10.270
 2780SOL    HW2 9084   1.585   2.136  10.138
 2781SOL     OW 9085   0.048   2.909   9.551
 2781SOL    HW1 9086   0.142   2.895   9.543
 2781SOL    HW2 9087   0.012   2.824   9.576
 2782SOL     OW 9088   0.887   3.523   9.651
 2782SOL    HW1 9089   0.815   3.504   9.591
 2782SOL    HW2 9090   0.856   3.597   9.703
 2783SOL     OW 9091   0.231   2.488  11.290
 2783SOL    HW1 9092   0.138   2.496  11.311
 2783SOL    HW2 9093   0.232   2.456  11.200
 2784SOL     OW 9094   0.229   2.135  12.159
 2784SOL    HW1 9095   0.250   2.100  12.245
 2784SOL    HW2 9096   0.134   2.127  12.152
 2785SOL     OW 9097   0.007   2.220  11.802
 2785SOL    HW1 9098   3.917   2.238  11.830
 2785SOL    HW2 9099   3.997   2.190  11.711
 2786SOL     OW 9100   0.581   3.154  12.367
 2786SOL    HW1 9101   0.495   3.156  12.324
 2786SOL    HW2 9102   0.595   3.243  12.398
 2787SOL     OW 9103   1.566   3.373  11.881
 2787SOL    HW1 9104   1.524   3.350  11.964
 2787SOL    HW2 9105   1.495   3.376  11.818
 2788SOL     OW 9106   1.133   2.559  11.869
 2788SOL    HW1 9107   1.181   2.642  11.856
 2788SOL    HW2 9108   1.085   2.572  11.951
 2789SOL     OW 9109   1.785   2.462  11.398
 2789SOL    HW1 9110   1.755   2.459  11.308
 2789SOL    HW2 9111   1.744   2.386  11.440
 2790SOL     OW 9112   0.750   2.999  12.216
 2790SOL    HW1 9113   0.688   3.036  12.279
 2790SOL    HW2 9114   0.787   3.075  12.172
 2791SOL     OW 9115   0.873   2.627  12.995
 2791SOL    HW1 9116   0.865   2.698  13.059
 2791SOL    HW2 9117   0.895   2.671  12.913
 2792SOL     OW 9118   0.685   2.862  11.817
 2792SOL    HW1 9119   0.751   2.852  11.885
 2792SOL    HW2 9120   0.616   2.915  11.858
 2793SOL     OW 9121   0.713   3.011  12.990
 2793SOL    HW1 9122   0.761   3.088  13.020
 2793SOL    HW2 9123   0.633   3.046  12.951
 2794SOL     OW 9124   0.350   3.262  12.250
 2794SOL    HW1 9125   0.269   3.245  12.203
 2794SOL    HW2 9126   0.400   3.320  12.193
 2795SOL     OW 9127   1.459   3.364  12.531
 2795SOL    HW1 9128   1.514   3.442  12.541
 2795SOL    HW2 9129   1.391   3.373  12.598
 2796SOL     OW 9130   0.450   2.258  12.657
 2796SOL    HW1 9131   0.526   2.200  12.661
 2796SOL    HW2 9132   0.375   2.202  12.672
 2797SOL     OW 9133   1.598   2.302  11.908
 2797SOL    HW1 9134   1.514   2.319  11.865
 2797SOL    HW2 9135   1.612   2.379  11.963
 2798SOL     OW 9136   0.222   3.572  11.638
 2798SOL    HW1 9137   0.220   3.657  11.682
 2798SOL    HW2 9138   0.299   3.576  11.581
 2799SOL     OW 9139   1.138   3.204  12.866
 2799SOL    HW1 9140   1.178   3.197  12.952
 2799SOL    HW2 9141   1.085   3.124  12.858
 2800SOL     OW 9142   0.253   3.307  11.711
 2800SOL    HW1 9143   0.224   3.397  11.698
 2800SOL    HW2 9144   0.184   3.267  11.765
 2801SOL     OW 9145   0.248   2.927  12.055
 2801SOL    HW1 9146   0.269   2.842  12.094
 2801SOL    HW2 9147   0.195   2.972  12.121
 2802SOL     OW 9148   0.609   3.648  12.598
 2802SOL    HW1 9149   0.527   3.634  12.645
 2802SOL    HW2 9150   0.636   3.737  12.622
 2803SOL     OW 9151   0.575   2.849  11.311
 2803SOL    HW1 9152   0.624   2.893  11.242
 2803SOL    HW2 9153   0.616   2.879  11.393
 2804SOL     OW 9154   1.552   2.005  12.614
 2804SOL    HW1 9155   1.577   2.089  12.575
 2804SOL    HW2 9156   1.546   2.023  12.708
 2805SOL     OW 9157   0.144   2.518  11.745
 2805SOL    HW1 9158   0.087   2.441  11.743
 2805SOL    HW2 9159   0.108   2.572  11.816
 2806SOL     OW 9160   1.844   3.606  11.509
 2806SOL    HW1 9161   1.913   3.583  11.571
 2806SOL    HW2 9162   1.861   3.697  11.486
 2807SOL     OW 9163   0.040   3.451  11.311
 2807SOL    HW1 9164   0.036   3.360  11.339
 2807SOL    HW2 9165   3.955   3.487  11.335
 2808SOL     OW 9166   1.689   2.781  11.815
 2808SOL    HW1 9167   1.770   2.736  11.789
 2808SOL    HW2 9168   1.665   2.833  11.739
 2809SOL     OW 9169   1.648   2.966  11.601
 2809SOL    HW1 9170   1.735   2.968  11.560
 2809SOL    HW2 9171   1.655   3.029  11.673
 2810SOL     OW 9172   0.142   2.614  12.762
 2810SOL    HW1 9173   0.238   2.611  12.756
 2810SOL    HW2 9174   0.124   2.702  12.797
 2811SOL     OW 9175   0.617   3.249  11.906
 2811SOL    HW1 9176   0.570   3.167  11.915
 2811SOL    HW2 9177   0.599   3.277  11.816
 2812SOL     OW 9178   1.286   3.098  12.593
 2812SOL    HW1 9179   1.318   3.030  12.534
 2812SOL    HW2 9180   1.345   3.093  12.668
 2813SOL     OW 9181   0.823   1.864  11.686
 2813SOL    HW1 9182   0.862   1.948  11.662
 2813SOL    HW2 9183   0.729   1.882  11.689
 2814SOL     OW 9184   0.183   2.811  12.453
 2814SOL    HW1 9185   0.272   2.775  12.441
 2814SOL    HW2 9186   0.133   2.775  12.380
 2815SOL     OW 9187   1.531   2.860  11.372
 2815SOL    HW1 9188   1.462   2.803  11.404
 2815SOL    HW2 9189   1.573   2.894  11.451
 2816SOL     OW 9190   1.222   3.667  12.800
 2816SOL    HW1 9191   1.195   3.729  12.731
 2816SOL    HW2 9192   1.222   3.582  12.757
 2817SOL     OW 9193   0.344   2.109  12.990
 2817SOL    HW1 9194   0.378   2.198  12.998
 2817SOL    HW2 9195   0.252   2.117  13.015
 2818SOL     OW 9196   1.467   3.281  12.120
 2818SOL    HW1 9197   1.400   3.297  12.187
 2818SOL    HW2 9198   1.453   3.190  12.094
 2819SOL     OW 9199   1.653   3.603  11.753
 2819SOL    HW1 9200   1.639   3.572  11.664
 2819SOL    HW2 9201   1.631   3.529  11.809
 2820SOL     OW 9202   0.596   2.576  11.439
 2820SOL    HW1 9203   0.601   2.661  11.395
 2820SOL    HW2 9204   0.533   2.590  11.510
 2821SOL     OW 9205   1.280   2.225  12.107
 2821SOL    HW1 9206   1.191   2.190  12.117
 2821SOL    HW2 9207   1.334   2.169  12.163
 2822SOL     OW 9208   1.576   3.538  11.481
 2822SOL    HW1 9209   1.669   3.559  11.475
 2822SOL    HW2 9210   1.550   3.519  11.391
 2823SOL     OW 9211   0.791   2.480  12.621
 2823SOL    HW1 9212   0.765   2.454  12.710
 2823SOL    HW2 9213   0.755   2.411  12.565
 2824SOL     OW 9214   1.393   2.335  12.849
 2824SOL    HW1 9215   1.397   2.381  12.933
 2824SOL    HW2 9216   1.453   2.261  12.859
 2825SOL     OW 9217   0.951   2.747  12.757
 2825SOL    HW1 9218   1.006   2.679  12.719
 2825SOL    HW2 9219   0.902   2.783  12.683
 2826SOL     OW 9220   0.993   2.273  12.407
 2826SOL    HW1 9221   0.904   2.291  12.438
 2826SOL    HW2 9222   0.981   2.229  12.323
 2827SOL     OW 9223   1.054   2.560  11.597
 2827SOL    HW1 9224   1.071   2.553  11.691
 2827SOL    HW2 9225   0.971   2.514  11.584
 2828SOL     OW 9226   0.082   2.693  11.961
 2828SOL    HW1 9227   0.155   2.661  12.016
 2828SOL    HW2 9228   0.104   2.785  11.945
 2829SOL     OW 9229   0.127   3.720  12.753
 2829SOL    HW1 9230   0.135   3.688  12.843
 2829SOL    HW2 9231   0.035   3.706  12.731
 2830SOL     OW 9232   0.899   2.212  11.366
 2830SOL    HW1 9233   0.938   2.276  11.306
 2830SOL    HW2 9234   0.913   2.127  11.324
 2831SOL     OW 9235   1.702   2.438  13.007
 2831SOL    HW1 9236   1.668   2.510  12.954
 2831SOL    HW2 9237   1.731   2.373  12.943
 2832SOL     OW 9238   1.380   3.004  11.712
 2832SOL    HW1 9239   1.459   2.992  11.659
 2832SOL    HW2 9240   1.326   3.066  11.663
 2833SOL     OW 9241   0.547   2.039  12.067
 2833SOL    HW1 9242   0.553   2.072  12.157
 2833SOL    HW2 9243   0.545   2.118  12.013
 2834SOL     OW 9244   1.001   3.307  11.641
 2834SOL    HW1 9245   0.967   3.381  11.592
 2834SOL    HW2 9246   0.979   3.326  11.732
 2835SOL     OW 9247   0.359   3.673  12.036
 2835SOL    HW1 9248   0.440   3.623  12.049
 2835SOL    HW2 9249   0.386   3.764  12.045
 2836SOL     OW 9250   1.800   2.911  12.043
 2836SOL    HW1 9251   1.747   2.894  11.965
 2836SOL    HW2 9252   1.737   2.920  12.114
 2837SOL     OW 9253   1.227   3.399  12.683
 2837SOL    HW1 9254   1.215   3.328  12.745
 2837SOL    HW2 9255   1.157   3.388  12.619
 2838SOL     OW 9256   0.311   2.814  11.415
 2838SOL    HW1 9257   0.394   2.837  11.372
 2838SOL    HW2 9258   0.298   2.722  11.395
 2839SOL     OW 9259   1.482   2.609  11.894
 2839SOL    HW1 9260   1.476   2.569  11.981
 2839SOL    HW2 9261   1.560   2.664  11.898
 2840SOL     OW 9262   0.470   3.123  12.909
 2840SOL    HW1 9263   0.444   3.131  12.817
 2840SOL    HW2 9264   0.387   3.125  12.957
 2841SOL     OW 9265   1.113   3.643  11.392
 2841SOL    HW1 9266   1.048   3.598  11.445
 2841SOL    HW2 9267   1.145   3.577  11.331
 2842SOL     OW 9268   0.204   2.131  12.680
 2842SOL    HW1 9269   0.114   2.165  12.676
 2842SOL    HW2 9270   0.195   2.043  12.716
 2843SOL     OW 9271   1.628   3.244  11.264
 2843SOL    HW1 9272   1.588   3.329  11.246
 2843SOL    HW2 9273   1.559   3.180  11.242
 2844SOL     OW 9274   0.467   3.603  11.493
 2844SOL    HW1 9275   0.506   3.664  11.555
 2844SOL    HW2 9276   0.540   3.573  11.439
 2845SOL     OW 9277   1.401   1.967  11.609
 2845SOL    HW1 9278   1.387   1.945  11.517
 2845SOL    HW2 9279   1.480   1.919  11.633
 2846SOL     OW 9280   0.256   3.657  12.396
 2846SOL    HW1 9281   0.297   3.588  12.448
 2846SOL    HW2 9282   0.253   3.621  12.307
 2847SOL     OW 9283   0.938   3.564  12.071
 2847SOL    HW1 9284   1.015   3.513  12.094
 2847SOL    HW2 9285   0.896   3.514  12.001
 2848SOL     OW 9286   0.400   2.554  11.643
 2848SOL    HW1 9287   0.424   2.463  11.658
 2848SOL    HW2 9288   0.309   2.560  11.669
 2849SOL     OW 9289   1.531   2.085  12.895
 2849SOL    HW1 9290   1.547   2.106  12.987
 2849SOL    HW2 9291   1.465   2.016  12.897
 2850SOL     OW 9292   0.648   1.978  11.267
 2850SOL    HW1 9293   0.705   1.905  11.289
 2850SOL    HW2 9294   0.596   1.947  11.193
 2851SOL     OW 9295   0.765   2.141  12.927
 2851SOL    HW1 9296   0.845   2.089  12.923
 2851SOL    HW2 9297   0.719   2.110  13.005
 2852SOL     OW 9298   0.876   3.383  12.366
 2852SOL    HW1 9299   0.859   3.346  12.280
 2852SOL    HW2 9300   0.945   3.328  12.403
 2853SOL     OW 9301   1.340   2.451  12.605
 2853SOL    HW1 9302   1.370   2.420  12.690
 2853SOL    HW2 9303   1.376   2.540  12.597
 2854SOL     OW 9304   0.818   3.252  12.116
 2854SOL    HW1 9305   0.903   3.240  12.073
 2854SOL    HW2 9306   0.756   3.256  12.043
 2855SOL     OW 9307   0.929   2.372  12.073
 2855SOL    HW1 9308   0.905   2.363  11.981
 2855SOL    HW2 9309   0.959   2.284  12.098
 2856SOL     OW 9310   0.558   1.924  11.665
 2856SOL    HW1 9311   0.476   1.929  11.714
 2856SOL    HW2 9312   0.562   2.006  11.615
 2857SOL     OW 9313   1.428   3.062  11.211
 2857SOL    HW1 9314   1.457   2.987  11.262
 2857SOL    HW2 9315   1.342   3.084  11.248
 2858SOL     OW 9316   0.309   1.913  11.341
 2858SOL    HW1 9317   0.371   1.951  11.279
 2858SOL    HW2 9318   0.360   1.848  11.390
 2859SOL     OW 9319   0.942   2.111  11.629
 2859SOL    HW1 9320   0.914   2.150  11.546
 2859SOL    HW2 9321   1.036   2.127  11.633
 2860SOL     OW 9322   1.080   2.545  12.629
 2860SOL    HW1 9323   1.014   2.476  12.634
 2860SOL    HW2 9324   1.164   2.499  12.624
 2861SOL     OW 9325   1.221   3.433  11.966
 2861SOL    HW1 9326   1.235   3.500  11.899
 2861SOL    HW2 9327   1.289   3.449  12.030
 2862SOL     OW 9328   0.467   3.013  11.905
 2862SOL    HW1 9329   0.396   2.989  11.965
 2862SOL    HW2 9330   0.431   2.998  11.817
 2863SOL     OW 9331   1.264   3.655  11.781
 2863SOL    HW1 9332   1.313   3.719  11.730
 2863SOL    HW2 9333   1.191   3.704  11.818
 2864SOL     OW 9334   1.023   2.398  11.198
 2864SOL    HW1 9335   0.980   2.482  11.178
 2864SOL    HW2 9336   1.089   2.420  11.264
 2865SOL     OW 9337   0.084   2.436  12.561
 2865SOL    HW1 9338   0.173   2.423  12.531
 2865SOL    HW2 9339   0.090   2.505  12.627
 2866SOL     OW 9340   0.567   2.089  12.340
 2866SOL    HW1 9341   0.608   2.015  12.383
 2866SOL    HW2 9342   0.475   2.085  12.368
 2867SOL     OW 9343   0.867   2.320  11.811
 2867SOL    HW1 9344   0.820   2.374  11.748
 2867SOL    HW2 9345   0.888   2.240  11.763
 2868SOL     OW 9346   1.016   1.917  11.921
 2868SOL    HW1 9347   0.958   1.911  11.845
 2868SOL    HW2 9348   0.993   1.842  11.975
 2869SOL     OW 9349   1.439   3.023  12.028
 2869SOL    HW1 9350   1.368   2.958  12.029
 2869SOL    HW2 9351   1.462   3.031  11.936
 2870SOL     OW 9352   1.463   2.470  12.141
 2870SOL    HW1 9353   1.407   2.392  12.144
 2870SOL    HW2 9354   1.519   2.462  12.218
 2871SOL     OW 9355   1.843   2.673  11.559
 2871SOL    HW1 9356   1.904   2.626  11.616
 2871SOL    HW2 9357   1.818   2.610  11.492
 2872SOL     OW 9358   0.488   3.283  11.329
 2872SOL    HW1 9359   0.411   3.253  11.379
 2872SOL    HW2 9360   0.472   3.250  11.241
 2873SOL     OW 9361   1.675   3.125  11.814
 2873SOL    HW1 9362   1.770   3.126  11.829
 2873SOL    HW2 9363   1.647   3.214  11.837
 2874SOL     OW 9364   1.393   2.435  11.242
 2874SOL    HW1 9365   1.334   2.414  11.313
 2874SOL    HW2 9366   1.479   2.406  11.273
 2875SOL     OW 9367   0.575   2.129  11.487
 2875SOL    HW1 9368   0.608   2.083  11.410
 2875SOL    HW2 9369   0.543   2.213  11.453
 2876SOL     OW 9370   1.750   3.104  12.737
 2876SOL    HW1 9371   1.837   3.066  12.731
 2876SOL    HW2 9372   1.765   3.194  12.765
 2877SOL     OW 9373   1.055   3.214  12.503
 2877SOL    HW1 9374   0.980   3.183  12.554
 2877SOL    HW2 9375   1.131   3.173  12.545
 2878SOL     OW 9376   1.610   3.489  12.829
 2878SOL    HW1 9377   1.601   3.523  12.740
 2878SOL    HW2 9378   1.693   3.440  12.828
 2879SOL     OW 9379   1.134   3.070  12.274
 2879SOL    HW1 9380   1.074   3.107  12.339
 2879SOL    HW2 9381   1.103   3.104  12.191
 2880SOL     OW 9382   1.625   2.959  12.247
 2880SOL    HW1 9383   1.619   3.021  12.319
 2880SOL    HW2 9384   1.548   2.977  12.193
 2881SOL     OW 9385   0.918   1.956  12.564
 2881SOL    HW1 9386   0.941   1.937  12.473
 2881SOL    HW2 9387   0.997   1.996  12.601
 2882SOL     OW 9388   0.984   2.977  12.895
 2882SOL    HW1 9389   0.893   2.994  12.918
 2882SOL    HW2 9390   0.981   2.898  12.840
 2883SOL     OW 9391   0.708   2.923  11.543
 2883SOL    HW1 9392   0.694   2.905  11.636
 2883SOL    HW2 9393   0.784   2.870  11.519
 2884SOL     OW 9394   0.423   2.680  12.425
 2884SOL    HW1 9395   0.491   2.688  12.492
 2884SOL    HW2 9396   0.389   2.591  12.436
 2885SOL     OW 9397   1.263   2.237  12.452
 2885SOL    HW1 9398   1.296   2.315  12.497
 2885SOL    HW2 9399   1.173   2.258  12.430
 2886SOL     OW 9400   0.065   3.441  12.517
 2886SOL    HW1 9401   0.071   3.485  12.432
 2886SOL    HW2 9402   0.156   3.432  12.545
 2887SOL     OW 9403   0.366   2.965  11.653
 2887SOL    HW1 9404   0.363   3.046  11.602
 2887SOL    HW2 9405   0.366   2.895  11.587
 2888SOL     OW 9406   0.548   2.396  12.033
 2888SOL    HW1 9407   0.562   2.453  11.958
 2888SOL    HW2 9408   0.616   2.422  12.096
 2889SOL     OW 9409   1.247   3.211  11.562
 2889SOL    HW1 9410   1.303   3.283  11.594
 2889SOL    HW2 9411   1.160   3.233  11.595
 2890SOL     OW 9412   1.287   3.322  12.320
 2890SOL    HW1 9413   1.343   3.327  12.398
 2890SOL    HW2 9414   1.231   3.246  12.335
 2891SOL     OW 9415   1.574   2.491  11.646
 2891SOL    HW1 9416   1.528   2.533  11.719
 2891SOL    HW2 9417   1.622   2.562  11.604
 2892SOL     OW 9418   0.345   3.391  12.489
 2892SOL    HW1 9419   0.335   3.340  12.408
 2892SOL    HW2 9420   0.439   3.405  12.497
 2893SOL     OW 9421   0.418   2.600  12.774
 2893SOL    HW1 9422   0.482   2.644  12.718
 2893SOL    HW2 9423   0.458   2.514  12.791
 2894SOL     OW 9424   1.606   2.644  12.858
 2894SOL    HW1 9425   1.520   2.686  12.852
 2894SOL    HW2 9426   1.658   2.686  12.789
 2895SOL     OW 9427   0.996   1.993  12.925
 2895SOL    HW1 9428   1.055   2.066  12.902
 2895SOL    HW2 9429   1.045   1.915  12.900
 2896SOL     OW 9430   0.497   1.896  12.919
 2896SOL    HW1 9431   0.452   1.844  12.852
 2896SOL    HW2 9432   0.443   1.975  12.928
 2897SOL     OW 9433   0.586   2.736  12.204
 2897SOL    HW1 9434   0.620   2.826  12.206
 2897SOL    HW2 9435   0.530   2.731  12.282
 2898SOL     OW 9436   1.350   2.720  12.194
 2898SOL    HW1 9437   1.264   2.707  12.155
 2898SOL    HW2 9438   1.394   2.636  12.186
 2899SOL     OW 9439   1.201   2.390  11.435
 2899SOL    HW1 9440   1.209   2.312  11.490
 2899SOL    HW2 9441   1.159   2.454  11.491
 2900SOL     OW 9442   0.310   2.057  12.419
 2900SOL    HW1 9443   0.263   2.093  12.494
 2900SOL    HW2 9444   0.287   1.964  12.419
 2901SOL     OW 9445   0.062   3.167  12.453
 2901SOL    HW1 9446   0.092   3.125  12.533
 2901SOL    HW2 9447   0.053   3.260  12.476
 2902SOL     OW 9448   0.722   2.492  12.226
 2902SOL    HW1 9449   0.798   2.478  12.170
 2902SOL    HW2 9450   0.694   2.581  12.207
 2903SOL     OW 9451   1.739   2.820  13.030
 2903SOL    HW1 9452   1.695   2.755  12.976
 2903SOL    HW2 9453   1.677   2.838  13.101
 2904SOL     OW 9454   0.316   1.923  11.792
 2904SOL    HW1 9455   0.293   2.014  11.812
 2904SOL    HW2 9456   0.323   1.880  11.877
 2905SOL     OW 9457   1.613   2.248  11.535
 2905SOL    HW1 9458   1.612   2.186  11.609
 2905SOL    HW2 9459   1.591   2.332  11.574
 2906SOL     OW 9460   1.029   2.620  12.131
 2906SOL    HW1 9461   1.021   2.637  12.224
 2906SOL    HW2 9462   1.003   2.529  12.121
 2907SOL     OW 9463   0.986   3.430  12.894
 2907SOL    HW1 9464   0.966   3.471  12.809
 2907SOL    HW2 9465   1.028   3.347  12.871
 2908SOL     OW 9466   1.853   3.363  12.776
 2908SOL    HW1 9467   1.873   3.392  12.686
 2908SOL    HW2 9468   1.933   3.380  12.825
 2909SOL     OW 9469   0.354   2.784  12.972
 2909SOL    HW1 9470   0.432   2.805  13.023
 2909SOL    HW2 9471   0.383   2.716  12.910
 2910SOL     OW 9472   1.528   2.131  11.298
 2910SOL    HW1 9473   1.462   2.067  11.327
 2910SOL    HW2 9474   1.560   2.171  11.379
 2911SOL     OW 9475   1.288   2.687  11.201
 2911SOL    HW1 9476   1.331   2.602  11.205
 2911SOL    HW2 9477   1.320   2.726  11.119
 2912SOL     OW 9478   1.068   3.200  12.028
 2912SOL    HW1 9479   1.073   3.128  11.965
 2912SOL    HW2 9480   1.127   3.267  11.992
 2913SOL     OW 9481   0.313   2.663  12.122
 2913SOL    HW1 9482   0.407   2.680  12.116
 2913SOL    HW2 9483   0.307   2.572  12.153
 2914SOL     OW 9484   0.328   2.383  12.187
 2914SOL    HW1 9485   0.294   2.295  12.171
 2914SOL    HW2 9486   0.405   2.390  12.129
 2915SOL     OW 9487   1.134   2.235  12.857
 2915SOL    HW1 9488   1.087   2.290  12.920
 2915SOL    HW2 9489   1.222   2.274  12.853
 2916SOL     OW 9490   1.159   2.061  12.644
 2916SOL    HW1 9491   1.149   2.124  12.715
 2916SOL    HW2 9492   1.203   2.110  12.574
 2917SOL     OW 9493   0.000   3.178  11.354
 2917SOL    HW1 9494   3.906   3.194  11.358
 2917SOL    HW2 9495   0.009   3.084  11.372
 2918SOL     OW 9496   0.076   3.662  12.067
 2918SOL    HW1 9497   0.094   3.569  12.062
 2918SOL    HW2 9498   0.162   3.703  12.067
 2919SOL     OW 9499   0.506   3.423  12.090
 2919SOL    HW1 9500   0.571   3.491  12.109
 2919SOL    HW2 9501   0.549   3.366  12.026
 2920SOL     OW 9502   0.975   2.650  12.396
 2920SOL    HW1 9503   1.034   2.631  12.469
 2920SOL    HW2 9504   0.892   2.612  12.422
 2921SOL     OW 9505   0.038   2.423  12.281
 2921SOL    HW1 9506   0.120   2.400  12.238
 2921SOL    HW2 9507   0.057   2.419  12.375
 2922SOL     OW 9508   0.207   2.374  12.900
 2922SOL    HW1 9509   0.244   2.324  12.828
 2922SOL    HW2 9510   0.163   2.448  12.858
 2923SOL     OW 9511   1.379   2.797  12.829
 2923SOL    HW1 9512   1.401   2.890  12.825
 2923SOL    HW2 9513   1.376   2.770  12.737
 2924SOL     OW 9514   0.819   2.431  11.536
 2924SOL    HW1 9515   0.824   2.356  11.477
 2924SOL    HW2 9516   0.745   2.482  11.503
 2925SOL     OW 9517   1.633   2.465  12.356
 2925SOL    HW1 9518   1.622   2.410  12.433
 2925SOL    HW2 9519   1.720   2.441  12.322
 2926SOL     OW 9520   0.300   3.407  12.895
 2926SOL    HW1 9521   0.252   3.476  12.942
 2926SOL    HW2 9522   0.271   3.325  12.937
 2927SOL     OW 9523   0.711   2.310  12.427
 2927SOL    HW1 9524   0.656   2.236  12.399
 2927SOL    HW2 9525   0.704   2.373  12.356
 2928SOL     OW 9526   0.926   3.532  12.642
 2928SOL    HW1 9527   0.899   3.493  12.559
 2928SOL    HW2 9528   0.918   3.627  12.628
 2929SOL     OW 9529   0.452   2.350  11.369
 2929SOL    HW1 9530   0.517   2.418  11.387
 2929SOL    HW2 9531   0.373   2.399  11.346
 2930SOL     OW 9532   0.154   2.996  12.648
 2930SOL    HW1 9533   0.154   2.946  12.730
 2930SOL    HW2 9534   0.170   2.931  12.580
 2931SOL     OW 9535   1.323   2.906  12.392
 2931SOL    HW1 9536   1.344   2.842  12.323
 2931SOL    HW2 9537   1.255   2.962  12.353
 2932SOL     OW 9538   1.315   2.720  11.476
 2932SOL    HW1 9539   1.241   2.687  11.528
 2932SOL    HW2 9540   1.289   2.705  11.385
 2933SOL     OW 9541   1.774   3.599  12.324
 2933SOL    HW1 9542   1.836   3.627  12.257
 2933SOL    HW2 9543   1.752   3.509  12.300
 2934SOL     OW 9544   1.244   3.594  12.278
 2934SOL    HW1 9545   1.327   3.616  12.236
 2934SOL    HW2 9546   1.252   3.501  12.299
 2935SOL     OW 9547   0.077   3.075  12.200
 2935SOL    HW1 9548   0.084   3.103  12.292
 2935SOL    HW2 9549   3.985   3.088  12.178
 2936SOL     OW 9550   0.680   3.528  12.908
 2936SOL    HW1 9551   0.621   3.603  12.912
 2936SOL    HW2 9552   0.741   3.548  12.837
 2937SOL     OW 9553   1.391   3.431  11.661
 2937SOL    HW1 9554   1.450   3.465  11.593
 2937SOL    HW2 9555   1.342   3.507  11.691
 2938SOL     OW 9556   0.171   3.622  13.006
 2938SOL    HW1 9557   0.117   3.567  13.063
 2938SOL    HW2 9558   0.217   3.681  13.065
 2939SOL     OW 9559   1.278   2.789  11.843
 2939SOL    HW1 9560   1.352   2.729  11.852
 2939SOL    HW2 9561   1.312   2.861  11.790
 2940SOL     OW 9562   0.807   3.137  12.598
 2940SOL    HW1 9563   0.779   3.178  12.679
 2940SOL    HW2 9564   0.735   3.154  12.536
 2941SOL     OW 9565   0.674   3.480  11.331
 2941SOL    HW1 9566   0.684   3.498  11.237
 2941SOL    HW2 9567   0.615   3.405  11.335
 2942SOL     OW 9568   1.621   3.589  12.562
 2942SOL    HW1 9569   1.673   3.593  12.482
 2942SOL    HW2 9570   1.606   3.680  12.586
 2943SOL     OW 9571   0.265   2.174  11.887
 2943SOL    HW1 9572   0.178   2.205  11.862
 2943SOL    HW2 9573   0.260   2.165  11.982
 2944SOL     OW 9574   1.208   3.464  11.209
 2944SOL    HW1 9575   1.197   3.372  11.233
 2944SOL    HW2 9576   1.147   3.478  11.136
 2945SOL     OW 9577   0.823   2.868  12.547
 2945SOL    HW1 9578   0.867   2.862  12.462
 2945SOL    HW2 9579   0.820   2.962  12.566
 2946SOL     OW 9580   0.916   2.772  11.463
 2946SOL    HW1 9581   0.976   2.805  11.396
 2946SOL    HW2 9582   0.966   2.704  11.509
 2947SOL     OW 9583   1.489   3.492  11.215
 2947SOL    HW1 9584   1.395   3.481  11.199
 2947SOL    HW2 9585   1.528   3.498  11.128
 2948SOL     OW 9586   0.374   3.165  12.663
 2948SOL    HW1 9587   0.359   3.245  12.613
 2948SOL    HW2 9588   0.297   3.111  12.646
 2949SOL     OW 9589   1.609   3.146  12.452
 2949SOL    HW1 9590   1.668   3.131  12.525
 2949SOL    HW2 9591   1.548   3.213  12.483
 2950SOL     OW 9592   1.059   2.972  11.882
 2950SOL    HW1 9593   0.987   2.921  11.919
 2950SOL    HW2 9594   1.123   2.905  11.854
 2951SOL     OW 9595   1.024   2.104  12.139
 2951SOL    HW1 9596   1.020   2.057  12.055
 2951SOL    HW2 9597   1.019   2.035  12.205
 2952SOL     OW 9598   0.607   3.352  11.652
 2952SOL    HW1 9599   0.654   3.302  11.585
 2952SOL    HW2 9600   0.533   3.392  11.606
 2953SOL     OW 9601   1.733   2.241  12.546
 2953SOL    HW1 9602   1.801   2.309  12.552
 2953SOL    HW2 9603   1.774   2.170  12.496
 2954SOL     OW 9604   0.254   3.202  11.464
 2954SOL    HW1 9605   0.160   3.208  11.446
 2954SOL    HW2 9606   0.265   3.241  11.551
 2955SOL     OW 9607   0.108   2.859  12.889
 2955SOL    HW1 9608   0.049   2.854  12.964
 2955SOL    HW2 9609   0.195   2.842  12.927
 2956SOL     OW 9610   0.676   2.058  12.672
 2956SOL    HW1 9611   0.760   2.036  12.631
 2956SOL    HW2 9612   0.699   2.091  12.759
 2957SOL     OW 9613   0.081   2.173  11.209
 2957SOL    HW1 9614   3.985   2.174  11.218
 2957SOL    HW2 9615   0.101   2.254  11.163
 2958SOL     OW 9616   1.426   2.719  12.570
 2958SOL    HW1 9617   1.378   2.781  12.514
 2958SOL    HW2 9618   1.516   2.723  12.536
 2959SOL     OW 9619   0.016   2.103  11.550
 2959SOL    HW1 9620   0.045   2.167  11.485
 2959SOL    HW2 9621   0.096   2.061  11.581
 2960SOL     OW 9622   1.177   3.197  11.289
 2960SOL    HW1 9623   1.086   3.169  11.290
 2960SOL    HW2 9624   1.203   3.197  11.381
 2961SOL     OW 9625   0.620   2.692  12.609
 2961SOL    HW1 9626   0.677   2.768  12.594
 2961SOL    HW2 9627   0.681   2.619  12.616
 2962SOL     OW 9628   1.487   3.642  12.154
 2962SOL    HW1 9629   1.508   3.705  12.084
 2962SOL    HW2 9630   1.571   3.619  12.192
 2963SOL     OW 9631   0.716   2.423  12.875
 2963SOL    HW1 9632   0.762   2.483  12.933
 2963SOL    HW2 9633   0.739   2.336  12.907
 2964SOL     OW 9634   1.473   3.058  12.801
 2964SOL    HW1 9635   1.461   3.072  12.895
 2964SOL    HW2 9636   1.566   3.076  12.786
 2965SOL     OW 9637   0.377   3.609  12.732
 2965SOL    HW1 9638   0.289   3.645  12.719
 2965SOL    HW2 9639   0.363   3.526  12.776
 2966SOL     OW 9640   1.667   2.743  12.426
 2966SOL    HW1 9641   1.658   2.658  12.383
 2966SOL    HW2 9642   1.655   2.806  12.355
 2967SOL     OW 9643   1.217   2.182  11.630
 2967SOL    HW1 9644   1.279   2.109  11.623
 2967SOL    HW2 9645   1.246   2.231  11.706
 2968SOL     OW 9646   0.588   2.598  11.846
 2968SOL    HW1 9647   0.627   2.684  11.831
 2968SOL    HW2 9648   0.523   2.589  11.776
 2969SOL     OW 9649   1.751   2.242  12.823
 2969SOL    HW1 9650   1.743   2.244  12.728
 2969SOL    HW2 9651   1.686   2.177  12.851
 2970SOL     OW 9652   1.742   2.798  12.683
 2970SOL    HW1 9653   1.736   2.893  12.694
 2970SOL    HW2 9654   1.728   2.785  12.589
 2971SOL     OW 9655   0.866   3.228  11.214
 2971SOL    HW1 9656   0.824   3.256  11.296
 2971SOL    HW2 9657   0.879   3.309  11.165
 2972SOL     OW 9658   0.658   3.649  12.103
 2972SOL    HW1 9659   0.638   3.741  12.086
 2972SOL    HW2 9660   0.754   3.645  12.103
 2973SOL     OW 9661   0.870   2.831  12.025
 2973SOL    HW1 9662   0.919   2.759  12.063
 2973SOL    HW2 9663   0.832   2.877  12.100
 2974SOL     OW 9664   1.076   2.850  11.261
 2974SOL    HW1 9665   1.056   2.902  11.183
 2974SOL    HW2 9666   1.151   2.796  11.234
 2975SOL     OW 9667   1.848   3.411  12.012
 2975SOL    HW1 9668   1.768   3.402  11.962
 2975SOL    HW2 9669   1.837   3.351  12.087
 2976SOL     OW 9670   0.229   3.166  13.029
 2976SOL    HW1 9671   0.152   3.115  13.002
 2976SOL    HW2 9672   0.218   3.179  13.123
 2977SOL     OW 9673   0.119   3.143  11.896
 2977SOL    HW1 9674   0.139   3.092  11.974
 2977SOL    HW2 9675   0.104   3.078  11.828
 2978SOL     OW 9676   0.684   3.268  12.803
 2978SOL    HW1 9677   0.604   3.226  12.834
 2978SOL    HW2 9678   0.681   3.356  12.840
 2979SOL     OW 9679   0.440   2.295  11.707
 2979SOL    HW1 9680   0.441   2.226  11.641
 2979SOL    HW2 9681   0.385   2.262  11.777
 2980SOL     OW 9682   1.700   3.346  12.261
 2980SOL    HW1 9683   1.618   3.326  12.214
 2980SOL    HW2 9684   1.706   3.278  12.328
 2981SOL     OW 9685   0.336   2.421  12.464
 2981SOL    HW1 9686   0.389   2.363  12.519
 2981SOL    HW2 9687   0.350   2.389  12.375
 2982SOL     OW 9688   0.830   3.441  11.848
 2982SOL    HW1 9689   0.810   3.498  11.773
 2982SOL    HW2 9690   0.756   3.380  11.851
 2983SOL     OW 9691   1.434   2.091  12.293
 2983SOL    HW1 9692   1.438   2.003  12.328
 2983SOL    HW2 9693   1.381   2.140  12.356
 2984SOL     OW 9694   1.009   1.878  12.309
 2984SOL    HW1 9695   0.956   1.812  12.266
 2984SOL    HW2 9696   1.097   1.840  12.311
 2985SOL     OW 9697   0.773   3.194  11.493
 2985SOL    HW1 9698   0.745   3.103  11.499
 2985SOL    HW2 9699   0.856   3.197  11.541
 2986SOL     OW 9700   0.621   3.415  12.459
 2986SOL    HW1 9701   0.621   3.497  12.508
 2986SOL    HW2 9702   0.709   3.410  12.421
 2987SOL     OW 9703   1.354   1.912  11.342
 2987SOL    HW1 9704   1.385   1.847  11.279
 2987SOL    HW2 9705   1.265   1.884  11.364
 2988SOL     OW 9706   1.301   2.326  11.852
 2988SOL    HW1 9707   1.246   2.404  11.855
 2988SOL    HW2 9708   1.292   2.287  11.939
 2989SOL     OW 9709   1.575   2.055  12.051
 2989SOL    HW1 9710   1.535   2.083  12.133
 2989SOL    HW2 9711   1.586   2.136  12.002
 2990SOL     OW 9712   0.047   2.909  11.413
 2990SOL    HW1 9713   0.142   2.895  11.405
 2990SOL    HW2 9714   0.012   2.824  11.438
 2991SOL     OW 9715   0.887   3.523  11.513
 2991SOL    HW1 9716   0.815   3.504  11.453
 2991SOL    HW2 9717   0.856   3.597  11.565
 2992SOL     OW 9718   0.229   2.489  13.152
 2992SOL    HW1 9719   0.136   2.495  13.173
 2992SOL    HW2 9720   0.231   2.456  13.062
 2993SOL     OW 9721   0.286   2.135   0.129
 2993SOL    HW1 9722   0.332   2.206   0.173
 2993SOL    HW2 9723   0.202   2.173   0.103
 2994SOL     OW 9724   0.002   2.219  13.663
 2994SOL    HW1 9725   3.909   2.240  13.663
 2994SOL    HW2 9726   0.020   2.192  13.573
 2995SOL     OW 9727   1.519   3.356  13.730
 2995SOL    HW1 9728   1.467   3.284  13.764
 2995SOL    HW2 9729   1.476   3.381  13.648
 2996SOL     OW 9730   1.132   2.558  13.726
 2996SOL    HW1 9731   1.182   2.638  13.710
 2996SOL    HW2 9732   1.083   2.577  13.806
 2997SOL     OW 9733   1.794   2.460  13.257
 2997SOL    HW1 9734   1.760   2.458  13.167
 2997SOL    HW2 9735   1.746   2.391  13.302
 2998SOL     OW 9736   0.687   2.872  13.670
 2998SOL    HW1 9737   0.739   2.853  13.748
 2998SOL    HW2 9738   0.614   2.924  13.702
 2999SOL     OW 9739   1.606   2.300  13.731
 2999SOL    HW1 9740   1.513   2.314  13.713
 2999SOL    HW2 9741   1.622   2.348  13.813
 3000SOL     OW 9742   0.222   3.570  13.502
 3000SOL    HW1 9743   0.241   3.630  13.574
 3000SOL    HW2 9744   0.298   3.576  13.444
 3001SOL     OW 9745   0.251   3.302  13.571
 3001SOL    HW1 9746   0.225   3.393  13.560
 3001SOL    HW2 9747   0.186   3.266  13.633
 3002SOL     OW 9748   0.258   2.935   0.016
 3002SOL    HW1 9749   0.276   2.898   0.103
 3002SOL    HW2 9750   0.218   3.020   0.034
 3003SOL     OW 9751   0.574   2.849  13.171
 3003SOL    HW1 9752   0.623   2.893  13.102
 3003SOL    HW2 9753   0.615   2.879  13.253
 3004SOL     OW 9754   0.142   2.514  13.614
 3004SOL    HW1 9755   0.065   2.461  13.591
 3004SOL    HW2 9756   0.108   2.580  13.675
 3005SOL     OW 9757   1.847   3.606  13.372
 3005SOL    HW1 9758   1.915   3.585  13.436
 3005SOL    HW2 9759   1.863   3.698  13.350
 3006SOL     OW 9760   0.041   3.452  13.174
 3006SOL    HW1 9761   0.036   3.360  13.201
 3006SOL    HW2 9762   3.960   3.491  13.206
 3007SOL     OW 9763   1.687   2.778  13.668
 3007SOL    HW1 9764   1.770   2.741  13.640
 3007SOL    HW2 9765   1.661   2.836  13.595
 3008SOL     OW 9766   1.649   2.966  13.460
 3008SOL    HW1 9767   1.735   2.966  13.417
 3008SOL    HW2 9768   1.656   3.031  13.529
 3009SOL     OW 9769   0.617   3.246  13.759
 3009SOL    HW1 9770   0.565   3.168  13.778
 3009SOL    HW2 9771   0.585   3.277  13.674
 3010SOL     OW 9772   0.821   1.864  13.545
 3010SOL    HW1 9773   0.860   1.948  13.523
 3010SOL    HW2 9774   0.727   1.880  13.552
 3011SOL     OW 9775   1.530   2.859  13.234
 3011SOL    HW1 9776   1.461   2.802  13.266
 3011SOL    HW2 9777   1.571   2.894  13.313
 3012SOL     OW 9778   1.652   3.600  13.612
 3012SOL    HW1 9779   1.634   3.569  13.523
 3012SOL    HW2 9780   1.644   3.522  13.667
 3013SOL     OW 9781   0.593   2.577  13.299
 3013SOL    HW1 9782   0.599   2.662  13.255
 3013SOL    HW2 9783   0.531   2.591  13.369
 3014SOL     OW 9784   1.248   2.191   0.039
 3014SOL    HW1 9785   1.187   2.129   0.078
 3014SOL    HW2 9786   1.332   2.172   0.080
 3015SOL     OW 9787   1.578   3.542  13.340
 3015SOL    HW1 9788   1.671   3.561  13.335
 3015SOL    HW2 9789   1.553   3.522  13.250
 3016SOL     OW 9790   1.051   2.558  13.457
 3016SOL    HW1 9791   1.068   2.548  13.551
 3016SOL    HW2 9792   0.969   2.512  13.442
 3017SOL     OW 9793   0.082   2.707  13.805
 3017SOL    HW1 9794   0.160   2.691  13.858
 3017SOL    HW2 9795   0.076   2.803  13.801
 3018SOL     OW 9796   0.897   2.211  13.226
 3018SOL    HW1 9797   0.937   2.275  13.167
 3018SOL    HW2 9798   0.915   2.126  13.186
 3019SOL     OW 9799   1.364   2.997  13.550
 3019SOL    HW1 9800   1.454   2.997  13.515
 3019SOL    HW2 9801   1.321   3.068  13.503
 3020SOL     OW 9802   0.997   3.302  13.501
 3020SOL    HW1 9803   0.967   3.380  13.453
 3020SOL    HW2 9804   0.965   3.315  13.590
 3021SOL     OW 9805   0.421   3.680  13.800
 3021SOL    HW1 9806   0.415   3.587  13.823
 3021SOL    HW2 9807   0.471   3.720  13.871
 3022SOL     OW 9808   1.790   2.908  13.898
 3022SOL    HW1 9809   1.734   2.896  13.820
 3022SOL    HW2 9810   1.729   2.904   0.071
 3023SOL     OW 9811   0.311   2.815  13.277
 3023SOL    HW1 9812   0.393   2.838  13.233
 3023SOL    HW2 9813   0.298   2.722  13.257
 3024SOL     OW 9814   1.492   2.594  13.743
 3024SOL    HW1 9815   1.487   2.550  13.828
 3024SOL    HW2 9816   1.566   2.654  13.751
 3025SOL     OW 9817   1.113   3.644  13.253
 3025SOL    HW1 9818   1.049   3.599  13.308
 3025SOL    HW2 9819   1.144   3.577  13.192
 3026SOL     OW 9820   1.628   3.244  13.125
 3026SOL    HW1 9821   1.587   3.329  13.108
 3026SOL    HW2 9822   1.560   3.180  13.104
 3027SOL     OW 9823   0.465   3.602  13.353
 3027SOL    HW1 9824   0.504   3.661  13.417
 3027SOL    HW2 9825   0.539   3.573  13.299
 3028SOL     OW 9826   1.402   1.973  13.467
 3028SOL    HW1 9827   1.386   1.949  13.376
 3028SOL    HW2 9828   1.483   1.927  13.490
 3029SOL     OW 9829   0.927   3.545   0.009
 3029SOL    HW1 9830   0.941   3.476   0.074
 3029SOL    HW2 9831   0.887   3.500  13.834
 3030SOL     OW 9832   0.396   2.557  13.502
 3030SOL    HW1 9833   0.424   2.466  13.515
 3030SOL    HW2 9834   0.306   2.560  13.532
 3031SOL     OW 9835   0.647   1.978  13.129
 3031SOL    HW1 9836   0.705   1.905  13.151
 3031SOL    HW2 9837   0.596   1.947  13.055
 3032SOL     OW 9838   0.556   1.924  13.527
 3032SOL    HW1 9839   0.473   1.927  13.574
 3032SOL    HW2 9840   0.559   2.006  13.478
 3033SOL     OW 9841   1.428   3.062  13.074
 3033SOL    HW1 9842   1.457   2.986  13.125
 3033SOL    HW2 9843   1.342   3.083  13.110
 3034SOL     OW 9844   0.309   1.911  13.201
 3034SOL    HW1 9845   0.373   1.950  13.141
 3034SOL    HW2 9846   0.360   1.848  13.252
 3035SOL     OW 9847   0.942   2.109  13.492
 3035SOL    HW1 9848   0.912   2.150  13.410
 3035SOL    HW2 9849   1.036   2.126  13.495
 3036SOL     OW 9850   0.470   3.006  13.763
 3036SOL    HW1 9851   0.399   2.982  13.823
 3036SOL    HW2 9852   0.431   2.996  13.675
 3037SOL     OW 9853   1.265   3.658  13.629
 3037SOL    HW1 9854   1.312   3.726  13.580
 3037SOL    HW2 9855   1.196   3.705  13.676
 3038SOL     OW 9856   1.024   2.398  13.059
 3038SOL    HW1 9857   0.980   2.481  13.040
 3038SOL    HW2 9858   1.089   2.419  13.126
 3039SOL     OW 9859   0.897   2.331  13.675
 3039SOL    HW1 9860   0.830   2.379  13.627
 3039SOL    HW2 9861   0.904   2.247  13.629
 3040SOL     OW 9862   1.025   1.895  13.773
 3040SOL    HW1 9863   0.966   1.905  13.698
 3040SOL    HW2 9864   0.992   1.817  13.818
 3041SOL     OW 9865   1.846   2.672  13.420
 3041SOL    HW1 9866   1.906   2.624  13.477
 3041SOL    HW2 9867   1.822   2.610  13.351
 3042SOL     OW 9868   0.487   3.283  13.192
 3042SOL    HW1 9869   0.411   3.254  13.241
 3042SOL    HW2 9870   0.473   3.250  13.103
 3043SOL     OW 9871   1.685   3.136  13.659
 3043SOL    HW1 9872   1.778   3.133  13.685
 3043SOL    HW2 9873   1.651   3.215  13.700
 3044SOL     OW 9874   1.393   2.435  13.103
 3044SOL    HW1 9875   1.333   2.414  13.175
 3044SOL    HW2 9876   1.479   2.409  13.135
 3045SOL     OW 9877   0.573   2.130  13.348
 3045SOL    HW1 9878   0.607   2.082  13.273
 3045SOL    HW2 9879   0.544   2.213  13.312
 3046SOL     OW 9880   0.708   2.925  13.399
 3046SOL    HW1 9881   0.695   2.909  13.493
 3046SOL    HW2 9882   0.785   2.872  13.377
 3047SOL     OW 9883   0.367   2.965  13.513
 3047SOL    HW1 9884   0.364   3.048  13.464
 3047SOL    HW2 9885   0.366   2.897  13.445
 3048SOL     OW 9886   0.567   2.407  13.871
 3048SOL    HW1 9887   0.575   2.469  13.799
 3048SOL    HW2 9888   0.635   2.433   0.033
 3049SOL     OW 9889   1.244   3.215  13.418
 3049SOL    HW1 9890   1.299   3.289  13.446
 3049SOL    HW2 9891   1.158   3.235  13.454
 3050SOL     OW 9892   1.577   2.497  13.490
 3050SOL    HW1 9893   1.536   2.524  13.572
 3050SOL    HW2 9894   1.619   2.576  13.457
 3051SOL     OW 9895   1.200   2.389  13.296
 3051SOL    HW1 9896   1.208   2.311  13.351
 3051SOL    HW2 9897   1.158   2.454  13.352
 3052SOL     OW 9898   0.305   1.920  13.640
 3052SOL    HW1 9899   0.292   2.011  13.667
 3052SOL    HW2 9900   0.326   1.874  13.721
 3053SOL     OW 9901   1.614   2.245  13.405
 3053SOL    HW1 9902   1.599   2.190  13.482
 3053SOL    HW2 9903   1.593   2.333  13.434
 3054SOL     OW 9904   1.530   2.131  13.163
 3054SOL    HW1 9905   1.463   2.068  13.190
 3054SOL    HW2 9906   1.562   2.170  13.244
 3055SOL     OW 9907   1.286   2.687  13.061
 3055SOL    HW1 9908   1.330   2.601  13.066
 3055SOL    HW2 9909   1.319   2.726  12.980
 3056SOL     OW 9910   4.000   3.178  13.214
 3056SOL    HW1 9911   3.905   3.195  13.219
 3056SOL    HW2 9912   0.009   3.085  13.231
 3057SOL     OW 9913   0.819   2.434  13.389
 3057SOL    HW1 9914   0.822   2.356  13.334
 3057SOL    HW2 9915   0.742   2.482  13.359
 3058SOL     OW 9916   0.451   2.350  13.228
 3058SOL    HW1 9917   0.517   2.418  13.247
 3058SOL    HW2 9918   0.372   2.399  13.207
 3059SOL     OW 9919   1.316   2.716  13.336
 3059SOL    HW1 9920   1.241   2.688  13.388
 3059SOL    HW2 9921   1.288   2.702  13.245
 3060SOL     OW 9922   1.383   3.438  13.507
 3060SOL    HW1 9923   1.442   3.476  13.443
 3060SOL    HW2 9924   1.336   3.512  13.545
 3061SOL     OW 9925   1.290   2.775  13.685
 3061SOL    HW1 9926   1.366   2.719  13.672
 3061SOL    HW2 9927   1.313   2.857  13.641
 3062SOL     OW 9928   0.674   3.481  13.192
 3062SOL    HW1 9929   0.684   3.498  13.098
 3062SOL    HW2 9930   0.615   3.406  13.197
 3063SOL     OW 9931   0.284   2.172  13.737
 3063SOL    HW1 9932   0.200   2.217  13.723
 3063SOL    HW2 9933   0.294   2.169  13.832
 3064SOL     OW 9934   1.209   3.464  13.070
 3064SOL    HW1 9935   1.198   3.372  13.094
 3064SOL    HW2 9936   1.147   3.478  12.998
 3065SOL     OW 9937   0.919   2.774  13.329
 3065SOL    HW1 9938   0.977   2.805  13.260
 3065SOL    HW2 9939   0.966   2.702  13.371
 3066SOL     OW 9940   1.489   3.492  13.077
 3066SOL    HW1 9941   1.395   3.480  13.061
 3066SOL    HW2 9942   1.528   3.497  12.989
 3067SOL     OW 9943   1.050   2.953  13.756
 3067SOL    HW1 9944   0.965   2.915  13.736
 3067SOL    HW2 9945   1.108   2.916  13.689
 3068SOL     OW 9946   0.601   3.357  13.503
 3068SOL    HW1 9947   0.648   3.305  13.438
 3068SOL    HW2 9948   0.529   3.396  13.455
 3069SOL     OW 9949   0.253   3.201  13.324
 3069SOL    HW1 9950   0.159   3.208  13.305
 3069SOL    HW2 9951   0.263   3.239  13.411
 3070SOL     OW 9952   0.080   2.171  13.071
 3070SOL    HW1 9953   3.985   2.172  13.080
 3070SOL    HW2 9954   0.101   2.253  13.025
 3071SOL     OW 9955   0.018   2.108  13.413
 3071SOL    HW1 9956   0.049   2.167  13.344
 3071SOL    HW2 9957   0.095   2.057  13.437
 3072SOL     OW 9958   1.177   3.197  13.149
 3072SOL    HW1 9959   1.085   3.169  13.150
 3072SOL    HW2 9960   1.203   3.198  13.241
 3073SOL     OW 9961   1.216   2.182  13.489
 3073SOL    HW1 9962   1.279   2.110  13.482
 3073SOL    HW2 9963   1.245   2.231  13.566
 3074SOL     OW 9964   0.593   2.610  13.691
 3074SOL    HW1 9965   0.627   2.698  13.673
 3074SOL    HW2 9966   0.523   2.598  13.626
 3075SOL     OW 9967   0.866   3.227  13.075
 3075SOL    HW1 9968   0.825   3.254  13.157
 3075SOL    HW2 9969   0.878   3.309  13.027
 3076SOL     OW 9970   0.656   3.717   0.071
 3076SOL    HW1 9971   0.655   3.809   0.094
 3076SOL    HW2 9972   0.748   3.691   0.078
 3077SOL     OW 9973   0.823   2.828  13.899
 3077SOL    HW1 9974   0.848   2.742   0.035
 3077SOL    HW2 9975   0.863   2.891   0.058
 3078SOL     OW 9976   1.075   2.848  13.122
 3078SOL    HW1 9977   1.055   2.901  13.045
 3078SOL    HW2 9978   1.150   2.795  13.096
 3079SOL     OW 9979   0.115   3.139  13.763
 3079SOL    HW1 9980   0.048   3.102  13.820
 3079SOL    HW2 9981   0.118   3.080  13.688
 3080SOL     OW 9982   0.449   2.301  13.556
 3080SOL    HW1 9983   0.458   2.227  13.495
 3080SOL    HW2 9984   0.403   2.264  13.632
 3081SOL     OW 9985   1.680   3.315   0.352
 3081SOL    HW1 9986   1.649   3.295   0.263
 3081SOL    HW2 9987   1.771   3.286   0.353
 3082SOL     OW 9988   0.820   3.414  13.702
 3082SOL    HW1 9989   0.786   3.463  13.627
 3082SOL    HW2 9990   0.749   3.354  13.725
 3083SOL     OW 9991   0.773   3.195  13.349
 3083SOL    HW1 9992   0.745   3.104  13.358
 3083SOL    HW2 9993   0.853   3.201  13.401
 3084SOL     OW 9994   1.353   1.912  13.203
 3084SOL    HW1 9995   1.383   1.849  13.138
 3084SOL    HW2 9996   1.265   1.884  13.225
 3085SOL     OW 9997   1.305   2.324  13.709
 3085SOL    HW1 9998   1.253   2.404  13.713
 3085SOL    HW2 9999   1.285   2.277  13.790
 3086SOL     OW10000   0.047   2.910  13.270
 3086SOL    HW110001   0.142   2.895  13.263
 3086SOL    HW210002   0.012   2.825  13.298
 3087SOL     OW10003   0.888   3.523  13.375
 3087SOL    HW110004   0.815   3.505  13.316
 3087SOL    HW210005   0.858   3.595  13.430
 3088SOL     OW10006   0.233   3.940   0.961
 3088SOL    HW110007   0.255   3.957   1.053
 3088SOL    HW210008   0.140   3.960   0.955
 3089SOL     OW10009   0.015   0.102   0.629
 3089SOL    HW110010   3.926   0.082   0.660
 3089SOL    HW210011   0.023   0.053   0.547
 3090SOL     OW10012   1.809   0.355   0.275
 3090SOL    HW110013   1.788   0.303   0.198
 3090SOL    HW210014   1.726   0.363   0.322
 3091SOL     OW10015   0.440   0.095   1.508
 3091SOL    HW110016   0.511   0.057   1.458
 3091SOL    HW210017   0.363   0.043   1.486
 3092SOL     OW10018   1.594   3.850   1.459
 3092SOL    HW110019   1.604   3.936   1.417
 3092SOL    HW210020   1.577   3.870   1.551
 3093SOL     OW10021   0.808   3.727   0.510
 3093SOL    HW110022   0.835   3.818   0.500
 3093SOL    HW210023   0.712   3.731   0.518
 3094SOL     OW10024   1.267   0.062   0.934
 3094SOL    HW110025   1.193   0.009   0.905
 3094SOL    HW210026   1.323   0.002   0.984
 3095SOL     OW10027   0.556   3.904   0.892
 3095SOL    HW110028   0.553   3.926   0.985
 3095SOL    HW210029   0.550   3.989   0.847
 3096SOL     OW10030   0.190   3.976   1.498
 3096SOL    HW110031   0.101   0.011   1.503
 3096SOL    HW210032   0.186   3.892   1.543
 3097SOL     OW10033   1.410   3.836   0.434
 3097SOL    HW110034   1.406   3.795   0.348
 3097SOL    HW210035   1.503   3.830   0.460
 3098SOL     OW10036   1.533   3.937   1.720
 3098SOL    HW110037   1.558   3.940   1.813
 3098SOL    HW210038   1.462   3.873   1.717
 3099SOL     OW10039   0.772   3.953   1.741
 3099SOL    HW110040   0.827   3.926   1.815
 3099SOL    HW210041   0.686   3.970   1.781
 3100SOL     OW10042   0.536   3.782   0.517
 3100SOL    HW110043   0.483   3.780   0.597
 3100SOL    HW210044   0.545   3.875   0.496
 3101SOL     OW10045   0.264   3.735   0.179
 3101SOL    HW110046   0.298   3.824   0.170
 3101SOL    HW210047   0.335   3.687   0.223
 3102SOL     OW10048   0.563   3.945   1.169
 3102SOL    HW110049   0.606   3.876   1.220
 3102SOL    HW210050   0.471   3.941   1.196
 3103SOL     OW10051   1.021   3.766   0.729
 3103SOL    HW110052   0.955   3.755   0.661
 3103SOL    HW210053   0.998   3.703   0.797
 3104SOL     OW10054   0.925   3.801   1.396
 3104SOL    HW110055   0.954   3.780   1.307
 3104SOL    HW210056   0.998   3.849   1.435
 3105SOL     OW10057   1.267   0.072   1.266
 3105SOL    HW110058   1.277   0.142   1.331
 3105SOL    HW210059   1.199   0.104   1.207
 3106SOL     OW10060   0.508   3.751   1.758
 3106SOL    HW110061   0.453   3.706   1.693
 3106SOL    HW210062   0.480   3.842   1.754
 3107SOL     OW10063   0.303   3.924   1.255
 3107SOL    HW110064   0.256   3.941   1.336
 3107SOL    HW210065   0.289   3.831   1.238
 3108SOL     OW10066   1.598   3.935   0.159
 3108SOL    HW110067   1.518   3.881   0.158
 3108SOL    HW210068   1.568   0.021   0.186
 3109SOL     OW10069   1.163   3.920   1.473
 3109SOL    HW110070   1.166   3.995   1.532
 3109SOL    HW210071   1.207   3.950   1.394
 3110SOL     OW10072   0.925   3.826   0.149
 3110SOL    HW110073   0.953   3.817   0.058
 3110SOL    HW210074   0.985   3.770   0.198
 3111SOL     OW10075   1.704   3.856   0.510
 3111SOL    HW110076   1.783   3.846   0.457
 3111SOL    HW210077   1.695   3.772   0.555
 3112SOL     OW10078   1.836   3.877   0.972
 3112SOL    HW110079   1.871   3.795   0.939
 3112SOL    HW210080   1.757   3.892   0.921
 3113SOL     OW10081   0.679   3.908   1.487
 3113SOL    HW110082   0.762   3.898   1.441
 3113SOL    HW210083   0.703   3.930   1.577
 3114SOL     OW10084   0.041   0.009   0.039
 3114SOL    HW110085   3.953   0.016   0.003
 3114SOL    HW210086   0.084   0.091   0.013
 3115SOL     OW10087   0.122   3.934   0.378
 3115SOL    HW110088   0.072   3.975   0.307
 3115SOL    HW210089   0.167   3.860   0.335
 3116SOL     OW10090   1.195   0.011   0.462
 3116SOL    HW110091   1.254   3.937   0.468
 3116SOL    HW210092   1.213   0.062   0.541
 3117SOL     OW10093   1.786   0.038   1.639
 3117SOL    HW110094   1.758   0.074   1.555
 3117SOL    HW210095   1.707   3.999   1.676
 3118SOL     OW10096   1.816   3.912   1.239
 3118SOL    HW110097   1.821   3.822   1.269
 3118SOL    HW210098   1.822   3.906   1.144
 3119SOL     OW10099   1.439   3.932   1.116
 3119SOL    HW110100   1.471   3.853   1.161
 3119SOL    HW210101   1.381   3.973   1.180
 3120SOL     OW10102   1.018   3.737   1.146
 3120SOL    HW110103   0.960   3.683   1.092
 3120SOL    HW210104   1.103   3.693   1.141
 3121SOL     OW10105   1.354   3.783   0.151
 3121SOL    HW110106   1.394   3.710   0.102
 3121SOL    HW210107   1.271   3.748   0.182
 3122SOL     OW10108   1.283   0.163   0.678
 3122SOL    HW110109   1.282   0.258   0.687
 3122SOL    HW210110   1.287   0.131   0.768
 3123SOL     OW10111   1.580   3.926   0.881
 3123SOL    HW110112   1.531   3.931   0.963
 3123SOL    HW210113   1.581   0.015   0.847
 3124SOL     OW10114   0.235   3.943   2.821
 3124SOL    HW110115   0.257   3.958   2.913
 3124SOL    HW210116   0.141   3.960   2.816
 3125SOL     OW10117   0.008   0.107   2.483
 3125SOL    HW110118   3.923   0.087   2.523
 3125SOL    HW210119   0.014   0.046   2.409
 3126SOL     OW10120   1.777   0.318   2.050
 3126SOL    HW110121   1.704   0.294   1.992
 3126SOL    HW210122   1.735   0.338   2.133
 3127SOL     OW10123   0.440   0.095   3.370
 3127SOL    HW110124   0.511   0.057   3.320
 3127SOL    HW210125   0.363   0.043   3.348
 3128SOL     OW10126   1.594   3.850   3.321
 3128SOL    HW110127   1.604   3.936   3.279
 3128SOL    HW210128   1.577   3.870   3.413
 3129SOL     OW10129   0.806   3.730   2.370
 3129SOL    HW110130   0.833   3.822   2.363
 3129SOL    HW210131   0.711   3.732   2.378
 3130SOL     OW10132   1.266   0.062   2.800
 3130SOL    HW110133   1.194   0.008   2.768
 3130SOL    HW210134   1.322   0.001   2.847
 3131SOL     OW10135   0.556   3.905   2.754
 3131SOL    HW110136   0.553   3.925   2.848
 3131SOL    HW210137   0.552   3.991   2.711
 3132SOL     OW10138   0.190   3.976   3.360
 3132SOL    HW110139   0.101   0.011   3.365
 3132SOL    HW210140   0.186   3.892   3.405
 3133SOL     OW10141   1.408   3.830   2.297
 3133SOL    HW110142   1.399   3.798   2.207
 3133SOL    HW210143   1.502   3.825   2.316
 3134SOL     OW10144   1.533   3.937   3.582
 3134SOL    HW110145   1.558   3.940   3.675
 3134SOL    HW210146   1.462   3.873   3.579
 3135SOL     OW10147   0.629   3.850   1.990
 3135SOL    HW110148   0.719   3.820   1.989
 3135SOL    HW210149   0.586   3.800   1.920
 3136SOL     OW10150   0.771   3.953   3.603
 3136SOL    HW110151   0.827   3.926   3.677
 3136SOL    HW210152   0.686   3.970   3.643
 3137SOL     OW10153   0.536   3.785   2.378
 3137SOL    HW110154   0.485   3.785   2.458
 3137SOL    HW210155   0.543   3.877   2.353
 3138SOL     OW10156   0.287   3.760   2.038
 3138SOL    HW110157   0.326   3.847   2.034
 3138SOL    HW210158   0.353   3.706   2.081
 3139SOL     OW10159   0.563   3.944   3.031
 3139SOL    HW110160   0.606   3.877   3.083
 3139SOL    HW210161   0.471   3.941   3.058
 3140SOL     OW10162   1.021   3.766   2.592
 3140SOL    HW110163   0.955   3.753   2.523
 3140SOL    HW210164   0.997   3.702   2.660
 3141SOL     OW10165   0.925   3.801   3.258
 3141SOL    HW110166   0.954   3.780   3.169
 3141SOL    HW210167   0.998   3.849   3.297
 3142SOL     OW10168   1.267   0.072   3.128
 3142SOL    HW110169   1.277   0.142   3.193
 3142SOL    HW210170   1.200   0.104   3.068
 3143SOL     OW10171   0.508   3.751   3.619
 3143SOL    HW110172   0.453   3.706   3.555
 3143SOL    HW210173   0.480   3.842   3.616
 3144SOL     OW10174   0.303   3.924   3.116
 3144SOL    HW110175   0.256   3.941   3.198
 3144SOL    HW210176   0.289   3.831   3.100
 3145SOL     OW10177   1.577   3.952   1.981
 3145SOL    HW110178   1.518   3.896   2.031
 3145SOL    HW210179   1.611   0.014   2.045
 3146SOL     OW10180   1.163   3.920   3.335
 3146SOL    HW110181   1.166   3.995   3.394
 3146SOL    HW210182   1.207   3.950   3.256
 3147SOL     OW10183   0.901   3.811   1.962
 3147SOL    HW110184   0.958   3.765   1.900
 3147SOL    HW210185   0.943   3.799   2.047
 3148SOL     OW10186   1.706   3.855   2.354
 3148SOL    HW110187   1.786   3.842   2.302
 3148SOL    HW210188   1.697   3.774   2.404
 3149SOL     OW10189   1.836   3.877   2.835
 3149SOL    HW110190   1.871   3.795   2.802
 3149SOL    HW210191   1.757   3.893   2.784
 3150SOL     OW10192   0.679   3.908   3.349
 3150SOL    HW110193   0.762   3.898   3.303
 3150SOL    HW210194   0.703   3.930   3.439
 3151SOL     OW10195   0.072   0.020   1.853
 3151SOL    HW110196   3.977   0.022   1.864
 3151SOL    HW210197   0.100   0.109   1.873
 3152SOL     OW10198   0.108   3.920   2.234
 3152SOL    HW110199   0.081   0.003   2.194
 3152SOL    HW210200   0.188   3.896   2.187
 3153SOL     OW10201   1.198   0.012   2.325
 3153SOL    HW110202   1.263   3.942   2.327
 3153SOL    HW210203   1.215   0.065   2.403
 3154SOL     OW10204   1.786   0.038   3.501
 3154SOL    HW110205   1.759   0.074   3.417
 3154SOL    HW210206   1.707   3.999   3.538
 3155SOL     OW10207   1.815   3.912   3.102
 3155SOL    HW110208   1.821   3.822   3.132
 3155SOL    HW210209   1.822   3.906   3.006
 3156SOL     OW10210   1.440   3.930   2.979
 3156SOL    HW110211   1.472   3.853   3.025
 3156SOL    HW210212   1.382   3.973   3.042
 3157SOL     OW10213   1.017   3.736   3.008
 3157SOL    HW110214   0.960   3.682   2.954
 3157SOL    HW210215   1.103   3.693   3.003
 3158SOL     OW10216   1.354   3.770   2.027
 3158SOL    HW110217   1.389   3.701   1.970
 3158SOL    HW210218   1.266   3.740   2.050
 3159SOL     OW10219   1.280   0.162   2.543
 3159SOL    HW110220   1.284   0.258   2.549
 3159SOL    HW210221   1.285   0.133   2.634
 3160SOL     OW10222   1.580   3.925   2.743
 3160SOL    HW110223   1.531   3.931   2.825
 3160SOL    HW210224   1.581   0.015   2.709
 3161SOL     OW10225   0.235   3.943   4.683
 3161SOL    HW110226   0.257   3.958   4.775
 3161SOL    HW210227   0.141   3.960   4.678
 3162SOL     OW10228   0.008   0.107   4.345
 3162SOL    HW110229   3.923   0.087   4.385
 3162SOL    HW210230   0.014   0.047   4.271
 3163SOL     OW10231   1.777   0.318   3.912
 3163SOL    HW110232   1.704   0.294   3.854
 3163SOL    HW210233   1.735   0.338   3.995
 3164SOL     OW10234   0.440   0.095   5.233
 3164SOL    HW110235   0.511   0.057   5.182
 3164SOL    HW210236   0.363   0.043   5.210
 3165SOL     OW10237   1.594   3.850   5.183
 3165SOL    HW110238   1.604   3.936   5.141
 3165SOL    HW210239   1.577   3.870   5.275
 3166SOL     OW10240   0.806   3.730   4.232
 3166SOL    HW110241   0.833   3.822   4.225
 3166SOL    HW210242   0.711   3.732   4.240
 3167SOL     OW10243   1.266   0.062   4.662
 3167SOL    HW110244   1.194   0.008   4.630
 3167SOL    HW210245   1.322   0.001   4.709
 3168SOL     OW10246   0.556   3.905   4.616
 3168SOL    HW110247   0.553   3.925   4.710
 3168SOL    HW210248   0.551   3.990   4.573
 3169SOL     OW10249   0.190   3.976   5.222
 3169SOL    HW110250   0.101   0.011   5.227
 3169SOL    HW210251   0.186   3.892   5.267
 3170SOL     OW10252   1.408   3.830   4.159
 3170SOL    HW110253   1.399   3.798   4.069
 3170SOL    HW210254   1.502   3.825   4.178
 3171SOL     OW10255   1.533   3.937   5.444
 3171SOL    HW110256   1.558   3.940   5.537
 3171SOL    HW210257   1.462   3.873   5.441
 3172SOL     OW10258   0.629   3.850   3.852
 3172SOL    HW110259   0.719   3.820   3.851
 3172SOL    HW210260   0.586   3.800   3.782
 3173SOL     OW10261   0.771   3.953   5.465
 3173SOL    HW110262   0.827   3.926   5.539
 3173SOL    HW210263   0.686   3.970   5.505
 3174SOL     OW10264   0.536   3.785   4.240
 3174SOL    HW110265   0.484   3.785   4.320
 3174SOL    HW210266   0.543   3.877   4.215
 3175SOL     OW10267   0.287   3.760   3.900
 3175SOL    HW110268   0.326   3.847   3.896
 3175SOL    HW210269   0.353   3.706   3.943
 3176SOL     OW10270   0.563   3.944   4.893
 3176SOL    HW110271   0.606   3.876   4.945
 3176SOL    HW210272   0.471   3.941   4.920
 3177SOL     OW10273   1.021   3.766   4.454
 3177SOL    HW110274   0.955   3.753   4.385
 3177SOL    HW210275   0.997   3.702   4.522
 3178SOL     OW10276   0.925   3.801   5.120
 3178SOL    HW110277   0.954   3.780   5.031
 3178SOL    HW210278   0.998   3.849   5.159
 3179SOL     OW10279   1.267   0.072   4.990
 3179SOL    HW110280   1.277   0.142   5.055
 3179SOL    HW210281   1.200   0.104   4.930
 3180SOL     OW10282   0.508   3.751   5.482
 3180SOL    HW110283   0.453   3.706   5.417
 3180SOL    HW210284   0.480   3.842   5.478
 3181SOL     OW10285   0.303   3.924   4.979
 3181SOL    HW110286   0.256   3.941   5.060
 3181SOL    HW210287   0.289   3.831   4.962
 3182SOL     OW10288   1.577   3.952   3.843
 3182SOL    HW110289   1.518   3.896   3.893
 3182SOL    HW210290   1.611   0.014   3.907
 3183SOL     OW10291   1.164   3.920   5.197
 3183SOL    HW110292   1.166   3.996   5.256
 3183SOL    HW210293   1.207   3.950   5.117
 3184SOL     OW10294   0.901   3.811   3.824
 3184SOL    HW110295   0.958   3.765   3.763
 3184SOL    HW210296   0.943   3.799   3.909
 3185SOL     OW10297   1.706   3.855   4.216
 3185SOL    HW110298   1.785   3.842   4.164
 3185SOL    HW210299   1.697   3.774   4.266
 3186SOL     OW10300   1.836   3.877   4.697
 3186SOL    HW110301   1.871   3.795   4.664
 3186SOL    HW210302   1.757   3.893   4.646
 3187SOL     OW10303   0.679   3.908   5.211
 3187SOL    HW110304   0.763   3.898   5.165
 3187SOL    HW210305   0.703   3.930   5.301
 3188SOL     OW10306   0.072   0.020   3.714
 3188SOL    HW110307   3.977   0.022   3.726
 3188SOL    HW210308   0.100   0.109   3.735
 3189SOL     OW10309   0.108   3.920   4.096
 3189SOL    HW110310   0.081   0.003   4.056
 3189SOL    HW210311   0.188   3.896   4.049
 3190SOL     OW10312   1.197   0.012   4.187
 3190SOL    HW110313   1.263   3.942   4.189
 3190SOL    HW210314   1.215   0.065   4.265
 3191SOL     OW10315   1.786   0.038   5.363
 3191SOL    HW110316   1.759   0.074   5.279
 3191SOL    HW210317   1.706   3.999   5.399
 3192SOL     OW10318   1.815   3.912   4.964
 3192SOL    HW110319   1.821   3.822   4.994
 3192SOL    HW210320   1.821   3.906   4.868
 3193SOL     OW10321   1.440   3.930   4.841
 3193SOL    HW110322   1.472   3.853   4.887
 3193SOL    HW210323   1.382   3.973   4.904
 3194SOL     OW10324   1.017   3.736   4.870
 3194SOL    HW110325   0.960   3.682   4.816
 3194SOL    HW210326   1.103   3.693   4.865
 3195SOL     OW10327   1.354   3.770   3.889
 3195SOL    HW110328   1.389   3.701   3.832
 3195SOL    HW210329   1.266   3.740   3.912
 3196SOL     OW10330   1.280   0.162   4.405
 3196SOL    HW110331   1.284   0.258   4.411
 3196SOL    HW210332   1.285   0.133   4.496
 3197SOL     OW10333   1.580   3.925   4.605
 3197SOL    HW110334   1.531   3.931   4.687
 3197SOL    HW210335   1.581   0.015   4.571
 3198SOL     OW10336   0.234   3.943   6.545
 3198SOL    HW110337   0.257   3.958   6.636
 3198SOL    HW210338   0.140   3.961   6.540
 3199SOL     OW10339   0.008   0.107   6.207
 3199SOL    HW110340   3.923   0.087   6.247
 3199SOL    HW210341   0.014   0.047   6.133
 3200SOL     OW10342   1.777   0.318   5.774
 3200SOL    HW110343   1.704   0.294   5.716
 3200SOL    HW210344   1.735   0.338   5.858
 3201SOL     OW10345   0.440   0.096   7.095
 3201SOL    HW110346   0.511   0.058   7.044
 3201SOL    HW210347   0.363   0.043   7.072
 3202SOL     OW10348   1.594   3.850   7.045
 3202SOL    HW110349   1.605   3.936   7.003
 3202SOL    HW210350   1.576   3.870   7.137
 3203SOL     OW10351   0.806   3.730   6.094
 3203SOL    HW110352   0.833   3.821   6.087
 3203SOL    HW210353   0.711   3.732   6.102
 3204SOL     OW10354   1.266   0.062   6.524
 3204SOL    HW110355   1.193   0.008   6.492
 3204SOL    HW210356   1.322   0.001   6.571
 3205SOL     OW10357   0.556   3.905   6.478
 3205SOL    HW110358   0.553   3.925   6.572
 3205SOL    HW210359   0.551   3.990   6.435
 3206SOL     OW10360   0.190   3.976   7.084
 3206SOL    HW110361   0.101   0.011   7.089
 3206SOL    HW210362   0.185   3.891   7.129
 3207SOL     OW10363   1.408   3.830   6.021
 3207SOL    HW110364   1.399   3.798   5.931
 3207SOL    HW210365   1.502   3.825   6.039
 3208SOL     OW10366   1.533   3.937   7.307
 3208SOL    HW110367   1.559   3.939   7.399
 3208SOL    HW210368   1.462   3.873   7.303
 3209SOL     OW10369   0.628   3.850   5.714
 3209SOL    HW110370   0.719   3.820   5.713
 3209SOL    HW210371   0.586   3.800   5.644
 3210SOL     OW10372   0.772   3.953   7.327
 3210SOL    HW110373   0.827   3.926   7.401
 3210SOL    HW210374   0.686   3.971   7.367
 3211SOL     OW10375   0.536   3.785   6.101
 3211SOL    HW110376   0.484   3.785   6.182
 3211SOL    HW210377   0.543   3.877   6.077
 3212SOL     OW10378   0.286   3.760   5.763
 3212SOL    HW110379   0.326   3.847   5.758
 3212SOL    HW210380   0.353   3.706   5.805
 3213SOL     OW10381   0.563   3.944   6.755
 3213SOL    HW110382   0.606   3.876   6.807
 3213SOL    HW210383   0.471   3.941   6.782
 3214SOL     OW10384   1.021   3.765   6.316
 3214SOL    HW110385   0.955   3.753   6.247
 3214SOL    HW210386   0.997   3.702   6.384
 3215SOL     OW10387   0.925   3.801   6.982
 3215SOL    HW110388   0.954   3.780   6.893
 3215SOL    HW210389   0.998   3.849   7.021
 3216SOL     OW10390   1.267   0.072   6.852
 3216SOL    HW110391   1.278   0.142   6.917
 3216SOL    HW210392   1.201   0.105   6.792
 3217SOL     OW10393   0.508   3.751   7.344
 3217SOL    HW110394   0.453   3.706   7.279
 3217SOL    HW210395   0.480   3.842   7.340
 3218SOL     OW10396   0.303   3.924   6.840
 3218SOL    HW110397   0.256   3.941   6.922
 3218SOL    HW210398   0.289   3.831   6.823
 3219SOL     OW10399   1.577   3.951   5.704
 3219SOL    HW110400   1.518   3.896   5.755
 3219SOL    HW210401   1.612   0.014   5.769
 3220SOL     OW10402   1.164   3.920   7.060
 3220SOL    HW110403   1.165   3.996   7.118
 3220SOL    HW210404   1.207   3.950   6.980
 3221SOL     OW10405   0.901   3.811   5.686
 3221SOL    HW110406   0.958   3.765   5.624
 3221SOL    HW210407   0.943   3.799   5.771
 3222SOL     OW10408   1.706   3.855   6.078
 3222SOL    HW110409   1.785   3.843   6.026
 3222SOL    HW210410   1.698   3.774   6.128
 3223SOL     OW10411   1.836   3.877   6.560
 3223SOL    HW110412   1.871   3.795   6.525
 3223SOL    HW210413   1.757   3.893   6.508
 3224SOL     OW10414   0.679   3.908   7.073
 3224SOL    HW110415   0.762   3.898   7.027
 3224SOL    HW210416   0.703   3.930   7.163
 3225SOL     OW10417   0.072   0.020   5.577
 3225SOL    HW110418   3.977   0.022   5.588
 3225SOL    HW210419   0.100   0.109   5.597
 3226SOL     OW10420   0.108   3.920   5.958
 3226SOL    HW110421   0.081   0.003   5.918
 3226SOL    HW210422   0.188   3.895   5.911
 3227SOL     OW10423   1.197   0.012   6.049
 3227SOL    HW110424   1.263   3.942   6.051
 3227SOL    HW210425   1.215   0.065   6.127
 3228SOL     OW10426   1.787   0.036   7.225
 3228SOL    HW110427   1.759   0.075   7.142
 3228SOL    HW210428   1.707   3.999   7.262
 3229SOL     OW10429   1.816   3.912   6.826
 3229SOL    HW110430   1.821   3.821   6.856
 3229SOL    HW210431   1.822   3.906   6.730
 3230SOL     OW10432   1.439   3.930   6.703
 3230SOL    HW110433   1.472   3.853   6.750
 3230SOL    HW210434   1.381   3.973   6.766
 3231SOL     OW10435   1.017   3.736   6.732
 3231SOL    HW110436   0.960   3.682   6.678
 3231SOL    HW210437   1.103   3.693   6.727
 3232SOL     OW10438   1.354   3.770   5.751
 3232SOL    HW110439   1.389   3.701   5.694
 3232SOL    HW210440   1.266   3.740   5.774
 3233SOL     OW10441   1.280   0.162   6.268
 3233SOL    HW110442   1.284   0.258   6.273
 3233SOL    HW210443   1.285   0.133   6.358
 3234SOL     OW10444   1.580   3.925   6.467
 3234SOL    HW110445   1.531   3.932   6.549
 3234SOL    HW210446   1.581   0.015   6.433
 3235SOL     OW10447   0.234   3.943   8.406
 3235SOL    HW110448   0.257   3.958   8.498
 3235SOL    HW210449   0.140   3.961   8.402
 3236SOL     OW10450   0.008   0.107   8.069
 3236SOL    HW110451   3.923   0.087   8.109
 3236SOL    HW210452   0.015   0.047   7.995
 3237SOL     OW10453   1.776   0.315   7.636
 3237SOL    HW110454   1.704   0.292   7.578
 3237SOL    HW210455   1.734   0.336   7.720
 3238SOL     OW10456   0.440   0.096   8.957
 3238SOL    HW110457   0.511   0.057   8.906
 3238SOL    HW210458   0.363   0.043   8.934
 3239SOL     OW10459   1.594   3.850   8.907
 3239SOL    HW110460   1.604   3.936   8.865
 3239SOL    HW210461   1.577   3.870   8.999
 3240SOL     OW10462   0.806   3.730   7.956
 3240SOL    HW110463   0.833   3.822   7.949
 3240SOL    HW210464   0.711   3.733   7.964
 3241SOL     OW10465   1.265   0.063   8.387
 3241SOL    HW110466   1.194   0.009   8.353
 3241SOL    HW210467   1.322   0.001   8.433
 3242SOL     OW10468   0.556   3.905   8.340
 3242SOL    HW110469   0.553   3.925   8.434
 3242SOL    HW210470   0.551   3.990   8.297
 3243SOL     OW10471   0.190   3.976   8.946
 3243SOL    HW110472   0.101   0.011   8.951
 3243SOL    HW210473   0.186   3.892   8.991
 3244SOL     OW10474   1.408   3.829   7.883
 3244SOL    HW110475   1.399   3.798   7.793
 3244SOL    HW210476   1.502   3.825   7.901
 3245SOL     OW10477   1.533   3.937   9.168
 3245SOL    HW110478   1.558   3.939   9.261
 3245SOL    HW210479   1.462   3.873   9.165
 3246SOL     OW10480   0.628   3.850   7.576
 3246SOL    HW110481   0.719   3.820   7.575
 3246SOL    HW210482   0.586   3.800   7.506
 3247SOL     OW10483   0.772   3.953   9.189
 3247SOL    HW110484   0.827   3.926   9.263
 3247SOL    HW210485   0.686   3.970   9.229
 3248SOL     OW10486   0.536   3.785   7.963
 3248SOL    HW110487   0.484   3.785   8.044
 3248SOL    HW210488   0.543   3.877   7.939
 3249SOL     OW10489   0.286   3.760   7.625
 3249SOL    HW110490   0.326   3.847   7.619
 3249SOL    HW210491   0.353   3.706   7.667
 3250SOL     OW10492   0.563   3.944   8.617
 3250SOL    HW110493   0.606   3.876   8.669
 3250SOL    HW210494   0.471   3.941   8.644
 3251SOL     OW10495   1.021   3.766   8.178
 3251SOL    HW110496   0.955   3.753   8.109
 3251SOL    HW210497   0.997   3.702   8.246
 3252SOL     OW10498   0.925   3.801   8.844
 3252SOL    HW110499   0.953   3.780   8.755
 3252SOL    HW210500   0.998   3.849   8.882
 3253SOL     OW10501   1.267   0.072   8.714
 3253SOL    HW110502   1.277   0.142   8.778
 3253SOL    HW210503   1.200   0.104   8.653
 3254SOL     OW10504   0.508   3.751   9.206
 3254SOL    HW110505   0.453   3.706   9.141
 3254SOL    HW210506   0.480   3.842   9.201
 3255SOL     OW10507   0.303   3.924   8.702
 3255SOL    HW110508   0.256   3.941   8.784
 3255SOL    HW210509   0.289   3.831   8.685
 3256SOL     OW10510   1.578   3.951   7.567
 3256SOL    HW110511   1.516   3.897   7.616
 3256SOL    HW210512   1.608   0.016   7.629
 3257SOL     OW10513   1.164   3.920   8.922
 3257SOL    HW110514   1.166   3.996   8.979
 3257SOL    HW210515   1.207   3.950   8.841
 3258SOL     OW10516   0.901   3.811   7.549
 3258SOL    HW110517   0.958   3.766   7.486
 3258SOL    HW210518   0.943   3.799   7.633
 3259SOL     OW10519   1.706   3.855   7.941
 3259SOL    HW110520   1.785   3.843   7.888
 3259SOL    HW210521   1.698   3.774   7.990
 3260SOL     OW10522   1.836   3.877   8.422
 3260SOL    HW110523   1.871   3.795   8.387
 3260SOL    HW210524   1.757   3.893   8.370
 3261SOL     OW10525   0.679   3.908   8.935
 3261SOL    HW110526   0.762   3.898   8.889
 3261SOL    HW210527   0.703   3.930   9.025
 3262SOL     OW10528   0.071   0.020   7.440
 3262SOL    HW110529   3.976   0.022   7.451
 3262SOL    HW210530   0.100   0.109   7.459
 3263SOL     OW10531   0.108   3.920   7.821
 3263SOL    HW110532   0.081   0.003   7.780
 3263SOL    HW210533   0.188   3.895   7.774
 3264SOL     OW10534   1.197   0.011   7.912
 3264SOL    HW110535   1.263   3.942   7.913
 3264SOL    HW210536   1.215   0.064   7.989
 3265SOL     OW10537   1.786   0.038   9.087
 3265SOL    HW110538   1.758   0.075   9.003
 3265SOL    HW210539   1.707   3.999   9.124
 3266SOL     OW10540   1.816   3.912   8.688
 3266SOL    HW110541   1.821   3.822   8.718
 3266SOL    HW210542   1.822   3.906   8.592
 3267SOL     OW10543   1.440   3.930   8.565
 3267SOL    HW110544   1.472   3.852   8.611
 3267SOL    HW210545   1.382   3.973   8.628
 3268SOL     OW10546   1.017   3.736   8.594
 3268SOL    HW110547   0.960   3.682   8.540
 3268SOL    HW210548   1.103   3.693   8.589
 3269SOL     OW10549   1.354   3.770   7.613
 3269SOL    HW110550   1.389   3.701   7.556
 3269SOL    HW210551   1.266   3.740   7.636
 3270SOL     OW10552   1.280   0.162   8.130
 3270SOL    HW110553   1.284   0.258   8.134
 3270SOL    HW210554   1.285   0.134   8.221
 3271SOL     OW10555   1.580   3.925   8.329
 3271SOL    HW110556   1.531   3.932   8.411
 3271SOL    HW210557   1.581   0.015   8.295
 3272SOL     OW10558   0.234   3.943  10.268
 3272SOL    HW110559   0.257   3.958  10.360
 3272SOL    HW210560   0.140   3.961  10.264
 3273SOL     OW10561   0.008   0.107   9.931
 3273SOL    HW110562   3.923   0.087   9.971
 3273SOL    HW210563   0.014   0.047   9.857
 3274SOL     OW10564   1.777   0.318   9.498
 3274SOL    HW110565   1.704   0.294   9.440
 3274SOL    HW210566   1.735   0.338   9.581
 3275SOL     OW10567   0.440   0.096  10.819
 3275SOL    HW110568   0.511   0.057  10.768
 3275SOL    HW210569   0.363   0.043  10.796
 3276SOL     OW10570   1.594   3.850  10.769
 3276SOL    HW110571   1.604   3.936  10.727
 3276SOL    HW210572   1.577   3.870  10.861
 3277SOL     OW10573   0.806   3.730   9.818
 3277SOL    HW110574   0.833   3.822   9.811
 3277SOL    HW210575   0.711   3.732   9.826
 3278SOL     OW10576   1.266   0.063  10.248
 3278SOL    HW110577   1.194   0.009  10.215
 3278SOL    HW210578   1.322   0.001  10.295
 3279SOL     OW10579   0.556   3.905  10.202
 3279SOL    HW110580   0.553   3.925  10.296
 3279SOL    HW210581   0.551   3.990  10.159
 3280SOL     OW10582   0.190   3.976  10.808
 3280SOL    HW110583   0.101   0.011  10.813
 3280SOL    HW210584   0.186   3.892  10.853
 3281SOL     OW10585   1.408   3.830   9.745
 3281SOL    HW110586   1.399   3.798   9.655
 3281SOL    HW210587   1.502   3.825   9.763
 3282SOL     OW10588   1.533   3.937  11.030
 3282SOL    HW110589   1.558   3.940  11.123
 3282SOL    HW210590   1.462   3.873  11.027
 3283SOL     OW10591   0.628   3.850   9.438
 3283SOL    HW110592   0.719   3.820   9.437
 3283SOL    HW210593   0.586   3.800   9.368
 3284SOL     OW10594   0.772   3.953  11.051
 3284SOL    HW110595   0.827   3.926  11.125
 3284SOL    HW210596   0.686   3.970  11.091
 3285SOL     OW10597   0.536   3.785   9.825
 3285SOL    HW110598   0.484   3.785   9.906
 3285SOL    HW210599   0.543   3.877   9.801
 3286SOL     OW10600   0.286   3.760   9.487
 3286SOL    HW110601   0.326   3.847   9.481
 3286SOL    HW210602   0.353   3.706   9.529
 3287SOL     OW10603   0.563   3.944  10.479
 3287SOL    HW110604   0.606   3.876  10.531
 3287SOL    HW210605   0.471   3.941  10.506
 3288SOL     OW10606   1.021   3.766  10.040
 3288SOL    HW110607   0.955   3.753   9.971
 3288SOL    HW210608   0.997   3.702  10.108
 3289SOL     OW10609   0.925   3.801  10.706
 3289SOL    HW110610   0.954   3.780  10.617
 3289SOL    HW210611   0.998   3.849  10.745
 3290SOL     OW10612   1.267   0.072  10.576
 3290SOL    HW110613   1.277   0.142  10.641
 3290SOL    HW210614   1.200   0.104  10.516
 3291SOL     OW10615   0.508   3.751  11.068
 3291SOL    HW110616   0.453   3.706  11.003
 3291SOL    HW210617   0.480   3.842  11.064
 3292SOL     OW10618   0.303   3.924  10.564
 3292SOL    HW110619   0.256   3.941  10.646
 3292SOL    HW210620   0.289   3.831  10.547
 3293SOL     OW10621   1.577   3.951   9.429
 3293SOL    HW110622   1.517   3.896   9.478
 3293SOL    HW210623   1.610   0.014   9.493
 3294SOL     OW10624   1.164   3.920  10.784
 3294SOL    HW110625   1.166   3.996  10.842
 3294SOL    HW210626   1.207   3.950  10.704
 3295SOL     OW10627   0.901   3.811   9.410
 3295SOL    HW110628   0.958   3.765   9.348
 3295SOL    HW210629   0.943   3.799   9.495
 3296SOL     OW10630   1.707   3.855   9.803
 3296SOL    HW110631   1.786   3.842   9.750
 3296SOL    HW210632   1.697   3.774   9.852
 3297SOL     OW10633   1.836   3.877  10.283
 3297SOL    HW110634   1.871   3.795  10.250
 3297SOL    HW210635   1.757   3.893  10.232
 3298SOL     OW10636   0.679   3.908  10.797
 3298SOL    HW110637   0.762   3.898  10.751
 3298SOL    HW210638   0.703   3.930  10.887
 3299SOL     OW10639   0.071   0.020   9.301
 3299SOL    HW110640   3.976   0.022   9.312
 3299SOL    HW210641   0.100   0.109   9.321
 3300SOL     OW10642   0.108   3.920   9.682
 3300SOL    HW110643   0.081   0.003   9.642
 3300SOL    HW210644   0.188   3.895   9.635
 3301SOL     OW10645   1.197   0.012   9.773
 3301SOL    HW110646   1.263   3.942   9.775
 3301SOL    HW210647   1.215   0.065   9.851
 3302SOL     OW10648   1.786   0.038  10.949
 3302SOL    HW110649   1.759   0.075  10.865
 3302SOL    HW210650   1.707   3.999  10.986
 3303SOL     OW10651   1.816   3.912  10.550
 3303SOL    HW110652   1.821   3.822  10.580
 3303SOL    HW210653   1.822   3.906  10.454
 3304SOL     OW10654   1.440   3.931  10.427
 3304SOL    HW110655   1.472   3.853  10.472
 3304SOL    HW210656   1.382   3.973  10.490
 3305SOL     OW10657   1.017   3.736  10.456
 3305SOL    HW110658   0.960   3.682  10.402
 3305SOL    HW210659   1.103   3.693  10.451
 3306SOL     OW10660   1.354   3.770   9.475
 3306SOL    HW110661   1.389   3.701   9.418
 3306SOL    HW210662   1.266   3.740   9.498
 3307SOL     OW10663   1.280   0.162   9.992
 3307SOL    HW110664   1.284   0.258   9.997
 3307SOL    HW210665   1.285   0.133  10.083
 3308SOL     OW10666   1.580   3.925  10.191
 3308SOL    HW110667   1.531   3.931  10.273
 3308SOL    HW210668   1.581   0.015  10.157
 3309SOL     OW10669   0.234   3.943  12.131
 3309SOL    HW110670   0.257   3.957  12.223
 3309SOL    HW210671   0.140   3.961  12.126
 3310SOL     OW10672   0.008   0.107  11.793
 3310SOL    HW110673   3.923   0.087  11.833
 3310SOL    HW210674   0.014   0.047  11.719
 3311SOL     OW10675   1.777   0.317  11.360
 3311SOL    HW110676   1.704   0.294  11.302
 3311SOL    HW210677   1.735   0.338  11.443
 3312SOL     OW10678   0.440   0.095  12.681
 3312SOL    HW110679   0.511   0.058  12.630
 3312SOL    HW210680   0.363   0.043  12.658
 3313SOL     OW10681   1.594   3.850  12.631
 3313SOL    HW110682   1.604   3.936  12.590
 3313SOL    HW210683   1.576   3.870  12.723
 3314SOL     OW10684   0.806   3.730  11.680
 3314SOL    HW110685   0.833   3.821  11.673
 3314SOL    HW210686   0.711   3.732  11.688
 3315SOL     OW10687   1.266   0.063  12.110
 3315SOL    HW110688   1.194   0.009  12.077
 3315SOL    HW210689   1.322   0.001  12.157
 3316SOL     OW10690   0.556   3.905  12.064
 3316SOL    HW110691   0.553   3.925  12.158
 3316SOL    HW210692   0.551   3.990  12.021
 3317SOL     OW10693   0.190   3.976  12.670
 3317SOL    HW110694   0.101   0.011  12.675
 3317SOL    HW210695   0.185   3.892  12.715
 3318SOL     OW10696   1.408   3.830  11.607
 3318SOL    HW110697   1.399   3.798  11.517
 3318SOL    HW210698   1.502   3.825  11.626
 3319SOL     OW10699   1.533   3.938  12.894
 3319SOL    HW110700   1.557   3.943  12.986
 3319SOL    HW210701   1.463   3.873  12.891
 3320SOL     OW10702   0.628   3.850  11.300
 3320SOL    HW110703   0.719   3.820  11.299
 3320SOL    HW210704   0.586   3.800  11.230
 3321SOL     OW10705   0.771   3.953  12.914
 3321SOL    HW110706   0.827   3.926  12.987
 3321SOL    HW210707   0.686   3.968  12.954
 3322SOL     OW10708   0.536   3.785  11.687
 3322SOL    HW110709   0.484   3.785  11.768
 3322SOL    HW210710   0.543   3.877  11.663
 3323SOL     OW10711   0.286   3.760  11.349
 3323SOL    HW110712   0.326   3.847  11.344
 3323SOL    HW210713   0.353   3.706  11.391
 3324SOL     OW10714   0.563   3.944  12.341
 3324SOL    HW110715   0.606   3.876  12.393
 3324SOL    HW210716   0.471   3.941  12.368
 3325SOL     OW10717   1.021   3.766  11.902
 3325SOL    HW110718   0.955   3.753  11.833
 3325SOL    HW210719   0.997   3.702  11.970
 3326SOL     OW10720   0.924   3.801  12.568
 3326SOL    HW110721   0.953   3.780  12.479
 3326SOL    HW210722   0.998   3.849  12.606
 3327SOL     OW10723   1.268   0.072  12.438
 3327SOL    HW110724   1.277   0.142  12.502
 3327SOL    HW210725   1.200   0.104  12.378
 3328SOL     OW10726   0.507   3.751  12.929
 3328SOL    HW110727   0.453   3.705  12.865
 3328SOL    HW210728   0.479   3.842  12.924
 3329SOL     OW10729   0.303   3.924  12.426
 3329SOL    HW110730   0.255   3.941  12.508
 3329SOL    HW210731   0.289   3.831  12.409
 3330SOL     OW10732   1.577   3.951  11.291
 3330SOL    HW110733   1.517   3.896  11.341
 3330SOL    HW210734   1.611   0.014  11.354
 3331SOL     OW10735   1.163   3.920  12.645
 3331SOL    HW110736   1.166   3.996  12.704
 3331SOL    HW210737   1.207   3.950  12.565
 3332SOL     OW10738   0.901   3.811  11.272
 3332SOL    HW110739   0.958   3.765  11.210
 3332SOL    HW210740   0.943   3.799  11.357
 3333SOL     OW10741   1.706   3.855  11.664
 3333SOL    HW110742   1.785   3.842  11.612
 3333SOL    HW210743   1.697   3.774  11.714
 3334SOL     OW10744   1.836   3.877  12.145
 3334SOL    HW110745   1.871   3.795  12.112
 3334SOL    HW210746   1.757   3.893  12.094
 3335SOL     OW10747   0.679   3.908  12.659
 3335SOL    HW110748   0.763   3.898  12.613
 3335SOL    HW210749   0.703   3.930  12.749
 3336SOL     OW10750   0.072   0.020  11.163
 3336SOL    HW110751   3.977   0.022  11.174
 3336SOL    HW210752   0.100   0.109  11.183
 3337SOL     OW10753   0.108   3.920  11.544
 3337SOL    HW110754   0.081   0.003  11.504
 3337SOL    HW210755   0.188   3.895  11.497
 3338SOL     OW10756   1.197   0.012  11.635
 3338SOL    HW110757   1.263   3.942  11.637
 3338SOL    HW210758   1.215   0.065  11.713
 3339SOL     OW10759   1.786   0.038  12.810
 3339SOL    HW110760   1.757   0.074  12.726
 3339SOL    HW210761   1.707   3.999  12.847
 3340SOL     OW10762   1.816   3.912  12.412
 3340SOL    HW110763   1.821   3.822  12.442
 3340SOL    HW210764   1.822   3.906  12.316
 3341SOL     OW10765   1.440   3.930  12.289
 3341SOL    HW110766   1.472   3.853  12.335
 3341SOL    HW210767   1.382   3.973  12.352
 3342SOL     OW10768   1.017   3.736  12.318
 3342SOL    HW110769   0.960   3.682  12.264
 3342SOL    HW210770   1.102   3.693  12.313
 3343SOL     OW10771   1.354   3.770  11.337
 3343SOL    HW110772   1.389   3.701  11.280
 3343SOL    HW210773   1.266   3.740  11.360
 3344SOL     OW10774   1.280   0.162  11.854
 3344SOL    HW110775   1.284   0.258  11.859
 3344SOL    HW210776   1.285   0.133  11.945
 3345SOL     OW10777   1.580   3.925  12.053
 3345SOL    HW110778   1.531   3.931  12.135
 3345SOL    HW210779   1.581   0.015  12.019
 3346SOL     OW10780   0.010   0.103  13.640
 3346SOL    HW110781   3.916   0.090  13.651
 3346SOL    HW210782   0.034   0.048  13.566
 3347SOL     OW10783   1.776   0.320  13.221
 3347SOL    HW110784   1.702   0.298  13.165
 3347SOL    HW210785   1.739   0.328  13.309
 3348SOL     OW10786   1.613   0.171  13.766
 3348SOL    HW110787   1.525   0.143  13.741
 3348SOL    HW210788   1.603   0.264  13.789
 3349SOL     OW10789   0.809   3.731  13.540
 3349SOL    HW110790   0.832   3.824  13.534
 3349SOL    HW210791   0.714   3.730  13.550
 3350SOL     OW10792   1.406   3.833  13.465
 3350SOL    HW110793   1.400   3.799  13.375
 3350SOL    HW210794   1.499   3.828  13.486
 3351SOL     OW10795   0.626   3.851  13.161
 3351SOL    HW110796   0.717   3.821  13.163
 3351SOL    HW210797   0.586   3.800  13.091
 3352SOL     OW10798   0.536   3.777  13.550
 3352SOL    HW110799   0.488   3.764  13.632
 3352SOL    HW210800   0.537   3.872  13.538
 3353SOL     OW10801   0.286   3.760  13.213
 3353SOL    HW110802   0.333   3.843  13.201
 3353SOL    HW210803   0.349   3.703  13.256
 3354SOL     OW10804   1.011   3.760  13.769
 3354SOL    HW110805   0.954   3.754  13.693
 3354SOL    HW210806   0.991   3.682  13.820
 3355SOL     OW10807   1.576   3.958  13.155
 3355SOL    HW110808   1.526   3.894  13.207
 3355SOL    HW210809   1.632   0.002  13.219
 3356SOL     OW10810   0.900   3.811  13.135
 3356SOL    HW110811   0.957   3.765  13.073
 3356SOL    HW210812   0.942   3.797  13.220
 3357SOL     OW10813   1.731   3.859  13.557
 3357SOL    HW110814   1.797   3.845  13.489
 3357SOL    HW210815   1.712   3.772  13.591
 3358SOL     OW10816   1.847   3.898   0.053
 3358SOL    HW110817   1.873   3.806   0.053
 3358SOL    HW210818   1.758   3.899   0.086
 3359SOL     OW10819   0.073   0.017  13.026
 3359SOL    HW110820   3.978   0.020  13.037
 3359SOL    HW210821   0.102   0.106  13.048
 3360SOL     OW10822   0.114   3.929  13.413
 3360SOL    HW110823   0.089   0.003  13.357
 3360SOL    HW210824   0.188   3.889  13.368
 3361SOL     OW10825   1.189   0.001  13.520
 3361SOL    HW110826   1.262   3.942  13.499
 3361SOL    HW210827   1.223   0.058  13.589
 3362SOL     OW10828   1.355   3.769  13.197
 3362SOL    HW110829   1.388   3.699  13.140
 3362SOL    HW210830   1.267   3.741  13.221
 3363SOL     OW10831   1.313   0.154  13.736
 3363SOL    HW110832   1.284   0.244  13.719
 3363SOL    HW210833   1.292   0.139  13.829
 3364SOL     OW10834   2.096   0.647   0.118
 3364SOL    HW110835   2.009   0.617   0.144
 3364SOL    HW210836   2.113   0.602   0.035
 3365SOL     OW10837   2.078   0.302   0.993
 3365SOL    HW110838   2.115   0.258   1.069
 3365SOL    HW210839   1.993   0.260   0.980
 3366SOL     OW10840   1.871   0.401   0.632
 3366SOL    HW110841   1.784   0.414   0.670
 3366SOL    HW210842   1.860   0.330   0.569
 3367SOL     OW10843   2.430   1.293   1.179
 3367SOL    HW110844   2.345   1.299   1.136
 3367SOL    HW210845   2.449   1.383   1.207
 3368SOL     OW10846   3.429   1.514   0.708
 3368SOL    HW110847   3.385   1.490   0.789
 3368SOL    HW210848   3.360   1.517   0.642
 3369SOL     OW10849   2.995   0.698   0.696
 3369SOL    HW110850   3.043   0.780   0.684
 3369SOL    HW210851   2.947   0.709   0.778
 3370SOL     OW10852   3.622   0.631   0.221
 3370SOL    HW110853   3.625   0.622   0.126
 3370SOL    HW210854   3.635   0.541   0.254
 3371SOL     OW10855   2.611   1.138   1.045
 3371SOL    HW110856   2.544   1.175   1.103
 3371SOL    HW210857   2.650   1.214   1.002
 3372SOL     OW10858   2.735   0.766   1.824
 3372SOL    HW110859   2.721   0.836   1.888
 3372SOL    HW210860   2.757   0.811   1.743
 3373SOL     OW10861   2.547   0.997   0.646
 3373SOL    HW110862   2.613   0.989   0.716
 3373SOL    HW210863   2.479   1.052   0.684
 3374SOL     OW10864   2.577   1.149   1.818
 3374SOL    HW110865   2.625   1.226   1.848
 3374SOL    HW210866   2.496   1.183   1.782
 3375SOL     OW10867   2.190   1.419   1.067
 3375SOL    HW110868   2.117   1.382   1.018
 3375SOL    HW210869   2.238   1.471   1.002
 3376SOL     OW10870   3.320   1.502   1.360
 3376SOL    HW110871   3.375   1.580   1.369
 3376SOL    HW210872   3.253   1.511   1.427
 3377SOL     OW10873   2.308   0.391   1.491
 3377SOL    HW110874   2.400   0.363   1.491
 3377SOL    HW210875   2.259   0.310   1.500
 3378SOL     OW10876   3.472   0.450   0.735
 3378SOL    HW110877   3.408   0.489   0.675
 3378SOL    HW210878   3.494   0.521   0.795
 3379SOL     OW10879   2.109   1.699   0.492
 3379SOL    HW110880   2.057   1.779   0.496
 3379SOL    HW210881   2.175   1.717   0.425
 3380SOL     OW10882   3.000   1.342   1.694
 3380SOL    HW110883   3.041   1.336   1.780
 3380SOL    HW210884   2.947   1.262   1.687
 3381SOL     OW10885   2.076   1.435   0.534
 3381SOL    HW110886   2.088   1.530   0.529
 3381SOL    HW210887   2.025   1.421   0.613
 3382SOL     OW10888   2.125   1.091   0.890
 3382SOL    HW110889   2.123   1.002   0.925
 3382SOL    HW210890   2.069   1.141   0.948
 3383SOL     OW10891   2.472   1.782   1.435
 3383SOL    HW110892   2.392   1.770   1.486
 3383SOL    HW210893   2.495   1.874   1.448
 3384SOL     OW10894   2.426   0.978   0.166
 3384SOL    HW110895   2.458   1.019   0.085
 3384SOL    HW210896   2.478   1.019   0.235
 3385SOL     OW10897   3.445   0.143   1.456
 3385SOL    HW110898   3.473   0.215   1.399
 3385SOL    HW210899   3.405   0.186   1.531
 3386SOL     OW10900   1.981   0.657   0.559
 3386SOL    HW110901   1.952   0.569   0.583
 3386SOL    HW210902   1.972   0.708   0.640
 3387SOL     OW10903   3.710   1.756   0.331
 3387SOL    HW110904   3.772   1.720   0.395
 3387SOL    HW210905   3.729   1.850   0.329
 3388SOL     OW10906   1.934   1.574   0.112
 3388SOL    HW110907   1.916   1.482   0.133
 3388SOL    HW210908   1.855   1.620   0.141
 3389SOL     OW10909   3.550   0.918   0.651
 3389SOL    HW110910   3.633   0.874   0.634
 3389SOL    HW210911   3.532   0.968   0.571
 3390SOL     OW10912   3.507   1.102   0.435
 3390SOL    HW110913   3.592   1.110   0.392
 3390SOL    HW210914   3.509   1.167   0.505
 3391SOL     OW10915   1.985   0.750   1.579
 3391SOL    HW110916   2.075   0.783   1.583
 3391SOL    HW210917   1.931   0.829   1.585
 3392SOL     OW10918   2.479   1.390   0.734
 3392SOL    HW110919   2.433   1.306   0.742
 3392SOL    HW210920   2.462   1.417   0.644
 3393SOL     OW10921   3.148   1.237   1.421
 3393SOL    HW110922   3.180   1.169   1.361
 3393SOL    HW210923   3.207   1.232   1.496
 3394SOL     OW10924   2.685   0.004   0.522
 3394SOL    HW110925   2.730   0.084   0.494
 3394SOL    HW210926   2.592   0.027   0.521
 3395SOL     OW10927   2.050   0.960   1.275
 3395SOL    HW110928   2.136   0.921   1.261
 3395SOL    HW210929   1.992   0.913   1.216
 3396SOL     OW10930   3.391   0.999   0.207
 3396SOL    HW110931   3.323   0.941   0.241
 3396SOL    HW210932   3.432   1.036   0.285
 3397SOL     OW10933   3.048   1.811   1.625
 3397SOL    HW110934   3.055   1.871   1.550
 3397SOL    HW210935   3.065   1.724   1.588
 3398SOL     OW10936   2.222   0.250   1.850
 3398SOL    HW110937   2.267   0.335   1.851
 3398SOL    HW210938   2.129   0.273   1.850
 3399SOL     OW10939   3.328   1.420   0.948
 3399SOL    HW110940   3.262   1.435   1.015
 3399SOL    HW210941   3.317   1.328   0.922
 3400SOL     OW10942   3.519   1.749   0.585
 3400SOL    HW110943   3.497   1.723   0.495
 3400SOL    HW210944   3.500   1.671   0.637
 3401SOL     OW10945   2.457   0.715   0.269
 3401SOL    HW110946   2.458   0.799   0.222
 3401SOL    HW210947   2.396   0.729   0.341
 3402SOL     OW10948   3.137   0.371   0.940
 3402SOL    HW110949   3.049   0.333   0.948
 3402SOL    HW210950   3.194   0.310   0.985
 3403SOL     OW10951   3.429   1.729   0.316
 3403SOL    HW110952   3.524   1.729   0.311
 3403SOL    HW210953   3.400   1.698   0.229
 3404SOL     OW10954   2.658   0.615   1.451
 3404SOL    HW110955   2.630   0.589   1.538
 3404SOL    HW210956   2.621   0.548   1.393
 3405SOL     OW10957   3.254   0.475   1.677
 3405SOL    HW110958   3.260   0.521   1.761
 3405SOL    HW210959   3.310   0.399   1.688
 3406SOL     OW10960   2.812   0.887   1.586
 3406SOL    HW110961   2.868   0.819   1.548
 3406SOL    HW210962   2.764   0.923   1.511
 3407SOL     OW10963   2.856   0.401   1.236
 3407SOL    HW110964   2.770   0.421   1.273
 3407SOL    HW210965   2.837   0.376   1.146
 3408SOL     OW10966   2.915   0.703   0.428
 3408SOL    HW110967   2.933   0.695   0.522
 3408SOL    HW210968   2.831   0.658   0.416
 3409SOL     OW10969   1.949   0.824   0.775
 3409SOL    HW110970   2.029   0.815   0.828
 3409SOL    HW210971   1.904   0.900   0.812
 3410SOL     OW10972   2.735   0.360   0.223
 3410SOL    HW110973   2.771   0.419   0.156
 3410SOL    HW210974   2.738   0.273   0.183
 3411SOL     OW10975   3.567   0.572   1.830
 3411SOL    HW110976   3.531   0.647   1.782
 3411SOL    HW210977   3.594   0.511   1.762
 3412SOL     OW10978   3.240   1.141   0.542
 3412SOL    HW110979   3.319   1.130   0.489
 3412SOL    HW210980   3.188   1.205   0.494
 3413SOL     OW10981   2.421   0.199   0.881
 3413SOL    HW110982   2.423   0.219   0.974
 3413SOL    HW210983   2.417   0.284   0.838
 3414SOL     OW10984   2.864   1.441   0.475
 3414SOL    HW110985   2.834   1.516   0.423
 3414SOL    HW210986   2.838   1.462   0.565
 3415SOL     OW10987   2.254   1.817   0.823
 3415SOL    HW110988   2.250   1.723   0.835
 3415SOL    HW210989   2.330   1.846   0.873
 3416SOL     OW10990   3.668   1.062   0.869
 3416SOL    HW110991   3.615   1.035   0.794
 3416SOL    HW210992   3.606   1.065   0.942
 3417SOL     OW10993   3.089   1.540   1.513
 3417SOL    HW110994   3.077   1.467   1.575
 3417SOL    HW210995   3.021   1.527   1.447
 3418SOL     OW10996   2.168   0.937   0.232
 3418SOL    HW110997   2.260   0.949   0.209
 3418SOL    HW210998   2.154   0.842   0.227
 3419SOL     OW10999   3.340   0.752   0.730
 3419SOL    HW111000   3.337   0.709   0.816
 3419SOL    HW211001   3.419   0.807   0.734
 3420SOL     OW11002   2.335   1.265   1.746
 3420SOL    HW111003   2.309   1.267   1.654
 3420SOL    HW211004   2.252   1.261   1.794
 3421SOL     OW11005   2.985   1.781   0.228
 3421SOL    HW111006   2.922   1.735   0.283
 3421SOL    HW211007   3.014   1.715   0.165
 3422SOL     OW11008   2.029   0.274   1.500
 3422SOL    HW111009   1.977   0.353   1.486
 3422SOL    HW211010   2.033   0.265   1.595
 3423SOL     OW11011   3.494   1.375   0.092
 3423SOL    HW111012   3.464   1.460   0.057
 3423SOL    HW211013   3.424   1.314   0.070
 3424SOL     OW11014   2.331   1.741   0.329
 3424SOL    HW111015   2.376   1.802   0.387
 3424SOL    HW211016   2.395   1.722   0.260
 3425SOL     OW11017   3.299   0.137   0.391
 3425SOL    HW111018   3.255   0.053   0.407
 3425SOL    HW211019   3.384   0.129   0.433
 3426SOL     OW11020   2.132   1.737   1.260
 3426SOL    HW111021   2.164   1.651   1.289
 3426SOL    HW211022   2.141   1.734   1.164
 3427SOL     OW11023   2.800   1.699   0.897
 3427SOL    HW111024   2.879   1.650   0.918
 3427SOL    HW211025   2.759   1.648   0.826
 3428SOL     OW11026   2.256   0.695   0.471
 3428SOL    HW111027   2.276   0.602   0.486
 3428SOL    HW211028   2.164   0.704   0.494
 3429SOL     OW11029   3.392   0.228   1.727
 3429SOL    HW111030   3.382   0.253   1.819
 3429SOL    HW211031   3.378   0.133   1.726
 3430SOL     OW11032   2.482   0.104   0.120
 3430SOL    HW111033   2.577   0.103   0.127
 3430SOL    HW211034   2.465   0.133   0.030
 3431SOL     OW11035   2.635   0.283   1.772
 3431SOL    HW111036   2.712   0.225   1.774
 3431SOL    HW211037   2.580   0.252   1.843
 3432SOL     OW11038   2.739   1.523   1.193
 3432SOL    HW111039   2.723   1.485   1.107
 3432SOL    HW211040   2.809   1.469   1.230
 3433SOL     OW11041   3.201   0.587   1.431
 3433SOL    HW111042   3.232   0.559   1.517
 3433SOL    HW211043   3.235   0.676   1.421
 3434SOL     OW11044   2.680   1.390   0.945
 3434SOL    HW111045   2.765   1.379   0.902
 3434SOL    HW211046   2.617   1.396   0.873
 3435SOL     OW11047   2.792   0.512   0.899
 3435SOL    HW111048   2.767   0.504   0.807
 3435SOL    HW211049   2.817   0.423   0.925
 3436SOL     OW11050   2.411   0.052   0.500
 3436SOL    HW111051   2.335   0.058   0.558
 3436SOL    HW211052   2.402   0.127   0.442
 3437SOL     OW11053   3.291   1.208   0.043
 3437SOL    HW111054   3.309   1.128   0.093
 3437SOL    HW211055   3.200   1.230   0.065
 3438SOL     OW11056   2.204   0.008   0.189
 3438SOL    HW111057   2.171   0.087   0.145
 3438SOL    HW211058   2.294   0.030   0.213
 3439SOL     OW11059   2.807   0.250   0.466
 3439SOL    HW111060   2.775   0.289   0.385
 3439SOL    HW211061   2.902   0.253   0.458
 3440SOL     OW11062   2.942   0.685   1.458
 3440SOL    HW111063   2.872   0.620   1.464
 3440SOL    HW211064   3.023   0.634   1.453
 3441SOL     OW11065   3.081   1.573   0.796
 3441SOL    HW111066   3.097   1.637   0.726
 3441SOL    HW211067   3.152   1.586   0.858
 3442SOL     OW11068   2.334   1.153   0.727
 3442SOL    HW111069   2.266   1.133   0.792
 3442SOL    HW211070   2.290   1.141   0.643
 3443SOL     OW11071   3.127   1.794   0.610
 3443SOL    HW111072   3.176   1.857   0.557
 3443SOL    HW211073   3.059   1.847   0.653
 3444SOL     OW11074   2.859   0.529   0.051
 3444SOL    HW111075   2.855   0.524  13.855
 3444SOL    HW211076   2.950   0.549   0.071
 3445SOL     OW11077   1.946   0.549   1.397
 3445SOL    HW111078   2.037   0.552   1.367
 3445SOL    HW211079   1.938   0.622   1.458
 3446SOL     OW11080   2.424   0.231   1.161
 3446SOL    HW111081   2.447   0.139   1.170
 3446SOL    HW211082   2.335   0.237   1.194
 3447SOL     OW11083   2.732   0.462   0.638
 3447SOL    HW111084   2.688   0.516   0.573
 3447SOL    HW211085   2.753   0.381   0.591
 3448SOL     OW11086   2.859   0.039   0.780
 3448SOL    HW111087   2.816   0.068   0.700
 3448SOL    HW211088   2.871   3.945   0.767
 3449SOL     OW11089   3.303   1.160   0.858
 3449SOL    HW111090   3.230   1.098   0.856
 3449SOL    HW211091   3.328   1.171   0.766
 3450SOL     OW11092   3.325   0.609   0.972
 3450SOL    HW111093   3.270   0.531   0.976
 3450SOL    HW211094   3.384   0.602   1.047
 3451SOL     OW11095   3.725   0.826   0.373
 3451SOL    HW111096   3.763   0.768   0.440
 3451SOL    HW211097   3.680   0.766   0.314
 3452SOL     OW11098   2.348   1.409   0.155
 3452SOL    HW111099   2.275   1.375   0.206
 3452SOL    HW211100   2.330   1.380   0.065
 3453SOL     OW11101   3.530   1.264   0.646
 3453SOL    HW111102   3.625   1.267   0.655
 3453SOL    HW211103   3.501   1.355   0.658
 3454SOL     OW11104   3.285   0.591   0.088
 3454SOL    HW111105   3.216   0.579   0.153
 3454SOL    HW211106   3.333   0.508   0.089
 3455SOL     OW11107   2.379   0.255   0.324
 3455SOL    HW111108   2.422   0.209   0.252
 3455SOL    HW211109   2.355   0.340   0.288
 3456SOL     OW11110   3.612   1.233   1.562
 3456SOL    HW111111   3.700   1.198   1.545
 3456SOL    HW211112   3.627   1.323   1.592
 3457SOL     OW11113   2.917   1.353   1.331
 3457SOL    HW111114   2.842   1.322   1.382
 3457SOL    HW211115   2.993   1.312   1.373
 3458SOL     OW11116   3.468   1.629   1.657
 3458SOL    HW111117   3.459   1.664   1.569
 3458SOL    HW211118   3.548   1.576   1.655
 3459SOL     OW11119   2.995   1.208   1.102
 3459SOL    HW111120   2.936   1.246   1.167
 3459SOL    HW211121   2.965   1.243   1.018
 3460SOL     OW11122   3.488   1.094   1.074
 3460SOL    HW111123   3.478   1.157   1.146
 3460SOL    HW211124   3.413   1.112   1.018
 3461SOL     OW11125   2.773   0.118   1.401
 3461SOL    HW111126   2.793   0.089   1.312
 3461SOL    HW211127   2.854   0.160   1.431
 3462SOL     OW11128   2.847   1.115   1.724
 3462SOL    HW111129   2.755   1.132   1.748
 3462SOL    HW211130   2.843   1.037   1.669
 3463SOL     OW11131   2.578   1.058   0.378
 3463SOL    HW111132   2.563   1.039   0.470
 3463SOL    HW211133   2.652   1.003   0.353
 3464SOL     OW11134   2.284   0.817   1.252
 3464SOL    HW111135   2.352   0.825   1.318
 3464SOL    HW211136   2.248   0.729   1.265
 3465SOL     OW11137   3.128   0.375   1.277
 3465SOL    HW111138   3.161   0.453   1.321
 3465SOL    HW211139   3.040   0.399   1.248
 3466SOL     OW11140   2.206   1.115   0.485
 3466SOL    HW111141   2.201   1.187   0.423
 3466SOL    HW211142   2.213   1.036   0.431
 3467SOL     OW11143   2.415   0.529   0.856
 3467SOL    HW111144   2.428   0.588   0.783
 3467SOL    HW211145   2.480   0.556   0.921
 3468SOL     OW11146   3.110   1.347   0.399
 3468SOL    HW111147   3.166   1.420   0.426
 3468SOL    HW211148   3.023   1.370   0.431
 3469SOL     OW11149   3.149   1.461   1.148
 3469SOL    HW111150   3.205   1.465   1.226
 3469SOL    HW211151   3.094   1.384   1.163
 3470SOL     OW11152   3.435   0.634   0.493
 3470SOL    HW111153   3.392   0.693   0.555
 3470SOL    HW211154   3.469   0.691   0.424
 3471SOL     OW11155   2.221   1.491   1.319
 3471SOL    HW111156   2.207   1.461   1.229
 3471SOL    HW211157   2.314   1.514   1.323
 3472SOL     OW11158   2.282   0.744   1.603
 3472SOL    HW111159   2.343   0.789   1.544
 3472SOL    HW211160   2.323   0.660   1.621
 3473SOL     OW11161   3.468   0.779   1.685
 3473SOL    HW111162   3.382   0.822   1.679
 3473SOL    HW211163   3.521   0.822   1.618
 3474SOL     OW11164   2.870   0.138   1.781
 3474SOL    HW111165   2.926   0.207   1.746
 3474SOL    HW211166   2.857   0.078   1.707
 3475SOL     OW11167   2.352   0.034   1.761
 3475SOL    HW111168   2.352   0.050   1.666
 3475SOL    HW211169   2.292   0.101   1.796
 3476SOL     OW11170   2.446   0.874   1.031
 3476SOL    HW111171   2.478   0.965   1.034
 3476SOL    HW211172   2.389   0.867   1.108
 3477SOL     OW11173   3.211   0.859   1.024
 3477SOL    HW111174   3.126   0.845   0.982
 3477SOL    HW211175   3.256   0.775   1.015
 3478SOL     OW11176   3.079   0.552   0.265
 3478SOL    HW111177   3.086   0.472   0.318
 3478SOL    HW211178   3.022   0.610   0.317
 3479SOL     OW11179   2.160   0.208   1.244
 3479SOL    HW111180   2.117   0.236   1.325
 3479SOL    HW211181   2.149   0.113   1.243
 3480SOL     OW11182   1.910   1.335   1.293
 3480SOL    HW111183   1.936   1.265   1.353
 3480SOL    HW211184   1.985   1.395   1.292
 3481SOL     OW11185   2.583   0.631   1.050
 3481SOL    HW111186   2.659   0.620   0.994
 3481SOL    HW211187   2.553   0.721   1.032
 3482SOL     OW11188   3.594   0.957   1.865
 3482SOL    HW111189   3.552   0.893   1.808
 3482SOL    HW211190   3.529   0.973   1.934
 3483SOL     OW11191   2.184   0.054   0.655
 3483SOL    HW111192   2.165   0.147   0.666
 3483SOL    HW211193   2.151   0.013   0.735
 3484SOL     OW11194   3.435   0.390   0.390
 3484SOL    HW111195   3.415   0.329   0.462
 3484SOL    HW211196   3.429   0.477   0.429
 3485SOL     OW11197   2.892   0.759   0.958
 3485SOL    HW111198   2.883   0.776   1.051
 3485SOL    HW211199   2.864   0.668   0.947
 3486SOL     OW11200   2.845   1.567   1.721
 3486SOL    HW111201   2.828   1.610   1.637
 3486SOL    HW211202   2.888   1.484   1.697
 3487SOL     OW11203   3.704   1.496   1.597
 3487SOL    HW111204   3.728   1.526   1.510
 3487SOL    HW211205   3.784   1.505   1.649
 3488SOL     OW11206   2.213   0.916   1.808
 3488SOL    HW111207   2.293   0.936   1.856
 3488SOL    HW211208   2.240   0.853   1.742
 3489SOL     OW11209   3.381   0.275   0.143
 3489SOL    HW111210   3.324   0.198   0.148
 3489SOL    HW211211   3.389   0.304   0.234
 3490SOL     OW11212   3.149   0.832   0.056
 3490SOL    HW111213   3.197   0.749   0.060
 3490SOL    HW211214   3.166   0.864  13.867
 3491SOL     OW11215   2.930   1.338   0.856
 3491SOL    HW111216   2.935   1.266   0.793
 3491SOL    HW211217   2.989   1.405   0.821
 3492SOL     OW11218   2.170   0.810   0.945
 3492SOL    HW111219   2.263   0.831   0.940
 3492SOL    HW211220   2.167   0.720   0.977
 3493SOL     OW11221   2.198   0.538   1.014
 3493SOL    HW111222   2.156   0.453   1.000
 3493SOL    HW211223   2.274   0.537   0.956
 3494SOL     OW11224   2.995   0.380   1.699
 3494SOL    HW111225   2.946   0.434   1.761
 3494SOL    HW211226   3.081   0.420   1.694
 3495SOL     OW11227   3.014   0.226   1.481
 3495SOL    HW111228   3.004   0.279   1.560
 3495SOL    HW211229   3.040   0.288   1.413
 3496SOL     OW11230   1.883   1.302   0.174
 3496SOL    HW111231   1.799   1.314   0.130
 3496SOL    HW211232   1.876   1.218   0.219
 3497SOL     OW11233   2.358   1.568   0.910
 3497SOL    HW111234   2.423   1.636   0.929
 3497SOL    HW211235   2.402   1.508   0.849
 3498SOL     OW11236   2.837   0.786   1.223
 3498SOL    HW111237   2.895   0.769   1.297
 3498SOL    HW211238   2.753   0.750   1.249
 3499SOL     OW11239   1.895   0.549   1.117
 3499SOL    HW111240   1.969   0.523   1.062
 3499SOL    HW211241   1.929   0.547   1.206
 3500SOL     OW11242   2.066   0.527   1.711
 3500SOL    HW111243   2.138   0.507   1.652
 3500SOL    HW211244   2.023   0.603   1.672
 3501SOL     OW11245   3.243   0.934   1.657
 3501SOL    HW111246   3.264   1.028   1.654
 3501SOL    HW211247   3.238   0.908   1.565
 3502SOL     OW11248   2.677   0.580   0.378
 3502SOL    HW111249   2.687   0.503   0.322
 3502SOL    HW211250   2.604   0.629   0.339
 3503SOL     OW11251   3.500   0.602   1.181
 3503SOL    HW111252   3.490   0.542   1.254
 3503SOL    HW211253   3.587   0.582   1.145
 3504SOL     OW11254   2.088   1.558   1.737
 3504SOL    HW111255   2.049   1.588   1.819
 3504SOL    HW211256   2.118   1.469   1.755
 3505SOL     OW11257   2.574   0.451   1.253
 3505SOL    HW111258   2.521   0.375   1.230
 3505SOL    HW211259   2.563   0.511   1.179
 3506SOL     OW11260   2.788   1.677   1.470
 3506SOL    HW111261   2.760   1.640   1.386
 3506SOL    HW211262   2.782   1.772   1.457
 3507SOL     OW11263   2.293   0.491   0.229
 3507SOL    HW111264   2.368   0.549   0.244
 3507SOL    HW211265   2.225   0.549   0.194
 3508SOL     OW11266   2.002   1.141   1.469
 3508SOL    HW111267   2.005   1.093   1.552
 3508SOL    HW211268   2.019   1.074   1.403
 3509SOL     OW11269   3.182   1.043   1.221
 3509SOL    HW111270   3.205   0.981   1.152
 3509SOL    HW211271   3.116   1.100   1.181
 3510SOL     OW11272   3.180   0.857   0.328
 3510SOL    HW111273   3.106   0.826   0.380
 3510SOL    HW211274   3.152   0.843   0.237
 3511SOL     OW11275   3.645   1.739   1.159
 3511SOL    HW111276   3.700   1.767   1.086
 3511SOL    HW211277   3.614   1.652   1.135
 3512SOL     OW11278   3.102   1.734   1.107
 3512SOL    HW111279   3.185   1.757   1.065
 3512SOL    HW211280   3.111   1.640   1.127
 3513SOL     OW11281   1.954   1.250   1.029
 3513SOL    HW111282   1.922   1.274   1.116
 3513SOL    HW211283   1.876   1.217   0.984
 3514SOL     OW11284   2.542   1.666   1.735
 3514SOL    HW111285   2.487   1.744   1.740
 3514SOL    HW211286   2.606   1.686   1.667
 3515SOL     OW11287   2.757   0.103   0.132
 3515SOL    HW111288   2.798   0.092   0.046
 3515SOL    HW211289   2.767   0.018   0.175
 3516SOL     OW11290   3.553   0.123   0.484
 3516SOL    HW111291   3.635   0.134   0.436
 3516SOL    HW211292   3.553   0.030   0.509
 3517SOL     OW11293   3.253   1.572   0.488
 3517SOL    HW111294   3.315   1.606   0.424
 3517SOL    HW211295   3.205   1.649   0.519
 3518SOL     OW11296   3.137   0.928   0.671
 3518SOL    HW111297   3.212   0.870   0.684
 3518SOL    HW211298   3.172   1.000   0.618
 3519SOL     OW11299   2.669   1.275   1.425
 3519SOL    HW111300   2.641   1.315   1.507
 3519SOL    HW211301   2.600   1.297   1.363
 3520SOL     OW11302   2.551   1.582   0.185
 3520SOL    HW111303   2.529   1.646   0.117
 3520SOL    HW211304   2.486   1.513   0.175
 3521SOL     OW11305   3.480   1.728   1.391
 3521SOL    HW111306   3.536   1.732   1.314
 3521SOL    HW211307   3.466   1.819   1.416
 3522SOL     OW11308   3.705   0.182   0.970
 3522SOL    HW111309   3.729   0.097   0.933
 3522SOL    HW211310   3.619   0.201   0.933
 3523SOL     OW11311   2.124   0.315   0.716
 3523SOL    HW111312   2.038   0.350   0.694
 3523SOL    HW211313   2.123   0.308   0.812
 3524SOL     OW11314   3.084   1.599   0.037
 3524SOL    HW111315   3.072   1.507   0.062
 3524SOL    HW211316   3.039   1.606  13.853
 3525SOL     OW11317   2.686   1.006   1.374
 3525SOL    HW111318   2.728   1.002   1.288
 3525SOL    HW211319   2.683   1.100   1.394
 3526SOL     OW11320   2.784   0.910   0.288
 3526SOL    HW111321   2.853   0.952   0.237
 3526SOL    HW211322   2.829   0.841   0.337
 3527SOL     OW11323   3.347   1.651   0.066
 3527SOL    HW111324   3.254   1.628   0.059
 3527SOL    HW211325   3.382   1.636  13.879
 3528SOL     OW11326   2.230   1.292   1.504
 3528SOL    HW111327   2.228   1.364   1.440
 3528SOL    HW211328   2.152   1.240   1.483
 3529SOL     OW11329   3.461   1.281   1.276
 3529SOL    HW111330   3.529   1.270   1.343
 3529SOL    HW211331   3.404   1.349   1.310
 3530SOL     OW11332   2.920   1.110   0.709
 3530SOL    HW111333   2.848   1.059   0.747
 3530SOL    HW211334   2.985   1.044   0.683
 3531SOL     OW11335   2.877   0.249   0.970
 3531SOL    HW111336   2.867   0.199   0.889
 3531SOL    HW211337   2.874   0.184   1.040
 3532SOL     OW11338   2.468   1.489   0.480
 3532SOL    HW111339   2.515   1.440   0.412
 3532SOL    HW211340   2.400   1.536   0.433
 3533SOL     OW11341   3.583   0.395   1.371
 3533SOL    HW111342   3.655   0.457   1.371
 3533SOL    HW211343   3.614   0.322   1.317
 3534SOL     OW11344   2.132   1.317   0.300
 3534SOL    HW111345   2.050   1.329   0.252
 3534SOL    HW211346   2.119   1.364   0.382
 3535SOL     OW11347   1.975   1.030   1.720
 3535SOL    HW111348   1.899   1.004   1.772
 3535SOL    HW211349   2.050   0.989   1.765
 3536SOL     OW11350   2.557   0.261   1.504
 3536SOL    HW111351   2.623   0.205   1.462
 3536SOL    HW211352   2.583   0.265   1.595
 3537SOL     OW11353   1.901   0.442   0.007
 3537SOL    HW111354   1.869   0.354   0.027
 3537SOL    HW211355   1.897   0.448  13.812
 3538SOL     OW11356   3.285   0.856   1.397
 3538SOL    HW111357   3.235   0.918   1.344
 3538SOL    HW211358   3.374   0.859   1.360
 3539SOL     OW11359   1.943   0.142   0.368
 3539SOL    HW111360   1.914   0.225   0.330
 3539SOL    HW211361   2.032   0.130   0.335
 3540SOL     OW11362   3.049   1.343   0.122
 3540SOL    HW111363   2.954   1.336   0.111
 3540SOL    HW211364   3.062   1.332   0.216
 3541SOL     OW11365   2.484   0.829   1.434
 3541SOL    HW111366   2.541   0.904   1.419
 3541SOL    HW211367   2.545   0.755   1.443
 3542SOL     OW11368   3.344   1.785   0.982
 3542SOL    HW111369   3.367   1.848   0.914
 3542SOL    HW211370   3.428   1.752   1.014
 3543SOL     OW11371   2.580   0.560   1.704
 3543SOL    HW111372   2.623   0.622   1.762
 3543SOL    HW211373   2.603   0.473   1.738
 3544SOL     OW11374   3.335   1.195   1.629
 3544SOL    HW111375   3.324   1.211   1.723
 3544SOL    HW211376   3.428   1.212   1.613
 3545SOL     OW11377   2.235   1.739   1.577
 3545SOL    HW111378   2.176   1.752   1.503
 3545SOL    HW211379   2.196   1.667   1.626
 3546SOL     OW11380   3.525   0.880   1.259
 3546SOL    HW111381   3.524   0.795   1.215
 3546SOL    HW211382   3.518   0.944   1.188
 3547SOL     OW11383   3.092   0.335   0.432
 3547SOL    HW111384   3.155   0.263   0.427
 3547SOL    HW211385   3.108   0.375   0.517
 3548SOL     OW11386   2.449   0.734   0.672
 3548SOL    HW111387   2.488   0.821   0.659
 3548SOL    HW211388   2.383   0.727   0.603
 3549SOL     OW11389   3.615   0.381   1.642
 3549SOL    HW111390   3.595   0.390   1.549
 3549SOL    HW211391   3.554   0.314   1.673
 3550SOL     OW11392   3.617   0.930   1.513
 3550SOL    HW111393   3.606   1.023   1.531
 3550SOL    HW211394   3.592   0.920   1.421
 3551SOL     OW11395   2.773   1.396   0.070
 3551SOL    HW111396   2.706   1.387   0.137
 3551SOL    HW211397   2.725   1.401  13.887
 3552SOL     OW11398   2.525   1.792   0.934
 3552SOL    HW111399   2.518   1.887   0.933
 3552SOL    HW211400   2.619   1.775   0.934
 3553SOL     OW11401   2.731   0.970   0.854
 3553SOL    HW111402   2.781   0.898   0.892
 3553SOL    HW211403   2.693   1.015   0.929
 3554SOL     OW11404   2.959   1.015   0.113
 3554SOL    HW111405   2.950   1.061   0.029
 3554SOL    HW211406   3.033   0.956   0.099
 3555SOL     OW11407   3.712   1.555   0.840
 3555SOL    HW111408   3.632   1.541   0.789
 3555SOL    HW211409   3.709   1.489   0.909
 3556SOL     OW11410   2.089   1.296   1.851
 3556SOL    HW111411   2.023   1.232   1.827
 3556SOL    HW211412   2.068   1.319   1.942
 3557SOL     OW11413   1.944   1.210   0.664
 3557SOL    HW111414   1.966   1.169   0.747
 3557SOL    HW211415   2.022   1.197   0.609
 3558SOL     OW11416   2.544   1.406   1.628
 3558SOL    HW111417   2.468   1.363   1.667
 3558SOL    HW211418   2.544   1.494   1.666
 3559SOL     OW11419   3.675   0.181   1.244
 3559SOL    HW111420   3.677   0.086   1.253
 3559SOL    HW211421   3.694   0.197   1.151
 3560SOL     OW11422   2.293   0.435   0.533
 3560SOL    HW111423   2.326   0.363   0.480
 3560SOL    HW211424   2.244   0.392   0.603
 3561SOL     OW11425   3.557   1.490   1.094
 3561SOL    HW111426   3.479   1.469   1.043
 3561SOL    HW211427   3.565   1.419   1.158
 3562SOL     OW11428   2.195   0.557   1.295
 3562SOL    HW111429   2.247   0.497   1.349
 3562SOL    HW211430   2.214   0.531   1.205
 3563SOL     OW11431   2.693   1.577   0.676
 3563SOL    HW111432   2.672   1.638   0.605
 3563SOL    HW211433   2.618   1.517   0.678
 3564SOL     OW11434   3.322   0.254   1.109
 3564SOL    HW111435   3.337   0.166   1.145
 3564SOL    HW211436   3.267   0.297   1.174
 3565SOL     OW11437   2.865   0.026   1.145
 3565SOL    HW111438   2.782   3.998   1.107
 3565SOL    HW211439   2.915   3.945   1.155
 3566SOL     OW11440   2.640   1.321   0.323
 3566SOL    HW111441   2.611   1.231   0.340
 3566SOL    HW211442   2.722   1.330   0.373
 3567SOL     OW11443   2.485   1.553   1.285
 3567SOL    HW111444   2.483   1.634   1.335
 3567SOL    HW211445   2.573   1.549   1.248
 3568SOL     OW11446   3.179   0.066   0.123
 3568SOL    HW111447   3.195   3.975   0.098
 3568SOL    HW211448   3.119   0.061   0.197
 3569SOL     OW11449   3.139   0.453   0.681
 3569SOL    HW111450   3.094   0.537   0.675
 3569SOL    HW211451   3.144   0.436   0.775
 3570SOL     OW11452   3.453   0.210   0.867
 3570SOL    HW111453   3.404   0.233   0.946
 3570SOL    HW211454   3.451   0.289   0.814
 3571SOL     OW11455   1.902   1.068   0.312
 3571SOL    HW111456   1.998   1.065   0.312
 3571SOL    HW211457   1.876   0.978   0.332
 3572SOL     OW11458   2.761   1.657   0.343
 3572SOL    HW111459   2.686   1.626   0.292
 3572SOL    HW211460   2.726   1.729   0.395
 3573SOL     OW11461   2.087   0.618   1.983
 3573SOL    HW111462   1.997   0.629   2.015
 3573SOL    HW211463   2.077   0.599   1.890
 3574SOL     OW11464   2.079   0.302   2.854
 3574SOL    HW111465   2.116   0.258   2.931
 3574SOL    HW211466   1.993   0.260   2.841
 3575SOL     OW11467   1.870   0.399   2.494
 3575SOL    HW111468   1.784   0.414   2.533
 3575SOL    HW211469   1.855   0.331   2.428
 3576SOL     OW11470   2.430   1.293   3.041
 3576SOL    HW111471   2.345   1.298   2.998
 3576SOL    HW211472   2.448   1.383   3.070
 3577SOL     OW11473   3.429   1.514   2.570
 3577SOL    HW111474   3.386   1.491   2.653
 3577SOL    HW211475   3.357   1.519   2.507
 3578SOL     OW11476   2.995   0.698   2.557
 3578SOL    HW111477   3.043   0.781   2.545
 3578SOL    HW211478   2.947   0.710   2.639
 3579SOL     OW11479   3.626   0.624   2.087
 3579SOL    HW111480   3.606   0.611   1.994
 3579SOL    HW211481   3.605   0.540   2.127
 3580SOL     OW11482   2.612   1.138   2.908
 3580SOL    HW111483   2.544   1.175   2.965
 3580SOL    HW211484   2.650   1.214   2.864
 3581SOL     OW11485   2.735   0.766   3.686
 3581SOL    HW111486   2.721   0.836   3.750
 3581SOL    HW211487   2.757   0.811   3.605
 3582SOL     OW11488   2.548   0.998   2.506
 3582SOL    HW111489   2.614   0.990   2.575
 3582SOL    HW211490   2.479   1.052   2.544
 3583SOL     OW11491   2.577   1.149   3.680
 3583SOL    HW111492   2.625   1.226   3.710
 3583SOL    HW211493   2.496   1.184   3.644
 3584SOL     OW11494   2.189   1.420   2.929
 3584SOL    HW111495   2.117   1.381   2.880
 3584SOL    HW211496   2.238   1.471   2.864
 3585SOL     OW11497   3.320   1.502   3.222
 3585SOL    HW111498   3.375   1.580   3.231
 3585SOL    HW211499   3.253   1.511   3.289
 3586SOL     OW11500   2.308   0.391   3.352
 3586SOL    HW111501   2.400   0.363   3.353
 3586SOL    HW211502   2.259   0.309   3.362
 3587SOL     OW11503   3.472   0.450   2.597
 3587SOL    HW111504   3.404   0.483   2.538
 3587SOL    HW211505   3.491   0.523   2.656
 3588SOL     OW11506   2.100   1.693   2.345
 3588SOL    HW111507   2.064   1.780   2.361
 3588SOL    HW211508   2.174   1.708   2.286
 3589SOL     OW11509   3.000   1.342   3.556
 3589SOL    HW111510   3.041   1.336   3.642
 3589SOL    HW211511   2.947   1.262   3.549
 3590SOL     OW11512   2.093   1.430   2.402
 3590SOL    HW111513   2.092   1.526   2.394
 3590SOL    HW211514   2.031   1.411   2.472
 3591SOL     OW11515   2.126   1.091   2.753
 3591SOL    HW111516   2.122   1.002   2.788
 3591SOL    HW211517   2.069   1.142   2.811
 3592SOL     OW11518   2.471   1.782   3.296
 3592SOL    HW111519   2.393   1.769   3.349
 3592SOL    HW211520   2.495   1.874   3.310
 3593SOL     OW11521   2.442   0.984   2.000
 3593SOL    HW111522   2.491   1.029   1.931
 3593SOL    HW211523   2.481   1.016   2.082
 3594SOL     OW11524   3.445   0.143   3.318
 3594SOL    HW111525   3.473   0.215   3.261
 3594SOL    HW211526   3.405   0.186   3.393
 3595SOL     OW11527   1.981   0.658   2.423
 3595SOL    HW111528   1.953   0.569   2.446
 3595SOL    HW211529   1.972   0.708   2.504
 3596SOL     OW11530   3.703   1.757   2.197
 3596SOL    HW111531   3.773   1.733   2.257
 3596SOL    HW211532   3.720   1.849   2.176
 3597SOL     OW11533   1.941   1.578   1.963
 3597SOL    HW111534   1.902   1.501   2.004
 3597SOL    HW211535   1.872   1.644   1.964
 3598SOL     OW11536   3.551   0.919   2.510
 3598SOL    HW111537   3.634   0.875   2.494
 3598SOL    HW211538   3.533   0.968   2.430
 3599SOL     OW11539   3.505   1.103   2.294
 3599SOL    HW111540   3.589   1.108   2.250
 3599SOL    HW211541   3.511   1.167   2.365
 3600SOL     OW11542   1.985   0.751   3.441
 3600SOL    HW111543   2.075   0.783   3.445
 3600SOL    HW211544   1.931   0.829   3.447
 3601SOL     OW11545   2.479   1.390   2.596
 3601SOL    HW111546   2.433   1.306   2.604
 3601SOL    HW211547   2.461   1.418   2.506
 3602SOL     OW11548   3.148   1.236   3.283
 3602SOL    HW111549   3.180   1.169   3.223
 3602SOL    HW211550   3.207   1.232   3.358
 3603SOL     OW11551   2.683   0.006   2.380
 3603SOL    HW111552   2.729   0.086   2.353
 3603SOL    HW211553   2.590   0.030   2.379
 3604SOL     OW11554   2.050   0.961   3.137
 3604SOL    HW111555   2.136   0.921   3.123
 3604SOL    HW211556   1.992   0.914   3.078
 3605SOL     OW11557   3.390   0.997   2.063
 3605SOL    HW111558   3.320   0.941   2.097
 3605SOL    HW211559   3.432   1.032   2.142
 3606SOL     OW11560   3.048   1.811   3.487
 3606SOL    HW111561   3.055   1.871   3.412
 3606SOL    HW211562   3.065   1.724   3.450
 3607SOL     OW11563   2.222   0.251   3.712
 3607SOL    HW111564   2.267   0.335   3.713
 3607SOL    HW211565   2.129   0.273   3.712
 3608SOL     OW11566   3.329   1.420   2.810
 3608SOL    HW111567   3.262   1.435   2.877
 3608SOL    HW211568   3.317   1.328   2.785
 3609SOL     OW11569   3.513   1.750   2.441
 3609SOL    HW111570   3.498   1.716   2.352
 3609SOL    HW211571   3.495   1.676   2.498
 3610SOL     OW11572   2.456   0.719   2.131
 3610SOL    HW111573   2.460   0.802   2.086
 3610SOL    HW211574   2.392   0.732   2.201
 3611SOL     OW11575   3.136   0.371   2.803
 3611SOL    HW111576   3.049   0.332   2.811
 3611SOL    HW211577   3.194   0.310   2.848
 3612SOL     OW11578   3.439   1.672   2.173
 3612SOL    HW111579   3.530   1.700   2.165
 3612SOL    HW211580   3.412   1.656   2.082
 3613SOL     OW11581   2.658   0.615   3.313
 3613SOL    HW111582   2.630   0.589   3.400
 3613SOL    HW211583   2.621   0.548   3.255
 3614SOL     OW11584   3.254   0.475   3.539
 3614SOL    HW111585   3.260   0.521   3.623
 3614SOL    HW211586   3.310   0.399   3.550
 3615SOL     OW11587   2.812   0.887   3.448
 3615SOL    HW111588   2.868   0.819   3.410
 3615SOL    HW211589   2.764   0.923   3.373
 3616SOL     OW11590   2.856   0.401   3.098
 3616SOL    HW111591   2.770   0.421   3.136
 3616SOL    HW211592   2.837   0.376   3.008
 3617SOL     OW11593   2.915   0.700   2.286
 3617SOL    HW111594   2.932   0.693   2.380
 3617SOL    HW211595   2.831   0.654   2.274
 3618SOL     OW11596   1.948   0.823   2.639
 3618SOL    HW111597   2.029   0.816   2.691
 3618SOL    HW211598   1.904   0.899   2.675
 3619SOL     OW11599   2.758   0.353   2.062
 3619SOL    HW111600   2.800   0.413   2.000
 3619SOL    HW211601   2.748   0.271   2.014
 3620SOL     OW11602   3.567   0.572   3.692
 3620SOL    HW111603   3.531   0.647   3.644
 3620SOL    HW211604   3.594   0.511   3.624
 3621SOL     OW11605   3.239   1.141   2.401
 3621SOL    HW111606   3.320   1.130   2.350
 3621SOL    HW211607   3.188   1.204   2.352
 3622SOL     OW11608   2.421   0.199   2.742
 3622SOL    HW111609   2.423   0.218   2.836
 3622SOL    HW211610   2.417   0.285   2.700
 3623SOL     OW11611   2.863   1.443   2.331
 3623SOL    HW111612   2.831   1.517   2.281
 3623SOL    HW211613   2.840   1.464   2.422
 3624SOL     OW11614   2.251   1.814   2.687
 3624SOL    HW111615   2.251   1.719   2.700
 3624SOL    HW211616   2.325   1.845   2.739
 3625SOL     OW11617   3.668   1.062   2.731
 3625SOL    HW111618   3.615   1.035   2.655
 3625SOL    HW211619   3.606   1.065   2.803
 3626SOL     OW11620   3.089   1.540   3.375
 3626SOL    HW111621   3.077   1.467   3.437
 3626SOL    HW211622   3.021   1.527   3.309
 3627SOL     OW11623   2.179   0.961   2.116
 3627SOL    HW111624   2.261   0.980   2.071
 3627SOL    HW211625   2.150   0.877   2.078
 3628SOL     OW11626   3.343   0.749   2.589
 3628SOL    HW111627   3.338   0.709   2.676
 3628SOL    HW211628   3.420   0.806   2.593
 3629SOL     OW11629   2.335   1.265   3.607
 3629SOL    HW111630   2.309   1.267   3.515
 3629SOL    HW211631   2.252   1.261   3.655
 3630SOL     OW11632   2.988   1.777   2.092
 3630SOL    HW111633   2.911   1.738   2.135
 3630SOL    HW211634   3.011   1.715   2.023
 3631SOL     OW11635   2.029   0.273   3.362
 3631SOL    HW111636   1.978   0.353   3.347
 3631SOL    HW211637   2.033   0.265   3.457
 3632SOL     OW11638   3.486   1.385   1.949
 3632SOL    HW111639   3.443   1.469   1.935
 3632SOL    HW211640   3.419   1.319   1.929
 3633SOL     OW11641   2.333   1.725   2.199
 3633SOL    HW111642   2.381   1.791   2.249
 3633SOL    HW211643   2.392   1.703   2.126
 3634SOL     OW11644   3.298   0.174   2.264
 3634SOL    HW111645   3.249   0.099   2.231
 3634SOL    HW211646   3.373   0.136   2.310
 3635SOL     OW11647   2.125   1.735   3.116
 3635SOL    HW111648   2.160   1.651   3.147
 3635SOL    HW211649   2.133   1.729   3.021
 3636SOL     OW11650   2.799   1.698   2.759
 3636SOL    HW111651   2.878   1.650   2.781
 3636SOL    HW211652   2.759   1.648   2.688
 3637SOL     OW11653   2.258   0.695   2.335
 3637SOL    HW111654   2.275   0.602   2.348
 3637SOL    HW211655   2.165   0.706   2.353
 3638SOL     OW11656   3.392   0.228   3.589
 3638SOL    HW111657   3.382   0.253   3.681
 3638SOL    HW211658   3.378   0.133   3.588
 3639SOL     OW11659   2.507   0.127   1.972
 3639SOL    HW111660   2.526   0.042   2.010
 3639SOL    HW211661   2.444   0.108   1.902
 3640SOL     OW11662   2.635   0.283   3.633
 3640SOL    HW111663   2.712   0.225   3.636
 3640SOL    HW211664   2.580   0.252   3.705
 3641SOL     OW11665   2.739   1.523   3.055
 3641SOL    HW111666   2.723   1.485   2.969
 3641SOL    HW211667   2.809   1.469   3.092
 3642SOL     OW11668   3.201   0.587   3.293
 3642SOL    HW111669   3.232   0.559   3.379
 3642SOL    HW211670   3.235   0.676   3.283
 3643SOL     OW11671   2.680   1.390   2.807
 3643SOL    HW111672   2.764   1.379   2.764
 3643SOL    HW211673   2.617   1.395   2.735
 3644SOL     OW11674   2.792   0.512   2.761
 3644SOL    HW111675   2.767   0.503   2.669
 3644SOL    HW211676   2.818   0.423   2.787
 3645SOL     OW11677   2.406   0.056   2.352
 3645SOL    HW111678   2.332   0.061   2.413
 3645SOL    HW211679   2.402   0.137   2.301
 3646SOL     OW11680   3.289   1.200   1.901
 3646SOL    HW111681   3.318   1.125   1.953
 3646SOL    HW211682   3.204   1.223   1.939
 3647SOL     OW11683   2.193   0.045   2.074
 3647SOL    HW111684   2.199   0.110   2.004
 3647SOL    HW211685   2.273   0.058   2.125
 3648SOL     OW11686   2.806   0.251   2.320
 3648SOL    HW111687   2.781   0.290   2.236
 3648SOL    HW211688   2.901   0.257   2.322
 3649SOL     OW11689   2.942   0.685   3.320
 3649SOL    HW111690   2.872   0.620   3.326
 3649SOL    HW211691   3.022   0.634   3.315
 3650SOL     OW11692   3.082   1.572   2.657
 3650SOL    HW111693   3.097   1.637   2.588
 3650SOL    HW211694   3.152   1.588   2.720
 3651SOL     OW11695   2.335   1.152   2.591
 3651SOL    HW111696   2.267   1.133   2.656
 3651SOL    HW211697   2.292   1.139   2.506
 3652SOL     OW11698   3.128   1.792   2.474
 3652SOL    HW111699   3.176   1.853   2.418
 3652SOL    HW211700   3.060   1.846   2.514
 3653SOL     OW11701   2.883   0.540   1.892
 3653SOL    HW111702   2.839   0.623   1.873
 3653SOL    HW211703   2.947   0.562   1.960
 3654SOL     OW11704   1.946   0.549   3.259
 3654SOL    HW111705   2.037   0.552   3.229
 3654SOL    HW211706   1.938   0.622   3.320
 3655SOL     OW11707   2.424   0.231   3.022
 3655SOL    HW111708   2.447   0.138   3.032
 3655SOL    HW211709   2.335   0.237   3.056
 3656SOL     OW11710   2.732   0.460   2.499
 3656SOL    HW111711   2.685   0.515   2.436
 3656SOL    HW211712   2.753   0.381   2.450
 3657SOL     OW11713   2.859   0.038   2.643
 3657SOL    HW111714   2.820   0.069   2.562
 3657SOL    HW211715   2.871   3.944   2.630
 3658SOL     OW11716   3.303   1.160   2.720
 3658SOL    HW111717   3.230   1.099   2.718
 3658SOL    HW211718   3.328   1.170   2.628
 3659SOL     OW11719   3.325   0.609   2.833
 3659SOL    HW111720   3.270   0.531   2.838
 3659SOL    HW211721   3.385   0.602   2.908
 3660SOL     OW11722   3.722   0.825   2.237
 3660SOL    HW111723   3.763   0.767   2.302
 3660SOL    HW211724   3.684   0.765   2.172
 3661SOL     OW11725   2.353   1.421   2.016
 3661SOL    HW111726   2.277   1.395   2.068
 3661SOL    HW211727   2.345   1.371   1.935
 3662SOL     OW11728   3.531   1.266   2.504
 3662SOL    HW111729   3.626   1.268   2.514
 3662SOL    HW211730   3.502   1.355   2.525
 3663SOL     OW11731   3.257   0.577   1.930
 3663SOL    HW111732   3.193   0.558   1.999
 3663SOL    HW211733   3.342   0.563   1.972
 3664SOL     OW11734   2.388   0.266   2.177
 3664SOL    HW111735   2.444   0.228   2.110
 3664SOL    HW211736   2.358   0.349   2.139
 3665SOL     OW11737   3.612   1.233   3.424
 3665SOL    HW111738   3.700   1.198   3.407
 3665SOL    HW211739   3.627   1.322   3.454
 3666SOL     OW11740   2.917   1.353   3.193
 3666SOL    HW111741   2.842   1.322   3.244
 3666SOL    HW211742   2.993   1.312   3.235
 3667SOL     OW11743   3.468   1.629   3.519
 3667SOL    HW111744   3.459   1.664   3.431
 3667SOL    HW211745   3.548   1.576   3.517
 3668SOL     OW11746   2.995   1.208   2.964
 3668SOL    HW111747   2.936   1.246   3.029
 3668SOL    HW211748   2.965   1.243   2.881
 3669SOL     OW11749   3.488   1.094   2.936
 3669SOL    HW111750   3.479   1.157   3.008
 3669SOL    HW211751   3.413   1.112   2.880
 3670SOL     OW11752   2.774   0.118   3.263
 3670SOL    HW111753   2.793   0.089   3.174
 3670SOL    HW211754   2.854   0.160   3.293
 3671SOL     OW11755   2.847   1.115   3.586
 3671SOL    HW111756   2.755   1.132   3.610
 3671SOL    HW211757   2.843   1.037   3.531
 3672SOL     OW11758   2.571   1.063   2.232
 3672SOL    HW111759   2.557   1.043   2.325
 3672SOL    HW211760   2.647   1.009   2.208
 3673SOL     OW11761   2.283   0.817   3.114
 3673SOL    HW111762   2.352   0.825   3.180
 3673SOL    HW211763   2.248   0.729   3.127
 3674SOL     OW11764   3.128   0.375   3.139
 3674SOL    HW111765   3.161   0.453   3.183
 3674SOL    HW211766   3.041   0.399   3.109
 3675SOL     OW11767   2.206   1.115   2.351
 3675SOL    HW111768   2.205   1.191   2.293
 3675SOL    HW211769   2.202   1.040   2.292
 3676SOL     OW11770   2.415   0.529   2.717
 3676SOL    HW111771   2.428   0.590   2.644
 3676SOL    HW211772   2.480   0.556   2.782
 3677SOL     OW11773   3.109   1.349   2.252
 3677SOL    HW111774   3.165   1.421   2.284
 3677SOL    HW211775   3.022   1.370   2.285
 3678SOL     OW11776   3.149   1.460   3.010
 3678SOL    HW111777   3.205   1.465   3.088
 3678SOL    HW211778   3.094   1.384   3.025
 3679SOL     OW11779   3.432   0.634   2.349
 3679SOL    HW111780   3.389   0.686   2.417
 3679SOL    HW211781   3.478   0.697   2.295
 3680SOL     OW11782   2.221   1.492   3.182
 3680SOL    HW111783   2.207   1.462   3.092
 3680SOL    HW211784   2.314   1.515   3.185
 3681SOL     OW11785   2.282   0.744   3.465
 3681SOL    HW111786   2.343   0.789   3.406
 3681SOL    HW211787   2.324   0.660   3.484
 3682SOL     OW11788   3.468   0.779   3.547
 3682SOL    HW111789   3.382   0.822   3.541
 3682SOL    HW211790   3.521   0.822   3.480
 3683SOL     OW11791   2.870   0.138   3.643
 3683SOL    HW111792   2.926   0.207   3.608
 3683SOL    HW211793   2.856   0.079   3.569
 3684SOL     OW11794   2.352   0.034   3.623
 3684SOL    HW111795   2.352   0.050   3.528
 3684SOL    HW211796   2.292   0.101   3.658
 3685SOL     OW11797   2.447   0.874   2.894
 3685SOL    HW111798   2.477   0.965   2.896
 3685SOL    HW211799   2.389   0.867   2.970
 3686SOL     OW11800   3.211   0.859   2.885
 3686SOL    HW111801   3.126   0.845   2.845
 3686SOL    HW211802   3.256   0.775   2.877
 3687SOL     OW11803   3.061   0.538   2.117
 3687SOL    HW111804   3.068   0.459   2.171
 3687SOL    HW211805   3.018   0.602   2.175
 3688SOL     OW11806   2.160   0.208   3.105
 3688SOL    HW111807   2.117   0.237   3.186
 3688SOL    HW211808   2.149   0.113   3.105
 3689SOL     OW11809   1.909   1.336   3.155
 3689SOL    HW111810   1.936   1.265   3.215
 3689SOL    HW211811   1.984   1.395   3.154
 3690SOL     OW11812   2.582   0.631   2.912
 3690SOL    HW111813   2.659   0.620   2.856
 3690SOL    HW211814   2.552   0.720   2.895
 3691SOL     OW11815   3.594   0.957   3.727
 3691SOL    HW111816   3.552   0.893   3.670
 3691SOL    HW211817   3.529   0.973   3.796
 3692SOL     OW11818   2.185   0.054   2.517
 3692SOL    HW111819   2.165   0.147   2.528
 3692SOL    HW211820   2.155   0.013   2.598
 3693SOL     OW11821   3.476   0.395   2.240
 3693SOL    HW111822   3.434   0.326   2.292
 3693SOL    HW211823   3.454   0.476   2.286
 3694SOL     OW11824   2.893   0.759   2.820
 3694SOL    HW111825   2.884   0.776   2.913
 3694SOL    HW211826   2.865   0.668   2.809
 3695SOL     OW11827   2.845   1.567   3.583
 3695SOL    HW111828   2.828   1.610   3.499
 3695SOL    HW211829   2.888   1.484   3.559
 3696SOL     OW11830   3.704   1.495   3.459
 3696SOL    HW111831   3.728   1.526   3.372
 3696SOL    HW211832   3.784   1.505   3.511
 3697SOL     OW11833   2.213   0.916   3.671
 3697SOL    HW111834   2.293   0.936   3.718
 3697SOL    HW211835   2.240   0.853   3.604
 3698SOL     OW11836   3.361   0.272   1.995
 3698SOL    HW111837   3.288   0.210   2.005
 3698SOL    HW211838   3.372   0.311   2.081
 3699SOL     OW11839   3.148   0.827   1.889
 3699SOL    HW111840   3.191   0.741   1.893
 3699SOL    HW211841   3.181   0.866   1.808
 3700SOL     OW11842   2.930   1.338   2.719
 3700SOL    HW111843   2.935   1.266   2.656
 3700SOL    HW211844   2.989   1.405   2.683
 3701SOL     OW11845   2.170   0.810   2.807
 3701SOL    HW111846   2.263   0.831   2.801
 3701SOL    HW211847   2.167   0.720   2.839
 3702SOL     OW11848   2.198   0.537   2.876
 3702SOL    HW111849   2.157   0.453   2.861
 3702SOL    HW211850   2.274   0.537   2.818
 3703SOL     OW11851   2.995   0.379   3.561
 3703SOL    HW111852   2.946   0.434   3.622
 3703SOL    HW211853   3.081   0.420   3.556
 3704SOL     OW11854   3.014   0.226   3.343
 3704SOL    HW111855   3.004   0.279   3.422
 3704SOL    HW211856   3.040   0.288   3.275
 3705SOL     OW11857   1.867   1.319   2.056
 3705SOL    HW111858   1.779   1.334   2.019
 3705SOL    HW211859   1.863   1.230   2.091
 3706SOL     OW11860   2.358   1.568   2.772
 3706SOL    HW111861   2.424   1.635   2.791
 3706SOL    HW211862   2.402   1.508   2.711
 3707SOL     OW11863   2.838   0.786   3.084
 3707SOL    HW111864   2.895   0.769   3.159
 3707SOL    HW211865   2.753   0.751   3.111
 3708SOL     OW11866   1.895   0.548   2.979
 3708SOL    HW111867   1.969   0.524   2.924
 3708SOL    HW211868   1.930   0.547   3.068
 3709SOL     OW11869   2.066   0.527   3.573
 3709SOL    HW111870   2.138   0.507   3.514
 3709SOL    HW211871   2.023   0.603   3.534
 3710SOL     OW11872   3.243   0.934   3.519
 3710SOL    HW111873   3.264   1.028   3.516
 3710SOL    HW211874   3.238   0.908   3.427
 3711SOL     OW11875   2.679   0.572   2.228
 3711SOL    HW111876   2.685   0.498   2.169
 3711SOL    HW211877   2.604   0.623   2.196
 3712SOL     OW11878   3.500   0.602   3.043
 3712SOL    HW111879   3.490   0.542   3.116
 3712SOL    HW211880   3.587   0.582   3.007
 3713SOL     OW11881   2.087   1.558   3.600
 3713SOL    HW111882   2.048   1.589   3.682
 3713SOL    HW211883   2.116   1.469   3.619
 3714SOL     OW11884   2.574   0.451   3.115
 3714SOL    HW111885   2.521   0.375   3.092
 3714SOL    HW211886   2.563   0.511   3.041
 3715SOL     OW11887   2.788   1.677   3.332
 3715SOL    HW111888   2.760   1.640   3.248
 3715SOL    HW211889   2.782   1.772   3.319
 3716SOL     OW11890   2.324   0.493   2.043
 3716SOL    HW111891   2.381   0.565   2.068
 3716SOL    HW211892   2.238   0.534   2.031
 3717SOL     OW11893   2.002   1.141   3.332
 3717SOL    HW111894   2.005   1.093   3.415
 3717SOL    HW211895   2.019   1.074   3.265
 3718SOL     OW11896   3.182   1.043   3.083
 3718SOL    HW111897   3.205   0.981   3.014
 3718SOL    HW211898   3.116   1.100   3.043
 3719SOL     OW11899   3.177   0.854   2.166
 3719SOL    HW111900   3.102   0.827   2.218
 3719SOL    HW211901   3.148   0.843   2.075
 3720SOL     OW11902   3.645   1.739   3.021
 3720SOL    HW111903   3.700   1.767   2.948
 3720SOL    HW211904   3.614   1.652   2.997
 3721SOL     OW11905   3.102   1.733   2.969
 3721SOL    HW111906   3.185   1.757   2.927
 3721SOL    HW211907   3.111   1.640   2.989
 3722SOL     OW11908   1.953   1.251   2.890
 3722SOL    HW111909   1.922   1.275   2.978
 3722SOL    HW211910   1.876   1.216   2.846
 3723SOL     OW11911   2.542   1.667   3.597
 3723SOL    HW111912   2.486   1.744   3.601
 3723SOL    HW211913   2.606   1.686   3.529
 3724SOL     OW11914   3.549   0.118   2.350
 3724SOL    HW111915   3.630   0.135   2.302
 3724SOL    HW211916   3.553   0.025   2.372
 3725SOL     OW11917   3.253   1.567   2.352
 3725SOL    HW111918   3.312   1.601   2.284
 3725SOL    HW211919   3.203   1.644   2.380
 3726SOL     OW11920   3.139   0.927   2.532
 3726SOL    HW111921   3.214   0.869   2.544
 3726SOL    HW211922   3.173   1.000   2.480
 3727SOL     OW11923   2.669   1.275   3.287
 3727SOL    HW111924   2.641   1.316   3.369
 3727SOL    HW211925   2.600   1.297   3.225
 3728SOL     OW11926   2.533   1.625   2.016
 3728SOL    HW111927   2.546   1.637   1.922
 3728SOL    HW211928   2.477   1.548   2.023
 3729SOL     OW11929   3.480   1.727   3.253
 3729SOL    HW111930   3.536   1.732   3.176
 3729SOL    HW211931   3.467   1.819   3.278
 3730SOL     OW11932   3.704   0.182   2.833
 3730SOL    HW111933   3.728   0.097   2.796
 3730SOL    HW211934   3.618   0.201   2.796
 3731SOL     OW11935   2.125   0.315   2.576
 3731SOL    HW111936   2.038   0.350   2.554
 3731SOL    HW211937   2.124   0.309   2.672
 3732SOL     OW11938   3.070   1.602   1.894
 3732SOL    HW111939   3.059   1.511   1.921
 3732SOL    HW211940   3.004   1.616   1.827
 3733SOL     OW11941   2.686   1.006   3.236
 3733SOL    HW111942   2.727   1.002   3.149
 3733SOL    HW211943   2.682   1.100   3.256
 3734SOL     OW11944   2.778   0.910   2.152
 3734SOL    HW111945   2.838   0.944   2.086
 3734SOL    HW211946   2.827   0.843   2.198
 3735SOL     OW11947   3.350   1.630   1.906
 3735SOL    HW111948   3.256   1.620   1.891
 3735SOL    HW211949   3.388   1.636   1.818
 3736SOL     OW11950   2.230   1.293   3.365
 3736SOL    HW111951   2.228   1.365   3.302
 3736SOL    HW211952   2.152   1.241   3.345
 3737SOL     OW11953   3.461   1.280   3.138
 3737SOL    HW111954   3.529   1.270   3.205
 3737SOL    HW211955   3.404   1.349   3.172
 3738SOL     OW11956   2.921   1.110   2.572
 3738SOL    HW111957   2.849   1.060   2.609
 3738SOL    HW211958   2.984   1.044   2.544
 3739SOL     OW11959   2.877   0.250   2.832
 3739SOL    HW111960   2.867   0.199   2.752
 3739SOL    HW211961   2.874   0.184   2.902
 3740SOL     OW11962   2.467   1.491   2.342
 3740SOL    HW111963   2.511   1.441   2.273
 3740SOL    HW211964   2.398   1.539   2.297
 3741SOL     OW11965   3.583   0.395   3.233
 3741SOL    HW111966   3.655   0.458   3.234
 3741SOL    HW211967   3.614   0.322   3.179
 3742SOL     OW11968   2.123   1.340   2.152
 3742SOL    HW111969   2.031   1.339   2.128
 3742SOL    HW211970   2.124   1.377   2.241
 3743SOL     OW11971   1.975   1.030   3.582
 3743SOL    HW111972   1.899   1.004   3.634
 3743SOL    HW211973   2.050   0.989   3.627
 3744SOL     OW11974   2.557   0.261   3.366
 3744SOL    HW111975   2.623   0.205   3.324
 3744SOL    HW211976   2.583   0.265   3.457
 3745SOL     OW11977   1.964   0.317   1.854
 3745SOL    HW111978   1.897   0.336   1.920
 3745SOL    HW211979   1.970   0.397   1.802
 3746SOL     OW11980   3.285   0.856   3.259
 3746SOL    HW111981   3.235   0.918   3.206
 3746SOL    HW211982   3.374   0.859   3.222
 3747SOL     OW11983   1.942   0.150   2.201
 3747SOL    HW111984   1.911   0.209   2.132
 3747SOL    HW211985   2.029   0.124   2.172
 3748SOL     OW11986   3.040   1.336   1.980
 3748SOL    HW111987   2.949   1.306   1.982
 3748SOL    HW211988   3.067   1.337   2.072
 3749SOL     OW11989   2.484   0.828   3.296
 3749SOL    HW111990   2.541   0.904   3.281
 3749SOL    HW211991   2.545   0.755   3.305
 3750SOL     OW11992   3.344   1.784   2.843
 3750SOL    HW111993   3.367   1.849   2.776
 3750SOL    HW211994   3.428   1.753   2.876
 3751SOL     OW11995   2.580   0.560   3.565
 3751SOL    HW111996   2.623   0.622   3.624
 3751SOL    HW211997   2.603   0.474   3.600
 3752SOL     OW11998   3.335   1.195   3.491
 3752SOL    HW111999   3.324   1.211   3.585
 3752SOL    HW212000   3.428   1.212   3.475
 3753SOL     OW12001   2.236   1.737   3.440
 3753SOL    HW112002   2.176   1.748   3.366
 3753SOL    HW212003   2.198   1.665   3.491
 3754SOL     OW12004   3.525   0.880   3.121
 3754SOL    HW112005   3.524   0.795   3.077
 3754SOL    HW212006   3.518   0.944   3.050
 3755SOL     OW12007   3.081   0.339   2.303
 3755SOL    HW112008   3.151   0.274   2.294
 3755SOL    HW212009   3.100   0.383   2.386
 3756SOL     OW12010   2.450   0.735   2.534
 3756SOL    HW112011   2.489   0.821   2.520
 3756SOL    HW212012   2.385   0.727   2.465
 3757SOL     OW12013   3.615   0.381   3.504
 3757SOL    HW112014   3.595   0.390   3.411
 3757SOL    HW212015   3.554   0.314   3.535
 3758SOL     OW12016   3.617   0.930   3.375
 3758SOL    HW112017   3.606   1.023   3.393
 3758SOL    HW212018   3.592   0.920   3.283
 3759SOL     OW12019   2.725   1.366   1.902
 3759SOL    HW112020   2.687   1.392   1.987
 3759SOL    HW212021   2.741   1.448   1.857
 3760SOL     OW12022   2.524   1.792   2.796
 3760SOL    HW112023   2.518   1.888   2.792
 3760SOL    HW212024   2.619   1.775   2.796
 3761SOL     OW12025   2.731   0.970   2.716
 3761SOL    HW112026   2.781   0.898   2.754
 3761SOL    HW212027   2.693   1.015   2.791
 3762SOL     OW12028   2.940   0.989   1.952
 3762SOL    HW112029   2.918   1.041   1.874
 3762SOL    HW212030   3.013   0.935   1.924
 3763SOL     OW12031   3.712   1.556   2.703
 3763SOL    HW112032   3.632   1.540   2.652
 3763SOL    HW212033   3.711   1.488   2.770
 3764SOL     OW12034   2.089   1.297   3.714
 3764SOL    HW112035   2.023   1.232   3.689
 3764SOL    HW212036   2.070   1.318   3.805
 3765SOL     OW12037   1.944   1.213   2.525
 3765SOL    HW112038   1.966   1.173   2.609
 3765SOL    HW212039   2.019   1.193   2.469
 3766SOL     OW12040   2.544   1.406   3.490
 3766SOL    HW112041   2.468   1.363   3.529
 3766SOL    HW212042   2.544   1.494   3.528
 3767SOL     OW12043   3.675   0.181   3.106
 3767SOL    HW112044   3.677   0.086   3.115
 3767SOL    HW212045   3.694   0.197   3.014
 3768SOL     OW12046   2.290   0.435   2.387
 3768SOL    HW112047   2.325   0.363   2.334
 3768SOL    HW212048   2.242   0.391   2.458
 3769SOL     OW12049   3.557   1.490   2.957
 3769SOL    HW112050   3.479   1.469   2.906
 3769SOL    HW212051   3.565   1.419   3.020
 3770SOL     OW12052   2.195   0.557   3.157
 3770SOL    HW112053   2.247   0.498   3.211
 3770SOL    HW212054   2.214   0.531   3.067
 3771SOL     OW12055   2.693   1.577   2.538
 3771SOL    HW112056   2.673   1.637   2.466
 3771SOL    HW212057   2.618   1.517   2.540
 3772SOL     OW12058   3.323   0.254   2.972
 3772SOL    HW112059   3.337   0.166   3.007
 3772SOL    HW212060   3.267   0.297   3.037
 3773SOL     OW12061   2.865   0.026   3.008
 3773SOL    HW112062   2.782   3.998   2.969
 3773SOL    HW212063   2.915   3.945   3.017
 3774SOL     OW12064   2.637   1.333   2.180
 3774SOL    HW112065   2.607   1.243   2.188
 3774SOL    HW212066   2.717   1.338   2.232
 3775SOL     OW12067   2.485   1.553   3.147
 3775SOL    HW112068   2.483   1.634   3.197
 3775SOL    HW212069   2.573   1.549   3.110
 3776SOL     OW12070   3.170   0.070   2.021
 3776SOL    HW112071   3.173   3.983   1.980
 3776SOL    HW212072   3.087   0.070   2.069
 3777SOL     OW12073   3.141   0.456   2.546
 3777SOL    HW112074   3.095   0.540   2.540
 3777SOL    HW212075   3.144   0.437   2.640
 3778SOL     OW12076   3.453   0.210   2.729
 3778SOL    HW112077   3.405   0.234   2.808
 3778SOL    HW212078   3.451   0.289   2.675
 3779SOL     OW12079   1.905   1.068   2.168
 3779SOL    HW112080   1.999   1.062   2.151
 3779SOL    HW212081   1.878   0.980   2.193
 3780SOL     OW12082   2.751   1.656   2.199
 3780SOL    HW112083   2.676   1.641   2.142
 3780SOL    HW212084   2.725   1.730   2.254
 3781SOL     OW12085   2.087   0.618   3.845
 3781SOL    HW112086   1.997   0.629   3.877
 3781SOL    HW212087   2.077   0.599   3.752
 3782SOL     OW12088   2.079   0.302   4.716
 3782SOL    HW112089   2.116   0.258   4.792
 3782SOL    HW212090   1.993   0.260   4.703
 3783SOL     OW12091   1.870   0.399   4.356
 3783SOL    HW112092   1.784   0.414   4.395
 3783SOL    HW212093   1.855   0.331   4.290
 3784SOL     OW12094   2.430   1.294   4.903
 3784SOL    HW112095   2.344   1.299   4.860
 3784SOL    HW212096   2.448   1.383   4.933
 3785SOL     OW12097   3.429   1.514   4.432
 3785SOL    HW112098   3.386   1.491   4.515
 3785SOL    HW212099   3.357   1.519   4.369
 3786SOL     OW12100   2.995   0.698   4.419
 3786SOL    HW112101   3.043   0.780   4.407
 3786SOL    HW212102   2.947   0.710   4.501
 3787SOL     OW12103   3.626   0.624   3.949
 3787SOL    HW112104   3.606   0.611   3.856
 3787SOL    HW212105   3.604   0.540   3.989
 3788SOL     OW12106   2.611   1.138   4.770
 3788SOL    HW112107   2.544   1.175   4.827
 3788SOL    HW212108   2.650   1.214   4.726
 3789SOL     OW12109   2.734   0.766   5.548
 3789SOL    HW112110   2.719   0.837   5.611
 3789SOL    HW212111   2.756   0.811   5.467
 3790SOL     OW12112   2.548   0.998   4.368
 3790SOL    HW112113   2.614   0.990   4.437
 3790SOL    HW212114   2.479   1.052   4.406
 3791SOL     OW12115   2.576   1.149   5.540
 3791SOL    HW112116   2.624   1.226   5.569
 3791SOL    HW212117   2.494   1.183   5.505
 3792SOL     OW12118   2.190   1.420   4.791
 3792SOL    HW112119   2.117   1.382   4.742
 3792SOL    HW212120   2.238   1.472   4.726
 3793SOL     OW12121   3.320   1.502   5.084
 3793SOL    HW112122   3.375   1.580   5.094
 3793SOL    HW212123   3.253   1.511   5.151
 3794SOL     OW12124   2.308   0.391   5.214
 3794SOL    HW112125   2.400   0.363   5.215
 3794SOL    HW212126   2.259   0.309   5.224
 3795SOL     OW12127   3.472   0.450   4.459
 3795SOL    HW112128   3.404   0.483   4.400
 3795SOL    HW212129   3.491   0.523   4.518
 3796SOL     OW12130   2.100   1.695   4.207
 3796SOL    HW112131   2.062   1.782   4.217
 3796SOL    HW212132   2.173   1.707   4.147
 3797SOL     OW12133   3.000   1.342   5.417
 3797SOL    HW112134   3.039   1.337   5.504
 3797SOL    HW212135   2.947   1.262   5.410
 3798SOL     OW12136   2.092   1.431   4.264
 3798SOL    HW112137   2.091   1.527   4.256
 3798SOL    HW212138   2.030   1.412   4.334
 3799SOL     OW12139   2.126   1.091   4.615
 3799SOL    HW112140   2.122   1.002   4.650
 3799SOL    HW212141   2.068   1.142   4.673
 3800SOL     OW12142   2.471   1.783   5.156
 3800SOL    HW112143   2.394   1.769   5.212
 3800SOL    HW212144   2.495   1.875   5.172
 3801SOL     OW12145   2.442   0.984   3.862
 3801SOL    HW112146   2.491   1.030   3.793
 3801SOL    HW212147   2.481   1.016   3.944
 3802SOL     OW12148   3.445   0.143   5.180
 3802SOL    HW112149   3.473   0.215   5.123
 3802SOL    HW212150   3.405   0.186   5.255
 3803SOL     OW12151   1.981   0.658   4.285
 3803SOL    HW112152   1.953   0.569   4.309
 3803SOL    HW212153   1.972   0.708   4.366
 3804SOL     OW12154   3.703   1.757   4.059
 3804SOL    HW112155   3.773   1.733   4.119
 3804SOL    HW212156   3.720   1.849   4.038
 3805SOL     OW12157   1.941   1.577   3.828
 3805SOL    HW112158   1.904   1.497   3.866
 3805SOL    HW212159   1.868   1.639   3.829
 3806SOL     OW12160   3.551   0.919   4.372
 3806SOL    HW112161   3.634   0.875   4.355
 3806SOL    HW212162   3.533   0.968   4.292
 3807SOL     OW12163   3.505   1.103   4.156
 3807SOL    HW112164   3.589   1.108   4.112
 3807SOL    HW212165   3.510   1.167   4.227
 3808SOL     OW12166   1.985   0.751   5.303
 3808SOL    HW112167   2.075   0.783   5.307
 3808SOL    HW212168   1.931   0.829   5.309
 3809SOL     OW12169   2.478   1.390   4.458
 3809SOL    HW112170   2.433   1.306   4.467
 3809SOL    HW212171   2.460   1.418   4.368
 3810SOL     OW12172   3.148   1.237   5.145
 3810SOL    HW112173   3.180   1.169   5.085
 3810SOL    HW212174   3.207   1.232   5.220
 3811SOL     OW12175   2.683   0.006   4.242
 3811SOL    HW112176   2.729   0.086   4.215
 3811SOL    HW212177   2.590   0.030   4.241
 3812SOL     OW12178   2.050   0.960   4.999
 3812SOL    HW112179   2.136   0.921   4.985
 3812SOL    HW212180   1.992   0.914   4.939
 3813SOL     OW12181   3.390   0.997   3.925
 3813SOL    HW112182   3.320   0.940   3.959
 3813SOL    HW212183   3.432   1.032   4.004
 3814SOL     OW12184   3.052   1.812   5.349
 3814SOL    HW112185   3.056   1.871   5.273
 3814SOL    HW212186   3.066   1.725   5.312
 3815SOL     OW12187   2.222   0.250   5.574
 3815SOL    HW112188   2.267   0.335   5.575
 3815SOL    HW212189   2.129   0.273   5.574
 3816SOL     OW12190   3.329   1.420   4.672
 3816SOL    HW112191   3.262   1.435   4.739
 3816SOL    HW212192   3.317   1.328   4.647
 3817SOL     OW12193   3.514   1.750   4.303
 3817SOL    HW112194   3.498   1.716   4.214
 3817SOL    HW212195   3.495   1.676   4.360
 3818SOL     OW12196   2.456   0.719   3.993
 3818SOL    HW112197   2.460   0.803   3.948
 3818SOL    HW212198   2.392   0.732   4.063
 3819SOL     OW12199   3.136   0.371   4.665
 3819SOL    HW112200   3.049   0.333   4.673
 3819SOL    HW212201   3.194   0.310   4.710
 3820SOL     OW12202   3.439   1.672   4.035
 3820SOL    HW112203   3.530   1.700   4.027
 3820SOL    HW212204   3.411   1.656   3.944
 3821SOL     OW12205   2.658   0.615   5.175
 3821SOL    HW112206   2.630   0.589   5.262
 3821SOL    HW212207   2.621   0.548   5.117
 3822SOL     OW12208   3.254   0.475   5.401
 3822SOL    HW112209   3.260   0.521   5.485
 3822SOL    HW212210   3.310   0.399   5.412
 3823SOL     OW12211   2.812   0.886   5.309
 3823SOL    HW112212   2.867   0.819   5.271
 3823SOL    HW212213   2.764   0.923   5.235
 3824SOL     OW12214   2.856   0.401   4.960
 3824SOL    HW112215   2.770   0.421   4.998
 3824SOL    HW212216   2.837   0.376   4.870
 3825SOL     OW12217   2.915   0.700   4.148
 3825SOL    HW112218   2.932   0.693   4.242
 3825SOL    HW212219   2.831   0.654   4.136
 3826SOL     OW12220   1.948   0.823   4.501
 3826SOL    HW112221   2.029   0.816   4.553
 3826SOL    HW212222   1.903   0.899   4.537
 3827SOL     OW12223   2.758   0.353   3.924
 3827SOL    HW112224   2.800   0.413   3.862
 3827SOL    HW212225   2.748   0.271   3.876
 3828SOL     OW12226   3.567   0.572   5.554
 3828SOL    HW112227   3.531   0.647   5.506
 3828SOL    HW212228   3.594   0.511   5.486
 3829SOL     OW12229   3.239   1.141   4.263
 3829SOL    HW112230   3.319   1.130   4.212
 3829SOL    HW212231   3.188   1.204   4.214
 3830SOL     OW12232   2.421   0.199   4.604
 3830SOL    HW112233   2.423   0.219   4.698
 3830SOL    HW212234   2.417   0.285   4.562
 3831SOL     OW12235   2.863   1.443   4.193
 3831SOL    HW112236   2.831   1.518   4.142
 3831SOL    HW212237   2.840   1.464   4.284
 3832SOL     OW12238   2.250   1.816   4.544
 3832SOL    HW112239   2.250   1.721   4.557
 3832SOL    HW212240   2.322   1.848   4.598
 3833SOL     OW12241   3.668   1.062   4.592
 3833SOL    HW112242   3.615   1.035   4.517
 3833SOL    HW212243   3.606   1.065   4.665
 3834SOL     OW12244   3.090   1.539   5.237
 3834SOL    HW112245   3.077   1.468   5.299
 3834SOL    HW212246   3.020   1.529   5.172
 3835SOL     OW12247   2.179   0.961   3.978
 3835SOL    HW112248   2.261   0.980   3.934
 3835SOL    HW212249   2.150   0.878   3.940
 3836SOL     OW12250   3.343   0.749   4.451
 3836SOL    HW112251   3.338   0.709   4.538
 3836SOL    HW212252   3.420   0.806   4.455
 3837SOL     OW12253   2.334   1.263   5.467
 3837SOL    HW112254   2.307   1.266   5.375
 3837SOL    HW212255   2.252   1.259   5.516
 3838SOL     OW12256   2.988   1.777   3.955
 3838SOL    HW112257   2.911   1.738   3.997
 3838SOL    HW212258   3.011   1.714   3.886
 3839SOL     OW12259   2.028   0.273   5.224
 3839SOL    HW112260   1.978   0.353   5.209
 3839SOL    HW212261   2.033   0.266   5.319
 3840SOL     OW12262   3.486   1.385   3.811
 3840SOL    HW112263   3.443   1.469   3.797
 3840SOL    HW212264   3.419   1.319   3.791
 3841SOL     OW12265   2.334   1.721   4.061
 3841SOL    HW112266   2.381   1.790   4.109
 3841SOL    HW212267   2.392   1.701   3.987
 3842SOL     OW12268   3.298   0.174   4.126
 3842SOL    HW112269   3.249   0.099   4.093
 3842SOL    HW212270   3.373   0.136   4.172
 3843SOL     OW12271   2.122   1.735   4.971
 3843SOL    HW112272   2.157   1.653   5.006
 3843SOL    HW212273   2.132   1.726   4.876
 3844SOL     OW12274   2.799   1.699   4.621
 3844SOL    HW112275   2.878   1.649   4.643
 3844SOL    HW212276   2.759   1.648   4.550
 3845SOL     OW12277   2.258   0.695   4.196
 3845SOL    HW112278   2.275   0.602   4.210
 3845SOL    HW212279   2.165   0.706   4.215
 3846SOL     OW12280   3.392   0.228   5.451
 3846SOL    HW112281   3.382   0.253   5.543
 3846SOL    HW212282   3.378   0.133   5.450
 3847SOL     OW12283   2.507   0.127   3.834
 3847SOL    HW112284   2.526   0.042   3.872
 3847SOL    HW212285   2.444   0.108   3.764
 3848SOL     OW12286   2.636   0.283   5.495
 3848SOL    HW112287   2.712   0.225   5.498
 3848SOL    HW212288   2.580   0.252   5.567
 3849SOL     OW12289   2.739   1.523   4.917
 3849SOL    HW112290   2.722   1.485   4.831
 3849SOL    HW212291   2.809   1.468   4.954
 3850SOL     OW12292   3.201   0.587   5.154
 3850SOL    HW112293   3.232   0.559   5.241
 3850SOL    HW212294   3.235   0.676   5.145
 3851SOL     OW12295   2.680   1.390   4.669
 3851SOL    HW112296   2.764   1.379   4.625
 3851SOL    HW212297   2.617   1.396   4.597
 3852SOL     OW12298   2.792   0.512   4.623
 3852SOL    HW112299   2.767   0.503   4.531
 3852SOL    HW212300   2.818   0.423   4.649
 3853SOL     OW12301   2.406   0.056   4.214
 3853SOL    HW112302   2.332   0.061   4.275
 3853SOL    HW212303   2.402   0.137   4.163
 3854SOL     OW12304   3.289   1.200   3.763
 3854SOL    HW112305   3.318   1.125   3.815
 3854SOL    HW212306   3.204   1.223   3.801
 3855SOL     OW12307   2.193   0.045   3.936
 3855SOL    HW112308   2.199   0.110   3.866
 3855SOL    HW212309   2.273   0.058   3.987
 3856SOL     OW12310   2.806   0.251   4.182
 3856SOL    HW112311   2.781   0.290   4.098
 3856SOL    HW212312   2.901   0.257   4.184
 3857SOL     OW12313   2.942   0.685   5.182
 3857SOL    HW112314   2.872   0.620   5.188
 3857SOL    HW212315   3.022   0.634   5.177
 3858SOL     OW12316   3.082   1.572   4.518
 3858SOL    HW112317   3.097   1.637   4.450
 3858SOL    HW212318   3.151   1.588   4.582
 3859SOL     OW12319   2.335   1.152   4.453
 3859SOL    HW112320   2.267   1.133   4.517
 3859SOL    HW212321   2.292   1.139   4.368
 3860SOL     OW12322   3.128   1.792   4.336
 3860SOL    HW112323   3.176   1.853   4.280
 3860SOL    HW212324   3.059   1.845   4.376
 3861SOL     OW12325   2.883   0.540   3.754
 3861SOL    HW112326   2.839   0.623   3.734
 3861SOL    HW212327   2.946   0.562   3.822
 3862SOL     OW12328   1.946   0.549   5.121
 3862SOL    HW112329   2.037   0.552   5.092
 3862SOL    HW212330   1.938   0.622   5.183
 3863SOL     OW12331   2.424   0.231   4.884
 3863SOL    HW112332   2.447   0.138   4.894
 3863SOL    HW212333   2.335   0.236   4.918
 3864SOL     OW12334   2.731   0.460   4.361
 3864SOL    HW112335   2.685   0.515   4.299
 3864SOL    HW212336   2.753   0.381   4.312
 3865SOL     OW12337   2.859   0.038   4.506
 3865SOL    HW112338   2.820   0.069   4.424
 3865SOL    HW212339   2.871   3.944   4.492
 3866SOL     OW12340   3.303   1.160   4.582
 3866SOL    HW112341   3.230   1.099   4.581
 3866SOL    HW212342   3.328   1.170   4.490
 3867SOL     OW12343   3.325   0.609   4.695
 3867SOL    HW112344   3.270   0.531   4.700
 3867SOL    HW212345   3.384   0.602   4.770
 3868SOL     OW12346   3.722   0.825   4.099
 3868SOL    HW112347   3.763   0.767   4.164
 3868SOL    HW212348   3.685   0.765   4.034
 3869SOL     OW12349   2.354   1.421   3.877
 3869SOL    HW112350   2.278   1.396   3.930
 3869SOL    HW212351   2.345   1.371   3.796
 3870SOL     OW12352   3.531   1.266   4.366
 3870SOL    HW112353   3.626   1.269   4.376
 3870SOL    HW212354   3.502   1.355   4.387
 3871SOL     OW12355   3.257   0.577   3.792
 3871SOL    HW112356   3.193   0.558   3.861
 3871SOL    HW212357   3.342   0.563   3.834
 3872SOL     OW12358   2.388   0.266   4.039
 3872SOL    HW112359   2.444   0.228   3.972
 3872SOL    HW212360   2.358   0.349   4.001
 3873SOL     OW12361   3.613   1.233   5.286
 3873SOL    HW112362   3.700   1.198   5.269
 3873SOL    HW212363   3.627   1.322   5.316
 3874SOL     OW12364   2.917   1.352   5.054
 3874SOL    HW112365   2.842   1.322   5.106
 3874SOL    HW212366   2.993   1.312   5.097
 3875SOL     OW12367   3.469   1.629   5.382
 3875SOL    HW112368   3.459   1.664   5.293
 3875SOL    HW212369   3.548   1.576   5.379
 3876SOL     OW12370   2.995   1.207   4.826
 3876SOL    HW112371   2.936   1.246   4.891
 3876SOL    HW212372   2.965   1.243   4.743
 3877SOL     OW12373   3.488   1.094   4.798
 3877SOL    HW112374   3.479   1.157   4.870
 3877SOL    HW212375   3.413   1.111   4.742
 3878SOL     OW12376   2.774   0.118   5.125
 3878SOL    HW112377   2.793   0.089   5.036
 3878SOL    HW212378   2.854   0.160   5.155
 3879SOL     OW12379   2.848   1.114   5.448
 3879SOL    HW112380   2.757   1.134   5.472
 3879SOL    HW212381   2.842   1.036   5.394
 3880SOL     OW12382   2.571   1.063   4.095
 3880SOL    HW112383   2.557   1.043   4.187
 3880SOL    HW212384   2.647   1.009   4.071
 3881SOL     OW12385   2.283   0.817   4.976
 3881SOL    HW112386   2.352   0.825   5.042
 3881SOL    HW212387   2.248   0.729   4.989
 3882SOL     OW12388   3.128   0.375   5.001
 3882SOL    HW112389   3.162   0.453   5.045
 3882SOL    HW212390   3.041   0.399   4.971
 3883SOL     OW12391   2.205   1.115   4.213
 3883SOL    HW112392   2.206   1.191   4.155
 3883SOL    HW212393   2.202   1.040   4.154
 3884SOL     OW12394   2.415   0.529   4.579
 3884SOL    HW112395   2.428   0.590   4.506
 3884SOL    HW212396   2.480   0.556   4.644
 3885SOL     OW12397   3.109   1.349   4.114
 3885SOL    HW112398   3.165   1.421   4.146
 3885SOL    HW212399   3.022   1.371   4.148
 3886SOL     OW12400   3.149   1.460   4.872
 3886SOL    HW112401   3.205   1.465   4.950
 3886SOL    HW212402   3.093   1.384   4.888
 3887SOL     OW12403   3.432   0.634   4.211
 3887SOL    HW112404   3.389   0.686   4.279
 3887SOL    HW212405   3.478   0.698   4.157
 3888SOL     OW12406   2.220   1.494   5.044
 3888SOL    HW112407   2.207   1.464   4.954
 3888SOL    HW212408   2.313   1.517   5.048
 3889SOL     OW12409   2.282   0.744   5.326
 3889SOL    HW112410   2.343   0.789   5.268
 3889SOL    HW212411   2.325   0.660   5.345
 3890SOL     OW12412   3.468   0.779   5.409
 3890SOL    HW112413   3.383   0.822   5.403
 3890SOL    HW212414   3.521   0.822   5.342
 3891SOL     OW12415   2.871   0.137   5.505
 3891SOL    HW112416   2.926   0.207   5.470
 3891SOL    HW212417   2.856   0.079   5.431
 3892SOL     OW12418   2.352   0.034   5.485
 3892SOL    HW112419   2.352   0.050   5.390
 3892SOL    HW212420   2.292   0.101   5.520
 3893SOL     OW12421   2.447   0.874   4.756
 3893SOL    HW112422   2.478   0.965   4.758
 3893SOL    HW212423   2.389   0.867   4.832
 3894SOL     OW12424   3.212   0.859   4.747
 3894SOL    HW112425   3.126   0.845   4.707
 3894SOL    HW212426   3.256   0.774   4.738
 3895SOL     OW12427   3.061   0.538   3.979
 3895SOL    HW112428   3.068   0.459   4.033
 3895SOL    HW212429   3.018   0.602   4.037
 3896SOL     OW12430   2.160   0.208   4.967
 3896SOL    HW112431   2.117   0.237   5.048
 3896SOL    HW212432   2.149   0.113   4.967
 3897SOL     OW12433   1.909   1.336   5.017
 3897SOL    HW112434   1.936   1.266   5.077
 3897SOL    HW212435   1.984   1.396   5.016
 3898SOL     OW12436   2.582   0.631   4.774
 3898SOL    HW112437   2.659   0.620   4.718
 3898SOL    HW212438   2.552   0.720   4.757
 3899SOL     OW12439   3.594   0.956   5.590
 3899SOL    HW112440   3.552   0.893   5.532
 3899SOL    HW212441   3.529   0.973   5.658
 3900SOL     OW12442   2.185   0.054   4.379
 3900SOL    HW112443   2.165   0.147   4.390
 3900SOL    HW212444   2.155   0.013   4.460
 3901SOL     OW12445   3.476   0.395   4.102
 3901SOL    HW112446   3.434   0.326   4.154
 3901SOL    HW212447   3.454   0.476   4.148
 3902SOL     OW12448   2.893   0.759   4.682
 3902SOL    HW112449   2.884   0.776   4.775
 3902SOL    HW212450   2.865   0.668   4.671
 3903SOL     OW12451   2.849   1.571   5.444
 3903SOL    HW112452   2.830   1.613   5.360
 3903SOL    HW212453   2.886   1.486   5.421
 3904SOL     OW12454   3.704   1.495   5.321
 3904SOL    HW112455   3.728   1.526   5.234
 3904SOL    HW212456   3.784   1.504   5.372
 3905SOL     OW12457   2.213   0.915   5.532
 3905SOL    HW112458   2.294   0.938   5.578
 3905SOL    HW212459   2.241   0.852   5.465
 3906SOL     OW12460   3.361   0.272   3.857
 3906SOL    HW112461   3.288   0.210   3.867
 3906SOL    HW212462   3.372   0.311   3.943
 3907SOL     OW12463   3.148   0.827   3.751
 3907SOL    HW112464   3.191   0.741   3.755
 3907SOL    HW212465   3.181   0.866   3.670
 3908SOL     OW12466   2.930   1.338   4.581
 3908SOL    HW112467   2.935   1.266   4.517
 3908SOL    HW212468   2.989   1.405   4.545
 3909SOL     OW12469   2.170   0.810   4.669
 3909SOL    HW112470   2.263   0.831   4.663
 3909SOL    HW212471   2.167   0.720   4.701
 3910SOL     OW12472   2.198   0.537   4.738
 3910SOL    HW112473   2.157   0.453   4.723
 3910SOL    HW212474   2.274   0.537   4.680
 3911SOL     OW12475   2.995   0.379   5.423
 3911SOL    HW112476   2.946   0.434   5.484
 3911SOL    HW212477   3.081   0.420   5.418
 3912SOL     OW12478   3.014   0.226   5.205
 3912SOL    HW112479   3.004   0.279   5.284
 3912SOL    HW212480   3.040   0.288   5.137
 3913SOL     OW12481   1.867   1.319   3.917
 3913SOL    HW112482   1.780   1.333   3.881
 3913SOL    HW212483   1.864   1.230   3.953
 3914SOL     OW12484   2.357   1.569   4.633
 3914SOL    HW112485   2.422   1.637   4.652
 3914SOL    HW212486   2.401   1.510   4.573
 3915SOL     OW12487   2.838   0.786   4.946
 3915SOL    HW112488   2.895   0.768   5.021
 3915SOL    HW212489   2.753   0.752   4.973
 3916SOL     OW12490   1.895   0.548   4.841
 3916SOL    HW112491   1.970   0.524   4.786
 3916SOL    HW212492   1.930   0.547   4.930
 3917SOL     OW12493   2.066   0.527   5.435
 3917SOL    HW112494   2.139   0.508   5.376
 3917SOL    HW212495   2.023   0.603   5.396
 3918SOL     OW12496   3.243   0.934   5.381
 3918SOL    HW112497   3.264   1.028   5.378
 3918SOL    HW212498   3.237   0.908   5.289
 3919SOL     OW12499   2.679   0.572   4.090
 3919SOL    HW112500   2.685   0.498   4.031
 3919SOL    HW212501   2.605   0.623   4.058
 3920SOL     OW12502   3.500   0.602   4.905
 3920SOL    HW112503   3.489   0.542   4.978
 3920SOL    HW212504   3.587   0.582   4.869
 3921SOL     OW12505   2.086   1.559   5.464
 3921SOL    HW112506   2.046   1.591   5.545
 3921SOL    HW212507   2.115   1.470   5.485
 3922SOL     OW12508   2.574   0.451   4.977
 3922SOL    HW112509   2.521   0.375   4.953
 3922SOL    HW212510   2.563   0.511   4.903
 3923SOL     OW12511   2.790   1.677   5.192
 3923SOL    HW112512   2.760   1.640   5.109
 3923SOL    HW212513   2.783   1.772   5.180
 3924SOL     OW12514   2.324   0.493   3.905
 3924SOL    HW112515   2.381   0.565   3.930
 3924SOL    HW212516   2.238   0.534   3.893
 3925SOL     OW12517   2.001   1.141   5.193
 3925SOL    HW112518   2.004   1.094   5.276
 3925SOL    HW212519   2.018   1.074   5.127
 3926SOL     OW12520   3.182   1.043   4.945
 3926SOL    HW112521   3.205   0.981   4.875
 3926SOL    HW212522   3.116   1.099   4.905
 3927SOL     OW12523   3.177   0.854   4.028
 3927SOL    HW112524   3.102   0.827   4.080
 3927SOL    HW212525   3.148   0.843   3.937
 3928SOL     OW12526   3.645   1.739   4.883
 3928SOL    HW112527   3.699   1.767   4.810
 3928SOL    HW212528   3.614   1.652   4.859
 3929SOL     OW12529   3.102   1.733   4.831
 3929SOL    HW112530   3.185   1.756   4.789
 3929SOL    HW212531   3.111   1.640   4.852
 3930SOL     OW12532   1.953   1.251   4.752
 3930SOL    HW112533   1.922   1.275   4.840
 3930SOL    HW212534   1.876   1.217   4.708
 3931SOL     OW12535   2.539   1.666   5.453
 3931SOL    HW112536   2.487   1.745   5.463
 3931SOL    HW212537   2.605   1.689   5.387
 3932SOL     OW12538   3.549   0.118   4.212
 3932SOL    HW112539   3.630   0.135   4.164
 3932SOL    HW212540   3.553   0.025   4.234
 3933SOL     OW12541   3.253   1.567   4.214
 3933SOL    HW112542   3.312   1.601   4.146
 3933SOL    HW212543   3.203   1.644   4.242
 3934SOL     OW12544   3.139   0.927   4.394
 3934SOL    HW112545   3.214   0.869   4.406
 3934SOL    HW212546   3.173   1.000   4.342
 3935SOL     OW12547   2.669   1.275   5.149
 3935SOL    HW112548   2.641   1.315   5.231
 3935SOL    HW212549   2.600   1.297   5.086
 3936SOL     OW12550   2.534   1.625   3.877
 3936SOL    HW112551   2.546   1.637   3.783
 3936SOL    HW212552   2.477   1.548   3.885
 3937SOL     OW12553   3.480   1.727   5.116
 3937SOL    HW112554   3.536   1.732   5.038
 3937SOL    HW212555   3.467   1.819   5.141
 3938SOL     OW12556   3.704   0.182   4.695
 3938SOL    HW112557   3.728   0.097   4.658
 3938SOL    HW212558   3.619   0.202   4.658
 3939SOL     OW12559   2.125   0.315   4.438
 3939SOL    HW112560   2.038   0.350   4.416
 3939SOL    HW212561   2.124   0.309   4.534
 3940SOL     OW12562   3.070   1.602   3.756
 3940SOL    HW112563   3.059   1.511   3.783
 3940SOL    HW212564   3.004   1.616   3.689
 3941SOL     OW12565   2.686   1.006   5.097
 3941SOL    HW112566   2.727   1.003   5.011
 3941SOL    HW212567   2.682   1.100   5.119
 3942SOL     OW12568   2.778   0.910   4.014
 3942SOL    HW112569   2.838   0.944   3.948
 3942SOL    HW212570   2.827   0.843   4.060
 3943SOL     OW12571   3.350   1.630   3.768
 3943SOL    HW112572   3.256   1.620   3.753
 3943SOL    HW212573   3.388   1.636   3.680
 3944SOL     OW12574   2.228   1.294   5.226
 3944SOL    HW112575   2.226   1.366   5.164
 3944SOL    HW212576   2.151   1.241   5.205
 3945SOL     OW12577   3.462   1.280   5.000
 3945SOL    HW112578   3.529   1.270   5.067
 3945SOL    HW212579   3.404   1.349   5.034
 3946SOL     OW12580   2.921   1.110   4.434
 3946SOL    HW112581   2.849   1.060   4.471
 3946SOL    HW212582   2.984   1.044   4.406
 3947SOL     OW12583   2.877   0.250   4.694
 3947SOL    HW112584   2.868   0.199   4.614
 3947SOL    HW212585   2.874   0.184   4.765
 3948SOL     OW12586   2.467   1.491   4.204
 3948SOL    HW112587   2.510   1.441   4.135
 3948SOL    HW212588   2.399   1.541   4.159
 3949SOL     OW12589   3.583   0.395   5.095
 3949SOL    HW112590   3.655   0.458   5.095
 3949SOL    HW212591   3.614   0.322   5.041
 3950SOL     OW12592   2.123   1.340   4.015
 3950SOL    HW112593   2.031   1.338   3.990
 3950SOL    HW212594   2.125   1.378   4.103
 3951SOL     OW12595   1.976   1.030   5.444
 3951SOL    HW112596   1.900   1.005   5.496
 3951SOL    HW212597   2.050   0.989   5.489
 3952SOL     OW12598   2.557   0.260   5.228
 3952SOL    HW112599   2.623   0.204   5.186
 3952SOL    HW212600   2.584   0.265   5.319
 3953SOL     OW12601   1.964   0.317   3.716
 3953SOL    HW112602   1.897   0.336   3.782
 3953SOL    HW212603   1.970   0.397   3.664
 3954SOL     OW12604   3.285   0.855   5.120
 3954SOL    HW112605   3.235   0.918   5.068
 3954SOL    HW212606   3.374   0.859   5.084
 3955SOL     OW12607   1.942   0.150   4.063
 3955SOL    HW112608   1.911   0.209   3.994
 3955SOL    HW212609   2.029   0.124   4.034
 3956SOL     OW12610   3.040   1.336   3.842
 3956SOL    HW112611   2.949   1.306   3.844
 3956SOL    HW212612   3.066   1.337   3.934
 3957SOL     OW12613   2.484   0.828   5.158
 3957SOL    HW112614   2.541   0.904   5.143
 3957SOL    HW212615   2.545   0.755   5.167
 3958SOL     OW12616   3.344   1.784   4.705
 3958SOL    HW112617   3.367   1.848   4.638
 3958SOL    HW212618   3.429   1.753   4.738
 3959SOL     OW12619   2.580   0.560   5.427
 3959SOL    HW112620   2.623   0.622   5.486
 3959SOL    HW212621   2.603   0.474   5.463
 3960SOL     OW12622   3.335   1.194   5.353
 3960SOL    HW112623   3.324   1.211   5.447
 3960SOL    HW212624   3.428   1.212   5.337
 3961SOL     OW12625   2.235   1.735   5.301
 3961SOL    HW112626   2.175   1.744   5.228
 3961SOL    HW212627   2.199   1.664   5.354
 3962SOL     OW12628   3.525   0.880   4.983
 3962SOL    HW112629   3.524   0.795   4.939
 3962SOL    HW212630   3.518   0.944   4.912
 3963SOL     OW12631   3.081   0.339   4.165
 3963SOL    HW112632   3.150   0.274   4.156
 3963SOL    HW212633   3.100   0.383   4.248
 3964SOL     OW12634   2.451   0.734   4.395
 3964SOL    HW112635   2.489   0.821   4.382
 3964SOL    HW212636   2.385   0.727   4.327
 3965SOL     OW12637   3.615   0.381   5.366
 3965SOL    HW112638   3.595   0.390   5.273
 3965SOL    HW212639   3.554   0.314   5.397
 3966SOL     OW12640   3.617   0.930   5.237
 3966SOL    HW112641   3.606   1.023   5.255
 3966SOL    HW212642   3.592   0.920   5.145
 3967SOL     OW12643   2.725   1.366   3.765
 3967SOL    HW112644   2.688   1.391   3.849
 3967SOL    HW212645   2.741   1.448   3.719
 3968SOL     OW12646   2.524   1.791   4.658
 3968SOL    HW112647   2.518   1.887   4.654
 3968SOL    HW212648   2.618   1.774   4.658
 3969SOL     OW12649   2.731   0.970   4.578
 3969SOL    HW112650   2.782   0.898   4.616
 3969SOL    HW212651   2.693   1.015   4.653
 3970SOL     OW12652   2.940   0.989   3.814
 3970SOL    HW112653   2.918   1.041   3.736
 3970SOL    HW212654   3.013   0.935   3.786
 3971SOL     OW12655   3.712   1.556   4.565
 3971SOL    HW112656   3.632   1.540   4.514
 3971SOL    HW212657   3.711   1.489   4.633
 3972SOL     OW12658   2.090   1.297   5.579
 3972SOL    HW112659   2.026   1.232   5.551
 3972SOL    HW212660   2.064   1.321   5.668
 3973SOL     OW12661   1.944   1.212   4.386
 3973SOL    HW112662   1.967   1.173   4.471
 3973SOL    HW212663   2.020   1.193   4.330
 3974SOL     OW12664   2.543   1.406   5.350
 3974SOL    HW112665   2.468   1.362   5.391
 3974SOL    HW212666   2.542   1.494   5.388
 3975SOL     OW12667   3.676   0.181   4.968
 3975SOL    HW112668   3.677   0.086   4.977
 3975SOL    HW212669   3.694   0.197   4.876
 3976SOL     OW12670   2.289   0.434   4.249
 3976SOL    HW112671   2.325   0.363   4.196
 3976SOL    HW212672   2.242   0.391   4.320
 3977SOL     OW12673   3.557   1.490   4.819
 3977SOL    HW112674   3.479   1.469   4.768
 3977SOL    HW212675   3.564   1.419   4.882
 3978SOL     OW12676   2.195   0.557   5.019
 3978SOL    HW112677   2.247   0.497   5.073
 3978SOL    HW212678   2.214   0.531   4.929
 3979SOL     OW12679   2.693   1.577   4.399
 3979SOL    HW112680   2.673   1.637   4.328
 3979SOL    HW212681   2.618   1.517   4.402
 3980SOL     OW12682   3.323   0.254   4.834
 3980SOL    HW112683   3.337   0.166   4.869
 3980SOL    HW212684   3.267   0.297   4.899
 3981SOL     OW12685   2.865   0.026   4.870
 3981SOL    HW112686   2.782   3.998   4.831
 3981SOL    HW212687   2.915   3.945   4.879
 3982SOL     OW12688   2.637   1.333   4.041
 3982SOL    HW112689   2.608   1.243   4.050
 3982SOL    HW212690   2.717   1.338   4.094
 3983SOL     OW12691   2.484   1.553   5.008
 3983SOL    HW112692   2.483   1.635   5.058
 3983SOL    HW212693   2.573   1.549   4.972
 3984SOL     OW12694   3.170   0.069   3.883
 3984SOL    HW112695   3.173   3.983   3.843
 3984SOL    HW212696   3.087   0.070   3.931
 3985SOL     OW12697   3.141   0.456   4.408
 3985SOL    HW112698   3.095   0.540   4.402
 3985SOL    HW212699   3.144   0.437   4.502
 3986SOL     OW12700   3.453   0.210   4.591
 3986SOL    HW112701   3.405   0.234   4.670
 3986SOL    HW212702   3.451   0.289   4.537
 3987SOL     OW12703   1.905   1.068   4.029
 3987SOL    HW112704   1.999   1.062   4.014
 3987SOL    HW212705   1.878   0.980   4.055
 3988SOL     OW12706   2.751   1.657   4.061
 3988SOL    HW112707   2.676   1.641   4.004
 3988SOL    HW212708   2.724   1.730   4.117
 3989SOL     OW12709   2.087   0.618   5.707
 3989SOL    HW112710   1.997   0.629   5.738
 3989SOL    HW212711   2.077   0.599   5.613
 3990SOL     OW12712   2.079   0.301   6.577
 3990SOL    HW112713   2.115   0.258   6.655
 3990SOL    HW212714   1.993   0.260   6.565
 3991SOL     OW12715   1.870   0.398   6.218
 3991SOL    HW112716   1.785   0.414   6.257
 3991SOL    HW212717   1.853   0.332   6.151
 3992SOL     OW12718   2.410   1.278   6.767
 3992SOL    HW112719   2.339   1.245   6.712
 3992SOL    HW212720   2.371   1.283   6.855
 3993SOL     OW12721   3.428   1.513   6.294
 3993SOL    HW112722   3.385   1.491   6.377
 3993SOL    HW212723   3.357   1.516   6.230
 3994SOL     OW12724   2.995   0.698   6.281
 3994SOL    HW112725   3.042   0.781   6.269
 3994SOL    HW212726   2.947   0.710   6.363
 3995SOL     OW12727   3.626   0.624   5.811
 3995SOL    HW112728   3.606   0.612   5.718
 3995SOL    HW212729   3.605   0.539   5.851
 3996SOL     OW12730   2.614   1.147   6.619
 3996SOL    HW112731   2.552   1.196   6.673
 3996SOL    HW212732   2.671   1.214   6.582
 3997SOL     OW12733   2.737   0.765   7.412
 3997SOL    HW112734   2.720   0.835   7.474
 3997SOL    HW212735   2.757   0.810   7.330
 3998SOL     OW12736   2.540   1.003   6.228
 3998SOL    HW112737   2.605   0.995   6.298
 3998SOL    HW212738   2.484   1.075   6.256
 3999SOL     OW12739   2.549   1.153   7.389
 3999SOL    HW112740   2.600   1.229   7.415
 3999SOL    HW212741   2.471   1.189   7.346
 4000SOL     OW12742   3.324   1.501   6.946
 4000SOL    HW112743   3.377   1.579   6.955
 4000SOL    HW212744   3.255   1.510   7.011
 4001SOL     OW12745   2.309   0.391   7.077
 4001SOL    HW112746   2.400   0.362   7.077
 4001SOL    HW212747   2.257   0.311   7.086
 4002SOL     OW12748   3.472   0.450   6.321
 4002SOL    HW112749   3.405   0.483   6.262
 4002SOL    HW212750   3.492   0.523   6.379
 4003SOL     OW12751   2.111   1.690   6.075
 4003SOL    HW112752   2.063   1.772   6.063
 4003SOL    HW212753   2.176   1.690   6.006
 4004SOL     OW12754   3.006   1.337   7.278
 4004SOL    HW112755   3.049   1.331   7.364
 4004SOL    HW212756   2.954   1.257   7.271
 4005SOL     OW12757   2.104   1.079   6.540
 4005SOL    HW112758   2.127   0.986   6.534
 4005SOL    HW212759   2.009   1.081   6.523
 4006SOL     OW12760   2.434   1.753   6.988
 4006SOL    HW112761   2.354   1.776   7.036
 4006SOL    HW212762   2.493   1.827   7.002
 4007SOL     OW12763   2.442   0.984   5.721
 4007SOL    HW112764   2.491   1.030   5.653
 4007SOL    HW212765   2.480   1.015   5.803
 4008SOL     OW12766   3.445   0.142   7.042
 4008SOL    HW112767   3.473   0.214   6.985
 4008SOL    HW212768   3.405   0.186   7.117
 4009SOL     OW12769   1.980   0.655   6.144
 4009SOL    HW112770   1.953   0.567   6.169
 4009SOL    HW212771   1.973   0.706   6.226
 4010SOL     OW12772   3.703   1.758   5.921
 4010SOL    HW112773   3.774   1.733   5.982
 4010SOL    HW212774   3.721   1.849   5.900
 4011SOL     OW12775   1.935   1.573   5.691
 4011SOL    HW112776   1.909   1.489   5.728
 4011SOL    HW212777   1.859   1.629   5.704
 4012SOL     OW12778   3.551   0.919   6.234
 4012SOL    HW112779   3.634   0.875   6.217
 4012SOL    HW212780   3.532   0.968   6.155
 4013SOL     OW12781   3.504   1.103   6.018
 4013SOL    HW112782   3.589   1.108   5.974
 4013SOL    HW212783   3.510   1.166   6.089
 4014SOL     OW12784   1.985   0.748   7.164
 4014SOL    HW112785   2.074   0.782   7.166
 4014SOL    HW212786   1.930   0.826   7.174
 4015SOL     OW12787   3.150   1.229   7.014
 4015SOL    HW112788   3.181   1.166   6.949
 4015SOL    HW212789   3.214   1.225   7.085
 4016SOL     OW12790   2.683   0.006   6.104
 4016SOL    HW112791   2.729   0.086   6.077
 4016SOL    HW212792   2.590   0.030   6.103
 4017SOL     OW12793   2.049   0.953   6.867
 4017SOL    HW112794   2.134   0.915   6.843
 4017SOL    HW212795   1.990   0.922   6.799
 4018SOL     OW12796   3.390   0.997   5.787
 4018SOL    HW112797   3.320   0.940   5.821
 4018SOL    HW212798   3.432   1.032   5.866
 4019SOL     OW12799   3.046   1.794   7.203
 4019SOL    HW112800   3.062   1.865   7.140
 4019SOL    HW212801   3.076   1.715   7.158
 4020SOL     OW12802   2.221   0.250   7.437
 4020SOL    HW112803   2.266   0.335   7.436
 4020SOL    HW212804   2.128   0.272   7.436
 4021SOL     OW12805   3.330   1.418   6.535
 4021SOL    HW112806   3.263   1.433   6.602
 4021SOL    HW212807   3.318   1.327   6.509
 4022SOL     OW12808   3.513   1.750   6.165
 4022SOL    HW112809   3.498   1.716   6.076
 4022SOL    HW212810   3.494   1.675   6.222
 4023SOL     OW12811   2.457   0.719   5.855
 4023SOL    HW112812   2.461   0.803   5.809
 4023SOL    HW212813   2.392   0.733   5.925
 4024SOL     OW12814   3.136   0.371   6.528
 4024SOL    HW112815   3.049   0.332   6.535
 4024SOL    HW212816   3.194   0.310   6.572
 4025SOL     OW12817   3.440   1.671   5.896
 4025SOL    HW112818   3.531   1.700   5.889
 4025SOL    HW212819   3.412   1.656   5.806
 4026SOL     OW12820   2.656   0.616   7.036
 4026SOL    HW112821   2.629   0.589   7.124
 4026SOL    HW212822   2.621   0.549   6.978
 4027SOL     OW12823   3.254   0.476   7.263
 4027SOL    HW112824   3.261   0.522   7.347
 4027SOL    HW212825   3.310   0.399   7.274
 4028SOL     OW12826   2.812   0.887   7.172
 4028SOL    HW112827   2.868   0.818   7.136
 4028SOL    HW212828   2.763   0.921   7.096
 4029SOL     OW12829   2.855   0.402   6.822
 4029SOL    HW112830   2.769   0.420   6.858
 4029SOL    HW212831   2.839   0.376   6.731
 4030SOL     OW12832   2.915   0.699   6.010
 4030SOL    HW112833   2.932   0.693   6.104
 4030SOL    HW212834   2.831   0.654   5.998
 4031SOL     OW12835   1.951   0.815   6.362
 4031SOL    HW112836   2.033   0.808   6.411
 4031SOL    HW212837   1.905   0.889   6.401
 4032SOL     OW12838   2.758   0.353   5.786
 4032SOL    HW112839   2.800   0.413   5.724
 4032SOL    HW212840   2.748   0.271   5.737
 4033SOL     OW12841   3.566   0.573   7.416
 4033SOL    HW112842   3.531   0.647   7.368
 4033SOL    HW212843   3.593   0.511   7.348
 4034SOL     OW12844   3.239   1.141   6.125
 4034SOL    HW112845   3.319   1.130   6.074
 4034SOL    HW212846   3.187   1.204   6.076
 4035SOL     OW12847   2.421   0.199   6.466
 4035SOL    HW112848   2.424   0.219   6.560
 4035SOL    HW212849   2.416   0.284   6.423
 4036SOL     OW12850   2.866   1.454   6.055
 4036SOL    HW112851   2.805   1.522   6.026
 4036SOL    HW212852   2.868   1.463   6.151
 4037SOL     OW12853   2.210   1.817   6.445
 4037SOL    HW112854   2.250   1.737   6.411
 4037SOL    HW212855   2.283   1.878   6.456
 4038SOL     OW12856   3.668   1.062   6.454
 4038SOL    HW112857   3.616   1.035   6.379
 4038SOL    HW212858   3.606   1.065   6.527
 4039SOL     OW12859   3.092   1.534   7.094
 4039SOL    HW112860   3.083   1.460   7.154
 4039SOL    HW212861   3.023   1.520   7.029
 4040SOL     OW12862   2.181   0.951   5.834
 4040SOL    HW112863   2.263   0.973   5.790
 4040SOL    HW212864   2.151   0.871   5.791
 4041SOL     OW12865   3.343   0.749   6.313
 4041SOL    HW112866   3.338   0.709   6.400
 4041SOL    HW212867   3.420   0.806   6.317
 4042SOL     OW12868   2.998   1.781   5.818
 4042SOL    HW112869   2.913   1.757   5.853
 4042SOL    HW212870   3.015   1.716   5.749
 4043SOL     OW12871   2.029   0.275   7.086
 4043SOL    HW112872   1.979   0.354   7.068
 4043SOL    HW212873   2.029   0.267   7.181
 4044SOL     OW12874   3.486   1.385   5.673
 4044SOL    HW112875   3.443   1.469   5.659
 4044SOL    HW212876   3.419   1.319   5.653
 4045SOL     OW12877   2.319   1.720   5.900
 4045SOL    HW112878   2.364   1.787   5.951
 4045SOL    HW212879   2.384   1.692   5.836
 4046SOL     OW12880   3.298   0.174   5.988
 4046SOL    HW112881   3.250   0.099   5.953
 4046SOL    HW212882   3.373   0.135   6.034
 4047SOL     OW12883   2.134   1.769   6.837
 4047SOL    HW112884   2.154   1.686   6.880
 4047SOL    HW212885   2.133   1.748   6.744
 4048SOL     OW12886   2.259   0.694   6.059
 4048SOL    HW112887   2.275   0.601   6.073
 4048SOL    HW212888   2.165   0.705   6.076
 4049SOL     OW12889   3.391   0.228   7.313
 4049SOL    HW112890   3.382   0.252   7.405
 4049SOL    HW212891   3.378   0.133   7.311
 4050SOL     OW12892   2.507   0.127   5.696
 4050SOL    HW112893   2.526   0.042   5.734
 4050SOL    HW212894   2.444   0.108   5.626
 4051SOL     OW12895   2.636   0.283   7.358
 4051SOL    HW112896   2.712   0.225   7.359
 4051SOL    HW212897   2.580   0.251   7.429
 4052SOL     OW12898   3.200   0.588   7.017
 4052SOL    HW112899   3.231   0.560   7.103
 4052SOL    HW212900   3.235   0.676   7.007
 4053SOL     OW12901   2.792   0.512   6.485
 4053SOL    HW112902   2.767   0.504   6.393
 4053SOL    HW212903   2.817   0.423   6.511
 4054SOL     OW12904   2.406   0.056   6.076
 4054SOL    HW112905   2.332   0.062   6.137
 4054SOL    HW212906   2.402   0.137   6.025
 4055SOL     OW12907   3.289   1.200   5.625
 4055SOL    HW112908   3.318   1.125   5.677
 4055SOL    HW212909   3.203   1.223   5.661
 4056SOL     OW12910   2.193   0.045   5.798
 4056SOL    HW112911   2.199   0.110   5.728
 4056SOL    HW212912   2.273   0.058   5.849
 4057SOL     OW12913   2.806   0.251   6.044
 4057SOL    HW112914   2.781   0.290   5.961
 4057SOL    HW212915   2.901   0.258   6.046
 4058SOL     OW12916   2.941   0.685   7.045
 4058SOL    HW112917   2.873   0.619   7.050
 4058SOL    HW212918   3.023   0.636   7.038
 4059SOL     OW12919   3.083   1.560   6.363
 4059SOL    HW112920   3.107   1.629   6.301
 4059SOL    HW212921   3.136   1.577   6.440
 4060SOL     OW12922   3.139   1.789   6.191
 4060SOL    HW112923   3.189   1.844   6.131
 4060SOL    HW212924   3.077   1.848   6.233
 4061SOL     OW12925   2.883   0.540   5.616
 4061SOL    HW112926   2.839   0.623   5.596
 4061SOL    HW212927   2.946   0.563   5.684
 4062SOL     OW12928   1.946   0.547   6.982
 4062SOL    HW112929   2.037   0.552   6.953
 4062SOL    HW212930   1.936   0.621   7.043
 4063SOL     OW12931   2.424   0.231   6.747
 4063SOL    HW112932   2.447   0.138   6.756
 4063SOL    HW212933   2.335   0.237   6.780
 4064SOL     OW12934   2.731   0.460   6.223
 4064SOL    HW112935   2.685   0.516   6.160
 4064SOL    HW212936   2.753   0.381   6.174
 4065SOL     OW12937   2.859   0.038   6.368
 4065SOL    HW112938   2.821   0.069   6.286
 4065SOL    HW212939   2.870   3.944   6.355
 4066SOL     OW12940   3.304   1.159   6.443
 4066SOL    HW112941   3.228   1.101   6.442
 4066SOL    HW212942   3.329   1.169   6.351
 4067SOL     OW12943   3.325   0.609   6.557
 4067SOL    HW112944   3.270   0.531   6.562
 4067SOL    HW212945   3.385   0.602   6.632
 4068SOL     OW12946   3.722   0.825   5.961
 4068SOL    HW112947   3.763   0.767   6.026
 4068SOL    HW212948   3.684   0.765   5.896
 4069SOL     OW12949   2.358   1.409   5.740
 4069SOL    HW112950   2.281   1.395   5.796
 4069SOL    HW212951   2.335   1.368   5.657
 4070SOL     OW12952   3.531   1.266   6.228
 4070SOL    HW112953   3.626   1.269   6.238
 4070SOL    HW212954   3.501   1.354   6.249
 4071SOL     OW12955   3.257   0.577   5.654
 4071SOL    HW112956   3.193   0.558   5.723
 4071SOL    HW212957   3.342   0.563   5.696
 4072SOL     OW12958   2.388   0.266   5.901
 4072SOL    HW112959   2.444   0.228   5.834
 4072SOL    HW212960   2.359   0.349   5.864
 4073SOL     OW12961   3.613   1.233   7.150
 4073SOL    HW112962   3.701   1.198   7.132
 4073SOL    HW212963   3.629   1.323   7.178
 4074SOL     OW12964   2.930   1.353   6.916
 4074SOL    HW112965   2.850   1.327   6.961
 4074SOL    HW212966   3.000   1.307   6.962
 4075SOL     OW12967   3.468   1.628   7.243
 4075SOL    HW112968   3.459   1.664   7.155
 4075SOL    HW212969   3.548   1.575   7.240
 4076SOL     OW12970   2.984   1.197   6.694
 4076SOL    HW112971   2.941   1.253   6.758
 4076SOL    HW212972   2.966   1.239   6.610
 4077SOL     OW12973   3.488   1.094   6.660
 4077SOL    HW112974   3.478   1.156   6.732
 4077SOL    HW212975   3.413   1.111   6.602
 4078SOL     OW12976   2.773   0.119   6.987
 4078SOL    HW112977   2.793   0.089   6.898
 4078SOL    HW212978   2.854   0.160   7.017
 4079SOL     OW12979   2.842   1.115   7.310
 4079SOL    HW112980   2.750   1.130   7.332
 4079SOL    HW212981   2.841   1.037   7.254
 4080SOL     OW12982   2.565   1.061   5.954
 4080SOL    HW112983   2.550   1.042   6.046
 4080SOL    HW212984   2.643   1.010   5.932
 4081SOL     OW12985   2.287   0.815   6.834
 4081SOL    HW112986   2.352   0.824   6.903
 4081SOL    HW212987   2.249   0.728   6.849
 4082SOL     OW12988   3.128   0.375   6.863
 4082SOL    HW112989   3.161   0.453   6.907
 4082SOL    HW212990   3.040   0.399   6.833
 4083SOL     OW12991   2.225   1.100   6.066
 4083SOL    HW112992   2.269   1.163   6.009
 4083SOL    HW212993   2.208   1.025   6.009
 4084SOL     OW12994   2.415   0.530   6.442
 4084SOL    HW112995   2.428   0.590   6.369
 4084SOL    HW212996   2.481   0.557   6.506
 4085SOL     OW12997   3.108   1.349   5.975
 4085SOL    HW112998   3.166   1.419   6.006
 4085SOL    HW212999   3.021   1.375   6.004
 4086SOL     OW13000   3.152   1.462   6.735
 4086SOL    HW113001   3.210   1.465   6.811
 4086SOL    HW213002   3.081   1.403   6.761
 4087SOL     OW13003   3.432   0.633   6.073
 4087SOL    HW113004   3.389   0.686   6.140
 4087SOL    HW213005   3.478   0.697   6.018
 4088SOL     OW13006   2.229   1.523   6.887
 4088SOL    HW113007   2.200   1.463   6.819
 4088SOL    HW213008   2.317   1.550   6.860
 4089SOL     OW13009   2.282   0.746   7.191
 4089SOL    HW113010   2.342   0.790   7.131
 4089SOL    HW213011   2.322   0.660   7.206
 4090SOL     OW13012   3.467   0.780   7.271
 4090SOL    HW113013   3.382   0.823   7.265
 4090SOL    HW213014   3.520   0.822   7.204
 4091SOL     OW13015   2.871   0.138   7.367
 4091SOL    HW113016   2.926   0.207   7.331
 4091SOL    HW213017   2.857   0.078   7.293
 4092SOL     OW13018   2.352   0.035   7.347
 4092SOL    HW113019   2.352   0.050   7.253
 4092SOL    HW213020   2.292   0.101   7.382
 4093SOL     OW13021   2.449   0.872   6.617
 4093SOL    HW113022   2.477   0.964   6.621
 4093SOL    HW213023   2.390   0.863   6.692
 4094SOL     OW13024   3.212   0.858   6.611
 4094SOL    HW113025   3.127   0.846   6.568
 4094SOL    HW213026   3.256   0.774   6.601
 4095SOL     OW13027   3.061   0.538   5.841
 4095SOL    HW113028   3.068   0.459   5.895
 4095SOL    HW213029   3.018   0.602   5.899
 4096SOL     OW13030   2.160   0.208   6.829
 4096SOL    HW113031   2.117   0.237   6.910
 4096SOL    HW213032   2.149   0.113   6.829
 4097SOL     OW13033   1.870   1.334   6.937
 4097SOL    HW113034   1.935   1.278   6.978
 4097SOL    HW213035   1.910   1.359   6.853
 4098SOL     OW13036   2.585   0.631   6.637
 4098SOL    HW113037   2.660   0.619   6.579
 4098SOL    HW213038   2.554   0.720   6.618
 4099SOL     OW13039   3.593   0.957   7.451
 4099SOL    HW113040   3.552   0.893   7.393
 4099SOL    HW213041   3.528   0.972   7.520
 4100SOL     OW13042   2.185   0.054   6.241
 4100SOL    HW113043   2.165   0.147   6.252
 4100SOL    HW213044   2.155   0.013   6.323
 4101SOL     OW13045   3.475   0.395   5.964
 4101SOL    HW113046   3.433   0.326   6.016
 4101SOL    HW213047   3.454   0.476   6.010
 4102SOL     OW13048   2.892   0.759   6.544
 4102SOL    HW113049   2.883   0.777   6.638
 4102SOL    HW213050   2.865   0.668   6.534
 4103SOL     OW13051   2.840   1.549   7.306
 4103SOL    HW113052   2.817   1.602   7.229
 4103SOL    HW213053   2.898   1.481   7.273
 4104SOL     OW13054   3.703   1.496   7.183
 4104SOL    HW113055   3.728   1.527   7.096
 4104SOL    HW213056   3.783   1.504   7.235
 4105SOL     OW13057   2.222   0.917   7.401
 4105SOL    HW113058   2.305   0.927   7.448
 4105SOL    HW213059   2.241   0.856   7.330
 4106SOL     OW13060   3.361   0.272   5.719
 4106SOL    HW113061   3.288   0.210   5.729
 4106SOL    HW213062   3.372   0.311   5.805
 4107SOL     OW13063   3.149   0.827   5.613
 4107SOL    HW113064   3.191   0.741   5.617
 4107SOL    HW213065   3.181   0.866   5.532
 4108SOL     OW13066   2.937   1.325   6.457
 4108SOL    HW113067   2.933   1.259   6.388
 4108SOL    HW213068   2.984   1.399   6.417
 4109SOL     OW13069   2.174   0.807   6.525
 4109SOL    HW113070   2.268   0.825   6.519
 4109SOL    HW213071   2.170   0.718   6.560
 4110SOL     OW13072   2.199   0.536   6.601
 4110SOL    HW113073   2.157   0.452   6.586
 4110SOL    HW213074   2.275   0.536   6.543
 4111SOL     OW13075   2.995   0.379   7.284
 4111SOL    HW113076   2.946   0.433   7.347
 4111SOL    HW213077   3.082   0.421   7.279
 4112SOL     OW13078   3.014   0.226   7.067
 4112SOL    HW113079   3.004   0.279   7.146
 4112SOL    HW213080   3.040   0.288   6.999
 4113SOL     OW13081   1.871   1.316   5.778
 4113SOL    HW113082   1.783   1.332   5.745
 4113SOL    HW213083   1.867   1.228   5.815
 4114SOL     OW13084   2.834   0.787   6.810
 4114SOL    HW113085   2.893   0.769   6.884
 4114SOL    HW213086   2.753   0.743   6.833
 4115SOL     OW13087   1.894   0.546   6.703
 4115SOL    HW113088   1.970   0.525   6.649
 4115SOL    HW213089   1.928   0.548   6.793
 4116SOL     OW13090   2.066   0.527   7.297
 4116SOL    HW113091   2.137   0.507   7.237
 4116SOL    HW213092   2.022   0.602   7.259
 4117SOL     OW13093   3.241   0.935   7.243
 4117SOL    HW113094   3.265   1.028   7.239
 4117SOL    HW213095   3.237   0.908   7.151
 4118SOL     OW13096   2.679   0.572   5.953
 4118SOL    HW113097   2.685   0.498   5.893
 4118SOL    HW213098   2.605   0.623   5.920
 4119SOL     OW13099   3.500   0.602   6.767
 4119SOL    HW113100   3.490   0.541   6.840
 4119SOL    HW213101   3.587   0.582   6.731
 4120SOL     OW13102   2.575   0.450   6.839
 4120SOL    HW113103   2.522   0.374   6.816
 4120SOL    HW213104   2.564   0.511   6.765
 4121SOL     OW13105   2.813   1.656   7.040
 4121SOL    HW113106   2.808   1.666   6.945
 4121SOL    HW213107   2.838   1.742   7.073
 4122SOL     OW13108   2.324   0.494   5.767
 4122SOL    HW113109   2.381   0.566   5.792
 4122SOL    HW213110   2.238   0.535   5.755
 4123SOL     OW13111   2.026   1.137   7.061
 4123SOL    HW113112   2.014   1.088   7.143
 4123SOL    HW213113   2.031   1.069   6.994
 4124SOL     OW13114   3.180   1.043   6.808
 4124SOL    HW113115   3.204   0.981   6.738
 4124SOL    HW213116   3.111   1.097   6.769
 4125SOL     OW13117   3.177   0.853   5.890
 4125SOL    HW113118   3.101   0.828   5.942
 4125SOL    HW213119   3.149   0.843   5.799
 4126SOL     OW13120   3.645   1.739   6.745
 4126SOL    HW113121   3.700   1.767   6.672
 4126SOL    HW213122   3.614   1.652   6.721
 4127SOL     OW13123   3.112   1.733   6.694
 4127SOL    HW113124   3.193   1.757   6.649
 4127SOL    HW213125   3.120   1.639   6.708
 4128SOL     OW13126   3.549   0.118   6.074
 4128SOL    HW113127   3.630   0.135   6.026
 4128SOL    HW213128   3.553   0.025   6.096
 4129SOL     OW13129   3.256   1.563   6.072
 4129SOL    HW113130   3.315   1.596   6.005
 4129SOL    HW213131   3.207   1.640   6.101
 4130SOL     OW13132   3.139   0.928   6.257
 4130SOL    HW113133   3.214   0.869   6.268
 4130SOL    HW213134   3.173   1.000   6.204
 4131SOL     OW13135   2.679   1.274   7.023
 4131SOL    HW113136   2.679   1.311   7.112
 4131SOL    HW213137   2.588   1.283   6.994
 4132SOL     OW13138   2.520   1.628   5.733
 4132SOL    HW113139   2.536   1.634   5.639
 4132SOL    HW213140   2.477   1.544   5.745
 4133SOL     OW13141   3.480   1.728   6.978
 4133SOL    HW113142   3.536   1.731   6.900
 4133SOL    HW213143   3.467   1.819   7.002
 4134SOL     OW13144   3.704   0.182   6.557
 4134SOL    HW113145   3.728   0.097   6.519
 4134SOL    HW213146   3.618   0.202   6.520
 4135SOL     OW13147   2.124   0.314   6.300
 4135SOL    HW113148   2.038   0.349   6.277
 4135SOL    HW213149   2.123   0.309   6.396
 4136SOL     OW13150   3.069   1.602   5.619
 4136SOL    HW113151   3.058   1.510   5.645
 4136SOL    HW213152   3.003   1.615   5.551
 4137SOL     OW13153   2.689   1.005   6.956
 4137SOL    HW113154   2.736   0.989   6.874
 4137SOL    HW213155   2.695   1.099   6.969
 4138SOL     OW13156   2.778   0.912   5.878
 4138SOL    HW113157   2.838   0.945   5.811
 4138SOL    HW213158   2.827   0.844   5.923
 4139SOL     OW13159   3.349   1.630   5.630
 4139SOL    HW113160   3.255   1.620   5.615
 4139SOL    HW213161   3.387   1.636   5.542
 4140SOL     OW13162   2.270   1.281   7.027
 4140SOL    HW113163   2.238   1.371   7.034
 4140SOL    HW213164   2.195   1.226   7.051
 4141SOL     OW13165   3.461   1.278   6.862
 4141SOL    HW113166   3.532   1.271   6.926
 4141SOL    HW213167   3.405   1.348   6.896
 4142SOL     OW13168   2.917   1.110   6.290
 4142SOL    HW113169   2.845   1.058   6.328
 4142SOL    HW213170   2.982   1.045   6.264
 4143SOL     OW13171   2.877   0.250   6.557
 4143SOL    HW113172   2.867   0.199   6.476
 4143SOL    HW213173   2.874   0.184   6.627
 4144SOL     OW13174   3.583   0.395   6.957
 4144SOL    HW113175   3.655   0.458   6.958
 4144SOL    HW213176   3.614   0.322   6.903
 4145SOL     OW13177   2.124   1.359   5.885
 4145SOL    HW113178   2.031   1.349   5.867
 4145SOL    HW213179   2.127   1.397   5.973
 4146SOL     OW13180   1.977   1.009   7.299
 4146SOL    HW113181   1.899   0.998   7.354
 4146SOL    HW213182   2.050   0.981   7.354
 4147SOL     OW13183   2.557   0.261   7.090
 4147SOL    HW113184   2.622   0.205   7.048
 4147SOL    HW213185   2.583   0.265   7.182
 4148SOL     OW13186   1.964   0.317   5.578
 4148SOL    HW113187   1.897   0.337   5.644
 4148SOL    HW213188   1.970   0.397   5.526
 4149SOL     OW13189   3.285   0.856   6.983
 4149SOL    HW113190   3.235   0.918   6.930
 4149SOL    HW213191   3.374   0.859   6.946
 4150SOL     OW13192   1.942   0.150   5.925
 4150SOL    HW113193   1.911   0.209   5.856
 4150SOL    HW213194   2.029   0.124   5.896
 4151SOL     OW13195   3.039   1.334   5.702
 4151SOL    HW113196   2.948   1.306   5.703
 4151SOL    HW213197   3.065   1.335   5.795
 4152SOL     OW13198   2.485   0.830   7.021
 4152SOL    HW113199   2.542   0.904   7.003
 4152SOL    HW213200   2.544   0.755   7.029
 4153SOL     OW13201   3.350   1.788   6.565
 4153SOL    HW113202   3.376   1.852   6.499
 4153SOL    HW213203   3.433   1.752   6.597
 4154SOL     OW13204   2.582   0.558   7.290
 4154SOL    HW113205   2.625   0.619   7.350
 4154SOL    HW213206   2.603   0.471   7.323
 4155SOL     OW13207   3.339   1.193   7.216
 4155SOL    HW113208   3.329   1.209   7.310
 4155SOL    HW213209   3.432   1.211   7.199
 4156SOL     OW13210   3.524   0.880   6.845
 4156SOL    HW113211   3.524   0.795   6.801
 4156SOL    HW213212   3.517   0.944   6.774
 4157SOL     OW13213   3.081   0.339   6.028
 4157SOL    HW113214   3.150   0.274   6.018
 4157SOL    HW213215   3.100   0.383   6.110
 4158SOL     OW13216   2.449   0.736   6.258
 4158SOL    HW113217   2.486   0.824   6.244
 4158SOL    HW213218   2.384   0.726   6.189
 4159SOL     OW13219   3.615   0.381   7.228
 4159SOL    HW113220   3.595   0.391   7.135
 4159SOL    HW213221   3.554   0.314   7.259
 4160SOL     OW13222   3.617   0.929   7.099
 4160SOL    HW113223   3.607   1.023   7.117
 4160SOL    HW213224   3.591   0.920   7.007
 4161SOL     OW13225   2.728   1.363   5.618
 4161SOL    HW113226   2.697   1.376   5.707
 4161SOL    HW213227   2.737   1.452   5.583
 4162SOL     OW13228   2.729   0.967   6.435
 4162SOL    HW113229   2.781   0.896   6.473
 4162SOL    HW213230   2.693   1.013   6.511
 4163SOL     OW13231   2.940   0.989   5.677
 4163SOL    HW113232   2.917   1.041   5.600
 4163SOL    HW213233   3.013   0.935   5.648
 4164SOL     OW13234   3.711   1.557   6.427
 4164SOL    HW113235   3.632   1.540   6.376
 4164SOL    HW213236   3.712   1.488   6.493
 4165SOL     OW13237   3.675   0.181   6.830
 4165SOL    HW113238   3.677   0.086   6.839
 4165SOL    HW213239   3.694   0.197   6.738
 4166SOL     OW13240   2.290   0.434   6.112
 4166SOL    HW113241   2.325   0.363   6.058
 4166SOL    HW213242   2.242   0.390   6.182
 4167SOL     OW13243   3.557   1.491   6.682
 4167SOL    HW113244   3.480   1.468   6.630
 4167SOL    HW213245   3.565   1.418   6.744
 4168SOL     OW13246   2.196   0.557   6.881
 4168SOL    HW113247   2.248   0.497   6.935
 4168SOL    HW213248   2.214   0.531   6.791
 4169SOL     OW13249   3.323   0.254   6.696
 4169SOL    HW113250   3.337   0.166   6.731
 4169SOL    HW213251   3.267   0.297   6.761
 4170SOL     OW13252   2.864   0.026   6.732
 4170SOL    HW113253   2.782   3.998   6.692
 4170SOL    HW213254   2.915   3.945   6.740
 4171SOL     OW13255   2.663   1.329   5.882
 4171SOL    HW113256   2.607   1.253   5.899
 4171SOL    HW213257   2.726   1.328   5.954
 4172SOL     OW13258   3.170   0.069   5.746
 4172SOL    HW113259   3.173   3.984   5.704
 4172SOL    HW213260   3.086   0.070   5.793
 4173SOL     OW13261   3.141   0.456   6.270
 4173SOL    HW113262   3.095   0.540   6.264
 4173SOL    HW213263   3.144   0.437   6.364
 4174SOL     OW13264   3.453   0.210   6.453
 4174SOL    HW113265   3.405   0.234   6.533
 4174SOL    HW213266   3.451   0.289   6.399
 4175SOL     OW13267   1.906   1.062   5.885
 4175SOL    HW113268   2.001   1.062   5.876
 4175SOL    HW213269   1.884   0.972   5.912
 4176SOL     OW13270   2.087   0.619   7.569
 4176SOL    HW113271   1.997   0.629   7.600
 4176SOL    HW213272   2.077   0.600   7.476
 4177SOL     OW13273   2.079   0.302   8.440
 4177SOL    HW113274   2.115   0.258   8.516
 4177SOL    HW213275   1.993   0.260   8.427
 4178SOL     OW13276   1.870   0.396   8.081
 4178SOL    HW113277   1.784   0.413   8.120
 4178SOL    HW213278   1.853   0.332   8.012
 4179SOL     OW13279   2.430   1.294   8.626
 4179SOL    HW113280   2.343   1.298   8.587
 4179SOL    HW213281   2.447   1.384   8.655
 4180SOL     OW13282   3.428   1.513   8.156
 4180SOL    HW113283   3.386   1.491   8.239
 4180SOL    HW213284   3.356   1.517   8.093
 4181SOL     OW13285   2.995   0.699   8.142
 4181SOL    HW113286   3.043   0.781   8.131
 4181SOL    HW213287   2.947   0.710   8.225
 4182SOL     OW13288   3.624   0.624   7.673
 4182SOL    HW113289   3.605   0.612   7.580
 4182SOL    HW213290   3.606   0.539   7.712
 4183SOL     OW13291   2.613   1.140   8.494
 4183SOL    HW113292   2.545   1.175   8.551
 4183SOL    HW213293   2.651   1.217   8.451
 4184SOL     OW13294   2.735   0.766   9.273
 4184SOL    HW113295   2.720   0.836   9.336
 4184SOL    HW213296   2.757   0.811   9.191
 4185SOL     OW13297   2.551   0.999   8.090
 4185SOL    HW113298   2.615   0.989   8.160
 4185SOL    HW213299   2.480   1.050   8.130
 4186SOL     OW13300   2.577   1.149   9.265
 4186SOL    HW113301   2.624   1.227   9.296
 4186SOL    HW213302   2.495   1.183   9.229
 4187SOL     OW13303   2.190   1.421   8.517
 4187SOL    HW113304   2.116   1.380   8.472
 4187SOL    HW213305   2.235   1.472   8.449
 4188SOL     OW13306   3.320   1.502   8.807
 4188SOL    HW113307   3.375   1.580   8.817
 4188SOL    HW213308   3.254   1.511   8.876
 4189SOL     OW13309   2.308   0.391   8.939
 4189SOL    HW113310   2.400   0.363   8.939
 4189SOL    HW213311   2.258   0.310   8.948
 4190SOL     OW13312   3.472   0.450   8.183
 4190SOL    HW113313   3.405   0.484   8.124
 4190SOL    HW213314   3.492   0.523   8.241
 4191SOL     OW13315   2.094   1.700   7.928
 4191SOL    HW113316   2.034   1.774   7.932
 4191SOL    HW213317   2.162   1.727   7.867
 4192SOL     OW13318   2.999   1.342   9.142
 4192SOL    HW113319   3.041   1.336   9.228
 4192SOL    HW213320   2.947   1.262   9.135
 4193SOL     OW13321   2.141   1.451   8.038
 4193SOL    HW113322   2.115   1.537   8.004
 4193SOL    HW213323   2.059   1.412   8.069
 4194SOL     OW13324   2.133   1.092   8.344
 4194SOL    HW113325   2.122   1.002   8.377
 4194SOL    HW213326   2.071   1.144   8.394
 4195SOL     OW13327   2.466   1.783   8.880
 4195SOL    HW113328   2.389   1.771   8.935
 4195SOL    HW213329   2.493   1.874   8.896
 4196SOL     OW13330   2.443   0.984   7.585
 4196SOL    HW113331   2.486   1.032   7.515
 4196SOL    HW213332   2.484   1.016   7.665
 4197SOL     OW13333   3.445   0.143   8.904
 4197SOL    HW113334   3.473   0.214   8.847
 4197SOL    HW213335   3.405   0.186   8.979
 4198SOL     OW13336   1.987   0.651   8.014
 4198SOL    HW113337   1.956   0.564   8.038
 4198SOL    HW213338   1.976   0.703   8.093
 4199SOL     OW13339   3.702   1.757   7.785
 4199SOL    HW113340   3.774   1.733   7.844
 4199SOL    HW213341   3.720   1.849   7.763
 4200SOL     OW13342   3.551   0.918   8.097
 4200SOL    HW113343   3.635   0.875   8.081
 4200SOL    HW213344   3.535   0.967   8.016
 4201SOL     OW13345   3.504   1.103   7.880
 4201SOL    HW113346   3.589   1.108   7.836
 4201SOL    HW213347   3.511   1.166   7.951
 4202SOL     OW13348   1.984   0.750   9.027
 4202SOL    HW113349   2.074   0.784   9.031
 4202SOL    HW213350   1.929   0.828   9.031
 4203SOL     OW13351   2.474   1.393   8.175
 4203SOL    HW113352   2.444   1.304   8.197
 4203SOL    HW213353   2.418   1.420   8.102
 4204SOL     OW13354   3.148   1.237   8.869
 4204SOL    HW113355   3.180   1.169   8.809
 4204SOL    HW213356   3.207   1.232   8.944
 4205SOL     OW13357   2.683   0.006   7.967
 4205SOL    HW113358   2.729   0.086   7.940
 4205SOL    HW213359   2.590   0.030   7.965
 4206SOL     OW13360   2.051   0.959   8.727
 4206SOL    HW113361   2.136   0.919   8.710
 4206SOL    HW213362   1.992   0.916   8.665
 4207SOL     OW13363   3.389   0.998   7.650
 4207SOL    HW113364   3.320   0.941   7.684
 4207SOL    HW213365   3.433   1.032   7.727
 4208SOL     OW13366   3.047   1.811   9.073
 4208SOL    HW113367   3.056   1.871   8.998
 4208SOL    HW213368   3.065   1.724   9.036
 4209SOL     OW13369   2.222   0.250   9.298
 4209SOL    HW113370   2.267   0.335   9.299
 4209SOL    HW213371   2.129   0.273   9.298
 4210SOL     OW13372   3.327   1.420   8.395
 4210SOL    HW113373   3.262   1.435   8.463
 4210SOL    HW213374   3.316   1.328   8.371
 4211SOL     OW13375   3.511   1.750   8.028
 4211SOL    HW113376   3.501   1.716   7.939
 4211SOL    HW213377   3.496   1.675   8.085
 4212SOL     OW13378   2.456   0.719   7.718
 4212SOL    HW113379   2.457   0.803   7.672
 4212SOL    HW213380   2.391   0.731   7.788
 4213SOL     OW13381   3.136   0.371   8.389
 4213SOL    HW113382   3.049   0.332   8.397
 4213SOL    HW213383   3.194   0.310   8.434
 4214SOL     OW13384   3.439   1.669   7.758
 4214SOL    HW113385   3.530   1.699   7.752
 4214SOL    HW213386   3.413   1.654   7.668
 4215SOL     OW13387   2.658   0.615   8.899
 4215SOL    HW113388   2.630   0.589   8.986
 4215SOL    HW213389   2.621   0.548   8.841
 4216SOL     OW13390   3.254   0.475   9.125
 4216SOL    HW113391   3.260   0.521   9.209
 4216SOL    HW213392   3.310   0.399   9.136
 4217SOL     OW13393   2.813   0.887   9.034
 4217SOL    HW113394   2.868   0.818   8.996
 4217SOL    HW213395   2.764   0.922   8.960
 4218SOL     OW13396   2.856   0.402   8.684
 4218SOL    HW113397   2.770   0.421   8.721
 4218SOL    HW213398   2.837   0.375   8.594
 4219SOL     OW13399   2.914   0.701   7.872
 4219SOL    HW113400   2.932   0.694   7.966
 4219SOL    HW213401   2.831   0.655   7.860
 4220SOL     OW13402   1.950   0.820   8.226
 4220SOL    HW113403   2.029   0.815   8.279
 4220SOL    HW213404   1.903   0.897   8.259
 4221SOL     OW13405   2.757   0.352   7.649
 4221SOL    HW113406   2.800   0.411   7.586
 4221SOL    HW213407   2.745   0.271   7.600
 4222SOL     OW13408   3.567   0.572   9.278
 4222SOL    HW113409   3.531   0.647   9.230
 4222SOL    HW213410   3.594   0.511   9.210
 4223SOL     OW13411   3.239   1.141   7.986
 4223SOL    HW113412   3.321   1.129   7.936
 4223SOL    HW213413   3.189   1.204   7.934
 4224SOL     OW13414   2.421   0.199   8.328
 4224SOL    HW113415   2.424   0.219   8.422
 4224SOL    HW213416   2.416   0.285   8.286
 4225SOL     OW13417   2.859   1.459   7.916
 4225SOL    HW113418   2.802   1.531   7.890
 4225SOL    HW213419   2.854   1.458   8.012
 4226SOL     OW13420   2.258   1.818   8.245
 4226SOL    HW113421   2.252   1.726   8.267
 4226SOL    HW213422   2.305   1.858   8.318
 4227SOL     OW13423   3.668   1.062   8.317
 4227SOL    HW113424   3.616   1.034   8.242
 4227SOL    HW213425   3.606   1.065   8.390
 4228SOL     OW13426   3.089   1.540   8.962
 4228SOL    HW113427   3.077   1.468   9.023
 4228SOL    HW213428   3.021   1.526   8.895
 4229SOL     OW13429   2.176   0.957   7.703
 4229SOL    HW113430   2.257   0.977   7.657
 4229SOL    HW213431   2.146   0.875   7.663
 4230SOL     OW13432   3.342   0.751   8.176
 4230SOL    HW113433   3.338   0.709   8.262
 4230SOL    HW213434   3.420   0.806   8.180
 4231SOL     OW13435   2.334   1.266   9.189
 4231SOL    HW113436   2.308   1.268   9.097
 4231SOL    HW213437   2.252   1.262   9.237
 4232SOL     OW13438   3.012   1.783   7.672
 4232SOL    HW113439   2.993   1.728   7.748
 4232SOL    HW213440   3.027   1.722   7.601
 4233SOL     OW13441   2.029   0.274   8.948
 4233SOL    HW113442   1.978   0.354   8.932
 4233SOL    HW213443   2.032   0.265   9.043
 4234SOL     OW13444   3.486   1.385   7.537
 4234SOL    HW113445   3.443   1.469   7.520
 4234SOL    HW213446   3.419   1.319   7.515
 4235SOL     OW13447   2.301   1.785   7.773
 4235SOL    HW113448   2.361   1.811   7.843
 4235SOL    HW213449   2.356   1.737   7.711
 4236SOL     OW13450   3.298   0.174   7.850
 4236SOL    HW113451   3.250   0.099   7.815
 4236SOL    HW213452   3.373   0.135   7.896
 4237SOL     OW13453   2.125   1.742   8.663
 4237SOL    HW113454   2.181   1.677   8.706
 4237SOL    HW213455   2.141   1.730   8.570
 4238SOL     OW13456   2.799   1.699   8.341
 4238SOL    HW113457   2.876   1.648   8.366
 4238SOL    HW213458   2.757   1.648   8.272
 4239SOL     OW13459   2.260   0.694   7.921
 4239SOL    HW113460   2.277   0.601   7.935
 4239SOL    HW213461   2.167   0.705   7.940
 4240SOL     OW13462   3.391   0.228   9.175
 4240SOL    HW113463   3.382   0.253   9.267
 4240SOL    HW213464   3.378   0.133   9.173
 4241SOL     OW13465   2.507   0.127   7.558
 4241SOL    HW113466   2.526   0.042   7.596
 4241SOL    HW213467   2.444   0.109   7.488
 4242SOL     OW13468   2.636   0.283   9.220
 4242SOL    HW113469   2.712   0.225   9.222
 4242SOL    HW213470   2.580   0.252   9.291
 4243SOL     OW13471   2.740   1.524   8.641
 4243SOL    HW113472   2.723   1.485   8.555
 4243SOL    HW213473   2.809   1.469   8.679
 4244SOL     OW13474   3.201   0.587   8.879
 4244SOL    HW113475   3.232   0.559   8.965
 4244SOL    HW213476   3.235   0.676   8.869
 4245SOL     OW13477   2.680   1.392   8.391
 4245SOL    HW113478   2.765   1.378   8.349
 4245SOL    HW213479   2.618   1.395   8.318
 4246SOL     OW13480   2.793   0.512   8.346
 4246SOL    HW113481   2.768   0.503   8.254
 4246SOL    HW213482   2.818   0.424   8.373
 4247SOL     OW13483   2.406   0.056   7.938
 4247SOL    HW113484   2.332   0.061   7.999
 4247SOL    HW213485   2.402   0.137   7.887
 4248SOL     OW13486   3.290   1.199   7.488
 4248SOL    HW113487   3.322   1.124   7.538
 4248SOL    HW213488   3.205   1.220   7.526
 4249SOL     OW13489   2.194   0.044   7.660
 4249SOL    HW113490   2.198   0.109   7.589
 4249SOL    HW213491   2.274   0.059   7.710
 4250SOL     OW13492   2.806   0.251   7.906
 4250SOL    HW113493   2.781   0.289   7.822
 4250SOL    HW213494   2.902   0.256   7.908
 4251SOL     OW13495   2.941   0.685   8.905
 4251SOL    HW113496   2.872   0.620   8.912
 4251SOL    HW213497   3.022   0.634   8.901
 4252SOL     OW13498   3.082   1.570   8.240
 4252SOL    HW113499   3.099   1.638   8.174
 4252SOL    HW213500   3.151   1.584   8.305
 4253SOL     OW13501   2.341   1.151   8.183
 4253SOL    HW113502   2.273   1.133   8.248
 4253SOL    HW213503   2.298   1.134   8.098
 4254SOL     OW13504   3.124   1.793   8.054
 4254SOL    HW113505   3.176   1.853   8.000
 4254SOL    HW213506   3.066   1.849   8.105
 4255SOL     OW13507   2.884   0.539   7.479
 4255SOL    HW113508   2.840   0.622   7.459
 4255SOL    HW213509   2.947   0.561   7.547
 4256SOL     OW13510   1.946   0.548   8.845
 4256SOL    HW113511   2.037   0.552   8.815
 4256SOL    HW213512   1.938   0.621   8.907
 4257SOL     OW13513   2.424   0.231   8.609
 4257SOL    HW113514   2.447   0.138   8.618
 4257SOL    HW213515   2.335   0.237   8.642
 4258SOL     OW13516   2.732   0.461   8.085
 4258SOL    HW113517   2.684   0.515   8.022
 4258SOL    HW213518   2.754   0.381   8.036
 4259SOL     OW13519   2.859   0.038   8.229
 4259SOL    HW113520   2.820   0.069   8.147
 4259SOL    HW213521   2.871   3.944   8.217
 4260SOL     OW13522   3.302   1.161   8.306
 4260SOL    HW113523   3.233   1.095   8.304
 4260SOL    HW213524   3.330   1.169   8.214
 4261SOL     OW13525   3.325   0.610   8.419
 4261SOL    HW113526   3.270   0.531   8.424
 4261SOL    HW213527   3.385   0.602   8.494
 4262SOL     OW13528   3.720   0.825   7.823
 4262SOL    HW113529   3.761   0.768   7.888
 4262SOL    HW213530   3.683   0.765   7.758
 4263SOL     OW13531   3.530   1.265   8.091
 4263SOL    HW113532   3.625   1.266   8.101
 4263SOL    HW213533   3.502   1.354   8.112
 4264SOL     OW13534   3.257   0.578   7.516
 4264SOL    HW113535   3.194   0.557   7.586
 4264SOL    HW213536   3.342   0.561   7.556
 4265SOL     OW13537   2.387   0.266   7.763
 4265SOL    HW113538   2.444   0.228   7.696
 4265SOL    HW213539   2.358   0.349   7.725
 4266SOL     OW13540   3.612   1.233   9.011
 4266SOL    HW113541   3.700   1.198   8.993
 4266SOL    HW213542   3.627   1.323   9.040
 4267SOL     OW13543   2.917   1.352   8.779
 4267SOL    HW113544   2.842   1.322   8.830
 4267SOL    HW213545   2.993   1.312   8.821
 4268SOL     OW13546   3.468   1.629   9.105
 4268SOL    HW113547   3.459   1.664   9.016
 4268SOL    HW213548   3.547   1.576   9.103
 4269SOL     OW13549   2.995   1.208   8.551
 4269SOL    HW113550   2.937   1.246   8.617
 4269SOL    HW213551   2.962   1.242   8.468
 4270SOL     OW13552   3.488   1.094   8.522
 4270SOL    HW113553   3.479   1.156   8.595
 4270SOL    HW213554   3.412   1.111   8.466
 4271SOL     OW13555   2.774   0.118   8.849
 4271SOL    HW113556   2.793   0.089   8.760
 4271SOL    HW213557   2.854   0.160   8.879
 4272SOL     OW13558   2.846   1.116   9.172
 4272SOL    HW113559   2.755   1.132   9.196
 4272SOL    HW213560   2.843   1.037   9.117
 4273SOL     OW13561   2.574   1.070   7.815
 4273SOL    HW113562   2.555   1.050   7.906
 4273SOL    HW213563   2.648   1.013   7.793
 4274SOL     OW13564   2.284   0.816   8.699
 4274SOL    HW113565   2.352   0.825   8.766
 4274SOL    HW213566   2.249   0.729   8.712
 4275SOL     OW13567   3.128   0.375   8.725
 4275SOL    HW113568   3.161   0.453   8.769
 4275SOL    HW213569   3.040   0.399   8.696
 4276SOL     OW13570   1.951   1.554   8.816
 4276SOL    HW113571   1.927   1.621   8.751
 4276SOL    HW213572   2.046   1.547   8.809
 4277SOL     OW13573   2.216   1.101   7.947
 4277SOL    HW113574   2.210   1.180   7.892
 4277SOL    HW213575   2.206   1.029   7.885
 4278SOL     OW13576   2.415   0.530   8.304
 4278SOL    HW113577   2.428   0.590   8.230
 4278SOL    HW213578   2.480   0.557   8.369
 4279SOL     OW13579   3.107   1.353   7.837
 4279SOL    HW113580   3.165   1.422   7.869
 4279SOL    HW213581   3.020   1.377   7.870
 4280SOL     OW13582   3.149   1.460   8.596
 4280SOL    HW113583   3.206   1.466   8.674
 4280SOL    HW213584   3.095   1.383   8.612
 4281SOL     OW13585   3.431   0.633   7.935
 4281SOL    HW113586   3.390   0.688   8.002
 4281SOL    HW213587   3.481   0.695   7.881
 4282SOL     OW13588   2.220   1.508   8.768
 4282SOL    HW113589   2.205   1.470   8.681
 4282SOL    HW213590   2.315   1.522   8.771
 4283SOL     OW13591   2.282   0.745   9.051
 4283SOL    HW113592   2.342   0.789   8.992
 4283SOL    HW213593   2.323   0.660   9.069
 4284SOL     OW13594   3.468   0.779   9.133
 4284SOL    HW113595   3.382   0.822   9.128
 4284SOL    HW213596   3.521   0.822   9.066
 4285SOL     OW13597   2.871   0.137   9.229
 4285SOL    HW113598   2.926   0.207   9.194
 4285SOL    HW213599   2.856   0.078   9.155
 4286SOL     OW13600   2.352   0.034   9.209
 4286SOL    HW113601   2.352   0.050   9.114
 4286SOL    HW213602   2.292   0.100   9.244
 4287SOL     OW13603   2.448   0.873   8.481
 4287SOL    HW113604   2.475   0.965   8.482
 4287SOL    HW213605   2.389   0.864   8.556
 4288SOL     OW13606   3.211   0.859   8.470
 4288SOL    HW113607   3.125   0.844   8.431
 4288SOL    HW213608   3.257   0.775   8.462
 4289SOL     OW13609   3.061   0.539   7.704
 4289SOL    HW113610   3.069   0.459   7.757
 4289SOL    HW213611   3.017   0.602   7.762
 4290SOL     OW13612   2.160   0.208   8.691
 4290SOL    HW113613   2.117   0.237   8.772
 4290SOL    HW213614   2.149   0.113   8.691
 4291SOL     OW13615   1.902   1.303   8.726
 4291SOL    HW113616   1.937   1.244   8.794
 4291SOL    HW213617   1.915   1.391   8.762
 4292SOL     OW13618   2.583   0.631   8.498
 4292SOL    HW113619   2.659   0.620   8.442
 4292SOL    HW213620   2.553   0.720   8.481
 4293SOL     OW13621   3.594   0.957   9.313
 4293SOL    HW113622   3.552   0.893   9.256
 4293SOL    HW213623   3.529   0.973   9.382
 4294SOL     OW13624   2.186   0.054   8.103
 4294SOL    HW113625   2.165   0.147   8.114
 4294SOL    HW213626   2.155   0.013   8.184
 4295SOL     OW13627   3.475   0.394   7.826
 4295SOL    HW113628   3.433   0.326   7.879
 4295SOL    HW213629   3.453   0.476   7.872
 4296SOL     OW13630   2.892   0.759   8.406
 4296SOL    HW113631   2.883   0.776   8.499
 4296SOL    HW213632   2.865   0.668   8.395
 4297SOL     OW13633   2.844   1.566   9.169
 4297SOL    HW113634   2.828   1.610   9.085
 4297SOL    HW213635   2.887   1.484   9.146
 4298SOL     OW13636   3.703   1.496   9.045
 4298SOL    HW113637   3.728   1.527   8.958
 4298SOL    HW213638   3.783   1.505   9.097
 4299SOL     OW13639   2.214   0.915   9.258
 4299SOL    HW113640   2.295   0.935   9.305
 4299SOL    HW213641   2.240   0.853   9.190
 4300SOL     OW13642   3.360   0.273   7.581
 4300SOL    HW113643   3.288   0.211   7.591
 4300SOL    HW213644   3.372   0.310   7.668
 4301SOL     OW13645   3.147   0.827   7.476
 4301SOL    HW113646   3.190   0.741   7.480
 4301SOL    HW213647   3.180   0.866   7.395
 4302SOL     OW13648   2.927   1.339   8.301
 4302SOL    HW113649   2.935   1.265   8.240
 4302SOL    HW213650   2.991   1.403   8.269
 4303SOL     OW13651   2.169   0.809   8.395
 4303SOL    HW113652   2.262   0.830   8.386
 4303SOL    HW213653   2.167   0.719   8.426
 4304SOL     OW13654   2.199   0.537   8.463
 4304SOL    HW113655   2.157   0.452   8.448
 4304SOL    HW213656   2.275   0.537   8.404
 4305SOL     OW13657   2.995   0.380   9.147
 4305SOL    HW113658   2.946   0.434   9.209
 4305SOL    HW213659   3.081   0.420   9.142
 4306SOL     OW13660   3.014   0.226   8.929
 4306SOL    HW113661   3.004   0.279   9.008
 4306SOL    HW213662   3.040   0.288   8.861
 4307SOL     OW13663   2.357   1.574   8.359
 4307SOL    HW113664   2.422   1.642   8.377
 4307SOL    HW213665   2.401   1.513   8.301
 4308SOL     OW13666   2.837   0.787   8.670
 4308SOL    HW113667   2.895   0.769   8.745
 4308SOL    HW213668   2.753   0.750   8.696
 4309SOL     OW13669   1.895   0.547   8.565
 4309SOL    HW113670   1.969   0.524   8.510
 4309SOL    HW213671   1.930   0.547   8.654
 4310SOL     OW13672   2.066   0.527   9.159
 4310SOL    HW113673   2.138   0.507   9.100
 4310SOL    HW213674   2.023   0.603   9.120
 4311SOL     OW13675   3.243   0.935   9.105
 4311SOL    HW113676   3.264   1.028   9.102
 4311SOL    HW213677   3.238   0.908   9.013
 4312SOL     OW13678   2.680   0.573   7.813
 4312SOL    HW113679   2.685   0.498   7.755
 4312SOL    HW213680   2.604   0.623   7.781
 4313SOL     OW13681   3.500   0.602   8.629
 4313SOL    HW113682   3.490   0.542   8.702
 4313SOL    HW213683   3.587   0.582   8.593
 4314SOL     OW13684   2.089   1.562   9.189
 4314SOL    HW113685   2.044   1.592   9.268
 4314SOL    HW213686   2.114   1.472   9.208
 4315SOL     OW13687   2.575   0.451   8.701
 4315SOL    HW113688   2.521   0.374   8.678
 4315SOL    HW213689   2.563   0.511   8.627
 4316SOL     OW13690   2.787   1.677   8.918
 4316SOL    HW113691   2.760   1.641   8.834
 4316SOL    HW213692   2.783   1.772   8.906
 4317SOL     OW13693   2.323   0.493   7.629
 4317SOL    HW113694   2.381   0.566   7.655
 4317SOL    HW213695   2.238   0.534   7.617
 4318SOL     OW13696   2.004   1.139   8.923
 4318SOL    HW113697   2.005   1.092   9.006
 4318SOL    HW213698   2.021   1.071   8.857
 4319SOL     OW13699   3.182   1.043   8.668
 4319SOL    HW113700   3.205   0.981   8.600
 4319SOL    HW213701   3.116   1.099   8.629
 4320SOL     OW13702   3.175   0.856   7.752
 4320SOL    HW113703   3.101   0.824   7.804
 4320SOL    HW213704   3.148   0.842   7.662
 4321SOL     OW13705   3.645   1.740   8.607
 4321SOL    HW113706   3.700   1.767   8.534
 4321SOL    HW213707   3.614   1.653   8.582
 4322SOL     OW13708   3.102   1.732   8.552
 4322SOL    HW113709   3.185   1.756   8.511
 4322SOL    HW213710   3.112   1.640   8.575
 4323SOL     OW13711   1.955   1.258   8.465
 4323SOL    HW113712   1.932   1.271   8.557
 4323SOL    HW213713   1.878   1.215   8.427
 4324SOL     OW13714   2.540   1.669   9.182
 4324SOL    HW113715   2.486   1.748   9.182
 4324SOL    HW213716   2.608   1.687   9.117
 4325SOL     OW13717   3.549   0.119   7.936
 4325SOL    HW113718   3.630   0.135   7.888
 4325SOL    HW213719   3.553   0.025   7.958
 4326SOL     OW13720   3.250   1.569   7.935
 4326SOL    HW113721   3.313   1.601   7.870
 4326SOL    HW213722   3.207   1.648   7.967
 4327SOL     OW13723   3.139   0.929   8.120
 4327SOL    HW113724   3.213   0.870   8.132
 4327SOL    HW213725   3.174   1.000   8.066
 4328SOL     OW13726   2.668   1.275   8.873
 4328SOL    HW113727   2.641   1.316   8.955
 4328SOL    HW213728   2.597   1.295   8.812
 4329SOL     OW13729   3.480   1.728   8.839
 4329SOL    HW113730   3.537   1.732   8.762
 4329SOL    HW213731   3.466   1.819   8.864
 4330SOL     OW13732   3.704   0.182   8.419
 4330SOL    HW113733   3.729   0.098   8.381
 4330SOL    HW213734   3.618   0.201   8.382
 4331SOL     OW13735   2.125   0.315   8.162
 4331SOL    HW113736   2.038   0.348   8.139
 4331SOL    HW213737   2.123   0.309   8.258
 4332SOL     OW13738   3.069   1.601   7.479
 4332SOL    HW113739   3.054   1.508   7.499
 4332SOL    HW213740   3.008   1.621   7.408
 4333SOL     OW13741   2.686   1.006   8.822
 4333SOL    HW113742   2.728   1.001   8.736
 4333SOL    HW213743   2.683   1.100   8.842
 4334SOL     OW13744   2.779   0.913   7.736
 4334SOL    HW113745   2.842   0.946   7.672
 4334SOL    HW213746   2.826   0.844   7.783
 4335SOL     OW13747   3.350   1.631   7.491
 4335SOL    HW113748   3.256   1.620   7.475
 4335SOL    HW213749   3.389   1.635   7.404
 4336SOL     OW13750   2.229   1.297   8.947
 4336SOL    HW113751   2.223   1.370   8.885
 4336SOL    HW213752   2.152   1.244   8.929
 4337SOL     OW13753   3.461   1.280   8.724
 4337SOL    HW113754   3.530   1.271   8.789
 4337SOL    HW213755   3.404   1.349   8.759
 4338SOL     OW13756   2.921   1.111   8.156
 4338SOL    HW113757   2.849   1.060   8.194
 4338SOL    HW213758   2.985   1.045   8.130
 4339SOL     OW13759   2.877   0.250   8.419
 4339SOL    HW113760   2.867   0.199   8.338
 4339SOL    HW213761   2.874   0.184   8.488
 4340SOL     OW13762   3.583   0.395   8.819
 4340SOL    HW113763   3.655   0.458   8.820
 4340SOL    HW213764   3.614   0.323   8.765
 4341SOL     OW13765   1.976   1.030   9.172
 4341SOL    HW113766   1.899   1.003   9.223
 4341SOL    HW213767   2.050   0.988   9.216
 4342SOL     OW13768   2.557   0.261   8.952
 4342SOL    HW113769   2.623   0.205   8.910
 4342SOL    HW213770   2.584   0.265   9.043
 4343SOL     OW13771   1.964   0.317   7.440
 4343SOL    HW113772   1.897   0.337   7.506
 4343SOL    HW213773   1.970   0.397   7.388
 4344SOL     OW13774   3.285   0.856   8.845
 4344SOL    HW113775   3.236   0.918   8.792
 4344SOL    HW213776   3.374   0.859   8.809
 4345SOL     OW13777   1.943   0.150   7.787
 4345SOL    HW113778   1.910   0.208   7.719
 4345SOL    HW213779   2.030   0.123   7.758
 4346SOL     OW13780   3.040   1.330   7.568
 4346SOL    HW113781   2.962   1.276   7.575
 4346SOL    HW213782   3.072   1.340   7.658
 4347SOL     OW13783   2.484   0.828   8.882
 4347SOL    HW113784   2.541   0.904   8.868
 4347SOL    HW213785   2.544   0.755   8.891
 4348SOL     OW13786   3.344   1.784   8.428
 4348SOL    HW113787   3.368   1.851   8.363
 4348SOL    HW213788   3.428   1.752   8.462
 4349SOL     OW13789   2.581   0.559   9.151
 4349SOL    HW113790   2.624   0.621   9.211
 4349SOL    HW213791   2.603   0.473   9.186
 4350SOL     OW13792   3.335   1.195   9.077
 4350SOL    HW113793   3.324   1.211   9.171
 4350SOL    HW213794   3.428   1.212   9.061
 4351SOL     OW13795   2.230   1.741   9.027
 4351SOL    HW113796   2.164   1.750   8.958
 4351SOL    HW213797   2.199   1.670   9.082
 4352SOL     OW13798   3.525   0.880   8.707
 4352SOL    HW113799   3.525   0.795   8.664
 4352SOL    HW213800   3.518   0.943   8.636
 4353SOL     OW13801   3.082   0.339   7.889
 4353SOL    HW113802   3.151   0.274   7.880
 4353SOL    HW213803   3.101   0.383   7.972
 4354SOL     OW13804   2.451   0.736   8.120
 4354SOL    HW113805   2.490   0.822   8.104
 4354SOL    HW213806   2.385   0.726   8.051
 4355SOL     OW13807   3.615   0.381   9.090
 4355SOL    HW113808   3.595   0.390   8.997
 4355SOL    HW213809   3.554   0.314   9.121
 4356SOL     OW13810   3.617   0.930   8.961
 4356SOL    HW113811   3.607   1.023   8.979
 4356SOL    HW213812   3.592   0.920   8.869
 4357SOL     OW13813   2.702   1.360   7.451
 4357SOL    HW113814   2.712   1.363   7.546
 4357SOL    HW213815   2.749   1.437   7.419
 4358SOL     OW13816   2.526   1.793   8.384
 4358SOL    HW113817   2.516   1.888   8.379
 4358SOL    HW213818   2.620   1.779   8.384
 4359SOL     OW13819   2.732   0.972   8.302
 4359SOL    HW113820   2.781   0.898   8.339
 4359SOL    HW213821   2.693   1.015   8.377
 4360SOL     OW13822   2.944   0.997   7.537
 4360SOL    HW113823   2.919   1.041   7.456
 4360SOL    HW213824   3.015   0.938   7.512
 4361SOL     OW13825   3.712   1.557   8.289
 4361SOL    HW113826   3.633   1.539   8.239
 4361SOL    HW213827   3.715   1.487   8.355
 4362SOL     OW13828   2.091   1.297   9.299
 4362SOL    HW113829   2.024   1.234   9.273
 4362SOL    HW213830   2.073   1.314   9.392
 4363SOL     OW13831   1.947   1.224   8.105
 4363SOL    HW113832   1.962   1.183   8.190
 4363SOL    HW213833   2.019   1.193   8.050
 4364SOL     OW13834   2.544   1.408   9.076
 4364SOL    HW113835   2.468   1.363   9.113
 4364SOL    HW213836   2.542   1.495   9.114
 4365SOL     OW13837   3.675   0.181   8.692
 4365SOL    HW113838   3.676   0.086   8.701
 4365SOL    HW213839   3.694   0.197   8.600
 4366SOL     OW13840   2.292   0.434   7.975
 4366SOL    HW113841   2.325   0.362   7.920
 4366SOL    HW213842   2.243   0.391   8.044
 4367SOL     OW13843   3.556   1.491   8.544
 4367SOL    HW113844   3.479   1.468   8.493
 4367SOL    HW213845   3.566   1.419   8.606
 4368SOL     OW13846   2.195   0.557   8.743
 4368SOL    HW113847   2.247   0.497   8.797
 4368SOL    HW213848   2.214   0.531   8.653
 4369SOL     OW13849   2.679   1.581   8.118
 4369SOL    HW113850   2.647   1.631   8.042
 4369SOL    HW213851   2.611   1.516   8.134
 4370SOL     OW13852   3.322   0.254   8.558
 4370SOL    HW113853   3.337   0.166   8.593
 4370SOL    HW213854   3.267   0.297   8.623
 4371SOL     OW13855   2.864   0.026   8.594
 4371SOL    HW113856   2.782   3.998   8.555
 4371SOL    HW213857   2.915   3.945   8.603
 4372SOL     OW13858   2.684   1.321   7.727
 4372SOL    HW113859   2.633   1.243   7.752
 4372SOL    HW213860   2.741   1.337   7.802
 4373SOL     OW13861   2.485   1.554   8.732
 4373SOL    HW113862   2.484   1.635   8.783
 4373SOL    HW213863   2.574   1.549   8.697
 4374SOL     OW13864   3.170   0.070   7.607
 4374SOL    HW113865   3.174   3.984   7.566
 4374SOL    HW213866   3.086   0.070   7.654
 4375SOL     OW13867   3.141   0.457   8.132
 4375SOL    HW113868   3.095   0.540   8.126
 4375SOL    HW213869   3.144   0.437   8.226
 4376SOL     OW13870   3.453   0.210   8.315
 4376SOL    HW113871   3.404   0.234   8.394
 4376SOL    HW213872   3.451   0.289   8.261
 4377SOL     OW13873   1.894   1.049   7.759
 4377SOL    HW113874   1.987   1.039   7.739
 4377SOL    HW213875   1.866   0.962   7.788
 4378SOL     OW13876   2.087   0.618   9.431
 4378SOL    HW113877   1.997   0.629   9.463
 4378SOL    HW213878   2.077   0.599   9.338
 4379SOL     OW13879   2.079   0.302  10.302
 4379SOL    HW113880   2.115   0.258  10.378
 4379SOL    HW213881   1.993   0.260  10.289
 4380SOL     OW13882   1.870   0.399   9.942
 4380SOL    HW113883   1.784   0.414   9.981
 4380SOL    HW213884   1.855   0.331   9.875
 4381SOL     OW13885   2.430   1.293  10.490
 4381SOL    HW113886   2.344   1.298  10.448
 4381SOL    HW213887   2.448   1.383  10.517
 4382SOL     OW13888   3.429   1.514  10.018
 4382SOL    HW113889   3.386   1.491  10.101
 4382SOL    HW213890   3.357   1.519   9.955
 4383SOL     OW13891   2.995   0.698  10.005
 4383SOL    HW113892   3.043   0.781   9.993
 4383SOL    HW213893   2.947   0.710  10.087
 4384SOL     OW13894   3.626   0.624   9.535
 4384SOL    HW113895   3.606   0.612   9.442
 4384SOL    HW213896   3.605   0.540   9.575
 4385SOL     OW13897   2.612   1.138  10.356
 4385SOL    HW113898   2.545   1.175  10.414
 4385SOL    HW213899   2.650   1.214  10.312
 4386SOL     OW13900   2.735   0.766  11.134
 4386SOL    HW113901   2.720   0.836  11.198
 4386SOL    HW213902   2.757   0.811  11.053
 4387SOL     OW13903   2.548   0.998   9.954
 4387SOL    HW113904   2.614   0.990  10.023
 4387SOL    HW213905   2.479   1.052   9.992
 4388SOL     OW13906   2.576   1.149  11.127
 4388SOL    HW113907   2.623   1.226  11.157
 4388SOL    HW213908   2.494   1.184  11.091
 4389SOL     OW13909   2.191   1.421  10.379
 4389SOL    HW113910   2.118   1.381  10.333
 4389SOL    HW213911   2.237   1.472  10.312
 4390SOL     OW13912   3.320   1.502  10.670
 4390SOL    HW113913   3.375   1.580  10.679
 4390SOL    HW213914   3.254   1.511  10.738
 4391SOL     OW13915   2.308   0.391  10.801
 4391SOL    HW113916   2.400   0.363  10.801
 4391SOL    HW213917   2.258   0.310  10.810
 4392SOL     OW13918   3.472   0.450  10.045
 4392SOL    HW113919   3.405   0.484   9.986
 4392SOL    HW213920   3.491   0.523  10.104
 4393SOL     OW13921   2.105   1.694   9.791
 4393SOL    HW113922   2.070   1.783   9.795
 4393SOL    HW213923   2.179   1.700   9.730
 4394SOL     OW13924   2.999   1.343  11.005
 4394SOL    HW113925   3.041   1.336  11.090
 4394SOL    HW213926   2.947   1.263  10.997
 4395SOL     OW13927   2.092   1.430   9.850
 4395SOL    HW113928   2.093   1.526   9.844
 4395SOL    HW213929   2.030   1.410   9.920
 4396SOL     OW13930   2.129   1.090  10.201
 4396SOL    HW113931   2.122   1.002  10.237
 4396SOL    HW213932   2.070   1.143  10.256
 4397SOL     OW13933   2.468   1.784  10.742
 4397SOL    HW113934   2.389   1.773  10.796
 4397SOL    HW213935   2.495   1.874  10.757
 4398SOL     OW13936   2.442   0.984   9.448
 4398SOL    HW113937   2.491   1.030   9.379
 4398SOL    HW213938   2.481   1.016   9.530
 4399SOL     OW13939   3.445   0.143  10.766
 4399SOL    HW113940   3.473   0.215  10.709
 4399SOL    HW213941   3.405   0.186  10.841
 4400SOL     OW13942   1.981   0.657   9.871
 4400SOL    HW113943   1.953   0.569   9.894
 4400SOL    HW213944   1.972   0.708   9.952
 4401SOL     OW13945   3.703   1.757   9.645
 4401SOL    HW113946   3.774   1.733   9.706
 4401SOL    HW213947   3.720   1.849   9.624
 4402SOL     OW13948   1.937   1.566   9.414
 4402SOL    HW113949   1.911   1.477   9.439
 4402SOL    HW213950   1.881   1.623   9.467
 4403SOL     OW13951   3.551   0.919   9.958
 4403SOL    HW113952   3.634   0.875   9.942
 4403SOL    HW213953   3.533   0.968   9.878
 4404SOL     OW13954   3.505   1.103   9.742
 4404SOL    HW113955   3.589   1.108   9.698
 4404SOL    HW213956   3.511   1.167   9.813
 4405SOL     OW13957   1.984   0.750  10.890
 4405SOL    HW113958   2.074   0.784  10.893
 4405SOL    HW213959   1.929   0.828  10.893
 4406SOL     OW13960   2.477   1.391  10.045
 4406SOL    HW113961   2.432   1.307  10.053
 4406SOL    HW213962   2.459   1.419   9.955
 4407SOL     OW13963   3.148   1.236  10.732
 4407SOL    HW113964   3.179   1.169  10.671
 4407SOL    HW213965   3.208   1.231  10.806
 4408SOL     OW13966   2.683   0.006   9.828
 4408SOL    HW113967   2.729   0.085   9.801
 4408SOL    HW213968   2.590   0.030   9.827
 4409SOL     OW13969   2.050   0.959  10.589
 4409SOL    HW113970   2.136   0.920  10.572
 4409SOL    HW213971   1.992   0.916  10.526
 4410SOL     OW13972   3.389   0.998   9.511
 4410SOL    HW113973   3.320   0.941   9.545
 4410SOL    HW213974   3.432   1.032   9.590
 4411SOL     OW13975   3.047   1.810  10.935
 4411SOL    HW113976   3.055   1.871  10.861
 4411SOL    HW213977   3.065   1.724  10.897
 4412SOL     OW13978   2.222   0.250  11.160
 4412SOL    HW113979   2.267   0.335  11.161
 4412SOL    HW213980   2.129   0.273  11.160
 4413SOL     OW13981   3.329   1.420  10.258
 4413SOL    HW113982   3.262   1.436  10.325
 4413SOL    HW213983   3.317   1.328  10.233
 4414SOL     OW13984   3.513   1.750   9.889
 4414SOL    HW113985   3.498   1.716   9.801
 4414SOL    HW213986   3.495   1.676   9.946
 4415SOL     OW13987   2.456   0.719   9.580
 4415SOL    HW113988   2.460   0.803   9.534
 4415SOL    HW213989   2.392   0.732   9.649
 4416SOL     OW13990   3.136   0.371  10.251
 4416SOL    HW113991   3.049   0.332  10.259
 4416SOL    HW213992   3.194   0.310  10.296
 4417SOL     OW13993   3.439   1.672   9.621
 4417SOL    HW113994   3.530   1.700   9.614
 4417SOL    HW213995   3.412   1.656   9.530
 4418SOL     OW13996   2.658   0.615  10.761
 4418SOL    HW113997   2.630   0.589  10.848
 4418SOL    HW213998   2.621   0.548  10.703
 4419SOL     OW13999   3.254   0.475  10.987
 4419SOL    HW114000   3.260   0.521  11.071
 4419SOL    HW214001   3.310   0.399  10.998
 4420SOL     OW14002   2.812   0.887  10.896
 4420SOL    HW114003   2.868   0.819  10.858
 4420SOL    HW214004   2.764   0.923  10.821
 4421SOL     OW14005   2.856   0.401  10.546
 4421SOL    HW114006   2.770   0.421  10.584
 4421SOL    HW214007   2.837   0.376  10.456
 4422SOL     OW14008   2.915   0.700   9.734
 4422SOL    HW114009   2.932   0.693   9.828
 4422SOL    HW214010   2.831   0.654   9.722
 4423SOL     OW14011   1.948   0.823  10.087
 4423SOL    HW114012   2.028   0.815  10.139
 4423SOL    HW214013   1.903   0.899  10.123
 4424SOL     OW14014   2.758   0.353   9.510
 4424SOL    HW114015   2.800   0.412   9.448
 4424SOL    HW214016   2.748   0.271   9.462
 4425SOL     OW14017   3.567   0.572  11.140
 4425SOL    HW114018   3.531   0.647  11.092
 4425SOL    HW214019   3.594   0.511  11.072
 4426SOL     OW14020   3.239   1.141   9.849
 4426SOL    HW114021   3.320   1.130   9.798
 4426SOL    HW214022   3.188   1.204   9.800
 4427SOL     OW14023   2.421   0.199  10.190
 4427SOL    HW114024   2.424   0.219  10.284
 4427SOL    HW214025   2.416   0.285  10.148
 4428SOL     OW14026   2.863   1.443   9.779
 4428SOL    HW114027   2.831   1.517   9.729
 4428SOL    HW214028   2.840   1.464   9.870
 4429SOL     OW14029   2.247   1.814  10.116
 4429SOL    HW114030   2.256   1.721  10.136
 4429SOL    HW214031   2.306   1.858  10.177
 4430SOL     OW14032   3.668   1.062  10.179
 4430SOL    HW114033   3.616   1.035  10.103
 4430SOL    HW214034   3.606   1.065  10.251
 4431SOL     OW14035   3.088   1.540  10.824
 4431SOL    HW114036   3.076   1.467  10.885
 4431SOL    HW214037   3.022   1.525  10.756
 4432SOL     OW14038   2.179   0.961   9.564
 4432SOL    HW114039   2.261   0.980   9.519
 4432SOL    HW214040   2.150   0.878   9.526
 4433SOL     OW14041   3.343   0.749  10.037
 4433SOL    HW114042   3.338   0.709  10.124
 4433SOL    HW214043   3.420   0.806  10.041
 4434SOL     OW14044   2.332   1.267  11.055
 4434SOL    HW114045   2.306   1.269  10.963
 4434SOL    HW214046   2.249   1.264  11.103
 4435SOL     OW14047   2.988   1.777   9.540
 4435SOL    HW114048   2.911   1.738   9.583
 4435SOL    HW214049   3.011   1.715   9.471
 4436SOL     OW14050   2.029   0.274  10.810
 4436SOL    HW114051   1.978   0.353  10.795
 4436SOL    HW214052   2.032   0.265  10.905
 4437SOL     OW14053   3.486   1.385   9.397
 4437SOL    HW114054   3.443   1.469   9.383
 4437SOL    HW214055   3.419   1.319   9.377
 4438SOL     OW14056   2.334   1.717   9.641
 4438SOL    HW114057   2.380   1.786   9.689
 4438SOL    HW214058   2.393   1.696   9.568
 4439SOL     OW14059   3.298   0.174   9.712
 4439SOL    HW114060   3.250   0.099   9.678
 4439SOL    HW214061   3.373   0.136   9.758
 4440SOL     OW14062   2.129   1.742  10.523
 4440SOL    HW114063   2.185   1.677  10.565
 4440SOL    HW214064   2.149   1.733  10.430
 4441SOL     OW14065   2.800   1.698  10.207
 4441SOL    HW114066   2.879   1.650  10.228
 4441SOL    HW214067   2.759   1.648  10.137
 4442SOL     OW14068   2.258   0.695   9.783
 4442SOL    HW114069   2.275   0.602   9.796
 4442SOL    HW214070   2.165   0.706   9.801
 4443SOL     OW14071   3.392   0.228  11.037
 4443SOL    HW114072   3.382   0.253  11.129
 4443SOL    HW214073   3.378   0.134  11.036
 4444SOL     OW14074   2.507   0.127   9.420
 4444SOL    HW114075   2.526   0.042   9.458
 4444SOL    HW214076   2.444   0.108   9.350
 4445SOL     OW14077   2.636   0.283  11.082
 4445SOL    HW114078   2.712   0.225  11.084
 4445SOL    HW214079   2.580   0.252  11.153
 4446SOL     OW14080   2.739   1.522  10.503
 4446SOL    HW114081   2.723   1.485  10.417
 4446SOL    HW214082   2.809   1.468  10.540
 4447SOL     OW14083   3.201   0.587  10.741
 4447SOL    HW114084   3.232   0.559  10.827
 4447SOL    HW214085   3.235   0.676  10.731
 4448SOL     OW14086   2.679   1.390  10.255
 4448SOL    HW114087   2.764   1.379  10.211
 4448SOL    HW214088   2.616   1.396  10.183
 4449SOL     OW14089   2.792   0.512  10.209
 4449SOL    HW114090   2.767   0.503  10.117
 4449SOL    HW214091   2.818   0.423  10.235
 4450SOL     OW14092   2.406   0.056   9.800
 4450SOL    HW114093   2.332   0.061   9.861
 4450SOL    HW214094   2.402   0.137   9.749
 4451SOL     OW14095   3.289   1.200   9.349
 4451SOL    HW114096   3.319   1.125   9.401
 4451SOL    HW214097   3.204   1.222   9.387
 4452SOL     OW14098   2.193   0.045   9.522
 4452SOL    HW114099   2.199   0.110   9.452
 4452SOL    HW214100   2.273   0.058   9.573
 4453SOL     OW14101   2.806   0.251   9.768
 4453SOL    HW114102   2.781   0.290   9.684
 4453SOL    HW214103   2.902   0.257   9.770
 4454SOL     OW14104   2.942   0.685  10.768
 4454SOL    HW114105   2.872   0.620  10.774
 4454SOL    HW214106   3.022   0.634  10.763
 4455SOL     OW14107   3.081   1.573  10.105
 4455SOL    HW114108   3.096   1.637  10.036
 4455SOL    HW214109   3.152   1.587  10.168
 4456SOL     OW14110   2.336   1.153  10.038
 4456SOL    HW114111   2.268   1.132  10.103
 4456SOL    HW214112   2.293   1.139   9.954
 4457SOL     OW14113   3.127   1.792   9.921
 4457SOL    HW114114   3.176   1.853   9.866
 4457SOL    HW214115   3.059   1.846   9.962
 4458SOL     OW14116   2.883   0.540   9.340
 4458SOL    HW114117   2.839   0.623   9.321
 4458SOL    HW214118   2.947   0.562   9.408
 4459SOL     OW14119   1.946   0.548  10.707
 4459SOL    HW114120   2.037   0.552  10.677
 4459SOL    HW214121   1.938   0.621  10.769
 4460SOL     OW14122   2.424   0.231  10.470
 4460SOL    HW114123   2.447   0.138  10.480
 4460SOL    HW214124   2.335   0.237  10.504
 4461SOL     OW14125   2.732   0.460   9.947
 4461SOL    HW114126   2.685   0.515   9.884
 4461SOL    HW214127   2.753   0.381   9.898
 4462SOL     OW14128   2.859   0.038  10.092
 4462SOL    HW114129   2.820   0.069  10.010
 4462SOL    HW214130   2.871   3.944  10.078
 4463SOL     OW14131   3.303   1.160  10.168
 4463SOL    HW114132   3.230   1.098  10.166
 4463SOL    HW214133   3.328   1.170  10.076
 4464SOL     OW14134   3.325   0.609  10.281
 4464SOL    HW114135   3.270   0.531  10.286
 4464SOL    HW214136   3.385   0.602  10.356
 4465SOL     OW14137   3.722   0.825   9.685
 4465SOL    HW114138   3.762   0.767   9.750
 4465SOL    HW214139   3.684   0.765   9.620
 4466SOL     OW14140   2.354   1.421   9.463
 4466SOL    HW114141   2.278   1.396   9.516
 4466SOL    HW214142   2.344   1.372   9.381
 4467SOL     OW14143   3.530   1.266   9.953
 4467SOL    HW114144   3.626   1.268   9.963
 4467SOL    HW214145   3.502   1.354   9.973
 4468SOL     OW14146   3.257   0.577   9.378
 4468SOL    HW114147   3.193   0.558   9.447
 4468SOL    HW214148   3.342   0.562   9.419
 4469SOL     OW14149   2.388   0.266   9.625
 4469SOL    HW114150   2.444   0.228   9.558
 4469SOL    HW214151   2.358   0.349   9.587
 4470SOL     OW14152   3.612   1.233  10.873
 4470SOL    HW114153   3.700   1.198  10.855
 4470SOL    HW214154   3.627   1.323  10.902
 4471SOL     OW14155   2.917   1.354  10.642
 4471SOL    HW114156   2.842   1.322  10.693
 4471SOL    HW214157   2.993   1.312  10.684
 4472SOL     OW14158   3.468   1.629  10.967
 4472SOL    HW114159   3.459   1.664  10.878
 4472SOL    HW214160   3.548   1.576  10.965
 4473SOL     OW14161   2.996   1.209  10.413
 4473SOL    HW114162   2.935   1.246  10.477
 4473SOL    HW214163   2.966   1.243  10.328
 4474SOL     OW14164   3.488   1.094  10.384
 4474SOL    HW114165   3.479   1.157  10.456
 4474SOL    HW214166   3.413   1.111  10.327
 4475SOL     OW14167   2.774   0.118  10.711
 4475SOL    HW114168   2.793   0.089  10.622
 4475SOL    HW214169   2.854   0.160  10.741
 4476SOL     OW14170   2.846   1.115  11.034
 4476SOL    HW114171   2.755   1.132  11.057
 4476SOL    HW214172   2.843   1.037  10.979
 4477SOL     OW14173   2.572   1.063   9.680
 4477SOL    HW114174   2.557   1.043   9.773
 4477SOL    HW214175   2.647   1.009   9.656
 4478SOL     OW14176   2.284   0.817  10.562
 4478SOL    HW114177   2.352   0.825  10.628
 4478SOL    HW214178   2.249   0.729  10.574
 4479SOL     OW14179   3.128   0.375  10.587
 4479SOL    HW114180   3.161   0.453  10.631
 4479SOL    HW214181   3.041   0.399  10.557
 4480SOL     OW14182   1.953   1.554  10.673
 4480SOL    HW114183   1.931   1.622  10.609
 4480SOL    HW214184   2.048   1.545  10.667
 4481SOL     OW14185   2.206   1.115   9.800
 4481SOL    HW114186   2.206   1.191   9.742
 4481SOL    HW214187   2.202   1.040   9.741
 4482SOL     OW14188   2.415   0.529  10.166
 4482SOL    HW114189   2.428   0.590  10.092
 4482SOL    HW214190   2.480   0.557  10.231
 4483SOL     OW14191   3.109   1.349   9.700
 4483SOL    HW114192   3.165   1.421   9.731
 4483SOL    HW214193   3.022   1.370   9.733
 4484SOL     OW14194   3.149   1.460  10.458
 4484SOL    HW114195   3.205   1.465  10.536
 4484SOL    HW214196   3.095   1.383  10.472
 4485SOL     OW14197   3.432   0.633   9.797
 4485SOL    HW114198   3.389   0.686   9.865
 4485SOL    HW214199   3.479   0.697   9.743
 4486SOL     OW14200   2.222   1.507  10.630
 4486SOL    HW114201   2.206   1.469  10.544
 4486SOL    HW214202   2.316   1.521  10.633
 4487SOL     OW14203   2.282   0.745  10.913
 4487SOL    HW114204   2.343   0.789  10.854
 4487SOL    HW214205   2.323   0.660  10.931
 4488SOL     OW14206   3.468   0.779  10.995
 4488SOL    HW114207   3.382   0.822  10.989
 4488SOL    HW214208   3.521   0.822  10.928
 4489SOL     OW14209   2.871   0.137  11.091
 4489SOL    HW114210   2.926   0.207  11.056
 4489SOL    HW214211   2.856   0.078  11.017
 4490SOL     OW14212   2.352   0.034  11.071
 4490SOL    HW114213   2.352   0.050  10.976
 4490SOL    HW214214   2.292   0.100  11.106
 4491SOL     OW14215   2.447   0.874  10.342
 4491SOL    HW114216   2.477   0.965  10.343
 4491SOL    HW214217   2.389   0.866  10.418
 4492SOL     OW14218   3.211   0.859  10.333
 4492SOL    HW114219   3.126   0.845  10.293
 4492SOL    HW214220   3.256   0.775  10.325
 4493SOL     OW14221   3.061   0.538   9.565
 4493SOL    HW114222   3.068   0.459   9.619
 4493SOL    HW214223   3.018   0.602   9.623
 4494SOL     OW14224   2.160   0.208  10.553
 4494SOL    HW114225   2.117   0.237  10.634
 4494SOL    HW214226   2.149   0.113  10.553
 4495SOL     OW14227   1.901   1.302  10.588
 4495SOL    HW114228   1.936   1.244  10.656
 4495SOL    HW214229   1.915   1.390  10.622
 4496SOL     OW14230   2.583   0.631  10.360
 4496SOL    HW114231   2.659   0.620  10.304
 4496SOL    HW214232   2.553   0.720  10.343
 4497SOL     OW14233   3.594   0.957  11.176
 4497SOL    HW114234   3.552   0.893  11.118
 4497SOL    HW214235   3.529   0.973  11.244
 4498SOL     OW14236   2.186   0.054   9.965
 4498SOL    HW114237   2.165   0.147   9.976
 4498SOL    HW214238   2.155   0.013  10.046
 4499SOL     OW14239   3.475   0.395   9.688
 4499SOL    HW114240   3.433   0.326   9.740
 4499SOL    HW214241   3.454   0.476   9.734
 4500SOL     OW14242   2.893   0.759  10.268
 4500SOL    HW114243   2.884   0.776  10.362
 4500SOL    HW214244   2.865   0.668  10.257
 4501SOL     OW14245   2.842   1.566  11.031
 4501SOL    HW114246   2.827   1.610  10.947
 4501SOL    HW214247   2.887   1.484  11.008
 4502SOL     OW14248   3.703   1.496  10.907
 4502SOL    HW114249   3.728   1.526  10.820
 4502SOL    HW214250   3.784   1.505  10.959
 4503SOL     OW14251   2.214   0.915  11.119
 4503SOL    HW114252   2.295   0.935  11.167
 4503SOL    HW214253   2.241   0.853  11.052
 4504SOL     OW14254   3.361   0.272   9.443
 4504SOL    HW114255   3.288   0.210   9.453
 4504SOL    HW214256   3.372   0.311   9.529
 4505SOL     OW14257   3.148   0.827   9.337
 4505SOL    HW114258   3.191   0.741   9.341
 4505SOL    HW214259   3.181   0.866   9.256
 4506SOL     OW14260   2.930   1.338  10.167
 4506SOL    HW114261   2.934   1.266  10.104
 4506SOL    HW214262   2.988   1.405  10.131
 4507SOL     OW14263   2.169   0.810  10.256
 4507SOL    HW114264   2.262   0.830  10.248
 4507SOL    HW214265   2.167   0.720  10.288
 4508SOL     OW14266   2.199   0.537  10.325
 4508SOL    HW114267   2.157   0.452  10.310
 4508SOL    HW214268   2.274   0.537  10.266
 4509SOL     OW14269   2.995   0.379  11.009
 4509SOL    HW114270   2.946   0.434  11.071
 4509SOL    HW214271   3.081   0.420  11.004
 4510SOL     OW14272   3.014   0.226  10.791
 4510SOL    HW114273   3.004   0.279  10.870
 4510SOL    HW214274   3.040   0.288  10.723
 4511SOL     OW14275   1.868   1.314   9.500
 4511SOL    HW114276   1.779   1.330   9.467
 4511SOL    HW214277   1.864   1.226   9.536
 4512SOL     OW14278   2.356   1.573  10.219
 4512SOL    HW114279   2.422   1.640  10.237
 4512SOL    HW214280   2.399   1.512  10.159
 4513SOL     OW14281   2.837   0.786  10.533
 4513SOL    HW114282   2.895   0.769  10.607
 4513SOL    HW214283   2.753   0.750  10.559
 4514SOL     OW14284   1.895   0.548  10.427
 4514SOL    HW114285   1.969   0.524  10.372
 4514SOL    HW214286   1.930   0.547  10.516
 4515SOL     OW14287   2.066   0.527  11.021
 4515SOL    HW114288   2.138   0.507  10.962
 4515SOL    HW214289   2.023   0.603  10.982
 4516SOL     OW14290   3.243   0.935  10.967
 4516SOL    HW114291   3.264   1.028  10.963
 4516SOL    HW214292   3.238   0.908  10.875
 4517SOL     OW14293   2.679   0.572   9.676
 4517SOL    HW114294   2.685   0.498   9.617
 4517SOL    HW214295   2.604   0.623   9.644
 4518SOL     OW14296   3.500   0.602  10.491
 4518SOL    HW114297   3.490   0.542  10.564
 4518SOL    HW214298   3.587   0.582  10.455
 4519SOL     OW14299   2.091   1.558  11.047
 4519SOL    HW114300   2.083   1.608  11.129
 4519SOL    HW214301   2.103   1.468  11.076
 4520SOL     OW14302   2.574   0.451  10.563
 4520SOL    HW114303   2.521   0.375  10.540
 4520SOL    HW214304   2.563   0.511  10.489
 4521SOL     OW14305   2.785   1.678  10.781
 4521SOL    HW114306   2.761   1.640  10.696
 4521SOL    HW214307   2.782   1.772  10.767
 4522SOL     OW14308   2.324   0.493   9.491
 4522SOL    HW114309   2.381   0.565   9.516
 4522SOL    HW214310   2.238   0.534   9.479
 4523SOL     OW14311   2.004   1.139  10.784
 4523SOL    HW114312   2.005   1.091  10.868
 4523SOL    HW214313   2.021   1.072  10.718
 4524SOL     OW14314   3.182   1.043  10.531
 4524SOL    HW114315   3.205   0.981  10.462
 4524SOL    HW214316   3.116   1.100  10.491
 4525SOL     OW14317   3.177   0.854   9.614
 4525SOL    HW114318   3.101   0.827   9.666
 4525SOL    HW214319   3.148   0.843   9.523
 4526SOL     OW14320   3.645   1.739  10.469
 4526SOL    HW114321   3.700   1.767  10.396
 4526SOL    HW214322   3.614   1.652  10.445
 4527SOL     OW14323   3.102   1.733  10.418
 4527SOL    HW114324   3.185   1.757  10.375
 4527SOL    HW214325   3.111   1.640  10.437
 4528SOL     OW14326   1.956   1.256  10.328
 4528SOL    HW114327   1.932   1.270  10.420
 4528SOL    HW214328   1.878   1.216  10.289
 4529SOL     OW14329   2.539   1.670  11.044
 4529SOL    HW114330   2.487   1.750  11.041
 4529SOL    HW214331   2.608   1.685  10.979
 4530SOL     OW14332   3.549   0.118   9.798
 4530SOL    HW114333   3.630   0.135   9.750
 4530SOL    HW214334   3.553   0.025   9.820
 4531SOL     OW14335   3.253   1.567   9.800
 4531SOL    HW114336   3.312   1.601   9.732
 4531SOL    HW214337   3.203   1.644   9.828
 4532SOL     OW14338   3.139   0.927   9.981
 4532SOL    HW114339   3.214   0.869   9.992
 4532SOL    HW214340   3.173   1.000   9.928
 4533SOL     OW14341   2.669   1.275  10.735
 4533SOL    HW114342   2.640   1.316  10.817
 4533SOL    HW214343   2.600   1.296  10.673
 4534SOL     OW14344   2.534   1.624   9.462
 4534SOL    HW114345   2.545   1.637   9.367
 4534SOL    HW214346   2.479   1.546   9.469
 4535SOL     OW14347   3.480   1.727  10.701
 4535SOL    HW114348   3.536   1.732  10.624
 4535SOL    HW214349   3.466   1.819  10.726
 4536SOL     OW14350   3.704   0.182  10.281
 4536SOL    HW114351   3.728   0.097  10.243
 4536SOL    HW214352   3.618   0.201  10.244
 4537SOL     OW14353   2.124   0.315  10.024
 4537SOL    HW114354   2.038   0.350  10.001
 4537SOL    HW214355   2.123   0.309  10.120
 4538SOL     OW14356   3.070   1.602   9.342
 4538SOL    HW114357   3.059   1.511   9.369
 4538SOL    HW214358   3.003   1.616   9.275
 4539SOL     OW14359   2.686   1.006  10.684
 4539SOL    HW114360   2.727   1.002  10.597
 4539SOL    HW214361   2.683   1.100  10.704
 4540SOL     OW14362   2.778   0.911   9.600
 4540SOL    HW114363   2.839   0.944   9.534
 4540SOL    HW214364   2.827   0.843   9.646
 4541SOL     OW14365   3.350   1.630   9.354
 4541SOL    HW114366   3.256   1.620   9.339
 4541SOL    HW214367   3.388   1.636   9.266
 4542SOL     OW14368   2.228   1.298  10.812
 4542SOL    HW114369   2.224   1.370  10.748
 4542SOL    HW214370   2.152   1.244  10.792
 4543SOL     OW14371   3.461   1.280  10.586
 4543SOL    HW114372   3.530   1.271  10.652
 4543SOL    HW214373   3.404   1.349  10.621
 4544SOL     OW14374   2.921   1.110  10.020
 4544SOL    HW114375   2.848   1.060  10.057
 4544SOL    HW214376   2.984   1.044   9.992
 4545SOL     OW14377   2.877   0.250  10.281
 4545SOL    HW114378   2.867   0.199  10.200
 4545SOL    HW214379   2.874   0.184  10.351
 4546SOL     OW14380   2.467   1.491   9.790
 4546SOL    HW114381   2.511   1.441   9.722
 4546SOL    HW214382   2.399   1.540   9.744
 4547SOL     OW14383   3.583   0.395  10.681
 4547SOL    HW114384   3.655   0.458  10.682
 4547SOL    HW214385   3.614   0.322  10.627
 4548SOL     OW14386   2.123   1.340   9.600
 4548SOL    HW114387   2.030   1.336   9.577
 4548SOL    HW214388   2.124   1.377   9.688
 4549SOL     OW14389   1.977   1.032  11.035
 4549SOL    HW114390   1.900   1.005  11.085
 4549SOL    HW214391   2.050   0.988  11.078
 4550SOL     OW14392   2.557   0.261  10.814
 4550SOL    HW114393   2.623   0.205  10.772
 4550SOL    HW214394   2.584   0.265  10.905
 4551SOL     OW14395   1.964   0.317   9.302
 4551SOL    HW114396   1.897   0.337   9.368
 4551SOL    HW214397   1.970   0.397   9.250
 4552SOL     OW14398   3.285   0.856  10.707
 4552SOL    HW114399   3.235   0.918  10.654
 4552SOL    HW214400   3.374   0.859  10.670
 4553SOL     OW14401   1.942   0.150   9.649
 4553SOL    HW114402   1.911   0.209   9.580
 4553SOL    HW214403   2.029   0.124   9.620
 4554SOL     OW14404   3.040   1.336   9.428
 4554SOL    HW114405   2.949   1.305   9.430
 4554SOL    HW214406   3.067   1.337   9.520
 4555SOL     OW14407   2.484   0.828  10.744
 4555SOL    HW114408   2.541   0.904  10.729
 4555SOL    HW214409   2.545   0.755  10.753
 4556SOL     OW14410   3.344   1.784  10.291
 4556SOL    HW114411   3.367   1.849  10.224
 4556SOL    HW214412   3.428   1.753  10.324
 4557SOL     OW14413   2.580   0.560  11.014
 4557SOL    HW114414   2.624   0.621  11.072
 4557SOL    HW214415   2.603   0.473  11.048
 4558SOL     OW14416   3.335   1.195  10.939
 4558SOL    HW114417   3.324   1.211  11.033
 4558SOL    HW214418   3.428   1.212  10.923
 4559SOL     OW14419   2.230   1.744  10.884
 4559SOL    HW114420   2.166   1.753  10.814
 4559SOL    HW214421   2.203   1.666  10.932
 4560SOL     OW14422   3.525   0.880  10.569
 4560SOL    HW114423   3.524   0.795  10.525
 4560SOL    HW214424   3.518   0.944  10.498
 4561SOL     OW14425   3.081   0.339   9.751
 4561SOL    HW114426   3.150   0.274   9.742
 4561SOL    HW214427   3.100   0.383   9.834
 4562SOL     OW14428   2.450   0.735   9.982
 4562SOL    HW114429   2.489   0.821   9.968
 4562SOL    HW214430   2.385   0.727   9.913
 4563SOL     OW14431   3.615   0.381  10.952
 4563SOL    HW114432   3.595   0.390  10.859
 4563SOL    HW214433   3.554   0.314  10.983
 4564SOL     OW14434   3.617   0.930  10.823
 4564SOL    HW114435   3.606   1.023  10.841
 4564SOL    HW214436   3.592   0.920  10.731
 4565SOL     OW14437   2.724   1.366   9.350
 4565SOL    HW114438   2.687   1.391   9.435
 4565SOL    HW214439   2.741   1.448   9.305
 4566SOL     OW14440   2.525   1.792  10.246
 4566SOL    HW114441   2.517   1.887  10.241
 4566SOL    HW214442   2.619   1.776  10.244
 4567SOL     OW14443   2.731   0.970  10.164
 4567SOL    HW114444   2.781   0.898  10.202
 4567SOL    HW214445   2.693   1.015  10.240
 4568SOL     OW14446   2.940   0.990   9.400
 4568SOL    HW114447   2.918   1.041   9.322
 4568SOL    HW214448   3.013   0.935   9.372
 4569SOL     OW14449   3.712   1.556  10.151
 4569SOL    HW114450   3.632   1.540  10.100
 4569SOL    HW214451   3.712   1.488  10.218
 4570SOL     OW14452   2.082   1.301  11.159
 4570SOL    HW114453   2.027   1.232  11.123
 4570SOL    HW214454   2.048   1.316  11.247
 4571SOL     OW14455   1.945   1.211   9.972
 4571SOL    HW114456   1.967   1.175  10.058
 4571SOL    HW214457   2.021   1.190   9.917
 4572SOL     OW14458   2.543   1.407  10.938
 4572SOL    HW114459   2.467   1.364  10.976
 4572SOL    HW214460   2.542   1.495  10.976
 4573SOL     OW14461   3.675   0.181  10.554
 4573SOL    HW114462   3.677   0.086  10.563
 4573SOL    HW214463   3.694   0.197  10.462
 4574SOL     OW14464   2.290   0.435   9.835
 4574SOL    HW114465   2.325   0.363   9.782
 4574SOL    HW214466   2.242   0.391   9.906
 4575SOL     OW14467   3.557   1.491  10.406
 4575SOL    HW114468   3.479   1.469  10.354
 4575SOL    HW214469   3.565   1.418  10.468
 4576SOL     OW14470   2.195   0.557  10.605
 4576SOL    HW114471   2.247   0.497  10.659
 4576SOL    HW214472   2.214   0.531  10.515
 4577SOL     OW14473   2.693   1.577   9.986
 4577SOL    HW114474   2.673   1.638   9.914
 4577SOL    HW214475   2.618   1.518   9.988
 4578SOL     OW14476   3.323   0.254  10.420
 4578SOL    HW114477   3.337   0.166  10.455
 4578SOL    HW214478   3.267   0.297  10.485
 4579SOL     OW14479   2.864   0.026  10.456
 4579SOL    HW114480   2.782   3.998  10.417
 4579SOL    HW214481   2.915   3.945  10.465
 4580SOL     OW14482   2.637   1.333   9.627
 4580SOL    HW114483   2.608   1.243   9.636
 4580SOL    HW214484   2.717   1.338   9.680
 4581SOL     OW14485   2.486   1.554  10.595
 4581SOL    HW114486   2.485   1.636  10.645
 4581SOL    HW214487   2.574   1.549  10.558
 4582SOL     OW14488   3.170   0.070   9.470
 4582SOL    HW114489   3.173   3.983   9.428
 4582SOL    HW214490   3.087   0.070   9.517
 4583SOL     OW14491   3.141   0.456   9.994
 4583SOL    HW114492   3.095   0.540   9.988
 4583SOL    HW214493   3.144   0.437  10.088
 4584SOL     OW14494   3.453   0.210  10.177
 4584SOL    HW114495   3.405   0.234  10.256
 4584SOL    HW214496   3.451   0.289  10.123
 4585SOL     OW14497   1.905   1.068   9.616
 4585SOL    HW114498   2.000   1.060   9.600
 4585SOL    HW214499   1.878   0.979   9.641
 4586SOL     OW14500   2.752   1.656   9.647
 4586SOL    HW114501   2.677   1.641   9.589
 4586SOL    HW214502   2.725   1.730   9.702
 4587SOL     OW14503   2.087   0.618  11.293
 4587SOL    HW114504   1.997   0.629  11.325
 4587SOL    HW214505   2.077   0.599  11.200
 4588SOL     OW14506   2.079   0.302  12.164
 4588SOL    HW114507   2.115   0.258  12.240
 4588SOL    HW214508   1.993   0.260  12.151
 4589SOL     OW14509   1.870   0.398  11.804
 4589SOL    HW114510   1.784   0.414  11.843
 4589SOL    HW214511   1.855   0.331  11.737
 4590SOL     OW14512   2.430   1.293  12.352
 4590SOL    HW114513   2.344   1.298  12.309
 4590SOL    HW214514   2.448   1.383  12.378
 4591SOL     OW14515   3.429   1.514  11.880
 4591SOL    HW114516   3.386   1.491  11.963
 4591SOL    HW214517   3.357   1.519  11.817
 4592SOL     OW14518   2.995   0.698  11.867
 4592SOL    HW114519   3.043   0.781  11.855
 4592SOL    HW214520   2.947   0.710  11.949
 4593SOL     OW14521   3.626   0.624  11.397
 4593SOL    HW114522   3.606   0.612  11.304
 4593SOL    HW214523   3.605   0.540  11.437
 4594SOL     OW14524   2.612   1.138  12.218
 4594SOL    HW114525   2.545   1.175  12.276
 4594SOL    HW214526   2.650   1.214  12.174
 4595SOL     OW14527   2.735   0.766  12.996
 4595SOL    HW114528   2.721   0.838  13.058
 4595SOL    HW214529   2.757   0.810  12.914
 4596SOL     OW14530   2.548   0.998  11.816
 4596SOL    HW114531   2.614   0.990  11.885
 4596SOL    HW214532   2.479   1.052  11.854
 4597SOL     OW14533   2.576   1.149  12.989
 4597SOL    HW114534   2.624   1.227  13.019
 4597SOL    HW214535   2.495   1.184  12.952
 4598SOL     OW14536   2.191   1.421  12.241
 4598SOL    HW114537   2.117   1.381  12.195
 4598SOL    HW214538   2.237   1.472  12.174
 4599SOL     OW14539   3.320   1.502  12.532
 4599SOL    HW114540   3.375   1.580  12.541
 4599SOL    HW214541   3.254   1.511  12.600
 4600SOL     OW14542   2.308   0.391  12.663
 4600SOL    HW114543   2.400   0.363  12.663
 4600SOL    HW214544   2.258   0.310  12.672
 4601SOL     OW14545   3.472   0.450  11.907
 4601SOL    HW114546   3.405   0.483  11.848
 4601SOL    HW214547   3.491   0.523  11.966
 4602SOL     OW14548   2.114   1.694  11.659
 4602SOL    HW114549   2.075   1.781  11.661
 4602SOL    HW214550   2.183   1.700  11.594
 4603SOL     OW14551   2.999   1.342  12.866
 4603SOL    HW114552   3.040   1.336  12.952
 4603SOL    HW214553   2.947   1.262  12.858
 4604SOL     OW14554   2.093   1.430  11.716
 4604SOL    HW114555   2.096   1.525  11.712
 4604SOL    HW214556   2.029   1.410  11.784
 4605SOL     OW14557   2.129   1.090  12.063
 4605SOL    HW114558   2.122   1.001  12.099
 4605SOL    HW214559   2.071   1.143  12.118
 4606SOL     OW14560   2.468   1.784  12.603
 4606SOL    HW114561   2.389   1.773  12.657
 4606SOL    HW214562   2.496   1.874  12.619
 4607SOL     OW14563   2.443   0.984  11.310
 4607SOL    HW114564   2.491   1.029  11.241
 4607SOL    HW214565   2.481   1.016  11.392
 4608SOL     OW14566   3.445   0.143  12.628
 4608SOL    HW114567   3.473   0.215  12.571
 4608SOL    HW214568   3.405   0.185  12.703
 4609SOL     OW14569   1.981   0.657  11.733
 4609SOL    HW114570   1.953   0.569  11.757
 4609SOL    HW214571   1.972   0.707  11.814
 4610SOL     OW14572   3.703   1.757  11.507
 4610SOL    HW114573   3.774   1.733  11.567
 4610SOL    HW214574   3.720   1.849  11.486
 4611SOL     OW14575   3.551   0.919  11.820
 4611SOL    HW114576   3.634   0.875  11.803
 4611SOL    HW214577   3.533   0.968  11.740
 4612SOL     OW14578   3.505   1.103  11.604
 4612SOL    HW114579   3.589   1.108  11.560
 4612SOL    HW214580   3.511   1.167  11.675
 4613SOL     OW14581   1.984   0.750  12.752
 4613SOL    HW114582   2.074   0.784  12.754
 4613SOL    HW214583   1.929   0.828  12.755
 4614SOL     OW14584   2.477   1.391  11.907
 4614SOL    HW114585   2.432   1.307  11.915
 4614SOL    HW214586   2.460   1.419  11.817
 4615SOL     OW14587   3.148   1.236  12.594
 4615SOL    HW114588   3.179   1.169  12.533
 4615SOL    HW214589   3.207   1.231  12.668
 4616SOL     OW14590   2.683   0.006  11.690
 4616SOL    HW114591   2.729   0.086  11.663
 4616SOL    HW214592   2.590   0.030  11.689
 4617SOL     OW14593   2.050   0.959  12.451
 4617SOL    HW114594   2.136   0.920  12.435
 4617SOL    HW214595   1.992   0.917  12.388
 4618SOL     OW14596   3.389   0.998  11.373
 4618SOL    HW114597   3.320   0.941  11.407
 4618SOL    HW214598   3.432   1.032  11.452
 4619SOL     OW14599   3.047   1.810  12.796
 4619SOL    HW114600   3.055   1.871  12.723
 4619SOL    HW214601   3.065   1.724  12.759
 4620SOL     OW14602   2.221   0.250  13.022
 4620SOL    HW114603   2.266   0.335  13.023
 4620SOL    HW214604   2.128   0.272  13.022
 4621SOL     OW14605   3.329   1.420  12.120
 4621SOL    HW114606   3.262   1.436  12.187
 4621SOL    HW214607   3.317   1.328  12.095
 4622SOL     OW14608   3.513   1.750  11.751
 4622SOL    HW114609   3.498   1.716  11.662
 4622SOL    HW214610   3.495   1.676  11.808
 4623SOL     OW14611   2.456   0.719  11.442
 4623SOL    HW114612   2.460   0.802  11.396
 4623SOL    HW214613   2.392   0.732  11.511
 4624SOL     OW14614   3.136   0.371  12.113
 4624SOL    HW114615   3.049   0.332  12.121
 4624SOL    HW214616   3.194   0.310  12.158
 4625SOL     OW14617   3.439   1.672  11.483
 4625SOL    HW114618   3.530   1.700  11.476
 4625SOL    HW214619   3.412   1.656  11.392
 4626SOL     OW14620   2.658   0.615  12.623
 4626SOL    HW114621   2.629   0.589  12.710
 4626SOL    HW214622   2.621   0.548  12.565
 4627SOL     OW14623   3.254   0.476  12.849
 4627SOL    HW114624   3.260   0.521  12.933
 4627SOL    HW214625   3.310   0.399  12.860
 4628SOL     OW14626   2.812   0.887  12.758
 4628SOL    HW114627   2.868   0.819  12.720
 4628SOL    HW214628   2.764   0.923  12.683
 4629SOL     OW14629   2.856   0.402  12.408
 4629SOL    HW114630   2.770   0.421  12.445
 4629SOL    HW214631   2.838   0.376  12.318
 4630SOL     OW14632   2.915   0.700  11.596
 4630SOL    HW114633   2.932   0.693  11.690
 4630SOL    HW214634   2.831   0.654  11.584
 4631SOL     OW14635   1.948   0.822  11.949
 4631SOL    HW114636   2.028   0.815  12.001
 4631SOL    HW214637   1.902   0.899  11.985
 4632SOL     OW14638   2.758   0.353  11.372
 4632SOL    HW114639   2.800   0.412  11.310
 4632SOL    HW214640   2.748   0.271  11.324
 4633SOL     OW14641   3.567   0.573  13.002
 4633SOL    HW114642   3.531   0.648  12.954
 4633SOL    HW214643   3.593   0.511  12.934
 4634SOL     OW14644   3.239   1.141  11.711
 4634SOL    HW114645   3.320   1.130  11.660
 4634SOL    HW214646   3.188   1.204  11.661
 4635SOL     OW14647   2.421   0.199  12.052
 4635SOL    HW114648   2.424   0.219  12.146
 4635SOL    HW214649   2.416   0.285  12.010
 4636SOL     OW14650   2.863   1.442  11.641
 4636SOL    HW114651   2.831   1.517  11.591
 4636SOL    HW214652   2.840   1.463  11.732
 4637SOL     OW14653   2.244   1.813  11.981
 4637SOL    HW114654   2.255   1.720  12.001
 4637SOL    HW214655   2.307   1.857  12.038
 4638SOL     OW14656   3.668   1.062  12.041
 4638SOL    HW114657   3.616   1.035  11.965
 4638SOL    HW214658   3.606   1.065  12.113
 4639SOL     OW14659   3.089   1.540  12.686
 4639SOL    HW114660   3.077   1.467  12.747
 4639SOL    HW214661   3.022   1.525  12.618
 4640SOL     OW14662   2.179   0.961  11.426
 4640SOL    HW114663   2.262   0.980  11.381
 4640SOL    HW214664   2.150   0.878  11.389
 4641SOL     OW14665   3.343   0.749  11.899
 4641SOL    HW114666   3.338   0.709  11.986
 4641SOL    HW214667   3.420   0.806  11.903
 4642SOL     OW14668   2.332   1.267  12.917
 4642SOL    HW114669   2.306   1.269  12.825
 4642SOL    HW214670   2.249   1.264  12.964
 4643SOL     OW14671   2.988   1.777  11.402
 4643SOL    HW114672   2.911   1.737  11.445
 4643SOL    HW214673   3.011   1.715  11.333
 4644SOL     OW14674   2.029   0.274  12.672
 4644SOL    HW114675   1.978   0.353  12.657
 4644SOL    HW214676   2.032   0.265  12.767
 4645SOL     OW14677   3.486   1.385  11.259
 4645SOL    HW114678   3.443   1.469  11.245
 4645SOL    HW214679   3.419   1.319  11.239
 4646SOL     OW14680   2.333   1.722  11.496
 4646SOL    HW114681   2.378   1.789  11.548
 4646SOL    HW214682   2.395   1.698  11.428
 4647SOL     OW14683   3.298   0.174  11.574
 4647SOL    HW114684   3.250   0.099  11.540
 4647SOL    HW214685   3.373   0.136  11.620
 4648SOL     OW14686   2.132   1.743  12.383
 4648SOL    HW114687   2.187   1.678  12.427
 4648SOL    HW214688   2.153   1.733  12.291
 4649SOL     OW14689   2.800   1.698  12.069
 4649SOL    HW114690   2.879   1.649  12.090
 4649SOL    HW214691   2.759   1.648  11.999
 4650SOL     OW14692   2.258   0.695  11.645
 4650SOL    HW114693   2.275   0.602  11.658
 4650SOL    HW214694   2.165   0.706  11.663
 4651SOL     OW14695   3.391   0.228  12.898
 4651SOL    HW114696   3.382   0.253  12.990
 4651SOL    HW214697   3.378   0.133  12.897
 4652SOL     OW14698   2.507   0.127  11.282
 4652SOL    HW114699   2.526   0.042  11.320
 4652SOL    HW214700   2.444   0.108  11.212
 4653SOL     OW14701   2.636   0.283  12.943
 4653SOL    HW114702   2.712   0.225  12.945
 4653SOL    HW214703   2.580   0.252  13.015
 4654SOL     OW14704   2.739   1.522  12.365
 4654SOL    HW114705   2.723   1.485  12.279
 4654SOL    HW214706   2.809   1.468  12.402
 4655SOL     OW14707   3.201   0.587  12.603
 4655SOL    HW114708   3.232   0.559  12.689
 4655SOL    HW214709   3.235   0.676  12.593
 4656SOL     OW14710   2.679   1.390  12.117
 4656SOL    HW114711   2.764   1.379  12.073
 4656SOL    HW214712   2.616   1.396  12.045
 4657SOL     OW14713   2.792   0.512  12.071
 4657SOL    HW114714   2.767   0.503  11.979
 4657SOL    HW214715   2.818   0.423  12.097
 4658SOL     OW14716   2.406   0.056  11.662
 4658SOL    HW114717   2.332   0.061  11.723
 4658SOL    HW214718   2.402   0.137  11.611
 4659SOL     OW14719   3.289   1.200  11.211
 4659SOL    HW114720   3.319   1.125  11.263
 4659SOL    HW214721   3.204   1.223  11.249
 4660SOL     OW14722   2.193   0.045  11.384
 4660SOL    HW114723   2.199   0.110  11.314
 4660SOL    HW214724   2.273   0.058  11.435
 4661SOL     OW14725   2.806   0.251  11.630
 4661SOL    HW114726   2.781   0.290  11.546
 4661SOL    HW214727   2.901   0.257  11.632
 4662SOL     OW14728   2.942   0.685  12.630
 4662SOL    HW114729   2.872   0.620  12.636
 4662SOL    HW214730   3.022   0.634  12.625
 4663SOL     OW14731   3.081   1.573  11.967
 4663SOL    HW114732   3.096   1.637  11.898
 4663SOL    HW214733   3.152   1.588  12.030
 4664SOL     OW14734   2.336   1.152  11.900
 4664SOL    HW114735   2.268   1.132  11.965
 4664SOL    HW214736   2.293   1.139  11.816
 4665SOL     OW14737   3.127   1.792  11.783
 4665SOL    HW114738   3.176   1.853  11.728
 4665SOL    HW214739   3.059   1.846  11.824
 4666SOL     OW14740   2.883   0.540  11.202
 4666SOL    HW114741   2.839   0.623  11.182
 4666SOL    HW214742   2.947   0.562  11.270
 4667SOL     OW14743   1.946   0.548  12.569
 4667SOL    HW114744   2.037   0.552  12.539
 4667SOL    HW214745   1.938   0.621  12.631
 4668SOL     OW14746   2.424   0.231  12.333
 4668SOL    HW114747   2.447   0.138  12.342
 4668SOL    HW214748   2.335   0.237  12.366
 4669SOL     OW14749   2.732   0.460  11.809
 4669SOL    HW114750   2.685   0.515  11.746
 4669SOL    HW214751   2.753   0.381  11.760
 4670SOL     OW14752   2.859   0.038  11.954
 4670SOL    HW114753   2.820   0.069  11.872
 4670SOL    HW214754   2.871   3.944  11.940
 4671SOL     OW14755   3.303   1.160  12.030
 4671SOL    HW114756   3.230   1.098  12.028
 4671SOL    HW214757   3.328   1.170  11.938
 4672SOL     OW14758   3.325   0.609  12.143
 4672SOL    HW114759   3.270   0.531  12.148
 4672SOL    HW214760   3.385   0.602  12.218
 4673SOL     OW14761   3.722   0.825  11.547
 4673SOL    HW114762   3.762   0.767  11.612
 4673SOL    HW214763   3.684   0.765  11.482
 4674SOL     OW14764   2.352   1.422  11.322
 4674SOL    HW114765   2.278   1.396  11.376
 4674SOL    HW214766   2.348   1.366  11.245
 4675SOL     OW14767   3.530   1.266  11.815
 4675SOL    HW114768   3.626   1.268  11.825
 4675SOL    HW214769   3.502   1.354  11.835
 4676SOL     OW14770   3.257   0.577  11.240
 4676SOL    HW114771   3.193   0.558  11.309
 4676SOL    HW214772   3.342   0.563  11.281
 4677SOL     OW14773   2.388   0.266  11.487
 4677SOL    HW114774   2.444   0.228  11.420
 4677SOL    HW214775   2.358   0.349  11.449
 4678SOL     OW14776   3.613   1.232  12.735
 4678SOL    HW114777   3.700   1.198  12.717
 4678SOL    HW214778   3.628   1.322  12.764
 4679SOL     OW14779   2.917   1.353  12.504
 4679SOL    HW114780   2.842   1.322  12.555
 4679SOL    HW214781   2.993   1.312  12.546
 4680SOL     OW14782   3.468   1.629  12.829
 4680SOL    HW114783   3.459   1.664  12.740
 4680SOL    HW214784   3.548   1.576  12.827
 4681SOL     OW14785   2.996   1.209  12.275
 4681SOL    HW114786   2.935   1.246  12.339
 4681SOL    HW214787   2.966   1.243  12.190
 4682SOL     OW14788   3.488   1.094  12.246
 4682SOL    HW114789   3.478   1.157  12.318
 4682SOL    HW214790   3.413   1.111  12.189
 4683SOL     OW14791   2.773   0.118  12.573
 4683SOL    HW114792   2.793   0.089  12.484
 4683SOL    HW214793   2.854   0.160  12.603
 4684SOL     OW14794   2.846   1.115  12.896
 4684SOL    HW114795   2.755   1.132  12.919
 4684SOL    HW214796   2.843   1.037  12.841
 4685SOL     OW14797   2.572   1.063  11.542
 4685SOL    HW114798   2.557   1.044  11.635
 4685SOL    HW214799   2.647   1.009  11.518
 4686SOL     OW14800   2.284   0.817  12.424
 4686SOL    HW114801   2.352   0.825  12.490
 4686SOL    HW214802   2.249   0.729  12.436
 4687SOL     OW14803   3.128   0.375  12.449
 4687SOL    HW114804   3.161   0.453  12.493
 4687SOL    HW214805   3.040   0.399  12.419
 4688SOL     OW14806   1.954   1.554  12.532
 4688SOL    HW114807   1.933   1.624  12.470
 4688SOL    HW214808   2.049   1.544  12.526
 4689SOL     OW14809   2.206   1.115  11.661
 4689SOL    HW114810   2.205   1.192  11.604
 4689SOL    HW214811   2.202   1.040  11.602
 4690SOL     OW14812   2.415   0.529  12.028
 4690SOL    HW114813   2.428   0.590  11.954
 4690SOL    HW214814   2.480   0.557  12.093
 4691SOL     OW14815   3.109   1.349  11.562
 4691SOL    HW114816   3.165   1.421  11.594
 4691SOL    HW214817   3.022   1.370  11.596
 4692SOL     OW14818   3.149   1.460  12.320
 4692SOL    HW114819   3.205   1.465  12.398
 4692SOL    HW214820   3.095   1.383  12.334
 4693SOL     OW14821   3.432   0.633  11.659
 4693SOL    HW114822   3.389   0.686  11.727
 4693SOL    HW214823   3.478   0.697  11.605
 4694SOL     OW14824   2.222   1.506  12.492
 4694SOL    HW114825   2.206   1.469  12.405
 4694SOL    HW214826   2.317   1.521  12.495
 4695SOL     OW14827   2.282   0.745  12.775
 4695SOL    HW114828   2.343   0.789  12.716
 4695SOL    HW214829   2.322   0.660  12.793
 4696SOL     OW14830   3.468   0.780  12.857
 4696SOL    HW114831   3.382   0.823  12.851
 4696SOL    HW214832   3.520   0.822  12.790
 4697SOL     OW14833   2.871   0.138  12.954
 4697SOL    HW114834   2.926   0.208  12.918
 4697SOL    HW214835   2.856   0.078  12.881
 4698SOL     OW14836   2.352   0.035  12.932
 4698SOL    HW114837   2.352   0.050  12.838
 4698SOL    HW214838   2.292   0.100  12.967
 4699SOL     OW14839   2.447   0.874  12.204
 4699SOL    HW114840   2.477   0.965  12.205
 4699SOL    HW214841   2.389   0.866  12.280
 4700SOL     OW14842   3.211   0.859  12.195
 4700SOL    HW114843   3.126   0.845  12.155
 4700SOL    HW214844   3.256   0.775  12.187
 4701SOL     OW14845   3.061   0.538  11.428
 4701SOL    HW114846   3.068   0.459  11.481
 4701SOL    HW214847   3.018   0.602  11.485
 4702SOL     OW14848   2.160   0.208  12.415
 4702SOL    HW114849   2.117   0.237  12.496
 4702SOL    HW214850   2.149   0.113  12.415
 4703SOL     OW14851   1.899   1.301  12.451
 4703SOL    HW114852   1.936   1.244  12.519
 4703SOL    HW214853   1.915   1.390  12.483
 4704SOL     OW14854   2.583   0.631  12.222
 4704SOL    HW114855   2.659   0.620  12.166
 4704SOL    HW214856   2.553   0.720  12.205
 4705SOL     OW14857   3.594   0.955  13.039
 4705SOL    HW114858   3.552   0.893  12.980
 4705SOL    HW214859   3.529   0.972  13.107
 4706SOL     OW14860   2.186   0.054  11.827
 4706SOL    HW114861   2.165   0.147  11.838
 4706SOL    HW214862   2.155   0.013  11.908
 4707SOL     OW14863   3.475   0.395  11.550
 4707SOL    HW114864   3.433   0.326  11.602
 4707SOL    HW214865   3.454   0.476  11.596
 4708SOL     OW14866   2.893   0.759  12.130
 4708SOL    HW114867   2.884   0.776  12.224
 4708SOL    HW214868   2.865   0.668  12.119
 4709SOL     OW14869   2.842   1.566  12.893
 4709SOL    HW114870   2.828   1.610  12.809
 4709SOL    HW214871   2.887   1.484  12.869
 4710SOL     OW14872   3.704   1.496  12.769
 4710SOL    HW114873   3.728   1.526  12.682
 4710SOL    HW214874   3.783   1.505  12.821
 4711SOL     OW14875   2.214   0.915  12.982
 4711SOL    HW114876   2.295   0.935  13.029
 4711SOL    HW214877   2.240   0.853  12.914
 4712SOL     OW14878   3.361   0.272  11.305
 4712SOL    HW114879   3.288   0.210  11.315
 4712SOL    HW214880   3.372   0.311  11.391
 4713SOL     OW14881   3.148   0.827  11.199
 4713SOL    HW114882   3.191   0.741  11.203
 4713SOL    HW214883   3.181   0.866  11.118
 4714SOL     OW14884   2.930   1.338  12.029
 4714SOL    HW114885   2.934   1.266  11.966
 4714SOL    HW214886   2.988   1.405  11.993
 4715SOL     OW14887   2.169   0.810  12.118
 4715SOL    HW114888   2.262   0.830  12.110
 4715SOL    HW214889   2.167   0.720  12.150
 4716SOL     OW14890   2.199   0.537  12.187
 4716SOL    HW114891   2.157   0.452  12.172
 4716SOL    HW214892   2.274   0.537  12.128
 4717SOL     OW14893   2.995   0.379  12.871
 4717SOL    HW114894   2.946   0.434  12.932
 4717SOL    HW214895   3.081   0.420  12.866
 4718SOL     OW14896   3.014   0.226  12.653
 4718SOL    HW114897   3.004   0.279  12.732
 4718SOL    HW214898   3.040   0.288  12.585
 4719SOL     OW14899   1.879   1.317  11.359
 4719SOL    HW114900   1.793   1.343  11.325
 4719SOL    HW214901   1.865   1.230  11.396
 4720SOL     OW14902   2.356   1.573  12.081
 4720SOL    HW114903   2.423   1.640  12.099
 4720SOL    HW214904   2.399   1.512  12.021
 4721SOL     OW14905   2.837   0.786  12.395
 4721SOL    HW114906   2.895   0.769  12.469
 4721SOL    HW214907   2.753   0.750  12.421
 4722SOL     OW14908   1.895   0.548  12.289
 4722SOL    HW114909   1.969   0.524  12.234
 4722SOL    HW214910   1.930   0.547  12.378
 4723SOL     OW14911   2.066   0.527  12.884
 4723SOL    HW114912   2.138   0.506  12.824
 4723SOL    HW214913   2.023   0.603  12.845
 4724SOL     OW14914   3.243   0.935  12.828
 4724SOL    HW114915   3.264   1.028  12.825
 4724SOL    HW214916   3.238   0.908  12.737
 4725SOL     OW14917   2.679   0.572  11.538
 4725SOL    HW114918   2.685   0.498  11.479
 4725SOL    HW214919   2.604   0.623  11.506
 4726SOL     OW14920   3.500   0.602  12.353
 4726SOL    HW114921   3.490   0.541  12.426
 4726SOL    HW214922   3.587   0.582  12.317
 4727SOL     OW14923   2.090   1.558  12.908
 4727SOL    HW114924   2.083   1.609  12.989
 4727SOL    HW214925   2.103   1.468  12.937
 4728SOL     OW14926   2.574   0.451  12.425
 4728SOL    HW114927   2.521   0.375  12.402
 4728SOL    HW214928   2.563   0.511  12.351
 4729SOL     OW14929   2.785   1.678  12.643
 4729SOL    HW114930   2.761   1.640  12.558
 4729SOL    HW214931   2.782   1.772  12.629
 4730SOL     OW14932   2.324   0.493  11.353
 4730SOL    HW114933   2.381   0.565  11.378
 4730SOL    HW214934   2.238   0.534  11.341
 4731SOL     OW14935   2.004   1.139  12.647
 4731SOL    HW114936   2.005   1.092  12.730
 4731SOL    HW214937   2.021   1.072  12.581
 4732SOL     OW14938   3.182   1.043  12.393
 4732SOL    HW114939   3.205   0.981  12.324
 4732SOL    HW214940   3.116   1.100  12.353
 4733SOL     OW14941   3.177   0.854  11.476
 4733SOL    HW114942   3.101   0.827  11.528
 4733SOL    HW214943   3.149   0.843  11.385
 4734SOL     OW14944   3.645   1.739  12.331
 4734SOL    HW114945   3.700   1.767  12.258
 4734SOL    HW214946   3.614   1.652  12.307
 4735SOL     OW14947   3.102   1.733  12.279
 4735SOL    HW114948   3.185   1.757  12.237
 4735SOL    HW214949   3.111   1.640  12.299
 4736SOL     OW14950   1.956   1.256  12.191
 4736SOL    HW114951   1.932   1.269  12.282
 4736SOL    HW214952   1.878   1.216  12.151
 4737SOL     OW14953   2.539   1.670  12.905
 4737SOL    HW114954   2.487   1.750  12.903
 4737SOL    HW214955   2.608   1.685  12.841
 4738SOL     OW14956   3.549   0.118  11.660
 4738SOL    HW114957   3.630   0.135  11.612
 4738SOL    HW214958   3.553   0.025  11.682
 4739SOL     OW14959   3.253   1.567  11.662
 4739SOL    HW114960   3.312   1.601  11.594
 4739SOL    HW214961   3.203   1.644  11.690
 4740SOL     OW14962   3.139   0.927  11.843
 4740SOL    HW114963   3.214   0.869  11.854
 4740SOL    HW214964   3.173   1.000  11.790
 4741SOL     OW14965   2.669   1.275  12.597
 4741SOL    HW114966   2.640   1.316  12.679
 4741SOL    HW214967   2.600   1.296  12.534
 4742SOL     OW14968   2.534   1.624  11.323
 4742SOL    HW114969   2.546   1.637  11.229
 4742SOL    HW214970   2.478   1.547  11.330
 4743SOL     OW14971   3.480   1.727  12.563
 4743SOL    HW114972   3.536   1.732  12.486
 4743SOL    HW214973   3.466   1.819  12.588
 4744SOL     OW14974   3.704   0.182  12.143
 4744SOL    HW114975   3.728   0.097  12.105
 4744SOL    HW214976   3.618   0.202  12.106
 4745SOL     OW14977   2.124   0.315  11.886
 4745SOL    HW114978   2.038   0.349  11.864
 4745SOL    HW214979   2.123   0.309  11.982
 4746SOL     OW14980   3.070   1.602  11.204
 4746SOL    HW114981   3.059   1.511  11.231
 4746SOL    HW214982   3.004   1.616  11.137
 4747SOL     OW14983   2.686   1.006  12.546
 4747SOL    HW114984   2.727   1.001  12.459
 4747SOL    HW214985   2.683   1.100  12.566
 4748SOL     OW14986   2.778   0.911  11.462
 4748SOL    HW114987   2.839   0.944  11.396
 4748SOL    HW214988   2.827   0.843  11.508
 4749SOL     OW14989   3.350   1.630  11.216
 4749SOL    HW114990   3.256   1.620  11.201
 4749SOL    HW214991   3.388   1.636  11.128
 4750SOL     OW14992   2.228   1.298  12.673
 4750SOL    HW114993   2.224   1.370  12.610
 4750SOL    HW214994   2.152   1.244  12.654
 4751SOL     OW14995   3.461   1.280  12.448
 4751SOL    HW114996   3.530   1.271  12.514
 4751SOL    HW214997   3.404   1.349  12.483
 4752SOL     OW14998   2.921   1.110  11.882
 4752SOL    HW114999   2.848   1.060  11.919
 4752SOL    HW215000   2.984   1.044  11.854
 4753SOL     OW15001   2.877   0.250  12.143
 4753SOL    HW115002   2.867   0.199  12.062
 4753SOL    HW215003   2.874   0.184  12.213
 4754SOL     OW15004   2.468   1.492  11.652
 4754SOL    HW115005   2.512   1.441  11.584
 4754SOL    HW215006   2.396   1.536  11.607
 4755SOL     OW15007   3.583   0.395  12.543
 4755SOL    HW115008   3.655   0.458  12.544
 4755SOL    HW215009   3.614   0.322  12.489
 4756SOL     OW15010   2.128   1.346  11.465
 4756SOL    HW115011   2.037   1.342  11.437
 4756SOL    HW215012   2.124   1.380  11.555
 4757SOL     OW15013   1.977   1.032  12.898
 4757SOL    HW115014   1.900   1.005  12.947
 4757SOL    HW215015   2.050   0.988  12.941
 4758SOL     OW15016   2.557   0.261  12.676
 4758SOL    HW115017   2.622   0.205  12.634
 4758SOL    HW215018   2.583   0.265  12.767
 4759SOL     OW15019   1.964   0.317  11.164
 4759SOL    HW115020   1.897   0.337  11.230
 4759SOL    HW215021   1.970   0.397  11.112
 4760SOL     OW15022   3.285   0.856  12.569
 4760SOL    HW115023   3.235   0.918  12.516
 4760SOL    HW215024   3.374   0.859  12.532
 4761SOL     OW15025   1.942   0.150  11.511
 4761SOL    HW115026   1.911   0.209  11.442
 4761SOL    HW215027   2.029   0.124  11.482
 4762SOL     OW15028   3.040   1.336  11.290
 4762SOL    HW115029   2.950   1.304  11.292
 4762SOL    HW215030   3.067   1.337  11.382
 4763SOL     OW15031   2.484   0.828  12.606
 4763SOL    HW115032   2.541   0.904  12.591
 4763SOL    HW215033   2.545   0.755  12.615
 4764SOL     OW15034   3.344   1.784  12.153
 4764SOL    HW115035   3.367   1.849  12.086
 4764SOL    HW215036   3.428   1.753  12.186
 4765SOL     OW15037   2.580   0.559  12.876
 4765SOL    HW115038   2.624   0.621  12.935
 4765SOL    HW215039   2.603   0.473  12.910
 4766SOL     OW15040   3.335   1.195  12.801
 4766SOL    HW115041   3.324   1.211  12.895
 4766SOL    HW215042   3.428   1.212  12.785
 4767SOL     OW15043   2.231   1.744  12.745
 4767SOL    HW115044   2.166   1.753  12.675
 4767SOL    HW215045   2.203   1.666  12.793
 4768SOL     OW15046   3.525   0.880  12.431
 4768SOL    HW115047   3.524   0.795  12.387
 4768SOL    HW215048   3.518   0.944  12.360
 4769SOL     OW15049   3.081   0.339  11.613
 4769SOL    HW115050   3.150   0.274  11.604
 4769SOL    HW215051   3.100   0.383  11.696
 4770SOL     OW15052   2.450   0.735  11.844
 4770SOL    HW115053   2.489   0.821  11.830
 4770SOL    HW215054   2.385   0.726  11.775
 4771SOL     OW15055   3.615   0.381  12.814
 4771SOL    HW115056   3.595   0.391  12.721
 4771SOL    HW215057   3.554   0.314  12.845
 4772SOL     OW15058   3.617   0.930  12.685
 4772SOL    HW115059   3.607   1.023  12.703
 4772SOL    HW215060   3.592   0.920  12.593
 4773SOL     OW15061   2.723   1.366  11.212
 4773SOL    HW115062   2.688   1.392  11.297
 4773SOL    HW215063   2.741   1.448  11.166
 4774SOL     OW15064   2.526   1.792  12.107
 4774SOL    HW115065   2.519   1.887  12.103
 4774SOL    HW215066   2.620   1.774  12.106
 4775SOL     OW15067   2.731   0.970  12.026
 4775SOL    HW115068   2.781   0.898  12.064
 4775SOL    HW215069   2.693   1.015  12.102
 4776SOL     OW15070   2.940   0.990  11.262
 4776SOL    HW115071   2.918   1.041  11.184
 4776SOL    HW215072   3.014   0.935  11.234
 4777SOL     OW15073   3.712   1.556  12.013
 4777SOL    HW115074   3.632   1.540  11.962
 4777SOL    HW215075   3.712   1.488  12.080
 4778SOL     OW15076   2.082   1.301  13.020
 4778SOL    HW115077   2.026   1.232  12.986
 4778SOL    HW215078   2.051   1.316  13.109
 4779SOL     OW15079   1.945   1.210  11.834
 4779SOL    HW115080   1.968   1.174  11.920
 4779SOL    HW215081   2.021   1.190  11.778
 4780SOL     OW15082   2.543   1.407  12.800
 4780SOL    HW115083   2.466   1.364  12.838
 4780SOL    HW215084   2.542   1.495  12.837
 4781SOL     OW15085   3.676   0.181  12.417
 4781SOL    HW115086   3.677   0.086  12.425
 4781SOL    HW215087   3.694   0.197  12.324
 4782SOL     OW15088   2.290   0.434  11.697
 4782SOL    HW115089   2.325   0.363  11.644
 4782SOL    HW215090   2.242   0.391  11.768
 4783SOL     OW15091   3.557   1.491  12.268
 4783SOL    HW115092   3.479   1.469  12.216
 4783SOL    HW215093   3.565   1.418  12.330
 4784SOL     OW15094   2.195   0.557  12.467
 4784SOL    HW115095   2.247   0.497  12.521
 4784SOL    HW215096   2.214   0.531  12.377
 4785SOL     OW15097   2.693   1.577  11.848
 4785SOL    HW115098   2.674   1.638  11.776
 4785SOL    HW215099   2.618   1.518  11.850
 4786SOL     OW15100   3.323   0.254  12.282
 4786SOL    HW115101   3.337   0.166  12.317
 4786SOL    HW215102   3.267   0.297  12.347
 4787SOL     OW15103   2.865   0.026  12.318
 4787SOL    HW115104   2.782   3.998  12.279
 4787SOL    HW215105   2.915   3.945  12.327
 4788SOL     OW15106   2.636   1.334  11.490
 4788SOL    HW115107   2.607   1.243  11.498
 4788SOL    HW215108   2.717   1.338  11.542
 4789SOL     OW15109   2.486   1.554  12.457
 4789SOL    HW115110   2.486   1.636  12.507
 4789SOL    HW215111   2.574   1.549  12.420
 4790SOL     OW15112   3.170   0.070  11.332
 4790SOL    HW115113   3.173   3.983  11.290
 4790SOL    HW215114   3.087   0.070  11.379
 4791SOL     OW15115   3.141   0.456  11.856
 4791SOL    HW115116   3.095   0.540  11.850
 4791SOL    HW215117   3.144   0.437  11.950
 4792SOL     OW15118   3.453   0.210  12.039
 4792SOL    HW115119   3.405   0.234  12.118
 4792SOL    HW215120   3.451   0.289  11.985
 4793SOL     OW15121   1.902   1.068  11.479
 4793SOL    HW115122   1.996   1.062  11.462
 4793SOL    HW215123   1.877   0.979  11.504
 4794SOL     OW15124   2.752   1.656  11.509
 4794SOL    HW115125   2.677   1.642  11.451
 4794SOL    HW215126   2.726   1.730  11.564
 4795SOL     OW15127   2.086   0.619  13.156
 4795SOL    HW115128   1.996   0.626  13.187
 4795SOL    HW215129   2.078   0.599  13.062
 4796SOL     OW15130   2.115   0.266   0.129
 4796SOL    HW115131   2.164   0.332   0.179
 4796SOL    HW215132   2.024   0.295   0.133
 4797SOL     OW15133   1.870   0.388  13.644
 4797SOL    HW115134   1.776   0.399  13.658
 4797SOL    HW215135   1.880   0.300  13.610
 4798SOL     OW15136   3.383   1.496  13.729
 4798SOL    HW115137   3.329   1.426  13.765
 4798SOL    HW215138   3.340   1.522  13.648
 4799SOL     OW15139   2.995   0.698  13.729
 4799SOL    HW115140   3.047   0.775  13.708
 4799SOL    HW215141   2.936   0.726  13.799
 4800SOL     OW15142   3.637   0.621  13.257
 4800SOL    HW115143   3.612   0.612  13.165
 4800SOL    HW215144   3.605   0.541  13.298
 4801SOL     OW15145   2.545   1.012  13.671
 4801SOL    HW115146   2.599   0.993  13.748
 4801SOL    HW215147   2.471   1.061  13.705
 4802SOL     OW15148   3.473   0.458  13.759
 4802SOL    HW115149   3.385   0.467  13.723
 4802SOL    HW215150   3.496   0.546  13.789
 4803SOL     OW15151   2.114   1.690  13.525
 4803SOL    HW115152   2.079   1.779  13.531
 4803SOL    HW215153   2.182   1.695  13.458
 4804SOL     OW15154   2.102   1.425  13.573
 4804SOL    HW115155   2.101   1.521  13.571
 4804SOL    HW215156   2.038   1.402  13.640
 4805SOL     OW15157   2.100   1.110   0.029
 4805SOL    HW115158   2.120   1.047   0.098
 4805SOL    HW215159   2.035   1.169   0.068
 4806SOL     OW15160   2.442   0.984  13.170
 4806SOL    HW115161   2.490   1.029  13.101
 4806SOL    HW215162   2.481   1.016  13.252
 4807SOL     OW15163   1.983   0.659  13.589
 4807SOL    HW115164   1.953   0.568  13.602
 4807SOL    HW215165   1.966   0.702  13.673
 4808SOL     OW15166   3.703   1.758  13.368
 4808SOL    HW115167   3.774   1.732  13.426
 4808SOL    HW215168   3.721   1.850  13.348
 4809SOL     OW15169   3.546   0.916  13.668
 4809SOL    HW115170   3.633   0.883  13.647
 4809SOL    HW215171   3.524   0.974  13.594
 4810SOL     OW15172   3.504   1.104  13.463
 4810SOL    HW115173   3.589   1.107  13.418
 4810SOL    HW215174   3.512   1.169  13.533
 4811SOL     OW15175   2.467   1.382  13.757
 4811SOL    HW115176   2.422   1.298  13.764
 4811SOL    HW215177   2.443   1.415  13.670
 4812SOL     OW15178   2.684   0.006  13.550
 4812SOL    HW115179   2.728   0.087  13.523
 4812SOL    HW215180   2.591   0.027  13.546
 4813SOL     OW15181   3.388   0.997  13.235
 4813SOL    HW115182   3.320   0.939  13.269
 4813SOL    HW215183   3.430   1.034  13.313
 4814SOL     OW15184   3.514   1.747  13.613
 4814SOL    HW115185   3.494   1.715  13.525
 4814SOL    HW215186   3.510   1.670  13.669
 4815SOL     OW15187   2.454   0.720  13.301
 4815SOL    HW115188   2.457   0.804  13.254
 4815SOL    HW215189   2.389   0.733  13.370
 4816SOL     OW15190   3.097   0.341   0.049
 4816SOL    HW115191   3.010   0.332   0.088
 4816SOL    HW215192   3.156   0.296   0.109
 4817SOL     OW15193   3.439   1.677  13.343
 4817SOL    HW115194   3.531   1.704  13.337
 4817SOL    HW215195   3.413   1.659  13.252
 4818SOL     OW15196   2.912   0.697  13.458
 4818SOL    HW115197   2.928   0.684  13.551
 4818SOL    HW215198   2.829   0.652  13.441
 4819SOL     OW15199   1.940   0.817  13.813
 4819SOL    HW115200   2.021   0.818  13.864
 4819SOL    HW215201   1.891   0.893  13.844
 4820SOL     OW15202   2.757   0.352  13.232
 4820SOL    HW115203   2.799   0.412  13.171
 4820SOL    HW215204   2.748   0.270  13.184
 4821SOL     OW15205   3.223   1.133  13.548
 4821SOL    HW115206   3.314   1.135  13.517
 4821SOL    HW215207   3.181   1.206  13.502
 4822SOL     OW15208   2.858   1.437  13.501
 4822SOL    HW115209   2.831   1.515  13.452
 4822SOL    HW215210   2.826   1.453  13.590
 4823SOL     OW15211   2.256   1.835  13.813
 4823SOL    HW115212   2.249   1.747  13.852
 4823SOL    HW215213   2.237   1.895  13.885
 4824SOL     OW15214   3.654   1.051  13.899
 4824SOL    HW115215   3.597   1.044  13.823
 4824SOL    HW215216   3.595   1.048   0.074
 4825SOL     OW15217   2.180   0.961  13.289
 4825SOL    HW115218   2.261   0.980  13.242
 4825SOL    HW215219   2.149   0.878  13.251
 4826SOL     OW15220   3.359   0.731  13.753
 4826SOL    HW115221   3.344   0.698  13.842
 4826SOL    HW215222   3.424   0.800  13.764
 4827SOL     OW15223   2.987   1.778  13.263
 4827SOL    HW115224   2.912   1.739  13.307
 4827SOL    HW215225   3.011   1.715  13.195
 4828SOL     OW15226   3.486   1.384  13.121
 4828SOL    HW115227   3.443   1.469  13.106
 4828SOL    HW215228   3.419   1.319  13.101
 4829SOL     OW15229   2.330   1.717  13.357
 4829SOL    HW115230   2.375   1.782  13.412
 4829SOL    HW215231   2.393   1.696  13.288
 4830SOL     OW15232   3.284   0.172  13.438
 4830SOL    HW115233   3.246   0.111  13.374
 4830SOL    HW215234   3.371   0.137  13.455
 4831SOL     OW15235   2.792   1.684   0.006
 4831SOL    HW115236   2.802   1.619   0.076
 4831SOL    HW215237   2.749   1.637  13.835
 4832SOL     OW15238   2.257   0.698  13.504
 4832SOL    HW115239   2.275   0.605  13.516
 4832SOL    HW215240   2.163   0.707  13.521
 4833SOL     OW15241   2.507   0.127  13.143
 4833SOL    HW115242   2.526   0.042  13.181
 4833SOL    HW215243   2.445   0.108  13.073
 4834SOL     OW15244   2.411   0.055  13.525
 4834SOL    HW115245   2.336   0.058  13.584
 4834SOL    HW215246   2.404   0.135  13.473
 4835SOL     OW15247   3.289   1.200  13.074
 4835SOL    HW115248   3.318   1.125  13.125
 4835SOL    HW215249   3.204   1.223  13.111
 4836SOL     OW15250   2.196   0.045  13.243
 4836SOL    HW115251   2.202   0.110  13.173
 4836SOL    HW215252   2.277   0.055  13.293
 4837SOL     OW15253   2.805   0.251  13.491
 4837SOL    HW115254   2.779   0.290  13.408
 4837SOL    HW215255   2.900   0.260  13.494
 4838SOL     OW15256   2.324   1.144  13.768
 4838SOL    HW115257   2.252   1.131  13.830
 4838SOL    HW215258   2.283   1.132  13.682
 4839SOL     OW15259   3.129   1.795  13.633
 4839SOL    HW115260   3.173   1.864  13.582
 4839SOL    HW215261   3.060   1.842  13.681
 4840SOL     OW15262   2.883   0.540  13.064
 4840SOL    HW115263   2.839   0.623  13.044
 4840SOL    HW215264   2.946   0.563  13.132
 4841SOL     OW15265   2.765   0.474  13.670
 4841SOL    HW115266   2.694   0.521  13.625
 4841SOL    HW215267   2.771   0.390  13.625
 4842SOL     OW15268   2.864   0.038  13.793
 4842SOL    HW115269   2.830   0.064  13.707
 4842SOL    HW215270   2.887   3.946  13.783
 4843SOL     OW15271   3.729   0.822  13.411
 4843SOL    HW115272   3.775   0.765  13.473
 4843SOL    HW215273   3.692   0.762  13.346
 4844SOL     OW15274   2.354   1.422  13.182
 4844SOL    HW115275   2.279   1.395  13.236
 4844SOL    HW215276   2.349   1.366  13.105
 4845SOL     OW15277   3.541   1.271  13.664
 4845SOL    HW115278   3.635   1.273  13.680
 4845SOL    HW215279   3.508   1.354  13.700
 4846SOL     OW15280   3.256   0.577  13.103
 4846SOL    HW115281   3.193   0.557  13.172
 4846SOL    HW215282   3.341   0.559  13.142
 4847SOL     OW15283   2.390   0.266  13.349
 4847SOL    HW115284   2.446   0.227  13.282
 4847SOL    HW215285   2.359   0.348  13.310
 4848SOL     OW15286   2.572   1.066  13.399
 4848SOL    HW115287   2.556   1.049  13.492
 4848SOL    HW215288   2.648   1.011  13.377
 4849SOL     OW15289   2.207   1.113  13.524
 4849SOL    HW115290   2.208   1.191  13.469
 4849SOL    HW215291   2.202   1.040  13.463
 4850SOL     OW15292   2.432   0.539  13.862
 4850SOL    HW115293   2.442   0.607  13.796
 4850SOL    HW215294   2.488   0.568   0.034
 4851SOL     OW15295   3.106   1.353  13.418
 4851SOL    HW115296   3.160   1.427  13.446
 4851SOL    HW215297   3.019   1.373  13.454
 4852SOL     OW15298   3.444   0.636  13.510
 4852SOL    HW115299   3.405   0.678  13.587
 4852SOL    HW215300   3.478   0.709  13.457
 4853SOL     OW15301   3.061   0.534  13.292
 4853SOL    HW115302   3.066   0.455  13.345
 4853SOL    HW215303   3.018   0.598  13.348
 4854SOL     OW15304   2.195   0.051  13.686
 4854SOL    HW115305   2.177   0.144  13.700
 4854SOL    HW215306   2.115   0.006  13.713
 4855SOL     OW15307   3.465   0.394  13.405
 4855SOL    HW115308   3.431   0.327  13.465
 4855SOL    HW215309   3.449   0.477  13.451
 4856SOL     OW15310   3.359   0.277  13.164
 4856SOL    HW115311   3.289   0.214  13.178
 4856SOL    HW215312   3.374   0.316  13.250
 4857SOL     OW15313   3.148   0.826  13.061
 4857SOL    HW115314   3.191   0.741  13.064
 4857SOL    HW215315   3.181   0.866  12.980
 4858SOL     OW15316   1.878   1.318  13.223
 4858SOL    HW115317   1.792   1.344  13.188
 4858SOL    HW215318   1.864   1.231  13.258
 4859SOL     OW15319   2.679   0.576  13.390
 4859SOL    HW115320   2.683   0.498  13.335
 4859SOL    HW215321   2.602   0.624  13.360
 4860SOL     OW15322   2.323   0.493  13.213
 4860SOL    HW115323   2.381   0.565  13.238
 4860SOL    HW215324   2.237   0.533  13.203
 4861SOL     OW15325   3.179   0.847  13.337
 4861SOL    HW115326   3.101   0.828  13.388
 4861SOL    HW215327   3.151   0.839  13.246
 4862SOL     OW15328   3.538   0.106  13.465
 4862SOL    HW115329   3.629   0.125  13.442
 4862SOL    HW215330   3.545   0.036  13.531
 4863SOL     OW15331   3.244   1.575  13.509
 4863SOL    HW115332   3.303   1.612  13.444
 4863SOL    HW215333   3.197   1.650  13.545
 4864SOL     OW15334   3.154   0.911  13.683
 4864SOL    HW115335   3.232   0.857  13.668
 4864SOL    HW215336   3.174   0.995  13.641
 4865SOL     OW15337   2.534   1.625  13.185
 4865SOL    HW115338   2.546   1.638  13.091
 4865SOL    HW215339   2.479   1.547  13.191
 4866SOL     OW15340   3.669   0.167   0.062
 4866SOL    HW115341   3.703   0.078   0.064
 4866SOL    HW215342   3.581   0.159   0.024
 4867SOL     OW15343   2.140   0.309  13.746
 4867SOL    HW115344   2.049   0.330  13.723
 4867SOL    HW215345   2.139   0.303  13.841
 4868SOL     OW15346   3.070   1.602  13.066
 4868SOL    HW115347   3.059   1.511  13.092
 4868SOL    HW215348   3.004   1.617  12.998
 4869SOL     OW15349   2.782   0.914  13.330
 4869SOL    HW115350   2.840   0.944  13.261
 4869SOL    HW215351   2.827   0.840  13.370
 4870SOL     OW15352   3.350   1.630  13.078
 4870SOL    HW115353   3.256   1.620  13.063
 4870SOL    HW215354   3.388   1.635  12.990
 4871SOL     OW15355   2.913   1.090  13.756
 4871SOL    HW115356   2.826   1.056  13.737
 4871SOL    HW215357   2.967   1.059  13.684
 4872SOL     OW15358   2.460   1.492  13.504
 4872SOL    HW115359   2.506   1.442  13.437
 4872SOL    HW215360   2.394   1.542  13.456
 4873SOL     OW15361   2.128   1.345  13.322
 4873SOL    HW115362   2.036   1.342  13.296
 4873SOL    HW215363   2.127   1.378  13.411
 4874SOL     OW15364   1.963   0.317  13.026
 4874SOL    HW115365   1.896   0.336  13.091
 4874SOL    HW215366   1.970   0.397  12.974
 4875SOL     OW15367   1.952   0.150  13.363
 4875SOL    HW115368   1.922   0.211  13.296
 4875SOL    HW215369   2.039   0.122  13.334
 4876SOL     OW15370   3.040   1.335  13.149
 4876SOL    HW115371   2.949   1.305  13.152
 4876SOL    HW215372   3.066   1.338  13.241
 4877SOL     OW15373   3.076   0.335  13.484
 4877SOL    HW115374   3.146   0.272  13.470
 4877SOL    HW215375   3.104   0.385  13.561
 4878SOL     OW15376   2.455   0.749  13.690
 4878SOL    HW115377   2.489   0.837  13.671
 4878SOL    HW215378   2.386   0.736  13.625
 4879SOL     OW15379   2.724   1.365  13.073
 4879SOL    HW115380   2.688   1.392  13.158
 4879SOL    HW215381   2.741   1.448  13.028
 4880SOL     OW15382   2.526   1.836   0.082
 4880SOL    HW115383   2.504   1.928   0.067
 4880SOL    HW215384   2.622   1.834   0.082
 4881SOL     OW15385   2.685   0.968  13.898
 4881SOL    HW115386   2.707   0.885   0.040
 4881SOL    HW215387   2.724   1.034   0.055
 4882SOL     OW15388   2.938   0.987  13.124
 4882SOL    HW115389   2.917   1.040  13.047
 4882SOL    HW215390   3.013   0.934  13.096
 4883SOL     OW15391   1.950   1.225  13.705
 4883SOL    HW115392   1.959   1.168  13.781
 4883SOL    HW215393   2.019   1.197  13.645
 4884SOL     OW15394   2.290   0.438  13.551
 4884SOL    HW115395   2.328   0.367  13.499
 4884SOL    HW215396   2.252   0.394  13.628
 4885SOL     OW15397   3.545   1.452   0.355
 4885SOL    HW115398   3.512   1.432   0.268
 4885SOL    HW215399   3.636   1.423   0.354
 4886SOL     OW15400   2.680   1.546  13.706
 4886SOL    HW115401   2.650   1.601  13.633
 4886SOL    HW215402   2.605   1.490  13.726
 4887SOL     OW15403   2.635   1.335  13.348
 4887SOL    HW115404   2.608   1.244  13.357
 4887SOL    HW215405   2.715   1.342  13.400
 4888SOL     OW15406   3.171   0.072  13.203
 4888SOL    HW115407   3.186   3.988  13.159
 4888SOL    HW215408   3.080   0.066  13.234
 4889SOL     OW15409   3.157   0.461  13.715
 4889SOL    HW115410   3.107   0.543  13.713
 4889SOL    HW215411   3.144   0.427  13.803
 4890SOL     OW15412   1.904   1.068  13.340
 4890SOL    HW115413   1.998   1.063  13.322
 4890SOL    HW215414   1.879   0.979  13.364
 4891SOL     OW15415   2.752   1.655  13.371
 4891SOL    HW115416   2.677   1.643  13.314
 4891SOL    HW215417   2.728   1.728  13.428
 4892SOL     OW15418   2.095   2.520   0.124
 4892SOL    HW115419   2.007   2.489   0.150
 4892SOL    HW215420   2.116   2.470   0.045
 4893SOL     OW15421   1.872   2.273   0.641
 4893SOL    HW115422   1.780   2.264   0.668
 4893SOL    HW215423   1.889   2.194   0.589
 4894SOL     OW15424   2.429   3.157   1.180
 4894SOL    HW115425   2.343   3.163   1.139
 4894SOL    HW215426   2.446   3.244   1.214
 4895SOL     OW15427   3.428   3.374   0.709
 4895SOL    HW115428   3.383   3.350   0.790
 4895SOL    HW215429   3.359   3.377   0.643
 4896SOL     OW15430   2.993   2.561   0.698
 4896SOL    HW115431   3.042   2.642   0.685
 4896SOL    HW215432   2.946   2.574   0.781
 4897SOL     OW15433   3.628   2.458   0.228
 4897SOL    HW115434   3.650   2.414   0.146
 4897SOL    HW215435   3.585   2.392   0.281
 4898SOL     OW15436   2.608   3.000   1.045
 4898SOL    HW115437   2.542   3.037   1.102
 4898SOL    HW215438   2.648   3.075   1.001
 4899SOL     OW15439   2.733   2.626   1.823
 4899SOL    HW115440   2.723   2.696   1.888
 4899SOL    HW215441   2.757   2.672   1.742
 4900SOL     OW15442   2.546   2.857   0.646
 4900SOL    HW115443   2.612   2.850   0.715
 4900SOL    HW215444   2.479   2.913   0.684
 4901SOL     OW15445   2.576   3.013   1.816
 4901SOL    HW115446   2.623   3.090   1.846
 4901SOL    HW215447   2.495   3.047   1.778
 4902SOL     OW15448   2.194   3.280   1.066
 4902SOL    HW115449   2.119   3.244   1.020
 4902SOL    HW215450   2.239   3.334   1.001
 4903SOL     OW15451   3.320   3.364   1.359
 4903SOL    HW115452   3.375   3.442   1.369
 4903SOL    HW215453   3.253   3.373   1.427
 4904SOL     OW15454   3.470   2.305   0.745
 4904SOL    HW115455   3.398   2.327   0.686
 4904SOL    HW215456   3.480   2.383   0.800
 4905SOL     OW15457   2.082   3.573   0.483
 4905SOL    HW115458   2.106   3.642   0.544
 4905SOL    HW215459   2.148   3.579   0.413
 4906SOL     OW15460   2.999   3.204   1.694
 4906SOL    HW115461   3.041   3.197   1.780
 4906SOL    HW215462   2.947   3.124   1.686
 4907SOL     OW15463   2.079   3.303   0.529
 4907SOL    HW115464   2.074   3.398   0.532
 4907SOL    HW215465   2.027   3.273   0.603
 4908SOL     OW15466   2.125   2.957   0.889
 4908SOL    HW115467   2.120   2.869   0.928
 4908SOL    HW215468   2.068   3.011   0.944
 4909SOL     OW15469   2.467   3.647   1.428
 4909SOL    HW115470   2.386   3.633   1.476
 4909SOL    HW215471   2.494   3.736   1.452
 4910SOL     OW15472   2.425   2.849   0.162
 4910SOL    HW115473   2.460   2.887   0.081
 4910SOL    HW215474   2.477   2.888   0.232
 4911SOL     OW15475   3.456   1.989   1.465
 4911SOL    HW115476   3.475   2.070   1.418
 4911SOL    HW215477   3.439   2.016   1.555
 4912SOL     OW15478   1.985   2.515   0.563
 4912SOL    HW115479   1.952   2.428   0.585
 4912SOL    HW215480   1.972   2.567   0.643
 4913SOL     OW15481   3.697   3.613   0.341
 4913SOL    HW115482   3.766   3.579   0.397
 4913SOL    HW215483   3.719   3.705   0.328
 4914SOL     OW15484   1.882   3.463   0.101
 4914SOL    HW115485   1.892   3.372   0.131
 4914SOL    HW215486   1.868   3.513   0.181
 4915SOL     OW15487   3.549   2.781   0.651
 4915SOL    HW115488   3.633   2.737   0.633
 4915SOL    HW215489   3.530   2.830   0.571
 4916SOL     OW15490   3.506   2.964   0.434
 4916SOL    HW115491   3.592   2.969   0.393
 4916SOL    HW215492   3.509   3.029   0.505
 4917SOL     OW15493   1.977   2.631   1.561
 4917SOL    HW115494   2.066   2.663   1.573
 4917SOL    HW215495   1.922   2.709   1.568
 4918SOL     OW15496   2.478   3.253   0.735
 4918SOL    HW115497   2.433   3.169   0.744
 4918SOL    HW215498   2.462   3.280   0.644
 4919SOL     OW15499   3.148   3.098   1.422
 4919SOL    HW115500   3.180   3.031   1.361
 4919SOL    HW215501   3.208   3.093   1.496
 4920SOL     OW15502   2.684   1.864   0.512
 4920SOL    HW115503   2.724   1.948   0.489
 4920SOL    HW215504   2.590   1.882   0.516
 4921SOL     OW15505   2.050   2.828   1.279
 4921SOL    HW115506   2.136   2.790   1.260
 4921SOL    HW215507   1.989   2.777   1.224
 4922SOL     OW15508   3.390   2.861   0.206
 4922SOL    HW115509   3.322   2.803   0.240
 4922SOL    HW215510   3.431   2.898   0.285
 4923SOL     OW15511   3.084   3.668   1.628
 4923SOL    HW115512   3.057   3.728   1.559
 4923SOL    HW215513   3.084   3.582   1.586
 4924SOL     OW15514   3.326   3.282   0.947
 4924SOL    HW115515   3.260   3.296   1.015
 4924SOL    HW215516   3.315   3.190   0.923
 4925SOL     OW15517   3.513   3.608   0.589
 4925SOL    HW115518   3.506   3.579   0.498
 4925SOL    HW215519   3.495   3.529   0.641
 4926SOL     OW15520   2.484   2.601   0.273
 4926SOL    HW115521   2.477   2.676   0.214
 4926SOL    HW215522   2.422   2.620   0.344
 4927SOL     OW15523   3.139   2.224   0.933
 4927SOL    HW115524   3.051   2.188   0.942
 4927SOL    HW215525   3.193   2.170   0.992
 4928SOL     OW15526   3.421   3.594   0.315
 4928SOL    HW115527   3.517   3.596   0.314
 4928SOL    HW215528   3.397   3.562   0.228
 4929SOL     OW15529   2.656   2.478   1.449
 4929SOL    HW115530   2.631   2.455   1.538
 4929SOL    HW215531   2.609   2.415   1.394
 4930SOL     OW15532   3.256   2.336   1.678
 4930SOL    HW115533   3.259   2.380   1.763
 4930SOL    HW215534   3.312   2.260   1.689
 4931SOL     OW15535   2.812   2.748   1.585
 4931SOL    HW115536   2.869   2.680   1.547
 4931SOL    HW215537   2.766   2.785   1.510
 4932SOL     OW15538   2.861   2.277   1.235
 4932SOL    HW115539   2.776   2.295   1.276
 4932SOL    HW215540   2.838   2.229   1.155
 4933SOL     OW15541   2.916   2.564   0.429
 4933SOL    HW115542   2.934   2.556   0.523
 4933SOL    HW215543   2.833   2.518   0.417
 4934SOL     OW15544   1.950   2.684   0.777
 4934SOL    HW115545   2.032   2.683   0.827
 4934SOL    HW215546   1.902   2.760   0.811
 4935SOL     OW15547   1.980   3.714   1.578
 4935SOL    HW115548   1.985   3.692   1.671
 4935SOL    HW215549   1.887   3.702   1.556
 4936SOL     OW15550   2.733   2.222   0.218
 4936SOL    HW115551   2.772   2.283   0.155
 4936SOL    HW215552   2.744   2.136   0.178
 4937SOL     OW15553   3.570   2.434   1.829
 4937SOL    HW115554   3.532   2.507   1.780
 4937SOL    HW215555   3.595   2.370   1.762
 4938SOL     OW15556   3.239   3.003   0.542
 4938SOL    HW115557   3.318   2.991   0.490
 4938SOL    HW215558   3.187   3.067   0.494
 4939SOL     OW15559   2.438   2.059   0.911
 4939SOL    HW115560   2.347   2.070   0.939
 4939SOL    HW215561   2.461   2.142   0.870
 4940SOL     OW15562   2.862   3.303   0.473
 4940SOL    HW115563   2.833   3.380   0.423
 4940SOL    HW215564   2.840   3.324   0.564
 4941SOL     OW15565   2.213   3.676   0.840
 4941SOL    HW115566   2.264   3.596   0.858
 4941SOL    HW215567   2.273   3.747   0.863
 4942SOL     OW15568   3.668   2.921   0.870
 4942SOL    HW115569   3.615   2.896   0.795
 4942SOL    HW215570   3.606   2.925   0.943
 4943SOL     OW15571   3.089   3.400   1.512
 4943SOL    HW115572   3.077   3.327   1.573
 4943SOL    HW215573   3.020   3.388   1.447
 4944SOL     OW15574   2.168   2.799   0.233
 4944SOL    HW115575   2.260   2.811   0.208
 4944SOL    HW215576   2.153   2.705   0.223
 4945SOL     OW15577   3.342   2.609   0.724
 4945SOL    HW115578   3.338   2.569   0.811
 4945SOL    HW215579   3.419   2.665   0.727
 4946SOL     OW15580   2.331   3.128   1.737
 4946SOL    HW115581   2.305   3.134   1.645
 4946SOL    HW215582   2.249   3.126   1.786
 4947SOL     OW15583   2.990   3.640   0.230
 4947SOL    HW115584   2.926   3.595   0.284
 4947SOL    HW215585   3.016   3.574   0.165
 4948SOL     OW15586   3.493   3.242   0.089
 4948SOL    HW115587   3.456   3.324   0.056
 4948SOL    HW215588   3.426   3.176   0.070
 4949SOL     OW15589   2.335   3.597   0.327
 4949SOL    HW115590   2.370   3.660   0.390
 4949SOL    HW215591   2.412   3.568   0.277
 4950SOL     OW15592   3.265   1.971   0.441
 4950SOL    HW115593   3.262   1.938   0.352
 4950SOL    HW215594   3.358   1.971   0.464
 4951SOL     OW15595   2.122   3.652   1.220
 4951SOL    HW115596   2.169   3.581   1.263
 4951SOL    HW215597   2.106   3.620   1.132
 4952SOL     OW15598   2.801   3.564   0.898
 4952SOL    HW115599   2.879   3.514   0.920
 4952SOL    HW215600   2.758   3.514   0.829
 4953SOL     OW15601   2.252   2.558   0.480
 4953SOL    HW115602   2.269   2.481   0.426
 4953SOL    HW215603   2.161   2.549   0.508
 4954SOL     OW15604   3.392   2.086   1.725
 4954SOL    HW115605   3.403   2.107   1.818
 4954SOL    HW215606   3.325   2.019   1.722
 4955SOL     OW15607   2.627   2.146   1.753
 4955SOL    HW115608   2.706   2.092   1.747
 4955SOL    HW215609   2.581   2.110   1.829
 4956SOL     OW15610   2.737   3.382   1.195
 4956SOL    HW115611   2.721   3.346   1.108
 4956SOL    HW215612   2.808   3.328   1.230
 4957SOL     OW15613   3.202   2.452   1.434
 4957SOL    HW115614   3.233   2.421   1.519
 4957SOL    HW215615   3.239   2.540   1.425
 4958SOL     OW15616   2.680   3.252   0.945
 4958SOL    HW115617   2.765   3.240   0.902
 4958SOL    HW215618   2.617   3.258   0.873
 4959SOL     OW15619   2.789   2.369   0.901
 4959SOL    HW115620   2.765   2.361   0.809
 4959SOL    HW215621   2.823   2.282   0.924
 4960SOL     OW15622   2.417   1.925   0.514
 4960SOL    HW115623   2.361   1.900   0.587
 4960SOL    HW215624   2.397   2.018   0.499
 4961SOL     OW15625   3.292   3.071   0.045
 4961SOL    HW115626   3.310   2.990   0.093
 4961SOL    HW215627   3.201   3.091   0.065
 4962SOL     OW15628   2.805   2.110   0.462
 4962SOL    HW115629   2.775   2.149   0.380
 4962SOL    HW215630   2.899   2.127   0.463
 4963SOL     OW15631   2.944   2.547   1.458
 4963SOL    HW115632   2.880   2.477   1.466
 4963SOL    HW215633   3.029   2.501   1.453
 4964SOL     OW15634   3.080   3.434   0.795
 4964SOL    HW115635   3.096   3.500   0.727
 4964SOL    HW215636   3.152   3.446   0.857
 4965SOL     OW15637   2.334   3.015   0.726
 4965SOL    HW115638   2.266   2.996   0.791
 4965SOL    HW215639   2.290   3.003   0.642
 4966SOL     OW15640   3.126   3.656   0.609
 4966SOL    HW115641   3.175   3.721   0.558
 4966SOL    HW215642   3.052   3.705   0.646
 4967SOL     OW15643   2.858   2.403   0.054
 4967SOL    HW115644   2.856   2.387  13.859
 4967SOL    HW215645   2.950   2.396   0.078
 4968SOL     OW15646   1.941   2.429   1.380
 4968SOL    HW115647   2.036   2.418   1.368
 4968SOL    HW215648   1.933   2.501   1.443
 4969SOL     OW15649   2.725   2.318   0.639
 4969SOL    HW115650   2.691   2.376   0.570
 4969SOL    HW215651   2.751   2.239   0.593
 4970SOL     OW15652   2.876   1.917   0.749
 4970SOL    HW115653   2.819   1.908   0.672
 4970SOL    HW215654   2.854   1.841   0.804
 4971SOL     OW15655   3.302   3.023   0.857
 4971SOL    HW115656   3.231   2.959   0.856
 4971SOL    HW215657   3.328   3.032   0.766
 4972SOL     OW15658   3.327   2.472   0.970
 4972SOL    HW115659   3.273   2.393   0.973
 4972SOL    HW215660   3.385   2.464   1.046
 4973SOL     OW15661   3.725   2.674   0.368
 4973SOL    HW115662   3.764   2.621   0.437
 4973SOL    HW215663   3.683   2.612   0.310
 4974SOL     OW15664   2.352   3.269   0.156
 4974SOL    HW115665   2.278   3.234   0.206
 4974SOL    HW215666   2.336   3.240   0.066
 4975SOL     OW15667   3.529   3.126   0.645
 4975SOL    HW115668   3.624   3.127   0.655
 4975SOL    HW215669   3.502   3.216   0.659
 4976SOL     OW15670   3.284   2.447   0.086
 4976SOL    HW115671   3.218   2.439   0.155
 4976SOL    HW215672   3.320   2.359   0.077
 4977SOL     OW15673   3.612   3.095   1.562
 4977SOL    HW115674   3.700   3.060   1.545
 4977SOL    HW215675   3.628   3.185   1.591
 4978SOL     OW15676   2.917   3.213   1.331
 4978SOL    HW115677   2.842   3.183   1.382
 4978SOL    HW215678   2.993   3.173   1.373
 4979SOL     OW15679   3.469   3.492   1.658
 4979SOL    HW115680   3.459   3.526   1.569
 4979SOL    HW215681   3.549   3.439   1.655
 4980SOL     OW15682   2.994   3.069   1.102
 4980SOL    HW115683   2.936   3.108   1.167
 4980SOL    HW215684   2.965   3.105   1.018
 4981SOL     OW15685   3.488   2.956   1.074
 4981SOL    HW115686   3.479   3.018   1.147
 4981SOL    HW215687   3.413   2.974   1.018
 4982SOL     OW15688   2.788   1.954   1.392
 4982SOL    HW115689   2.810   1.935   1.301
 4982SOL    HW215690   2.868   1.993   1.429
 4983SOL     OW15691   2.846   2.977   1.723
 4983SOL    HW115692   2.755   2.994   1.747
 4983SOL    HW215693   2.843   2.898   1.668
 4984SOL     OW15694   2.578   2.922   0.377
 4984SOL    HW115695   2.563   2.901   0.470
 4984SOL    HW215696   2.653   2.867   0.352
 4985SOL     OW15697   2.285   2.688   1.254
 4985SOL    HW115698   2.354   2.699   1.319
 4985SOL    HW215699   2.248   2.602   1.274
 4986SOL     OW15700   3.129   2.238   1.280
 4986SOL    HW115701   3.161   2.316   1.326
 4986SOL    HW215702   3.039   2.259   1.257
 4987SOL     OW15703   1.936   3.435   1.355
 4987SOL    HW115704   1.908   3.510   1.302
 4987SOL    HW215705   2.031   3.436   1.349
 4988SOL     OW15706   2.203   2.978   0.486
 4988SOL    HW115707   2.200   3.049   0.421
 4988SOL    HW215708   2.209   2.898   0.433
 4989SOL     OW15709   2.428   2.387   0.846
 4989SOL    HW115710   2.438   2.451   0.775
 4989SOL    HW215711   2.494   2.414   0.910
 4990SOL     OW15712   3.110   3.209   0.399
 4990SOL    HW115713   3.165   3.282   0.426
 4990SOL    HW215714   3.022   3.232   0.431
 4991SOL     OW15715   3.149   3.323   1.149
 4991SOL    HW115716   3.206   3.328   1.226
 4991SOL    HW215717   3.093   3.246   1.165
 4992SOL     OW15718   3.439   2.484   0.487
 4992SOL    HW115719   3.390   2.531   0.554
 4992SOL    HW215720   3.465   2.551   0.424
 4993SOL     OW15721   2.207   3.392   1.310
 4993SOL    HW115722   2.196   3.347   1.226
 4993SOL    HW215723   2.302   3.403   1.319
 4994SOL     OW15724   2.286   2.607   1.607
 4994SOL    HW115725   2.345   2.650   1.545
 4994SOL    HW215726   2.337   2.534   1.642
 4995SOL     OW15727   3.468   2.641   1.685
 4995SOL    HW115728   3.383   2.684   1.680
 4995SOL    HW215729   3.521   2.684   1.617
 4996SOL     OW15730   2.856   1.993   1.745
 4996SOL    HW115731   2.917   2.065   1.729
 4996SOL    HW215732   2.905   1.914   1.725
 4997SOL     OW15733   2.358   1.885   1.781
 4997SOL    HW115734   2.312   1.840   1.710
 4997SOL    HW215735   2.291   1.938   1.823
 4998SOL     OW15736   2.448   2.735   1.033
 4998SOL    HW115737   2.483   2.824   1.033
 4998SOL    HW215738   2.391   2.731   1.110
 4999SOL     OW15739   3.213   2.721   1.023
 4999SOL    HW115740   3.128   2.707   0.981
 4999SOL    HW215741   3.258   2.637   1.015
 5000SOL     OW15742   3.081   2.405   0.271
 5000SOL    HW115743   3.085   2.324   0.323
 5000SOL    HW215744   3.025   2.464   0.322
 5001SOL     OW15745   1.907   3.174   1.275
 5001SOL    HW115746   1.940   3.119   1.346
 5001SOL    HW215747   1.914   3.263   1.308
 5002SOL     OW15748   2.581   2.485   1.053
 5002SOL    HW115749   2.662   2.474   1.003
 5002SOL    HW215750   2.555   2.576   1.037
 5003SOL     OW15751   3.592   2.822   1.864
 5003SOL    HW115752   3.552   2.754   1.808
 5003SOL    HW215753   3.528   2.836   1.933
 5004SOL     OW15754   3.485   2.241   0.370
 5004SOL    HW115755   3.508   2.173   0.434
 5004SOL    HW215756   3.459   2.316   0.423
 5005SOL     OW15757   2.889   2.619   0.958
 5005SOL    HW115758   2.882   2.636   1.052
 5005SOL    HW215759   2.864   2.527   0.949
 5006SOL     OW15760   2.848   3.430   1.722
 5006SOL    HW115761   2.828   3.470   1.637
 5006SOL    HW215762   2.889   3.347   1.700
 5007SOL     OW15763   3.703   3.358   1.597
 5007SOL    HW115764   3.728   3.389   1.510
 5007SOL    HW215765   3.783   3.366   1.649
 5008SOL     OW15766   2.213   2.780   1.809
 5008SOL    HW115767   2.294   2.800   1.856
 5008SOL    HW215768   2.239   2.718   1.742
 5009SOL     OW15769   3.411   2.121   0.137
 5009SOL    HW115770   3.351   2.050   0.162
 5009SOL    HW215771   3.434   2.163   0.220
 5010SOL     OW15772   3.150   2.690   0.055
 5010SOL    HW115773   3.198   2.607   0.060
 5010SOL    HW215774   3.168   2.724  13.867
 5011SOL     OW15775   2.930   3.200   0.856
 5011SOL    HW115776   2.935   3.128   0.793
 5011SOL    HW215777   2.989   3.267   0.820
 5012SOL     OW15778   2.172   2.683   0.945
 5012SOL    HW115779   2.263   2.709   0.938
 5012SOL    HW215780   2.175   2.591   0.974
 5013SOL     OW15781   2.219   2.420   1.007
 5013SOL    HW115782   2.184   2.332   0.991
 5013SOL    HW215783   2.296   2.426   0.951
 5014SOL     OW15784   2.996   2.237   1.683
 5014SOL    HW115785   2.948   2.289   1.747
 5014SOL    HW215786   3.083   2.276   1.680
 5015SOL     OW15787   3.026   2.062   1.471
 5015SOL    HW115788   3.013   2.124   1.543
 5015SOL    HW215789   3.069   2.113   1.402
 5016SOL     OW15790   1.885   3.171   0.179
 5016SOL    HW115791   1.803   3.187   0.133
 5016SOL    HW215792   1.874   3.085   0.220
 5017SOL     OW15793   1.960   3.637   0.939
 5017SOL    HW115794   1.929   3.559   0.893
 5017SOL    HW215795   2.044   3.657   0.898
 5018SOL     OW15796   2.354   3.438   0.905
 5018SOL    HW115797   2.422   3.502   0.929
 5018SOL    HW215798   2.399   3.376   0.848
 5019SOL     OW15799   2.838   2.649   1.224
 5019SOL    HW115800   2.900   2.630   1.294
 5019SOL    HW215801   2.754   2.616   1.257
 5020SOL     OW15802   1.894   2.401   1.114
 5020SOL    HW115803   1.969   2.432   1.064
 5020SOL    HW215804   1.918   2.416   1.205
 5021SOL     OW15805   2.011   2.431   1.739
 5021SOL    HW115806   2.069   2.387   1.677
 5021SOL    HW215807   1.975   2.505   1.690
 5022SOL     OW15808   3.242   2.797   1.658
 5022SOL    HW115809   3.264   2.890   1.654
 5022SOL    HW215810   3.238   2.770   1.566
 5023SOL     OW15811   2.680   2.437   0.383
 5023SOL    HW115812   2.687   2.363   0.323
 5023SOL    HW215813   2.615   2.495   0.342
 5024SOL     OW15814   3.501   2.463   1.181
 5024SOL    HW115815   3.490   2.403   1.255
 5024SOL    HW215816   3.588   2.443   1.146
 5025SOL     OW15817   2.102   3.410   1.723
 5025SOL    HW115818   2.080   3.477   1.787
 5025SOL    HW215819   2.108   3.329   1.774
 5026SOL     OW15820   2.537   2.321   1.264
 5026SOL    HW115821   2.522   2.233   1.230
 5026SOL    HW215822   2.546   2.376   1.186
 5027SOL     OW15823   2.787   3.532   1.470
 5027SOL    HW115824   2.761   3.493   1.387
 5027SOL    HW215825   2.779   3.627   1.456
 5028SOL     OW15826   2.325   2.385   0.284
 5028SOL    HW115827   2.402   2.439   0.263
 5028SOL    HW215828   2.265   2.400   0.211
 5029SOL     OW15829   2.005   3.007   1.475
 5029SOL    HW115830   2.006   2.958   1.557
 5029SOL    HW215831   2.022   2.941   1.408
 5030SOL     OW15832   3.182   2.905   1.221
 5030SOL    HW115833   3.205   2.843   1.152
 5030SOL    HW215834   3.115   2.961   1.180
 5031SOL     OW15835   3.179   2.719   0.327
 5031SOL    HW115836   3.106   2.686   0.379
 5031SOL    HW215837   3.152   2.703   0.236
 5032SOL     OW15838   3.641   3.600   1.157
 5032SOL    HW115839   3.699   3.627   1.086
 5032SOL    HW215840   3.613   3.512   1.133
 5033SOL     OW15841   3.106   3.595   1.107
 5033SOL    HW115842   3.189   3.617   1.065
 5033SOL    HW215843   3.114   3.501   1.127
 5034SOL     OW15844   1.949   3.126   1.012
 5034SOL    HW115845   1.932   3.142   1.105
 5034SOL    HW215846   1.874   3.074   0.983
 5035SOL     OW15847   2.541   3.528   1.736
 5035SOL    HW115848   2.483   3.604   1.740
 5035SOL    HW215849   2.602   3.548   1.665
 5036SOL     OW15850   2.795   1.972   0.126
 5036SOL    HW115851   2.825   1.960   0.036
 5036SOL    HW215852   2.846   1.909   0.176
 5037SOL     OW15853   3.567   2.013   0.514
 5037SOL    HW115854   3.645   2.004   0.459
 5037SOL    HW215855   3.558   1.927   0.556
 5038SOL     OW15856   3.252   3.434   0.488
 5038SOL    HW115857   3.314   3.469   0.425
 5038SOL    HW215858   3.204   3.511   0.520
 5039SOL     OW15859   1.999   3.650   1.838
 5039SOL    HW115860   1.947   3.587   1.887
 5039SOL    HW215861   2.046   3.699   1.905
 5040SOL     OW15862   3.138   2.788   0.671
 5040SOL    HW115863   3.213   2.729   0.681
 5040SOL    HW215864   3.172   2.861   0.618
 5041SOL     OW15865   2.669   3.138   1.426
 5041SOL    HW115866   2.642   3.178   1.508
 5041SOL    HW215867   2.600   3.160   1.364
 5042SOL     OW15868   2.542   3.457   0.186
 5042SOL    HW115869   2.524   3.506   0.106
 5042SOL    HW215870   2.486   3.380   0.180
 5043SOL     OW15871   3.480   3.589   1.390
 5043SOL    HW115872   3.536   3.592   1.313
 5043SOL    HW215873   3.466   3.681   1.413
 5044SOL     OW15874   3.701   2.043   0.965
 5044SOL    HW115875   3.732   1.955   0.942
 5044SOL    HW215876   3.614   2.049   0.925
 5045SOL     OW15877   3.085   3.459   0.036
 5045SOL    HW115878   3.073   3.367   0.062
 5045SOL    HW215879   3.038   3.467  13.853
 5046SOL     OW15880   2.687   2.869   1.373
 5046SOL    HW115881   2.731   2.866   1.288
 5046SOL    HW215882   2.683   2.963   1.394
 5047SOL     OW15883   2.786   2.774   0.291
 5047SOL    HW115884   2.855   2.814   0.237
 5047SOL    HW215885   2.831   2.704   0.338
 5048SOL     OW15886   3.347   3.514   0.064
 5048SOL    HW115887   3.255   3.490   0.059
 5048SOL    HW215888   3.380   3.501  13.875
 5049SOL     OW15889   2.231   3.166   1.491
 5049SOL    HW115890   2.217   3.244   1.436
 5049SOL    HW215891   2.153   3.113   1.477
 5050SOL     OW15892   3.461   3.142   1.276
 5050SOL    HW115893   3.530   3.132   1.342
 5050SOL    HW215894   3.404   3.211   1.311
 5051SOL     OW15895   2.920   2.971   0.709
 5051SOL    HW115896   2.849   2.920   0.747
 5051SOL    HW215897   2.985   2.906   0.682
 5052SOL     OW15898   2.883   2.103   0.965
 5052SOL    HW115899   2.880   2.056   0.882
 5052SOL    HW215900   2.881   2.034   1.032
 5053SOL     OW15901   2.468   3.350   0.480
 5053SOL    HW115902   2.514   3.299   0.413
 5053SOL    HW215903   2.399   3.396   0.432
 5054SOL     OW15904   3.588   2.251   1.378
 5054SOL    HW115905   3.660   2.313   1.375
 5054SOL    HW215906   3.616   2.179   1.321
 5055SOL     OW15907   2.134   3.181   0.298
 5055SOL    HW115908   2.050   3.189   0.251
 5055SOL    HW215909   2.120   3.229   0.380
 5056SOL     OW15910   1.974   2.891   1.721
 5056SOL    HW115911   1.898   2.866   1.773
 5056SOL    HW215912   2.048   2.851   1.767
 5057SOL     OW15913   2.548   2.043   1.494
 5057SOL    HW115914   2.635   2.020   1.462
 5057SOL    HW215915   2.564   2.087   1.578
 5058SOL     OW15916   1.854   2.288   0.033
 5058SOL    HW115917   1.812   2.203   0.052
 5058SOL    HW215918   1.881   2.282  13.842
 5059SOL     OW15919   3.287   2.720   1.398
 5059SOL    HW115920   3.237   2.781   1.344
 5059SOL    HW215921   3.375   2.722   1.361
 5060SOL     OW15922   3.049   3.205   0.123
 5060SOL    HW115923   2.954   3.198   0.112
 5060SOL    HW215924   3.063   3.193   0.217
 5061SOL     OW15925   2.485   2.693   1.435
 5061SOL    HW115926   2.542   2.770   1.421
 5061SOL    HW215927   2.546   2.620   1.443
 5062SOL     OW15928   3.348   3.645   0.983
 5062SOL    HW115929   3.371   3.700   0.908
 5062SOL    HW215930   3.432   3.611   1.015
 5063SOL     OW15931   2.573   2.424   1.701
 5063SOL    HW115932   2.620   2.482   1.761
 5063SOL    HW215933   2.593   2.335   1.732
 5064SOL     OW15934   3.335   3.058   1.629
 5064SOL    HW115935   3.325   3.072   1.723
 5064SOL    HW215936   3.428   3.074   1.612
 5065SOL     OW15937   2.235   3.604   1.567
 5065SOL    HW115938   2.151   3.647   1.550
 5065SOL    HW215939   2.211   3.520   1.607
 5066SOL     OW15940   3.525   2.742   1.259
 5066SOL    HW115941   3.524   2.656   1.215
 5066SOL    HW215942   3.518   2.805   1.187
 5067SOL     OW15943   3.080   2.182   0.454
 5067SOL    HW115944   3.143   2.110   0.448
 5067SOL    HW215945   3.107   2.232   0.532
 5068SOL     OW15946   2.447   2.595   0.670
 5068SOL    HW115947   2.486   2.681   0.656
 5068SOL    HW215948   2.379   2.588   0.604
 5069SOL     OW15949   3.618   2.228   1.650
 5069SOL    HW115950   3.602   2.242   1.557
 5069SOL    HW215951   3.548   2.170   1.679
 5070SOL     OW15952   3.620   2.789   1.513
 5070SOL    HW115953   3.610   2.882   1.531
 5070SOL    HW215954   3.594   2.780   1.421
 5071SOL     OW15955   2.772   3.261   0.071
 5071SOL    HW115956   2.706   3.244   0.138
 5071SOL    HW215957   2.723   3.259  13.889
 5072SOL     OW15958   2.523   3.649   0.937
 5072SOL    HW115959   2.502   3.740   0.917
 5072SOL    HW215960   2.619   3.645   0.933
 5073SOL     OW15961   2.731   2.831   0.854
 5073SOL    HW115962   2.781   2.759   0.892
 5073SOL    HW215963   2.694   2.877   0.929
 5074SOL     OW15964   2.959   2.876   0.110
 5074SOL    HW115965   2.951   2.922   0.027
 5074SOL    HW215966   3.032   2.815   0.097
 5075SOL     OW15967   3.711   3.414   0.840
 5075SOL    HW115968   3.631   3.399   0.789
 5075SOL    HW215969   3.709   3.348   0.909
 5076SOL     OW15970   2.089   3.162   1.855
 5076SOL    HW115971   2.022   3.101   1.824
 5076SOL    HW215972   2.069   3.175   1.948
 5077SOL     OW15973   1.948   3.089   0.667
 5077SOL    HW115974   1.959   3.043   0.750
 5077SOL    HW215975   2.019   3.057   0.612
 5078SOL     OW15976   2.546   3.268   1.631
 5078SOL    HW115977   2.467   3.226   1.663
 5078SOL    HW215978   2.544   3.356   1.668
 5079SOL     OW15979   3.673   2.039   1.237
 5079SOL    HW115980   3.664   1.943   1.239
 5079SOL    HW215981   3.689   2.059   1.145
 5080SOL     OW15982   3.557   3.350   1.094
 5080SOL    HW115983   3.478   3.328   1.044
 5080SOL    HW215984   3.566   3.279   1.157
 5081SOL     OW15985   2.206   2.429   1.298
 5081SOL    HW115986   2.260   2.365   1.344
 5081SOL    HW215987   2.231   2.418   1.206
 5082SOL     OW15988   2.692   3.441   0.677
 5082SOL    HW115989   2.673   3.499   0.603
 5082SOL    HW215990   2.618   3.381   0.680
 5083SOL     OW15991   3.292   2.091   1.116
 5083SOL    HW115992   3.310   2.006   1.156
 5083SOL    HW215993   3.242   2.139   1.182
 5084SOL     OW15994   2.873   1.880   1.136
 5084SOL    HW115995   2.817   1.813   1.097
 5084SOL    HW215996   2.960   1.840   1.138
 5085SOL     OW15997   2.640   3.185   0.321
 5085SOL    HW115998   2.611   3.096   0.338
 5085SOL    HW215999   2.721   3.195   0.371
 5086SOL     OW16000   2.482   3.414   1.286
 5086SOL    HW116001   2.482   3.496   1.336
 5086SOL    HW216002   2.570   3.409   1.249
 5087SOL     OW16003   3.213   1.926   0.165
 5087SOL    HW116004   3.249   1.860   0.105
 5087SOL    HW216005   3.129   1.888   0.193
 5088SOL     OW16006   3.155   2.325   0.678
 5088SOL    HW116007   3.104   2.405   0.684
 5088SOL    HW216008   3.152   2.287   0.766
 5089SOL     OW16009   3.443   2.058   0.879
 5089SOL    HW116010   3.388   2.083   0.954
 5089SOL    HW216011   3.444   2.136   0.824
 5090SOL     OW16012   1.901   2.927   0.311
 5090SOL    HW116013   1.996   2.923   0.309
 5090SOL    HW216014   1.874   2.837   0.330
 5091SOL     OW16015   2.759   3.522   0.345
 5091SOL    HW116016   2.685   3.494   0.292
 5091SOL    HW216017   2.726   3.597   0.394
 5092SOL     OW16018   2.097   2.494   1.995
 5092SOL    HW116019   2.013   2.482   2.039
 5092SOL    HW216020   2.078   2.482   1.902
 5093SOL     OW16021   1.872   2.269   2.499
 5093SOL    HW116022   1.781   2.267   2.529
 5093SOL    HW216023   1.883   2.188   2.449
 5094SOL     OW16024   2.429   3.157   3.042
 5094SOL    HW116025   2.343   3.163   3.001
 5094SOL    HW216026   2.446   3.245   3.076
 5095SOL     OW16027   3.428   3.375   2.571
 5095SOL    HW116028   3.385   3.351   2.654
 5095SOL    HW216029   3.356   3.378   2.508
 5096SOL     OW16030   2.993   2.561   2.559
 5096SOL    HW116031   3.042   2.642   2.545
 5096SOL    HW216032   2.946   2.574   2.641
 5097SOL     OW16033   3.631   2.467   2.091
 5097SOL    HW116034   3.609   2.459   1.997
 5097SOL    HW216035   3.596   2.386   2.130
 5098SOL     OW16036   2.609   3.000   2.907
 5098SOL    HW116037   2.542   3.037   2.965
 5098SOL    HW216038   2.649   3.076   2.864
 5099SOL     OW16039   2.733   2.627   3.685
 5099SOL    HW116040   2.724   2.697   3.750
 5099SOL    HW216041   2.757   2.672   3.604
 5100SOL     OW16042   2.549   2.862   2.507
 5100SOL    HW116043   2.615   2.854   2.576
 5100SOL    HW216044   2.480   2.916   2.545
 5101SOL     OW16045   2.576   3.013   3.678
 5101SOL    HW116046   2.623   3.090   3.708
 5101SOL    HW216047   2.495   3.048   3.640
 5102SOL     OW16048   2.194   3.281   2.928
 5102SOL    HW116049   2.119   3.243   2.881
 5102SOL    HW216050   2.239   3.334   2.863
 5103SOL     OW16051   3.320   3.364   3.221
 5103SOL    HW116052   3.375   3.442   3.231
 5103SOL    HW216053   3.253   3.373   3.289
 5104SOL     OW16054   3.470   2.306   2.607
 5104SOL    HW116055   3.399   2.327   2.547
 5104SOL    HW216056   3.478   2.384   2.662
 5105SOL     OW16057   2.084   3.578   2.341
 5105SOL    HW116058   2.113   3.637   2.410
 5105SOL    HW216059   2.157   3.576   2.279
 5106SOL     OW16060   2.999   3.204   3.556
 5106SOL    HW116061   3.041   3.197   3.642
 5106SOL    HW216062   2.947   3.124   3.548
 5107SOL     OW16063   2.092   3.304   2.398
 5107SOL    HW116064   2.074   3.398   2.401
 5107SOL    HW216065   2.034   3.267   2.464
 5108SOL     OW16066   2.125   2.958   2.752
 5108SOL    HW116067   2.121   2.870   2.790
 5108SOL    HW216068   2.067   3.010   2.807
 5109SOL     OW16069   2.467   3.647   3.289
 5109SOL    HW116070   2.386   3.633   3.338
 5109SOL    HW216071   2.494   3.736   3.314
 5110SOL     OW16072   2.442   2.849   1.999
 5110SOL    HW116073   2.491   2.895   1.930
 5110SOL    HW216074   2.481   2.882   2.080
 5111SOL     OW16075   3.456   1.989   3.327
 5111SOL    HW116076   3.475   2.070   3.280
 5111SOL    HW216077   3.439   2.016   3.417
 5112SOL     OW16078   1.986   2.515   2.425
 5112SOL    HW116079   1.952   2.428   2.446
 5112SOL    HW216080   1.973   2.566   2.505
 5113SOL     OW16081   3.700   3.611   2.204
 5113SOL    HW116082   3.772   3.586   2.262
 5113SOL    HW216083   3.718   3.702   2.181
 5114SOL     OW16084   1.893   3.451   1.983
 5114SOL    HW116085   1.878   3.359   2.004
 5114SOL    HW216086   1.872   3.498   2.063
 5115SOL     OW16087   3.551   2.782   2.511
 5115SOL    HW116088   3.634   2.738   2.492
 5115SOL    HW216089   3.531   2.831   2.431
 5116SOL     OW16090   3.504   2.965   2.294
 5116SOL    HW116091   3.589   2.968   2.250
 5116SOL    HW216092   3.510   3.029   2.365
 5117SOL     OW16093   1.977   2.630   3.423
 5117SOL    HW116094   2.066   2.662   3.435
 5117SOL    HW216095   1.922   2.708   3.429
 5118SOL     OW16096   2.478   3.253   2.596
 5118SOL    HW116097   2.433   3.169   2.605
 5118SOL    HW216098   2.461   3.280   2.506
 5119SOL     OW16099   3.148   3.098   3.284
 5119SOL    HW116100   3.180   3.031   3.223
 5119SOL    HW216101   3.208   3.093   3.358
 5120SOL     OW16102   2.691   1.863   2.374
 5120SOL    HW116103   2.730   1.948   2.350
 5120SOL    HW216104   2.597   1.880   2.378
 5121SOL     OW16105   2.050   2.827   3.140
 5121SOL    HW116106   2.136   2.789   3.123
 5121SOL    HW216107   1.989   2.777   3.086
 5122SOL     OW16108   3.389   2.860   2.063
 5122SOL    HW116109   3.320   2.803   2.097
 5122SOL    HW216110   3.432   2.894   2.142
 5123SOL     OW16111   3.084   3.667   3.490
 5123SOL    HW116112   3.057   3.728   3.421
 5123SOL    HW216113   3.084   3.582   3.448
 5124SOL     OW16114   3.327   3.282   2.809
 5124SOL    HW116115   3.261   3.297   2.877
 5124SOL    HW216116   3.316   3.190   2.784
 5125SOL     OW16117   3.507   3.608   2.442
 5125SOL    HW116118   3.499   3.573   2.354
 5125SOL    HW216119   3.492   3.533   2.500
 5126SOL     OW16120   2.466   2.600   2.137
 5126SOL    HW116121   2.468   2.679   2.084
 5126SOL    HW216122   2.399   2.617   2.204
 5127SOL     OW16123   3.139   2.224   2.796
 5127SOL    HW116124   3.051   2.188   2.805
 5127SOL    HW216125   3.193   2.170   2.854
 5128SOL     OW16126   3.435   3.539   2.170
 5128SOL    HW116127   3.528   3.562   2.166
 5128SOL    HW216128   3.410   3.520   2.080
 5129SOL     OW16129   2.656   2.478   3.311
 5129SOL    HW116130   2.631   2.455   3.400
 5129SOL    HW216131   2.610   2.415   3.256
 5130SOL     OW16132   3.256   2.336   3.540
 5130SOL    HW116133   3.259   2.380   3.625
 5130SOL    HW216134   3.312   2.260   3.551
 5131SOL     OW16135   2.812   2.748   3.447
 5131SOL    HW116136   2.868   2.680   3.409
 5131SOL    HW216137   2.766   2.784   3.372
 5132SOL     OW16138   2.861   2.277   3.097
 5132SOL    HW116139   2.776   2.294   3.138
 5132SOL    HW216140   2.839   2.230   3.016
 5133SOL     OW16141   2.916   2.561   2.287
 5133SOL    HW116142   2.934   2.554   2.381
 5133SOL    HW216143   2.832   2.515   2.275
 5134SOL     OW16144   1.950   2.683   2.640
 5134SOL    HW116145   2.032   2.683   2.689
 5134SOL    HW216146   1.903   2.760   2.672
 5135SOL     OW16147   1.980   3.713   3.439
 5135SOL    HW116148   1.985   3.692   3.533
 5135SOL    HW216149   1.887   3.703   3.418
 5136SOL     OW16150   2.757   2.216   2.063
 5136SOL    HW116151   2.803   2.268   1.998
 5136SOL    HW216152   2.726   2.139   2.015
 5137SOL     OW16153   3.570   2.434   3.692
 5137SOL    HW116154   3.533   2.507   3.642
 5137SOL    HW216155   3.595   2.370   3.624
 5138SOL     OW16156   3.239   3.003   2.402
 5138SOL    HW116157   3.319   2.991   2.351
 5138SOL    HW216158   3.188   3.066   2.351
 5139SOL     OW16159   2.441   2.060   2.769
 5139SOL    HW116160   2.350   2.070   2.798
 5139SOL    HW216161   2.463   2.144   2.729
 5140SOL     OW16162   2.863   3.307   2.331
 5140SOL    HW116163   2.829   3.382   2.282
 5140SOL    HW216164   2.841   3.326   2.422
 5141SOL     OW16165   2.213   3.675   2.700
 5141SOL    HW116166   2.263   3.595   2.718
 5141SOL    HW216167   2.271   3.747   2.724
 5142SOL     OW16168   3.668   2.923   2.731
 5142SOL    HW116169   3.616   2.895   2.655
 5142SOL    HW216170   3.606   2.926   2.803
 5143SOL     OW16171   3.089   3.400   3.374
 5143SOL    HW116172   3.077   3.328   3.435
 5143SOL    HW216173   3.020   3.387   3.308
 5144SOL     OW16174   2.177   2.822   2.115
 5144SOL    HW116175   2.258   2.841   2.069
 5144SOL    HW216176   2.149   2.737   2.079
 5145SOL     OW16177   3.343   2.611   2.586
 5145SOL    HW116178   3.338   2.569   2.672
 5145SOL    HW216179   3.421   2.666   2.590
 5146SOL     OW16180   2.331   3.128   3.599
 5146SOL    HW116181   2.305   3.134   3.507
 5146SOL    HW216182   2.248   3.126   3.648
 5147SOL     OW16183   2.977   3.644   2.082
 5147SOL    HW116184   2.911   3.599   2.136
 5147SOL    HW216185   3.007   3.577   2.021
 5148SOL     OW16186   3.485   3.248   1.951
 5148SOL    HW116187   3.442   3.332   1.933
 5148SOL    HW216188   3.419   3.182   1.930
 5149SOL     OW16189   2.328   3.599   2.187
 5149SOL    HW116190   2.366   3.662   2.247
 5149SOL    HW216191   2.400   3.572   2.130
 5150SOL     OW16192   3.263   1.969   2.301
 5150SOL    HW116193   3.256   1.944   2.209
 5150SOL    HW216194   3.357   1.975   2.318
 5151SOL     OW16195   2.122   3.652   3.083
 5151SOL    HW116196   2.169   3.581   3.126
 5151SOL    HW216197   2.106   3.620   2.994
 5152SOL     OW16198   2.801   3.564   2.760
 5152SOL    HW116199   2.878   3.513   2.783
 5152SOL    HW216200   2.758   3.514   2.691
 5153SOL     OW16201   2.256   2.575   2.340
 5153SOL    HW116202   2.284   2.484   2.352
 5153SOL    HW216203   2.161   2.573   2.356
 5154SOL     OW16204   3.392   2.086   3.587
 5154SOL    HW116205   3.403   2.107   3.680
 5154SOL    HW216206   3.325   2.019   3.584
 5155SOL     OW16207   2.540   1.987   1.962
 5155SOL    HW116208   2.581   1.907   1.997
 5155SOL    HW216209   2.470   1.955   1.905
 5156SOL     OW16210   2.628   2.146   3.615
 5156SOL    HW116211   2.707   2.092   3.609
 5156SOL    HW216212   2.580   2.110   3.690
 5157SOL     OW16213   2.738   3.383   3.057
 5157SOL    HW116214   2.721   3.346   2.970
 5157SOL    HW216215   2.808   3.328   3.093
 5158SOL     OW16216   3.202   2.452   3.296
 5158SOL    HW116217   3.233   2.421   3.381
 5158SOL    HW216218   3.239   2.540   3.287
 5159SOL     OW16219   2.680   3.252   2.807
 5159SOL    HW116220   2.764   3.241   2.764
 5159SOL    HW216221   2.617   3.258   2.735
 5160SOL     OW16222   2.790   2.369   2.763
 5160SOL    HW116223   2.766   2.361   2.671
 5160SOL    HW216224   2.823   2.282   2.787
 5161SOL     OW16225   2.426   1.919   2.373
 5161SOL    HW116226   2.372   1.900   2.450
 5161SOL    HW216227   2.414   2.013   2.358
 5162SOL     OW16228   3.289   3.062   1.901
 5162SOL    HW116229   3.320   2.987   1.952
 5162SOL    HW216230   3.204   3.083   1.939
 5163SOL     OW16231   2.804   2.112   2.318
 5163SOL    HW116232   2.782   2.149   2.233
 5163SOL    HW216233   2.899   2.126   2.325
 5164SOL     OW16234   2.944   2.547   3.320
 5164SOL    HW116235   2.879   2.477   3.327
 5164SOL    HW216236   3.028   2.501   3.315
 5165SOL     OW16237   3.081   3.433   2.656
 5165SOL    HW116238   3.097   3.500   2.589
 5165SOL    HW216239   3.152   3.446   2.720
 5166SOL     OW16240   2.334   3.015   2.590
 5166SOL    HW116241   2.267   2.997   2.655
 5166SOL    HW216242   2.291   3.001   2.506
 5167SOL     OW16243   3.126   3.655   2.472
 5167SOL    HW116244   3.174   3.720   2.420
 5167SOL    HW216245   3.052   3.703   2.509
 5168SOL     OW16246   2.887   2.398   1.886
 5168SOL    HW116247   2.842   2.481   1.869
 5168SOL    HW216248   2.950   2.419   1.955
 5169SOL     OW16249   1.940   2.429   3.242
 5169SOL    HW116250   2.034   2.417   3.229
 5169SOL    HW216251   1.933   2.500   3.305
 5170SOL     OW16252   2.726   2.319   2.501
 5170SOL    HW116253   2.684   2.375   2.435
 5170SOL    HW216254   2.752   2.241   2.452
 5171SOL     OW16255   2.876   1.917   2.611
 5171SOL    HW116256   2.820   1.907   2.534
 5171SOL    HW216257   2.854   1.841   2.666
 5172SOL     OW16258   3.302   3.023   2.719
 5172SOL    HW116259   3.231   2.959   2.718
 5172SOL    HW216260   3.328   3.031   2.627
 5173SOL     OW16261   3.327   2.472   2.832
 5173SOL    HW116262   3.273   2.393   2.835
 5173SOL    HW216263   3.385   2.464   2.908
 5174SOL     OW16264   3.724   2.677   2.237
 5174SOL    HW116265   3.767   2.622   2.301
 5174SOL    HW216266   3.687   2.616   2.173
 5175SOL     OW16267   2.352   3.282   2.014
 5175SOL    HW116268   2.276   3.254   2.066
 5175SOL    HW216269   2.342   3.235   1.931
 5176SOL     OW16270   3.530   3.128   2.504
 5176SOL    HW116271   3.625   3.129   2.514
 5176SOL    HW216272   3.502   3.217   2.526
 5177SOL     OW16273   3.256   2.434   1.934
 5177SOL    HW116274   3.193   2.414   2.003
 5177SOL    HW216275   3.340   2.402   1.967
 5178SOL     OW16276   3.612   3.096   3.424
 5178SOL    HW116277   3.699   3.060   3.407
 5178SOL    HW216278   3.628   3.185   3.453
 5179SOL     OW16279   2.917   3.214   3.193
 5179SOL    HW116280   2.842   3.183   3.244
 5179SOL    HW216281   2.993   3.173   3.235
 5180SOL     OW16282   3.469   3.492   3.520
 5180SOL    HW116283   3.459   3.526   3.431
 5180SOL    HW216284   3.549   3.439   3.517
 5181SOL     OW16285   2.995   3.070   2.964
 5181SOL    HW116286   2.936   3.108   3.029
 5181SOL    HW216287   2.965   3.105   2.880
 5182SOL     OW16288   3.489   2.956   2.936
 5182SOL    HW116289   3.479   3.018   3.008
 5182SOL    HW216290   3.413   2.973   2.880
 5183SOL     OW16291   2.789   1.953   3.255
 5183SOL    HW116292   2.811   1.934   3.163
 5183SOL    HW216293   2.868   1.992   3.291
 5184SOL     OW16294   2.846   2.977   3.584
 5184SOL    HW116295   2.755   2.994   3.608
 5184SOL    HW216296   2.843   2.898   3.530
 5185SOL     OW16297   2.571   2.924   2.232
 5185SOL    HW116298   2.557   2.905   2.325
 5185SOL    HW216299   2.647   2.870   2.208
 5186SOL     OW16300   2.284   2.685   3.116
 5186SOL    HW116301   2.353   2.697   3.181
 5186SOL    HW216302   2.248   2.599   3.135
 5187SOL     OW16303   3.129   2.238   3.142
 5187SOL    HW116304   3.161   2.316   3.188
 5187SOL    HW216305   3.039   2.259   3.119
 5188SOL     OW16306   1.936   3.435   3.217
 5188SOL    HW116307   1.908   3.510   3.164
 5188SOL    HW216308   2.031   3.436   3.211
 5189SOL     OW16309   2.202   2.978   2.352
 5189SOL    HW116310   2.206   3.051   2.290
 5189SOL    HW216311   2.200   2.900   2.296
 5190SOL     OW16312   2.428   2.386   2.709
 5190SOL    HW116313   2.438   2.446   2.635
 5190SOL    HW216314   2.494   2.415   2.772
 5191SOL     OW16315   3.109   3.212   2.252
 5191SOL    HW116316   3.165   3.282   2.284
 5191SOL    HW216317   3.022   3.233   2.285
 5192SOL     OW16318   3.149   3.322   3.011
 5192SOL    HW116319   3.205   3.327   3.088
 5192SOL    HW216320   3.094   3.246   3.026
 5193SOL     OW16321   3.438   2.480   2.346
 5193SOL    HW116322   3.390   2.532   2.411
 5193SOL    HW216323   3.480   2.546   2.290
 5194SOL     OW16324   2.207   3.392   3.172
 5194SOL    HW116325   2.196   3.347   3.088
 5194SOL    HW216326   2.302   3.403   3.181
 5195SOL     OW16327   2.286   2.607   3.470
 5195SOL    HW116328   2.344   2.650   3.407
 5195SOL    HW216329   2.338   2.534   3.505
 5196SOL     OW16330   3.468   2.641   3.547
 5196SOL    HW116331   3.383   2.684   3.542
 5196SOL    HW216332   3.521   2.684   3.479
 5197SOL     OW16333   2.856   1.993   3.607
 5197SOL    HW116334   2.917   2.065   3.591
 5197SOL    HW216335   2.906   1.914   3.586
 5198SOL     OW16336   2.358   1.887   3.642
 5198SOL    HW116337   2.310   1.841   3.572
 5198SOL    HW216338   2.292   1.944   3.681
 5199SOL     OW16339   2.449   2.734   2.896
 5199SOL    HW116340   2.483   2.824   2.895
 5199SOL    HW216341   2.391   2.731   2.972
 5200SOL     OW16342   3.213   2.721   2.885
 5200SOL    HW116343   3.128   2.707   2.843
 5200SOL    HW216344   3.258   2.637   2.877
 5201SOL     OW16345   3.062   2.390   2.124
 5201SOL    HW116346   3.070   2.311   2.178
 5201SOL    HW216347   3.020   2.454   2.182
 5202SOL     OW16348   1.907   3.174   3.137
 5202SOL    HW116349   1.940   3.119   3.208
 5202SOL    HW216350   1.914   3.263   3.170
 5203SOL     OW16351   2.582   2.486   2.916
 5203SOL    HW116352   2.662   2.475   2.864
 5203SOL    HW216353   2.556   2.577   2.899
 5204SOL     OW16354   3.592   2.822   3.726
 5204SOL    HW116355   3.553   2.754   3.670
 5204SOL    HW216356   3.528   2.836   3.795
 5205SOL     OW16357   3.483   2.240   2.224
 5205SOL    HW116358   3.509   2.174   2.288
 5205SOL    HW216359   3.459   2.317   2.276
 5206SOL     OW16360   2.889   2.620   2.820
 5206SOL    HW116361   2.883   2.636   2.914
 5206SOL    HW216362   2.865   2.527   2.811
 5207SOL     OW16363   2.847   3.430   3.584
 5207SOL    HW116364   2.828   3.470   3.499
 5207SOL    HW216365   2.889   3.347   3.562
 5208SOL     OW16366   3.703   3.358   3.459
 5208SOL    HW116367   3.728   3.389   3.372
 5208SOL    HW216368   3.783   3.366   3.511
 5209SOL     OW16369   2.214   2.780   3.672
 5209SOL    HW116370   2.295   2.801   3.717
 5209SOL    HW216371   2.239   2.717   3.604
 5210SOL     OW16372   3.390   2.134   1.989
 5210SOL    HW116373   3.326   2.069   2.016
 5210SOL    HW216374   3.423   2.170   2.071
 5211SOL     OW16375   3.149   2.686   1.891
 5211SOL    HW116376   3.193   2.601   1.895
 5211SOL    HW216377   3.183   2.725   1.810
 5212SOL     OW16378   2.930   3.200   2.718
 5212SOL    HW116379   2.935   3.128   2.655
 5212SOL    HW216380   2.988   3.267   2.682
 5213SOL     OW16381   2.172   2.684   2.807
 5213SOL    HW116382   2.264   2.710   2.799
 5213SOL    HW216383   2.175   2.592   2.834
 5214SOL     OW16384   2.213   2.420   2.862
 5214SOL    HW116385   2.175   2.335   2.843
 5214SOL    HW216386   2.292   2.424   2.809
 5215SOL     OW16387   2.996   2.237   3.545
 5215SOL    HW116388   2.948   2.289   3.609
 5215SOL    HW216389   3.083   2.276   3.542
 5216SOL     OW16390   3.027   2.062   3.333
 5216SOL    HW116391   3.013   2.124   3.404
 5216SOL    HW216392   3.069   2.113   3.264
 5217SOL     OW16393   1.868   3.179   2.057
 5217SOL    HW116394   1.781   3.195   2.020
 5217SOL    HW216395   1.864   3.090   2.091
 5218SOL     OW16396   1.960   3.637   2.801
 5218SOL    HW116397   1.928   3.560   2.755
 5218SOL    HW216398   2.044   3.657   2.760
 5219SOL     OW16399   2.354   3.438   2.767
 5219SOL    HW116400   2.421   3.501   2.791
 5219SOL    HW216401   2.399   3.376   2.709
 5220SOL     OW16402   2.838   2.649   3.086
 5220SOL    HW116403   2.900   2.630   3.157
 5220SOL    HW216404   2.754   2.615   3.118
 5221SOL     OW16405   1.896   2.400   2.975
 5221SOL    HW116406   1.971   2.433   2.927
 5221SOL    HW216407   1.918   2.414   3.067
 5222SOL     OW16408   2.015   2.436   3.606
 5222SOL    HW116409   2.080   2.396   3.549
 5222SOL    HW216410   1.976   2.506   3.554
 5223SOL     OW16411   3.242   2.797   3.520
 5223SOL    HW116412   3.264   2.890   3.516
 5223SOL    HW216413   3.238   2.770   3.428
 5224SOL     OW16414   2.679   2.433   2.232
 5224SOL    HW116415   2.686   2.361   2.170
 5224SOL    HW216416   2.608   2.488   2.197
 5225SOL     OW16417   3.501   2.463   3.044
 5225SOL    HW116418   3.490   2.403   3.117
 5225SOL    HW216419   3.588   2.443   3.008
 5226SOL     OW16420   2.102   3.410   3.585
 5226SOL    HW116421   2.080   3.477   3.649
 5226SOL    HW216422   2.108   3.329   3.635
 5227SOL     OW16423   2.540   2.320   3.126
 5227SOL    HW116424   2.522   2.233   3.091
 5227SOL    HW216425   2.548   2.376   3.048
 5228SOL     OW16426   2.787   3.533   3.332
 5228SOL    HW116427   2.761   3.493   3.249
 5228SOL    HW216428   2.779   3.627   3.318
 5229SOL     OW16429   2.340   2.369   2.093
 5229SOL    HW116430   2.398   2.445   2.094
 5229SOL    HW216431   2.259   2.401   2.053
 5230SOL     OW16432   2.005   3.007   3.337
 5230SOL    HW116433   2.006   2.958   3.419
 5230SOL    HW216434   2.022   2.940   3.270
 5231SOL     OW16435   3.182   2.905   3.082
 5231SOL    HW116436   3.205   2.842   3.014
 5231SOL    HW216437   3.116   2.961   3.042
 5232SOL     OW16438   3.175   2.718   2.167
 5232SOL    HW116439   3.101   2.686   2.218
 5232SOL    HW216440   3.149   2.704   2.076
 5233SOL     OW16441   3.641   3.600   3.019
 5233SOL    HW116442   3.699   3.627   2.947
 5233SOL    HW216443   3.613   3.512   2.995
 5234SOL     OW16444   3.106   3.594   2.969
 5234SOL    HW116445   3.189   3.617   2.927
 5234SOL    HW216446   3.114   3.501   2.989
 5235SOL     OW16447   1.948   3.127   2.873
 5235SOL    HW116448   1.931   3.143   2.966
 5235SOL    HW216449   1.874   3.073   2.844
 5236SOL     OW16450   2.541   3.528   3.598
 5236SOL    HW116451   2.483   3.604   3.602
 5236SOL    HW216452   2.603   3.548   3.527
 5237SOL     OW16453   3.570   2.015   2.372
 5237SOL    HW116454   3.638   2.002   2.306
 5237SOL    HW216455   3.560   1.928   2.413
 5238SOL     OW16456   3.252   3.430   2.351
 5238SOL    HW116457   3.311   3.465   2.284
 5238SOL    HW216458   3.204   3.507   2.382
 5239SOL     OW16459   1.999   3.650   3.700
 5239SOL    HW116460   1.947   3.587   3.749
 5239SOL    HW216461   2.046   3.699   3.767
 5240SOL     OW16462   3.139   2.789   2.533
 5240SOL    HW116463   3.213   2.729   2.543
 5240SOL    HW216464   3.173   2.861   2.480
 5241SOL     OW16465   2.669   3.138   3.288
 5241SOL    HW116466   2.641   3.178   3.370
 5241SOL    HW216467   2.600   3.160   3.226
 5242SOL     OW16468   2.536   3.481   2.021
 5242SOL    HW116469   2.546   3.499   1.927
 5242SOL    HW216470   2.477   3.406   2.024
 5243SOL     OW16471   3.479   3.589   3.252
 5243SOL    HW116472   3.536   3.592   3.175
 5243SOL    HW216473   3.466   3.681   3.275
 5244SOL     OW16474   3.701   2.043   2.828
 5244SOL    HW116475   3.732   1.956   2.804
 5244SOL    HW216476   3.614   2.050   2.788
 5245SOL     OW16477   3.070   3.464   1.899
 5245SOL    HW116478   3.059   3.372   1.923
 5245SOL    HW216479   3.008   3.477   1.826
 5246SOL     OW16480   2.687   2.869   3.235
 5246SOL    HW116481   2.731   2.865   3.150
 5246SOL    HW216482   2.683   2.963   3.256
 5247SOL     OW16483   2.779   2.773   2.153
 5247SOL    HW116484   2.839   2.805   2.086
 5247SOL    HW216485   2.828   2.705   2.199
 5248SOL     OW16486   3.348   3.496   1.905
 5248SOL    HW116487   3.255   3.482   1.888
 5248SOL    HW216488   3.388   3.500   1.818
 5249SOL     OW16489   2.231   3.166   3.353
 5249SOL    HW116490   2.217   3.244   3.298
 5249SOL    HW216491   2.153   3.113   3.339
 5250SOL     OW16492   3.461   3.142   3.138
 5250SOL    HW116493   3.530   3.132   3.204
 5250SOL    HW216494   3.404   3.211   3.173
 5251SOL     OW16495   2.921   2.972   2.572
 5251SOL    HW116496   2.849   2.921   2.609
 5251SOL    HW216497   2.985   2.906   2.544
 5252SOL     OW16498   2.884   2.103   2.828
 5252SOL    HW116499   2.880   2.056   2.744
 5252SOL    HW216500   2.881   2.034   2.894
 5253SOL     OW16501   2.467   3.353   2.341
 5253SOL    HW116502   2.515   3.302   2.276
 5253SOL    HW216503   2.397   3.396   2.292
 5254SOL     OW16504   3.588   2.251   3.240
 5254SOL    HW116505   3.660   2.313   3.237
 5254SOL    HW216506   3.616   2.179   3.183
 5255SOL     OW16507   2.123   3.205   2.152
 5255SOL    HW116508   2.030   3.201   2.129
 5255SOL    HW216509   2.124   3.244   2.240
 5256SOL     OW16510   1.975   2.891   3.584
 5256SOL    HW116511   1.898   2.866   3.635
 5256SOL    HW216512   2.049   2.851   3.630
 5257SOL     OW16513   2.549   2.042   3.356
 5257SOL    HW116514   2.636   2.020   3.323
 5257SOL    HW216515   2.565   2.087   3.439
 5258SOL     OW16516   1.880   2.257   1.915
 5258SOL    HW116517   1.817   2.218   1.854
 5258SOL    HW216518   1.928   2.321   1.863
 5259SOL     OW16519   3.287   2.720   3.260
 5259SOL    HW116520   3.237   2.781   3.206
 5259SOL    HW216521   3.375   2.722   3.223
 5260SOL     OW16522   3.039   3.197   1.980
 5260SOL    HW116523   2.948   3.168   1.981
 5260SOL    HW216524   3.066   3.197   2.072
 5261SOL     OW16525   2.485   2.693   3.297
 5261SOL    HW116526   2.541   2.769   3.282
 5261SOL    HW216527   2.546   2.620   3.305
 5262SOL     OW16528   3.348   3.644   2.845
 5262SOL    HW116529   3.371   3.701   2.772
 5262SOL    HW216530   3.432   3.611   2.877
 5263SOL     OW16531   2.573   2.424   3.563
 5263SOL    HW116532   2.620   2.481   3.623
 5263SOL    HW216533   2.592   2.335   3.593
 5264SOL     OW16534   3.335   3.058   3.491
 5264SOL    HW116535   3.325   3.072   3.585
 5264SOL    HW216536   3.428   3.074   3.474
 5265SOL     OW16537   2.235   3.604   3.429
 5265SOL    HW116538   2.151   3.647   3.412
 5265SOL    HW216539   2.211   3.520   3.469
 5266SOL     OW16540   3.525   2.742   3.121
 5266SOL    HW116541   3.524   2.656   3.078
 5266SOL    HW216542   3.518   2.805   3.049
 5267SOL     OW16543   3.078   2.181   2.320
 5267SOL    HW116544   3.140   2.108   2.313
 5267SOL    HW216545   3.108   2.231   2.396
 5268SOL     OW16546   2.449   2.602   2.537
 5268SOL    HW116547   2.493   2.686   2.523
 5268SOL    HW216548   2.382   2.599   2.468
 5269SOL     OW16549   3.618   2.228   3.512
 5269SOL    HW116550   3.602   2.242   3.419
 5269SOL    HW216551   3.548   2.170   3.541
 5270SOL     OW16552   3.620   2.789   3.375
 5270SOL    HW116553   3.609   2.882   3.393
 5270SOL    HW216554   3.594   2.780   3.283
 5271SOL     OW16555   2.726   3.228   1.904
 5271SOL    HW116556   2.686   3.256   1.986
 5271SOL    HW216557   2.740   3.310   1.855
 5272SOL     OW16558   2.523   3.649   2.799
 5272SOL    HW116559   2.503   3.740   2.779
 5272SOL    HW216560   2.618   3.644   2.795
 5273SOL     OW16561   2.731   2.832   2.716
 5273SOL    HW116562   2.781   2.760   2.754
 5273SOL    HW216563   2.694   2.877   2.792
 5274SOL     OW16564   2.939   2.850   1.950
 5274SOL    HW116565   2.919   2.902   1.872
 5274SOL    HW216566   3.014   2.796   1.924
 5275SOL     OW16567   3.710   3.416   2.702
 5275SOL    HW116568   3.630   3.397   2.653
 5275SOL    HW216569   3.714   3.347   2.769
 5276SOL     OW16570   2.089   3.162   3.717
 5276SOL    HW116571   2.022   3.101   3.686
 5276SOL    HW216572   2.067   3.175   3.810
 5277SOL     OW16573   1.949   3.091   2.527
 5277SOL    HW116574   1.961   3.047   2.611
 5277SOL    HW216575   2.016   3.053   2.470
 5278SOL     OW16576   2.546   3.268   3.493
 5278SOL    HW116577   2.466   3.226   3.525
 5278SOL    HW216578   2.544   3.356   3.530
 5279SOL     OW16579   3.673   2.039   3.099
 5279SOL    HW116580   3.664   1.943   3.101
 5279SOL    HW216581   3.689   2.059   3.007
 5280SOL     OW16582   2.331   2.318   2.364
 5280SOL    HW116583   2.351   2.320   2.270
 5280SOL    HW216584   2.254   2.262   2.371
 5281SOL     OW16585   3.556   3.351   2.957
 5281SOL    HW116586   3.478   3.328   2.907
 5281SOL    HW216587   3.566   3.280   3.020
 5282SOL     OW16588   2.203   2.425   3.156
 5282SOL    HW116589   2.253   2.359   3.202
 5282SOL    HW216590   2.228   2.415   3.064
 5283SOL     OW16591   2.692   3.441   2.538
 5283SOL    HW116592   2.671   3.495   2.463
 5283SOL    HW216593   2.618   3.380   2.545
 5284SOL     OW16594   3.292   2.091   2.978
 5284SOL    HW116595   3.310   2.006   3.019
 5284SOL    HW216596   3.242   2.139   3.044
 5285SOL     OW16597   2.873   1.880   2.998
 5285SOL    HW116598   2.817   1.813   2.959
 5285SOL    HW216599   2.960   1.840   3.000
 5286SOL     OW16600   2.636   3.195   2.183
 5286SOL    HW116601   2.607   3.104   2.190
 5286SOL    HW216602   2.718   3.198   2.232
 5287SOL     OW16603   2.482   3.414   3.148
 5287SOL    HW116604   2.482   3.496   3.197
 5287SOL    HW216605   2.570   3.409   3.111
 5288SOL     OW16606   3.219   1.914   2.031
 5288SOL    HW116607   3.250   1.844   1.974
 5288SOL    HW216608   3.130   1.888   2.054
 5289SOL     OW16609   3.157   2.325   2.541
 5289SOL    HW116610   3.105   2.405   2.546
 5289SOL    HW216611   3.153   2.288   2.629
 5290SOL     OW16612   3.443   2.058   2.741
 5290SOL    HW116613   3.388   2.083   2.816
 5290SOL    HW216614   3.444   2.136   2.685
 5291SOL     OW16615   1.905   2.928   2.170
 5291SOL    HW116616   1.998   2.921   2.151
 5291SOL    HW216617   1.878   2.839   2.194
 5292SOL     OW16618   2.750   3.524   2.203
 5292SOL    HW116619   2.678   3.505   2.143
 5292SOL    HW216620   2.719   3.598   2.255
 5293SOL     OW16621   2.093   2.504   3.862
 5293SOL    HW116622   2.010   2.485   3.906
 5293SOL    HW216623   2.075   2.489   3.769
 5294SOL     OW16624   1.870   2.272   4.358
 5294SOL    HW116625   1.780   2.267   4.388
 5294SOL    HW216626   1.883   2.193   4.305
 5295SOL     OW16627   2.429   3.157   4.904
 5295SOL    HW116628   2.343   3.163   4.863
 5295SOL    HW216629   2.446   3.245   4.938
 5296SOL     OW16630   3.428   3.375   4.433
 5296SOL    HW116631   3.385   3.351   4.516
 5296SOL    HW216632   3.356   3.378   4.370
 5297SOL     OW16633   2.992   2.561   4.421
 5297SOL    HW116634   3.041   2.642   4.407
 5297SOL    HW216635   2.946   2.574   4.503
 5298SOL     OW16636   3.631   2.467   3.953
 5298SOL    HW116637   3.609   2.459   3.860
 5298SOL    HW216638   3.596   2.386   3.992
 5299SOL     OW16639   2.609   3.000   4.769
 5299SOL    HW116640   2.542   3.037   4.827
 5299SOL    HW216641   2.648   3.075   4.726
 5300SOL     OW16642   2.727   2.630   5.544
 5300SOL    HW116643   2.732   2.697   5.612
 5300SOL    HW216644   2.753   2.675   5.464
 5301SOL     OW16645   2.547   2.859   4.368
 5301SOL    HW116646   2.613   2.851   4.437
 5301SOL    HW216647   2.479   2.914   4.407
 5302SOL     OW16648   2.580   3.017   5.534
 5302SOL    HW116649   2.626   3.095   5.566
 5302SOL    HW216650   2.498   3.052   5.498
 5303SOL     OW16651   2.194   3.281   4.790
 5303SOL    HW116652   2.119   3.243   4.743
 5303SOL    HW216653   2.239   3.334   4.725
 5304SOL     OW16654   3.320   3.364   5.083
 5304SOL    HW116655   3.375   3.442   5.093
 5304SOL    HW216656   3.253   3.373   5.151
 5305SOL     OW16657   3.470   2.306   4.469
 5305SOL    HW116658   3.399   2.327   4.409
 5305SOL    HW216659   3.478   2.383   4.524
 5306SOL     OW16660   2.084   3.577   4.203
 5306SOL    HW116661   2.113   3.637   4.272
 5306SOL    HW216662   2.157   3.576   4.141
 5307SOL     OW16663   2.999   3.205   5.419
 5307SOL    HW116664   3.041   3.197   5.504
 5307SOL    HW216665   2.947   3.125   5.410
 5308SOL     OW16666   2.092   3.304   4.260
 5308SOL    HW116667   2.075   3.398   4.263
 5308SOL    HW216668   2.034   3.267   4.326
 5309SOL     OW16669   2.125   2.958   4.614
 5309SOL    HW116670   2.121   2.870   4.651
 5309SOL    HW216671   2.067   3.010   4.669
 5310SOL     OW16672   2.467   3.647   5.151
 5310SOL    HW116673   2.386   3.633   5.200
 5310SOL    HW216674   2.494   3.736   5.176
 5311SOL     OW16675   2.443   2.850   3.860
 5311SOL    HW116676   2.492   2.895   3.791
 5311SOL    HW216677   2.481   2.883   3.942
 5312SOL     OW16678   3.457   1.989   5.189
 5312SOL    HW116679   3.474   2.071   5.143
 5312SOL    HW216680   3.439   2.015   5.279
 5313SOL     OW16681   1.987   2.516   4.287
 5313SOL    HW116682   1.952   2.429   4.307
 5313SOL    HW216683   1.973   2.566   4.368
 5314SOL     OW16684   3.700   3.611   4.066
 5314SOL    HW116685   3.772   3.586   4.124
 5314SOL    HW216686   3.718   3.702   4.043
 5315SOL     OW16687   1.894   3.451   3.845
 5315SOL    HW116688   1.878   3.359   3.866
 5315SOL    HW216689   1.872   3.498   3.925
 5316SOL     OW16690   3.551   2.782   4.373
 5316SOL    HW116691   3.634   2.737   4.354
 5316SOL    HW216692   3.531   2.831   4.293
 5317SOL     OW16693   3.504   2.965   4.156
 5317SOL    HW116694   3.589   2.968   4.112
 5317SOL    HW216695   3.510   3.029   4.227
 5318SOL     OW16696   1.978   2.628   5.286
 5318SOL    HW116697   2.067   2.661   5.296
 5318SOL    HW216698   1.923   2.706   5.291
 5319SOL     OW16699   2.478   3.253   4.458
 5319SOL    HW116700   2.433   3.169   4.467
 5319SOL    HW216701   2.461   3.280   4.368
 5320SOL     OW16702   3.148   3.098   5.145
 5320SOL    HW116703   3.180   3.031   5.085
 5320SOL    HW216704   3.208   3.093   5.220
 5321SOL     OW16705   2.690   1.864   4.236
 5321SOL    HW116706   2.729   1.948   4.212
 5321SOL    HW216707   2.596   1.882   4.239
 5322SOL     OW16708   2.050   2.827   5.003
 5322SOL    HW116709   2.136   2.788   4.985
 5322SOL    HW216710   1.990   2.777   4.947
 5323SOL     OW16711   3.389   2.860   3.925
 5323SOL    HW116712   3.320   2.803   3.958
 5323SOL    HW216713   3.432   2.894   4.004
 5324SOL     OW16714   3.084   3.667   5.352
 5324SOL    HW116715   3.057   3.728   5.283
 5324SOL    HW216716   3.084   3.582   5.310
 5325SOL     OW16717   3.327   3.282   4.671
 5325SOL    HW116718   3.261   3.297   4.739
 5325SOL    HW216719   3.316   3.190   4.646
 5326SOL     OW16720   3.507   3.608   4.304
 5326SOL    HW116721   3.499   3.573   4.216
 5326SOL    HW216722   3.492   3.533   4.362
 5327SOL     OW16723   2.469   2.602   3.999
 5327SOL    HW116724   2.471   2.680   3.944
 5327SOL    HW216725   2.403   2.621   4.066
 5328SOL     OW16726   3.139   2.224   4.658
 5328SOL    HW116727   3.051   2.188   4.667
 5328SOL    HW216728   3.192   2.170   4.716
 5329SOL     OW16729   3.435   3.539   4.032
 5329SOL    HW116730   3.528   3.562   4.028
 5329SOL    HW216731   3.410   3.520   3.942
 5330SOL     OW16732   2.655   2.479   5.174
 5330SOL    HW116733   2.631   2.455   5.263
 5330SOL    HW216734   2.610   2.415   5.119
 5331SOL     OW16735   3.257   2.336   5.401
 5331SOL    HW116736   3.259   2.381   5.486
 5331SOL    HW216737   3.313   2.260   5.413
 5332SOL     OW16738   2.814   2.749   5.308
 5332SOL    HW116739   2.870   2.680   5.271
 5332SOL    HW216740   2.766   2.784   5.233
 5333SOL     OW16741   2.861   2.277   4.958
 5333SOL    HW116742   2.777   2.294   5.002
 5333SOL    HW216743   2.837   2.229   4.879
 5334SOL     OW16744   2.915   2.561   4.149
 5334SOL    HW116745   2.933   2.555   4.242
 5334SOL    HW216746   2.832   2.515   4.137
 5335SOL     OW16747   1.949   2.683   4.503
 5335SOL    HW116748   2.032   2.684   4.552
 5335SOL    HW216749   1.902   2.760   4.535
 5336SOL     OW16750   1.980   3.713   5.301
 5336SOL    HW116751   1.985   3.692   5.395
 5336SOL    HW216752   1.887   3.703   5.280
 5337SOL     OW16753   2.757   2.216   3.926
 5337SOL    HW116754   2.803   2.267   3.860
 5337SOL    HW216755   2.721   2.141   3.878
 5338SOL     OW16756   3.574   2.435   5.553
 5338SOL    HW116757   3.534   2.508   5.505
 5338SOL    HW216758   3.596   2.371   5.486
 5339SOL     OW16759   3.239   3.003   4.264
 5339SOL    HW116760   3.319   2.991   4.213
 5339SOL    HW216761   3.188   3.066   4.213
 5340SOL     OW16762   2.445   2.059   4.629
 5340SOL    HW116763   2.352   2.071   4.653
 5340SOL    HW216764   2.470   2.143   4.590
 5341SOL     OW16765   2.863   3.307   4.193
 5341SOL    HW116766   2.829   3.382   4.144
 5341SOL    HW216767   2.841   3.326   4.284
 5342SOL     OW16768   2.213   3.675   4.562
 5342SOL    HW116769   2.263   3.596   4.580
 5342SOL    HW216770   2.271   3.747   4.586
 5343SOL     OW16771   3.668   2.923   4.593
 5343SOL    HW116772   3.616   2.895   4.517
 5343SOL    HW216773   3.606   2.926   4.665
 5344SOL     OW16774   3.089   3.400   5.236
 5344SOL    HW116775   3.077   3.328   5.298
 5344SOL    HW216776   3.020   3.387   5.170
 5345SOL     OW16777   2.179   2.818   3.978
 5345SOL    HW116778   2.259   2.838   3.930
 5345SOL    HW216779   2.148   2.736   3.940
 5346SOL     OW16780   3.342   2.611   4.448
 5346SOL    HW116781   3.338   2.569   4.534
 5346SOL    HW216782   3.421   2.666   4.452
 5347SOL     OW16783   2.331   3.129   5.461
 5347SOL    HW116784   2.304   3.134   5.369
 5347SOL    HW216785   2.248   3.126   5.510
 5348SOL     OW16786   2.977   3.644   3.944
 5348SOL    HW116787   2.911   3.599   3.998
 5348SOL    HW216788   3.007   3.577   3.883
 5349SOL     OW16789   3.485   3.248   3.813
 5349SOL    HW116790   3.442   3.332   3.795
 5349SOL    HW216791   3.419   3.182   3.792
 5350SOL     OW16792   2.328   3.598   4.049
 5350SOL    HW116793   2.366   3.662   4.109
 5350SOL    HW216794   2.400   3.572   3.992
 5351SOL     OW16795   3.263   1.969   4.163
 5351SOL    HW116796   3.256   1.944   4.071
 5351SOL    HW216797   3.357   1.975   4.180
 5352SOL     OW16798   2.122   3.652   4.945
 5352SOL    HW116799   2.169   3.581   4.988
 5352SOL    HW216800   2.106   3.620   4.856
 5353SOL     OW16801   2.801   3.564   4.622
 5353SOL    HW116802   2.878   3.513   4.645
 5353SOL    HW216803   2.758   3.514   4.553
 5354SOL     OW16804   2.256   2.547   4.200
 5354SOL    HW116805   2.265   2.460   4.160
 5354SOL    HW216806   2.164   2.551   4.226
 5355SOL     OW16807   3.392   2.086   5.448
 5355SOL    HW116808   3.403   2.106   5.541
 5355SOL    HW216809   3.323   2.021   5.446
 5356SOL     OW16810   2.540   1.986   3.824
 5356SOL    HW116811   2.580   1.906   3.857
 5356SOL    HW216812   2.470   1.956   3.766
 5357SOL     OW16813   2.626   2.144   5.478
 5357SOL    HW116814   2.705   2.090   5.474
 5357SOL    HW216815   2.580   2.112   5.556
 5358SOL     OW16816   2.738   3.383   4.919
 5358SOL    HW116817   2.721   3.346   4.832
 5358SOL    HW216818   2.808   3.328   4.955
 5359SOL     OW16819   3.202   2.452   5.157
 5359SOL    HW116820   3.233   2.420   5.242
 5359SOL    HW216821   3.239   2.540   5.150
 5360SOL     OW16822   2.680   3.252   4.669
 5360SOL    HW116823   2.764   3.241   4.626
 5360SOL    HW216824   2.617   3.258   4.597
 5361SOL     OW16825   2.789   2.369   4.624
 5361SOL    HW116826   2.765   2.361   4.532
 5361SOL    HW216827   2.823   2.283   4.648
 5362SOL     OW16828   2.424   1.920   4.230
 5362SOL    HW116829   2.368   1.901   4.305
 5362SOL    HW216830   2.405   2.011   4.207
 5363SOL     OW16831   3.289   3.062   3.763
 5363SOL    HW116832   3.320   2.987   3.814
 5363SOL    HW216833   3.204   3.083   3.801
 5364SOL     OW16834   2.805   2.113   4.181
 5364SOL    HW116835   2.782   2.148   4.095
 5364SOL    HW216836   2.900   2.126   4.187
 5365SOL     OW16837   2.944   2.547   5.181
 5365SOL    HW116838   2.880   2.477   5.192
 5365SOL    HW216839   3.028   2.501   5.177
 5366SOL     OW16840   3.081   3.433   4.518
 5366SOL    HW116841   3.097   3.500   4.451
 5366SOL    HW216842   3.152   3.446   4.582
 5367SOL     OW16843   2.334   3.015   4.451
 5367SOL    HW116844   2.266   2.997   4.516
 5367SOL    HW216845   2.291   3.001   4.367
 5368SOL     OW16846   3.126   3.655   4.334
 5368SOL    HW116847   3.174   3.720   4.282
 5368SOL    HW216848   3.052   3.703   4.371
 5369SOL     OW16849   2.887   2.398   3.748
 5369SOL    HW116850   2.842   2.481   3.730
 5369SOL    HW216851   2.950   2.419   3.817
 5370SOL     OW16852   1.939   2.427   5.105
 5370SOL    HW116853   2.033   2.416   5.090
 5370SOL    HW216854   1.933   2.498   5.169
 5371SOL     OW16855   2.725   2.319   4.361
 5371SOL    HW116856   2.690   2.376   4.293
 5371SOL    HW216857   2.752   2.240   4.314
 5372SOL     OW16858   2.876   1.916   4.473
 5372SOL    HW116859   2.820   1.907   4.396
 5372SOL    HW216860   2.854   1.841   4.528
 5373SOL     OW16861   3.302   3.023   4.581
 5373SOL    HW116862   3.231   2.959   4.581
 5373SOL    HW216863   3.328   3.031   4.489
 5374SOL     OW16864   3.327   2.472   4.694
 5374SOL    HW116865   3.273   2.393   4.697
 5374SOL    HW216866   3.385   2.464   4.770
 5375SOL     OW16867   3.724   2.677   4.099
 5375SOL    HW116868   3.767   2.622   4.163
 5375SOL    HW216869   3.687   2.616   4.035
 5376SOL     OW16870   2.352   3.281   3.876
 5376SOL    HW116871   2.276   3.254   3.928
 5376SOL    HW216872   2.342   3.235   3.793
 5377SOL     OW16873   3.530   3.128   4.366
 5377SOL    HW116874   3.625   3.129   4.376
 5377SOL    HW216875   3.502   3.217   4.388
 5378SOL     OW16876   3.256   2.434   3.796
 5378SOL    HW116877   3.194   2.414   3.865
 5378SOL    HW216878   3.340   2.402   3.829
 5379SOL     OW16879   3.612   3.096   5.286
 5379SOL    HW116880   3.699   3.061   5.269
 5379SOL    HW216881   3.627   3.185   5.315
 5380SOL     OW16882   2.917   3.214   5.055
 5380SOL    HW116883   2.842   3.183   5.106
 5380SOL    HW216884   2.993   3.173   5.097
 5381SOL     OW16885   3.469   3.492   5.382
 5381SOL    HW116886   3.459   3.526   5.293
 5381SOL    HW216887   3.549   3.439   5.379
 5382SOL     OW16888   2.995   3.070   4.826
 5382SOL    HW116889   2.936   3.108   4.891
 5382SOL    HW216890   2.965   3.105   4.742
 5383SOL     OW16891   3.489   2.957   4.798
 5383SOL    HW116892   3.479   3.018   4.870
 5383SOL    HW216893   3.413   2.973   4.742
 5384SOL     OW16894   2.790   1.953   5.117
 5384SOL    HW116895   2.812   1.934   5.025
 5384SOL    HW216896   2.869   1.992   5.153
 5385SOL     OW16897   2.847   2.978   5.444
 5385SOL    HW116898   2.755   2.994   5.469
 5385SOL    HW216899   2.844   2.899   5.391
 5386SOL     OW16900   2.571   2.924   4.095
 5386SOL    HW116901   2.557   2.904   4.187
 5386SOL    HW216902   2.647   2.870   4.070
 5387SOL     OW16903   2.283   2.683   4.978
 5387SOL    HW116904   2.353   2.694   5.043
 5387SOL    HW216905   2.248   2.596   4.996
 5388SOL     OW16906   3.129   2.238   5.003
 5388SOL    HW116907   3.161   2.316   5.050
 5388SOL    HW216908   3.039   2.260   4.980
 5389SOL     OW16909   1.936   3.435   5.079
 5389SOL    HW116910   1.908   3.510   5.026
 5389SOL    HW216911   2.031   3.436   5.073
 5390SOL     OW16912   2.203   2.977   4.212
 5390SOL    HW116913   2.207   3.052   4.152
 5390SOL    HW216914   2.200   2.900   4.155
 5391SOL     OW16915   2.432   2.387   4.567
 5391SOL    HW116916   2.442   2.452   4.497
 5391SOL    HW216917   2.496   2.413   4.633
 5392SOL     OW16918   3.109   3.212   4.114
 5392SOL    HW116919   3.165   3.282   4.146
 5392SOL    HW216920   3.022   3.233   4.147
 5393SOL     OW16921   3.149   3.322   4.873
 5393SOL    HW116922   3.205   3.327   4.950
 5393SOL    HW216923   3.094   3.246   4.888
 5394SOL     OW16924   3.438   2.480   4.208
 5394SOL    HW116925   3.390   2.532   4.273
 5394SOL    HW216926   3.480   2.546   4.152
 5395SOL     OW16927   2.207   3.392   5.034
 5395SOL    HW116928   2.196   3.347   4.950
 5395SOL    HW216929   2.302   3.403   5.043
 5396SOL     OW16930   2.286   2.606   5.334
 5396SOL    HW116931   2.343   2.650   5.270
 5396SOL    HW216932   2.339   2.535   5.369
 5397SOL     OW16933   3.469   2.641   5.409
 5397SOL    HW116934   3.383   2.683   5.404
 5397SOL    HW216935   3.521   2.684   5.341
 5398SOL     OW16936   2.858   1.993   5.470
 5398SOL    HW116937   2.918   2.066   5.453
 5398SOL    HW216938   2.908   1.915   5.448
 5399SOL     OW16939   2.359   1.889   5.496
 5399SOL    HW116940   2.310   1.840   5.430
 5399SOL    HW216941   2.295   1.948   5.535
 5400SOL     OW16942   2.448   2.735   4.757
 5400SOL    HW116943   2.483   2.824   4.758
 5400SOL    HW216944   2.391   2.730   4.835
 5401SOL     OW16945   3.213   2.721   4.747
 5401SOL    HW116946   3.128   2.706   4.705
 5401SOL    HW216947   3.258   2.638   4.739
 5402SOL     OW16948   3.062   2.390   3.986
 5402SOL    HW116949   3.070   2.311   4.040
 5402SOL    HW216950   3.020   2.454   4.044
 5403SOL     OW16951   1.907   3.174   4.999
 5403SOL    HW116952   1.940   3.119   5.070
 5403SOL    HW216953   1.914   3.263   5.032
 5404SOL     OW16954   2.581   2.485   4.776
 5404SOL    HW116955   2.662   2.475   4.727
 5404SOL    HW216956   2.555   2.576   4.761
 5405SOL     OW16957   3.592   2.822   5.588
 5405SOL    HW116958   3.553   2.754   5.532
 5405SOL    HW216959   3.527   2.836   5.657
 5406SOL     OW16960   3.483   2.240   4.086
 5406SOL    HW116961   3.509   2.174   4.150
 5406SOL    HW216962   3.459   2.317   4.138
 5407SOL     OW16963   2.889   2.619   4.682
 5407SOL    HW116964   2.882   2.636   4.776
 5407SOL    HW216965   2.865   2.527   4.673
 5408SOL     OW16966   2.847   3.430   5.446
 5408SOL    HW116967   2.828   3.471   5.361
 5408SOL    HW216968   2.889   3.347   5.424
 5409SOL     OW16969   3.703   3.358   5.321
 5409SOL    HW116970   3.728   3.389   5.234
 5409SOL    HW216971   3.784   3.366   5.373
 5410SOL     OW16972   2.215   2.778   5.537
 5410SOL    HW116973   2.298   2.806   5.575
 5410SOL    HW216974   2.240   2.716   5.469
 5411SOL     OW16975   3.390   2.134   3.851
 5411SOL    HW116976   3.325   2.069   3.878
 5411SOL    HW216977   3.423   2.170   3.933
 5412SOL     OW16978   3.150   2.686   3.753
 5412SOL    HW116979   3.193   2.601   3.757
 5412SOL    HW216980   3.182   2.725   3.672
 5413SOL     OW16981   2.930   3.200   4.580
 5413SOL    HW116982   2.935   3.128   4.517
 5413SOL    HW216983   2.988   3.266   4.544
 5414SOL     OW16984   2.172   2.686   4.669
 5414SOL    HW116985   2.264   2.712   4.664
 5414SOL    HW216986   2.175   2.593   4.693
 5415SOL     OW16987   2.214   2.421   4.716
 5415SOL    HW116988   2.175   2.337   4.694
 5415SOL    HW216989   2.295   2.425   4.665
 5416SOL     OW16990   2.998   2.237   5.405
 5416SOL    HW116991   2.949   2.290   5.468
 5416SOL    HW216992   3.085   2.277   5.403
 5417SOL     OW16993   3.027   2.062   5.194
 5417SOL    HW116994   3.014   2.123   5.266
 5417SOL    HW216995   3.070   2.114   5.126
 5418SOL     OW16996   1.868   3.179   3.918
 5418SOL    HW116997   1.781   3.195   3.882
 5418SOL    HW216998   1.864   3.090   3.953
 5419SOL     OW16999   1.960   3.637   4.663
 5419SOL    HW117000   1.928   3.560   4.617
 5419SOL    HW217001   2.044   3.657   4.622
 5420SOL     OW17002   2.354   3.438   4.629
 5420SOL    HW117003   2.421   3.501   4.653
 5420SOL    HW217004   2.399   3.376   4.571
 5421SOL     OW17005   2.837   2.649   4.948
 5421SOL    HW117006   2.899   2.630   5.018
 5421SOL    HW217007   2.753   2.615   4.981
 5422SOL     OW17008   1.895   2.402   4.837
 5422SOL    HW117009   1.971   2.433   4.789
 5422SOL    HW217010   1.918   2.415   4.929
 5423SOL     OW17011   2.020   2.438   5.474
 5423SOL    HW117012   2.091   2.402   5.421
 5423SOL    HW217013   1.981   2.505   5.418
 5424SOL     OW17014   3.243   2.797   5.381
 5424SOL    HW117015   3.264   2.890   5.378
 5424SOL    HW217016   3.238   2.770   5.290
 5425SOL     OW17017   2.678   2.432   4.095
 5425SOL    HW117018   2.686   2.360   4.034
 5425SOL    HW217019   2.608   2.487   4.060
 5426SOL     OW17020   3.501   2.464   4.905
 5426SOL    HW117021   3.490   2.403   4.979
 5426SOL    HW217022   3.588   2.443   4.871
 5427SOL     OW17023   2.102   3.410   5.447
 5427SOL    HW117024   2.080   3.477   5.511
 5427SOL    HW217025   2.108   3.329   5.498
 5428SOL     OW17026   2.541   2.320   4.988
 5428SOL    HW117027   2.522   2.233   4.955
 5428SOL    HW217028   2.548   2.375   4.910
 5429SOL     OW17029   2.787   3.533   5.195
 5429SOL    HW117030   2.761   3.493   5.111
 5429SOL    HW217031   2.779   3.627   5.180
 5430SOL     OW17032   2.337   2.377   3.940
 5430SOL    HW117033   2.396   2.451   3.948
 5430SOL    HW217034   2.256   2.414   3.906
 5431SOL     OW17035   2.004   3.006   5.199
 5431SOL    HW117036   2.006   2.957   5.281
 5431SOL    HW217037   2.022   2.940   5.132
 5432SOL     OW17038   3.182   2.905   4.944
 5432SOL    HW117039   3.205   2.843   4.876
 5432SOL    HW217040   3.116   2.961   4.904
 5433SOL     OW17041   3.175   2.718   4.029
 5433SOL    HW117042   3.101   2.686   4.080
 5433SOL    HW217043   3.150   2.704   3.937
 5434SOL     OW17044   3.641   3.600   4.881
 5434SOL    HW117045   3.699   3.627   4.809
 5434SOL    HW217046   3.613   3.512   4.857
 5435SOL     OW17047   3.106   3.594   4.831
 5435SOL    HW117048   3.189   3.617   4.789
 5435SOL    HW217049   3.114   3.501   4.851
 5436SOL     OW17050   1.948   3.127   4.735
 5436SOL    HW117051   1.931   3.143   4.828
 5436SOL    HW217052   1.874   3.073   4.706
 5437SOL     OW17053   2.541   3.528   5.460
 5437SOL    HW117054   2.484   3.604   5.464
 5437SOL    HW217055   2.603   3.548   5.390
 5438SOL     OW17056   3.570   2.015   4.234
 5438SOL    HW117057   3.638   2.002   4.168
 5438SOL    HW217058   3.560   1.928   4.275
 5439SOL     OW17059   3.252   3.430   4.213
 5439SOL    HW117060   3.311   3.465   4.146
 5439SOL    HW217061   3.204   3.507   4.244
 5440SOL     OW17062   1.999   3.651   5.562
 5440SOL    HW117063   1.947   3.587   5.611
 5440SOL    HW217064   2.047   3.700   5.629
 5441SOL     OW17065   3.139   2.789   4.395
 5441SOL    HW117066   3.213   2.729   4.405
 5441SOL    HW217067   3.173   2.861   4.342
 5442SOL     OW17068   2.669   3.137   5.150
 5442SOL    HW117069   2.642   3.178   5.232
 5442SOL    HW217070   2.599   3.159   5.088
 5443SOL     OW17071   2.536   3.481   3.883
 5443SOL    HW117072   2.546   3.499   3.789
 5443SOL    HW217073   2.477   3.406   3.886
 5444SOL     OW17074   3.480   3.589   5.114
 5444SOL    HW117075   3.536   3.592   5.037
 5444SOL    HW217076   3.467   3.681   5.137
 5445SOL     OW17077   3.701   2.043   4.690
 5445SOL    HW117078   3.732   1.956   4.666
 5445SOL    HW217079   3.614   2.050   4.650
 5446SOL     OW17080   3.070   3.464   3.761
 5446SOL    HW117081   3.059   3.372   3.785
 5446SOL    HW217082   3.008   3.477   3.688
 5447SOL     OW17083   2.686   2.869   5.097
 5447SOL    HW117084   2.731   2.864   5.013
 5447SOL    HW217085   2.683   2.962   5.118
 5448SOL     OW17086   2.779   2.773   4.015
 5448SOL    HW117087   2.839   2.806   3.948
 5448SOL    HW217088   2.828   2.705   4.061
 5449SOL     OW17089   3.348   3.496   3.767
 5449SOL    HW117090   3.255   3.483   3.750
 5449SOL    HW217091   3.388   3.501   3.680
 5450SOL     OW17092   2.230   3.167   5.215
 5450SOL    HW117093   2.217   3.244   5.160
 5450SOL    HW217094   2.152   3.113   5.201
 5451SOL     OW17095   3.461   3.142   5.001
 5451SOL    HW117096   3.529   3.132   5.067
 5451SOL    HW217097   3.404   3.211   5.035
 5452SOL     OW17098   2.921   2.971   4.434
 5452SOL    HW117099   2.849   2.920   4.471
 5452SOL    HW217100   2.985   2.906   4.406
 5453SOL     OW17101   2.883   2.103   4.689
 5453SOL    HW117102   2.880   2.056   4.606
 5453SOL    HW217103   2.881   2.035   4.756
 5454SOL     OW17104   2.467   3.353   4.203
 5454SOL    HW117105   2.515   3.302   4.138
 5454SOL    HW217106   2.397   3.396   4.154
 5455SOL     OW17107   3.588   2.251   5.102
 5455SOL    HW117108   3.660   2.313   5.099
 5455SOL    HW217109   3.616   2.179   5.045
 5456SOL     OW17110   2.123   3.204   4.015
 5456SOL    HW117111   2.030   3.201   3.991
 5456SOL    HW217112   2.124   3.243   4.102
 5457SOL     OW17113   1.976   2.890   5.446
 5457SOL    HW117114   1.899   2.865   5.497
 5457SOL    HW217115   2.049   2.849   5.493
 5458SOL     OW17116   2.550   2.043   5.217
 5458SOL    HW117117   2.638   2.020   5.186
 5458SOL    HW217118   2.565   2.085   5.302
 5459SOL     OW17119   1.880   2.254   3.768
 5459SOL    HW117120   1.821   2.219   3.702
 5459SOL    HW217121   1.930   2.321   3.723
 5460SOL     OW17122   3.287   2.720   5.122
 5460SOL    HW117123   3.237   2.781   5.068
 5460SOL    HW217124   3.375   2.722   5.085
 5461SOL     OW17125   3.039   3.197   3.842
 5461SOL    HW117126   2.948   3.168   3.843
 5461SOL    HW217127   3.066   3.197   3.934
 5462SOL     OW17128   2.484   2.693   5.159
 5462SOL    HW117129   2.540   2.769   5.144
 5462SOL    HW217130   2.545   2.619   5.168
 5463SOL     OW17131   3.348   3.644   4.707
 5463SOL    HW117132   3.371   3.701   4.634
 5463SOL    HW217133   3.431   3.611   4.739
 5464SOL     OW17134   2.572   2.424   5.425
 5464SOL    HW117135   2.618   2.482   5.485
 5464SOL    HW217136   2.590   2.336   5.457
 5465SOL     OW17137   3.335   3.058   5.353
 5465SOL    HW117138   3.325   3.072   5.447
 5465SOL    HW217139   3.428   3.074   5.336
 5466SOL     OW17140   2.235   3.604   5.291
 5466SOL    HW117141   2.151   3.647   5.274
 5466SOL    HW217142   2.211   3.520   5.331
 5467SOL     OW17143   3.525   2.742   4.983
 5467SOL    HW117144   3.524   2.656   4.940
 5467SOL    HW217145   3.518   2.805   4.911
 5468SOL     OW17146   3.079   2.181   4.182
 5468SOL    HW117147   3.141   2.109   4.175
 5468SOL    HW217148   3.109   2.231   4.258
 5469SOL     OW17149   2.448   2.596   4.393
 5469SOL    HW117150   2.487   2.682   4.378
 5469SOL    HW217151   2.382   2.588   4.325
 5470SOL     OW17152   3.618   2.228   5.374
 5470SOL    HW117153   3.602   2.242   5.281
 5470SOL    HW217154   3.548   2.170   5.403
 5471SOL     OW17155   3.620   2.789   5.236
 5471SOL    HW117156   3.609   2.882   5.255
 5471SOL    HW217157   3.594   2.780   5.145
 5472SOL     OW17158   2.726   3.229   3.766
 5472SOL    HW117159   2.686   3.257   3.848
 5472SOL    HW217160   2.741   3.310   3.717
 5473SOL     OW17161   2.523   3.649   4.661
 5473SOL    HW117162   2.503   3.740   4.641
 5473SOL    HW217163   2.618   3.644   4.657
 5474SOL     OW17164   2.731   2.832   4.578
 5474SOL    HW117165   2.781   2.759   4.616
 5474SOL    HW217166   2.694   2.877   4.653
 5475SOL     OW17167   2.939   2.850   3.812
 5475SOL    HW117168   2.919   2.902   3.734
 5475SOL    HW217169   3.013   2.796   3.786
 5476SOL     OW17170   3.710   3.416   4.564
 5476SOL    HW117171   3.630   3.397   4.515
 5476SOL    HW217172   3.714   3.347   4.631
 5477SOL     OW17173   2.088   3.161   5.579
 5477SOL    HW117174   2.022   3.101   5.546
 5477SOL    HW217175   2.064   3.175   5.671
 5478SOL     OW17176   1.949   3.091   4.390
 5478SOL    HW117177   1.960   3.047   4.473
 5478SOL    HW217178   2.016   3.053   4.333
 5479SOL     OW17179   2.545   3.269   5.354
 5479SOL    HW117180   2.466   3.227   5.386
 5479SOL    HW217181   2.544   3.357   5.392
 5480SOL     OW17182   3.675   2.039   4.961
 5480SOL    HW117183   3.664   1.944   4.963
 5480SOL    HW217184   3.690   2.059   4.869
 5481SOL     OW17185   3.556   3.351   4.819
 5481SOL    HW117186   3.478   3.328   4.769
 5481SOL    HW217187   3.566   3.280   4.882
 5482SOL     OW17188   2.200   2.422   5.013
 5482SOL    HW117189   2.243   2.351   5.060
 5482SOL    HW217190   2.228   2.411   4.922
 5483SOL     OW17191   2.692   3.441   4.400
 5483SOL    HW117192   2.671   3.495   4.325
 5483SOL    HW217193   2.618   3.380   4.407
 5484SOL     OW17194   3.292   2.091   4.840
 5484SOL    HW117195   3.309   2.006   4.881
 5484SOL    HW217196   3.242   2.140   4.906
 5485SOL     OW17197   2.873   1.880   4.860
 5485SOL    HW117198   2.817   1.813   4.821
 5485SOL    HW217199   2.960   1.840   4.861
 5486SOL     OW17200   2.635   3.195   4.045
 5486SOL    HW117201   2.607   3.104   4.052
 5486SOL    HW217202   2.718   3.198   4.094
 5487SOL     OW17203   2.482   3.414   5.009
 5487SOL    HW117204   2.482   3.496   5.059
 5487SOL    HW217205   2.570   3.409   4.973
 5488SOL     OW17206   3.219   1.914   3.893
 5488SOL    HW117207   3.250   1.844   3.836
 5488SOL    HW217208   3.130   1.888   3.917
 5489SOL     OW17209   3.157   2.325   4.403
 5489SOL    HW117210   3.105   2.405   4.408
 5489SOL    HW217211   3.153   2.288   4.491
 5490SOL     OW17212   3.443   2.058   4.603
 5490SOL    HW117213   3.388   2.083   4.678
 5490SOL    HW217214   3.444   2.136   4.547
 5491SOL     OW17215   1.904   2.928   4.033
 5491SOL    HW117216   1.998   2.921   4.014
 5491SOL    HW217217   1.877   2.839   4.055
 5492SOL     OW17218   2.750   3.524   4.065
 5492SOL    HW117219   2.678   3.505   4.005
 5492SOL    HW217220   2.719   3.598   4.117
 5493SOL     OW17221   2.086   2.508   5.731
 5493SOL    HW117222   2.001   2.483   5.768
 5493SOL    HW217223   2.076   2.493   5.637
 5494SOL     OW17224   1.844   2.237   6.240
 5494SOL    HW117225   1.775   2.299   6.218
 5494SOL    HW217226   1.881   2.210   6.156
 5495SOL     OW17227   2.427   3.159   6.766
 5495SOL    HW117228   2.341   3.168   6.724
 5495SOL    HW217229   2.445   3.246   6.801
 5496SOL     OW17230   3.428   3.375   6.295
 5496SOL    HW117231   3.385   3.351   6.378
 5496SOL    HW217232   3.356   3.378   6.232
 5497SOL     OW17233   2.984   2.557   6.291
 5497SOL    HW117234   3.034   2.635   6.266
 5497SOL    HW217235   2.946   2.579   6.376
 5498SOL     OW17236   3.628   2.467   5.816
 5498SOL    HW117237   3.609   2.460   5.722
 5498SOL    HW217238   3.595   2.385   5.853
 5499SOL     OW17239   2.611   3.010   6.635
 5499SOL    HW117240   2.545   3.051   6.690
 5499SOL    HW217241   2.651   3.083   6.588
 5500SOL     OW17242   2.758   2.649   7.435
 5500SOL    HW117243   2.691   2.704   7.476
 5500SOL    HW217244   2.759   2.677   7.343
 5501SOL     OW17245   2.558   2.893   6.227
 5501SOL    HW117246   2.618   2.865   6.296
 5501SOL    HW217247   2.484   2.933   6.273
 5502SOL     OW17248   2.583   3.034   7.381
 5502SOL    HW117249   2.627   3.112   7.414
 5502SOL    HW217250   2.496   3.064   7.355
 5503SOL     OW17251   2.194   3.282   6.649
 5503SOL    HW117252   2.118   3.257   6.596
 5503SOL    HW217253   2.246   3.337   6.591
 5504SOL     OW17254   3.320   3.364   6.945
 5504SOL    HW117255   3.375   3.442   6.955
 5504SOL    HW217256   3.253   3.372   7.013
 5505SOL     OW17257   3.471   2.306   6.332
 5505SOL    HW117258   3.404   2.328   6.268
 5505SOL    HW217259   3.484   2.386   6.383
 5506SOL     OW17260   2.084   3.579   6.065
 5506SOL    HW117261   2.113   3.640   6.132
 5506SOL    HW217262   2.156   3.577   6.002
 5507SOL     OW17263   2.997   3.203   7.281
 5507SOL    HW117264   3.039   3.197   7.367
 5507SOL    HW217265   2.946   3.122   7.273
 5508SOL     OW17266   2.092   3.307   6.121
 5508SOL    HW117267   2.074   3.401   6.122
 5508SOL    HW217268   2.032   3.271   6.187
 5509SOL     OW17269   2.106   2.972   6.493
 5509SOL    HW117270   2.121   2.910   6.564
 5509SOL    HW217271   2.039   3.031   6.527
 5510SOL     OW17272   2.467   3.647   7.013
 5510SOL    HW117273   2.386   3.633   7.062
 5510SOL    HW217274   2.494   3.735   7.037
 5511SOL     OW17275   2.441   2.863   5.712
 5511SOL    HW117276   2.495   2.907   5.647
 5511SOL    HW217277   2.479   2.890   5.796
 5512SOL     OW17278   3.456   1.989   7.051
 5512SOL    HW117279   3.476   2.070   7.005
 5512SOL    HW217280   3.439   2.016   7.142
 5513SOL     OW17281   3.700   3.611   5.928
 5513SOL    HW117282   3.772   3.586   5.986
 5513SOL    HW217283   3.718   3.703   5.905
 5514SOL     OW17284   1.894   3.452   5.707
 5514SOL    HW117285   1.878   3.360   5.727
 5514SOL    HW217286   1.872   3.499   5.787
 5515SOL     OW17287   3.550   2.781   6.235
 5515SOL    HW117288   3.633   2.737   6.215
 5515SOL    HW217289   3.530   2.830   6.155
 5516SOL     OW17290   3.503   2.964   6.019
 5516SOL    HW117291   3.588   2.968   5.975
 5516SOL    HW217292   3.510   3.028   6.089
 5517SOL     OW17293   2.477   3.253   6.321
 5517SOL    HW117294   2.432   3.169   6.331
 5517SOL    HW217295   2.461   3.279   6.230
 5518SOL     OW17296   3.148   3.099   7.008
 5518SOL    HW117297   3.180   3.031   6.947
 5518SOL    HW217298   3.208   3.093   7.083
 5519SOL     OW17299   2.059   2.839   6.858
 5519SOL    HW117300   2.146   2.800   6.854
 5519SOL    HW217301   2.003   2.778   6.808
 5520SOL     OW17302   3.388   2.860   5.787
 5520SOL    HW117303   3.319   2.802   5.820
 5520SOL    HW217304   3.431   2.893   5.866
 5521SOL     OW17305   3.084   3.668   7.214
 5521SOL    HW117306   3.057   3.728   7.145
 5521SOL    HW217307   3.084   3.582   7.173
 5522SOL     OW17308   3.327   3.282   6.533
 5522SOL    HW117309   3.261   3.297   6.601
 5522SOL    HW217310   3.316   3.191   6.508
 5523SOL     OW17311   3.507   3.608   6.166
 5523SOL    HW117312   3.499   3.573   6.078
 5523SOL    HW217313   3.492   3.533   6.224
 5524SOL     OW17314   2.427   2.621   5.856
 5524SOL    HW117315   2.478   2.675   5.795
 5524SOL    HW217316   2.345   2.669   5.866
 5525SOL     OW17317   3.139   2.220   6.521
 5525SOL    HW117318   3.054   2.177   6.528
 5525SOL    HW217319   3.196   2.173   6.582
 5526SOL     OW17320   3.435   3.540   5.895
 5526SOL    HW117321   3.528   3.562   5.890
 5526SOL    HW217322   3.410   3.520   5.804
 5527SOL     OW17323   3.262   2.339   7.261
 5527SOL    HW117324   3.261   2.383   7.347
 5527SOL    HW217325   3.316   2.262   7.274
 5528SOL     OW17326   2.813   2.745   7.166
 5528SOL    HW117327   2.864   2.671   7.132
 5528SOL    HW217328   2.778   2.787   7.088
 5529SOL     OW17329   2.857   2.269   6.807
 5529SOL    HW117330   2.779   2.306   6.848
 5529SOL    HW217331   2.825   2.190   6.764
 5530SOL     OW17332   2.923   2.565   6.005
 5530SOL    HW117333   2.922   2.550   6.099
 5530SOL    HW217334   2.842   2.524   5.973
 5531SOL     OW17335   1.980   3.711   7.162
 5531SOL    HW117336   1.986   3.691   7.255
 5531SOL    HW217337   1.886   3.706   7.142
 5532SOL     OW17338   2.755   2.207   5.794
 5532SOL    HW117339   2.798   2.258   5.725
 5532SOL    HW217340   2.740   2.121   5.755
 5533SOL     OW17341   3.574   2.435   7.415
 5533SOL    HW117342   3.534   2.507   7.367
 5533SOL    HW217343   3.596   2.371   7.348
 5534SOL     OW17344   3.238   3.002   6.128
 5534SOL    HW117345   3.318   2.989   6.076
 5534SOL    HW217346   3.187   3.064   6.076
 5535SOL     OW17347   2.864   3.307   6.055
 5535SOL    HW117348   2.829   3.382   6.006
 5535SOL    HW217349   2.842   3.326   6.147
 5536SOL     OW17350   2.213   3.674   6.425
 5536SOL    HW117351   2.265   3.596   6.444
 5536SOL    HW217352   2.271   3.747   6.448
 5537SOL     OW17353   3.668   2.922   6.454
 5537SOL    HW117354   3.616   2.895   6.379
 5537SOL    HW217355   3.606   2.926   6.527
 5538SOL     OW17356   3.088   3.399   7.099
 5538SOL    HW117357   3.076   3.327   7.160
 5538SOL    HW217358   3.021   3.387   7.032
 5539SOL     OW17359   2.186   2.809   5.834
 5539SOL    HW117360   2.258   2.844   5.782
 5539SOL    HW217361   2.148   2.741   5.778
 5540SOL     OW17362   3.342   2.611   6.312
 5540SOL    HW117363   3.340   2.570   6.399
 5540SOL    HW217364   3.420   2.666   6.313
 5541SOL     OW17365   2.328   3.135   7.324
 5541SOL    HW117366   2.302   3.139   7.232
 5541SOL    HW217367   2.245   3.135   7.372
 5542SOL     OW17368   2.977   3.644   5.806
 5542SOL    HW117369   2.911   3.599   5.860
 5542SOL    HW217370   3.007   3.577   5.745
 5543SOL     OW17371   3.485   3.248   5.675
 5543SOL    HW117372   3.442   3.332   5.657
 5543SOL    HW217373   3.420   3.182   5.655
 5544SOL     OW17374   2.328   3.599   5.911
 5544SOL    HW117375   2.367   3.662   5.971
 5544SOL    HW217376   2.400   3.572   5.854
 5545SOL     OW17377   3.268   1.966   6.024
 5545SOL    HW117378   3.259   1.945   5.930
 5545SOL    HW217379   3.362   1.975   6.037
 5546SOL     OW17380   2.122   3.653   6.807
 5546SOL    HW117381   2.170   3.582   6.850
 5546SOL    HW217382   2.106   3.621   6.718
 5547SOL     OW17383   2.801   3.564   6.484
 5547SOL    HW117384   2.879   3.513   6.506
 5547SOL    HW217385   2.757   3.514   6.415
 5548SOL     OW17386   3.393   2.087   7.310
 5548SOL    HW117387   3.404   2.108   7.403
 5548SOL    HW217388   3.320   2.026   7.309
 5549SOL     OW17389   2.533   1.983   5.688
 5549SOL    HW117390   2.562   1.903   5.732
 5549SOL    HW217391   2.467   1.954   5.625
 5550SOL     OW17392   2.737   3.382   6.781
 5550SOL    HW117393   2.721   3.348   6.693
 5550SOL    HW217394   2.808   3.328   6.816
 5551SOL     OW17395   3.197   2.458   7.021
 5551SOL    HW117396   3.230   2.425   7.104
 5551SOL    HW217397   3.238   2.544   7.012
 5552SOL     OW17398   2.680   3.257   6.529
 5552SOL    HW117399   2.765   3.244   6.487
 5552SOL    HW217400   2.618   3.261   6.457
 5553SOL     OW17401   2.414   1.914   6.059
 5553SOL    HW117402   2.339   1.946   6.108
 5553SOL    HW217403   2.462   1.993   6.032
 5554SOL     OW17404   3.290   3.062   5.626
 5554SOL    HW117405   3.320   2.987   5.676
 5554SOL    HW217406   3.204   3.083   5.663
 5555SOL     OW17407   2.930   2.523   7.045
 5555SOL    HW117408   2.895   2.450   7.096
 5555SOL    HW217409   3.023   2.503   7.035
 5556SOL     OW17410   3.081   3.434   6.381
 5556SOL    HW117411   3.096   3.501   6.313
 5556SOL    HW217412   3.152   3.446   6.443
 5557SOL     OW17413   2.325   3.016   6.324
 5557SOL    HW117414   2.254   3.004   6.387
 5557SOL    HW217415   2.283   3.009   6.238
 5558SOL     OW17416   3.126   3.655   6.196
 5558SOL    HW117417   3.174   3.720   6.144
 5558SOL    HW217418   3.052   3.704   6.232
 5559SOL     OW17419   2.890   2.398   5.604
 5559SOL    HW117420   2.838   2.478   5.596
 5559SOL    HW217421   2.945   2.413   5.681
 5560SOL     OW17422   1.924   2.426   6.979
 5560SOL    HW117423   2.011   2.425   6.938
 5560SOL    HW217424   1.921   2.509   7.026
 5561SOL     OW17425   3.302   3.024   6.442
 5561SOL    HW117426   3.229   2.962   6.441
 5561SOL    HW217427   3.329   3.031   6.351
 5562SOL     OW17428   3.327   2.473   6.559
 5562SOL    HW117429   3.275   2.393   6.561
 5562SOL    HW217430   3.386   2.466   6.633
 5563SOL     OW17431   3.725   2.677   5.960
 5563SOL    HW117432   3.768   2.621   6.025
 5563SOL    HW217433   3.686   2.616   5.897
 5564SOL     OW17434   2.351   3.282   5.738
 5564SOL    HW117435   2.276   3.254   5.790
 5564SOL    HW217436   2.343   3.234   5.655
 5565SOL     OW17437   3.530   3.127   6.228
 5565SOL    HW117438   3.625   3.129   6.238
 5565SOL    HW217439   3.502   3.216   6.250
 5566SOL     OW17440   3.257   2.435   5.655
 5566SOL    HW117441   3.191   2.415   5.722
 5566SOL    HW217442   3.339   2.399   5.692
 5567SOL     OW17443   3.612   3.095   7.148
 5567SOL    HW117444   3.699   3.060   7.131
 5567SOL    HW217445   3.628   3.185   7.177
 5568SOL     OW17446   2.918   3.214   6.917
 5568SOL    HW117447   2.843   3.184   6.969
 5568SOL    HW217448   2.994   3.173   6.959
 5569SOL     OW17449   3.469   3.492   7.244
 5569SOL    HW117450   3.459   3.526   7.155
 5569SOL    HW217451   3.549   3.439   7.241
 5570SOL     OW17452   2.995   3.069   6.688
 5570SOL    HW117453   2.937   3.109   6.753
 5570SOL    HW217454   2.964   3.104   6.604
 5571SOL     OW17455   3.489   2.957   6.660
 5571SOL    HW117456   3.479   3.018   6.732
 5571SOL    HW217457   3.413   2.973   6.604
 5572SOL     OW17458   2.781   1.955   7.009
 5572SOL    HW117459   2.806   1.910   6.928
 5572SOL    HW217460   2.861   2.000   7.037
 5573SOL     OW17461   2.846   2.972   7.311
 5573SOL    HW117462   2.755   2.992   7.330
 5573SOL    HW217463   2.843   2.892   7.259
 5574SOL     OW17464   2.567   2.927   5.953
 5574SOL    HW117465   2.557   2.914   6.047
 5574SOL    HW217466   2.643   2.875   5.929
 5575SOL     OW17467   2.284   2.684   6.832
 5575SOL    HW117468   2.360   2.697   6.889
 5575SOL    HW217469   2.239   2.608   6.870
 5576SOL     OW17470   3.124   2.240   6.868
 5576SOL    HW117471   3.155   2.318   6.915
 5576SOL    HW217472   3.034   2.261   6.843
 5577SOL     OW17473   1.936   3.439   6.942
 5577SOL    HW117474   1.908   3.514   6.890
 5577SOL    HW217475   2.032   3.440   6.937
 5578SOL     OW17476   2.195   2.988   6.083
 5578SOL    HW117477   2.205   3.045   6.007
 5578SOL    HW217478   2.204   2.900   6.049
 5579SOL     OW17479   3.109   3.211   5.976
 5579SOL    HW117480   3.165   3.282   6.008
 5579SOL    HW217481   3.022   3.233   6.009
 5580SOL     OW17482   3.149   3.322   6.734
 5580SOL    HW117483   3.205   3.327   6.812
 5580SOL    HW217484   3.094   3.245   6.749
 5581SOL     OW17485   3.441   2.479   6.073
 5581SOL    HW117486   3.390   2.533   6.134
 5581SOL    HW217487   3.480   2.541   6.012
 5582SOL     OW17488   2.208   3.391   6.895
 5582SOL    HW117489   2.196   3.346   6.812
 5582SOL    HW217490   2.302   3.403   6.903
 5583SOL     OW17491   2.282   2.574   7.104
 5583SOL    HW117492   2.352   2.637   7.083
 5583SOL    HW217493   2.265   2.588   7.197
 5584SOL     OW17494   3.469   2.641   7.271
 5584SOL    HW117495   3.383   2.683   7.267
 5584SOL    HW217496   3.521   2.685   7.204
 5585SOL     OW17497   2.328   1.912   7.313
 5585SOL    HW117498   2.281   1.829   7.322
 5585SOL    HW217499   2.286   1.971   7.376
 5586SOL     OW17500   2.486   2.755   6.637
 5586SOL    HW117501   2.502   2.849   6.638
 5586SOL    HW217502   2.405   2.743   6.687
 5587SOL     OW17503   3.215   2.723   6.610
 5587SOL    HW117504   3.133   2.711   6.561
 5587SOL    HW217505   3.260   2.638   6.603
 5588SOL     OW17506   3.063   2.391   5.841
 5588SOL    HW117507   3.074   2.314   5.897
 5588SOL    HW217508   3.022   2.456   5.899
 5589SOL     OW17509   1.908   3.180   6.860
 5589SOL    HW117510   1.944   3.125   6.930
 5589SOL    HW217511   1.915   3.269   6.895
 5590SOL     OW17512   3.593   2.821   7.450
 5590SOL    HW117513   3.553   2.754   7.394
 5590SOL    HW217514   3.528   2.836   7.519
 5591SOL     OW17515   3.485   2.240   5.948
 5591SOL    HW117516   3.511   2.174   6.012
 5591SOL    HW217517   3.460   2.316   6.001
 5592SOL     OW17518   2.885   2.610   6.546
 5592SOL    HW117519   2.890   2.647   6.634
 5592SOL    HW217520   2.861   2.518   6.559
 5593SOL     OW17521   2.849   3.432   7.308
 5593SOL    HW117522   2.829   3.472   7.223
 5593SOL    HW217523   2.888   3.348   7.286
 5594SOL     OW17524   3.703   3.358   7.183
 5594SOL    HW117525   3.728   3.389   7.096
 5594SOL    HW217526   3.783   3.366   7.235
 5595SOL     OW17527   3.393   2.136   5.712
 5595SOL    HW117528   3.327   2.071   5.738
 5595SOL    HW217529   3.425   2.172   5.795
 5596SOL     OW17530   3.152   2.688   5.616
 5596SOL    HW117531   3.192   2.602   5.620
 5596SOL    HW217532   3.184   2.726   5.534
 5597SOL     OW17533   2.930   3.201   6.443
 5597SOL    HW117534   2.934   3.128   6.381
 5597SOL    HW217535   2.989   3.267   6.407
 5598SOL     OW17536   2.995   2.266   7.242
 5598SOL    HW117537   2.950   2.309   7.314
 5598SOL    HW217538   3.086   2.293   7.251
 5599SOL     OW17539   3.024   2.062   7.063
 5599SOL    HW117540   3.009   2.126   7.133
 5599SOL    HW217541   3.067   2.113   6.994
 5600SOL     OW17542   1.868   3.182   5.779
 5600SOL    HW117543   1.781   3.197   5.744
 5600SOL    HW217544   1.864   3.094   5.816
 5601SOL     OW17545   1.960   3.636   6.525
 5601SOL    HW117546   1.929   3.558   6.479
 5601SOL    HW217547   2.044   3.656   6.484
 5602SOL     OW17548   2.356   3.437   6.493
 5602SOL    HW117549   2.423   3.502   6.516
 5602SOL    HW217550   2.400   3.376   6.434
 5603SOL     OW17551   2.856   2.654   6.810
 5603SOL    HW117552   2.897   2.615   6.887
 5603SOL    HW217553   2.763   2.639   6.823
 5604SOL     OW17554   3.243   2.796   7.244
 5604SOL    HW117555   3.263   2.890   7.242
 5604SOL    HW217556   3.240   2.770   7.152
 5605SOL     OW17557   2.706   2.481   5.855
 5605SOL    HW117558   2.704   2.385   5.856
 5605SOL    HW217559   2.615   2.507   5.869
 5606SOL     OW17560   3.502   2.463   6.768
 5606SOL    HW117561   3.491   2.403   6.842
 5606SOL    HW217562   3.589   2.443   6.733
 5607SOL     OW17563   2.102   3.410   7.309
 5607SOL    HW117564   2.081   3.478   7.373
 5607SOL    HW217565   2.106   3.329   7.361
 5608SOL     OW17566   2.596   2.339   6.870
 5608SOL    HW117567   2.539   2.267   6.897
 5608SOL    HW217568   2.558   2.371   6.789
 5609SOL     OW17569   2.787   3.533   7.056
 5609SOL    HW117570   2.761   3.493   6.973
 5609SOL    HW217571   2.779   3.627   7.041
 5610SOL     OW17572   2.339   2.377   5.782
 5610SOL    HW117573   2.388   2.454   5.810
 5610SOL    HW217574   2.251   2.410   5.765
 5611SOL     OW17575   2.006   3.013   7.055
 5611SOL    HW117576   2.011   2.964   7.136
 5611SOL    HW217577   2.021   2.948   6.986
 5612SOL     OW17578   3.183   2.906   6.807
 5612SOL    HW117579   3.205   2.843   6.739
 5612SOL    HW217580   3.116   2.962   6.767
 5613SOL     OW17581   3.173   2.717   5.892
 5613SOL    HW117582   3.099   2.684   5.942
 5613SOL    HW217583   3.149   2.703   5.801
 5614SOL     OW17584   3.641   3.600   6.743
 5614SOL    HW117585   3.699   3.627   6.672
 5614SOL    HW217586   3.613   3.512   6.719
 5615SOL     OW17587   3.106   3.595   6.693
 5615SOL    HW117588   3.189   3.617   6.651
 5615SOL    HW217589   3.114   3.501   6.713
 5616SOL     OW17590   1.908   3.115   6.600
 5616SOL    HW117591   1.915   3.142   6.692
 5616SOL    HW217592   1.823   3.070   6.595
 5617SOL     OW17593   2.542   3.531   7.324
 5617SOL    HW117594   2.484   3.607   7.327
 5617SOL    HW217595   2.604   3.551   7.254
 5618SOL     OW17596   3.570   2.015   6.097
 5618SOL    HW117597   3.638   2.002   6.031
 5618SOL    HW217598   3.560   1.928   6.137
 5619SOL     OW17599   3.253   3.430   6.076
 5619SOL    HW117600   3.311   3.464   6.008
 5619SOL    HW217601   3.204   3.507   6.106
 5620SOL     OW17602   2.001   3.653   7.422
 5620SOL    HW117603   1.948   3.590   7.471
 5620SOL    HW217604   2.048   3.702   7.490
 5621SOL     OW17605   3.136   2.784   6.255
 5621SOL    HW117606   3.211   2.725   6.266
 5621SOL    HW217607   3.170   2.856   6.202
 5622SOL     OW17608   2.670   3.140   7.013
 5622SOL    HW117609   2.642   3.181   7.095
 5622SOL    HW217610   2.601   3.162   6.950
 5623SOL     OW17611   2.536   3.481   5.745
 5623SOL    HW117612   2.546   3.500   5.651
 5623SOL    HW217613   2.477   3.406   5.748
 5624SOL     OW17614   3.479   3.589   6.976
 5624SOL    HW117615   3.536   3.591   6.899
 5624SOL    HW217616   3.467   3.681   6.999
 5625SOL     OW17617   3.700   2.043   6.552
 5625SOL    HW117618   3.732   1.956   6.528
 5625SOL    HW217619   3.614   2.049   6.511
 5626SOL     OW17620   3.070   3.464   5.623
 5626SOL    HW117621   3.059   3.372   5.647
 5626SOL    HW217622   3.008   3.477   5.550
 5627SOL     OW17623   2.700   2.876   6.951
 5627SOL    HW117624   2.737   2.881   6.863
 5627SOL    HW217625   2.692   2.967   6.979
 5628SOL     OW17626   2.778   2.784   5.875
 5628SOL    HW117627   2.839   2.814   5.808
 5628SOL    HW217628   2.819   2.705   5.911
 5629SOL     OW17629   3.348   3.497   5.629
 5629SOL    HW117630   3.255   3.482   5.612
 5629SOL    HW217631   3.388   3.501   5.542
 5630SOL     OW17632   2.231   3.168   7.076
 5630SOL    HW117633   2.221   3.246   7.022
 5630SOL    HW217634   2.153   3.116   7.059
 5631SOL     OW17635   3.461   3.142   6.862
 5631SOL    HW117636   3.529   3.132   6.928
 5631SOL    HW217637   3.404   3.210   6.897
 5632SOL     OW17638   2.921   2.972   6.299
 5632SOL    HW117639   2.848   2.922   6.335
 5632SOL    HW217640   2.982   2.906   6.266
 5633SOL     OW17641   2.467   3.352   6.066
 5633SOL    HW117642   2.515   3.301   6.001
 5633SOL    HW217643   2.397   3.395   6.016
 5634SOL     OW17644   3.587   2.251   6.964
 5634SOL    HW117645   3.660   2.313   6.961
 5634SOL    HW217646   3.615   2.179   6.907
 5635SOL     OW17647   2.124   3.202   5.878
 5635SOL    HW117648   2.031   3.201   5.854
 5635SOL    HW217649   2.126   3.241   5.965
 5636SOL     OW17650   1.974   2.914   7.314
 5636SOL    HW117651   1.886   2.884   7.292
 5636SOL    HW217652   2.028   2.835   7.309
 5637SOL     OW17653   2.532   2.071   7.030
 5637SOL    HW117654   2.623   2.046   7.019
 5637SOL    HW217655   2.509   2.044   7.119
 5638SOL     OW17656   1.878   2.250   5.619
 5638SOL    HW117657   1.824   2.220   5.547
 5638SOL    HW217658   1.932   2.319   5.581
 5639SOL     OW17659   3.288   2.722   6.984
 5639SOL    HW117660   3.238   2.783   6.930
 5639SOL    HW217661   3.376   2.723   6.947
 5640SOL     OW17662   3.040   3.197   5.704
 5640SOL    HW117663   2.949   3.166   5.705
 5640SOL    HW217664   3.066   3.197   5.796
 5641SOL     OW17665   2.504   2.692   7.005
 5641SOL    HW117666   2.556   2.773   7.001
 5641SOL    HW217667   2.565   2.624   6.977
 5642SOL     OW17668   3.348   3.645   6.569
 5642SOL    HW117669   3.371   3.701   6.496
 5642SOL    HW217670   3.431   3.611   6.601
 5643SOL     OW17671   3.335   3.058   7.215
 5643SOL    HW117672   3.325   3.072   7.310
 5643SOL    HW217673   3.428   3.074   7.199
 5644SOL     OW17674   2.235   3.604   7.153
 5644SOL    HW117675   2.151   3.646   7.135
 5644SOL    HW217676   2.211   3.520   7.193
 5645SOL     OW17677   3.526   2.742   6.845
 5645SOL    HW117678   3.525   2.657   6.801
 5645SOL    HW217679   3.519   2.805   6.773
 5646SOL     OW17680   3.104   2.197   6.033
 5646SOL    HW117681   3.154   2.115   6.033
 5646SOL    HW217682   3.128   2.239   6.116
 5647SOL     OW17683   3.619   2.228   7.236
 5647SOL    HW117684   3.602   2.242   7.143
 5647SOL    HW217685   3.548   2.170   7.264
 5648SOL     OW17686   3.620   2.789   7.099
 5648SOL    HW117687   3.609   2.882   7.117
 5648SOL    HW217688   3.594   2.780   7.007
 5649SOL     OW17689   2.726   3.231   5.627
 5649SOL    HW117690   2.686   3.258   5.710
 5649SOL    HW217691   2.741   3.312   5.580
 5650SOL     OW17692   2.523   3.649   6.523
 5650SOL    HW117693   2.503   3.741   6.503
 5650SOL    HW217694   2.618   3.644   6.518
 5651SOL     OW17695   2.729   2.830   6.440
 5651SOL    HW117696   2.771   2.752   6.478
 5651SOL    HW217697   2.685   2.871   6.514
 5652SOL     OW17698   2.939   2.851   5.671
 5652SOL    HW117699   2.921   2.901   5.592
 5652SOL    HW217700   3.014   2.796   5.647
 5653SOL     OW17701   3.710   3.416   6.426
 5653SOL    HW117702   3.630   3.397   6.376
 5653SOL    HW217703   3.714   3.347   6.492
 5654SOL     OW17704   2.082   3.156   7.437
 5654SOL    HW117705   2.032   3.085   7.398
 5654SOL    HW217706   2.036   3.175   7.519
 5655SOL     OW17707   1.952   3.090   6.248
 5655SOL    HW117708   1.981   3.047   6.329
 5655SOL    HW217709   2.011   3.057   6.180
 5656SOL     OW17710   2.539   3.278   7.208
 5656SOL    HW117711   2.461   3.235   7.243
 5656SOL    HW217712   2.541   3.363   7.251
 5657SOL     OW17713   3.672   2.039   6.823
 5657SOL    HW117714   3.665   1.943   6.825
 5657SOL    HW217715   3.689   2.059   6.731
 5658SOL     OW17716   3.556   3.351   6.681
 5658SOL    HW117717   3.478   3.328   6.631
 5658SOL    HW217718   3.566   3.280   6.744
 5659SOL     OW17719   2.176   2.414   6.880
 5659SOL    HW117720   2.190   2.352   6.951
 5659SOL    HW217721   2.235   2.385   6.811
 5660SOL     OW17722   2.691   3.441   6.262
 5660SOL    HW117723   2.672   3.496   6.186
 5660SOL    HW217724   2.617   3.381   6.266
 5661SOL     OW17725   3.291   2.093   6.704
 5661SOL    HW117726   3.312   2.009   6.744
 5661SOL    HW217727   3.243   2.140   6.772
 5662SOL     OW17728   2.873   1.819   6.795
 5662SOL    HW117729   2.837   1.859   6.716
 5662SOL    HW217730   2.960   1.789   6.768
 5663SOL     OW17731   2.635   3.195   5.908
 5663SOL    HW117732   2.605   3.104   5.913
 5663SOL    HW217733   2.718   3.196   5.955
 5664SOL     OW17734   2.481   3.415   6.870
 5664SOL    HW117735   2.481   3.496   6.921
 5664SOL    HW217736   2.570   3.409   6.834
 5665SOL     OW17737   3.225   1.918   5.753
 5665SOL    HW117738   3.255   1.848   5.695
 5665SOL    HW217739   3.136   1.891   5.777
 5666SOL     OW17740   3.159   2.326   6.269
 5666SOL    HW117741   3.107   2.407   6.274
 5666SOL    HW217742   3.156   2.291   6.358
 5667SOL     OW17743   3.442   2.058   6.465
 5667SOL    HW117744   3.389   2.085   6.541
 5667SOL    HW217745   3.445   2.136   6.409
 5668SOL     OW17746   1.905   2.936   5.893
 5668SOL    HW117747   2.000   2.927   5.885
 5668SOL    HW217748   1.873   2.846   5.896
 5669SOL     OW17749   2.749   3.524   5.928
 5669SOL    HW117750   2.678   3.504   5.867
 5669SOL    HW217751   2.718   3.598   5.979
 5670SOL     OW17752   1.855   2.270   8.078
 5670SOL    HW117753   1.767   2.275   8.115
 5670SOL    HW217754   1.843   2.228   7.993
 5671SOL     OW17755   2.429   3.156   8.628
 5671SOL    HW117756   2.342   3.164   8.587
 5671SOL    HW217757   2.447   3.244   8.662
 5672SOL     OW17758   3.428   3.375   8.157
 5672SOL    HW117759   3.385   3.351   8.240
 5672SOL    HW217760   3.356   3.378   8.094
 5673SOL     OW17761   2.991   2.564   8.147
 5673SOL    HW117762   3.042   2.644   8.134
 5673SOL    HW217763   2.947   2.577   8.230
 5674SOL     OW17764   3.629   2.467   7.677
 5674SOL    HW117765   3.609   2.460   7.584
 5674SOL    HW217766   3.596   2.386   7.715
 5675SOL     OW17767   2.607   2.999   8.492
 5675SOL    HW117768   2.541   3.037   8.550
 5675SOL    HW217769   2.648   3.074   8.449
 5676SOL     OW17770   2.734   2.627   9.271
 5676SOL    HW117771   2.724   2.697   9.336
 5676SOL    HW217772   2.757   2.672   9.190
 5677SOL     OW17773   2.542   2.853   8.097
 5677SOL    HW117774   2.611   2.849   8.164
 5677SOL    HW217775   2.477   2.913   8.135
 5678SOL     OW17776   2.576   3.013   9.264
 5678SOL    HW117777   2.623   3.090   9.294
 5678SOL    HW217778   2.495   3.048   9.226
 5679SOL     OW17779   2.194   3.280   8.514
 5679SOL    HW117780   2.119   3.244   8.467
 5679SOL    HW217781   2.239   3.334   8.449
 5680SOL     OW17782   3.320   3.364   8.807
 5680SOL    HW117783   3.375   3.442   8.817
 5680SOL    HW217784   3.253   3.373   8.875
 5681SOL     OW17785   3.470   2.305   8.193
 5681SOL    HW117786   3.400   2.327   8.132
 5681SOL    HW217787   3.482   2.384   8.246
 5682SOL     OW17788   2.085   3.576   7.927
 5682SOL    HW117789   2.112   3.638   7.995
 5682SOL    HW217790   2.157   3.576   7.865
 5683SOL     OW17791   2.999   3.204   9.142
 5683SOL    HW117792   3.041   3.197   9.228
 5683SOL    HW217793   2.947   3.124   9.134
 5684SOL     OW17794   2.091   3.304   7.986
 5684SOL    HW117795   2.076   3.399   7.986
 5684SOL    HW217796   2.032   3.270   8.052
 5685SOL     OW17797   2.124   2.958   8.338
 5685SOL    HW117798   2.119   2.871   8.376
 5685SOL    HW217799   2.066   3.012   8.392
 5686SOL     OW17800   2.467   3.647   8.875
 5686SOL    HW117801   2.386   3.633   8.924
 5686SOL    HW217802   2.494   3.735   8.900
 5687SOL     OW17803   2.562   2.813   7.532
 5687SOL    HW117804   2.568   2.896   7.485
 5687SOL    HW217805   2.538   2.837   7.621
 5688SOL     OW17806   3.455   1.989   8.912
 5688SOL    HW117807   3.477   2.070   8.866
 5688SOL    HW217808   3.439   2.017   9.003
 5689SOL     OW17809   1.982   2.505   8.017
 5689SOL    HW117810   1.941   2.420   8.037
 5689SOL    HW217811   1.961   2.560   8.092
 5690SOL     OW17812   3.700   3.611   7.791
 5690SOL    HW117813   3.772   3.587   7.848
 5690SOL    HW217814   3.718   3.703   7.767
 5691SOL     OW17815   1.893   3.456   7.567
 5691SOL    HW117816   1.880   3.364   7.589
 5691SOL    HW217817   1.872   3.503   7.648
 5692SOL     OW17818   3.551   2.782   8.097
 5692SOL    HW117819   3.633   2.737   8.077
 5692SOL    HW217820   3.530   2.830   8.017
 5693SOL     OW17821   3.503   2.964   7.881
 5693SOL    HW117822   3.588   2.968   7.837
 5693SOL    HW217823   3.510   3.028   7.952
 5694SOL     OW17824   1.988   2.595   9.038
 5694SOL    HW117825   2.080   2.616   9.051
 5694SOL    HW217826   1.942   2.678   9.050
 5695SOL     OW17827   2.478   3.254   8.183
 5695SOL    HW117828   2.433   3.170   8.192
 5695SOL    HW217829   2.461   3.281   8.092
 5696SOL     OW17830   3.148   3.098   8.870
 5696SOL    HW117831   3.180   3.031   8.809
 5696SOL    HW217832   3.208   3.093   8.944
 5697SOL     OW17833   2.051   2.828   8.725
 5697SOL    HW117834   2.135   2.785   8.707
 5697SOL    HW217835   1.987   2.777   8.676
 5698SOL     OW17836   3.391   2.860   7.649
 5698SOL    HW117837   3.322   2.801   7.681
 5698SOL    HW217838   3.432   2.894   7.728
 5699SOL     OW17839   3.084   3.667   9.077
 5699SOL    HW117840   3.057   3.728   9.008
 5699SOL    HW217841   3.084   3.582   9.034
 5700SOL     OW17842   3.327   3.282   8.395
 5700SOL    HW117843   3.261   3.297   8.463
 5700SOL    HW217844   3.316   3.191   8.370
 5701SOL     OW17845   3.507   3.608   8.028
 5701SOL    HW117846   3.499   3.573   7.940
 5701SOL    HW217847   3.492   3.533   8.086
 5702SOL     OW17848   3.139   2.224   8.384
 5702SOL    HW117849   3.051   2.189   8.395
 5702SOL    HW217850   3.193   2.170   8.442
 5703SOL     OW17851   3.435   3.540   7.757
 5703SOL    HW117852   3.528   3.562   7.752
 5703SOL    HW217853   3.410   3.520   7.666
 5704SOL     OW17854   2.654   2.477   8.894
 5704SOL    HW117855   2.631   2.455   8.985
 5704SOL    HW217856   2.605   2.414   8.841
 5705SOL     OW17857   3.255   2.336   9.126
 5705SOL    HW117858   3.259   2.380   9.211
 5705SOL    HW217859   3.313   2.260   9.137
 5706SOL     OW17860   2.812   2.747   9.033
 5706SOL    HW117861   2.868   2.680   8.995
 5706SOL    HW217862   2.765   2.784   8.958
 5707SOL     OW17863   2.861   2.277   8.684
 5707SOL    HW117864   2.778   2.296   8.726
 5707SOL    HW217865   2.838   2.229   8.604
 5708SOL     OW17866   2.923   2.562   7.878
 5708SOL    HW117867   2.947   2.562   7.970
 5708SOL    HW217868   2.847   2.504   7.873
 5709SOL     OW17869   1.947   2.687   8.222
 5709SOL    HW117870   2.031   2.684   8.269
 5709SOL    HW217871   1.901   2.762   8.261
 5710SOL     OW17872   1.980   3.713   9.025
 5710SOL    HW117873   1.985   3.692   9.119
 5710SOL    HW217874   1.887   3.703   9.004
 5711SOL     OW17875   3.569   2.434   9.278
 5711SOL    HW117876   3.532   2.507   9.228
 5711SOL    HW217877   3.595   2.371   9.211
 5712SOL     OW17878   3.239   3.003   7.988
 5712SOL    HW117879   3.319   2.990   7.936
 5712SOL    HW217880   3.187   3.065   7.937
 5713SOL     OW17881   2.446   2.064   8.356
 5713SOL    HW117882   2.351   2.074   8.366
 5713SOL    HW217883   2.475   2.147   8.319
 5714SOL     OW17884   2.865   3.308   7.918
 5714SOL    HW117885   2.830   3.382   7.868
 5714SOL    HW217886   2.842   3.327   8.009
 5715SOL     OW17887   2.213   3.675   8.286
 5715SOL    HW117888   2.263   3.596   8.304
 5715SOL    HW217889   2.271   3.747   8.310
 5716SOL     OW17890   3.669   2.922   8.317
 5716SOL    HW117891   3.616   2.895   8.241
 5716SOL    HW217892   3.606   2.926   8.389
 5717SOL     OW17893   3.089   3.400   8.960
 5717SOL    HW117894   3.077   3.327   9.021
 5717SOL    HW217895   3.020   3.388   8.894
 5718SOL     OW17896   3.342   2.612   8.174
 5718SOL    HW117897   3.339   2.570   8.259
 5718SOL    HW217898   3.421   2.666   8.175
 5719SOL     OW17899   2.331   3.128   9.185
 5719SOL    HW117900   2.304   3.133   9.093
 5719SOL    HW217901   2.248   3.126   9.233
 5720SOL     OW17902   2.976   3.644   7.668
 5720SOL    HW117903   2.911   3.599   7.722
 5720SOL    HW217904   3.007   3.577   7.607
 5721SOL     OW17905   3.485   3.248   7.538
 5721SOL    HW117906   3.442   3.332   7.519
 5721SOL    HW217907   3.419   3.182   7.517
 5722SOL     OW17908   2.328   3.598   7.773
 5722SOL    HW117909   2.367   3.662   7.833
 5722SOL    HW217910   2.400   3.572   7.716
 5723SOL     OW17911   3.266   1.964   7.887
 5723SOL    HW117912   3.263   1.947   7.793
 5723SOL    HW217913   3.359   1.976   7.907
 5724SOL     OW17914   2.123   3.652   8.669
 5724SOL    HW117915   2.169   3.581   8.712
 5724SOL    HW217916   2.106   3.620   8.580
 5725SOL     OW17917   2.801   3.564   8.346
 5725SOL    HW117918   2.879   3.513   8.368
 5725SOL    HW217919   2.758   3.514   8.277
 5726SOL     OW17920   2.237   2.560   7.954
 5726SOL    HW117921   2.262   2.490   7.895
 5726SOL    HW217922   2.146   2.540   7.978
 5727SOL     OW17923   3.393   2.086   9.173
 5727SOL    HW117924   3.403   2.107   9.266
 5727SOL    HW217925   3.325   2.019   9.170
 5728SOL     OW17926   2.627   2.146   9.201
 5728SOL    HW117927   2.706   2.092   9.196
 5728SOL    HW217928   2.578   2.111   9.275
 5729SOL     OW17929   2.737   3.382   8.643
 5729SOL    HW117930   2.721   3.346   8.556
 5729SOL    HW217931   2.808   3.328   8.678
 5730SOL     OW17932   3.201   2.452   8.882
 5730SOL    HW117933   3.233   2.421   8.967
 5730SOL    HW217934   3.239   2.540   8.873
 5731SOL     OW17935   2.680   3.251   8.393
 5731SOL    HW117936   2.765   3.241   8.350
 5731SOL    HW217937   2.617   3.258   8.321
 5732SOL     OW17938   2.790   2.366   8.355
 5732SOL    HW117939   2.771   2.356   8.262
 5732SOL    HW217940   2.825   2.281   8.382
 5733SOL     OW17941   2.435   1.913   7.980
 5733SOL    HW117942   2.384   1.883   8.055
 5733SOL    HW217943   2.397   1.998   7.958
 5734SOL     OW17944   3.290   3.061   7.488
 5734SOL    HW117945   3.321   2.986   7.538
 5734SOL    HW217946   3.202   3.079   7.523
 5735SOL     OW17947   2.944   2.547   8.906
 5735SOL    HW117948   2.880   2.476   8.914
 5735SOL    HW217949   3.029   2.502   8.901
 5736SOL     OW17950   3.080   3.435   8.243
 5736SOL    HW117951   3.096   3.500   8.175
 5736SOL    HW217952   3.152   3.446   8.305
 5737SOL     OW17953   2.333   3.017   8.176
 5737SOL    HW117954   2.265   2.999   8.242
 5737SOL    HW217955   2.288   3.004   8.093
 5738SOL     OW17956   3.126   3.655   8.058
 5738SOL    HW117957   3.173   3.720   8.006
 5738SOL    HW217958   3.052   3.704   8.095
 5739SOL     OW17959   2.916   2.425   7.450
 5739SOL    HW117960   2.860   2.503   7.444
 5739SOL    HW217961   2.963   2.435   7.532
 5740SOL     OW17962   1.940   2.425   8.831
 5740SOL    HW117963   2.034   2.419   8.813
 5740SOL    HW217964   1.934   2.483   8.907
 5741SOL     OW17965   2.734   2.315   8.093
 5741SOL    HW117966   2.666   2.373   8.058
 5741SOL    HW217967   2.761   2.263   8.017
 5742SOL     OW17968   2.885   1.921   8.206
 5742SOL    HW117969   2.827   1.920   8.131
 5742SOL    HW217970   2.860   1.844   8.258
 5743SOL     OW17971   3.303   3.023   8.305
 5743SOL    HW117972   3.231   2.960   8.303
 5743SOL    HW217973   3.330   3.032   8.214
 5744SOL     OW17974   3.326   2.472   8.419
 5744SOL    HW117975   3.274   2.393   8.421
 5744SOL    HW217976   3.385   2.464   8.494
 5745SOL     OW17977   3.724   2.677   7.823
 5745SOL    HW117978   3.767   2.621   7.887
 5745SOL    HW217979   3.686   2.616   7.759
 5746SOL     OW17980   2.349   3.284   7.600
 5746SOL    HW117981   2.275   3.252   7.652
 5746SOL    HW217982   2.344   3.234   7.518
 5747SOL     OW17983   3.530   3.127   8.091
 5747SOL    HW117984   3.625   3.129   8.101
 5747SOL    HW217985   3.502   3.216   8.112
 5748SOL     OW17986   3.258   2.434   7.517
 5748SOL    HW117987   3.192   2.414   7.584
 5748SOL    HW217988   3.339   2.399   7.553
 5749SOL     OW17989   3.612   3.095   9.011
 5749SOL    HW117990   3.700   3.060   8.993
 5749SOL    HW217991   3.628   3.185   9.039
 5750SOL     OW17992   2.917   3.213   8.779
 5750SOL    HW117993   2.842   3.183   8.830
 5750SOL    HW217994   2.993   3.173   8.821
 5751SOL     OW17995   3.469   3.492   9.106
 5751SOL    HW117996   3.459   3.526   9.017
 5751SOL    HW217997   3.549   3.439   9.102
 5752SOL     OW17998   2.994   3.069   8.550
 5752SOL    HW117999   2.936   3.109   8.615
 5752SOL    HW218000   2.965   3.105   8.466
 5753SOL     OW18001   3.488   2.956   8.522
 5753SOL    HW118002   3.479   3.018   8.594
 5753SOL    HW218003   3.413   2.973   8.465
 5754SOL     OW18004   2.791   1.952   8.841
 5754SOL    HW118005   2.813   1.934   8.750
 5754SOL    HW218006   2.870   1.992   8.877
 5755SOL     OW18007   2.846   2.977   9.170
 5755SOL    HW118008   2.755   2.994   9.194
 5755SOL    HW218009   2.843   2.898   9.116
 5756SOL     OW18010   2.575   2.929   7.824
 5756SOL    HW118011   2.559   2.903   7.915
 5756SOL    HW218012   2.650   2.877   7.797
 5757SOL     OW18013   2.280   2.673   8.699
 5757SOL    HW118014   2.348   2.689   8.764
 5757SOL    HW218015   2.242   2.589   8.723
 5758SOL     OW18016   3.130   2.238   8.728
 5758SOL    HW118017   3.162   2.316   8.774
 5758SOL    HW218018   3.039   2.259   8.705
 5759SOL     OW18019   1.935   3.435   8.803
 5759SOL    HW118020   1.908   3.510   8.750
 5759SOL    HW218021   2.031   3.436   8.797
 5760SOL     OW18022   2.214   2.973   7.929
 5760SOL    HW118023   2.212   3.045   7.866
 5760SOL    HW218024   2.274   2.909   7.890
 5761SOL     OW18025   2.414   2.385   8.300
 5761SOL    HW118026   2.425   2.451   8.231
 5761SOL    HW218027   2.466   2.419   8.373
 5762SOL     OW18028   3.110   3.211   7.839
 5762SOL    HW118029   3.166   3.282   7.871
 5762SOL    HW218030   3.023   3.233   7.871
 5763SOL     OW18031   3.149   3.322   8.597
 5763SOL    HW118032   3.206   3.328   8.674
 5763SOL    HW218033   3.094   3.246   8.613
 5764SOL     OW18034   3.440   2.480   7.934
 5764SOL    HW118035   3.390   2.534   7.996
 5764SOL    HW218036   3.479   2.543   7.874
 5765SOL     OW18037   2.207   3.392   8.758
 5765SOL    HW118038   2.196   3.347   8.674
 5765SOL    HW218039   2.302   3.403   8.767
 5766SOL     OW18040   2.286   2.605   9.059
 5766SOL    HW118041   2.344   2.648   8.996
 5766SOL    HW218042   2.336   2.529   9.089
 5767SOL     OW18043   3.468   2.641   9.133
 5767SOL    HW118044   3.383   2.684   9.127
 5767SOL    HW218045   3.521   2.684   9.066
 5768SOL     OW18046   2.856   1.993   9.193
 5768SOL    HW118047   2.917   2.065   9.177
 5768SOL    HW218048   2.906   1.914   9.172
 5769SOL     OW18049   2.358   1.898   9.213
 5769SOL    HW118050   2.309   1.848   9.149
 5769SOL    HW218051   2.298   1.967   9.241
 5770SOL     OW18052   2.449   2.736   8.480
 5770SOL    HW118053   2.485   2.825   8.480
 5770SOL    HW218054   2.392   2.734   8.557
 5771SOL     OW18055   3.213   2.721   8.472
 5771SOL    HW118056   3.129   2.707   8.428
 5771SOL    HW218057   3.259   2.637   8.464
 5772SOL     OW18058   3.063   2.392   7.706
 5772SOL    HW118059   3.076   2.315   7.761
 5772SOL    HW218060   3.029   2.459   7.766
 5773SOL     OW18061   1.910   3.174   8.723
 5773SOL    HW118062   1.941   3.119   8.795
 5773SOL    HW218063   1.914   3.263   8.757
 5774SOL     OW18064   2.577   2.485   8.500
 5774SOL    HW118065   2.656   2.470   8.448
 5774SOL    HW218066   2.555   2.577   8.484
 5775SOL     OW18067   3.592   2.821   9.312
 5775SOL    HW118068   3.553   2.754   9.256
 5775SOL    HW218069   3.527   2.836   9.381
 5776SOL     OW18070   3.485   2.240   7.811
 5776SOL    HW118071   3.511   2.174   7.875
 5776SOL    HW218072   3.460   2.317   7.864
 5777SOL     OW18073   2.888   2.619   8.407
 5777SOL    HW118074   2.883   2.637   8.500
 5777SOL    HW218075   2.864   2.526   8.399
 5778SOL     OW18076   2.847   3.430   9.170
 5778SOL    HW118077   2.828   3.470   9.086
 5778SOL    HW218078   2.889   3.347   9.148
 5779SOL     OW18079   3.703   3.358   9.045
 5779SOL    HW118080   3.728   3.389   8.958
 5779SOL    HW218081   3.783   3.366   9.097
 5780SOL     OW18082   2.215   2.778   9.260
 5780SOL    HW118083   2.296   2.801   9.305
 5780SOL    HW218084   2.242   2.718   9.191
 5781SOL     OW18085   3.397   2.141   7.573
 5781SOL    HW118086   3.334   2.074   7.597
 5781SOL    HW218087   3.429   2.176   7.656
 5782SOL     OW18088   3.151   2.688   7.480
 5782SOL    HW118089   3.190   2.601   7.481
 5782SOL    HW218090   3.180   2.727   7.398
 5783SOL     OW18091   2.930   3.200   8.305
 5783SOL    HW118092   2.935   3.128   8.243
 5783SOL    HW218093   2.989   3.267   8.269
 5784SOL     OW18094   2.174   2.682   8.389
 5784SOL    HW118095   2.266   2.708   8.376
 5784SOL    HW218096   2.179   2.599   8.436
 5785SOL     OW18097   2.996   2.237   9.131
 5785SOL    HW118098   2.948   2.289   9.195
 5785SOL    HW218099   3.083   2.276   9.129
 5786SOL     OW18100   3.027   2.062   8.919
 5786SOL    HW118101   3.014   2.124   8.991
 5786SOL    HW218102   3.070   2.114   8.851
 5787SOL     OW18103   1.871   3.189   7.634
 5787SOL    HW118104   1.783   3.205   7.599
 5787SOL    HW218105   1.865   3.105   7.678
 5788SOL     OW18106   1.960   3.637   8.387
 5788SOL    HW118107   1.929   3.559   8.340
 5788SOL    HW218108   2.044   3.657   8.346
 5789SOL     OW18109   2.354   3.438   8.353
 5789SOL    HW118110   2.421   3.502   8.377
 5789SOL    HW218111   2.399   3.376   8.295
 5790SOL     OW18112   2.837   2.649   8.672
 5790SOL    HW118113   2.900   2.631   8.742
 5790SOL    HW218114   2.754   2.616   8.706
 5791SOL     OW18115   1.885   2.399   8.565
 5791SOL    HW118116   1.964   2.399   8.512
 5791SOL    HW218117   1.915   2.414   8.655
 5792SOL     OW18118   3.242   2.797   9.105
 5792SOL    HW118119   3.264   2.890   9.102
 5792SOL    HW218120   3.238   2.770   9.014
 5793SOL     OW18121   3.501   2.463   8.630
 5793SOL    HW118122   3.491   2.403   8.703
 5793SOL    HW218123   3.588   2.443   8.594
 5794SOL     OW18124   2.103   3.410   9.171
 5794SOL    HW118125   2.080   3.477   9.235
 5794SOL    HW218126   2.107   3.329   9.222
 5795SOL     OW18127   2.531   2.322   8.709
 5795SOL    HW118128   2.523   2.232   8.676
 5795SOL    HW218129   2.546   2.375   8.631
 5796SOL     OW18130   2.787   3.532   8.918
 5796SOL    HW118131   2.761   3.493   8.835
 5796SOL    HW218132   2.779   3.627   8.904
 5797SOL     OW18133   2.004   3.005   8.924
 5797SOL    HW118134   2.005   2.955   9.005
 5797SOL    HW218135   2.022   2.940   8.856
 5798SOL     OW18136   3.181   2.905   8.669
 5798SOL    HW118137   3.205   2.843   8.601
 5798SOL    HW218138   3.115   2.961   8.628
 5799SOL     OW18139   3.179   2.716   7.753
 5799SOL    HW118140   3.100   2.693   7.802
 5799SOL    HW218141   3.155   2.705   7.662
 5800SOL     OW18142   3.641   3.600   8.605
 5800SOL    HW118143   3.699   3.627   8.534
 5800SOL    HW218144   3.613   3.512   8.581
 5801SOL     OW18145   3.106   3.595   8.555
 5801SOL    HW118146   3.189   3.617   8.513
 5801SOL    HW218147   3.114   3.501   8.575
 5802SOL     OW18148   1.948   3.127   8.460
 5802SOL    HW118149   1.932   3.143   8.553
 5802SOL    HW218150   1.872   3.075   8.432
 5803SOL     OW18151   2.541   3.528   9.184
 5803SOL    HW118152   2.483   3.604   9.188
 5803SOL    HW218153   2.602   3.548   9.113
 5804SOL     OW18154   3.569   2.015   7.959
 5804SOL    HW118155   3.638   2.003   7.893
 5804SOL    HW218156   3.559   1.928   7.999
 5805SOL     OW18157   3.253   3.431   7.938
 5805SOL    HW118158   3.311   3.464   7.870
 5805SOL    HW218159   3.204   3.507   7.968
 5806SOL     OW18160   1.999   3.650   9.286
 5806SOL    HW118161   1.947   3.587   9.335
 5806SOL    HW218162   2.047   3.699   9.353
 5807SOL     OW18163   3.139   2.789   8.119
 5807SOL    HW118164   3.214   2.730   8.129
 5807SOL    HW218165   3.173   2.861   8.065
 5808SOL     OW18166   2.669   3.137   8.874
 5808SOL    HW118167   2.642   3.177   8.957
 5808SOL    HW218168   2.600   3.161   8.812
 5809SOL     OW18169   2.536   3.481   7.607
 5809SOL    HW118170   2.546   3.500   7.514
 5809SOL    HW218171   2.477   3.406   7.610
 5810SOL     OW18172   3.479   3.589   8.838
 5810SOL    HW118173   3.536   3.592   8.761
 5810SOL    HW218174   3.466   3.681   8.861
 5811SOL     OW18175   3.700   2.043   8.414
 5811SOL    HW118176   3.732   1.956   8.390
 5811SOL    HW218177   3.614   2.049   8.373
 5812SOL     OW18178   3.070   3.464   7.485
 5812SOL    HW118179   3.059   3.372   7.510
 5812SOL    HW218180   3.009   3.477   7.412
 5813SOL     OW18181   2.686   2.869   8.821
 5813SOL    HW118182   2.731   2.865   8.737
 5813SOL    HW218183   2.682   2.962   8.842
 5814SOL     OW18184   2.791   2.783   7.754
 5814SOL    HW118185   2.841   2.814   7.679
 5814SOL    HW218186   2.842   2.710   7.789
 5815SOL     OW18187   3.348   3.497   7.491
 5815SOL    HW118188   3.255   3.482   7.474
 5815SOL    HW218189   3.388   3.501   7.404
 5816SOL     OW18190   2.231   3.166   8.939
 5816SOL    HW118191   2.217   3.243   8.884
 5816SOL    HW218192   2.152   3.112   8.925
 5817SOL     OW18193   3.460   3.141   8.724
 5817SOL    HW118194   3.530   3.132   8.789
 5817SOL    HW218195   3.404   3.210   8.759
 5818SOL     OW18196   2.921   2.972   8.160
 5818SOL    HW118197   2.849   2.920   8.195
 5818SOL    HW218198   2.984   2.908   8.128
 5819SOL     OW18199   2.884   2.105   8.420
 5819SOL    HW118200   2.884   2.058   8.337
 5819SOL    HW218201   2.881   2.036   8.486
 5820SOL     OW18202   2.467   3.352   7.928
 5820SOL    HW118203   2.516   3.301   7.863
 5820SOL    HW218204   2.398   3.396   7.877
 5821SOL     OW18205   3.588   2.251   8.826
 5821SOL    HW118206   3.660   2.313   8.823
 5821SOL    HW218207   3.615   2.179   8.769
 5822SOL     OW18208   2.127   3.196   7.746
 5822SOL    HW118209   2.037   3.204   7.714
 5822SOL    HW218210   2.126   3.238   7.831
 5823SOL     OW18211   1.976   2.888   9.170
 5823SOL    HW118212   1.899   2.864   9.222
 5823SOL    HW218213   2.049   2.848   9.217
 5824SOL     OW18214   2.551   2.040   8.943
 5824SOL    HW118215   2.639   2.018   8.911
 5824SOL    HW218216   2.567   2.085   9.026
 5825SOL     OW18217   1.865   2.213   7.456
 5825SOL    HW118218   1.841   2.186   7.367
 5825SOL    HW218219   1.917   2.292   7.444
 5826SOL     OW18220   3.287   2.720   8.846
 5826SOL    HW118221   3.237   2.781   8.792
 5826SOL    HW218222   3.375   2.722   8.809
 5827SOL     OW18223   3.040   3.199   7.566
 5827SOL    HW118224   2.955   3.155   7.567
 5827SOL    HW218225   3.068   3.198   7.658
 5828SOL     OW18226   2.482   2.692   8.880
 5828SOL    HW118227   2.537   2.769   8.867
 5828SOL    HW218228   2.544   2.619   8.889
 5829SOL     OW18229   3.348   3.644   8.431
 5829SOL    HW118230   3.371   3.701   8.358
 5829SOL    HW218231   3.432   3.611   8.463
 5830SOL     OW18232   2.574   2.424   9.147
 5830SOL    HW118233   2.620   2.482   9.209
 5830SOL    HW218234   2.592   2.336   9.179
 5831SOL     OW18235   3.336   3.058   9.077
 5831SOL    HW118236   3.325   3.072   9.171
 5831SOL    HW218237   3.428   3.074   9.060
 5832SOL     OW18238   2.235   3.604   9.015
 5832SOL    HW118239   2.151   3.647   8.998
 5832SOL    HW218240   2.211   3.520   9.055
 5833SOL     OW18241   3.525   2.742   8.707
 5833SOL    HW118242   3.525   2.656   8.663
 5833SOL    HW218243   3.518   2.805   8.635
 5834SOL     OW18244   3.100   2.196   7.896
 5834SOL    HW118245   3.151   2.115   7.896
 5834SOL    HW218246   3.124   2.238   7.979
 5835SOL     OW18247   2.462   2.584   8.107
 5835SOL    HW118248   2.496   2.673   8.101
 5835SOL    HW218249   2.383   2.584   8.054
 5836SOL     OW18250   3.618   2.228   9.098
 5836SOL    HW118251   3.602   2.242   9.005
 5836SOL    HW218252   3.548   2.170   9.127
 5837SOL     OW18253   3.620   2.789   8.961
 5837SOL    HW118254   3.610   2.882   8.979
 5837SOL    HW218255   3.594   2.780   8.869
 5838SOL     OW18256   2.721   3.242   7.486
 5838SOL    HW118257   2.687   3.268   7.571
 5838SOL    HW218258   2.745   3.324   7.443
 5839SOL     OW18259   2.523   3.649   8.385
 5839SOL    HW118260   2.502   3.740   8.365
 5839SOL    HW218261   2.619   3.645   8.381
 5840SOL     OW18262   2.730   2.830   8.302
 5840SOL    HW118263   2.782   2.759   8.341
 5840SOL    HW218264   2.694   2.877   8.378
 5841SOL     OW18265   2.954   2.872   7.548
 5841SOL    HW118266   2.916   2.905   7.467
 5841SOL    HW218267   3.016   2.805   7.520
 5842SOL     OW18268   3.710   3.416   8.288
 5842SOL    HW118269   3.630   3.397   8.238
 5842SOL    HW218270   3.715   3.347   8.354
 5843SOL     OW18271   2.088   3.162   9.303
 5843SOL    HW118272   2.023   3.100   9.270
 5843SOL    HW218273   2.066   3.175   9.395
 5844SOL     OW18274   1.949   3.090   8.114
 5844SOL    HW118275   1.959   3.046   8.198
 5844SOL    HW218276   2.018   3.054   8.059
 5845SOL     OW18277   2.546   3.268   9.079
 5845SOL    HW118278   2.466   3.226   9.111
 5845SOL    HW218279   2.544   3.356   9.116
 5846SOL     OW18280   3.671   2.038   8.685
 5846SOL    HW118281   3.665   1.943   8.687
 5846SOL    HW218282   3.688   2.060   8.593
 5847SOL     OW18283   3.556   3.351   8.544
 5847SOL    HW118284   3.478   3.328   8.493
 5847SOL    HW218285   3.566   3.280   8.606
 5848SOL     OW18286   2.205   2.407   8.737
 5848SOL    HW118287   2.197   2.326   8.788
 5848SOL    HW218288   2.285   2.396   8.686
 5849SOL     OW18289   2.692   3.441   8.124
 5849SOL    HW118290   2.672   3.496   8.049
 5849SOL    HW218291   2.618   3.380   8.130
 5850SOL     OW18292   3.292   2.090   8.565
 5850SOL    HW118293   3.315   2.008   8.608
 5850SOL    HW218294   3.243   2.139   8.630
 5851SOL     OW18295   2.873   1.879   8.585
 5851SOL    HW118296   2.816   1.812   8.549
 5851SOL    HW218297   2.961   1.840   8.585
 5852SOL     OW18298   2.635   3.197   7.770
 5852SOL    HW118299   2.607   3.106   7.775
 5852SOL    HW218300   2.720   3.198   7.815
 5853SOL     OW18301   2.482   3.414   8.734
 5853SOL    HW118302   2.482   3.496   8.784
 5853SOL    HW218303   2.570   3.409   8.697
 5854SOL     OW18304   3.235   1.923   7.611
 5854SOL    HW118305   3.268   1.854   7.553
 5854SOL    HW218306   3.146   1.896   7.632
 5855SOL     OW18307   3.160   2.326   8.131
 5855SOL    HW118308   3.108   2.406   8.136
 5855SOL    HW218309   3.155   2.288   8.219
 5856SOL     OW18310   3.441   2.057   8.327
 5856SOL    HW118311   3.388   2.083   8.402
 5856SOL    HW218312   3.444   2.135   8.271
 5857SOL     OW18313   1.891   2.950   7.757
 5857SOL    HW118314   1.985   2.938   7.768
 5857SOL    HW218315   1.855   2.861   7.759
 5858SOL     OW18316   2.749   3.524   7.790
 5858SOL    HW118317   2.677   3.505   7.730
 5858SOL    HW218318   2.718   3.598   7.842
 5859SOL     OW18319   2.088   2.508   9.445
 5859SOL    HW118320   2.003   2.482   9.482
 5859SOL    HW218321   2.077   2.496   9.351
 5860SOL     OW18322   1.856   2.282   9.927
 5860SOL    HW118323   1.769   2.279   9.966
 5860SOL    HW218324   1.863   2.202   9.874
 5861SOL     OW18325   2.429   3.157  10.490
 5861SOL    HW118326   2.343   3.163  10.449
 5861SOL    HW218327   2.446   3.244  10.524
 5862SOL     OW18328   3.428   3.375  10.019
 5862SOL    HW118329   3.385   3.351  10.102
 5862SOL    HW218330   3.356   3.378   9.956
 5863SOL     OW18331   2.992   2.561  10.007
 5863SOL    HW118332   3.042   2.642   9.993
 5863SOL    HW218333   2.946   2.574  10.089
 5864SOL     OW18334   3.630   2.467   9.539
 5864SOL    HW118335   3.609   2.459   9.446
 5864SOL    HW218336   3.596   2.386   9.578
 5865SOL     OW18337   2.608   3.000  10.355
 5865SOL    HW118338   2.542   3.038  10.413
 5865SOL    HW218339   2.648   3.075  10.311
 5866SOL     OW18340   2.734   2.627  11.133
 5866SOL    HW118341   2.724   2.697  11.198
 5866SOL    HW218342   2.757   2.672  11.052
 5867SOL     OW18343   2.547   2.857   9.954
 5867SOL    HW118344   2.614   2.850  10.023
 5867SOL    HW218345   2.479   2.913   9.992
 5868SOL     OW18346   2.576   3.013  11.126
 5868SOL    HW118347   2.623   3.090  11.156
 5868SOL    HW218348   2.495   3.048  11.088
 5869SOL     OW18349   2.194   3.280  10.376
 5869SOL    HW118350   2.119   3.244  10.329
 5869SOL    HW218351   2.239   3.334  10.311
 5870SOL     OW18352   3.320   3.364  10.669
 5870SOL    HW118353   3.375   3.442  10.679
 5870SOL    HW218354   3.253   3.373  10.737
 5871SOL     OW18355   3.470   2.306  10.055
 5871SOL    HW118356   3.399   2.327   9.994
 5871SOL    HW218357   3.479   2.384  10.110
 5872SOL     OW18358   2.084   3.577   9.789
 5872SOL    HW118359   2.113   3.638   9.858
 5872SOL    HW218360   2.157   3.576   9.727
 5873SOL     OW18361   2.999   3.204  11.004
 5873SOL    HW118362   3.041   3.197  11.090
 5873SOL    HW218363   2.947   3.124  10.996
 5874SOL     OW18364   2.092   3.304   9.846
 5874SOL    HW118365   2.075   3.398   9.849
 5874SOL    HW218366   2.034   3.267   9.912
 5875SOL     OW18367   2.125   2.958  10.200
 5875SOL    HW118368   2.121   2.871  10.238
 5875SOL    HW218369   2.067   3.012  10.254
 5876SOL     OW18370   2.467   3.647  10.737
 5876SOL    HW118371   2.386   3.633  10.786
 5876SOL    HW218372   2.494   3.735  10.762
 5877SOL     OW18373   2.443   2.850   9.446
 5877SOL    HW118374   2.492   2.895   9.377
 5877SOL    HW218375   2.481   2.882   9.528
 5878SOL     OW18376   3.456   1.989  10.775
 5878SOL    HW118377   3.476   2.070  10.728
 5878SOL    HW218378   3.439   2.017  10.865
 5879SOL     OW18379   1.988   2.519   9.871
 5879SOL    HW118380   1.948   2.434   9.887
 5879SOL    HW218381   1.974   2.568   9.952
 5880SOL     OW18382   3.700   3.611   9.653
 5880SOL    HW118383   3.772   3.586   9.710
 5880SOL    HW218384   3.718   3.702   9.629
 5881SOL     OW18385   1.894   3.451   9.431
 5881SOL    HW118386   1.878   3.359   9.452
 5881SOL    HW218387   1.872   3.498   9.511
 5882SOL     OW18388   3.551   2.782   9.959
 5882SOL    HW118389   3.634   2.737   9.940
 5882SOL    HW218390   3.531   2.830   9.879
 5883SOL     OW18391   3.504   2.965   9.742
 5883SOL    HW118392   3.589   2.968   9.698
 5883SOL    HW218393   3.510   3.029   9.813
 5884SOL     OW18394   1.989   2.599  10.895
 5884SOL    HW118395   2.081   2.618  10.911
 5884SOL    HW218396   1.944   2.682  10.911
 5885SOL     OW18397   2.478   3.253  10.044
 5885SOL    HW118398   2.433   3.169  10.053
 5885SOL    HW218399   2.461   3.280   9.954
 5886SOL     OW18400   3.148   3.098  10.732
 5886SOL    HW118401   3.180   3.031  10.671
 5886SOL    HW218402   3.208   3.093  10.806
 5887SOL     OW18403   2.694   1.864   9.823
 5887SOL    HW118404   2.733   1.948   9.798
 5887SOL    HW218405   2.600   1.880   9.821
 5888SOL     OW18406   2.051   2.829  10.586
 5888SOL    HW118407   2.135   2.786  10.569
 5888SOL    HW218408   1.987   2.775  10.539
 5889SOL     OW18409   3.389   2.860   9.511
 5889SOL    HW118410   3.320   2.803   9.545
 5889SOL    HW218411   3.432   2.894   9.590
 5890SOL     OW18412   3.084   3.667  10.938
 5890SOL    HW118413   3.057   3.728  10.870
 5890SOL    HW218414   3.084   3.582  10.896
 5891SOL     OW18415   3.327   3.282  10.257
 5891SOL    HW118416   3.261   3.297  10.325
 5891SOL    HW218417   3.316   3.190  10.232
 5892SOL     OW18418   3.507   3.608   9.891
 5892SOL    HW118419   3.500   3.573   9.802
 5892SOL    HW218420   3.492   3.533   9.948
 5893SOL     OW18421   2.469   2.601   9.585
 5893SOL    HW118422   2.470   2.680   9.531
 5893SOL    HW218423   2.404   2.619   9.653
 5894SOL     OW18424   3.139   2.225  10.244
 5894SOL    HW118425   3.051   2.188  10.253
 5894SOL    HW218426   3.193   2.170  10.302
 5895SOL     OW18427   3.435   3.539   9.618
 5895SOL    HW118428   3.528   3.562   9.614
 5895SOL    HW218429   3.410   3.520   9.528
 5896SOL     OW18430   2.654   2.477  10.757
 5896SOL    HW118431   2.631   2.455  10.847
 5896SOL    HW218432   2.606   2.414  10.703
 5897SOL     OW18433   3.255   2.336  10.988
 5897SOL    HW118434   3.259   2.380  11.073
 5897SOL    HW218435   3.312   2.260  10.998
 5898SOL     OW18436   2.812   2.747  10.895
 5898SOL    HW118437   2.868   2.680  10.857
 5898SOL    HW218438   2.765   2.784  10.820
 5899SOL     OW18439   2.861   2.276  10.545
 5899SOL    HW118440   2.777   2.295  10.586
 5899SOL    HW218441   2.839   2.231  10.464
 5900SOL     OW18442   2.915   2.561   9.735
 5900SOL    HW118443   2.934   2.555   9.828
 5900SOL    HW218444   2.832   2.515   9.723
 5901SOL     OW18445   1.950   2.683  10.089
 5901SOL    HW118446   2.033   2.682  10.137
 5901SOL    HW218447   1.903   2.760  10.122
 5902SOL     OW18448   1.980   3.713  10.887
 5902SOL    HW118449   1.985   3.692  10.981
 5902SOL    HW218450   1.887   3.703  10.866
 5903SOL     OW18451   2.758   2.216   9.511
 5903SOL    HW118452   2.804   2.269   9.446
 5903SOL    HW218453   2.727   2.139   9.463
 5904SOL     OW18454   3.569   2.434  11.140
 5904SOL    HW118455   3.532   2.507  11.091
 5904SOL    HW218456   3.595   2.370  11.073
 5905SOL     OW18457   3.239   3.003   9.850
 5905SOL    HW118458   3.319   2.991   9.799
 5905SOL    HW218459   3.188   3.066   9.799
 5906SOL     OW18460   2.445   2.063  10.217
 5906SOL    HW118461   2.350   2.075  10.222
 5906SOL    HW218462   2.477   2.145  10.178
 5907SOL     OW18463   2.863   3.307   9.779
 5907SOL    HW118464   2.829   3.382   9.730
 5907SOL    HW218465   2.841   3.326   9.870
 5908SOL     OW18466   2.213   3.675  10.147
 5908SOL    HW118467   2.263   3.596  10.166
 5908SOL    HW218468   2.271   3.747  10.172
 5909SOL     OW18469   3.668   2.922  10.179
 5909SOL    HW118470   3.616   2.895  10.103
 5909SOL    HW218471   3.606   2.926  10.251
 5910SOL     OW18472   3.089   3.400  10.822
 5910SOL    HW118473   3.077   3.327  10.883
 5910SOL    HW218474   3.020   3.387  10.756
 5911SOL     OW18475   2.178   2.818   9.565
 5911SOL    HW118476   2.259   2.839   9.517
 5911SOL    HW218477   2.147   2.737   9.525
 5912SOL     OW18478   3.342   2.611  10.034
 5912SOL    HW118479   3.338   2.569  10.120
 5912SOL    HW218480   3.421   2.666  10.038
 5913SOL     OW18481   2.331   3.128  11.047
 5913SOL    HW118482   2.304   3.133  10.955
 5913SOL    HW218483   2.248   3.126  11.096
 5914SOL     OW18484   2.977   3.644   9.530
 5914SOL    HW118485   2.911   3.599   9.584
 5914SOL    HW218486   3.007   3.577   9.469
 5915SOL     OW18487   3.485   3.248   9.399
 5915SOL    HW118488   3.442   3.332   9.381
 5915SOL    HW218489   3.419   3.182   9.378
 5916SOL     OW18490   2.328   3.598   9.635
 5916SOL    HW118491   2.366   3.662   9.695
 5916SOL    HW218492   2.400   3.572   9.578
 5917SOL     OW18493   3.263   1.969   9.749
 5917SOL    HW118494   3.256   1.944   9.657
 5917SOL    HW218495   3.357   1.975   9.766
 5918SOL     OW18496   2.123   3.652  10.531
 5918SOL    HW118497   2.169   3.581  10.574
 5918SOL    HW218498   2.106   3.620  10.442
 5919SOL     OW18499   2.801   3.564  10.208
 5919SOL    HW118500   2.878   3.513  10.231
 5919SOL    HW218501   2.758   3.514  10.139
 5920SOL     OW18502   2.257   2.546   9.785
 5920SOL    HW118503   2.265   2.458   9.747
 5920SOL    HW218504   2.165   2.552   9.812
 5921SOL     OW18505   3.393   2.087  11.035
 5921SOL    HW118506   3.403   2.107  11.128
 5921SOL    HW218507   3.325   2.019  11.032
 5922SOL     OW18508   2.531   1.986   9.407
 5922SOL    HW118509   2.571   1.906   9.440
 5922SOL    HW218510   2.464   1.957   9.346
 5923SOL     OW18511   2.628   2.146  11.064
 5923SOL    HW118512   2.707   2.092  11.059
 5923SOL    HW218513   2.579   2.110  11.138
 5924SOL     OW18514   2.738   3.382  10.505
 5924SOL    HW118515   2.721   3.346  10.418
 5924SOL    HW218516   2.808   3.328  10.540
 5925SOL     OW18517   3.201   2.452  10.744
 5925SOL    HW118518   3.233   2.421  10.829
 5925SOL    HW218519   3.239   2.540  10.735
 5926SOL     OW18520   2.680   3.252  10.255
 5926SOL    HW118521   2.764   3.240  10.212
 5926SOL    HW218522   2.617   3.258  10.183
 5927SOL     OW18523   2.787   2.369  10.211
 5927SOL    HW118524   2.763   2.361  10.119
 5927SOL    HW218525   2.822   2.282  10.234
 5928SOL     OW18526   2.429   1.916   9.804
 5928SOL    HW118527   2.375   1.899   9.882
 5928SOL    HW218528   2.406   2.005   9.778
 5929SOL     OW18529   3.289   3.062   9.349
 5929SOL    HW118530   3.320   2.987   9.400
 5929SOL    HW218531   3.204   3.084   9.387
 5930SOL     OW18532   2.806   2.113   9.766
 5930SOL    HW118533   2.783   2.149   9.681
 5930SOL    HW218534   2.900   2.126   9.773
 5931SOL     OW18535   2.944   2.547  10.768
 5931SOL    HW118536   2.879   2.476  10.775
 5931SOL    HW218537   3.028   2.502  10.763
 5932SOL     OW18538   3.081   3.434  10.104
 5932SOL    HW118539   3.096   3.500  10.037
 5932SOL    HW218540   3.152   3.446  10.168
 5933SOL     OW18541   2.335   3.014  10.037
 5933SOL    HW118542   2.266   2.997  10.102
 5933SOL    HW218543   2.292   3.001   9.953
 5934SOL     OW18544   3.126   3.655   9.920
 5934SOL    HW118545   3.174   3.720   9.868
 5934SOL    HW218546   3.052   3.703   9.957
 5935SOL     OW18547   2.887   2.398   9.334
 5935SOL    HW118548   2.843   2.481   9.317
 5935SOL    HW218549   2.951   2.419   9.403
 5936SOL     OW18550   1.939   2.426  10.693
 5936SOL    HW118551   2.033   2.420  10.674
 5936SOL    HW218552   1.933   2.484  10.768
 5937SOL     OW18553   2.725   2.318   9.947
 5937SOL    HW118554   2.689   2.376   9.880
 5937SOL    HW218555   2.752   2.240   9.900
 5938SOL     OW18556   2.875   1.916  10.059
 5938SOL    HW118557   2.820   1.906   9.982
 5938SOL    HW218558   2.854   1.841  10.114
 5939SOL     OW18559   3.302   3.023  10.167
 5939SOL    HW118560   3.231   2.959  10.166
 5939SOL    HW218561   3.328   3.031  10.075
 5940SOL     OW18562   3.327   2.472  10.280
 5940SOL    HW118563   3.273   2.393  10.282
 5940SOL    HW218564   3.385   2.464  10.356
 5941SOL     OW18565   3.723   2.677   9.685
 5941SOL    HW118566   3.767   2.622   9.749
 5941SOL    HW218567   3.686   2.616   9.621
 5942SOL     OW18568   2.352   3.281   9.462
 5942SOL    HW118569   2.276   3.254   9.514
 5942SOL    HW218570   2.342   3.235   9.379
 5943SOL     OW18571   3.530   3.127   9.952
 5943SOL    HW118572   3.625   3.129   9.962
 5943SOL    HW218573   3.502   3.217   9.974
 5944SOL     OW18574   3.256   2.434   9.381
 5944SOL    HW118575   3.194   2.414   9.451
 5944SOL    HW218576   3.340   2.403   9.414
 5945SOL     OW18577   3.612   3.096  10.872
 5945SOL    HW118578   3.699   3.060  10.855
 5945SOL    HW218579   3.628   3.185  10.901
 5946SOL     OW18580   2.917   3.214  10.641
 5946SOL    HW118581   2.842   3.183  10.692
 5946SOL    HW218582   2.993   3.173  10.683
 5947SOL     OW18583   3.469   3.492  10.968
 5947SOL    HW118584   3.459   3.526  10.879
 5947SOL    HW218585   3.549   3.439  10.965
 5948SOL     OW18586   2.995   3.070  10.412
 5948SOL    HW118587   2.936   3.109  10.477
 5948SOL    HW218588   2.965   3.105  10.328
 5949SOL     OW18589   3.488   2.956  10.384
 5949SOL    HW118590   3.479   3.018  10.456
 5949SOL    HW218591   3.413   2.973  10.328
 5950SOL     OW18592   2.789   1.953  10.702
 5950SOL    HW118593   2.811   1.934  10.611
 5950SOL    HW218594   2.869   1.992  10.738
 5951SOL     OW18595   2.846   2.977  11.033
 5951SOL    HW118596   2.755   2.994  11.056
 5951SOL    HW218597   2.843   2.898  10.978
 5952SOL     OW18598   2.571   2.924   9.681
 5952SOL    HW118599   2.557   2.904   9.773
 5952SOL    HW218600   2.647   2.870   9.656
 5953SOL     OW18601   2.279   2.675  10.561
 5953SOL    HW118602   2.348   2.689  10.627
 5953SOL    HW218603   2.242   2.589  10.584
 5954SOL     OW18604   3.129   2.238  10.590
 5954SOL    HW118605   3.161   2.316  10.636
 5954SOL    HW218606   3.039   2.259  10.567
 5955SOL     OW18607   1.936   3.435  10.665
 5955SOL    HW118608   1.908   3.510  10.612
 5955SOL    HW218609   2.031   3.436  10.659
 5956SOL     OW18610   2.203   2.977   9.798
 5956SOL    HW118611   2.206   3.052   9.738
 5956SOL    HW218612   2.200   2.901   9.741
 5957SOL     OW18613   2.405   2.389  10.170
 5957SOL    HW118614   2.415   2.453  10.100
 5957SOL    HW218615   2.465   2.419  10.239
 5958SOL     OW18616   3.109   3.212   9.700
 5958SOL    HW118617   3.165   3.282   9.732
 5958SOL    HW218618   3.022   3.233   9.733
 5959SOL     OW18619   3.149   3.322  10.459
 5959SOL    HW118620   3.205   3.327  10.536
 5959SOL    HW218621   3.094   3.246  10.474
 5960SOL     OW18622   3.438   2.480   9.794
 5960SOL    HW118623   3.390   2.532   9.859
 5960SOL    HW218624   3.481   2.545   9.738
 5961SOL     OW18625   2.207   3.392  10.620
 5961SOL    HW118626   2.196   3.347  10.536
 5961SOL    HW218627   2.302   3.403  10.629
 5962SOL     OW18628   2.286   2.606  10.921
 5962SOL    HW118629   2.344   2.649  10.858
 5962SOL    HW218630   2.334   2.529  10.951
 5963SOL     OW18631   3.468   2.641  10.995
 5963SOL    HW118632   3.383   2.684  10.990
 5963SOL    HW218633   3.521   2.684  10.927
 5964SOL     OW18634   2.856   1.993  11.056
 5964SOL    HW118635   2.917   2.065  11.039
 5964SOL    HW218636   2.905   1.914  11.034
 5965SOL     OW18637   2.352   1.902  11.074
 5965SOL    HW118638   2.307   1.852  11.006
 5965SOL    HW218639   2.292   1.974  11.095
 5966SOL     OW18640   2.453   2.736  10.344
 5966SOL    HW118641   2.486   2.826  10.343
 5966SOL    HW218642   2.393   2.734  10.419
 5967SOL     OW18643   3.213   2.721  10.333
 5967SOL    HW118644   3.128   2.707  10.291
 5967SOL    HW218645   3.258   2.637  10.325
 5968SOL     OW18646   3.062   2.390   9.572
 5968SOL    HW118647   3.070   2.311   9.626
 5968SOL    HW218648   3.020   2.454   9.630
 5969SOL     OW18649   1.908   3.174  10.585
 5969SOL    HW118650   1.940   3.119  10.656
 5969SOL    HW218651   1.914   3.263  10.619
 5970SOL     OW18652   2.579   2.485  10.363
 5970SOL    HW118653   2.656   2.469  10.307
 5970SOL    HW218654   2.556   2.576  10.346
 5971SOL     OW18655   3.592   2.822  11.174
 5971SOL    HW118656   3.553   2.754  11.118
 5971SOL    HW218657   3.527   2.836  11.243
 5972SOL     OW18658   3.483   2.240   9.672
 5972SOL    HW118659   3.509   2.174   9.736
 5972SOL    HW218660   3.459   2.316   9.724
 5973SOL     OW18661   2.889   2.619  10.268
 5973SOL    HW118662   2.882   2.637  10.362
 5973SOL    HW218663   2.863   2.528  10.259
 5974SOL     OW18664   2.847   3.430  11.032
 5974SOL    HW118665   2.828   3.470  10.948
 5974SOL    HW218666   2.890   3.347  11.010
 5975SOL     OW18667   3.703   3.358  10.907
 5975SOL    HW118668   3.728   3.389  10.820
 5975SOL    HW218669   3.783   3.366  10.959
 5976SOL     OW18670   2.214   2.778  11.123
 5976SOL    HW118671   2.296   2.801  11.167
 5976SOL    HW218672   2.241   2.718  11.053
 5977SOL     OW18673   3.390   2.134   9.437
 5977SOL    HW118674   3.325   2.069   9.464
 5977SOL    HW218675   3.423   2.170   9.519
 5978SOL     OW18676   3.149   2.686   9.339
 5978SOL    HW118677   3.193   2.601   9.343
 5978SOL    HW218678   3.182   2.726   9.258
 5979SOL     OW18679   2.930   3.200  10.166
 5979SOL    HW118680   2.935   3.128  10.103
 5979SOL    HW218681   2.989   3.267  10.130
 5980SOL     OW18682   2.176   2.682  10.251
 5980SOL    HW118683   2.267   2.706  10.231
 5980SOL    HW218684   2.183   2.600  10.300
 5981SOL     OW18685   2.996   2.237  10.993
 5981SOL    HW118686   2.948   2.289  11.057
 5981SOL    HW218687   3.083   2.276  10.990
 5982SOL     OW18688   3.027   2.062  10.781
 5982SOL    HW118689   3.014   2.124  10.853
 5982SOL    HW218690   3.070   2.113  10.713
 5983SOL     OW18691   1.868   3.179   9.504
 5983SOL    HW118692   1.781   3.195   9.468
 5983SOL    HW218693   1.864   3.090   9.539
 5984SOL     OW18694   1.960   3.637  10.249
 5984SOL    HW118695   1.928   3.559  10.203
 5984SOL    HW218696   2.044   3.657  10.208
 5985SOL     OW18697   2.354   3.438  10.215
 5985SOL    HW118698   2.421   3.502  10.239
 5985SOL    HW218699   2.399   3.376  10.157
 5986SOL     OW18700   2.838   2.650  10.534
 5986SOL    HW118701   2.899   2.631  10.605
 5986SOL    HW218702   2.754   2.615  10.565
 5987SOL     OW18703   1.886   2.398  10.427
 5987SOL    HW118704   1.967   2.403  10.376
 5987SOL    HW218705   1.913   2.412  10.518
 5988SOL     OW18706   3.242   2.797  10.968
 5988SOL    HW118707   3.264   2.890  10.964
 5988SOL    HW218708   3.238   2.770  10.876
 5989SOL     OW18709   2.678   2.432   9.681
 5989SOL    HW118710   2.686   2.360   9.619
 5989SOL    HW218711   2.608   2.487   9.646
 5990SOL     OW18712   3.501   2.463  10.492
 5990SOL    HW118713   3.490   2.403  10.565
 5990SOL    HW218714   3.588   2.443  10.456
 5991SOL     OW18715   2.103   3.410  11.033
 5991SOL    HW118716   2.080   3.477  11.097
 5991SOL    HW218717   2.108   3.329  11.084
 5992SOL     OW18718   2.534   2.321  10.571
 5992SOL    HW118719   2.524   2.232  10.537
 5992SOL    HW218720   2.548   2.375  10.494
 5993SOL     OW18721   2.787   3.533  10.781
 5993SOL    HW118722   2.761   3.493  10.697
 5993SOL    HW218723   2.779   3.627  10.766
 5994SOL     OW18724   2.330   2.379   9.525
 5994SOL    HW118725   2.392   2.452   9.533
 5994SOL    HW218726   2.249   2.420   9.495
 5995SOL     OW18727   2.004   3.005  10.785
 5995SOL    HW118728   2.005   2.955  10.867
 5995SOL    HW218729   2.022   2.940  10.717
 5996SOL     OW18730   3.182   2.905  10.531
 5996SOL    HW118731   3.205   2.842  10.462
 5996SOL    HW218732   3.115   2.961  10.490
 5997SOL     OW18733   3.175   2.718   9.614
 5997SOL    HW118734   3.101   2.686   9.666
 5997SOL    HW218735   3.150   2.704   9.523
 5998SOL     OW18736   3.641   3.600  10.467
 5998SOL    HW118737   3.699   3.627  10.396
 5998SOL    HW218738   3.613   3.512  10.443
 5999SOL     OW18739   3.106   3.594  10.417
 5999SOL    HW118740   3.189   3.617  10.375
 5999SOL    HW218741   3.114   3.501  10.437
 6000SOL     OW18742   1.948   3.128  10.321
 6000SOL    HW118743   1.932   3.143  10.414
 6000SOL    HW218744   1.874   3.074  10.293
 6001SOL     OW18745   2.541   3.528  11.046
 6001SOL    HW118746   2.483   3.604  11.050
 6001SOL    HW218747   2.602   3.548  10.975
 6002SOL     OW18748   3.570   2.015   9.820
 6002SOL    HW118749   3.638   2.002   9.754
 6002SOL    HW218750   3.560   1.928   9.860
 6003SOL     OW18751   3.252   3.430   9.799
 6003SOL    HW118752   3.311   3.464   9.732
 6003SOL    HW218753   3.204   3.507   9.830
 6004SOL     OW18754   1.999   3.650  11.148
 6004SOL    HW118755   1.947   3.587  11.197
 6004SOL    HW218756   2.046   3.699  11.215
 6005SOL     OW18757   3.139   2.789   9.981
 6005SOL    HW118758   3.213   2.729   9.991
 6005SOL    HW218759   3.173   2.861   9.928
 6006SOL     OW18760   2.669   3.137  10.736
 6006SOL    HW118761   2.641   3.177  10.818
 6006SOL    HW218762   2.600   3.160  10.674
 6007SOL     OW18763   2.536   3.481   9.469
 6007SOL    HW118764   2.546   3.499   9.375
 6007SOL    HW218765   2.477   3.406   9.472
 6008SOL     OW18766   3.479   3.589  10.700
 6008SOL    HW118767   3.536   3.592  10.623
 6008SOL    HW218768   3.466   3.681  10.723
 6009SOL     OW18769   3.700   2.043  10.276
 6009SOL    HW118770   3.732   1.956  10.252
 6009SOL    HW218771   3.614   2.050  10.235
 6010SOL     OW18772   3.070   3.464   9.347
 6010SOL    HW118773   3.059   3.372   9.371
 6010SOL    HW218774   3.008   3.477   9.274
 6011SOL     OW18775   2.686   2.869  10.684
 6011SOL    HW118776   2.730   2.864  10.599
 6011SOL    HW218777   2.682   2.962  10.704
 6012SOL     OW18778   2.779   2.773   9.601
 6012SOL    HW118779   2.839   2.805   9.534
 6012SOL    HW218780   2.828   2.705   9.647
 6013SOL     OW18781   3.349   3.496   9.353
 6013SOL    HW118782   3.255   3.483   9.336
 6013SOL    HW218783   3.388   3.500   9.266
 6014SOL     OW18784   2.230   3.166  10.801
 6014SOL    HW118785   2.217   3.243  10.746
 6014SOL    HW218786   2.152   3.112  10.787
 6015SOL     OW18787   3.461   3.141  10.586
 6015SOL    HW118788   3.530   3.132  10.652
 6015SOL    HW218789   3.404   3.211  10.621
 6016SOL     OW18790   2.921   2.972  10.020
 6016SOL    HW118791   2.849   2.921  10.057
 6016SOL    HW218792   2.985   2.906   9.992
 6017SOL     OW18793   2.883   2.103  10.276
 6017SOL    HW118794   2.880   2.056  10.192
 6017SOL    HW218795   2.881   2.034  10.342
 6018SOL     OW18796   2.467   3.353   9.789
 6018SOL    HW118797   2.515   3.302   9.724
 6018SOL    HW218798   2.397   3.396   9.740
 6019SOL     OW18799   3.588   2.251  10.688
 6019SOL    HW118800   3.660   2.313  10.685
 6019SOL    HW218801   3.616   2.179  10.631
 6020SOL     OW18802   2.123   3.204   9.601
 6020SOL    HW118803   2.031   3.201   9.578
 6020SOL    HW218804   2.124   3.243   9.689
 6021SOL     OW18805   1.975   2.887  11.031
 6021SOL    HW118806   1.899   2.863  11.083
 6021SOL    HW218807   2.049   2.848  11.078
 6022SOL     OW18808   2.550   2.040  10.807
 6022SOL    HW118809   2.637   2.019  10.773
 6022SOL    HW218810   2.566   2.086  10.889
 6023SOL     OW18811   1.891   2.270   9.329
 6023SOL    HW118812   1.812   2.219   9.314
 6023SOL    HW218813   1.910   2.311   9.244
 6024SOL     OW18814   3.287   2.720  10.708
 6024SOL    HW118815   3.237   2.781  10.654
 6024SOL    HW218816   3.375   2.722  10.671
 6025SOL     OW18817   3.039   3.197   9.428
 6025SOL    HW118818   2.948   3.168   9.429
 6025SOL    HW218819   3.066   3.197   9.520
 6026SOL     OW18820   2.482   2.692  10.742
 6026SOL    HW118821   2.537   2.768  10.729
 6026SOL    HW218822   2.544   2.619  10.751
 6027SOL     OW18823   3.348   3.644  10.293
 6027SOL    HW118824   3.371   3.701  10.220
 6027SOL    HW218825   3.432   3.611  10.325
 6028SOL     OW18826   2.574   2.424  11.010
 6028SOL    HW118827   2.621   2.482  11.071
 6028SOL    HW218828   2.593   2.336  11.041
 6029SOL     OW18829   3.335   3.058  10.939
 6029SOL    HW118830   3.325   3.072  11.033
 6029SOL    HW218831   3.428   3.074  10.922
 6030SOL     OW18832   2.235   3.604  10.877
 6030SOL    HW118833   2.151   3.647  10.860
 6030SOL    HW218834   2.211   3.520  10.917
 6031SOL     OW18835   3.525   2.742  10.569
 6031SOL    HW118836   3.524   2.656  10.526
 6031SOL    HW218837   3.518   2.805  10.497
 6032SOL     OW18838   3.079   2.181   9.768
 6032SOL    HW118839   3.141   2.109   9.761
 6032SOL    HW218840   3.108   2.231   9.844
 6033SOL     OW18841   2.441   2.596   9.987
 6033SOL    HW118842   2.485   2.679   9.970
 6033SOL    HW218843   2.379   2.585   9.915
 6034SOL     OW18844   3.618   2.228  10.960
 6034SOL    HW118845   3.602   2.242  10.867
 6034SOL    HW218846   3.548   2.170  10.989
 6035SOL     OW18847   3.620   2.789  10.823
 6035SOL    HW118848   3.610   2.882  10.841
 6035SOL    HW218849   3.594   2.780  10.731
 6036SOL     OW18850   2.726   3.229   9.352
 6036SOL    HW118851   2.686   3.257   9.434
 6036SOL    HW218852   2.741   3.310   9.303
 6037SOL     OW18853   2.523   3.649  10.247
 6037SOL    HW118854   2.502   3.740  10.227
 6037SOL    HW218855   2.619   3.644  10.243
 6038SOL     OW18856   2.731   2.832  10.164
 6038SOL    HW118857   2.781   2.759  10.201
 6038SOL    HW218858   2.694   2.877  10.239
 6039SOL     OW18859   2.939   2.850   9.398
 6039SOL    HW118860   2.919   2.902   9.320
 6039SOL    HW218861   3.013   2.796   9.372
 6040SOL     OW18862   3.710   3.416  10.150
 6040SOL    HW118863   3.630   3.397  10.101
 6040SOL    HW218864   3.714   3.347  10.216
 6041SOL     OW18865   2.088   3.162  11.165
 6041SOL    HW118866   2.023   3.100  11.132
 6041SOL    HW218867   2.065   3.175  11.257
 6042SOL     OW18868   1.949   3.092   9.975
 6042SOL    HW118869   1.960   3.047  10.059
 6042SOL    HW218870   2.016   3.053   9.919
 6043SOL     OW18871   2.546   3.268  10.941
 6043SOL    HW118872   2.466   3.226  10.973
 6043SOL    HW218873   2.544   3.356  10.978
 6044SOL     OW18874   3.672   2.038  10.547
 6044SOL    HW118875   3.665   1.943  10.549
 6044SOL    HW218876   3.689   2.059  10.455
 6045SOL     OW18877   3.556   3.351  10.405
 6045SOL    HW118878   3.478   3.328  10.355
 6045SOL    HW218879   3.566   3.280  10.468
 6046SOL     OW18880   2.203   2.408  10.591
 6046SOL    HW118881   2.191   2.324  10.636
 6046SOL    HW218882   2.285   2.397  10.542
 6047SOL     OW18883   2.692   3.441   9.986
 6047SOL    HW118884   2.671   3.496   9.911
 6047SOL    HW218885   2.618   3.380   9.993
 6048SOL     OW18886   3.292   2.091  10.426
 6048SOL    HW118887   3.311   2.006  10.467
 6048SOL    HW218888   3.243   2.139  10.492
 6049SOL     OW18889   2.873   1.879  10.446
 6049SOL    HW118890   2.817   1.813  10.405
 6049SOL    HW218891   2.960   1.840  10.448
 6050SOL     OW18892   2.635   3.195   9.631
 6050SOL    HW118893   2.607   3.103   9.638
 6050SOL    HW218894   2.718   3.198   9.680
 6051SOL     OW18895   2.482   3.414  10.596
 6051SOL    HW118896   2.482   3.496  10.646
 6051SOL    HW218897   2.570   3.409  10.559
 6052SOL     OW18898   3.219   1.914   9.479
 6052SOL    HW118899   3.251   1.844   9.423
 6052SOL    HW218900   3.130   1.888   9.502
 6053SOL     OW18901   3.157   2.325   9.989
 6053SOL    HW118902   3.105   2.405   9.994
 6053SOL    HW218903   3.153   2.288  10.077
 6054SOL     OW18904   3.443   2.058  10.189
 6054SOL    HW118905   3.388   2.083  10.264
 6054SOL    HW218906   3.444   2.136  10.133
 6055SOL     OW18907   1.904   2.928   9.619
 6055SOL    HW118908   1.998   2.921   9.600
 6055SOL    HW218909   1.877   2.840   9.641
 6056SOL     OW18910   2.750   3.524   9.651
 6056SOL    HW118911   2.678   3.504   9.591
 6056SOL    HW218912   2.718   3.598   9.703
 6057SOL     OW18913   2.081   2.510  11.302
 6057SOL    HW118914   1.995   2.498  11.342
 6057SOL    HW218915   2.065   2.503  11.208
 6058SOL     OW18916   1.850   2.287  11.785
 6058SOL    HW118917   1.763   2.284  11.826
 6058SOL    HW218918   1.855   2.206  11.733
 6059SOL     OW18919   2.429   3.157  12.352
 6059SOL    HW118920   2.343   3.164  12.311
 6059SOL    HW218921   2.446   3.244  12.386
 6060SOL     OW18922   3.428   3.375  11.881
 6060SOL    HW118923   3.385   3.351  11.964
 6060SOL    HW218924   3.356   3.378  11.818
 6061SOL     OW18925   2.992   2.561  11.869
 6061SOL    HW118926   3.041   2.642  11.855
 6061SOL    HW218927   2.946   2.574  11.951
 6062SOL     OW18928   3.630   2.467  11.401
 6062SOL    HW118929   3.609   2.459  11.308
 6062SOL    HW218930   3.596   2.386  11.440
 6063SOL     OW18931   2.608   3.000  12.217
 6063SOL    HW118932   2.542   3.038  12.275
 6063SOL    HW218933   2.648   3.075  12.173
 6064SOL     OW18934   2.734   2.627  12.995
 6064SOL    HW118935   2.725   2.698  13.059
 6064SOL    HW218936   2.757   2.671  12.913
 6065SOL     OW18937   2.547   2.857  11.816
 6065SOL    HW118938   2.614   2.850  11.885
 6065SOL    HW218939   2.479   2.913  11.855
 6066SOL     OW18940   2.576   3.013  12.988
 6066SOL    HW118941   2.623   3.090  13.018
 6066SOL    HW218942   2.495   3.048  12.950
 6067SOL     OW18943   2.194   3.280  12.238
 6067SOL    HW118944   2.119   3.244  12.191
 6067SOL    HW218945   2.239   3.334  12.173
 6068SOL     OW18946   3.320   3.364  12.531
 6068SOL    HW118947   3.375   3.442  12.541
 6068SOL    HW218948   3.253   3.373  12.599
 6069SOL     OW18949   3.470   2.306  11.917
 6069SOL    HW118950   3.399   2.327  11.856
 6069SOL    HW218951   3.479   2.384  11.972
 6070SOL     OW18952   2.084   3.577  11.651
 6070SOL    HW118953   2.113   3.638  11.720
 6070SOL    HW218954   2.157   3.576  11.589
 6071SOL     OW18955   2.999   3.204  12.866
 6071SOL    HW118956   3.041   3.197  12.952
 6071SOL    HW218957   2.947   3.124  12.858
 6072SOL     OW18958   2.092   3.304  11.708
 6072SOL    HW118959   2.075   3.398  11.711
 6072SOL    HW218960   2.033   3.267  11.774
 6073SOL     OW18961   2.125   2.958  12.061
 6073SOL    HW118962   2.121   2.871  12.100
 6073SOL    HW218963   2.067   3.012  12.116
 6074SOL     OW18964   2.467   3.647  12.599
 6074SOL    HW118965   2.386   3.633  12.648
 6074SOL    HW218966   2.494   3.736  12.624
 6075SOL     OW18967   2.443   2.850  11.309
 6075SOL    HW118968   2.492   2.895  11.240
 6075SOL    HW218969   2.482   2.882  11.390
 6076SOL     OW18970   3.456   1.989  12.637
 6076SOL    HW118971   3.475   2.070  12.590
 6076SOL    HW218972   3.439   2.017  12.727
 6077SOL     OW18973   1.988   2.520  11.733
 6077SOL    HW118974   1.945   2.436  11.747
 6077SOL    HW218975   1.974   2.568  11.815
 6078SOL     OW18976   3.700   3.611  11.514
 6078SOL    HW118977   3.772   3.586  11.572
 6078SOL    HW218978   3.718   3.702  11.491
 6079SOL     OW18979   1.894   3.451  11.293
 6079SOL    HW118980   1.878   3.359  11.314
 6079SOL    HW218981   1.872   3.498  11.373
 6080SOL     OW18982   3.551   2.782  11.821
 6080SOL    HW118983   3.634   2.737  11.802
 6080SOL    HW218984   3.531   2.830  11.741
 6081SOL     OW18985   3.504   2.965  11.604
 6081SOL    HW118986   3.589   2.968  11.560
 6081SOL    HW218987   3.510   3.029  11.675
 6082SOL     OW18988   1.989   2.599  12.756
 6082SOL    HW118989   2.081   2.619  12.773
 6082SOL    HW218990   1.944   2.682  12.773
 6083SOL     OW18991   2.478   3.253  11.906
 6083SOL    HW118992   2.433   3.169  11.915
 6083SOL    HW218993   2.461   3.280  11.816
 6084SOL     OW18994   3.148   3.098  12.594
 6084SOL    HW118995   3.180   3.031  12.533
 6084SOL    HW218996   3.208   3.093  12.668
 6085SOL     OW18997   2.695   1.864  11.685
 6085SOL    HW118998   2.733   1.948  11.660
 6085SOL    HW218999   2.600   1.880  11.683
 6086SOL     OW19000   2.051   2.829  12.448
 6086SOL    HW119001   2.135   2.786  12.431
 6086SOL    HW219002   1.987   2.775  12.402
 6087SOL     OW19003   3.389   2.860  11.373
 6087SOL    HW119004   3.320   2.803  11.407
 6087SOL    HW219005   3.432   2.894  11.452
 6088SOL     OW19006   3.084   3.667  12.800
 6088SOL    HW119007   3.057   3.728  12.731
 6088SOL    HW219008   3.084   3.582  12.758
 6089SOL     OW19009   3.327   3.282  12.119
 6089SOL    HW119010   3.261   3.297  12.187
 6089SOL    HW219011   3.316   3.190  12.094
 6090SOL     OW19012   3.507   3.608  11.752
 6090SOL    HW119013   3.499   3.573  11.664
 6090SOL    HW219014   3.492   3.533  11.810
 6091SOL     OW19015   2.468   2.599  11.446
 6091SOL    HW119016   2.471   2.678  11.392
 6091SOL    HW219017   2.404   2.618  11.514
 6092SOL     OW19018   3.139   2.225  12.106
 6092SOL    HW119019   3.051   2.188  12.115
 6092SOL    HW219020   3.193   2.170  12.164
 6093SOL     OW19021   3.435   3.539  11.481
 6093SOL    HW119022   3.528   3.562  11.476
 6093SOL    HW219023   3.410   3.520  11.390
 6094SOL     OW19024   2.654   2.478  12.619
 6094SOL    HW119025   2.631   2.455  12.709
 6094SOL    HW219026   2.607   2.414  12.565
 6095SOL     OW19027   3.255   2.336  12.850
 6095SOL    HW119028   3.259   2.380  12.935
 6095SOL    HW219029   3.312   2.260  12.860
 6096SOL     OW19030   2.812   2.747  12.757
 6096SOL    HW119031   2.868   2.680  12.719
 6096SOL    HW219032   2.765   2.784  12.682
 6097SOL     OW19033   2.861   2.276  12.407
 6097SOL    HW119034   2.777   2.295  12.448
 6097SOL    HW219035   2.839   2.231  12.326
 6098SOL     OW19036   2.915   2.561  11.597
 6098SOL    HW119037   2.933   2.555  11.691
 6098SOL    HW219038   2.832   2.515  11.585
 6099SOL     OW19039   1.950   2.684  11.950
 6099SOL    HW119040   2.033   2.683  11.999
 6099SOL    HW219041   1.903   2.760  11.984
 6100SOL     OW19042   1.980   3.714  12.750
 6100SOL    HW119043   1.986   3.692  12.843
 6100SOL    HW219044   1.887   3.703  12.728
 6101SOL     OW19045   2.758   2.216  11.373
 6101SOL    HW119046   2.804   2.270  11.308
 6101SOL    HW219047   2.730   2.139  11.324
 6102SOL     OW19048   3.569   2.434  13.002
 6102SOL    HW119049   3.532   2.508  12.953
 6102SOL    HW219050   3.594   2.371  12.935
 6103SOL     OW19051   3.239   3.003  11.712
 6103SOL    HW119052   3.319   2.991  11.661
 6103SOL    HW219053   3.188   3.066  11.661
 6104SOL     OW19054   2.443   2.063  12.080
 6104SOL    HW119055   2.348   2.074  12.083
 6104SOL    HW219056   2.476   2.143  12.039
 6105SOL     OW19057   2.863   3.307  11.641
 6105SOL    HW119058   2.829   3.382  11.592
 6105SOL    HW219059   2.841   3.326  11.732
 6106SOL     OW19060   2.213   3.675  12.009
 6106SOL    HW119061   2.263   3.596  12.028
 6106SOL    HW219062   2.271   3.747  12.034
 6107SOL     OW19063   3.668   2.923  12.041
 6107SOL    HW119064   3.616   2.895  11.965
 6107SOL    HW219065   3.606   2.926  12.113
 6108SOL     OW19066   3.089   3.400  12.684
 6108SOL    HW119067   3.077   3.328  12.745
 6108SOL    HW219068   3.020   3.387  12.618
 6109SOL     OW19069   2.179   2.819  11.426
 6109SOL    HW119070   2.260   2.840  11.380
 6109SOL    HW219071   2.147   2.739  11.385
 6110SOL     OW19072   3.342   2.611  11.896
 6110SOL    HW119073   3.338   2.569  11.982
 6110SOL    HW219074   3.421   2.666  11.900
 6111SOL     OW19075   2.331   3.128  12.909
 6111SOL    HW119076   2.304   3.133  12.817
 6111SOL    HW219077   2.248   3.126  12.958
 6112SOL     OW19078   2.977   3.644  11.392
 6112SOL    HW119079   2.911   3.599  11.446
 6112SOL    HW219080   3.007   3.577  11.331
 6113SOL     OW19081   3.485   3.248  11.261
 6113SOL    HW119082   3.442   3.332  11.243
 6113SOL    HW219083   3.419   3.182  11.240
 6114SOL     OW19084   2.328   3.598  11.497
 6114SOL    HW119085   2.366   3.662  11.557
 6114SOL    HW219086   2.400   3.572  11.440
 6115SOL     OW19087   3.263   1.969  11.611
 6115SOL    HW119088   3.256   1.944  11.519
 6115SOL    HW219089   3.357   1.975  11.628
 6116SOL     OW19090   2.123   3.652  12.393
 6116SOL    HW119091   2.169   3.581  12.436
 6116SOL    HW219092   2.106   3.620  12.304
 6117SOL     OW19093   2.801   3.564  12.070
 6117SOL    HW119094   2.878   3.513  12.093
 6117SOL    HW219095   2.758   3.514  12.001
 6118SOL     OW19096   2.257   2.545  11.647
 6118SOL    HW119097   2.264   2.459  11.606
 6118SOL    HW219098   2.165   2.551  11.674
 6119SOL     OW19099   3.392   2.086  12.897
 6119SOL    HW119100   3.403   2.107  12.990
 6119SOL    HW219101   3.325   2.019  12.894
 6120SOL     OW19102   2.528   1.987  11.267
 6120SOL    HW119103   2.568   1.906  11.300
 6120SOL    HW219104   2.460   1.957  11.206
 6121SOL     OW19105   2.628   2.147  12.926
 6121SOL    HW119106   2.707   2.092  12.920
 6121SOL    HW219107   2.579   2.111  13.000
 6122SOL     OW19108   2.738   3.382  12.367
 6122SOL    HW119109   2.721   3.346  12.280
 6122SOL    HW219110   2.808   3.328  12.403
 6123SOL     OW19111   3.201   2.452  12.606
 6123SOL    HW119112   3.233   2.421  12.690
 6123SOL    HW219113   3.239   2.540  12.597
 6124SOL     OW19114   2.680   3.252  12.117
 6124SOL    HW119115   2.764   3.240  12.074
 6124SOL    HW219116   2.617   3.258  12.045
 6125SOL     OW19117   2.787   2.369  12.073
 6125SOL    HW119118   2.763   2.361  11.981
 6125SOL    HW219119   2.822   2.282  12.096
 6126SOL     OW19120   2.429   1.915  11.666
 6126SOL    HW119121   2.376   1.901  11.745
 6126SOL    HW219122   2.406   2.004  11.638
 6127SOL     OW19123   3.289   3.062  11.211
 6127SOL    HW119124   3.320   2.987  11.262
 6127SOL    HW219125   3.204   3.084  11.249
 6128SOL     OW19126   2.806   2.113  11.628
 6128SOL    HW119127   2.783   2.149  11.542
 6128SOL    HW219128   2.900   2.126  11.635
 6129SOL     OW19129   2.944   2.547  12.630
 6129SOL    HW119130   2.880   2.476  12.637
 6129SOL    HW219131   3.028   2.501  12.625
 6130SOL     OW19132   3.081   3.434  11.966
 6130SOL    HW119133   3.096   3.500  11.899
 6130SOL    HW219134   3.152   3.446  12.030
 6131SOL     OW19135   2.335   3.014  11.899
 6131SOL    HW119136   2.266   2.997  11.964
 6131SOL    HW219137   2.291   3.001  11.815
 6132SOL     OW19138   3.126   3.655  11.782
 6132SOL    HW119139   3.174   3.720  11.730
 6132SOL    HW219140   3.052   3.703  11.819
 6133SOL     OW19141   2.887   2.398  11.196
 6133SOL    HW119142   2.843   2.481  11.178
 6133SOL    HW219143   2.951   2.420  11.264
 6134SOL     OW19144   1.939   2.425  12.555
 6134SOL    HW119145   2.033   2.421  12.536
 6134SOL    HW219146   1.933   2.483  12.631
 6135SOL     OW19147   2.725   2.318  11.809
 6135SOL    HW119148   2.689   2.376  11.742
 6135SOL    HW219149   2.753   2.240  11.762
 6136SOL     OW19150   2.875   1.916  11.921
 6136SOL    HW119151   2.820   1.906  11.844
 6136SOL    HW219152   2.854   1.841  11.976
 6137SOL     OW19153   3.302   3.023  12.029
 6137SOL    HW119154   3.231   2.959  12.028
 6137SOL    HW219155   3.328   3.031  11.937
 6138SOL     OW19156   3.327   2.472  12.142
 6138SOL    HW119157   3.273   2.393  12.144
 6138SOL    HW219158   3.385   2.464  12.218
 6139SOL     OW19159   3.723   2.677  11.547
 6139SOL    HW119160   3.767   2.622  11.611
 6139SOL    HW219161   3.686   2.616  11.483
 6140SOL     OW19162   2.352   3.281  11.324
 6140SOL    HW119163   2.276   3.254  11.376
 6140SOL    HW219164   2.342   3.235  11.241
 6141SOL     OW19165   3.530   3.128  11.814
 6141SOL    HW119166   3.625   3.129  11.824
 6141SOL    HW219167   3.502   3.217  11.836
 6142SOL     OW19168   3.256   2.434  11.243
 6142SOL    HW119169   3.194   2.414  11.313
 6142SOL    HW219170   3.340   2.402  11.276
 6143SOL     OW19171   3.612   3.095  12.734
 6143SOL    HW119172   3.700   3.061  12.717
 6143SOL    HW219173   3.628   3.185  12.763
 6144SOL     OW19174   2.917   3.214  12.503
 6144SOL    HW119175   2.842   3.183  12.554
 6144SOL    HW219176   2.993   3.173  12.545
 6145SOL     OW19177   3.469   3.492  12.829
 6145SOL    HW119178   3.459   3.525  12.740
 6145SOL    HW219179   3.549   3.439  12.827
 6146SOL     OW19180   2.995   3.070  12.274
 6146SOL    HW119181   2.936   3.109  12.339
 6146SOL    HW219182   2.965   3.105  12.190
 6147SOL     OW19183   3.489   2.956  12.246
 6147SOL    HW119184   3.479   3.018  12.318
 6147SOL    HW219185   3.413   2.973  12.190
 6148SOL     OW19186   2.789   1.953  12.565
 6148SOL    HW119187   2.811   1.934  12.473
 6148SOL    HW219188   2.869   1.992  12.600
 6149SOL     OW19189   2.846   2.977  12.895
 6149SOL    HW119190   2.755   2.994  12.918
 6149SOL    HW219191   2.843   2.898  12.840
 6150SOL     OW19192   2.571   2.924  11.543
 6150SOL    HW119193   2.557   2.904  11.635
 6150SOL    HW219194   2.647   2.870  11.518
 6151SOL     OW19195   2.279   2.675  12.423
 6151SOL    HW119196   2.348   2.689  12.489
 6151SOL    HW219197   2.242   2.590  12.445
 6152SOL     OW19198   3.129   2.238  12.452
 6152SOL    HW119199   3.161   2.316  12.498
 6152SOL    HW219200   3.039   2.259  12.429
 6153SOL     OW19201   1.936   3.435  12.527
 6153SOL    HW119202   1.908   3.510  12.474
 6153SOL    HW219203   2.031   3.436  12.521
 6154SOL     OW19204   2.203   2.978  11.660
 6154SOL    HW119205   2.206   3.052  11.600
 6154SOL    HW219206   2.200   2.901  11.603
 6155SOL     OW19207   2.404   2.391  12.033
 6155SOL    HW119208   2.414   2.455  11.962
 6155SOL    HW219209   2.464   2.420  12.101
 6156SOL     OW19210   3.109   3.212  11.562
 6156SOL    HW119211   3.165   3.282  11.594
 6156SOL    HW219212   3.022   3.233  11.595
 6157SOL     OW19213   3.149   3.322  12.321
 6157SOL    HW119214   3.206   3.327  12.398
 6157SOL    HW219215   3.094   3.246  12.336
 6158SOL     OW19216   3.438   2.480  11.656
 6158SOL    HW119217   3.390   2.532  11.721
 6158SOL    HW219218   3.480   2.545  11.600
 6159SOL     OW19219   2.207   3.392  12.482
 6159SOL    HW119220   2.196   3.347  12.398
 6159SOL    HW219221   2.302   3.403  12.491
 6160SOL     OW19222   2.286   2.606  12.783
 6160SOL    HW119223   2.344   2.649  12.721
 6160SOL    HW219224   2.334   2.529  12.813
 6161SOL     OW19225   3.468   2.641  12.857
 6161SOL    HW119226   3.383   2.684  12.851
 6161SOL    HW219227   3.521   2.684  12.789
 6162SOL     OW19228   2.856   1.993  12.918
 6162SOL    HW119229   2.917   2.065  12.901
 6162SOL    HW219230   2.906   1.914  12.896
 6163SOL     OW19231   2.352   1.903  12.935
 6163SOL    HW119232   2.307   1.853  12.867
 6163SOL    HW219233   2.292   1.975  12.956
 6164SOL     OW19234   2.453   2.736  12.206
 6164SOL    HW119235   2.486   2.826  12.205
 6164SOL    HW219236   2.393   2.734  12.281
 6165SOL     OW19237   3.213   2.721  12.195
 6165SOL    HW119238   3.128   2.707  12.153
 6165SOL    HW219239   3.258   2.637  12.187
 6166SOL     OW19240   3.062   2.390  11.435
 6166SOL    HW119241   3.071   2.311  11.488
 6166SOL    HW219242   3.020   2.454  11.492
 6167SOL     OW19243   1.909   3.174  12.447
 6167SOL    HW119244   1.940   3.119  12.518
 6167SOL    HW219245   1.914   3.263  12.481
 6168SOL     OW19246   2.579   2.485  12.225
 6168SOL    HW119247   2.656   2.469  12.169
 6168SOL    HW219248   2.556   2.576  12.208
 6169SOL     OW19249   3.592   2.820  13.037
 6169SOL    HW119250   3.553   2.754  12.980
 6169SOL    HW219251   3.527   2.835  13.106
 6170SOL     OW19252   3.483   2.240  11.534
 6170SOL    HW119253   3.509   2.174  11.598
 6170SOL    HW219254   3.459   2.316  11.586
 6171SOL     OW19255   2.889   2.619  12.130
 6171SOL    HW119256   2.882   2.637  12.224
 6171SOL    HW219257   2.863   2.528  12.121
 6172SOL     OW19258   2.847   3.430  12.894
 6172SOL    HW119259   2.828   3.470  12.809
 6172SOL    HW219260   2.889   3.347  12.871
 6173SOL     OW19261   3.704   3.358  12.769
 6173SOL    HW119262   3.729   3.389  12.682
 6173SOL    HW219263   3.783   3.367  12.821
 6174SOL     OW19264   2.214   2.778  12.985
 6174SOL    HW119265   2.296   2.801  13.029
 6174SOL    HW219266   2.241   2.718  12.915
 6175SOL     OW19267   3.390   2.134  11.299
 6175SOL    HW119268   3.325   2.069  11.326
 6175SOL    HW219269   3.423   2.170  11.381
 6176SOL     OW19270   3.149   2.686  11.201
 6176SOL    HW119271   3.193   2.601  11.205
 6176SOL    HW219272   3.182   2.726  11.120
 6177SOL     OW19273   2.930   3.200  12.028
 6177SOL    HW119274   2.935   3.128  11.965
 6177SOL    HW219275   2.989   3.267  11.992
 6178SOL     OW19276   2.176   2.682  12.113
 6178SOL    HW119277   2.267   2.706  12.093
 6178SOL    HW219278   2.183   2.600  12.162
 6179SOL     OW19279   2.996   2.237  12.855
 6179SOL    HW119280   2.948   2.289  12.919
 6179SOL    HW219281   3.083   2.276  12.852
 6180SOL     OW19282   3.027   2.062  12.643
 6180SOL    HW119283   3.014   2.124  12.715
 6180SOL    HW219284   3.070   2.113  12.575
 6181SOL     OW19285   1.868   3.179  11.366
 6181SOL    HW119286   1.781   3.195  11.330
 6181SOL    HW219287   1.864   3.090  11.401
 6182SOL     OW19288   1.960   3.637  12.111
 6182SOL    HW119289   1.928   3.559  12.065
 6182SOL    HW219290   2.044   3.657  12.070
 6183SOL     OW19291   2.354   3.438  12.077
 6183SOL    HW119292   2.421   3.502  12.101
 6183SOL    HW219293   2.399   3.376  12.019
 6184SOL     OW19294   2.838   2.650  12.396
 6184SOL    HW119295   2.899   2.631  12.467
 6184SOL    HW219296   2.754   2.615  12.428
 6185SOL     OW19297   1.886   2.397  12.289
 6185SOL    HW119298   1.967   2.404  12.239
 6185SOL    HW219299   1.913   2.411  12.380
 6186SOL     OW19300   3.242   2.797  12.829
 6186SOL    HW119301   3.264   2.890  12.826
 6186SOL    HW219302   3.238   2.770  12.738
 6187SOL     OW19303   2.678   2.432  11.543
 6187SOL    HW119304   2.687   2.359  11.481
 6187SOL    HW219305   2.608   2.486  11.507
 6188SOL     OW19306   3.501   2.463  12.354
 6188SOL    HW119307   3.490   2.403  12.427
 6188SOL    HW219308   3.588   2.443  12.318
 6189SOL     OW19309   2.103   3.410  12.895
 6189SOL    HW119310   2.080   3.477  12.959
 6189SOL    HW219311   2.108   3.329  12.946
 6190SOL     OW19312   2.537   2.320  12.434
 6190SOL    HW119313   2.524   2.232  12.399
 6190SOL    HW219314   2.549   2.375  12.356
 6191SOL     OW19315   2.787   3.533  12.642
 6191SOL    HW119316   2.761   3.493  12.559
 6191SOL    HW219317   2.779   3.627  12.628
 6192SOL     OW19318   2.324   2.381  11.388
 6192SOL    HW119319   2.388   2.451  11.394
 6192SOL    HW219320   2.245   2.423  11.355
 6193SOL     OW19321   2.004   3.005  12.647
 6193SOL    HW119322   2.005   2.955  12.729
 6193SOL    HW219323   2.022   2.940  12.579
 6194SOL     OW19324   3.182   2.905  12.392
 6194SOL    HW119325   3.205   2.842  12.324
 6194SOL    HW219326   3.115   2.961  12.352
 6195SOL     OW19327   3.175   2.718  11.477
 6195SOL    HW119328   3.101   2.686  11.528
 6195SOL    HW219329   3.150   2.704  11.385
 6196SOL     OW19330   3.641   3.600  12.329
 6196SOL    HW119331   3.699   3.627  12.257
 6196SOL    HW219332   3.613   3.512  12.305
 6197SOL     OW19333   3.106   3.594  12.279
 6197SOL    HW119334   3.189   3.617  12.237
 6197SOL    HW219335   3.114   3.501  12.299
 6198SOL     OW19336   1.948   3.128  12.183
 6198SOL    HW119337   1.932   3.143  12.276
 6198SOL    HW219338   1.874   3.074  12.155
 6199SOL     OW19339   2.541   3.528  12.908
 6199SOL    HW119340   2.483   3.604  12.912
 6199SOL    HW219341   2.603   3.548  12.837
 6200SOL     OW19342   3.570   2.015  11.682
 6200SOL    HW119343   3.638   2.002  11.616
 6200SOL    HW219344   3.560   1.928  11.722
 6201SOL     OW19345   3.252   3.430  11.661
 6201SOL    HW119346   3.311   3.464  11.594
 6201SOL    HW219347   3.204   3.507  11.692
 6202SOL     OW19348   1.999   3.650  13.010
 6202SOL    HW119349   1.947   3.587  13.059
 6202SOL    HW219350   2.046   3.699  13.077
 6203SOL     OW19351   3.139   2.789  11.843
 6203SOL    HW119352   3.213   2.729  11.853
 6203SOL    HW219353   3.173   2.861  11.790
 6204SOL     OW19354   2.669   3.137  12.598
 6204SOL    HW119355   2.641   3.177  12.680
 6204SOL    HW219356   2.600   3.160  12.536
 6205SOL     OW19357   2.536   3.481  11.331
 6205SOL    HW119358   2.546   3.499  11.237
 6205SOL    HW219359   2.477   3.406  11.334
 6206SOL     OW19360   3.480   3.589  12.562
 6206SOL    HW119361   3.536   3.592  12.485
 6206SOL    HW219362   3.467   3.681  12.585
 6207SOL     OW19363   3.700   2.043  12.138
 6207SOL    HW119364   3.732   1.956  12.114
 6207SOL    HW219365   3.614   2.050  12.097
 6208SOL     OW19366   3.070   3.464  11.209
 6208SOL    HW119367   3.059   3.372  11.233
 6208SOL    HW219368   3.008   3.477  11.136
 6209SOL     OW19369   2.686   2.869  12.546
 6209SOL    HW119370   2.730   2.864  12.461
 6209SOL    HW219371   2.682   2.962  12.566
 6210SOL     OW19372   2.779   2.773  11.463
 6210SOL    HW119373   2.839   2.805  11.396
 6210SOL    HW219374   2.828   2.705  11.509
 6211SOL     OW19375   3.348   3.496  11.215
 6211SOL    HW119376   3.255   3.483  11.198
 6211SOL    HW219377   3.388   3.501  11.128
 6212SOL     OW19378   2.230   3.166  12.663
 6212SOL    HW119379   2.217   3.243  12.608
 6212SOL    HW219380   2.152   3.112  12.649
 6213SOL     OW19381   3.461   3.141  12.449
 6213SOL    HW119382   3.530   3.132  12.514
 6213SOL    HW219383   3.404   3.211  12.483
 6214SOL     OW19384   2.921   2.972  11.882
 6214SOL    HW119385   2.849   2.921  11.919
 6214SOL    HW219386   2.985   2.906  11.854
 6215SOL     OW19387   2.883   2.103  12.138
 6215SOL    HW119388   2.880   2.056  12.054
 6215SOL    HW219389   2.881   2.035  12.204
 6216SOL     OW19390   2.467   3.353  11.651
 6216SOL    HW119391   2.515   3.302  11.586
 6216SOL    HW219392   2.397   3.396  11.602
 6217SOL     OW19393   3.588   2.251  12.550
 6217SOL    HW119394   3.660   2.313  12.547
 6217SOL    HW219395   3.616   2.179  12.493
 6218SOL     OW19396   2.123   3.204  11.464
 6218SOL    HW119397   2.031   3.201  11.440
 6218SOL    HW219398   2.124   3.243  11.551
 6219SOL     OW19399   1.975   2.886  12.893
 6219SOL    HW119400   1.898   2.863  12.945
 6219SOL    HW219401   2.049   2.848  12.941
 6220SOL     OW19402   2.550   2.040  12.669
 6220SOL    HW119403   2.637   2.019  12.636
 6220SOL    HW219404   2.566   2.086  12.751
 6221SOL     OW19405   3.287   2.720  12.570
 6221SOL    HW119406   3.237   2.781  12.516
 6221SOL    HW219407   3.375   2.722  12.533
 6222SOL     OW19408   3.039   3.197  11.290
 6222SOL    HW119409   2.948   3.168  11.291
 6222SOL    HW219410   3.066   3.197  11.382
 6223SOL     OW19411   2.482   2.692  12.604
 6223SOL    HW119412   2.537   2.769  12.591
 6223SOL    HW219413   2.544   2.619  12.613
 6224SOL     OW19414   3.348   3.644  12.155
 6224SOL    HW119415   3.371   3.701  12.082
 6224SOL    HW219416   3.432   3.611  12.187
 6225SOL     OW19417   2.574   2.424  12.872
 6225SOL    HW119418   2.621   2.481  12.933
 6225SOL    HW219419   2.593   2.336  12.903
 6226SOL     OW19420   3.335   3.058  12.801
 6226SOL    HW119421   3.325   3.072  12.895
 6226SOL    HW219422   3.428   3.074  12.784
 6227SOL     OW19423   2.234   3.604  12.739
 6227SOL    HW119424   2.151   3.647  12.722
 6227SOL    HW219425   2.211   3.520  12.779
 6228SOL     OW19426   3.525   2.742  12.431
 6228SOL    HW119427   3.524   2.656  12.388
 6228SOL    HW219428   3.518   2.805  12.359
 6229SOL     OW19429   3.079   2.181  11.630
 6229SOL    HW119430   3.141   2.109  11.623
 6229SOL    HW219431   3.108   2.231  11.706
 6230SOL     OW19432   2.441   2.596  11.849
 6230SOL    HW119433   2.485   2.679  11.831
 6230SOL    HW219434   2.379   2.585  11.777
 6231SOL     OW19435   3.618   2.229  12.823
 6231SOL    HW119436   3.602   2.242  12.729
 6231SOL    HW219437   3.548   2.170  12.851
 6232SOL     OW19438   3.620   2.789  12.685
 6232SOL    HW119439   3.610   2.882  12.703
 6232SOL    HW219440   3.594   2.780  12.593
 6233SOL     OW19441   2.726   3.229  11.214
 6233SOL    HW119442   2.686   3.257  11.296
 6233SOL    HW219443   2.741   3.310  11.165
 6234SOL     OW19444   2.523   3.649  12.109
 6234SOL    HW119445   2.502   3.740  12.089
 6234SOL    HW219446   2.619   3.644  12.105
 6235SOL     OW19447   2.731   2.832  12.026
 6235SOL    HW119448   2.781   2.759  12.063
 6235SOL    HW219449   2.694   2.877  12.101
 6236SOL     OW19450   2.939   2.850  11.260
 6236SOL    HW119451   2.919   2.902  11.182
 6236SOL    HW219452   3.013   2.796  11.234
 6237SOL     OW19453   3.710   3.416  12.012
 6237SOL    HW119454   3.630   3.397  11.963
 6237SOL    HW219455   3.714   3.347  12.078
 6238SOL     OW19456   2.088   3.162  13.027
 6238SOL    HW119457   2.022   3.101  12.994
 6238SOL    HW219458   2.065   3.175  13.119
 6239SOL     OW19459   1.949   3.091  11.837
 6239SOL    HW119460   1.961   3.047  11.921
 6239SOL    HW219461   2.016   3.053  11.781
 6240SOL     OW19462   2.546   3.268  12.803
 6240SOL    HW119463   2.466   3.226  12.835
 6240SOL    HW219464   2.544   3.356  12.840
 6241SOL     OW19465   3.673   2.039  12.409
 6241SOL    HW119466   3.665   1.943  12.411
 6241SOL    HW219467   3.689   2.059  12.317
 6242SOL     OW19468   3.556   3.351  12.267
 6242SOL    HW119469   3.478   3.328  12.217
 6242SOL    HW219470   3.566   3.280  12.330
 6243SOL     OW19471   2.201   2.408  12.448
 6243SOL    HW119472   2.188   2.324  12.491
 6243SOL    HW219473   2.283   2.398  12.400
 6244SOL     OW19474   2.692   3.441  11.848
 6244SOL    HW119475   2.671   3.496  11.773
 6244SOL    HW219476   2.618   3.380  11.855
 6245SOL     OW19477   3.292   2.091  12.288
 6245SOL    HW119478   3.311   2.006  12.329
 6245SOL    HW219479   3.243   2.139  12.354
 6246SOL     OW19480   2.873   1.879  12.308
 6246SOL    HW119481   2.817   1.813  12.267
 6246SOL    HW219482   2.960   1.840  12.310
 6247SOL     OW19483   2.635   3.195  11.493
 6247SOL    HW119484   2.607   3.103  11.500
 6247SOL    HW219485   2.718   3.198  11.542
 6248SOL     OW19486   2.482   3.414  12.458
 6248SOL    HW119487   2.482   3.496  12.507
 6248SOL    HW219488   2.570   3.409  12.421
 6249SOL     OW19489   3.219   1.914  11.341
 6249SOL    HW119490   3.251   1.844  11.284
 6249SOL    HW219491   3.130   1.888  11.364
 6250SOL     OW19492   3.157   2.325  11.851
 6250SOL    HW119493   3.105   2.405  11.856
 6250SOL    HW219494   3.153   2.288  11.939
 6251SOL     OW19495   3.443   2.058  12.051
 6251SOL    HW119496   3.388   2.083  12.126
 6251SOL    HW219497   3.444   2.136  11.995
 6252SOL     OW19498   1.904   2.928  11.481
 6252SOL    HW119499   1.998   2.921  11.463
 6252SOL    HW219500   1.877   2.839  11.503
 6253SOL     OW19501   2.750   3.523  11.513
 6253SOL    HW119502   2.678   3.505  11.453
 6253SOL    HW219503   2.718   3.598  11.565
 6254SOL     OW19504   2.079   2.510  13.166
 6254SOL    HW119505   1.993   2.497  13.204
 6254SOL    HW219506   2.065   2.503  13.071
 6255SOL     OW19507   1.862   2.264  13.652
 6255SOL    HW119508   1.768   2.273  13.667
 6255SOL    HW219509   1.869   2.206  13.576
 6256SOL     OW19510   3.381   3.356  13.730
 6256SOL    HW119511   3.329   3.283  13.763
 6256SOL    HW219512   3.337   3.382  13.648
 6257SOL     OW19513   2.991   2.559  13.728
 6257SOL    HW119514   3.043   2.637  13.708
 6257SOL    HW219515   2.945   2.580  13.809
 6258SOL     OW19516   3.643   2.465  13.260
 6258SOL    HW119517   3.616   2.458  13.168
 6258SOL    HW219518   3.599   2.391  13.302
 6259SOL     OW19519   2.544   2.871  13.671
 6259SOL    HW119520   2.598   2.853  13.748
 6259SOL    HW219521   2.470   2.921  13.705
 6260SOL     OW19522   3.482   2.322  13.755
 6260SOL    HW119523   3.394   2.310  13.717
 6260SOL    HW219524   3.473   2.398  13.812
 6261SOL     OW19525   2.087   3.578  13.520
 6261SOL    HW119526   2.122   3.627  13.595
 6261SOL    HW219527   2.158   3.579  13.456
 6262SOL     OW19528   2.094   3.303  13.570
 6262SOL    HW119529   2.076   3.397  13.573
 6262SOL    HW219530   2.034   3.264  13.634
 6263SOL     OW19531   2.103   2.972   0.029
 6263SOL    HW119532   2.122   2.910   0.099
 6263SOL    HW219533   2.032   3.026   0.065
 6264SOL     OW19534   2.443   2.849  13.169
 6264SOL    HW119535   2.491   2.895  13.099
 6264SOL    HW219536   2.481   2.882  13.250
 6265SOL     OW19537   1.987   2.514  13.596
 6265SOL    HW119538   1.949   2.428  13.613
 6265SOL    HW219539   1.968   2.565  13.675
 6266SOL     OW19540   3.699   3.612  13.374
 6266SOL    HW119541   3.772   3.586  13.430
 6266SOL    HW219542   3.715   3.704  13.355
 6267SOL     OW19543   1.893   3.451  13.155
 6267SOL    HW119544   1.877   3.359  13.177
 6267SOL    HW219545   1.874   3.498  13.236
 6268SOL     OW19546   3.548   2.779  13.671
 6268SOL    HW119547   3.634   2.743  13.648
 6268SOL    HW219548   3.525   2.835  13.596
 6269SOL     OW19549   3.504   2.965  13.463
 6269SOL    HW119550   3.588   2.967  13.418
 6269SOL    HW219551   3.511   3.030  13.532
 6270SOL     OW19552   2.467   3.244  13.758
 6270SOL    HW119553   2.422   3.160  13.764
 6270SOL    HW219554   2.444   3.277  13.671
 6271SOL     OW19555   2.699   1.864  13.545
 6271SOL    HW119556   2.733   1.950  13.521
 6271SOL    HW219557   2.604   1.875  13.545
 6272SOL     OW19558   3.388   2.859  13.235
 6272SOL    HW119559   3.319   2.802  13.269
 6272SOL    HW219560   3.430   2.895  13.313
 6273SOL     OW19561   3.510   3.599  13.615
 6273SOL    HW119562   3.496   3.570  13.525
 6273SOL    HW219563   3.505   3.519  13.668
 6274SOL     OW19564   2.467   2.600  13.306
 6274SOL    HW119565   2.468   2.679  13.252
 6274SOL    HW219566   2.401   2.618  13.373
 6275SOL     OW19567   3.116   2.188   0.043
 6275SOL    HW119568   3.039   2.138   0.069
 6275SOL    HW219569   3.190   2.140   0.080
 6276SOL     OW19570   3.435   3.543  13.340
 6276SOL    HW119571   3.528   3.564  13.337
 6276SOL    HW219572   3.412   3.522  13.250
 6277SOL     OW19573   2.912   2.559  13.458
 6277SOL    HW119574   2.929   2.549  13.551
 6277SOL    HW219575   2.829   2.513  13.443
 6278SOL     OW19576   1.946   2.685  13.808
 6278SOL    HW119577   2.024   2.685  13.864
 6278SOL    HW219578   1.893   2.757  13.842
 6279SOL     OW19579   2.758   2.215  13.234
 6279SOL    HW119580   2.804   2.269  13.169
 6279SOL    HW219581   2.730   2.138  13.186
 6280SOL     OW19582   3.224   2.997  13.550
 6280SOL    HW119583   3.314   2.995  13.516
 6280SOL    HW219584   3.182   3.068  13.502
 6281SOL     OW19585   2.859   3.302  13.501
 6281SOL    HW119586   2.829   3.380  13.453
 6281SOL    HW219587   2.827   3.315  13.590
 6282SOL     OW19588   2.258   3.668  13.793
 6282SOL    HW119589   2.207   3.605  13.844
 6282SOL    HW219590   2.322   3.703  13.855
 6283SOL     OW19591   3.653   2.913  13.900
 6283SOL    HW119592   3.598   2.900  13.822
 6283SOL    HW219593   3.592   2.907   0.073
 6284SOL     OW19594   2.180   2.819  13.289
 6284SOL    HW119595   2.259   2.840  13.241
 6284SOL    HW219596   2.147   2.739  13.248
 6285SOL     OW19597   3.353   2.597  13.745
 6285SOL    HW119598   3.345   2.560  13.833
 6285SOL    HW219599   3.426   2.659  13.751
 6286SOL     OW19600   2.976   3.645  13.253
 6286SOL    HW119601   2.912   3.600  13.308
 6286SOL    HW219602   3.007   3.578  13.192
 6287SOL     OW19603   3.486   3.248  13.123
 6287SOL    HW119604   3.443   3.331  13.105
 6287SOL    HW219605   3.419   3.182  13.102
 6288SOL     OW19606   2.328   3.598  13.357
 6288SOL    HW119607   2.365   3.660  13.419
 6288SOL    HW219608   2.400   3.573  13.300
 6289SOL     OW19609   3.264   1.976  13.468
 6289SOL    HW119610   3.256   1.947  13.377
 6289SOL    HW219611   3.359   1.975  13.486
 6290SOL     OW19612   2.792   3.545   0.006
 6290SOL    HW119613   2.803   3.478   0.074
 6290SOL    HW219614   2.750   3.499  13.834
 6291SOL     OW19615   2.255   2.547  13.507
 6291SOL    HW119616   2.266   2.459  13.472
 6291SOL    HW219617   2.163   2.551  13.533
 6292SOL     OW19618   2.527   1.987  13.129
 6292SOL    HW119619   2.565   1.907  13.163
 6292SOL    HW219620   2.460   1.957  13.067
 6293SOL     OW19621   2.431   1.901  13.531
 6293SOL    HW119622   2.384   1.885  13.612
 6293SOL    HW219623   2.408   1.991  13.508
 6294SOL     OW19624   3.289   3.062  13.074
 6294SOL    HW119625   3.320   2.987  13.124
 6294SOL    HW219626   3.204   3.083  13.111
 6295SOL     OW19627   2.806   2.113  13.490
 6295SOL    HW119628   2.782   2.149  13.404
 6295SOL    HW219629   2.900   2.126  13.497
 6296SOL     OW19630   2.324   3.006  13.767
 6296SOL    HW119631   2.252   2.993  13.830
 6296SOL    HW219632   2.283   2.995  13.681
 6297SOL     OW19633   3.128   3.659  13.628
 6297SOL    HW119634   3.174   3.727  13.580
 6297SOL    HW219635   3.058   3.706  13.675
 6298SOL     OW19636   2.887   2.398  13.058
 6298SOL    HW119637   2.843   2.481  13.040
 6298SOL    HW219638   2.951   2.419  13.126
 6299SOL     OW19639   2.749   2.330  13.669
 6299SOL    HW119640   2.700   2.381  13.606
 6299SOL    HW219641   2.765   2.246  13.625
 6300SOL     OW19642   2.886   1.897  13.771
 6300SOL    HW119643   2.829   1.900  13.694
 6300SOL    HW219644   2.861   1.817  13.817
 6301SOL     OW19645   3.729   2.676  13.410
 6301SOL    HW119646   3.777   2.621  13.472
 6301SOL    HW219647   3.693   2.614  13.346
 6302SOL     OW19648   2.352   3.281  13.186
 6302SOL    HW119649   2.276   3.254  13.238
 6302SOL    HW219650   2.342   3.235  13.103
 6303SOL     OW19651   3.541   3.134  13.663
 6303SOL    HW119652   3.635   3.134  13.679
 6303SOL    HW219653   3.510   3.216  13.700
 6304SOL     OW19654   3.256   2.434  13.105
 6304SOL    HW119655   3.194   2.414  13.175
 6304SOL    HW219656   3.340   2.402  13.138
 6305SOL     OW19657   2.572   2.926  13.400
 6305SOL    HW119658   2.557   2.909  13.493
 6305SOL    HW219659   2.647   2.872  13.377
 6306SOL     OW19660   2.205   2.977  13.523
 6306SOL    HW119661   2.207   3.053  13.465
 6306SOL    HW219662   2.201   2.902  13.464
 6307SOL     OW19663   2.410   2.422  13.886
 6307SOL    HW119664   2.424   2.484  13.814
 6307SOL    HW219665   2.497   2.407   0.022
 6308SOL     OW19666   3.106   3.216  13.418
 6308SOL    HW119667   3.161   3.289  13.446
 6308SOL    HW219668   3.020   3.235  13.454
 6309SOL     OW19669   3.441   2.486  13.500
 6309SOL    HW119670   3.399   2.523  13.578
 6309SOL    HW219671   3.473   2.562  13.451
 6310SOL     OW19672   3.062   2.390  13.296
 6310SOL    HW119673   3.070   2.311  13.349
 6310SOL    HW219674   3.019   2.453  13.353
 6311SOL     OW19675   3.484   2.239  13.395
 6311SOL    HW119676   3.507   2.175  13.462
 6311SOL    HW219677   3.460   2.318  13.443
 6312SOL     OW19678   3.390   2.134  13.160
 6312SOL    HW119679   3.325   2.069  13.188
 6312SOL    HW219680   3.424   2.170  13.242
 6313SOL     OW19681   3.149   2.686  13.062
 6313SOL    HW119682   3.192   2.601  13.066
 6313SOL    HW219683   3.182   2.725  12.981
 6314SOL     OW19684   1.869   3.179  13.227
 6314SOL    HW119685   1.781   3.195  13.192
 6314SOL    HW219686   1.864   3.090  13.263
 6315SOL     OW19687   2.677   2.432  13.400
 6315SOL    HW119688   2.684   2.359  13.340
 6315SOL    HW219689   2.605   2.485  13.365
 6316SOL     OW19690   2.325   2.380  13.248
 6316SOL    HW119691   2.389   2.451  13.255
 6316SOL    HW219692   2.245   2.423  13.218
 6317SOL     OW19693   3.177   2.713  13.337
 6317SOL    HW119694   3.101   2.687  13.388
 6317SOL    HW219695   3.151   2.701  13.246
 6318SOL     OW19696   3.574   2.013  13.546
 6318SOL    HW119697   3.640   2.002  13.478
 6318SOL    HW219698   3.562   1.926  13.583
 6319SOL     OW19699   3.244   3.437  13.508
 6319SOL    HW119700   3.303   3.475  13.444
 6319SOL    HW219701   3.198   3.513  13.546
 6320SOL     OW19702   3.150   2.775  13.684
 6320SOL    HW119703   3.227   2.719  13.671
 6320SOL    HW219704   3.173   2.857  13.640
 6321SOL     OW19705   2.536   3.481  13.192
 6321SOL    HW119706   2.546   3.499  13.099
 6321SOL    HW219707   2.477   3.406  13.195
 6322SOL     OW19708   3.679   2.024   0.088
 6322SOL    HW119709   3.690   1.938   0.047
 6322SOL    HW219710   3.585   2.041   0.084
 6323SOL     OW19711   3.070   3.464  13.070
 6323SOL    HW119712   3.059   3.372  13.094
 6323SOL    HW219713   3.008   3.478  12.998
 6324SOL     OW19714   2.782   2.776  13.330
 6324SOL    HW119715   2.840   2.806  13.260
 6324SOL    HW219716   2.829   2.703  13.371
 6325SOL     OW19717   3.349   3.496  13.076
 6325SOL    HW119718   3.255   3.482  13.060
 6325SOL    HW219719   3.388   3.500  12.989
 6326SOL     OW19720   2.913   2.953  13.755
 6326SOL    HW119721   2.827   2.914  13.735
 6326SOL    HW219722   2.972   2.917  13.688
 6327SOL     OW19723   2.460   3.353  13.504
 6327SOL    HW119724   2.508   3.303  13.438
 6327SOL    HW219725   2.394   3.401  13.455
 6328SOL     OW19726   2.124   3.203  13.325
 6328SOL    HW119727   2.031   3.200  13.302
 6328SOL    HW219728   2.125   3.243  13.412
 6329SOL     OW19729   3.039   3.197  13.149
 6329SOL    HW119730   2.947   3.169  13.151
 6329SOL    HW219731   3.065   3.199  13.241
 6330SOL     OW19732   3.079   2.182  13.491
 6330SOL    HW119733   3.141   2.110  13.481
 6330SOL    HW219734   3.110   2.231  13.567
 6331SOL     OW19735   2.453   2.606  13.690
 6331SOL    HW119736   2.488   2.693  13.671
 6331SOL    HW219737   2.384   2.594  13.625
 6332SOL     OW19738   2.727   3.228  13.075
 6332SOL    HW119739   2.686   3.255  13.157
 6332SOL    HW219740   2.741   3.310  13.027
 6333SOL     OW19741   2.513   3.718   0.065
 6333SOL    HW119742   2.506   3.811   0.086
 6333SOL    HW219743   2.606   3.697   0.078
 6334SOL     OW19744   2.685   2.829  13.899
 6334SOL    HW119745   2.708   2.743   0.034
 6334SOL    HW219746   2.729   2.892   0.057
 6335SOL     OW19747   2.937   2.848  13.122
 6335SOL    HW119748   2.918   2.901  13.045
 6335SOL    HW219749   3.012   2.794  13.096
 6336SOL     OW19750   1.954   3.090  13.699
 6336SOL    HW119751   1.951   3.034  13.776
 6336SOL    HW219752   2.022   3.051  13.644
 6337SOL     OW19753   3.542   3.319   0.352
 6337SOL    HW119754   3.511   3.292   0.265
 6337SOL    HW219755   3.632   3.286   0.357
 6338SOL     OW19756   2.679   3.409  13.705
 6338SOL    HW119757   2.649   3.461  13.630
 6338SOL    HW219758   2.604   3.353  13.726
 6339SOL     OW19759   2.635   3.196  13.350
 6339SOL    HW119760   2.607   3.105  13.358
 6339SOL    HW219761   2.716   3.201  13.400
 6340SOL     OW19762   3.218   1.914  13.202
 6340SOL    HW119763   3.250   1.844  13.145
 6340SOL    HW219764   3.129   1.888  13.225
 6341SOL     OW19765   3.167   2.323  13.711
 6341SOL    HW119766   3.114   2.402  13.716
 6341SOL    HW219767   3.150   2.276  13.793
 6342SOL     OW19768   1.905   2.928  13.341
 6342SOL    HW119769   1.999   2.921  13.323
 6342SOL    HW219770   1.878   2.839  13.364
 6343SOL     OW19771   2.750   3.523  13.376
 6343SOL    HW119772   2.677   3.506  13.316
 6343SOL    HW219773   2.720   3.596  13.430
 6344SOL     OW19774   2.094   3.981   0.982
 6344SOL    HW119775   2.117   3.961   1.072
 6344SOL    HW219776   2.002   3.953   0.974
 6345SOL     OW19777   1.876   0.063   0.714
 6345SOL    HW119778   1.798   0.101   0.673
 6345SOL    HW219779   1.919   0.016   0.643
 6346SOL     OW19780   3.659   0.360   0.257
 6346SOL    HW119781   3.638   0.302   0.183
 6346SOL    HW219782   3.578   0.365   0.308
 6347SOL     OW19783   2.303   0.094   1.505
 6347SOL    HW119784   2.374   0.049   1.458
 6347SOL    HW219785   2.225   0.042   1.486
 6348SOL     OW19786   3.456   3.851   1.458
 6348SOL    HW119787   3.462   3.938   1.418
 6348SOL    HW219788   3.441   3.868   1.551
 6349SOL     OW19789   2.670   3.727   0.509
 6349SOL    HW119790   2.697   3.819   0.499
 6349SOL    HW219791   2.575   3.732   0.518
 6350SOL     OW19792   3.129   0.062   0.934
 6350SOL    HW119793   3.055   0.009   0.905
 6350SOL    HW219794   3.184   0.001   0.984
 6351SOL     OW19795   2.416   3.903   0.893
 6351SOL    HW119796   2.411   3.923   0.986
 6351SOL    HW219797   2.412   3.988   0.850
 6352SOL     OW19798   2.054   3.982   1.488
 6352SOL    HW119799   2.001   0.061   1.503
 6352SOL    HW219800   2.013   3.915   1.543
 6353SOL     OW19801   3.270   3.837   0.433
 6353SOL    HW119802   3.264   3.797   0.346
 6353SOL    HW219803   3.361   3.821   0.460
 6354SOL     OW19804   3.398   3.937   1.723
 6354SOL    HW119805   3.423   3.939   1.815
 6354SOL    HW219806   3.327   3.873   1.719
 6355SOL     OW19807   2.634   3.955   1.742
 6355SOL    HW119808   2.685   3.926   1.817
 6355SOL    HW219809   2.547   3.975   1.777
 6356SOL     OW19810   2.398   3.781   0.518
 6356SOL    HW119811   2.349   3.780   0.600
 6356SOL    HW219812   2.406   3.874   0.496
 6357SOL     OW19813   2.133   3.745   0.209
 6357SOL    HW119814   2.166   3.833   0.189
 6357SOL    HW219815   2.211   3.696   0.235
 6358SOL     OW19816   2.419   3.944   1.170
 6358SOL    HW119817   2.462   3.875   1.221
 6358SOL    HW219818   2.327   3.938   1.196
 6359SOL     OW19819   2.883   3.766   0.729
 6359SOL    HW119820   2.817   3.754   0.661
 6359SOL    HW219821   2.860   3.702   0.797
 6360SOL     OW19822   2.786   3.801   1.396
 6360SOL    HW119823   2.815   3.780   1.307
 6360SOL    HW219824   2.859   3.849   1.435
 6361SOL     OW19825   3.129   0.073   1.266
 6361SOL    HW119826   3.137   0.142   1.331
 6361SOL    HW219827   3.060   0.103   1.207
 6362SOL     OW19828   2.372   3.750   1.758
 6362SOL    HW119829   2.314   3.705   1.696
 6362SOL    HW219830   2.345   3.841   1.754
 6363SOL     OW19831   2.156   3.919   1.250
 6363SOL    HW119832   2.111   3.938   1.332
 6363SOL    HW219833   2.144   3.825   1.237
 6364SOL     OW19834   3.462   3.932   0.159
 6364SOL    HW119835   3.381   3.882   0.156
 6364SOL    HW219836   3.436   0.018   0.193
 6365SOL     OW19837   3.025   3.920   1.473
 6365SOL    HW119838   3.027   3.994   1.533
 6365SOL    HW219839   3.069   3.951   1.394
 6366SOL     OW19840   2.784   3.823   0.148
 6366SOL    HW119841   2.814   3.817   0.057
 6366SOL    HW219842   2.845   3.769   0.198
 6367SOL     OW19843   3.590   3.863   0.536
 6367SOL    HW119844   3.657   3.849   0.469
 6367SOL    HW219845   3.568   3.774   0.566
 6368SOL     OW19846   3.698   3.895   0.962
 6368SOL    HW119847   3.731   3.808   0.939
 6368SOL    HW219848   3.612   3.900   0.921
 6369SOL     OW19849   2.540   3.908   1.487
 6369SOL    HW119850   2.623   3.897   1.442
 6369SOL    HW219851   2.564   3.931   1.577
 6370SOL     OW19852   1.923   3.855   0.342
 6370SOL    HW119853   1.912   3.942   0.303
 6370SOL    HW219854   2.002   3.820   0.301
 6371SOL     OW19855   3.053   0.009   0.466
 6371SOL    HW119856   3.115   3.936   0.469
 6371SOL    HW219857   3.074   0.062   0.542
 6372SOL     OW19858   3.647   0.047   1.626
 6372SOL    HW119859   3.601   0.082   1.550
 6372SOL    HW219860   3.579   3.999   1.675
 6373SOL     OW19861   3.676   3.909   1.234
 6373SOL    HW119862   3.664   3.817   1.257
 6373SOL    HW219863   3.686   3.909   1.139
 6374SOL     OW19864   3.300   3.931   1.116
 6374SOL    HW119865   3.327   3.848   1.157
 6374SOL    HW219866   3.243   3.972   1.181
 6375SOL     OW19867   2.879   3.737   1.146
 6375SOL    HW119868   2.821   3.682   1.093
 6375SOL    HW219869   2.964   3.693   1.141
 6376SOL     OW19870   3.217   3.783   0.151
 6376SOL    HW119871   3.258   3.711   0.103
 6376SOL    HW219872   3.133   3.748   0.181
 6377SOL     OW19873   3.146   0.163   0.678
 6377SOL    HW119874   3.144   0.258   0.685
 6377SOL    HW219875   3.148   0.132   0.768
 6378SOL     OW19876   3.441   3.929   0.881
 6378SOL    HW119877   3.390   3.931   0.962
 6378SOL    HW219878   3.437   0.019   0.848
 6379SOL     OW19879   2.095   3.979   2.842
 6379SOL    HW119880   2.118   3.961   2.933
 6379SOL    HW219881   2.003   3.953   2.835
 6380SOL     OW19882   1.873   0.060   2.579
 6380SOL    HW119883   1.801   0.106   2.536
 6380SOL    HW219884   1.918   0.013   2.508
 6381SOL     OW19885   3.632   0.317   2.042
 6381SOL    HW119886   3.556   0.300   1.987
 6381SOL    HW219887   3.595   0.343   2.127
 6382SOL     OW19888   2.303   0.094   3.367
 6382SOL    HW119889   2.374   0.049   3.321
 6382SOL    HW219890   2.225   0.042   3.347
 6383SOL     OW19891   3.456   3.851   3.320
 6383SOL    HW119892   3.462   3.938   3.280
 6383SOL    HW219893   3.441   3.868   3.413
 6384SOL     OW19894   2.669   3.730   2.369
 6384SOL    HW119895   2.695   3.822   2.363
 6384SOL    HW219896   2.574   3.732   2.378
 6385SOL     OW19897   3.128   0.062   2.799
 6385SOL    HW119898   3.055   0.009   2.768
 6385SOL    HW219899   3.183   0.001   2.848
 6386SOL     OW19900   2.416   3.904   2.754
 6386SOL    HW119901   2.411   3.923   2.848
 6386SOL    HW219902   2.412   3.990   2.713
 6387SOL     OW19903   2.054   3.982   3.350
 6387SOL    HW119904   2.002   0.062   3.365
 6387SOL    HW219905   2.012   3.916   3.406
 6388SOL     OW19906   3.268   3.830   2.295
 6388SOL    HW119907   3.260   3.798   2.205
 6388SOL    HW219908   3.360   3.816   2.317
 6389SOL     OW19909   3.398   3.937   3.585
 6389SOL    HW119910   3.423   3.939   3.677
 6389SOL    HW219911   3.327   3.873   3.581
 6390SOL     OW19912   2.491   3.847   1.992
 6390SOL    HW119913   2.583   3.819   1.989
 6390SOL    HW219914   2.449   3.800   1.920
 6391SOL     OW19915   2.634   3.955   3.604
 6391SOL    HW119916   2.685   3.926   3.679
 6391SOL    HW219917   2.548   3.975   3.639
 6392SOL     OW19918   2.398   3.784   2.379
 6392SOL    HW119919   2.351   3.786   2.463
 6392SOL    HW219920   2.405   3.876   2.353
 6393SOL     OW19921   2.146   3.762   2.042
 6393SOL    HW119922   2.185   3.849   2.037
 6393SOL    HW219923   2.214   3.707   2.080
 6394SOL     OW19924   2.419   3.943   3.032
 6394SOL    HW119925   2.462   3.875   3.083
 6394SOL    HW219926   2.327   3.938   3.058
 6395SOL     OW19927   2.883   3.766   2.592
 6395SOL    HW119928   2.817   3.753   2.523
 6395SOL    HW219929   2.860   3.702   2.659
 6396SOL     OW19930   2.786   3.801   3.258
 6396SOL    HW119931   2.815   3.780   3.169
 6396SOL    HW219932   2.859   3.849   3.297
 6397SOL     OW19933   3.129   0.073   3.128
 6397SOL    HW119934   3.136   0.142   3.193
 6397SOL    HW219935   3.061   0.103   3.068
 6398SOL     OW19936   2.372   3.750   3.620
 6398SOL    HW119937   2.314   3.705   3.558
 6398SOL    HW219938   2.345   3.841   3.616
 6399SOL     OW19939   2.156   3.919   3.111
 6399SOL    HW119940   2.111   3.938   3.194
 6399SOL    HW219941   2.144   3.825   3.099
 6400SOL     OW19942   3.445   3.952   1.984
 6400SOL    HW119943   3.379   3.896   2.026
 6400SOL    HW219944   3.459   0.023   2.047
 6401SOL     OW19945   3.025   3.919   3.335
 6401SOL    HW119946   3.027   3.994   3.395
 6401SOL    HW219947   3.068   3.951   3.256
 6402SOL     OW19948   2.763   3.810   1.961
 6402SOL    HW119949   2.821   3.767   1.899
 6402SOL    HW219950   2.805   3.798   2.046
 6403SOL     OW19951   3.593   3.859   2.390
 6403SOL    HW119952   3.661   3.845   2.323
 6403SOL    HW219953   3.570   3.771   2.420
 6404SOL     OW19954   3.698   3.895   2.825
 6404SOL    HW119955   3.730   3.808   2.802
 6404SOL    HW219956   3.612   3.900   2.783
 6405SOL     OW19957   2.540   3.908   3.349
 6405SOL    HW119958   2.623   3.897   3.304
 6405SOL    HW219959   2.564   3.931   3.439
 6406SOL     OW19960   1.906   0.053   1.896
 6406SOL    HW119961   1.870   0.027   1.811
 6406SOL    HW219962   1.934   0.143   1.884
 6407SOL     OW19963   1.921   3.863   2.169
 6407SOL    HW119964   1.911   3.953   2.139
 6407SOL    HW219965   2.002   3.832   2.128
 6408SOL     OW19966   3.060   0.013   2.324
 6408SOL    HW119967   3.124   3.942   2.327
 6408SOL    HW219968   3.078   0.065   2.402
 6409SOL     OW19969   3.647   0.047   3.488
 6409SOL    HW119970   3.601   0.082   3.412
 6409SOL    HW219971   3.579   3.999   3.536
 6410SOL     OW19972   3.676   3.909   3.097
 6410SOL    HW119973   3.664   3.817   3.120
 6410SOL    HW219974   3.687   3.909   3.002
 6411SOL     OW19975   3.301   3.930   2.979
 6411SOL    HW119976   3.328   3.848   3.020
 6411SOL    HW219977   3.244   3.972   3.043
 6412SOL     OW19978   2.879   3.737   3.008
 6412SOL    HW119979   2.821   3.682   2.955
 6412SOL    HW219980   2.964   3.693   3.003
 6413SOL     OW19981   3.218   3.770   2.023
 6413SOL    HW119982   3.253   3.699   1.970
 6413SOL    HW219983   3.130   3.741   2.047
 6414SOL     OW19984   3.143   0.162   2.543
 6414SOL    HW119985   3.147   0.257   2.548
 6414SOL    HW219986   3.147   0.133   2.634
 6415SOL     OW19987   3.440   3.929   2.743
 6415SOL    HW119988   3.390   3.931   2.824
 6415SOL    HW219989   3.437   0.019   2.710
 6416SOL     OW19990   2.095   3.978   4.704
 6416SOL    HW119991   2.118   3.961   4.795
 6416SOL    HW219992   2.003   3.953   4.697
 6417SOL     OW19993   1.873   0.060   4.441
 6417SOL    HW119994   1.801   0.106   4.398
 6417SOL    HW219995   1.918   0.014   4.370
 6418SOL     OW19996   3.632   0.317   3.904
 6418SOL    HW119997   3.556   0.300   3.849
 6418SOL    HW219998   3.595   0.343   3.989
 6419SOL     OW19999   2.303   0.094   5.229
 6419SOL    HW120000   2.374   0.049   5.182
 6419SOL    HW220001   2.225   0.042   5.209
 6420SOL     OW20002   3.456   3.851   5.182
 6420SOL    HW120003   3.462   3.939   5.142
 6420SOL    HW220004   3.441   3.868   5.275
 6421SOL     OW20005   2.669   3.730   4.231
 6421SOL    HW120006   2.695   3.822   4.225
 6421SOL    HW220007   2.574   3.733   4.240
 6422SOL     OW20008   3.128   0.062   4.661
 6422SOL    HW120009   3.055   0.009   4.630
 6422SOL    HW220010   3.183   0.000   4.710
 6423SOL     OW20011   2.416   3.904   4.616
 6423SOL    HW120012   2.411   3.923   4.710
 6423SOL    HW220013   2.412   3.990   4.574
 6424SOL     OW20014   2.053   3.982   5.212
 6424SOL    HW120015   2.003   0.062   5.226
 6424SOL    HW220016   2.012   3.917   5.268
 6425SOL     OW20017   3.268   3.830   4.157
 6425SOL    HW120018   3.260   3.798   4.067
 6425SOL    HW220019   3.360   3.816   4.179
 6426SOL     OW20020   3.398   3.937   5.447
 6426SOL    HW120021   3.423   3.939   5.539
 6426SOL    HW220022   3.327   3.873   5.443
 6427SOL     OW20023   2.491   3.847   3.854
 6427SOL    HW120024   2.583   3.819   3.851
 6427SOL    HW220025   2.449   3.800   3.782
 6428SOL     OW20026   2.634   3.955   5.466
 6428SOL    HW120027   2.685   3.926   5.541
 6428SOL    HW220028   2.548   3.975   5.502
 6429SOL     OW20029   2.398   3.784   4.241
 6429SOL    HW120030   2.351   3.786   4.325
 6429SOL    HW220031   2.405   3.876   4.215
 6430SOL     OW20032   2.146   3.762   3.904
 6430SOL    HW120033   2.185   3.849   3.900
 6430SOL    HW220034   2.215   3.707   3.942
 6431SOL     OW20035   2.419   3.943   4.894
 6431SOL    HW120036   2.462   3.875   4.945
 6431SOL    HW220037   2.327   3.938   4.920
 6432SOL     OW20038   2.883   3.765   4.454
 6432SOL    HW120039   2.817   3.753   4.385
 6432SOL    HW220040   2.860   3.702   4.521
 6433SOL     OW20041   2.786   3.802   5.120
 6433SOL    HW120042   2.815   3.780   5.031
 6433SOL    HW220043   2.859   3.849   5.159
 6434SOL     OW20044   3.129   0.073   4.990
 6434SOL    HW120045   3.136   0.143   5.055
 6434SOL    HW220046   3.061   0.103   4.930
 6435SOL     OW20047   2.372   3.750   5.482
 6435SOL    HW120048   2.314   3.705   5.420
 6435SOL    HW220049   2.345   3.842   5.478
 6436SOL     OW20050   2.156   3.919   4.973
 6436SOL    HW120051   2.111   3.938   5.056
 6436SOL    HW220052   2.144   3.825   4.961
 6437SOL     OW20053   3.445   3.952   3.846
 6437SOL    HW120054   3.379   3.896   3.888
 6437SOL    HW220055   3.458   0.023   3.909
 6438SOL     OW20056   3.025   3.920   5.197
 6438SOL    HW120057   3.026   3.994   5.257
 6438SOL    HW220058   3.068   3.951   5.118
 6439SOL     OW20059   2.763   3.810   3.823
 6439SOL    HW120060   2.821   3.767   3.761
 6439SOL    HW220061   2.805   3.798   3.908
 6440SOL     OW20062   3.593   3.859   4.252
 6440SOL    HW120063   3.661   3.845   4.185
 6440SOL    HW220064   3.570   3.771   4.282
 6441SOL     OW20065   3.698   3.895   4.687
 6441SOL    HW120066   3.730   3.808   4.664
 6441SOL    HW220067   3.612   3.900   4.645
 6442SOL     OW20068   2.540   3.908   5.211
 6442SOL    HW120069   2.623   3.897   5.166
 6442SOL    HW220070   2.565   3.931   5.301
 6443SOL     OW20071   1.906   0.053   3.758
 6443SOL    HW120072   1.870   0.027   3.673
 6443SOL    HW220073   1.934   0.143   3.745
 6444SOL     OW20074   1.921   3.863   4.031
 6444SOL    HW120075   1.911   3.953   4.001
 6444SOL    HW220076   2.002   3.832   3.990
 6445SOL     OW20077   3.060   0.013   4.186
 6445SOL    HW120078   3.124   3.942   4.189
 6445SOL    HW220079   3.078   0.065   4.264
 6446SOL     OW20080   3.647   0.047   5.351
 6446SOL    HW120081   3.601   0.082   5.274
 6446SOL    HW220082   3.579   3.999   5.399
 6447SOL     OW20083   3.676   3.909   4.959
 6447SOL    HW120084   3.664   3.817   4.982
 6447SOL    HW220085   3.687   3.909   4.864
 6448SOL     OW20086   3.301   3.930   4.841
 6448SOL    HW120087   3.327   3.848   4.882
 6448SOL    HW220088   3.244   3.972   4.905
 6449SOL     OW20089   2.879   3.737   4.870
 6449SOL    HW120090   2.821   3.682   4.817
 6449SOL    HW220091   2.964   3.693   4.865
 6450SOL     OW20092   3.218   3.770   3.885
 6450SOL    HW120093   3.253   3.699   3.832
 6450SOL    HW220094   3.130   3.741   3.909
 6451SOL     OW20095   3.143   0.162   4.405
 6451SOL    HW120096   3.147   0.257   4.410
 6451SOL    HW220097   3.147   0.133   4.496
 6452SOL     OW20098   3.440   3.929   4.605
 6452SOL    HW120099   3.390   3.931   4.686
 6452SOL    HW220100   3.437   0.019   4.572
 6453SOL     OW20101   2.095   3.977   6.566
 6453SOL    HW120102   2.118   3.961   6.657
 6453SOL    HW220103   2.003   3.952   6.559
 6454SOL     OW20104   1.873   0.059   6.303
 6454SOL    HW120105   1.802   0.106   6.260
 6454SOL    HW220106   1.918   0.014   6.232
 6455SOL     OW20107   3.632   0.317   5.767
 6455SOL    HW120108   3.556   0.301   5.711
 6455SOL    HW220109   3.595   0.343   5.851
 6456SOL     OW20110   2.304   0.093   7.091
 6456SOL    HW120111   2.374   0.048   7.044
 6456SOL    HW220112   2.225   0.042   7.071
 6457SOL     OW20113   3.456   3.851   7.044
 6457SOL    HW120114   3.462   3.938   7.004
 6457SOL    HW220115   3.441   3.869   7.137
 6458SOL     OW20116   2.669   3.730   6.094
 6458SOL    HW120117   2.695   3.822   6.087
 6458SOL    HW220118   2.574   3.733   6.102
 6459SOL     OW20119   3.128   0.062   6.524
 6459SOL    HW120120   3.056   0.009   6.491
 6459SOL    HW220121   3.183   0.001   6.571
 6460SOL     OW20122   2.416   3.904   6.478
 6460SOL    HW120123   2.410   3.923   6.572
 6460SOL    HW220124   2.412   3.989   6.436
 6461SOL     OW20125   2.053   3.983   7.074
 6461SOL    HW120126   2.003   0.063   7.087
 6461SOL    HW220127   2.012   3.919   7.131
 6462SOL     OW20128   3.268   3.830   6.019
 6462SOL    HW120129   3.260   3.798   5.929
 6462SOL    HW220130   3.360   3.816   6.041
 6463SOL     OW20131   3.398   3.937   7.309
 6463SOL    HW120132   3.423   3.939   7.401
 6463SOL    HW220133   3.327   3.873   7.304
 6464SOL     OW20134   2.491   3.847   5.716
 6464SOL    HW120135   2.583   3.819   5.713
 6464SOL    HW220136   2.449   3.800   5.644
 6465SOL     OW20137   2.634   3.955   7.328
 6465SOL    HW120138   2.685   3.927   7.403
 6465SOL    HW220139   2.547   3.975   7.363
 6466SOL     OW20140   2.398   3.784   6.103
 6466SOL    HW120141   2.352   3.786   6.186
 6466SOL    HW220142   2.405   3.876   6.077
 6467SOL     OW20143   2.146   3.762   5.766
 6467SOL    HW120144   2.185   3.849   5.761
 6467SOL    HW220145   2.215   3.707   5.804
 6468SOL     OW20146   2.419   3.944   6.756
 6468SOL    HW120147   2.462   3.875   6.807
 6468SOL    HW220148   2.327   3.938   6.782
 6469SOL     OW20149   2.883   3.766   6.316
 6469SOL    HW120150   2.817   3.753   6.247
 6469SOL    HW220151   2.859   3.702   6.383
 6470SOL     OW20152   2.786   3.802   6.982
 6470SOL    HW120153   2.815   3.781   6.893
 6470SOL    HW220154   2.860   3.849   7.020
 6471SOL     OW20155   3.130   0.072   6.852
 6471SOL    HW120156   3.136   0.142   6.917
 6471SOL    HW220157   3.062   0.102   6.791
 6472SOL     OW20158   2.371   3.750   7.344
 6472SOL    HW120159   2.314   3.706   7.281
 6472SOL    HW220160   2.344   3.842   7.340
 6473SOL     OW20161   2.156   3.919   6.836
 6473SOL    HW120162   2.111   3.938   6.918
 6473SOL    HW220163   2.143   3.825   6.823
 6474SOL     OW20164   3.444   3.952   5.708
 6474SOL    HW120165   3.379   3.896   5.749
 6474SOL    HW220166   3.458   0.023   5.771
 6475SOL     OW20167   3.025   3.920   7.059
 6475SOL    HW120168   3.027   3.995   7.118
 6475SOL    HW220169   3.068   3.951   6.980
 6476SOL     OW20170   2.763   3.810   5.685
 6476SOL    HW120171   2.821   3.767   5.622
 6476SOL    HW220172   2.806   3.798   5.770
 6477SOL     OW20173   3.593   3.859   6.114
 6477SOL    HW120174   3.661   3.845   6.047
 6477SOL    HW220175   3.571   3.771   6.144
 6478SOL     OW20176   3.698   3.895   6.549
 6478SOL    HW120177   3.730   3.808   6.526
 6478SOL    HW220178   3.612   3.900   6.507
 6479SOL     OW20179   2.540   3.907   7.073
 6479SOL    HW120180   2.624   3.897   7.028
 6479SOL    HW220181   2.565   3.931   7.163
 6480SOL     OW20182   1.905   0.053   5.620
 6480SOL    HW120183   1.870   0.027   5.535
 6480SOL    HW220184   1.934   0.143   5.608
 6481SOL     OW20185   1.921   3.863   5.893
 6481SOL    HW120186   1.911   3.953   5.863
 6481SOL    HW220187   2.002   3.832   5.852
 6482SOL     OW20188   3.059   0.012   6.049
 6482SOL    HW120189   3.124   3.942   6.051
 6482SOL    HW220190   3.078   0.065   6.127
 6483SOL     OW20191   3.646   0.047   7.213
 6483SOL    HW120192   3.602   0.082   7.136
 6483SOL    HW220193   3.578   3.999   7.261
 6484SOL     OW20194   3.676   3.909   6.821
 6484SOL    HW120195   3.664   3.817   6.844
 6484SOL    HW220196   3.687   3.909   6.726
 6485SOL     OW20197   3.301   3.930   6.703
 6485SOL    HW120198   3.328   3.848   6.743
 6485SOL    HW220199   3.244   3.972   6.767
 6486SOL     OW20200   2.879   3.736   6.732
 6486SOL    HW120201   2.821   3.682   6.678
 6486SOL    HW220202   2.964   3.693   6.727
 6487SOL     OW20203   3.218   3.770   5.747
 6487SOL    HW120204   3.253   3.699   5.694
 6487SOL    HW220205   3.130   3.741   5.771
 6488SOL     OW20206   3.143   0.162   6.268
 6488SOL    HW120207   3.147   0.257   6.272
 6488SOL    HW220208   3.147   0.134   6.359
 6489SOL     OW20209   3.440   3.929   6.467
 6489SOL    HW120210   3.391   3.931   6.548
 6489SOL    HW220211   3.437   0.019   6.434
 6490SOL     OW20212   2.095   3.978   8.428
 6490SOL    HW120213   2.118   3.961   8.519
 6490SOL    HW220214   2.003   3.953   8.421
 6491SOL     OW20215   1.874   0.060   8.165
 6491SOL    HW120216   1.802   0.107   8.123
 6491SOL    HW220217   1.917   0.013   8.093
 6492SOL     OW20218   3.632   0.318   7.629
 6492SOL    HW120219   3.556   0.301   7.573
 6492SOL    HW220220   3.594   0.343   7.713
 6493SOL     OW20221   2.303   0.094   8.953
 6493SOL    HW120222   2.373   0.048   8.906
 6493SOL    HW220223   2.225   0.042   8.934
 6494SOL     OW20224   3.456   3.851   8.906
 6494SOL    HW120225   3.462   3.938   8.866
 6494SOL    HW220226   3.441   3.869   8.999
 6495SOL     OW20227   2.669   3.730   7.956
 6495SOL    HW120228   2.695   3.822   7.949
 6495SOL    HW220229   2.574   3.733   7.964
 6496SOL     OW20230   3.128   0.062   8.386
 6496SOL    HW120231   3.056   0.009   8.353
 6496SOL    HW220232   3.184   0.001   8.434
 6497SOL     OW20233   2.416   3.904   8.341
 6497SOL    HW120234   2.410   3.923   8.434
 6497SOL    HW220235   2.412   3.989   8.298
 6498SOL     OW20236   2.054   3.982   8.936
 6498SOL    HW120237   2.001   0.061   8.950
 6498SOL    HW220238   2.013   3.916   8.991
 6499SOL     OW20239   3.268   3.830   7.881
 6499SOL    HW120240   3.259   3.798   7.791
 6499SOL    HW220241   3.360   3.816   7.903
 6500SOL     OW20242   3.398   3.937   9.171
 6500SOL    HW120243   3.423   3.939   9.263
 6500SOL    HW220244   3.327   3.873   9.167
 6501SOL     OW20245   2.492   3.847   7.578
 6501SOL    HW120246   2.583   3.819   7.575
 6501SOL    HW220247   2.449   3.800   7.507
 6502SOL     OW20248   2.634   3.955   9.190
 6502SOL    HW120249   2.685   3.926   9.265
 6502SOL    HW220250   2.547   3.975   9.225
 6503SOL     OW20251   2.398   3.784   7.965
 6503SOL    HW120252   2.351   3.786   8.048
 6503SOL    HW220253   2.405   3.876   7.939
 6504SOL     OW20254   2.147   3.763   7.628
 6504SOL    HW120255   2.185   3.850   7.624
 6504SOL    HW220256   2.215   3.708   7.666
 6505SOL     OW20257   2.419   3.943   8.618
 6505SOL    HW120258   2.462   3.875   8.669
 6505SOL    HW220259   2.327   3.938   8.644
 6506SOL     OW20260   2.883   3.766   8.178
 6506SOL    HW120261   2.817   3.753   8.109
 6506SOL    HW220262   2.859   3.702   8.246
 6507SOL     OW20263   2.786   3.801   8.844
 6507SOL    HW120264   2.815   3.780   8.755
 6507SOL    HW220265   2.860   3.849   8.883
 6508SOL     OW20266   3.129   0.073   8.714
 6508SOL    HW120267   3.136   0.142   8.779
 6508SOL    HW220268   3.062   0.103   8.654
 6509SOL     OW20269   2.372   3.750   9.206
 6509SOL    HW120270   2.314   3.705   9.144
 6509SOL    HW220271   2.345   3.841   9.202
 6510SOL     OW20272   2.156   3.919   8.698
 6510SOL    HW120273   2.111   3.938   8.780
 6510SOL    HW220274   2.144   3.825   8.685
 6511SOL     OW20275   3.444   3.952   7.570
 6511SOL    HW120276   3.379   3.895   7.612
 6511SOL    HW220277   3.460   0.022   7.634
 6512SOL     OW20278   3.025   3.920   8.921
 6512SOL    HW120279   3.027   3.994   8.981
 6512SOL    HW220280   3.069   3.951   8.842
 6513SOL     OW20281   2.763   3.810   7.547
 6513SOL    HW120282   2.821   3.767   7.484
 6513SOL    HW220283   2.806   3.797   7.631
 6514SOL     OW20284   3.593   3.859   7.975
 6514SOL    HW120285   3.661   3.845   7.909
 6514SOL    HW220286   3.571   3.771   8.006
 6515SOL     OW20287   3.698   3.895   8.411
 6515SOL    HW120288   3.731   3.808   8.388
 6515SOL    HW220289   3.612   3.900   8.369
 6516SOL     OW20290   2.540   3.908   8.935
 6516SOL    HW120291   2.624   3.897   8.890
 6516SOL    HW220292   2.564   3.931   9.025
 6517SOL     OW20293   1.908   0.052   7.481
 6517SOL    HW120294   1.871   0.027   7.396
 6517SOL    HW220295   1.935   0.143   7.469
 6518SOL     OW20296   1.921   3.863   7.756
 6518SOL    HW120297   1.911   3.953   7.726
 6518SOL    HW220298   2.002   3.833   7.714
 6519SOL     OW20299   3.059   0.013   7.911
 6519SOL    HW120300   3.124   3.942   7.913
 6519SOL    HW220301   3.078   0.065   7.989
 6520SOL     OW20302   3.647   0.047   9.075
 6520SOL    HW120303   3.601   0.082   8.998
 6520SOL    HW220304   3.579   3.999   9.123
 6521SOL     OW20305   3.676   3.909   8.683
 6521SOL    HW120306   3.664   3.817   8.706
 6521SOL    HW220307   3.686   3.909   8.588
 6522SOL     OW20308   3.301   3.930   8.565
 6522SOL    HW120309   3.328   3.848   8.606
 6522SOL    HW220310   3.244   3.972   8.629
 6523SOL     OW20311   2.879   3.737   8.594
 6523SOL    HW120312   2.821   3.682   8.540
 6523SOL    HW220313   2.964   3.693   8.589
 6524SOL     OW20314   3.218   3.770   7.609
 6524SOL    HW120315   3.254   3.698   7.556
 6524SOL    HW220316   3.130   3.741   7.633
 6525SOL     OW20317   3.143   0.162   8.129
 6525SOL    HW120318   3.147   0.257   8.134
 6525SOL    HW220319   3.147   0.133   8.221
 6526SOL     OW20320   3.440   3.929   8.329
 6526SOL    HW120321   3.390   3.931   8.410
 6526SOL    HW220322   3.437   0.019   8.296
 6527SOL     OW20323   2.095   3.978  10.290
 6527SOL    HW120324   2.118   3.961  10.381
 6527SOL    HW220325   2.003   3.953  10.283
 6528SOL     OW20326   1.874   0.060  10.027
 6528SOL    HW120327   1.801   0.106   9.984
 6528SOL    HW220328   1.918   0.013   9.956
 6529SOL     OW20329   3.632   0.317   9.490
 6529SOL    HW120330   3.556   0.301   9.435
 6529SOL    HW220331   3.595   0.343   9.575
 6530SOL     OW20332   2.303   0.094  10.815
 6530SOL    HW120333   2.374   0.049  10.768
 6530SOL    HW220334   2.225   0.042  10.795
 6531SOL     OW20335   3.456   3.851  10.768
 6531SOL    HW120336   3.462   3.938  10.728
 6531SOL    HW220337   3.441   3.868  10.861
 6532SOL     OW20338   2.669   3.730   9.818
 6532SOL    HW120339   2.695   3.822   9.811
 6532SOL    HW220340   2.574   3.732   9.826
 6533SOL     OW20341   3.128   0.062  10.248
 6533SOL    HW120342   3.055   0.009  10.215
 6533SOL    HW220343   3.183   0.001  10.296
 6534SOL     OW20344   2.416   3.904  10.203
 6534SOL    HW120345   2.411   3.923  10.296
 6534SOL    HW220346   2.412   3.990  10.160
 6535SOL     OW20347   2.054   3.982  10.798
 6535SOL    HW120348   2.002   0.062  10.812
 6535SOL    HW220349   2.012   3.916  10.853
 6536SOL     OW20350   3.268   3.830   9.743
 6536SOL    HW120351   3.260   3.798   9.653
 6536SOL    HW220352   3.360   3.816   9.765
 6537SOL     OW20353   3.398   3.937  11.033
 6537SOL    HW120354   3.423   3.939  11.125
 6537SOL    HW220355   3.327   3.873  11.029
 6538SOL     OW20356   2.491   3.847   9.440
 6538SOL    HW120357   2.583   3.819   9.437
 6538SOL    HW220358   2.449   3.800   9.368
 6539SOL     OW20359   2.634   3.955  11.052
 6539SOL    HW120360   2.685   3.926  11.127
 6539SOL    HW220361   2.547   3.975  11.087
 6540SOL     OW20362   2.398   3.784   9.827
 6540SOL    HW120363   2.351   3.786   9.910
 6540SOL    HW220364   2.405   3.876   9.801
 6541SOL     OW20365   2.146   3.762   9.490
 6541SOL    HW120366   2.185   3.849   9.486
 6541SOL    HW220367   2.215   3.707   9.528
 6542SOL     OW20368   2.419   3.943  10.480
 6542SOL    HW120369   2.462   3.875  10.531
 6542SOL    HW220370   2.327   3.938  10.506
 6543SOL     OW20371   2.883   3.766  10.040
 6543SOL    HW120372   2.817   3.753   9.971
 6543SOL    HW220373   2.859   3.702  10.107
 6544SOL     OW20374   2.786   3.801  10.706
 6544SOL    HW120375   2.815   3.780  10.617
 6544SOL    HW220376   2.859   3.849  10.745
 6545SOL     OW20377   3.129   0.073  10.576
 6545SOL    HW120378   3.136   0.142  10.641
 6545SOL    HW220379   3.061   0.103  10.516
 6546SOL     OW20380   2.372   3.750  11.068
 6546SOL    HW120381   2.314   3.705  11.006
 6546SOL    HW220382   2.345   3.841  11.064
 6547SOL     OW20383   2.156   3.919  10.559
 6547SOL    HW120384   2.111   3.938  10.642
 6547SOL    HW220385   2.144   3.825  10.547
 6548SOL     OW20386   3.445   3.952   9.432
 6548SOL    HW120387   3.379   3.896   9.474
 6548SOL    HW220388   3.459   0.023   9.495
 6549SOL     OW20389   3.025   3.920  10.783
 6549SOL    HW120390   3.026   3.995  10.843
 6549SOL    HW220391   3.069   3.951  10.704
 6550SOL     OW20392   2.763   3.810   9.409
 6550SOL    HW120393   2.821   3.767   9.347
 6550SOL    HW220394   2.806   3.798   9.494
 6551SOL     OW20395   3.593   3.859   9.837
 6551SOL    HW120396   3.661   3.845   9.771
 6551SOL    HW220397   3.570   3.771   9.868
 6552SOL     OW20398   3.698   3.895  10.273
 6552SOL    HW120399   3.730   3.808  10.250
 6552SOL    HW220400   3.612   3.900  10.231
 6553SOL     OW20401   2.540   3.908  10.797
 6553SOL    HW120402   2.623   3.897  10.752
 6553SOL    HW220403   2.564   3.931  10.887
 6554SOL     OW20404   1.906   0.053   9.344
 6554SOL    HW120405   1.870   0.027   9.259
 6554SOL    HW220406   1.934   0.143   9.331
 6555SOL     OW20407   1.921   3.863   9.617
 6555SOL    HW120408   1.911   3.953   9.587
 6555SOL    HW220409   2.002   3.832   9.576
 6556SOL     OW20410   3.059   0.012   9.773
 6556SOL    HW120411   3.124   3.942   9.775
 6556SOL    HW220412   3.078   0.065   9.850
 6557SOL     OW20413   3.647   0.047  10.937
 6557SOL    HW120414   3.601   0.082  10.860
 6557SOL    HW220415   3.579   3.999  10.985
 6558SOL     OW20416   3.676   3.909  10.545
 6558SOL    HW120417   3.664   3.817  10.568
 6558SOL    HW220418   3.686   3.909  10.450
 6559SOL     OW20419   3.301   3.930  10.427
 6559SOL    HW120420   3.328   3.848  10.468
 6559SOL    HW220421   3.244   3.972  10.491
 6560SOL     OW20422   2.879   3.737  10.456
 6560SOL    HW120423   2.821   3.682  10.403
 6560SOL    HW220424   2.964   3.693  10.451
 6561SOL     OW20425   3.218   3.770   9.471
 6561SOL    HW120426   3.253   3.699   9.418
 6561SOL    HW220427   3.130   3.741   9.495
 6562SOL     OW20428   3.143   0.162   9.991
 6562SOL    HW120429   3.147   0.257   9.996
 6562SOL    HW220430   3.147   0.133  10.083
 6563SOL     OW20431   3.440   3.929  10.191
 6563SOL    HW120432   3.390   3.931  10.272
 6563SOL    HW220433   3.437   0.019  10.158
 6564SOL     OW20434   2.095   3.978  12.152
 6564SOL    HW120435   2.118   3.961  12.243
 6564SOL    HW220436   2.003   3.953  12.145
 6565SOL     OW20437   1.874   0.060  11.889
 6565SOL    HW120438   1.802   0.106  11.846
 6565SOL    HW220439   1.918   0.013  11.818
 6566SOL     OW20440   3.632   0.317  11.352
 6566SOL    HW120441   3.556   0.301  11.297
 6566SOL    HW220442   3.595   0.343  11.437
 6567SOL     OW20443   2.303   0.094  12.676
 6567SOL    HW120444   2.374   0.048  12.630
 6567SOL    HW220445   2.225   0.042  12.658
 6568SOL     OW20446   3.456   3.851  12.630
 6568SOL    HW120447   3.462   3.938  12.591
 6568SOL    HW220448   3.441   3.868  12.723
 6569SOL     OW20449   2.669   3.730  11.679
 6569SOL    HW120450   2.695   3.822  11.673
 6569SOL    HW220451   2.574   3.733  11.688
 6570SOL     OW20452   3.128   0.062  12.110
 6570SOL    HW120453   3.055   0.009  12.077
 6570SOL    HW220454   3.183   0.001  12.158
 6571SOL     OW20455   2.416   3.904  12.065
 6571SOL    HW120456   2.411   3.923  12.158
 6571SOL    HW220457   2.412   3.990  12.023
 6572SOL     OW20458   2.054   3.982  12.660
 6572SOL    HW120459   2.001   0.061  12.675
 6572SOL    HW220460   2.013   3.915  12.715
 6573SOL     OW20461   3.268   3.830  11.605
 6573SOL    HW120462   3.260   3.798  11.515
 6573SOL    HW220463   3.360   3.816  11.627
 6574SOL     OW20464   3.398   3.938  12.896
 6574SOL    HW120465   3.422   3.942  12.989
 6574SOL    HW220466   3.328   3.873  12.892
 6575SOL     OW20467   2.491   3.847  11.302
 6575SOL    HW120468   2.583   3.819  11.299
 6575SOL    HW220469   2.449   3.800  11.230
 6576SOL     OW20470   2.634   3.955  12.914
 6576SOL    HW120471   2.685   3.926  12.989
 6576SOL    HW220472   2.547   3.974  12.949
 6577SOL     OW20473   2.398   3.784  11.689
 6577SOL    HW120474   2.351   3.786  11.772
 6577SOL    HW220475   2.405   3.876  11.663
 6578SOL     OW20476   2.146   3.762  11.352
 6578SOL    HW120477   2.185   3.849  11.348
 6578SOL    HW220478   2.215   3.707  11.390
 6579SOL     OW20479   2.419   3.943  12.342
 6579SOL    HW120480   2.462   3.875  12.393
 6579SOL    HW220481   2.327   3.938  12.368
 6580SOL     OW20482   2.883   3.766  11.902
 6580SOL    HW120483   2.817   3.753  11.833
 6580SOL    HW220484   2.859   3.702  11.969
 6581SOL     OW20485   2.786   3.802  12.568
 6581SOL    HW120486   2.815   3.780  12.479
 6581SOL    HW220487   2.859   3.849  12.607
 6582SOL     OW20488   3.129   0.073  12.438
 6582SOL    HW120489   3.136   0.143  12.503
 6582SOL    HW220490   3.061   0.103  12.378
 6583SOL     OW20491   2.372   3.750  12.929
 6583SOL    HW120492   2.314   3.705  12.867
 6583SOL    HW220493   2.344   3.841  12.926
 6584SOL     OW20494   2.156   3.919  12.421
 6584SOL    HW120495   2.111   3.938  12.504
 6584SOL    HW220496   2.144   3.825  12.409
 6585SOL     OW20497   3.445   3.952  11.294
 6585SOL    HW120498   3.379   3.896  11.336
 6585SOL    HW220499   3.459   0.023  11.357
 6586SOL     OW20500   3.025   3.919  12.645
 6586SOL    HW120501   3.027   3.994  12.705
 6586SOL    HW220502   3.068   3.951  12.566
 6587SOL     OW20503   2.763   3.810  11.271
 6587SOL    HW120504   2.821   3.767  11.209
 6587SOL    HW220505   2.806   3.798  11.356
 6588SOL     OW20506   3.593   3.859  11.700
 6588SOL    HW120507   3.661   3.845  11.633
 6588SOL    HW220508   3.570   3.771  11.730
 6589SOL     OW20509   3.698   3.895  12.135
 6589SOL    HW120510   3.730   3.808  12.112
 6589SOL    HW220511   3.612   3.900  12.093
 6590SOL     OW20512   2.540   3.908  12.659
 6590SOL    HW120513   2.623   3.897  12.614
 6590SOL    HW220514   2.564   3.931  12.749
 6591SOL     OW20515   1.906   0.053  11.206
 6591SOL    HW120516   1.870   0.027  11.121
 6591SOL    HW220517   1.934   0.143  11.193
 6592SOL     OW20518   1.921   3.863  11.479
 6592SOL    HW120519   1.911   3.953  11.449
 6592SOL    HW220520   2.002   3.832  11.438
 6593SOL     OW20521   3.059   0.013  11.634
 6593SOL    HW120522   3.124   3.942  11.637
 6593SOL    HW220523   3.078   0.065  11.712
 6594SOL     OW20524   3.646   0.047  12.798
 6594SOL    HW120525   3.601   0.082  12.722
 6594SOL    HW220526   3.579   3.999  12.846
 6595SOL     OW20527   3.676   3.909  12.407
 6595SOL    HW120528   3.664   3.817  12.430
 6595SOL    HW220529   3.687   3.909  12.312
 6596SOL     OW20530   3.301   3.930  12.289
 6596SOL    HW120531   3.328   3.848  12.330
 6596SOL    HW220532   3.244   3.972  12.353
 6597SOL     OW20533   2.879   3.737  12.318
 6597SOL    HW120534   2.821   3.682  12.265
 6597SOL    HW220535   2.964   3.693  12.313
 6598SOL     OW20536   3.218   3.770  11.333
 6598SOL    HW120537   3.253   3.699  11.280
 6598SOL    HW220538   3.130   3.741  11.357
 6599SOL     OW20539   3.143   0.162  11.853
 6599SOL    HW120540   3.147   0.257  11.858
 6599SOL    HW220541   3.147   0.133  11.945
 6600SOL     OW20542   3.440   3.929  12.053
 6600SOL    HW120543   3.390   3.931  12.134
 6600SOL    HW220544   3.437   0.019  12.020
 6601SOL     OW20545   1.878   0.090  13.687
 6601SOL    HW120546   1.795   0.112  13.730
 6601SOL    HW220547   1.866   3.999  13.659
 6602SOL     OW20548   3.632   0.315  13.214
 6602SOL    HW120549   3.556   0.299  13.158
 6602SOL    HW220550   3.594   0.338  13.299
 6603SOL     OW20551   3.466   0.174  13.769
 6603SOL    HW120552   3.377   0.148  13.742
 6603SOL    HW220553   3.456   0.265  13.797
 6604SOL     OW20554   2.672   3.731  13.541
 6604SOL    HW120555   2.694   3.824  13.534
 6604SOL    HW220556   2.576   3.731  13.550
 6605SOL     OW20557   3.269   3.835  13.464
 6605SOL    HW120558   3.265   3.799  13.375
 6605SOL    HW220559   3.362   3.827  13.488
 6606SOL     OW20560   2.492   3.848  13.163
 6606SOL    HW120561   2.583   3.819  13.161
 6606SOL    HW220562   2.449   3.800  13.092
 6607SOL     OW20563   2.399   3.777  13.550
 6607SOL    HW120564   2.346   3.765  13.629
 6607SOL    HW220565   2.400   3.872  13.536
 6608SOL     OW20566   2.145   3.762  13.214
 6608SOL    HW120567   2.185   3.849  13.209
 6608SOL    HW220568   2.213   3.707  13.253
 6609SOL     OW20569   2.874   3.761  13.768
 6609SOL    HW120570   2.816   3.755  13.692
 6609SOL    HW220571   2.854   3.682  13.819
 6610SOL     OW20572   3.445   3.957  13.158
 6610SOL    HW120573   3.386   3.894  13.201
 6610SOL    HW220574   3.482   0.007  13.230
 6611SOL     OW20575   2.763   3.810  13.133
 6611SOL    HW120576   2.821   3.767  13.070
 6611SOL    HW220577   2.805   3.796  13.218
 6612SOL     OW20578   3.591   3.858  13.567
 6612SOL    HW120579   3.660   3.846  13.502
 6612SOL    HW220580   3.573   3.769  13.599
 6613SOL     OW20581   3.713   3.898   0.045
 6613SOL    HW120582   3.750   3.810   0.055
 6613SOL    HW220583   3.625   3.892   0.083
 6614SOL     OW20584   1.906   0.052  13.063
 6614SOL    HW120585   1.870   0.029  12.978
 6614SOL    HW220586   1.934   0.143  13.054
 6615SOL     OW20587   1.919   3.865  13.342
 6615SOL    HW120588   1.914   3.958  13.323
 6615SOL    HW220589   1.999   3.835  13.298
 6616SOL     OW20590   3.052   0.001  13.518
 6616SOL    HW120591   3.125   3.942  13.499
 6616SOL    HW220592   3.086   0.058  13.588
 6617SOL     OW20593   3.219   3.770  13.193
 6617SOL    HW120594   3.253   3.698  13.141
 6617SOL    HW220595   3.131   3.742  13.219
 6618SOL     OW20596   3.176   0.153  13.735
 6618SOL    HW120597   3.143   0.242  13.720
 6618SOL    HW220598   3.155   0.135  13.827
 6619SOL     OW20599   3.953   0.628   0.129
 6619SOL    HW120600   3.894   0.633   0.204
 6619SOL    HW220601   3.907   0.573   0.065
 6620SOL     OW20602   3.954   0.301   0.996
 6620SOL    HW120603   3.963   0.274   1.088
 6620SOL    HW220604   3.869   0.266   0.969
 6621SOL     OW20605   3.731   0.395   0.637
 6621SOL    HW120606   3.644   0.408   0.673
 6621SOL    HW220607   3.722   0.318   0.580
 6622SOL     OW20608   0.012   1.527   1.052
 6622SOL    HW120609   3.956   1.451   1.038
 6622SOL    HW220610   0.078   1.522   0.983
 6623SOL     OW20611   3.947   1.716   0.475
 6623SOL    HW120612   3.943   1.791   0.536
 6623SOL    HW220613   0.041   1.706   0.457
 6624SOL     OW20614   3.936   1.437   0.506
 6624SOL    HW120615   3.927   1.532   0.508
 6624SOL    HW220616   3.883   1.406   0.579
 6625SOL     OW20617   3.805   0.650   0.557
 6625SOL    HW120618   3.788   0.559   0.582
 6625SOL    HW220619   3.809   0.697   0.641
 6626SOL     OW20620   3.693   1.617   0.097
 6626SOL    HW120621   3.729   1.530   0.115
 6626SOL    HW220622   3.698   1.663   0.181
 6627SOL     OW20623   3.823   0.752   1.575
 6627SOL    HW120624   3.902   0.802   1.595
 6627SOL    HW220625   3.755   0.819   1.567
 6628SOL     OW20626   3.805   0.819   0.771
 6628SOL    HW120627   3.899   0.816   0.789
 6628SOL    HW220628   3.773   0.891   0.826
 6629SOL     OW20629   3.847   1.879   1.570
 6629SOL    HW120630   3.847   1.849   1.661
 6629SOL    HW220631   3.770   1.838   1.530
 6630SOL     OW20632   3.924   0.310   1.520
 6630SOL    HW120633   3.852   0.360   1.483
 6630SOL    HW220634   3.882   0.248   1.580
 6631SOL     OW20635   3.810   0.547   1.392
 6631SOL    HW120636   3.905   0.546   1.380
 6631SOL    HW220637   3.794   0.623   1.448
 6632SOL     OW20638   3.792   1.574   1.351
 6632SOL    HW120639   3.765   1.636   1.283
 6632SOL    HW220640   3.887   1.581   1.353
 6633SOL     OW20641   0.070   1.099   0.540
 6633SOL    HW120642   0.078   1.151   0.460
 6633SOL    HW220643   0.146   1.041   0.539
 6634SOL     OW20644   0.003   0.214   1.249
 6634SOL    HW120645   3.975   0.238   1.337
 6634SOL    HW220646   0.002   0.118   1.249
 6635SOL     OW20647   3.751   1.313   1.276
 6635SOL    HW120648   3.793   1.262   1.347
 6635SOL    HW220649   3.764   1.404   1.302
 6636SOL     OW20650   3.744   1.319   0.171
 6636SOL    HW120651   3.660   1.334   0.128
 6636SOL    HW220652   3.733   1.236   0.217
 6637SOL     OW20653   3.801   1.793   0.939
 6637SOL    HW120654   3.778   1.713   0.892
 6637SOL    HW220655   3.896   1.802   0.926
 6638SOL     OW20656   0.210   1.548   0.864
 6638SOL    HW120657   0.295   1.593   0.862
 6638SOL    HW220658   0.216   1.484   0.793
 6639SOL     OW20659   3.752   0.536   1.117
 6639SOL    HW120660   3.831   0.530   1.063
 6639SOL    HW220661   3.785   0.544   1.207
 6640SOL     OW20662   3.902   0.532   1.713
 6640SOL    HW120663   3.939   0.479   1.643
 6640SOL    HW220664   3.862   0.606   1.668
 6641SOL     OW20665   3.940   1.531   1.726
 6641SOL    HW120666   3.927   1.617   1.766
 6641SOL    HW220667   3.989   1.481   1.792
 6642SOL     OW20668   3.860   1.137   1.472
 6642SOL    HW120669   3.935   1.138   1.530
 6642SOL    HW220670   3.890   1.090   1.394
 6643SOL     OW20671   3.812   1.269   1.012
 6643SOL    HW120672   3.783   1.281   1.102
 6643SOL    HW220673   3.753   1.203   0.976
 6644SOL     OW20674   3.845   1.789   1.823
 6644SOL    HW120675   3.793   1.725   1.872
 6644SOL    HW220676   3.895   1.835   1.891
 6645SOL     OW20677   3.801   0.408   0.003
 6645SOL    HW120678   3.763   0.328   0.039
 6645SOL    HW220679   3.776   0.407  13.811
 6646SOL     OW20680   3.794   0.145   0.353
 6646SOL    HW120681   3.756   0.222   0.310
 6646SOL    HW220682   3.888   0.160   0.350
 6647SOL     OW20683   3.801   1.234   0.666
 6647SOL    HW120684   3.791   1.186   0.748
 6647SOL    HW220685   3.884   1.202   0.629
 6648SOL     OW20686   3.754   1.082   0.307
 6648SOL    HW120687   3.849   1.089   0.316
 6648SOL    HW220688   3.735   0.990   0.327
 6649SOL     OW20689   3.956   0.632   1.969
 6649SOL    HW120690   3.875   0.635   2.020
 6649SOL    HW220691   3.929   0.599   1.883
 6650SOL     OW20692   3.954   0.298   2.857
 6650SOL    HW120693   3.963   0.273   2.949
 6650SOL    HW220694   3.869   0.265   2.831
 6651SOL     OW20695   3.731   0.394   2.498
 6651SOL    HW120696   3.644   0.408   2.535
 6651SOL    HW220697   3.721   0.318   2.441
 6652SOL     OW20698   0.012   1.527   2.914
 6652SOL    HW120699   3.957   1.450   2.900
 6652SOL    HW220700   0.078   1.523   2.845
 6653SOL     OW20701   3.941   1.720   2.338
 6653SOL    HW120702   3.944   1.792   2.401
 6653SOL    HW220703   0.033   1.706   2.315
 6654SOL     OW20704   3.945   1.438   2.369
 6654SOL    HW120705   3.924   1.532   2.369
 6654SOL    HW220706   3.887   1.401   2.435
 6655SOL     OW20707   3.803   0.650   2.422
 6655SOL    HW120708   3.788   0.559   2.447
 6655SOL    HW220709   3.809   0.697   2.505
 6656SOL     OW20710   3.760   1.596   1.991
 6656SOL    HW120711   3.738   1.504   2.008
 6656SOL    HW220712   3.728   1.643   2.068
 6657SOL     OW20713   3.823   0.752   3.437
 6657SOL    HW120714   3.902   0.802   3.457
 6657SOL    HW220715   3.755   0.819   3.428
 6658SOL     OW20716   3.805   0.819   2.635
 6658SOL    HW120717   3.899   0.816   2.652
 6658SOL    HW220718   3.773   0.891   2.689
 6659SOL     OW20719   3.847   1.879   3.432
 6659SOL    HW120720   3.847   1.849   3.523
 6659SOL    HW220721   3.770   1.838   3.392
 6660SOL     OW20722   3.924   0.310   3.382
 6660SOL    HW120723   3.852   0.361   3.345
 6660SOL    HW220724   3.882   0.248   3.442
 6661SOL     OW20725   3.810   0.547   3.254
 6661SOL    HW120726   3.905   0.546   3.241
 6661SOL    HW220727   3.794   0.623   3.310
 6662SOL     OW20728   0.266   0.293   2.193
 6662SOL    HW120729   0.322   0.227   2.152
 6662SOL    HW220730   0.308   0.377   2.171
 6663SOL     OW20731   3.792   1.574   3.213
 6663SOL    HW120732   3.765   1.636   3.145
 6663SOL    HW220733   3.887   1.581   3.215
 6664SOL     OW20734   0.063   1.098   2.396
 6664SOL    HW120735   0.057   1.133   2.307
 6664SOL    HW220736   0.131   1.030   2.390
 6665SOL     OW20737   0.003   0.214   3.111
 6665SOL    HW120738   3.974   0.239   3.199
 6665SOL    HW220739   0.002   0.119   3.111
 6666SOL     OW20740   3.751   1.312   3.139
 6666SOL    HW120741   3.793   1.262   3.209
 6666SOL    HW220742   3.764   1.404   3.164
 6667SOL     OW20743   3.728   1.327   2.048
 6667SOL    HW120744   3.642   1.340   2.008
 6667SOL    HW220745   3.719   1.244   2.095
 6668SOL     OW20746   3.801   1.793   2.801
 6668SOL    HW120747   3.778   1.713   2.754
 6668SOL    HW220748   3.896   1.802   2.788
 6669SOL     OW20749   0.210   1.548   2.726
 6669SOL    HW120750   0.296   1.591   2.724
 6669SOL    HW220751   0.215   1.483   2.656
 6670SOL     OW20752   3.752   0.536   2.980
 6670SOL    HW120753   3.831   0.531   2.926
 6670SOL    HW220754   3.784   0.544   3.069
 6671SOL     OW20755   3.902   0.532   3.575
 6671SOL    HW120756   3.940   0.479   3.505
 6671SOL    HW220757   3.862   0.606   3.530
 6672SOL     OW20758   3.940   1.531   3.588
 6672SOL    HW120759   3.927   1.617   3.628
 6672SOL    HW220760   3.989   1.481   3.654
 6673SOL     OW20761   3.860   1.137   3.334
 6673SOL    HW120762   3.936   1.138   3.392
 6673SOL    HW220763   3.890   1.090   3.256
 6674SOL     OW20764   3.811   1.270   2.873
 6674SOL    HW120765   3.782   1.281   2.964
 6674SOL    HW220766   3.753   1.203   2.838
 6675SOL     OW20767   3.845   1.789   3.685
 6675SOL    HW120768   3.793   1.725   3.734
 6675SOL    HW220769   3.895   1.835   3.753
 6676SOL     OW20770   3.823   0.316   1.858
 6676SOL    HW120771   3.755   0.332   1.924
 6676SOL    HW220772   3.820   0.393   1.801
 6677SOL     OW20773   3.775   0.150   2.206
 6677SOL    HW120774   3.742   0.205   2.136
 6677SOL    HW220775   3.870   0.156   2.198
 6678SOL     OW20776   3.802   1.237   2.527
 6678SOL    HW120777   3.794   1.188   2.609
 6678SOL    HW220778   3.879   1.198   2.484
 6679SOL     OW20779   3.753   1.083   2.174
 6679SOL    HW120780   3.843   1.084   2.142
 6679SOL    HW220781   3.735   0.991   2.194
 6680SOL     OW20782   3.956   0.632   3.831
 6680SOL    HW120783   3.875   0.635   3.882
 6680SOL    HW220784   3.929   0.599   3.745
 6681SOL     OW20785   3.955   0.298   4.719
 6681SOL    HW120786   3.963   0.273   4.811
 6681SOL    HW220787   3.869   0.265   4.693
 6682SOL     OW20788   3.731   0.394   4.360
 6682SOL    HW120789   3.644   0.408   4.397
 6682SOL    HW220790   3.721   0.318   4.303
 6683SOL     OW20791   0.012   1.527   4.776
 6683SOL    HW120792   3.957   1.451   4.762
 6683SOL    HW220793   0.078   1.523   4.707
 6684SOL     OW20794   3.941   1.720   4.200
 6684SOL    HW120795   3.944   1.792   4.263
 6684SOL    HW220796   0.033   1.706   4.176
 6685SOL     OW20797   3.946   1.438   4.231
 6685SOL    HW120798   3.924   1.532   4.231
 6685SOL    HW220799   3.887   1.401   4.297
 6686SOL     OW20800   3.803   0.650   4.284
 6686SOL    HW120801   3.788   0.559   4.309
 6686SOL    HW220802   3.809   0.697   4.367
 6687SOL     OW20803   3.760   1.596   3.853
 6687SOL    HW120804   3.738   1.504   3.870
 6687SOL    HW220805   3.728   1.643   3.930
 6688SOL     OW20806   3.823   0.752   5.299
 6688SOL    HW120807   3.902   0.802   5.319
 6688SOL    HW220808   3.754   0.819   5.290
 6689SOL     OW20809   3.805   0.819   4.497
 6689SOL    HW120810   3.899   0.816   4.514
 6689SOL    HW220811   3.773   0.891   4.551
 6690SOL     OW20812   3.847   1.879   5.293
 6690SOL    HW120813   3.846   1.849   5.384
 6690SOL    HW220814   3.770   1.839   5.254
 6691SOL     OW20815   3.924   0.310   5.244
 6691SOL    HW120816   3.852   0.361   5.207
 6691SOL    HW220817   3.881   0.248   5.304
 6692SOL     OW20818   3.810   0.547   5.116
 6692SOL    HW120819   3.905   0.546   5.103
 6692SOL    HW220820   3.794   0.623   5.172
 6693SOL     OW20821   0.266   0.293   4.055
 6693SOL    HW120822   0.322   0.227   4.014
 6693SOL    HW220823   0.308   0.377   4.033
 6694SOL     OW20824   3.792   1.574   5.075
 6694SOL    HW120825   3.764   1.636   5.007
 6694SOL    HW220826   3.887   1.581   5.077
 6695SOL     OW20827   0.063   1.098   4.258
 6695SOL    HW120828   0.056   1.133   4.169
 6695SOL    HW220829   0.131   1.030   4.252
 6696SOL     OW20830   0.003   0.214   4.973
 6696SOL    HW120831   3.974   0.239   5.061
 6696SOL    HW220832   0.002   0.119   4.973
 6697SOL     OW20833   3.752   1.312   5.000
 6697SOL    HW120834   3.793   1.262   5.071
 6697SOL    HW220835   3.764   1.404   5.026
 6698SOL     OW20836   3.728   1.326   3.910
 6698SOL    HW120837   3.642   1.340   3.870
 6698SOL    HW220838   3.719   1.244   3.957
 6699SOL     OW20839   3.801   1.793   4.663
 6699SOL    HW120840   3.778   1.713   4.617
 6699SOL    HW220841   3.896   1.802   4.650
 6700SOL     OW20842   0.210   1.548   4.588
 6700SOL    HW120843   0.296   1.591   4.586
 6700SOL    HW220844   0.215   1.483   4.518
 6701SOL     OW20845   3.752   0.536   4.842
 6701SOL    HW120846   3.831   0.531   4.788
 6701SOL    HW220847   3.784   0.544   4.931
 6702SOL     OW20848   3.903   0.532   5.437
 6702SOL    HW120849   3.940   0.479   5.367
 6702SOL    HW220850   3.862   0.606   5.392
 6703SOL     OW20851   3.940   1.531   5.450
 6703SOL    HW120852   3.928   1.618   5.489
 6703SOL    HW220853   3.988   1.482   5.517
 6704SOL     OW20854   3.860   1.137   5.196
 6704SOL    HW120855   3.936   1.139   5.254
 6704SOL    HW220856   3.890   1.090   5.118
 6705SOL     OW20857   3.811   1.270   4.735
 6705SOL    HW120858   3.782   1.281   4.826
 6705SOL    HW220859   3.753   1.203   4.700
 6706SOL     OW20860   3.846   1.788   5.547
 6706SOL    HW120861   3.793   1.725   5.596
 6706SOL    HW220862   3.895   1.835   5.614
 6707SOL     OW20863   3.823   0.316   3.720
 6707SOL    HW120864   3.755   0.332   3.786
 6707SOL    HW220865   3.820   0.393   3.663
 6708SOL     OW20866   3.775   0.150   4.068
 6708SOL    HW120867   3.742   0.205   3.998
 6708SOL    HW220868   3.870   0.156   4.060
 6709SOL     OW20869   3.803   1.237   4.389
 6709SOL    HW120870   3.794   1.188   4.471
 6709SOL    HW220871   3.879   1.198   4.346
 6710SOL     OW20872   3.753   1.083   4.036
 6710SOL    HW120873   3.843   1.084   4.004
 6710SOL    HW220874   3.735   0.991   4.056
 6711SOL     OW20875   3.956   0.632   5.693
 6711SOL    HW120876   3.875   0.635   5.744
 6711SOL    HW220877   3.929   0.599   5.607
 6712SOL     OW20878   3.954   0.299   6.581
 6712SOL    HW120879   3.963   0.273   6.673
 6712SOL    HW220880   3.869   0.265   6.555
 6713SOL     OW20881   3.731   0.393   6.222
 6713SOL    HW120882   3.644   0.407   6.259
 6713SOL    HW220883   3.721   0.318   6.164
 6714SOL     OW20884   0.012   1.527   6.638
 6714SOL    HW120885   3.957   1.450   6.624
 6714SOL    HW220886   0.078   1.523   6.569
 6715SOL     OW20887   3.941   1.720   6.062
 6715SOL    HW120888   3.944   1.792   6.125
 6715SOL    HW220889   0.033   1.706   6.038
 6716SOL     OW20890   3.946   1.438   6.094
 6716SOL    HW120891   3.924   1.532   6.093
 6716SOL    HW220892   3.888   1.401   6.159
 6717SOL     OW20893   3.804   0.650   6.146
 6717SOL    HW120894   3.788   0.558   6.171
 6717SOL    HW220895   3.809   0.697   6.229
 6718SOL     OW20896   3.761   1.595   5.716
 6718SOL    HW120897   3.738   1.504   5.732
 6718SOL    HW220898   3.728   1.643   5.792
 6719SOL     OW20899   3.823   0.753   7.161
 6719SOL    HW120900   3.903   0.802   7.180
 6719SOL    HW220901   3.756   0.820   7.153
 6720SOL     OW20902   3.805   0.818   6.360
 6720SOL    HW120903   3.900   0.816   6.376
 6720SOL    HW220904   3.774   0.891   6.413
 6721SOL     OW20905   3.847   1.879   7.156
 6721SOL    HW120906   3.847   1.849   7.247
 6721SOL    HW220907   3.770   1.838   7.116
 6722SOL     OW20908   3.924   0.310   7.106
 6722SOL    HW120909   3.852   0.361   7.069
 6722SOL    HW220910   3.882   0.248   7.166
 6723SOL     OW20911   3.810   0.547   6.979
 6723SOL    HW120912   3.905   0.546   6.966
 6723SOL    HW220913   3.794   0.623   7.034
 6724SOL     OW20914   0.266   0.293   5.917
 6724SOL    HW120915   0.321   0.227   5.876
 6724SOL    HW220916   0.308   0.376   5.894
 6725SOL     OW20917   3.792   1.574   6.937
 6725SOL    HW120918   3.765   1.636   6.869
 6725SOL    HW220919   3.888   1.581   6.939
 6726SOL     OW20920   0.063   1.098   6.120
 6726SOL    HW120921   0.056   1.132   6.031
 6726SOL    HW220922   0.129   1.029   6.114
 6727SOL     OW20923   0.002   0.214   6.835
 6727SOL    HW120924   3.975   0.238   6.923
 6727SOL    HW220925   0.002   0.119   6.835
 6728SOL     OW20926   3.749   1.313   6.863
 6728SOL    HW120927   3.793   1.263   6.932
 6728SOL    HW220928   3.764   1.404   6.888
 6729SOL     OW20929   3.728   1.326   5.772
 6729SOL    HW120930   3.642   1.340   5.732
 6729SOL    HW220931   3.719   1.244   5.819
 6730SOL     OW20932   3.801   1.794   6.526
 6730SOL    HW120933   3.778   1.714   6.479
 6730SOL    HW220934   3.896   1.802   6.512
 6731SOL     OW20935   0.210   1.549   6.450
 6731SOL    HW120936   0.295   1.592   6.448
 6731SOL    HW220937   0.215   1.483   6.380
 6732SOL     OW20938   3.752   0.536   6.704
 6732SOL    HW120939   3.831   0.531   6.650
 6732SOL    HW220940   3.785   0.544   6.793
 6733SOL     OW20941   3.902   0.532   7.299
 6733SOL    HW120942   3.940   0.479   7.229
 6733SOL    HW220943   3.862   0.607   7.254
 6734SOL     OW20944   3.939   1.530   7.312
 6734SOL    HW120945   3.928   1.616   7.353
 6734SOL    HW220946   3.994   1.481   7.373
 6735SOL     OW20947   3.860   1.136   7.058
 6735SOL    HW120948   3.936   1.139   7.116
 6735SOL    HW220949   3.890   1.090   6.980
 6736SOL     OW20950   3.811   1.270   6.598
 6736SOL    HW120951   3.781   1.281   6.688
 6736SOL    HW220952   3.753   1.203   6.561
 6737SOL     OW20953   3.845   1.789   7.410
 6737SOL    HW120954   3.793   1.725   7.459
 6737SOL    HW220955   3.895   1.835   7.477
 6738SOL     OW20956   3.823   0.316   5.582
 6738SOL    HW120957   3.755   0.332   5.648
 6738SOL    HW220958   3.820   0.393   5.525
 6739SOL     OW20959   3.775   0.150   5.930
 6739SOL    HW120960   3.742   0.206   5.860
 6739SOL    HW220961   3.870   0.156   5.923
 6740SOL     OW20962   3.803   1.237   6.251
 6740SOL    HW120963   3.793   1.188   6.333
 6740SOL    HW220964   3.879   1.198   6.208
 6741SOL     OW20965   3.753   1.083   5.898
 6741SOL    HW120966   3.843   1.083   5.865
 6741SOL    HW220967   3.735   0.991   5.918
 6742SOL     OW20968   3.956   0.632   7.555
 6742SOL    HW120969   3.875   0.635   7.605
 6742SOL    HW220970   3.929   0.599   7.469
 6743SOL     OW20971   3.954   0.299   8.443
 6743SOL    HW120972   3.963   0.274   8.535
 6743SOL    HW220973   3.868   0.265   8.417
 6744SOL     OW20974   3.731   0.393   8.085
 6744SOL    HW120975   3.644   0.407   8.121
 6744SOL    HW220976   3.722   0.317   8.027
 6745SOL     OW20977   0.012   1.527   8.499
 6745SOL    HW120978   3.958   1.449   8.485
 6745SOL    HW220979   0.078   1.523   8.431
 6746SOL     OW20980   3.941   1.720   7.924
 6746SOL    HW120981   3.944   1.792   7.987
 6746SOL    HW220982   0.033   1.706   7.900
 6747SOL     OW20983   3.945   1.438   7.956
 6747SOL    HW120984   3.924   1.532   7.955
 6747SOL    HW220985   3.887   1.402   8.023
 6748SOL     OW20986   3.802   0.650   8.008
 6748SOL    HW120987   3.788   0.559   8.033
 6748SOL    HW220988   3.808   0.697   8.091
 6749SOL     OW20989   3.759   1.596   7.578
 6749SOL    HW120990   3.738   1.504   7.595
 6749SOL    HW220991   3.727   1.643   7.655
 6750SOL     OW20992   3.823   0.752   9.023
 6750SOL    HW120993   3.903   0.801   9.042
 6750SOL    HW220994   3.755   0.819   9.015
 6751SOL     OW20995   3.805   0.819   8.222
 6751SOL    HW120996   3.900   0.816   8.237
 6751SOL    HW220997   3.774   0.892   8.276
 6752SOL     OW20998   3.847   1.879   9.018
 6752SOL    HW120999   3.846   1.849   9.109
 6752SOL    HW221000   3.770   1.837   8.979
 6753SOL     OW21001   3.924   0.310   8.968
 6753SOL    HW121002   3.852   0.361   8.931
 6753SOL    HW221003   3.882   0.248   9.028
 6754SOL     OW21004   3.810   0.547   8.840
 6754SOL    HW121005   3.905   0.546   8.827
 6754SOL    HW221006   3.794   0.623   8.896
 6755SOL     OW21007   0.266   0.294   7.779
 6755SOL    HW121008   0.322   0.227   7.739
 6755SOL    HW221009   0.308   0.377   7.758
 6756SOL     OW21010   3.793   1.574   8.799
 6756SOL    HW121011   3.766   1.636   8.731
 6756SOL    HW221012   3.888   1.581   8.801
 6757SOL     OW21013   0.064   1.097   7.981
 6757SOL    HW121014   0.059   1.135   7.893
 6757SOL    HW221015   0.136   1.034   7.976
 6758SOL     OW21016   0.003   0.214   8.697
 6758SOL    HW121017   3.975   0.238   8.785
 6758SOL    HW221018   0.002   0.119   8.697
 6759SOL     OW21019   3.749   1.313   8.725
 6759SOL    HW121020   3.793   1.262   8.793
 6759SOL    HW221021   3.764   1.404   8.749
 6760SOL     OW21022   3.728   1.327   7.635
 6760SOL    HW121023   3.642   1.341   7.596
 6760SOL    HW221024   3.720   1.244   7.682
 6761SOL     OW21025   3.802   1.794   8.388
 6761SOL    HW121026   3.778   1.714   8.341
 6761SOL    HW221027   3.896   1.803   8.374
 6762SOL     OW21028   0.211   1.549   8.312
 6762SOL    HW121029   0.296   1.591   8.311
 6762SOL    HW221030   0.216   1.484   8.241
 6763SOL     OW21031   3.752   0.536   8.565
 6763SOL    HW121032   3.831   0.531   8.512
 6763SOL    HW221033   3.785   0.544   8.655
 6764SOL     OW21034   3.902   0.532   9.161
 6764SOL    HW121035   3.940   0.479   9.091
 6764SOL    HW221036   3.862   0.606   9.116
 6765SOL     OW21037   3.940   1.530   9.174
 6765SOL    HW121038   3.928   1.616   9.215
 6765SOL    HW221039   3.991   1.481   9.238
 6766SOL     OW21040   3.860   1.137   8.919
 6766SOL    HW121041   3.935   1.138   8.979
 6766SOL    HW221042   3.891   1.091   8.842
 6767SOL     OW21043   3.810   1.271   8.459
 6767SOL    HW121044   3.782   1.281   8.550
 6767SOL    HW221045   3.753   1.203   8.424
 6768SOL     OW21046   3.845   1.789   9.272
 6768SOL    HW121047   3.793   1.725   9.320
 6768SOL    HW221048   3.895   1.835   9.339
 6769SOL     OW21049   3.823   0.316   7.444
 6769SOL    HW121050   3.755   0.333   7.509
 6769SOL    HW221051   3.820   0.393   7.386
 6770SOL     OW21052   3.775   0.151   7.792
 6770SOL    HW121053   3.742   0.206   7.721
 6770SOL    HW221054   3.870   0.156   7.785
 6771SOL     OW21055   3.801   1.236   8.113
 6771SOL    HW121056   3.796   1.188   8.196
 6771SOL    HW221057   3.878   1.199   8.069
 6772SOL     OW21058   3.752   1.082   7.760
 6772SOL    HW121059   3.843   1.084   7.728
 6772SOL    HW221060   3.735   0.990   7.779
 6773SOL     OW21061   3.956   0.632   9.417
 6773SOL    HW121062   3.875   0.635   9.468
 6773SOL    HW221063   3.929   0.599   9.331
 6774SOL     OW21064   3.954   0.298  10.305
 6774SOL    HW121065   3.963   0.273  10.397
 6774SOL    HW221066   3.869   0.265  10.279
 6775SOL     OW21067   3.731   0.393   9.946
 6775SOL    HW121068   3.644   0.408   9.983
 6775SOL    HW221069   3.721   0.318   9.889
 6776SOL     OW21070   0.012   1.527  10.362
 6776SOL    HW121071   3.957   1.450  10.348
 6776SOL    HW221072   0.078   1.523  10.293
 6777SOL     OW21073   3.941   1.720   9.786
 6777SOL    HW121074   3.944   1.792   9.849
 6777SOL    HW221075   0.033   1.706   9.762
 6778SOL     OW21076   3.945   1.438   9.817
 6778SOL    HW121077   3.924   1.532   9.817
 6778SOL    HW221078   3.887   1.401   9.883
 6779SOL     OW21079   3.803   0.650   9.870
 6779SOL    HW121080   3.788   0.559   9.895
 6779SOL    HW221081   3.808   0.697   9.953
 6780SOL     OW21082   3.760   1.596   9.439
 6780SOL    HW121083   3.738   1.504   9.456
 6780SOL    HW221084   3.727   1.643   9.516
 6781SOL     OW21085   3.823   0.752  10.885
 6781SOL    HW121086   3.902   0.802  10.904
 6781SOL    HW221087   3.755   0.819  10.876
 6782SOL     OW21088   3.805   0.819  10.083
 6782SOL    HW121089   3.900   0.816  10.100
 6782SOL    HW221090   3.774   0.892  10.137
 6783SOL     OW21091   3.847   1.879  10.880
 6783SOL    HW121092   3.846   1.849  10.971
 6783SOL    HW221093   3.770   1.837  10.840
 6784SOL     OW21094   3.924   0.310  10.830
 6784SOL    HW121095   3.852   0.361  10.793
 6784SOL    HW221096   3.881   0.248  10.890
 6785SOL     OW21097   3.810   0.547  10.702
 6785SOL    HW121098   3.905   0.546  10.689
 6785SOL    HW221099   3.794   0.623  10.758
 6786SOL     OW21100   0.266   0.293   9.641
 6786SOL    HW121101   0.322   0.227   9.600
 6786SOL    HW221102   0.308   0.377   9.619
 6787SOL     OW21103   3.792   1.574  10.661
 6787SOL    HW121104   3.765   1.636  10.593
 6787SOL    HW221105   3.888   1.581  10.663
 6788SOL     OW21106   0.063   1.098   9.844
 6788SOL    HW121107   0.057   1.133   9.755
 6788SOL    HW221108   0.132   1.031   9.838
 6789SOL     OW21109   0.003   0.214  10.559
 6789SOL    HW121110   3.974   0.238  10.647
 6789SOL    HW221111   0.002   0.119  10.559
 6790SOL     OW21112   3.750   1.313  10.587
 6790SOL    HW121113   3.793   1.262  10.656
 6790SOL    HW221114   3.764   1.404  10.612
 6791SOL     OW21115   3.728   1.327   9.496
 6791SOL    HW121116   3.642   1.340   9.456
 6791SOL    HW221117   3.719   1.244   9.543
 6792SOL     OW21118   3.802   1.794  10.249
 6792SOL    HW121119   3.778   1.714  10.203
 6792SOL    HW221120   3.896   1.802  10.236
 6793SOL     OW21121   0.210   1.548  10.174
 6793SOL    HW121122   0.296   1.591  10.173
 6793SOL    HW221123   0.215   1.483  10.104
 6794SOL     OW21124   3.752   0.536  10.428
 6794SOL    HW121125   3.831   0.531  10.374
 6794SOL    HW221126   3.785   0.544  10.517
 6795SOL     OW21127   3.902   0.532  11.023
 6795SOL    HW121128   3.940   0.479  10.953
 6795SOL    HW221129   3.862   0.606  10.978
 6796SOL     OW21130   3.940   1.531  11.036
 6796SOL    HW121131   3.928   1.617  11.076
 6796SOL    HW221132   3.990   1.481  11.101
 6797SOL     OW21133   3.860   1.137  10.782
 6797SOL    HW121134   3.936   1.139  10.840
 6797SOL    HW221135   3.890   1.090  10.704
 6798SOL     OW21136   3.811   1.270  10.321
 6798SOL    HW121137   3.782   1.281  10.412
 6798SOL    HW221138   3.753   1.203  10.286
 6799SOL     OW21139   3.845   1.789  11.134
 6799SOL    HW121140   3.793   1.725  11.182
 6799SOL    HW221141   3.895   1.835  11.201
 6800SOL     OW21142   3.823   0.316   9.306
 6800SOL    HW121143   3.755   0.332   9.371
 6800SOL    HW221144   3.820   0.393   9.249
 6801SOL     OW21145   3.775   0.150   9.654
 6801SOL    HW121146   3.742   0.206   9.584
 6801SOL    HW221147   3.870   0.156   9.647
 6802SOL     OW21148   3.802   1.237   9.975
 6802SOL    HW121149   3.794   1.188  10.057
 6802SOL    HW221150   3.879   1.198   9.932
 6803SOL     OW21151   3.753   1.083   9.622
 6803SOL    HW121152   3.843   1.084   9.590
 6803SOL    HW221153   3.735   0.991   9.641
 6804SOL     OW21154   3.956   0.632  11.279
 6804SOL    HW121155   3.875   0.635  11.330
 6804SOL    HW221156   3.929   0.599  11.193
 6805SOL     OW21157   3.954   0.298  12.167
 6805SOL    HW121158   3.963   0.273  12.259
 6805SOL    HW221159   3.869   0.265  12.141
 6806SOL     OW21160   3.731   0.393  11.808
 6806SOL    HW121161   3.644   0.408  11.845
 6806SOL    HW221162   3.721   0.318  11.751
 6807SOL     OW21163   0.012   1.527  12.224
 6807SOL    HW121164   3.957   1.450  12.210
 6807SOL    HW221165   0.078   1.523  12.155
 6808SOL     OW21166   3.941   1.720  11.648
 6808SOL    HW121167   3.944   1.792  11.711
 6808SOL    HW221168   0.033   1.706  11.624
 6809SOL     OW21169   3.946   1.438  11.679
 6809SOL    HW121170   3.924   1.532  11.679
 6809SOL    HW221171   3.887   1.401  11.746
 6810SOL     OW21172   3.803   0.650  11.732
 6810SOL    HW121173   3.788   0.558  11.757
 6810SOL    HW221174   3.809   0.697  11.815
 6811SOL     OW21175   3.760   1.596  11.301
 6811SOL    HW121176   3.738   1.504  11.318
 6811SOL    HW221177   3.728   1.643  11.378
 6812SOL     OW21178   3.823   0.753  12.747
 6812SOL    HW121179   3.903   0.802  12.766
 6812SOL    HW221180   3.755   0.819  12.738
 6813SOL     OW21181   3.805   0.819  11.945
 6813SOL    HW121182   3.900   0.816  11.962
 6813SOL    HW221183   3.774   0.892  11.999
 6814SOL     OW21184   3.847   1.879  12.743
 6814SOL    HW121185   3.847   1.850  12.834
 6814SOL    HW221186   3.770   1.837  12.703
 6815SOL     OW21187   3.924   0.310  12.693
 6815SOL    HW121188   3.852   0.361  12.655
 6815SOL    HW221189   3.881   0.248  12.751
 6816SOL     OW21190   3.810   0.547  12.565
 6816SOL    HW121191   3.905   0.546  12.552
 6816SOL    HW221192   3.794   0.623  12.620
 6817SOL     OW21193   0.266   0.293  11.503
 6817SOL    HW121194   0.322   0.227  11.462
 6817SOL    HW221195   0.308   0.377  11.481
 6818SOL     OW21196   3.792   1.574  12.523
 6818SOL    HW121197   3.765   1.636  12.455
 6818SOL    HW221198   3.888   1.581  12.525
 6819SOL     OW21199   0.063   1.098  11.706
 6819SOL    HW121200   0.057   1.133  11.617
 6819SOL    HW221201   0.132   1.031  11.700
 6820SOL     OW21202   0.003   0.214  12.421
 6820SOL    HW121203   3.975   0.238  12.509
 6820SOL    HW221204   0.002   0.119  12.421
 6821SOL     OW21205   3.750   1.313  12.449
 6821SOL    HW121206   3.793   1.263  12.518
 6821SOL    HW221207   3.764   1.404  12.473
 6822SOL     OW21208   3.728   1.327  11.358
 6822SOL    HW121209   3.642   1.340  11.318
 6822SOL    HW221210   3.719   1.244  11.405
 6823SOL     OW21211   3.802   1.794  12.111
 6823SOL    HW121212   3.778   1.714  12.065
 6823SOL    HW221213   3.896   1.802  12.098
 6824SOL     OW21214   0.210   1.548  12.036
 6824SOL    HW121215   0.296   1.591  12.035
 6824SOL    HW221216   0.215   1.483  11.966
 6825SOL     OW21217   3.752   0.536  12.290
 6825SOL    HW121218   3.831   0.531  12.236
 6825SOL    HW221219   3.785   0.544  12.379
 6826SOL     OW21220   3.903   0.533  12.885
 6826SOL    HW121221   3.940   0.479  12.815
 6826SOL    HW221222   3.863   0.607  12.840
 6827SOL     OW21223   3.940   1.531  12.899
 6827SOL    HW121224   3.928   1.617  12.939
 6827SOL    HW221225   3.988   1.481  12.964
 6828SOL     OW21226   3.860   1.137  12.644
 6828SOL    HW121227   3.936   1.139  12.701
 6828SOL    HW221228   3.890   1.090  12.566
 6829SOL     OW21229   3.811   1.270  12.183
 6829SOL    HW121230   3.782   1.281  12.274
 6829SOL    HW221231   3.753   1.203  12.148
 6830SOL     OW21232   3.846   1.790  12.997
 6830SOL    HW121233   3.794   1.726  13.045
 6830SOL    HW221234   3.895   1.837  13.064
 6831SOL     OW21235   3.823   0.316  11.168
 6831SOL    HW121236   3.755   0.332  11.233
 6831SOL    HW221237   3.820   0.393  11.111
 6832SOL     OW21238   3.775   0.150  11.516
 6832SOL    HW121239   3.742   0.206  11.446
 6832SOL    HW221240   3.870   0.156  11.509
 6833SOL     OW21241   3.802   1.237  11.837
 6833SOL    HW121242   3.794   1.188  11.919
 6833SOL    HW221243   3.879   1.198  11.794
 6834SOL     OW21244   3.753   1.083  11.484
 6834SOL    HW121245   3.843   1.084  11.451
 6834SOL    HW221246   3.735   0.990  11.504
 6835SOL     OW21247   3.953   0.631  13.143
 6835SOL    HW121248   3.870   0.634  13.190
 6835SOL    HW221249   3.930   0.598  13.055
 6836SOL     OW21250   3.720   0.387  13.645
 6836SOL    HW121251   3.629   0.404  13.669
 6836SOL    HW221252   3.721   0.296  13.615
 6837SOL     OW21253   3.941   1.715  13.504
 6837SOL    HW121254   3.940   1.789  13.565
 6837SOL    HW221255   0.033   1.701  13.484
 6838SOL     OW21256   3.945   1.435  13.536
 6838SOL    HW121257   3.926   1.529  13.536
 6838SOL    HW221258   3.885   1.398  13.602
 6839SOL     OW21259   3.942   1.098   0.008
 6839SOL    HW121260   3.981   1.055   0.084
 6839SOL    HW221261   3.851   1.113   0.034
 6840SOL     OW21262   3.823   0.646  13.595
 6840SOL    HW121263   3.779   0.562  13.610
 6840SOL    HW221264   3.812   0.694  13.677
 6841SOL     OW21265   3.758   1.596  13.162
 6841SOL    HW121266   3.737   1.504  13.180
 6841SOL    HW221267   3.726   1.643  13.239
 6842SOL     OW21268   3.797   0.808  13.812
 6842SOL    HW121269   3.891   0.817  13.825
 6842SOL    HW221270   3.759   0.887  13.852
 6843SOL     OW21271   0.098   1.811  13.887
 6843SOL    HW121272   0.058   1.735   0.029
 6843SOL    HW221273   0.167   1.839   0.048
 6844SOL     OW21274   0.267   0.295  13.368
 6844SOL    HW121275   0.319   0.223  13.331
 6844SOL    HW221276   0.314   0.374  13.343
 6845SOL     OW21277   0.067   1.099  13.560
 6845SOL    HW121278   0.062   1.136  13.472
 6845SOL    HW221279   0.138   1.035  13.555
 6846SOL     OW21280   3.728   1.327  13.220
 6846SOL    HW121281   3.642   1.341  13.180
 6846SOL    HW221282   3.719   1.244  13.268
 6847SOL     OW21283   0.311   1.536   0.012
 6847SOL    HW121284   0.249   1.598   0.048
 6847SOL    HW221285   0.258   1.479  13.856
 6848SOL     OW21286   3.823   0.317  13.030
 6848SOL    HW121287   3.754   0.332  13.095
 6848SOL    HW221288   3.819   0.393  12.972
 6849SOL     OW21289   3.786   0.150  13.370
 6849SOL    HW121290   3.749   0.207  13.302
 6849SOL    HW221291   3.881   0.155  13.357
 6850SOL     OW21292   3.809   1.230  13.686
 6850SOL    HW121293   3.803   1.171  13.761
 6850SOL    HW221294   3.886   1.199  13.638
 6851SOL     OW21295   3.752   1.081  13.344
 6851SOL    HW121296   3.842   1.083  13.310
 6851SOL    HW221297   3.737   0.989  13.365
 6852SOL     OW21298   3.954   2.496   0.132
 6852SOL    HW121299   3.887   2.501   0.200
 6852SOL    HW221300   3.913   2.446   0.062
 6853SOL     OW21301   3.962   2.126   0.987
 6853SOL    HW121302   3.966   2.120   1.083
 6853SOL    HW221303   3.869   2.113   0.967
 6854SOL     OW21304   3.723   2.245   0.636
 6854SOL    HW121305   3.643   2.268   0.684
 6854SOL    HW221306   3.704   2.162   0.595
 6855SOL     OW21307   0.013   3.385   1.053
 6855SOL    HW121308   3.958   3.309   1.034
 6855SOL    HW221309   0.078   3.387   0.983
 6856SOL     OW21310   3.939   3.573   0.480
 6856SOL    HW121311   3.949   3.648   0.539
 6856SOL    HW221312   0.026   3.561   0.442
 6857SOL     OW21313   3.934   3.296   0.507
 6857SOL    HW121314   3.926   3.391   0.505
 6857SOL    HW221315   3.881   3.269   0.582
 6858SOL     OW21316   3.811   2.502   0.559
 6858SOL    HW121317   3.781   2.415   0.584
 6858SOL    HW221318   3.810   2.552   0.641
 6859SOL     OW21319   3.753   3.466   0.118
 6859SOL    HW121320   3.728   3.375   0.135
 6859SOL    HW221321   3.718   3.515   0.192
 6860SOL     OW21322   3.823   2.604   1.582
 6860SOL    HW121323   3.904   2.651   1.603
 6860SOL    HW221324   3.757   2.673   1.573
 6861SOL     OW21325   3.805   2.680   0.768
 6861SOL    HW121326   3.899   2.678   0.787
 6861SOL    HW221327   3.771   2.751   0.823
 6862SOL     OW21328   3.849   3.726   1.569
 6862SOL    HW121329   3.847   3.698   1.660
 6862SOL    HW221330   3.765   3.698   1.533
 6863SOL     OW21331   3.921   2.151   1.516
 6863SOL    HW121332   3.840   2.195   1.491
 6863SOL    HW221333   3.894   2.066   1.550
 6864SOL     OW21334   3.810   2.408   1.391
 6864SOL    HW121335   3.906   2.404   1.381
 6864SOL    HW221336   3.795   2.482   1.451
 6865SOL     OW21337   3.792   3.435   1.350
 6865SOL    HW121338   3.766   3.499   1.283
 6865SOL    HW221339   3.888   3.443   1.355
 6866SOL     OW21340   0.074   2.957   0.539
 6866SOL    HW121341   0.076   3.014   0.462
 6866SOL    HW221342   0.157   2.909   0.535
 6867SOL     OW21343   0.004   2.073   1.253
 6867SOL    HW121344   3.973   2.105   1.338
 6867SOL    HW221345   0.011   1.979   1.263
 6868SOL     OW21346   3.750   3.175   1.276
 6868SOL    HW121347   3.792   3.124   1.345
 6868SOL    HW221348   3.765   3.266   1.300
 6869SOL     OW21349   3.990   1.921   0.656
 6869SOL    HW121350   0.009   2.014   0.667
 6869SOL    HW221351   0.015   1.881   0.739
 6870SOL     OW21352   3.740   3.176   0.174
 6870SOL    HW121353   3.657   3.188   0.127
 6870SOL    HW221354   3.730   3.093   0.220
 6871SOL     OW21355   3.803   3.650   0.939
 6871SOL    HW121356   3.780   3.570   0.892
 6871SOL    HW221357   3.897   3.659   0.928
 6872SOL     OW21358   0.210   3.419   0.865
 6872SOL    HW121359   0.281   3.484   0.861
 6872SOL    HW221360   0.229   3.358   0.795
 6873SOL     OW21361   3.756   2.403   1.119
 6873SOL    HW121362   3.839   2.400   1.072
 6873SOL    HW221363   3.782   2.406   1.212
 6874SOL     OW21364   3.898   2.377   1.723
 6874SOL    HW121365   3.923   2.315   1.655
 6874SOL    HW221366   3.859   2.451   1.676
 6875SOL     OW21367   3.939   3.391   1.728
 6875SOL    HW121368   3.927   3.479   1.763
 6875SOL    HW221369   3.990   3.345   1.794
 6876SOL     OW21370   3.859   3.000   1.471
 6876SOL    HW121371   3.933   3.000   1.532
 6876SOL    HW221372   3.892   2.954   1.394
 6877SOL     OW21373   3.810   3.131   1.011
 6877SOL    HW121374   3.783   3.143   1.102
 6877SOL    HW221375   3.752   3.064   0.977
 6878SOL     OW21376   3.842   3.646   1.823
 6878SOL    HW121377   3.791   3.582   1.873
 6878SOL    HW221378   3.888   3.697   1.889
 6879SOL     OW21379   3.776   2.273   0.031
 6879SOL    HW121380   3.742   2.189   0.063
 6879SOL    HW221381   3.757   2.272  13.837
 6880SOL     OW21382   3.783   2.019   0.347
 6880SOL    HW121383   3.757   2.041   0.257
 6880SOL    HW221384   3.879   2.023   0.346
 6881SOL     OW21385   3.798   3.094   0.667
 6881SOL    HW121386   3.793   3.048   0.751
 6881SOL    HW221387   3.884   3.071   0.632
 6882SOL     OW21388   3.751   2.937   0.308
 6882SOL    HW121389   3.847   2.945   0.315
 6882SOL    HW221390   3.734   2.844   0.325
 6883SOL     OW21391   3.954   2.495   1.972
 6883SOL    HW121392   3.873   2.491   2.024
 6883SOL    HW221393   3.930   2.458   1.887
 6884SOL     OW21394   3.962   2.125   2.850
 6884SOL    HW121395   3.966   2.119   2.945
 6884SOL    HW221396   3.869   2.113   2.829
 6885SOL     OW21397   3.722   2.242   2.498
 6885SOL    HW121398   3.643   2.268   2.546
 6885SOL    HW221399   3.699   2.159   2.457
 6886SOL     OW21400   0.011   3.386   2.914
 6886SOL    HW121401   3.958   3.309   2.897
 6886SOL    HW221402   0.077   3.386   2.845
 6887SOL     OW21403   3.941   3.581   2.338
 6887SOL    HW121404   3.949   3.654   2.399
 6887SOL    HW221405   0.031   3.562   2.311
 6888SOL     OW21406   3.942   3.300   2.367
 6888SOL    HW121407   3.925   3.394   2.370
 6888SOL    HW221408   3.887   3.264   2.437
 6889SOL     OW21409   3.814   2.501   2.423
 6889SOL    HW121410   3.783   2.414   2.447
 6889SOL    HW221411   3.810   2.551   2.505
 6890SOL     OW21412   3.756   3.457   1.993
 6890SOL    HW121413   3.736   3.364   2.009
 6890SOL    HW221414   3.725   3.501   2.072
 6891SOL     OW21415   3.823   2.604   3.444
 6891SOL    HW121416   3.904   2.651   3.465
 6891SOL    HW221417   3.757   2.673   3.435
 6892SOL     OW21418   3.805   2.678   2.632
 6892SOL    HW121419   3.899   2.677   2.650
 6892SOL    HW221420   3.772   2.750   2.686
 6893SOL     OW21421   3.849   3.726   3.431
 6893SOL    HW121422   3.847   3.698   3.522
 6893SOL    HW221423   3.765   3.698   3.395
 6894SOL     OW21424   3.921   2.151   3.378
 6894SOL    HW121425   3.840   2.195   3.353
 6894SOL    HW221426   3.893   2.066   3.412
 6895SOL     OW21427   0.000   1.891   2.023
 6895SOL    HW121428   0.037   1.978   2.009
 6895SOL    HW221429   0.059   1.850   2.086
 6896SOL     OW21430   3.811   2.408   3.253
 6896SOL    HW121431   3.906   2.404   3.243
 6896SOL    HW221432   3.796   2.482   3.313
 6897SOL     OW21433   0.280   2.151   2.182
 6897SOL    HW121434   0.297   2.075   2.127
 6897SOL    HW221435   0.325   2.223   2.138
 6898SOL     OW21436   3.793   3.435   3.212
 6898SOL    HW121437   3.767   3.499   3.145
 6898SOL    HW221438   3.888   3.443   3.217
 6899SOL     OW21439   0.065   2.957   2.395
 6899SOL    HW121440   0.057   2.996   2.308
 6899SOL    HW221441   0.138   2.895   2.387
 6900SOL     OW21442   0.004   2.074   3.115
 6900SOL    HW121443   3.973   2.105   3.200
 6900SOL    HW221444   0.011   1.979   3.125
 6901SOL     OW21445   3.750   3.175   3.138
 6901SOL    HW121446   3.792   3.124   3.207
 6901SOL    HW221447   3.765   3.266   3.163
 6902SOL     OW21448   3.995   1.922   2.516
 6902SOL    HW121449   0.004   2.016   2.530
 6902SOL    HW221450   0.018   1.883   2.601
 6903SOL     OW21451   3.727   3.187   2.050
 6903SOL    HW121452   3.641   3.201   2.010
 6903SOL    HW221453   3.718   3.104   2.096
 6904SOL     OW21454   3.803   3.651   2.801
 6904SOL    HW121455   3.780   3.570   2.755
 6904SOL    HW221456   3.897   3.659   2.790
 6905SOL     OW21457   0.210   3.418   2.728
 6905SOL    HW121458   0.282   3.481   2.722
 6905SOL    HW221459   0.228   3.355   2.658
 6906SOL     OW21460   3.756   2.402   2.981
 6906SOL    HW121461   3.839   2.400   2.933
 6906SOL    HW221462   3.782   2.406   3.074
 6907SOL     OW21463   3.898   2.377   3.585
 6907SOL    HW121464   3.923   2.315   3.517
 6907SOL    HW221465   3.859   2.450   3.538
 6908SOL     OW21466   3.939   3.391   3.589
 6908SOL    HW121467   3.927   3.479   3.625
 6908SOL    HW221468   3.990   3.345   3.656
 6909SOL     OW21469   3.859   3.000   3.333
 6909SOL    HW121470   3.933   3.000   3.394
 6909SOL    HW221471   3.891   2.954   3.256
 6910SOL     OW21472   3.810   3.132   2.873
 6910SOL    HW121473   3.782   3.143   2.964
 6910SOL    HW221474   3.752   3.064   2.838
 6911SOL     OW21475   3.842   3.646   3.685
 6911SOL    HW121476   3.791   3.582   3.735
 6911SOL    HW221477   3.888   3.697   3.751
 6912SOL     OW21478   3.801   2.194   1.906
 6912SOL    HW121479   3.717   2.159   1.875
 6912SOL    HW221480   3.820   2.266   1.846
 6913SOL     OW21481   3.762   2.024   2.175
 6913SOL    HW121482   3.754   2.084   2.101
 6913SOL    HW221483   3.853   2.034   2.204
 6914SOL     OW21484   3.801   3.099   2.528
 6914SOL    HW121485   3.794   3.051   2.611
 6914SOL    HW221486   3.879   3.063   2.486
 6915SOL     OW21487   3.751   2.939   2.174
 6915SOL    HW121488   3.841   2.942   2.142
 6915SOL    HW221489   3.735   2.847   2.193
 6916SOL     OW21490   3.954   2.495   3.834
 6916SOL    HW121491   3.873   2.491   3.886
 6916SOL    HW221492   3.930   2.458   3.749
 6917SOL     OW21493   3.962   2.125   4.712
 6917SOL    HW121494   3.966   2.120   4.807
 6917SOL    HW221495   3.869   2.113   4.691
 6918SOL     OW21496   3.722   2.242   4.360
 6918SOL    HW121497   3.643   2.268   4.408
 6918SOL    HW221498   3.699   2.159   4.319
 6919SOL     OW21499   0.012   3.386   4.777
 6919SOL    HW121500   3.958   3.309   4.759
 6919SOL    HW221501   0.077   3.387   4.707
 6920SOL     OW21502   3.941   3.581   4.200
 6920SOL    HW121503   3.949   3.654   4.261
 6920SOL    HW221504   0.031   3.562   4.173
 6921SOL     OW21505   3.942   3.300   4.230
 6921SOL    HW121506   3.925   3.394   4.232
 6921SOL    HW221507   3.887   3.264   4.299
 6922SOL     OW21508   3.814   2.501   4.285
 6922SOL    HW121509   3.783   2.414   4.308
 6922SOL    HW221510   3.810   2.551   4.367
 6923SOL     OW21511   3.756   3.457   3.855
 6923SOL    HW121512   3.736   3.364   3.871
 6923SOL    HW221513   3.725   3.501   3.934
 6924SOL     OW21514   3.823   2.604   5.306
 6924SOL    HW121515   3.904   2.651   5.327
 6924SOL    HW221516   3.757   2.673   5.297
 6925SOL     OW21517   3.805   2.678   4.494
 6925SOL    HW121518   3.899   2.677   4.512
 6925SOL    HW221519   3.772   2.750   4.548
 6926SOL     OW21520   3.849   3.726   5.293
 6926SOL    HW121521   3.847   3.698   5.384
 6926SOL    HW221522   3.765   3.698   5.257
 6927SOL     OW21523   3.921   2.152   5.240
 6927SOL    HW121524   3.839   2.195   5.214
 6927SOL    HW221525   3.893   2.066   5.274
 6928SOL     OW21526   0.000   1.891   3.885
 6928SOL    HW121527   0.037   1.978   3.870
 6928SOL    HW221528   0.059   1.851   3.948
 6929SOL     OW21529   3.811   2.408   5.115
 6929SOL    HW121530   3.906   2.404   5.105
 6929SOL    HW221531   3.796   2.482   5.174
 6930SOL     OW21532   0.280   2.151   4.044
 6930SOL    HW121533   0.297   2.075   3.989
 6930SOL    HW221534   0.325   2.223   4.000
 6931SOL     OW21535   3.792   3.435   5.074
 6931SOL    HW121536   3.766   3.499   5.007
 6931SOL    HW221537   3.888   3.443   5.079
 6932SOL     OW21538   0.065   2.957   4.257
 6932SOL    HW121539   0.057   2.996   4.170
 6932SOL    HW221540   0.137   2.895   4.249
 6933SOL     OW21541   0.005   2.074   4.977
 6933SOL    HW121542   3.973   2.105   5.062
 6933SOL    HW221543   0.009   1.979   4.987
 6934SOL     OW21544   3.751   3.175   5.000
 6934SOL    HW121545   3.792   3.124   5.070
 6934SOL    HW221546   3.765   3.266   5.025
 6935SOL     OW21547   3.995   1.922   4.378
 6935SOL    HW121548   0.004   2.016   4.392
 6935SOL    HW221549   0.018   1.883   4.463
 6936SOL     OW21550   3.727   3.187   3.912
 6936SOL    HW121551   3.641   3.201   3.872
 6936SOL    HW221552   3.718   3.104   3.958
 6937SOL     OW21553   3.803   3.650   4.663
 6937SOL    HW121554   3.780   3.570   4.617
 6937SOL    HW221555   3.897   3.659   4.652
 6938SOL     OW21556   0.210   3.418   4.590
 6938SOL    HW121557   0.282   3.481   4.584
 6938SOL    HW221558   0.228   3.355   4.520
 6939SOL     OW21559   3.756   2.402   4.843
 6939SOL    HW121560   3.839   2.400   4.795
 6939SOL    HW221561   3.782   2.406   4.936
 6940SOL     OW21562   3.899   2.377   5.447
 6940SOL    HW121563   3.922   2.314   5.378
 6940SOL    HW221564   3.859   2.450   5.400
 6941SOL     OW21565   3.939   3.391   5.451
 6941SOL    HW121566   3.928   3.479   5.487
 6941SOL    HW221567   3.990   3.345   5.519
 6942SOL     OW21568   3.859   3.000   5.195
 6942SOL    HW121569   3.934   3.000   5.255
 6942SOL    HW221570   3.891   2.953   5.118
 6943SOL     OW21571   3.810   3.133   4.735
 6943SOL    HW121572   3.782   3.143   4.826
 6943SOL    HW221573   3.752   3.064   4.700
 6944SOL     OW21574   3.842   3.646   5.547
 6944SOL    HW121575   3.791   3.582   5.597
 6944SOL    HW221576   3.888   3.697   5.613
 6945SOL     OW21577   3.801   2.194   3.768
 6945SOL    HW121578   3.717   2.159   3.737
 6945SOL    HW221579   3.820   2.266   3.708
 6946SOL     OW21580   3.762   2.024   4.037
 6946SOL    HW121581   3.754   2.084   3.963
 6946SOL    HW221582   3.853   2.034   4.066
 6947SOL     OW21583   3.801   3.099   4.390
 6947SOL    HW121584   3.794   3.050   4.472
 6947SOL    HW221585   3.879   3.063   4.348
 6948SOL     OW21586   3.751   2.939   4.036
 6948SOL    HW121587   3.841   2.942   4.004
 6948SOL    HW221588   3.735   2.847   4.055
 6949SOL     OW21589   3.954   2.495   5.696
 6949SOL    HW121590   3.873   2.492   5.747
 6949SOL    HW221591   3.930   2.458   5.611
 6950SOL     OW21592   3.962   2.125   6.574
 6950SOL    HW121593   3.966   2.119   6.669
 6950SOL    HW221594   3.869   2.113   6.553
 6951SOL     OW21595   3.722   2.242   6.222
 6951SOL    HW121596   3.643   2.267   6.270
 6951SOL    HW221597   3.700   2.159   6.180
 6952SOL     OW21598   0.012   3.386   6.639
 6952SOL    HW121599   3.958   3.309   6.621
 6952SOL    HW221600   0.077   3.387   6.569
 6953SOL     OW21601   3.941   3.581   6.062
 6953SOL    HW121602   3.949   3.654   6.123
 6953SOL    HW221603   0.031   3.562   6.035
 6954SOL     OW21604   3.942   3.300   6.092
 6954SOL    HW121605   3.925   3.394   6.094
 6954SOL    HW221606   3.887   3.264   6.161
 6955SOL     OW21607   3.815   2.501   6.147
 6955SOL    HW121608   3.783   2.414   6.171
 6955SOL    HW221609   3.810   2.550   6.229
 6956SOL     OW21610   3.756   3.457   5.717
 6956SOL    HW121611   3.736   3.364   5.733
 6956SOL    HW221612   3.725   3.501   5.796
 6957SOL     OW21613   3.823   2.604   7.168
 6957SOL    HW121614   3.904   2.651   7.189
 6957SOL    HW221615   3.757   2.673   7.159
 6958SOL     OW21616   3.805   2.678   6.357
 6958SOL    HW121617   3.899   2.677   6.374
 6958SOL    HW221618   3.771   2.750   6.410
 6959SOL     OW21619   3.849   3.727   7.155
 6959SOL    HW121620   3.846   3.698   7.247
 6959SOL    HW221621   3.765   3.697   7.119
 6960SOL     OW21622   3.921   2.151   7.102
 6960SOL    HW121623   3.840   2.195   7.077
 6960SOL    HW221624   3.893   2.066   7.136
 6961SOL     OW21625   4.000   1.892   5.747
 6961SOL    HW121626   0.037   1.978   5.732
 6961SOL    HW221627   0.059   1.851   5.810
 6962SOL     OW21628   3.811   2.408   6.977
 6962SOL    HW121629   3.906   2.404   6.967
 6962SOL    HW221630   3.796   2.481   7.037
 6963SOL     OW21631   0.282   2.150   5.908
 6963SOL    HW121632   0.296   2.074   5.852
 6963SOL    HW221633   0.324   2.223   5.861
 6964SOL     OW21634   3.793   3.436   6.937
 6964SOL    HW121635   3.766   3.498   6.869
 6964SOL    HW221636   3.888   3.443   6.941
 6965SOL     OW21637   0.065   2.957   6.119
 6965SOL    HW121638   0.056   2.996   6.032
 6965SOL    HW221639   0.137   2.895   6.110
 6966SOL     OW21640   0.003   2.073   6.839
 6966SOL    HW121641   3.973   2.104   6.925
 6966SOL    HW221642   0.012   1.979   6.850
 6967SOL     OW21643   3.750   3.175   6.862
 6967SOL    HW121644   3.792   3.124   6.931
 6967SOL    HW221645   3.765   3.266   6.887
 6968SOL     OW21646   3.995   1.922   6.240
 6968SOL    HW121647   0.005   2.016   6.254
 6968SOL    HW221648   0.018   1.883   6.325
 6969SOL     OW21649   3.727   3.187   5.773
 6969SOL    HW121650   3.641   3.201   5.734
 6969SOL    HW221651   3.718   3.104   5.820
 6970SOL     OW21652   3.803   3.650   6.525
 6970SOL    HW121653   3.780   3.570   6.479
 6970SOL    HW221654   3.897   3.658   6.514
 6971SOL     OW21655   0.210   3.418   6.451
 6971SOL    HW121656   0.282   3.481   6.446
 6971SOL    HW221657   0.227   3.355   6.382
 6972SOL     OW21658   3.756   2.402   6.705
 6972SOL    HW121659   3.839   2.400   6.657
 6972SOL    HW221660   3.782   2.406   6.797
 6973SOL     OW21661   3.899   2.377   7.309
 6973SOL    HW121662   3.923   2.315   7.241
 6973SOL    HW221663   3.859   2.450   7.262
 6974SOL     OW21664   3.939   3.391   7.313
 6974SOL    HW121665   3.928   3.479   7.349
 6974SOL    HW221666   3.990   3.345   7.380
 6975SOL     OW21667   3.859   3.000   7.057
 6975SOL    HW121668   3.934   3.000   7.118
 6975SOL    HW221669   3.891   2.954   6.980
 6976SOL     OW21670   3.810   3.133   6.597
 6976SOL    HW121671   3.782   3.143   6.688
 6976SOL    HW221672   3.752   3.064   6.562
 6977SOL     OW21673   3.842   3.646   7.409
 6977SOL    HW121674   3.791   3.582   7.459
 6977SOL    HW221675   3.888   3.697   7.476
 6978SOL     OW21676   3.801   2.193   5.629
 6978SOL    HW121677   3.717   2.159   5.600
 6978SOL    HW221678   3.820   2.266   5.570
 6979SOL     OW21679   3.762   2.024   5.899
 6979SOL    HW121680   3.754   2.084   5.825
 6979SOL    HW221681   3.853   2.034   5.928
 6980SOL     OW21682   3.801   3.099   6.252
 6980SOL    HW121683   3.794   3.051   6.335
 6980SOL    HW221684   3.879   3.064   6.210
 6981SOL     OW21685   3.751   2.940   5.899
 6981SOL    HW121686   3.840   2.942   5.865
 6981SOL    HW221687   3.735   2.847   5.917
 6982SOL     OW21688   3.954   2.495   7.558
 6982SOL    HW121689   3.873   2.492   7.609
 6982SOL    HW221690   3.930   2.458   7.473
 6983SOL     OW21691   3.962   2.125   8.436
 6983SOL    HW121692   3.966   2.119   8.531
 6983SOL    HW221693   3.869   2.113   8.415
 6984SOL     OW21694   3.722   2.242   8.085
 6984SOL    HW121695   3.643   2.267   8.132
 6984SOL    HW221696   3.700   2.159   8.043
 6985SOL     OW21697   0.012   3.386   8.501
 6985SOL    HW121698   3.958   3.308   8.483
 6985SOL    HW221699   0.077   3.387   8.431
 6986SOL     OW21700   3.941   3.581   7.925
 6986SOL    HW121701   3.949   3.654   7.985
 6986SOL    HW221702   0.031   3.563   7.897
 6987SOL     OW21703   3.942   3.300   7.954
 6987SOL    HW121704   3.925   3.394   7.956
 6987SOL    HW221705   3.887   3.264   8.023
 6988SOL     OW21706   3.815   2.501   8.009
 6988SOL    HW121707   3.783   2.414   8.033
 6988SOL    HW221708   3.810   2.551   8.091
 6989SOL     OW21709   3.756   3.457   7.579
 6989SOL    HW121710   3.736   3.364   7.595
 6989SOL    HW221711   3.725   3.501   7.658
 6990SOL     OW21712   3.824   2.604   9.030
 6990SOL    HW121713   3.905   2.651   9.050
 6990SOL    HW221714   3.758   2.673   9.021
 6991SOL     OW21715   3.805   2.678   8.219
 6991SOL    HW121716   3.899   2.677   8.236
 6991SOL    HW221717   3.772   2.750   8.272
 6992SOL     OW21718   3.849   3.727   9.017
 6992SOL    HW121719   3.846   3.698   9.109
 6992SOL    HW221720   3.765   3.698   8.981
 6993SOL     OW21721   3.922   2.151   8.964
 6993SOL    HW121722   3.840   2.195   8.939
 6993SOL    HW221723   3.893   2.066   8.998
 6994SOL     OW21724   3.999   1.891   7.610
 6994SOL    HW121725   0.037   1.978   7.593
 6994SOL    HW221726   0.060   1.851   7.672
 6995SOL     OW21727   3.811   2.408   8.840
 6995SOL    HW121728   3.906   2.404   8.829
 6995SOL    HW221729   3.796   2.482   8.899
 6996SOL     OW21730   0.282   2.150   7.770
 6996SOL    HW121731   0.296   2.074   7.714
 6996SOL    HW221732   0.323   2.222   7.723
 6997SOL     OW21733   3.793   3.435   8.798
 6997SOL    HW121734   3.767   3.499   8.731
 6997SOL    HW221735   3.888   3.443   8.802
 6998SOL     OW21736   0.065   2.957   7.981
 6998SOL    HW121737   0.057   2.996   7.894
 6998SOL    HW221738   0.139   2.896   7.973
 6999SOL     OW21739   0.003   2.073   8.701
 6999SOL    HW121740   3.974   2.104   8.787
 6999SOL    HW221741   0.014   1.979   8.712
 7000SOL     OW21742   3.749   3.175   8.724
 7000SOL    HW121743   3.793   3.124   8.793
 7000SOL    HW221744   3.764   3.266   8.748
 7001SOL     OW21745   3.993   1.921   8.103
 7001SOL    HW121746   0.005   2.016   8.115
 7001SOL    HW221747   0.018   1.883   8.187
 7002SOL     OW21748   3.727   3.187   7.636
 7002SOL    HW121749   3.641   3.201   7.596
 7002SOL    HW221750   3.718   3.104   7.682
 7003SOL     OW21751   3.803   3.650   8.387
 7003SOL    HW121752   3.780   3.570   8.341
 7003SOL    HW221753   3.898   3.659   8.376
 7004SOL     OW21754   0.210   3.418   8.313
 7004SOL    HW121755   0.282   3.481   8.308
 7004SOL    HW221756   0.227   3.355   8.244
 7005SOL     OW21757   3.756   2.402   8.568
 7005SOL    HW121758   3.838   2.399   8.519
 7005SOL    HW221759   3.782   2.406   8.660
 7006SOL     OW21760   3.898   2.377   9.171
 7006SOL    HW121761   3.924   2.316   9.103
 7006SOL    HW221762   3.859   2.451   9.124
 7007SOL     OW21763   3.939   3.391   9.176
 7007SOL    HW121764   3.927   3.479   9.211
 7007SOL    HW221765   3.991   3.345   9.242
 7008SOL     OW21766   3.859   2.999   8.919
 7008SOL    HW121767   3.934   3.000   8.980
 7008SOL    HW221768   3.892   2.954   8.842
 7009SOL     OW21769   3.810   3.133   8.459
 7009SOL    HW121770   3.782   3.143   8.550
 7009SOL    HW221771   3.753   3.064   8.424
 7010SOL     OW21772   3.842   3.646   9.271
 7010SOL    HW121773   3.791   3.582   9.321
 7010SOL    HW221774   3.888   3.697   9.338
 7011SOL     OW21775   3.801   2.193   7.492
 7011SOL    HW121776   3.716   2.160   7.461
 7011SOL    HW221777   3.820   2.266   7.432
 7012SOL     OW21778   3.762   2.024   7.761
 7012SOL    HW121779   3.754   2.083   7.687
 7012SOL    HW221780   3.853   2.033   7.790
 7013SOL     OW21781   3.801   3.099   8.114
 7013SOL    HW121782   3.795   3.051   8.196
 7013SOL    HW221783   3.878   3.064   8.071
 7014SOL     OW21784   3.751   2.940   7.761
 7014SOL    HW121785   3.840   2.942   7.727
 7014SOL    HW221786   3.735   2.847   7.779
 7015SOL     OW21787   3.954   2.495   9.420
 7015SOL    HW121788   3.873   2.491   9.472
 7015SOL    HW221789   3.930   2.458   9.335
 7016SOL     OW21790   3.962   2.125  10.298
 7016SOL    HW121791   3.966   2.119  10.393
 7016SOL    HW221792   3.869   2.113  10.277
 7017SOL     OW21793   3.722   2.242   9.946
 7017SOL    HW121794   3.643   2.268   9.994
 7017SOL    HW221795   3.699   2.159   9.905
 7018SOL     OW21796   0.012   3.386  10.363
 7018SOL    HW121797   3.958   3.309  10.345
 7018SOL    HW221798   0.077   3.387  10.293
 7019SOL     OW21799   3.941   3.581   9.786
 7019SOL    HW121800   3.949   3.654   9.847
 7019SOL    HW221801   0.031   3.562   9.759
 7020SOL     OW21802   3.942   3.300   9.816
 7020SOL    HW121803   3.925   3.394   9.818
 7020SOL    HW221804   3.887   3.264   9.885
 7021SOL     OW21805   3.814   2.501   9.871
 7021SOL    HW121806   3.783   2.414   9.895
 7021SOL    HW221807   3.810   2.551   9.953
 7022SOL     OW21808   3.756   3.457   9.441
 7022SOL    HW121809   3.736   3.364   9.457
 7022SOL    HW221810   3.725   3.501   9.520
 7023SOL     OW21811   3.823   2.604  10.892
 7023SOL    HW121812   3.905   2.651  10.913
 7023SOL    HW221813   3.758   2.673  10.883
 7024SOL     OW21814   3.805   2.678  10.081
 7024SOL    HW121815   3.899   2.677  10.098
 7024SOL    HW221816   3.772   2.751  10.134
 7025SOL     OW21817   3.849   3.726  10.879
 7025SOL    HW121818   3.847   3.698  10.970
 7025SOL    HW221819   3.765   3.698  10.843
 7026SOL     OW21820   3.921   2.151  10.826
 7026SOL    HW121821   3.840   2.195  10.801
 7026SOL    HW221822   3.893   2.066  10.860
 7027SOL     OW21823   0.000   1.891   9.471
 7027SOL    HW121824   0.037   1.978   9.456
 7027SOL    HW221825   0.060   1.851   9.534
 7028SOL     OW21826   3.811   2.408  10.701
 7028SOL    HW121827   3.906   2.404  10.691
 7028SOL    HW221828   3.796   2.482  10.761
 7029SOL     OW21829   0.279   2.151   9.629
 7029SOL    HW121830   0.297   2.075   9.574
 7029SOL    HW221831   0.325   2.223   9.586
 7030SOL     OW21832   3.793   3.435  10.660
 7030SOL    HW121833   3.767   3.499  10.593
 7030SOL    HW221834   3.888   3.443  10.665
 7031SOL     OW21835   0.065   2.957   9.843
 7031SOL    HW121836   0.057   2.996   9.756
 7031SOL    HW221837   0.138   2.895   9.835
 7032SOL     OW21838   0.004   2.073  10.563
 7032SOL    HW121839   3.974   2.104  10.649
 7032SOL    HW221840   0.012   1.979  10.573
 7033SOL     OW21841   3.750   3.175  10.586
 7033SOL    HW121842   3.792   3.124  10.655
 7033SOL    HW221843   3.765   3.266  10.610
 7034SOL     OW21844   3.995   1.922   9.964
 7034SOL    HW121845   0.004   2.016   9.978
 7034SOL    HW221846   0.018   1.883  10.049
 7035SOL     OW21847   3.727   3.187   9.498
 7035SOL    HW121848   3.641   3.201   9.458
 7035SOL    HW221849   3.718   3.104   9.544
 7036SOL     OW21850   3.803   3.650  10.249
 7036SOL    HW121851   3.780   3.570  10.203
 7036SOL    HW221852   3.897   3.659  10.238
 7037SOL     OW21853   0.210   3.418  10.176
 7037SOL    HW121854   0.282   3.481  10.170
 7037SOL    HW221855   0.228   3.355  10.106
 7038SOL     OW21856   3.756   2.402  10.430
 7038SOL    HW121857   3.838   2.400  10.381
 7038SOL    HW221858   3.782   2.406  10.522
 7039SOL     OW21859   3.898   2.377  11.033
 7039SOL    HW121860   3.923   2.315  10.965
 7039SOL    HW221861   3.859   2.450  10.986
 7040SOL     OW21862   3.939   3.391  11.038
 7040SOL    HW121863   3.927   3.479  11.073
 7040SOL    HW221864   3.990   3.345  11.104
 7041SOL     OW21865   3.859   2.999  10.781
 7041SOL    HW121866   3.934   3.000  10.842
 7041SOL    HW221867   3.892   2.954  10.704
 7042SOL     OW21868   3.810   3.133  10.321
 7042SOL    HW121869   3.782   3.143  10.412
 7042SOL    HW221870   3.753   3.064  10.286
 7043SOL     OW21871   3.842   3.646  11.133
 7043SOL    HW121872   3.791   3.582  11.183
 7043SOL    HW221873   3.888   3.697  11.199
 7044SOL     OW21874   3.801   2.194   9.354
 7044SOL    HW121875   3.717   2.159   9.323
 7044SOL    HW221876   3.820   2.266   9.294
 7045SOL     OW21877   3.762   2.024   9.622
 7045SOL    HW121878   3.754   2.084   9.548
 7045SOL    HW221879   3.852   2.034   9.652
 7046SOL     OW21880   3.801   3.099   9.976
 7046SOL    HW121881   3.794   3.051  10.059
 7046SOL    HW221882   3.879   3.064   9.934
 7047SOL     OW21883   3.751   2.939   9.622
 7047SOL    HW121884   3.841   2.942   9.589
 7047SOL    HW221885   3.735   2.847   9.641
 7048SOL     OW21886   3.954   2.495  11.282
 7048SOL    HW121887   3.873   2.491  11.334
 7048SOL    HW221888   3.930   2.458  11.197
 7049SOL     OW21889   3.962   2.125  12.160
 7049SOL    HW121890   3.966   2.119  12.255
 7049SOL    HW221891   3.869   2.113  12.139
 7050SOL     OW21892   3.722   2.242  11.808
 7050SOL    HW121893   3.643   2.268  11.856
 7050SOL    HW221894   3.699   2.159  11.767
 7051SOL     OW21895   0.012   3.386  12.225
 7051SOL    HW121896   3.958   3.309  12.207
 7051SOL    HW221897   0.077   3.387  12.155
 7052SOL     OW21898   3.941   3.581  11.648
 7052SOL    HW121899   3.949   3.654  11.709
 7052SOL    HW221900   0.031   3.562  11.621
 7053SOL     OW21901   3.942   3.300  11.678
 7053SOL    HW121902   3.925   3.394  11.680
 7053SOL    HW221903   3.887   3.264  11.747
 7054SOL     OW21904   3.814   2.501  11.733
 7054SOL    HW121905   3.783   2.414  11.757
 7054SOL    HW221906   3.810   2.551  11.815
 7055SOL     OW21907   3.756   3.457  11.303
 7055SOL    HW121908   3.736   3.364  11.319
 7055SOL    HW221909   3.725   3.501  11.382
 7056SOL     OW21910   3.823   2.604  12.754
 7056SOL    HW121911   3.904   2.651  12.774
 7056SOL    HW221912   3.758   2.673  12.746
 7057SOL     OW21913   3.805   2.678  11.943
 7057SOL    HW121914   3.899   2.677  11.960
 7057SOL    HW221915   3.772   2.750  11.996
 7058SOL     OW21916   3.849   3.727  12.743
 7058SOL    HW121917   3.847   3.699  12.834
 7058SOL    HW221918   3.765   3.697  12.707
 7059SOL     OW21919   3.921   2.151  12.688
 7059SOL    HW121920   3.840   2.195  12.663
 7059SOL    HW221921   3.893   2.066  12.722
 7060SOL     OW21922   0.000   1.891  11.333
 7060SOL    HW121923   0.037   1.978  11.318
 7060SOL    HW221924   0.060   1.851  11.396
 7061SOL     OW21925   3.811   2.408  12.564
 7061SOL    HW121926   3.906   2.404  12.553
 7061SOL    HW221927   3.796   2.482  12.623
 7062SOL     OW21928   0.280   2.151  11.492
 7062SOL    HW121929   0.297   2.075  11.436
 7062SOL    HW221930   0.325   2.223  11.448
 7063SOL     OW21931   3.793   3.435  12.522
 7063SOL    HW121932   3.767   3.499  12.455
 7063SOL    HW221933   3.888   3.443  12.526
 7064SOL     OW21934   0.065   2.957  11.705
 7064SOL    HW121935   0.057   2.996  11.618
 7064SOL    HW221936   0.138   2.895  11.697
 7065SOL     OW21937   0.003   2.073  12.425
 7065SOL    HW121938   3.974   2.104  12.511
 7065SOL    HW221939   0.012   1.979  12.435
 7066SOL     OW21940   3.750   3.175  12.448
 7066SOL    HW121941   3.792   3.124  12.517
 7066SOL    HW221942   3.765   3.266  12.473
 7067SOL     OW21943   3.995   1.922  11.826
 7067SOL    HW121944   0.004   2.016  11.840
 7067SOL    HW221945   0.018   1.883  11.911
 7068SOL     OW21946   3.727   3.187  11.360
 7068SOL    HW121947   3.641   3.201  11.320
 7068SOL    HW221948   3.718   3.104  11.406
 7069SOL     OW21949   3.803   3.650  12.111
 7069SOL    HW121950   3.780   3.570  12.064
 7069SOL    HW221951   3.897   3.659  12.100
 7070SOL     OW21952   0.210   3.418  12.038
 7070SOL    HW121953   0.282   3.481  12.032
 7070SOL    HW221954   0.228   3.355  11.968
 7071SOL     OW21955   3.756   2.402  12.292
 7071SOL    HW121956   3.838   2.400  12.243
 7071SOL    HW221957   3.782   2.406  12.384
 7072SOL     OW21958   3.899   2.378  12.896
 7072SOL    HW121959   3.923   2.315  12.827
 7072SOL    HW221960   3.859   2.451  12.848
 7073SOL     OW21961   3.939   3.392  12.900
 7073SOL    HW121962   3.927   3.480  12.937
 7073SOL    HW221963   3.988   3.344  12.967
 7074SOL     OW21964   3.859   2.999  12.643
 7074SOL    HW121965   3.934   3.000  12.703
 7074SOL    HW221966   3.891   2.954  12.566
 7075SOL     OW21967   3.810   3.133  12.183
 7075SOL    HW121968   3.782   3.143  12.274
 7075SOL    HW221969   3.752   3.064  12.148
 7076SOL     OW21970   3.843   3.648  12.998
 7076SOL    HW121971   3.793   3.583  13.047
 7076SOL    HW221972   3.888   3.700  13.065
 7077SOL     OW21973   3.801   2.194  11.216
 7077SOL    HW121974   3.717   2.159  11.185
 7077SOL    HW221975   3.820   2.266  11.156
 7078SOL     OW21976   3.762   2.024  11.485
 7078SOL    HW121977   3.754   2.084  11.410
 7078SOL    HW221978   3.852   2.034  11.514
 7079SOL     OW21979   3.801   3.099  11.838
 7079SOL    HW121980   3.794   3.051  11.921
 7079SOL    HW221981   3.879   3.064  11.796
 7080SOL     OW21982   3.751   2.939  11.484
 7080SOL    HW121983   3.841   2.942  11.452
 7080SOL    HW221984   3.735   2.847  11.503
 7081SOL     OW21985   3.951   2.494  13.146
 7081SOL    HW121986   3.869   2.489  13.195
 7081SOL    HW221987   3.930   2.458  13.060
 7082SOL     OW21988   3.720   2.244  13.661
 7082SOL    HW121989   3.633   2.274  13.688
 7082SOL    HW221990   3.704   2.159  13.619
 7083SOL     OW21991   3.942   3.578  13.502
 7083SOL    HW121992   3.938   3.655  13.558
 7083SOL    HW221993   0.036   3.565  13.486
 7084SOL     OW21994   3.943   3.297  13.535
 7084SOL    HW121995   3.928   3.392  13.537
 7084SOL    HW221996   3.885   3.263  13.604
 7085SOL     OW21997   3.942   2.958   0.007
 7085SOL    HW121998   3.982   2.917   0.084
 7085SOL    HW221999   3.852   2.976   0.033
 7086SOL     OW22000   3.833   2.502  13.597
 7086SOL    HW122001   3.782   2.422  13.612
 7086SOL    HW222002   3.816   2.555  13.675
 7087SOL     OW22003   3.752   3.457  13.162
 7087SOL    HW122004   3.735   3.365  13.180
 7087SOL    HW222005   3.723   3.502  13.242
 7088SOL     OW22006   3.801   2.673  13.806
 7088SOL    HW122007   3.895   2.683  13.822
 7088SOL    HW222008   3.761   2.748  13.851
 7089SOL     OW22009   0.118   3.638  13.843
 7089SOL    HW122010   0.075   3.579   0.005
 7089SOL    HW222011   0.188   3.679  13.894
 7090SOL     OW22012   0.001   1.893  13.196
 7090SOL    HW122013   0.044   1.977  13.175
 7090SOL    HW222014   0.061   1.852  13.258
 7091SOL     OW22015   0.277   2.153  13.345
 7091SOL    HW122016   0.299   2.075  13.294
 7091SOL    HW222017   0.330   2.222  13.306
 7092SOL     OW22018   0.068   2.960  13.559
 7092SOL    HW122019   0.062   3.001  13.473
 7092SOL    HW222020   0.142   2.900  13.553
 7093SOL     OW22021   3.980   1.924  13.672
 7093SOL    HW122022   0.002   2.016  13.683
 7093SOL    HW222023   0.022   1.881  13.746
 7094SOL     OW22024   3.727   3.187  13.221
 7094SOL    HW122025   3.641   3.202  13.181
 7094SOL    HW222026   3.718   3.104  13.268
 7095SOL     OW22027   0.321   3.405   0.008
 7095SOL    HW122028   0.257   3.465   0.046
 7095SOL    HW222029   0.269   3.348  13.851
 7096SOL     OW22030   3.801   2.193  13.077
 7096SOL    HW122031   3.717   2.159  13.046
 7096SOL    HW222032   3.820   2.266  13.018
 7097SOL     OW22033   3.763   2.026  13.347
 7097SOL    HW122034   3.756   2.083  13.271
 7097SOL    HW222035   3.854   2.035  13.375
 7098SOL     OW22036   3.808   3.092  13.688
 7098SOL    HW122037   3.801   3.031  13.761
 7098SOL    HW222038   3.885   3.063  13.638
 7099SOL     OW22039   3.751   2.939  13.345
 7099SOL    HW122040   3.840   2.942  13.310
 7099SOL    HW222041   3.737   2.846  13.364
 7100SOL     OW22042   3.965   3.974   0.989
 7100SOL    HW122043   3.967   3.967   1.085
 7100SOL    HW222044   3.875   3.951   0.965
 7101SOL     OW22045   3.749   0.054   0.690
 7101SOL    HW122046   3.674   0.113   0.691
 7101SOL    HW222047   3.716   3.974   0.649
 7102SOL     OW22048   3.910   3.998   1.512
 7102SOL    HW122049   3.821   0.032   1.516
 7102SOL    HW222050   3.907   3.915   1.560
 7103SOL     OW22051   3.976   3.774   0.178
 7103SOL    HW122052   0.011   3.840   0.119
 7103SOL    HW222053   0.047   3.710   0.186
 7104SOL     OW22054   3.997   3.934   1.257
 7104SOL    HW122055   3.957   3.943   1.344
 7104SOL    HW222056   0.029   3.844   1.255
 7105SOL     OW22057   0.023   3.776   0.648
 7105SOL    HW122058   0.044   3.869   0.651
 7105SOL    HW222059   0.032   3.746   0.738
 7106SOL     OW22060   3.784   3.868   0.344
 7106SOL    HW122061   3.788   3.964   0.335
 7106SOL    HW222062   3.859   3.837   0.293
 7107SOL     OW22063   3.966   3.972   2.850
 7107SOL    HW122064   3.967   3.966   2.946
 7107SOL    HW222065   3.875   3.951   2.826
 7108SOL     OW22066   3.746   0.053   2.555
 7108SOL    HW122067   3.671   0.113   2.554
 7108SOL    HW222068   3.714   3.974   2.513
 7109SOL     OW22069   3.910   3.997   3.373
 7109SOL    HW122070   3.821   0.032   3.379
 7109SOL    HW222071   3.907   3.915   3.422
 7110SOL     OW22072   3.987   3.765   2.020
 7110SOL    HW122073   0.028   3.839   1.975
 7110SOL    HW222074   0.056   3.732   2.078
 7111SOL     OW22075   3.997   3.934   3.119
 7111SOL    HW122076   3.956   3.943   3.205
 7111SOL    HW222077   0.028   3.844   3.116
 7112SOL     OW22078   0.015   3.777   2.515
 7112SOL    HW122079   0.047   3.867   2.518
 7112SOL    HW222080   0.028   3.744   2.604
 7113SOL     OW22081   3.805   0.049   1.887
 7113SOL    HW122082   3.741   0.018   1.823
 7113SOL    HW222083   3.806   0.144   1.877
 7114SOL     OW22084   3.781   3.868   2.186
 7114SOL    HW122085   3.777   3.963   2.171
 7114SOL    HW222086   3.865   3.841   2.150
 7115SOL     OW22087   3.966   3.972   4.712
 7115SOL    HW122088   3.967   3.966   4.808
 7115SOL    HW222089   3.875   3.951   4.688
 7116SOL     OW22090   3.746   0.053   4.417
 7116SOL    HW122091   3.672   0.113   4.416
 7116SOL    HW222092   3.714   3.974   4.375
 7117SOL     OW22093   3.910   3.997   5.235
 7117SOL    HW122094   3.821   0.032   5.240
 7117SOL    HW222095   3.906   3.915   5.284
 7118SOL     OW22096   3.987   3.765   3.882
 7118SOL    HW122097   0.028   3.839   3.837
 7118SOL    HW222098   0.056   3.732   3.940
 7119SOL     OW22099   3.997   3.934   4.981
 7119SOL    HW122100   3.956   3.943   5.067
 7119SOL    HW222101   0.028   3.844   4.978
 7120SOL     OW22102   0.015   3.777   4.377
 7120SOL    HW122103   0.047   3.867   4.380
 7120SOL    HW222104   0.028   3.744   4.466
 7121SOL     OW22105   3.805   0.048   3.749
 7121SOL    HW122106   3.741   0.018   3.685
 7121SOL    HW222107   3.806   0.144   3.739
 7122SOL     OW22108   3.781   3.868   4.048
 7122SOL    HW122109   3.777   3.963   4.033
 7122SOL    HW222110   3.865   3.841   4.012
 7123SOL     OW22111   3.965   3.972   6.574
 7123SOL    HW122112   3.967   3.966   6.670
 7123SOL    HW222113   3.875   3.951   6.550
 7124SOL     OW22114   3.746   0.053   6.280
 7124SOL    HW122115   3.672   0.113   6.277
 7124SOL    HW222116   3.714   3.974   6.237
 7125SOL     OW22117   3.910   3.997   7.097
 7125SOL    HW122118   3.821   0.032   7.102
 7125SOL    HW222119   3.906   3.915   7.146
 7126SOL     OW22120   3.987   3.765   5.744
 7126SOL    HW122121   0.028   3.839   5.698
 7126SOL    HW222122   0.056   3.732   5.802
 7127SOL     OW22123   3.997   3.934   6.843
 7127SOL    HW122124   3.957   3.943   6.929
 7127SOL    HW222125   0.029   3.844   6.840
 7128SOL     OW22126   0.015   3.777   6.239
 7128SOL    HW122127   0.047   3.867   6.242
 7128SOL    HW222128   0.028   3.744   6.328
 7129SOL     OW22129   3.805   0.049   5.611
 7129SOL    HW122130   3.742   0.018   5.547
 7129SOL    HW222131   3.806   0.144   5.601
 7130SOL     OW22132   3.781   3.868   5.910
 7130SOL    HW122133   3.777   3.963   5.894
 7130SOL    HW222134   3.865   3.841   5.873
 7131SOL     OW22135   3.965   3.972   8.436
 7131SOL    HW122136   3.967   3.966   8.532
 7131SOL    HW222137   3.875   3.951   8.412
 7132SOL     OW22138   3.746   0.053   8.142
 7132SOL    HW122139   3.671   0.112   8.139
 7132SOL    HW222140   3.715   3.973   8.099
 7133SOL     OW22141   3.910   3.997   8.959
 7133SOL    HW122142   3.821   0.032   8.964
 7133SOL    HW222143   3.906   3.915   9.008
 7134SOL     OW22144   3.987   3.766   7.606
 7134SOL    HW122145   0.028   3.839   7.560
 7134SOL    HW222146   0.057   3.732   7.663
 7135SOL     OW22147   3.997   3.934   8.705
 7135SOL    HW122148   3.957   3.943   8.791
 7135SOL    HW222149   0.029   3.844   8.702
 7136SOL     OW22150   0.015   3.777   8.101
 7136SOL    HW122151   0.048   3.867   8.103
 7136SOL    HW222152   0.028   3.745   8.190
 7137SOL     OW22153   3.805   0.049   7.473
 7137SOL    HW122154   3.742   0.018   7.408
 7137SOL    HW222155   3.806   0.144   7.463
 7138SOL     OW22156   3.781   3.869   7.772
 7138SOL    HW122157   3.777   3.963   7.756
 7138SOL    HW222158   3.865   3.841   7.735
 7139SOL     OW22159   3.965   3.972  10.298
 7139SOL    HW122160   3.967   3.966  10.394
 7139SOL    HW222161   3.875   3.951  10.274
 7140SOL     OW22162   3.746   0.053  10.004
 7140SOL    HW122163   3.671   0.113  10.002
 7140SOL    HW222164   3.714   3.974   9.961
 7141SOL     OW22165   3.910   3.997  10.821
 7141SOL    HW122166   3.821   0.032  10.826
 7141SOL    HW222167   3.906   3.915  10.870
 7142SOL     OW22168   3.987   3.765   9.468
 7142SOL    HW122169   0.028   3.839   9.422
 7142SOL    HW222170   0.056   3.732   9.526
 7143SOL     OW22171   3.997   3.934  10.567
 7143SOL    HW122172   3.957   3.943  10.653
 7143SOL    HW222173   0.029   3.844  10.564
 7144SOL     OW22174   0.015   3.777   9.963
 7144SOL    HW122175   0.047   3.867   9.966
 7144SOL    HW222176   0.028   3.745  10.052
 7145SOL     OW22177   3.805   0.049   9.335
 7145SOL    HW122178   3.742   0.018   9.270
 7145SOL    HW222179   3.806   0.144   9.325
 7146SOL     OW22180   3.781   3.868   9.634
 7146SOL    HW122181   3.777   3.963   9.618
 7146SOL    HW222182   3.865   3.841   9.598
 7147SOL     OW22183   3.965   3.972  12.160
 7147SOL    HW122184   3.967   3.966  12.256
 7147SOL    HW222185   3.875   3.951  12.136
 7148SOL     OW22186   3.746   0.053  11.866
 7148SOL    HW122187   3.672   0.113  11.864
 7148SOL    HW222188   3.714   3.974  11.823
 7149SOL     OW22189   3.910   3.997  12.683
 7149SOL    HW122190   3.821   0.032  12.689
 7149SOL    HW222191   3.906   3.915  12.732
 7150SOL     OW22192   3.987   3.765  11.330
 7150SOL    HW122193   0.028   3.839  11.284
 7150SOL    HW222194   0.056   3.732  11.388
 7151SOL     OW22195   3.997   3.934  12.429
 7151SOL    HW122196   3.956   3.943  12.515
 7151SOL    HW222197   0.028   3.844  12.426
 7152SOL     OW22198   0.015   3.777  11.825
 7152SOL    HW122199   0.047   3.867  11.828
 7152SOL    HW222200   0.028   3.744  11.914
 7153SOL     OW22201   3.805   0.049  11.197
 7153SOL    HW122202   3.742   0.018  11.132
 7153SOL    HW222203   3.806   0.144  11.187
 7154SOL     OW22204   3.781   3.868  11.496
 7154SOL    HW122205   3.777   3.963  11.480
 7154SOL    HW222206   3.865   3.841  11.460
 7155SOL     OW22207   3.740   0.080  13.685
 7155SOL    HW122208   3.668   0.110  13.741
 7155SOL    HW222209   3.719   3.989  13.666
 7156SOL     OW22210   3.988   3.769  13.197
 7156SOL    HW122211   0.032   3.838  13.148
 7156SOL    HW222212   0.056   3.732  13.253
 7157SOL     OW22213   3.975   3.789  13.672
 7157SOL    HW122214   0.023   3.872  13.673
 7157SOL    HW222215   0.021   3.733  13.735
 7158SOL     OW22216   3.806   0.048  13.057
 7158SOL    HW122217   3.742   0.018  12.993
 7158SOL    HW222218   3.806   0.144  13.048
 7159SOL     OW22219   3.777   3.870  13.357
 7159SOL    HW122220   3.777   3.965  13.347
 7159SOL    HW222221   3.859   3.842  13.316
   4.00000   4.00000  13.90000
