2gCDOC_1PEG_l14
22242
    1LIG      O    1   1.944   2.004   0.046
    1LIG      C    2   2.017   2.019   0.198
    1LIG     C1    3   1.940   1.986   0.365
    1LIG     O1    4   2.000   2.029   0.518
    1LIG     C2    5   1.943   1.989   0.672
    1LIG     C3    6   2.011   2.048   0.833
    1LIG     O2    7   1.961   2.004   0.987
    1LIG     C4    8   2.024   2.043   1.137
    1LIG     C5    9   1.957   1.994   1.301
    1LIG     O3   10   2.020   2.032   1.452
    1LIG     C6   11   1.963   1.985   1.602
    1LIG     C7   12   2.030   2.035   1.765
    1LIG     O4   13   1.970   1.996   1.917
    1LIG     C8   14   2.029   2.032   2.070
    1LIG     C9   15   1.951   1.991   2.231
    1LIG     O5   16   2.005   2.034   2.384
    1LIG    C10   17   1.945   1.993   2.535
    1LIG    C11   18   2.012   2.051   2.694
    1LIG     O6   19   1.960   2.006   2.845
    1LIG    C12   20   2.023   2.044   2.994
    1LIG    C13   21   1.954   1.997   3.156
    1LIG     O7   22   2.017   2.033   3.305
    1LIG    C14   23   1.960   1.986   3.454
    1LIG    C15   24   2.028   2.036   3.616
    1LIG     O8   25   1.968   1.997   3.767
    1LIG    C16   26   2.028   2.032   3.919
    1LIG    C17   27   1.950   1.991   4.079
    1LIG     O9   28   2.006   2.033   4.231
    1LIG    C18   29   1.944   1.993   4.381
    1LIG    C19   30   2.011   2.050   4.539
    1LIG    O10   31   1.959   2.006   4.690
    1LIG    C20   32   2.022   2.044   4.837
    1LIG    C21   33   1.953   1.998   4.998
    1LIG    O11   34   2.017   2.035   5.147
    1LIG    C22   35   1.962   1.989   5.296
    1LIG    C23   36   2.033   2.039   5.455
    1LIG    O12   37   1.976   2.000   5.606
    1LIG    C24   38   2.043   2.032   5.755
    1LIG    C25   39   1.967   1.992   5.915
    1LIG    O13   40   2.023   2.035   6.065
    1LIG    C26   41   1.969   1.989   6.215
    1LIG    C27   42   2.029   2.048   6.375
    1LIG    O14   43   1.967   2.005   6.522
    1LIG    C28   44   2.026   2.032   6.673
    1LIG    C29   45   1.939   2.006   6.830
    1LIG    O15   46   2.003   2.025   6.983
    1LIG    C30   47   1.940   1.983   7.131
    1LIG    C31   48   2.012   2.025   7.293
    1LIG    O16   49   1.954   1.985   7.445
    1LIG    C32   50   2.015   2.027   7.595
    1LIG    C33   51   1.951   1.977   7.757
    1LIG    O17   52   2.007   2.025   7.906
    1LIG    C34   53   1.958   1.977   8.058
    1LIG    C35   54   2.023   2.033   8.218
    1LIG    O18   55   1.960   1.996   8.367
    1LIG    C36   56   2.014   2.036   8.517
    1LIG    C37   57   1.937   1.991   8.677
    1LIG    O19   58   1.993   2.032   8.829
    1LIG    C38   59   1.938   1.984   8.979
    1LIG    C39   60   2.010   2.032   9.139
    1LIG    O20   61   1.956   1.991   9.292
    1LIG    C40   62   2.016   2.034   9.441
    1LIG    C41   63   1.951   1.984   9.604
    1LIG    O21   64   2.009   2.030   9.754
    1LIG    C42   65   1.955   1.985   9.905
    1LIG    C43   66   2.024   2.040  10.064
    1LIG    O22   67   1.968   1.999  10.215
    1LIG    C44   68   2.026   2.038  10.366
    1LIG    C45   69   1.951   1.995  10.526
    1LIG    O23   70   2.009   2.032  10.677
    1LIG    C46   71   1.951   1.985  10.825
    1LIG    C47   72   2.020   2.032  10.987
    1LIG    O24   73   1.964   1.990  11.139
    1LIG    C48   74   2.022   2.034  11.289
    1LIG    C49   75   1.955   1.983  11.452
    1LIG    O25   76   2.013   2.028  11.603
    1LIG    C50   77   1.956   1.985  11.754
    1LIG    C51   78   2.026   2.038  11.915
    1LIG    O26   79   1.969   1.998  12.067
    1LIG    C52   80   2.028   2.038  12.218
    1LIG    C53   81   1.952   1.994  12.380
    1LIG    O27   82   2.010   2.031  12.533
    1LIG    C54   83   1.951   1.983  12.683
    1LIG    C55   84   2.020   2.030  12.848
    1LIG    O28   85   1.963   1.985  13.001
    1LIG    C56   86   2.019   2.027  13.156
    1LIG    C57   87   1.947   1.973  13.319
    1LIG    O29   88   2.004   2.006  13.475
    1LIG    C58   89   1.933   1.974  13.625
    1LIG    C59   90   2.014   1.976  13.793
    1LIG      H   91   2.052   2.122   0.204
    1LIG     H1   92   2.107   1.959   0.195
    1LIG     H2   93   1.929   1.877   0.367
    1LIG     H3   94   1.839   2.026   0.359
    1LIG     H4   95   1.946   1.880   0.679
    1LIG     H5   96   1.837   2.015   0.674
    1LIG     H6   97   2.006   2.157   0.830
    1LIG     H7   98   2.118   2.027   0.829
    1LIG     H8   99   2.031   2.152   1.141
    1LIG     H9  100   2.128   2.009   1.137
    1LIG    H10  101   1.945   1.886   1.299
    1LIG    H11  102   1.854   2.033   1.301
    1LIG    H12  103   1.967   1.876   1.603
    1LIG    H13  104   1.857   2.010   1.605
    1LIG    H14  105   2.037   2.144   1.762
    1LIG    H15  106   2.135   2.002   1.765
    1LIG    H16  107   2.046   2.140   2.073
    1LIG    H17  108   2.129   1.989   2.075
    1LIG    H18  109   1.941   1.882   2.231
    1LIG    H19  110   1.848   2.028   2.224
    1LIG    H20  111   1.947   1.883   2.540
    1LIG    H21  112   1.839   2.020   2.534
    1LIG    H22  113   2.006   2.160   2.691
    1LIG    H23  114   2.119   2.030   2.690
    1LIG    H24  115   2.031   2.154   2.997
    1LIG    H25  116   2.127   2.010   2.994
    1LIG    H26  117   1.941   1.888   3.153
    1LIG    H27  118   1.852   2.036   3.155
    1LIG    H28  119   1.963   1.877   3.454
    1LIG    H29  120   1.853   2.011   3.457
    1LIG    H30  121   2.034   2.145   3.612
    1LIG    H31  122   2.132   2.003   3.614
    1LIG    H32  123   2.048   2.139   3.922
    1LIG    H33  124   2.128   1.986   3.923
    1LIG    H34  125   1.940   1.882   4.078
    1LIG    H35  126   1.848   2.029   4.072
    1LIG    H36  127   1.945   1.883   4.386
    1LIG    H37  128   1.838   2.021   4.380
    1LIG    H38  129   2.005   2.160   4.536
    1LIG    H39  130   2.118   2.029   4.536
    1LIG    H40  131   2.032   2.153   4.840
    1LIG    H41  132   2.126   2.007   4.837
    1LIG    H42  133   1.939   1.889   4.996
    1LIG    H43  134   1.851   2.039   4.998
    1LIG    H44  135   1.965   1.879   5.296
    1LIG    H45  136   1.856   2.014   5.300
    1LIG    H46  137   2.039   2.148   5.451
    1LIG    H47  138   2.138   2.005   5.452
    1LIG    H48  139   2.065   2.139   5.758
    1LIG    H49  140   2.141   1.983   5.756
    1LIG    H50  141   1.956   1.883   5.915
    1LIG    H51  142   1.865   2.030   5.908
    1LIG    H52  143   1.978   1.880   6.219
    1LIG    H53  144   1.861   2.007   6.217
    1LIG    H54  145   2.027   2.157   6.372
    1LIG    H55  146   2.136   2.024   6.378
    1LIG    H56  147   2.061   2.136   6.674
    1LIG    H57  148   2.118   1.972   6.679
    1LIG    H58  149   1.900   1.905   6.824
    1LIG    H59  150   1.850   2.070   6.826
    1LIG    H60  151   1.931   1.874   7.130
    1LIG    H61  152   1.836   2.018   7.131
    1LIG    H62  153   2.024   2.133   7.292
    1LIG    H63  154   2.114   1.985   7.288
    1LIG    H64  155   2.020   2.137   7.597
    1LIG    H65  156   2.119   1.994   7.596
    1LIG    H66  157   1.953   1.867   7.756
    1LIG    H67  158   1.845   2.004   7.753
    1LIG    H68  159   1.968   1.867   8.060
    1LIG    H69  160   1.850   1.996   8.063
    1LIG    H70  161   2.030   2.142   8.214
    1LIG    H71  162   2.128   2.004   8.219
    1LIG    H72  163   2.024   2.145   8.519
    1LIG    H73  164   2.117   1.999   8.522
    1LIG    H74  165   1.928   1.882   8.676
    1LIG    H75  166   1.834   2.029   8.671
    1LIG    H76  167   1.940   1.874   8.978
    1LIG    H77  168   1.833   2.011   8.984
    1LIG    H78  169   2.016   2.141   9.136
    1LIG    H79  170   2.114   1.997   9.133
    1LIG    H80  171   2.020   2.144   9.443
    1LIG    H81  172   2.121   2.002   9.442
    1LIG    H82  173   1.951   1.875   9.603
    1LIG    H83  174   1.845   2.012   9.603
    1LIG    H84  175   1.957   1.876   9.908
    1LIG    H85  176   1.848   2.012   9.908
    1LIG    H86  177   2.025   2.149  10.061
    1LIG    H87  178   2.130   2.013  10.061
    1LIG    H88  179   2.037   2.147  10.367
    1LIG    H89  180   2.129   2.000  10.370
    1LIG    H90  181   1.937   1.886  10.524
    1LIG    H91  182   1.849   2.036  10.521
    1LIG    H92  183   1.949   1.876  10.824
    1LIG    H93  184   1.846   2.016  10.828
    1LIG    H94  185   2.027   2.141  10.985
    1LIG    H95  186   2.124   1.997  10.983
    1LIG    H96  187   2.025   2.144  11.291
    1LIG    H97  188   2.128   2.003  11.291
    1LIG    H98  189   1.956   1.874  11.450
    1LIG    H99  190   1.850   2.012  11.449
    1LIG   H100  191   1.954   1.876  11.757
    1LIG   H101  192   1.851   2.016  11.757
    1LIG   H102  193   2.032   2.147  11.911
    1LIG   H103  194   2.131   2.007  11.911
    1LIG   H104  195   2.038   2.146  12.219
    1LIG   H105  196   2.130   1.999  12.222
    1LIG   H106  197   1.938   1.886  12.378
    1LIG   H107  198   1.851   2.036  12.375
    1LIG   H108  199   1.951   1.874  12.682
    1LIG   H109  200   1.847   2.013  12.686
    1LIG   H110  201   2.025   2.138  12.846
    1LIG   H111  202   2.124   1.996  12.844
    1LIG   H112  203   2.020   2.136  13.159
    1LIG   H113  204   2.124   1.997  13.159
    1LIG   H114  205   1.943   1.864  13.311
    1LIG   H115  206   1.844   2.006  13.316
    1LIG   H116  207   1.897   1.871  13.617
    1LIG   H117  208   1.843   2.034  13.632
    1LIG   H118  209   2.104   2.036  13.786
    1LIG   H119  210   2.048   1.873  13.800
    2MOL     C1  211   1.468   1.547   6.337
    2MOL     H1  212   1.449   1.440   6.322
    2MOL     O1  213   1.423   1.584   6.469
    2MOL     C2  214   1.441   1.723   6.505
    2MOL     H2  215   1.546   1.752   6.489
    2MOL     C3  216   1.412   1.735   6.656
    2MOL     H3  217   1.457   1.827   6.695
    2MOL     H4  218   1.461   1.651   6.705
    2MOL     O2  219   1.270   1.733   6.683
    2MOL     C4  220   1.242   1.735   6.824
    2MOL     C5  221   1.387   1.629   6.233
    2MOL     H5  222   1.283   1.595   6.236
    2MOL     O3  223   1.441   1.611   6.100
    2MOL     C6  224   1.414   1.483   6.039
    2MOL     C7  225   1.387   1.781   6.264
    2MOL     H6  226   1.486   1.821   6.243
    2MOL     O4  227   1.286   1.845   6.182
    2MOL     C8  228   1.337   1.937   6.085
    2MOL     C9  229   1.352   1.810   6.412
    2MOL     H7  230   1.247   1.786   6.429
    2MOL     O5  231   1.378   1.950   6.434
    2MOL    C10  232   1.297   2.016   6.533
    2MOL     H8  233   1.217   1.949   6.568
    2MOL     O6  234   1.381   2.053   6.645
    2MOL    C11  235   1.493   2.139   6.611
    2MOL     H9  236   1.551   2.093   6.530
    2MOL    C12  237   1.586   2.148   6.734
    2MOL    H10  238   1.687   2.176   6.699
    2MOL    H11  239   1.593   2.051   6.784
    2MOL     O7  240   1.537   2.248   6.824
    2MOL    C13  241   1.628   2.285   6.928
    2MOL    C14  242   1.233   2.144   6.472
    2MOL    H12  243   1.162   2.186   6.544
    2MOL     O8  244   1.165   2.111   6.348
    2MOL    C15  245   1.046   2.031   6.359
    2MOL    C16  246   1.340   2.250   6.440
    2MOL    H13  247   1.400   2.212   6.356
    2MOL     O9  248   1.274   2.374   6.408
    2MOL    C17  249   1.284   2.414   6.270
    2MOL    C18  250   1.434   2.274   6.561
    2MOL    H14  251   1.375   2.320   6.641
    2MOL    O10  252   1.542   2.362   6.518
    2MOL    C19  253   1.575   2.470   6.608
    2MOL    H15  254   1.499   2.479   6.687
    2MOL    O11  255   1.704   2.445   6.668
    2MOL    C20  256   1.813   2.428   6.575
    2MOL    H16  257   1.788   2.349   6.502
    2MOL    C21  258   1.937   2.378   6.652
    2MOL    H17  259   2.014   2.346   6.581
    2MOL    H18  260   1.908   2.290   6.711
    2MOL    O12  261   1.989   2.480   6.740
    2MOL    C22  262   2.106   2.437   6.812
    2MOL    C23  263   1.583   2.603   6.528
    2MOL    H19  264   1.600   2.685   6.598
    2MOL    O13  265   1.459   2.625   6.458
    2MOL    C24  266   1.349   2.664   6.543
    2MOL    C25  267   1.700   2.602   6.427
    2MOL    H20  268   1.680   2.529   6.348
    2MOL    O14  269   1.713   2.735   6.374
    2MOL    C26  270   1.666   2.750   6.239
    2MOL    C27  271   1.833   2.560   6.497
    2MOL    H21  272   1.866   2.639   6.567
    2MOL    O15  273   1.933   2.535   6.397
    2MOL    C28  274   2.007   2.650   6.352
    2MOL    H22  275   1.942   2.737   6.342
    2MOL    O16  276   2.111   2.677   6.449
    2MOL    C29  277   2.209   2.572   6.469
    2MOL    H23  278   2.161   2.480   6.504
    2MOL    C30  279   2.304   2.625   6.577
    2MOL    H24  280   2.373   2.547   6.611
    2MOL    H25  281   2.245   2.657   6.664
    2MOL    O17  282   2.374   2.737   6.522
    2MOL    C31  283   2.460   2.806   6.613
    2MOL    C32  284   2.070   2.620   6.215
    2MOL    H26  285   2.121   2.712   6.180
    2MOL    O18  286   1.963   2.584   6.125
    2MOL    C33  287   1.981   2.627   5.990
    2MOL    C34  288   2.173   2.506   6.225
    2MOL    H27  289   2.120   2.414   6.252
    2MOL    O19  290   2.242   2.492   6.099
    2MOL    C35  291   2.259   2.356   6.058
    2MOL    C36  292   2.279   2.540   6.332
    2MOL    H28  293   2.333   2.630   6.297
    2MOL    O20  294   2.370   2.428   6.345
    2MOL    C37  295   2.509   2.460   6.371
    2MOL    H29  296   2.524   2.569   6.366
    2MOL    O21  297   2.542   2.414   6.503
    2MOL    C38  298   2.525   2.272   6.524
    2MOL    H30  299   2.422   2.242   6.501
    2MOL    C39  300   2.549   2.249   6.674
    2MOL    H31  301   2.510   2.151   6.703
    2MOL    H32  302   2.493   2.326   6.726
    2MOL    O22  303   2.690   2.259   6.705
    2MOL    C40  304   2.723   2.222   6.839
    2MOL    C41  305   2.606   2.391   6.271
    2MOL    H33  306   2.708   2.426   6.294
    2MOL    O23  307   2.574   2.425   6.135
    2MOL    C42  308   2.600   2.562   6.099
    2MOL    C43  309   2.607   2.237   6.285
    2MOL    H34  310   2.513   2.196   6.245
    2MOL    O24  311   2.722   2.188   6.213
    2MOL    C44  312   2.693   2.100   6.103
    2MOL    C45  313   2.623   2.194   6.432
    2MOL    H35  314   2.726   2.218   6.462
    2MOL    O25  315   2.598   2.051   6.442
    2MOL    C46  316   2.684   1.979   6.534
    2MOL    H36  317   2.763   2.045   6.573
    2MOL    O26  318   2.605   1.931   6.644
    2MOL    C47  319   2.497   1.841   6.609
    2MOL    H37  320   2.429   1.890   6.539
    2MOL    C48  321   2.419   1.810   6.738
    2MOL    H38  322   2.318   1.773   6.713
    2MOL    H39  323   2.408   1.902   6.797
    2MOL    O27  324   2.491   1.712   6.814
    2MOL    C49  325   2.428   1.675   6.937
    2MOL    C50  326   2.752   1.858   6.462
    2MOL    H40  327   2.824   1.813   6.530
    2MOL    O28  328   2.820   1.902   6.342
    2MOL    C51  329   2.938   1.982   6.363
    2MOL    C52  330   2.649   1.750   6.424
    2MOL    H41  331   2.587   1.785   6.340
    2MOL    O29  332   2.722   1.631   6.389
    2MOL    C53  333   2.722   1.600   6.249
    2MOL    C54  334   2.557   1.714   6.543
    2MOL    H42  335   2.621   1.663   6.617
    2MOL    O30  336   2.450   1.627   6.497
    2MOL    C55  337   2.438   1.502   6.570
    2MOL    H43  338   2.528   1.485   6.631
    2MOL    O31  339   2.322   1.507   6.656
    2MOL    C56  340   2.194   1.524   6.590
    2MOL    H44  341   2.186   1.623   6.545
    2MOL    C57  342   2.084   1.507   6.696
    2MOL    H45  343   2.114   1.430   6.767
    2MOL    H46  344   1.992   1.474   6.646
    2MOL    O32  345   2.059   1.631   6.764
    2MOL    C58  346   1.925   1.633   6.815
    2MOL    C59  347   2.421   1.381   6.474
    2MOL    H47  348   2.411   1.290   6.535
    2MOL    O33  349   2.537   1.368   6.389
    2MOL    C60  350   2.654   1.316   6.454
    2MOL    C61  351   2.294   1.392   6.388
    2MOL    H48  352   2.303   1.476   6.317
    2MOL    O34  353   2.274   1.266   6.319
    2MOL    C62  354   2.323   1.259   6.184
    2MOL    C63  355   2.172   1.415   6.481
    2MOL    H49  356   2.150   1.321   6.533
    2MOL    O35  357   2.058   1.457   6.403
    2MOL    C64  358   1.973   1.347   6.360
    2MOL    H50  359   2.033   1.255   6.355
    2MOL    O36  360   1.865   1.330   6.456
    2MOL    C65  361   1.764   1.434   6.466
    2MOL    H51  362   1.809   1.528   6.498
    2MOL    C66  363   1.665   1.387   6.575
    2MOL    H52  364   1.643   1.280   6.562
    2MOL    H53  365   1.571   1.441   6.570
    2MOL    O37  366   1.725   1.410   6.704
    2MOL    C67  367   1.647   1.360   6.813
    2MOL    C68  368   1.915   1.373   6.219
    2MOL    H54  369   1.871   1.279   6.184
    2MOL    O38  370   2.023   1.414   6.134
    2MOL    C69  371   2.028   1.347   6.007
    2MOL    C70  372   1.806   1.483   6.219
    2MOL    H55  373   1.856   1.578   6.241
    2MOL    O39  374   1.743   1.485   6.089
    2MOL    C71  375   1.746   1.614   6.025
    2MOL    C72  376   1.698   1.456   6.326
    2MOL    H56  377   1.642   1.366   6.298
    2MOL    O40  378   1.611   1.573   6.328
    2MOL    H57  379   1.137   1.712   6.843
    2MOL    H58  380   1.302   1.660   6.876
    2MOL    H59  381   1.266   1.834   6.866
    2MOL    H60  382   1.692   1.389   6.909
    2MOL    H61  383   1.545   1.399   6.809
    2MOL    H62  384   1.642   1.250   6.810
    2MOL    H63  385   1.909   1.720   6.880
    2MOL    H64  386   1.853   1.635   6.733
    2MOL    H65  387   1.905   1.545   6.876
    2MOL    H66  388   2.485   1.594   6.983
    2MOL    H67  389   2.428   1.762   7.004
    2MOL    H68  390   2.326   1.641   6.920
    2MOL    H69  391   2.832   2.210   6.850
    2MOL    H70  392   2.690   2.300   6.910
    2MOL    H71  393   2.676   2.127   6.866
    2MOL    H72  394   2.505   2.890   6.560
    2MOL    H73  395   2.402   2.844   6.698
    2MOL    H74  396   2.539   2.739   6.649
    2MOL    H75  397   2.140   2.516   6.881
    2MOL    H76  398   2.084   2.348   6.872
    2MOL    H77  399   2.187   2.414   6.743
    2MOL    H78  400   1.590   2.375   6.978
    2MOL    H79  401   1.638   2.204   7.000
    2MOL    H80  402   1.727   2.309   6.886
    2MOL    H81  403   1.224   2.504   6.253
    2MOL    H82  404   1.388   2.436   6.244
    2MOL    H83  405   1.247   2.334   6.204
    2MOL    H84  406   1.006   2.011   6.259
    2MOL    H85  407   1.069   1.934   6.405
    2MOL    H86  408   0.970   2.082   6.418
    2MOL    H87  409   1.255   1.977   6.024
    2MOL    H88  410   1.389   2.020   6.134
    2MOL    H89  411   1.408   1.886   6.018
    2MOL    H90  412   1.447   1.485   5.934
    2MOL    H91  413   1.470   1.404   6.091
    2MOL    H92  414   1.307   1.461   6.042
    2MOL    H93  415   1.690   1.610   5.931
    2MOL    H94  416   1.699   1.689   6.090
    2MOL    H95  417   1.850   1.644   6.005
    2MOL    H96  418   2.107   1.390   5.945
    2MOL    H97  419   2.048   1.240   6.022
    2MOL    H98  420   1.932   1.358   5.956
    2MOL    H99  421   2.296   1.162   6.140
    2MOL   H100  422   2.279   1.339   6.124
    2MOL   H101  423   2.432   1.269   6.182
    2MOL   H102  424   2.728   1.288   6.378
    2MOL   H103  425   2.699   1.391   6.519
    2MOL   H104  426   2.629   1.227   6.514
    2MOL   H105  427   2.779   1.508   6.230
    2MOL   H106  428   2.619   1.584   6.215
    2MOL   H107  429   2.767   1.682   6.191
    2MOL   H108  430   2.983   2.009   6.267
    2MOL   H109  431   2.912   2.075   6.415
    2MOL   H110  432   3.011   1.926   6.423
    2MOL   H111  433   2.786   2.067   6.055
    2MOL   H112  434   2.639   2.011   6.139
    2MOL   H113  435   2.631   2.152   6.029
    2MOL   H114  436   2.606   2.570   5.989
    2MOL   H115  437   2.519   2.626   6.134
    2MOL   H116  438   2.694   2.597   6.142
    2MOL   H117  439   2.325   2.352   5.971
    2MOL   H118  440   2.305   2.296   6.137
    2MOL   H119  441   2.162   2.311   6.031
    2MOL   H120  442   1.893   2.600   5.930
    2MOL   H121  443   1.994   2.736   5.988
    2MOL   H122  444   2.069   2.580   5.945
    2MOL   H123  445   1.677   2.854   6.207
    2MOL   H124  446   1.723   2.687   6.171
    2MOL   H125  447   1.559   2.723   6.232
    2MOL   H126  448   1.261   2.689   6.482
    2MOL   H127  449   1.320   2.582   6.609
    2MOL   H128  450   1.376   2.752   6.602
    3MOL     C1  451   2.528   1.538   7.555
    3MOL     H1  452   2.542   1.431   7.573
    3MOL     O1  453   2.578   1.572   7.424
    3MOL     C2  454   2.562   1.712   7.387
    3MOL     H2  455   2.458   1.738   7.400
    3MOL     C3  456   2.593   1.725   7.237
    3MOL     H3  457   2.563   1.825   7.203
    3MOL     H4  458   2.532   1.651   7.184
    3MOL     O2  459   2.732   1.702   7.211
    3MOL     C4  460   2.767   1.729   7.074
    3MOL     C5  461   2.612   1.617   7.659
    3MOL     H5  462   2.715   1.580   7.653
    3MOL     O3  463   2.563   1.595   7.793
    3MOL     C6  464   2.572   1.459   7.840
    3MOL     C7  465   2.617   1.769   7.630
    3MOL     H6  466   2.519   1.812   7.654
    3MOL     O4  467   2.723   1.825   7.711
    3MOL     C8  468   2.676   1.907   7.819
    3MOL     C9  469   2.649   1.801   7.481
    3MOL     H7  470   2.755   1.781   7.463
    3MOL     O5  471   2.618   1.942   7.462
    3MOL    C10  472   2.704   2.019   7.374
    3MOL     H8  473   2.790   1.958   7.343
    3MOL     O6  474   2.630   2.060   7.258
    3MOL    C11  475   2.514   2.143   7.284
    3MOL     H9  476   2.451   2.090   7.354
    3MOL    C12  477   2.436   2.162   7.152
    3MOL    H10  478   2.332   2.187   7.177
    3MOL    H11  479   2.435   2.068   7.095
    3MOL     O7  480   2.496   2.268   7.077
    3MOL    C13  481   2.416   2.314   6.969
    3MOL    C14  482   2.755   2.147   7.448
    3MOL    H12  483   2.829   2.195   7.384
    3MOL     O8  484   2.815   2.111   7.574
    3MOL    C15  485   2.945   2.051   7.563
    3MOL    C16  486   2.642   2.250   7.475
    3MOL    H13  487   2.574   2.212   7.552
    3MOL     O9  488   2.702   2.376   7.514
    3MOL    C17  489   2.694   2.411   7.653
    3MOL    C18  490   2.561   2.278   7.347
    3MOL    H14  491   2.628   2.329   7.277
    3MOL    O10  492   2.448   2.364   7.381
    3MOL    C19  493   2.420   2.474   7.290
    3MOL    H15  494   2.497   2.480   7.213
    3MOL    O11  495   2.292   2.453   7.228
    3MOL    C20  496   2.179   2.446   7.317
    3MOL    H16  497   2.199   2.373   7.393
    3MOL    C21  498   2.056   2.396   7.238
    3MOL    H17  499   1.979   2.364   7.309
    3MOL    H18  500   2.086   2.310   7.177
    3MOL    O12  501   2.006   2.501   7.153
    3MOL    C22  502   1.893   2.462   7.074
    3MOL    C23  503   2.414   2.611   7.365
    3MOL    H19  504   2.403   2.692   7.291
    3MOL    O13  505   2.535   2.629   7.440
    3MOL    C24  506   2.649   2.670   7.363
    3MOL    C25  507   2.294   2.618   7.463
    3MOL    H20  508   2.314   2.546   7.543
    3MOL    O14  509   2.282   2.751   7.517
    3MOL    C26  510   2.337   2.766   7.649
    3MOL    C27  511   2.160   2.577   7.396
    3MOL    H21  512   2.123   2.655   7.329
    3MOL    O15  513   2.067   2.544   7.501
    3MOL    C28  514   1.992   2.654   7.555
    3MOL    H22  515   2.056   2.742   7.568
    3MOL    O16  516   1.885   2.684   7.464
    3MOL    C29  517   1.790   2.577   7.439
    3MOL    H23  518   1.842   2.489   7.400
    3MOL    C30  519   1.693   2.628   7.331
    3MOL    H24  520   1.634   2.545   7.290
    3MOL    H25  521   1.753   2.669   7.248
    3MOL    O17  522   1.608   2.728   7.387
    3MOL    C31  523   1.522   2.792   7.292
    3MOL    C32  524   1.932   2.615   7.693
    3MOL    H26  525   1.880   2.702   7.733
    3MOL    O18  526   2.041   2.576   7.780
    3MOL    C33  527   2.029   2.620   7.916
    3MOL    C34  528   1.829   2.502   7.680
    3MOL    H27  529   1.880   2.409   7.652
    3MOL    O19  530   1.762   2.488   7.807
    3MOL    C35  531   1.734   2.353   7.846
    3MOL    C36  532   1.722   2.539   7.574
    3MOL    H28  533   1.667   2.625   7.613
    3MOL    O20  534   1.635   2.425   7.556
    3MOL    C37  535   1.497   2.457   7.532
    3MOL    H29  536   1.482   2.565   7.541
    3MOL    O21  537   1.462   2.415   7.398
    3MOL    C38  538   1.480   2.273   7.375
    3MOL    H30  539   1.582   2.244   7.403
    3MOL    C39  540   1.464   2.250   7.223
    3MOL    H31  541   1.504   2.151   7.197
    3MOL    H32  542   1.523   2.326   7.172
    3MOL    O22  543   1.326   2.260   7.184
    3MOL    C40  544   1.304   2.232   7.045
    3MOL    C41  545   1.402   2.385   7.630
    3MOL    H33  546   1.302   2.421   7.607
    3MOL    O23  547   1.435   2.415   7.768
    3MOL    C42  548   1.406   2.549   7.812
    3MOL    C43  549   1.403   2.231   7.612
    3MOL    H34  550   1.499   2.191   7.647
    3MOL    O24  551   1.293   2.176   7.688
    3MOL    C44  552   1.329   2.092   7.799
    3MOL    C45  553   1.382   2.193   7.464
    3MOL    H35  554   1.279   2.218   7.436
    3MOL    O25  555   1.410   2.052   7.449
    3MOL    C46  556   1.324   1.981   7.356
    3MOL    H36  557   1.248   2.049   7.315
    3MOL    O26  558   1.405   1.930   7.248
    3MOL    C47  559   1.510   1.836   7.285
    3MOL    H37  560   1.577   1.882   7.359
    3MOL    C48  561   1.593   1.806   7.159
    3MOL    H38  562   1.686   1.756   7.187
    3MOL    H39  563   1.618   1.900   7.108
    3MOL    O27  564   1.515   1.722   7.071
    3MOL    C49  565   1.586   1.678   6.955
    3MOL    C50  566   1.254   1.863   7.427
    3MOL    H40  567   1.178   1.820   7.361
    3MOL    O28  568   1.190   1.912   7.547
    3MOL    C51  569   1.068   1.985   7.528
    3MOL    C52  570   1.353   1.752   7.468
    3MOL    H41  571   1.416   1.790   7.550
    3MOL    O29  572   1.274   1.638   7.510
    3MOL    C53  573   1.299   1.592   7.643
    3MOL    C54  574   1.443   1.710   7.349
    3MOL    H42  575   1.380   1.661   7.274
    3MOL    O30  576   1.546   1.620   7.398
    3MOL    C55  577   1.561   1.495   7.325
    3MOL    H43  578   1.473   1.478   7.261
    3MOL    O31  579   1.679   1.500   7.242
    3MOL    C56  580   1.805   1.519   7.312
    3MOL    H44  581   1.808   1.618   7.358
    3MOL    C57  582   1.920   1.506   7.211
    3MOL    H45  583   1.902   1.422   7.143
    3MOL    H46  584   2.012   1.485   7.266
    3MOL    O32  585   1.935   1.627   7.136
    3MOL    C58  586   2.068   1.636   7.084
    3MOL    C59  587   1.577   1.374   7.422
    3MOL    H47  588   1.587   1.282   7.363
    3MOL    O33  589   1.463   1.362   7.509
    3MOL    C60  590   1.341   1.320   7.445
    3MOL    C61  591   1.702   1.390   7.511
    3MOL    H48  592   1.691   1.477   7.576
    3MOL    O34  593   1.721   1.269   7.587
    3MOL    C62  594   1.672   1.271   7.722
    3MOL    C63  595   1.825   1.411   7.421
    3MOL    H49  596   1.850   1.316   7.372
    3MOL    O35  597   1.934   1.455   7.505
    3MOL    C64  598   2.021   1.347   7.546
    3MOL    H50  599   1.963   1.254   7.556
    3MOL    O36  600   2.126   1.330   7.447
    3MOL    C65  601   2.225   1.435   7.433
    3MOL    H51  602   2.176   1.530   7.405
    3MOL    C66  603   2.319   1.391   7.319
    3MOL    H52  604   2.346   1.286   7.334
    3MOL    H53  605   2.409   1.451   7.318
    3MOL    O37  606   2.250   1.408   7.194
    3MOL    C67  607   2.320   1.356   7.081
    3MOL    C68  608   2.083   1.378   7.685
    3MOL    H54  609   2.126   1.284   7.722
    3MOL    O38  610   1.978   1.426   7.771
    3MOL    C69  611   1.979   1.367   7.902
    3MOL    C70  612   2.193   1.487   7.679
    3MOL    H55  613   2.145   1.582   7.653
    3MOL    O39  614   2.259   1.494   7.807
    3MOL    C71  615   2.244   1.620   7.873
    3MOL    C72  616   2.297   1.455   7.569
    3MOL    H56  617   2.349   1.363   7.597
    3MOL    O40  618   2.387   1.569   7.563
    3MOL    H57  619   2.875   1.718   7.059
    3MOL    H58  620   2.715   1.661   7.006
    3MOL    H59  621   2.740   1.832   7.047
    3MOL    H60  622   2.264   1.377   6.989
    3MOL    H61  623   2.419   1.402   7.072
    3MOL    H62  624   2.332   1.247   7.089
    3MOL    H63  625   2.082   1.731   7.030
    3MOL    H64  626   2.140   1.629   7.166
    3MOL    H65  627   2.088   1.553   7.015
    3MOL    H66  628   1.525   1.603   6.902
    3MOL    H67  629   1.605   1.762   6.888
    3MOL    H68  630   1.681   1.631   6.984
    3MOL    H69  631   1.201   2.256   7.017
    3MOL    H70  632   1.367   2.296   6.983
    3MOL    H71  633   1.327   2.127   7.022
    3MOL    H72  634   1.458   2.865   7.342
    3MOL    H73  635   1.581   2.844   7.216
    3MOL    H74  636   1.458   2.718   7.242
    3MOL    H75  637   1.869   2.540   7.001
    3MOL    H76  638   1.915   2.369   7.019
    3MOL    H77  639   1.805   2.445   7.138
    3MOL    H78  640   2.459   2.405   6.925
    3MOL    H79  641   2.411   2.236   6.893
    3MOL    H80  642   2.313   2.337   7.002
    3MOL    H81  643   2.745   2.506   7.670
    3MOL    H82  644   2.589   2.422   7.684
    3MOL    H83  645   2.741   2.334   7.715
    3MOL    H84  646   2.989   2.038   7.662
    3MOL    H85  647   2.938   1.953   7.514
    3MOL    H86  648   3.012   2.114   7.503
    3MOL    H87  649   2.760   1.932   7.886
    3MOL    H88  650   2.633   2.000   7.780
    3MOL    H89  651   2.600   1.854   7.878
    3MOL    H90  652   2.547   1.455   7.947
    3MOL    H91  653   2.502   1.394   7.787
    3MOL    H92  654   2.674   1.419   7.827
    3MOL    H93  655   2.293   1.618   7.971
    3MOL    H94  656   2.291   1.700   7.813
    3MOL    H95  657   2.138   1.644   7.887
    3MOL    H96  658   1.893   1.404   7.960
    3MOL    H97  659   1.971   1.258   7.894
    3MOL    H98  660   2.071   1.393   7.956
    3MOL    H99  661   1.700   1.178   7.773
    3MOL   H100  662   1.717   1.355   7.777
    3MOL   H101  663   1.563   1.281   7.724
    3MOL   H102  664   1.266   1.299   7.522
    3MOL   H103  665   1.305   1.401   7.381
    3MOL   H104  666   1.358   1.229   7.386
    3MOL   H105  667   1.223   1.518   7.672
    3MOL   H106  668   1.397   1.544   7.650
    3MOL   H107  669   1.296   1.675   7.714
    3MOL   H108  670   1.023   2.004   7.626
    3MOL   H109  671   1.087   2.081   7.479
    3MOL   H110  672   0.997   1.926   7.468
    3MOL   H111  673   1.239   2.052   7.846
    3MOL   H112  674   1.391   2.008   7.764
    3MOL   H113  675   1.385   2.150   7.873
    3MOL   H114  676   1.418   2.556   7.921
    3MOL   H115  677   1.475   2.620   7.765
    3MOL   H116  678   1.303   2.577   7.787
    3MOL   H117  679   1.677   2.353   7.940
    3MOL   H118  680   1.674   2.301   7.771
    3MOL   H119  681   1.828   2.298   7.860
    3MOL   H120  682   2.113   2.583   7.976
    3MOL   H121  683   2.029   2.730   7.921
    3MOL   H122  684   1.936   2.583   7.962
    3MOL   H123  685   2.331   2.870   7.682
    3MOL   H124  686   2.282   2.703   7.720
    3MOL   H125  687   2.442   2.736   7.651
    3MOL   H126  688   2.731   2.699   7.430
    3MOL   H127  689   2.684   2.589   7.299
    3MOL   H128  690   2.624   2.757   7.301
    4SOL     OW  691   0.229   0.660   0.119
    4SOL    HW1  692   0.135   0.647   0.131
    4SOL    HW2  693   0.250   0.612   0.039
    5SOL     OW  694   0.223   0.290   0.983
    5SOL    HW1  695   0.246   0.250   1.067
    5SOL    HW2  696   0.128   0.280   0.976
    6SOL     OW  697   0.019   0.384   0.633
    6SOL    HW1  698   3.929   0.399   0.660
    6SOL    HW2  699   0.025   0.289   0.621
    7SOL     OW  700   0.582   1.292   1.195
    7SOL    HW1  701   0.496   1.293   1.153
    7SOL    HW2  702   0.595   1.381   1.226
    8SOL     OW  703   1.568   1.512   0.708
    8SOL    HW1  704   1.525   1.492   0.791
    8SOL    HW2  705   1.496   1.518   0.644
    9SOL     OW  706   1.134   0.698   0.696
    9SOL    HW1  707   1.181   0.781   0.685
    9SOL    HW2  708   1.085   0.709   0.778
   10SOL     OW  709   1.767   0.624   0.214
   10SOL    HW1  710   1.782   0.598   0.123
   10SOL    HW2  711   1.771   0.542   0.263
   11SOL     OW  712   0.751   1.138   1.044
   11SOL    HW1  713   0.689   1.175   1.107
   11SOL    HW2  714   0.788   1.214   0.999
   12SOL     OW  715   0.873   0.768   1.825
   12SOL    HW1  716   0.862   0.839   1.888
   12SOL    HW2  717   0.895   0.811   1.742
   13SOL     OW  718   0.684   1.000   0.646
   13SOL    HW1  719   0.750   0.990   0.715
   13SOL    HW2  720   0.616   1.053   0.687
   14SOL     OW  721   0.712   1.149   1.818
   14SOL    HW1  722   0.760   1.226   1.847
   14SOL    HW2  723   0.632   1.183   1.779
   15SOL     OW  724   0.352   1.400   1.078
   15SOL    HW1  725   0.270   1.379   1.033
   15SOL    HW2  726   0.399   1.458   1.018
   16SOL     OW  727   1.460   1.503   1.359
   16SOL    HW1  728   1.514   1.581   1.367
   16SOL    HW2  729   1.394   1.511   1.427
   17SOL     OW  730   0.458   0.409   1.494
   17SOL    HW1  731   0.541   0.360   1.494
   17SOL    HW2  732   0.390   0.341   1.498
   18SOL     OW  733   1.611   0.450   0.735
   18SOL    HW1  734   1.542   0.485   0.678
   18SOL    HW2  735   1.630   0.521   0.796
   19SOL     OW  736   0.223   1.710   0.472
   19SOL    HW1  737   0.242   1.789   0.523
   19SOL    HW2  738   0.287   1.711   0.401
   20SOL     OW  739   1.137   1.342   1.694
   20SOL    HW1  740   1.179   1.336   1.780
   20SOL    HW2  741   1.085   1.262   1.686
   21SOL     OW  742   0.246   1.447   0.542
   21SOL    HW1  743   0.224   1.539   0.528
   21SOL    HW2  744   0.172   1.412   0.593
   22SOL     OW  745   0.248   1.064   0.883
   22SOL    HW1  746   0.269   0.979   0.921
   22SOL    HW2  747   0.196   1.109   0.950
   23SOL     OW  748   0.609   1.793   1.426
   23SOL    HW1  749   0.527   1.775   1.471
   23SOL    HW2  750   0.632   1.882   1.453
   24SOL     OW  751   0.560   0.980   0.168
   24SOL    HW1  752   0.588   1.022   0.086
   24SOL    HW2  753   0.615   1.021   0.235
   25SOL     OW  754   1.582   0.141   1.455
   25SOL    HW1  755   1.613   0.214   1.401
   25SOL    HW2  756   1.547   0.183   1.534
   26SOL     OW  757   0.139   0.655   0.568
   26SOL    HW1  758   0.098   0.569   0.575
   26SOL    HW2  759   0.103   0.704   0.641
   27SOL     OW  760   0.029   1.597   0.139
   27SOL    HW1  761   0.029   1.502   0.149
   27SOL    HW2  762   3.975   1.629   0.211
   28SOL     OW  763   1.687   0.917   0.645
   28SOL    HW1  764   1.770   0.875   0.625
   28SOL    HW2  765   1.667   0.969   0.567
   29SOL     OW  766   1.650   1.105   0.430
   29SOL    HW1  767   1.738   1.105   0.393
   29SOL    HW2  768   1.654   1.167   0.503
   30SOL     OW  769   0.143   0.756   1.588
   30SOL    HW1  770   0.238   0.752   1.582
   30SOL    HW2  771   0.125   0.843   1.624
   31SOL     OW  772   0.613   1.387   0.737
   31SOL    HW1  773   0.567   1.304   0.745
   31SOL    HW2  774   0.598   1.414   0.646
   32SOL     OW  775   1.286   1.237   1.421
   32SOL    HW1  776   1.317   1.169   1.362
   32SOL    HW2  777   1.345   1.232   1.497
   33SOL     OW  778   0.824   0.004   0.522
   33SOL    HW1  779   0.868   0.084   0.494
   33SOL    HW2  780   0.731   0.025   0.520
   34SOL     OW  781   0.184   0.949   1.279
   34SOL    HW1  782   0.272   0.914   1.268
   34SOL    HW2  783   0.132   0.907   1.211
   35SOL     OW  784   1.529   0.999   0.206
   35SOL    HW1  785   1.461   0.941   0.241
   35SOL    HW2  786   1.572   1.035   0.283
   36SOL     OW  787   1.184   1.811   1.625
   36SOL    HW1  788   1.192   1.871   1.551
   36SOL    HW2  789   1.202   1.724   1.587
   37SOL     OW  790   0.346   0.249   1.846
   37SOL    HW1  791   0.389   0.332   1.826
   37SOL    HW2  792   0.255   0.272   1.862
   38SOL     OW  793   1.465   1.419   0.948
   38SOL    HW1  794   1.399   1.435   1.015
   38SOL    HW2  795   1.452   1.328   0.922
   39SOL     OW  796   1.666   1.746   0.579
   39SOL    HW1  797   1.632   1.731   0.491
   39SOL    HW2  798   1.645   1.665   0.626
   40SOL     OW  799   0.594   0.714   0.266
   40SOL    HW1  800   0.595   0.798   0.221
   40SOL    HW2  801   0.533   0.726   0.339
   41SOL     OW  802   1.274   0.371   0.940
   41SOL    HW1  803   1.187   0.332   0.948
   41SOL    HW2  804   1.332   0.310   0.986
   42SOL     OW  805   1.560   1.720   0.319
   42SOL    HW1  806   1.626   1.651   0.321
   42SOL    HW2  807   1.527   1.720   0.229
   43SOL     OW  808   0.794   0.616   1.453
   43SOL    HW1  809   0.765   0.589   1.540
   43SOL    HW2  810   0.758   0.549   1.394
   44SOL     OW  811   1.392   0.476   1.677
   44SOL    HW1  812   1.399   0.521   1.761
   44SOL    HW2  813   1.449   0.399   1.687
   45SOL     OW  814   0.951   0.887   1.585
   45SOL    HW1  815   1.006   0.818   1.548
   45SOL    HW2  816   0.902   0.922   1.511
   46SOL     OW  817   0.993   0.402   1.236
   46SOL    HW1  818   0.907   0.422   1.273
   46SOL    HW2  819   0.975   0.374   1.147
   47SOL     OW  820   1.052   0.703   0.428
   47SOL    HW1  821   1.070   0.694   0.522
   47SOL    HW2  822   0.969   0.658   0.415
   48SOL     OW  823   0.082   0.830   0.790
   48SOL    HW1  824   0.153   0.795   0.844
   48SOL    HW2  825   0.104   0.922   0.777
   49SOL     OW  826   0.130   1.865   1.579
   49SOL    HW1  827   0.138   1.830   1.667
   49SOL    HW2  828   0.038   1.855   1.557
   50SOL     OW  829   0.875   0.361   0.222
   50SOL    HW1  830   0.910   0.420   0.155
   50SOL    HW2  831   0.878   0.274   0.183
   51SOL     OW  832   1.707   0.575   1.830
   51SOL    HW1  833   1.670   0.649   1.781
   51SOL    HW2  834   1.731   0.511   1.763
   52SOL     OW  835   1.381   1.142   0.543
   52SOL    HW1  836   1.459   1.130   0.488
   52SOL    HW2  837   1.327   1.204   0.494
   53SOL     OW  838   0.563   0.196   0.881
   53SOL    HW1  839   0.567   0.220   0.973
   53SOL    HW2  840   0.549   0.279   0.835
   54SOL     OW  841   1.002   1.441   0.475
   54SOL    HW1  842   0.971   1.516   0.423
   54SOL    HW2  843   0.978   1.463   0.565
   55SOL     OW  844   0.364   1.822   0.874
   55SOL    HW1  845   0.427   1.750   0.884
   55SOL    HW2  846   0.417   1.901   0.889
   56SOL     OW  847   1.800   1.049   0.873
   56SOL    HW1  848   1.746   1.034   0.795
   56SOL    HW2  849   1.736   1.058   0.944
   57SOL     OW  850   1.227   1.540   1.513
   57SOL    HW1  851   1.215   1.467   1.575
   57SOL    HW2  852   1.161   1.525   1.445
   58SOL     OW  853   0.306   0.929   0.242
   58SOL    HW1  854   0.398   0.943   0.216
   58SOL    HW2  855   0.293   0.835   0.234
   59SOL     OW  856   1.479   0.750   0.730
   59SOL    HW1  857   1.475   0.708   0.816
   59SOL    HW2  858   1.557   0.805   0.733
   60SOL     OW  859   0.470   1.261   1.737
   60SOL    HW1  860   0.444   1.269   1.646
   60SOL    HW2  861   0.387   1.264   1.786
   61SOL     OW  862   1.120   1.779   0.228
   61SOL    HW1  863   1.056   1.733   0.282
   61SOL    HW2  864   1.149   1.713   0.164
   62SOL     OW  865   0.201   0.293   1.501
   62SOL    HW1  866   0.108   0.313   1.501
   62SOL    HW2  867   0.210   0.218   1.559
   63SOL     OW  868   1.633   1.376   0.092
   63SOL    HW1  869   1.601   1.456   0.051
   63SOL    HW2  870   1.565   1.310   0.073
   64SOL     OW  871   0.474   1.731   0.323
   64SOL    HW1  872   0.516   1.791   0.386
   64SOL    HW2  873   0.547   1.695   0.273
   65SOL     OW  874   1.443   0.139   0.395
   65SOL    HW1  875   1.395   0.057   0.404
   65SOL    HW2  876   1.525   0.125   0.442
   66SOL     OW  877   0.253   1.790   1.230
   66SOL    HW1  878   0.298   1.724   1.282
   66SOL    HW2  879   0.251   1.754   1.142
   67SOL     OW  880   0.938   1.699   0.897
   67SOL    HW1  881   1.017   1.650   0.919
   67SOL    HW2  882   0.897   1.648   0.827
   68SOL     OW  883   0.397   0.694   0.470
   68SOL    HW1  884   0.421   0.603   0.484
   68SOL    HW2  885   0.306   0.699   0.497
   69SOL     OW  886   1.528   0.228   1.727
   69SOL    HW1  887   1.523   0.252   1.819
   69SOL    HW2  888   1.514   0.133   1.726
   70SOL     OW  889   0.628   0.111   0.123
   70SOL    HW1  890   0.724   0.109   0.127
   70SOL    HW2  891   0.609   0.132   0.032
   71SOL     OW  892   0.775   0.285   1.769
   71SOL    HW1  893   0.852   0.228   1.770
   71SOL    HW2  894   0.720   0.252   1.841
   72SOL     OW  895   0.875   1.522   1.194
   72SOL    HW1  896   0.859   1.485   1.108
   72SOL    HW2  897   0.945   1.468   1.231
   73SOL     OW  898   1.339   0.587   1.431
   73SOL    HW1  899   1.370   0.558   1.517
   73SOL    HW2  900   1.374   0.676   1.421
   74SOL     OW  901   0.817   1.391   0.943
   74SOL    HW1  902   0.902   1.379   0.901
   74SOL    HW2  903   0.755   1.395   0.870
   75SOL     OW  904   0.930   0.512   0.899
   75SOL    HW1  905   0.905   0.504   0.807
   75SOL    HW2  906   0.955   0.424   0.925
   76SOL     OW  907   0.551   0.051   0.498
   76SOL    HW1  908   0.477   0.057   0.558
   76SOL    HW2  909   0.545   0.128   0.443
   77SOL     OW  910   1.430   1.207   0.044
   77SOL    HW1  911   1.449   1.127   0.092
   77SOL    HW2  912   1.339   1.227   0.064
   78SOL     OW  913   0.359   3.988   0.176
   78SOL    HW1  914   0.322   0.072   0.151
   78SOL    HW2  915   0.440   0.010   0.222
   79SOL     OW  916   0.944   0.250   0.466
   79SOL    HW1  917   0.912   0.288   0.385
   79SOL    HW2  918   1.040   0.251   0.457
   80SOL     OW  919   1.079   0.685   1.457
   80SOL    HW1  920   1.010   0.618   1.464
   80SOL    HW2  921   1.160   0.634   1.453
   81SOL     OW  922   1.220   1.572   0.795
   81SOL    HW1  923   1.235   1.638   0.728
   81SOL    HW2  924   1.290   1.586   0.859
   82SOL     OW  925   0.465   1.152   0.732
   82SOL    HW1  926   0.395   1.126   0.792
   82SOL    HW2  927   0.428   1.138   0.645
   83SOL     OW  928   1.261   1.794   0.609
   83SOL    HW1  929   1.309   1.858   0.556
   83SOL    HW2  930   1.195   1.845   0.655
   84SOL     OW  931   0.998   0.531   0.051
   84SOL    HW1  932   0.995   0.526  13.855
   84SOL    HW2  933   1.089   0.548   0.072
   85SOL     OW  934   0.081   0.574   1.393
   85SOL    HW1  935   0.170   0.556   1.363
   85SOL    HW2  936   0.091   0.646   1.456
   86SOL     OW  937   0.572   0.231   1.160
   86SOL    HW1  938   0.593   0.138   1.167
   86SOL    HW2  939   0.481   0.237   1.189
   87SOL     OW  940   0.871   0.463   0.638
   87SOL    HW1  941   0.824   0.516   0.573
   87SOL    HW2  942   0.891   0.381   0.592
   88SOL     OW  943   0.997   0.039   0.780
   88SOL    HW1  944   0.952   0.068   0.700
   88SOL    HW2  945   1.009   3.945   0.768
   89SOL     OW  946   1.438   1.161   0.856
   89SOL    HW1  947   1.368   1.096   0.857
   89SOL    HW2  948   1.461   1.170   0.764
   90SOL     OW  949   1.464   0.608   0.972
   90SOL    HW1  950   1.409   0.530   0.977
   90SOL    HW2  951   1.523   0.600   1.047
   91SOL     OW  952   1.843   0.817   0.386
   91SOL    HW1  953   1.898   0.763   0.442
   91SOL    HW2  954   1.812   0.758   0.318
   92SOL     OW  955   0.493   1.383   0.166
   92SOL    HW1  956   0.422   1.350   0.222
   92SOL    HW2  957   0.448   1.424   0.093
   93SOL     OW  958   1.674   1.265   0.641
   93SOL    HW1  959   1.768   1.262   0.659
   93SOL    HW2  960   1.648   1.354   0.665
   94SOL     OW  961   1.421   0.591   0.086
   94SOL    HW1  962   1.352   0.578   0.151
   94SOL    HW2  963   1.472   0.509   0.089
   95SOL     OW  964   0.529   0.259   0.328
   95SOL    HW1  965   0.567   0.211   0.255
   95SOL    HW2  966   0.504   0.344   0.291
   96SOL     OW  967   1.749   1.241   1.567
   96SOL    HW1  968   1.837   1.202   1.560
   96SOL    HW2  969   1.765   1.331   1.595
   97SOL     OW  970   1.055   1.353   1.332
   97SOL    HW1  971   0.980   1.322   1.383
   97SOL    HW2  972   1.131   1.312   1.374
   98SOL     OW  973   1.609   1.627   1.655
   98SOL    HW1  974   1.602   1.663   1.567
   98SOL    HW2  975   1.692   1.579   1.655
   99SOL     OW  976   1.133   1.208   1.103
   99SOL    HW1  977   1.073   1.245   1.167
   99SOL    HW2  978   1.103   1.242   1.019
  100SOL     OW  979   1.624   1.096   1.076
  100SOL    HW1  980   1.618   1.159   1.148
  100SOL    HW2  981   1.547   1.115   1.022
  101SOL     OW  982   0.912   0.117   1.401
  101SOL    HW1  983   0.932   0.089   1.312
  101SOL    HW2  984   0.993   0.158   1.431
  102SOL     OW  985   0.984   1.115   1.723
  102SOL    HW1  986   0.893   1.132   1.747
  102SOL    HW2  987   0.981   1.037   1.669
  103SOL     OW  988   0.716   1.061   0.377
  103SOL    HW1  989   0.701   1.042   0.470
  103SOL    HW2  990   0.790   1.005   0.353
  104SOL     OW  991   0.423   0.818   1.253
  104SOL    HW1  992   0.492   0.824   1.320
  104SOL    HW2  993   0.389   0.729   1.262
  105SOL     OW  994   1.265   0.375   1.277
  105SOL    HW1  995   1.299   0.453   1.321
  105SOL    HW2  996   1.178   0.400   1.248
  106SOL     OW  997   0.065   1.579   1.346
  106SOL    HW1  998   0.071   1.628   1.263
  106SOL    HW2  999   0.156   1.569   1.374
  107SOL     OW 1000   0.362   1.103   0.480
  107SOL    HW1 1001   0.351   1.179   0.424
  107SOL    HW2 1002   0.378   1.030   0.420
  108SOL     OW 1003   0.554   0.531   0.857
  108SOL    HW1 1004   0.567   0.590   0.783
  108SOL    HW2 1005   0.620   0.558   0.921
  109SOL     OW 1006   1.248   1.347   0.400
  109SOL    HW1 1007   1.303   1.420   0.427
  109SOL    HW2 1008   1.161   1.369   0.431
  110SOL     OW 1009   1.286   1.460   1.149
  110SOL    HW1 1010   1.343   1.465   1.226
  110SOL    HW2 1011   1.231   1.383   1.163
  111SOL     OW 1012   1.577   0.637   0.491
  111SOL    HW1 1013   1.533   0.692   0.556
  111SOL    HW2 1014   1.609   0.699   0.425
  112SOL     OW 1015   0.345   1.528   1.318
  112SOL    HW1 1016   0.336   1.477   1.237
  112SOL    HW2 1017   0.440   1.542   1.325
  113SOL     OW 1018   0.419   0.736   1.601
  113SOL    HW1 1019   0.482   0.781   1.545
  113SOL    HW2 1020   0.455   0.649   1.613
  114SOL     OW 1021   1.606   0.781   1.686
  114SOL    HW1 1022   1.520   0.823   1.679
  114SOL    HW2 1023   1.658   0.822   1.617
  115SOL     OW 1024   1.008   0.138   1.779
  115SOL    HW1 1025   1.065   0.207   1.746
  115SOL    HW2 1026   0.999   0.077   1.706
  116SOL     OW 1027   0.485   0.037   1.764
  116SOL    HW1 1028   0.490   0.049   1.669
  116SOL    HW2 1029   0.422   0.103   1.793
  117SOL     OW 1030   0.585   0.876   1.031
  117SOL    HW1 1031   0.618   0.965   1.035
  117SOL    HW2 1032   0.529   0.867   1.109
  118SOL     OW 1033   1.350   0.858   1.024
  118SOL    HW1 1034   1.265   0.844   0.983
  118SOL    HW2 1035   1.395   0.774   1.016
  119SOL     OW 1036   1.217   0.552   0.266
  119SOL    HW1 1037   1.224   0.472   0.318
  119SOL    HW2 1038   1.159   0.609   0.318
  120SOL     OW 1039   0.311   0.212   1.239
  120SOL    HW1 1040   0.267   0.248   1.317
  120SOL    HW2 1041   0.297   0.117   1.246
  121SOL     OW 1042   0.063   1.306   1.280
  121SOL    HW1 1043   0.092   1.263   1.361
  121SOL    HW2 1044   0.053   1.398   1.305
  122SOL     OW 1045   0.724   0.633   1.051
  122SOL    HW1 1046   0.799   0.619   0.993
  122SOL    HW2 1047   0.694   0.722   1.031
  123SOL     OW 1048   1.738   0.959   1.857
  123SOL    HW1 1049   1.693   0.894   1.803
  123SOL    HW2 1050   1.678   0.976   1.929
  124SOL     OW 1051   0.334   0.056   0.659
  124SOL    HW1 1052   0.309   0.148   0.666
  124SOL    HW2 1053   0.285   0.013   0.730
  125SOL     OW 1054   1.576   0.391   0.391
  125SOL    HW1 1055   1.545   0.331   0.459
  125SOL    HW2 1056   1.568   0.478   0.431
  126SOL     OW 1057   1.030   0.759   0.958
  126SOL    HW1 1058   1.022   0.776   1.052
  126SOL    HW2 1059   1.002   0.668   0.948
  127SOL     OW 1060   0.982   1.566   1.720
  127SOL    HW1 1061   0.966   1.610   1.636
  127SOL    HW2 1062   1.025   1.484   1.696
  128SOL     OW 1063   1.853   1.501   1.602
  128SOL    HW1 1064   1.870   1.532   1.513
  128SOL    HW2 1065   1.937   1.512   1.648
  129SOL     OW 1066   0.354   0.922   1.797
  129SOL    HW1 1067   0.432   0.942   1.850
  129SOL    HW2 1068   0.384   0.854   1.737
  130SOL     OW 1069   1.532   0.271   0.145
  130SOL    HW1 1070   1.467   0.201   0.146
  130SOL    HW2 1071   1.535   0.302   0.236
  131SOL     OW 1072   1.287   0.832   0.056
  131SOL    HW1 1073   1.335   0.749   0.061
  131SOL    HW2 1074   1.305   0.864  13.868
  132SOL     OW 1075   1.067   1.338   0.856
  132SOL    HW1 1076   1.072   1.266   0.793
  132SOL    HW2 1077   1.127   1.404   0.821
  133SOL     OW 1078   0.313   0.802   0.950
  133SOL    HW1 1079   0.408   0.818   0.945
  133SOL    HW2 1080   0.306   0.712   0.982
  134SOL     OW 1081   0.339   0.529   1.016
  134SOL    HW1 1082   0.297   0.445   0.998
  134SOL    HW2 1083   0.414   0.531   0.956
  135SOL     OW 1084   1.133   0.380   1.699
  135SOL    HW1 1085   1.085   0.434   1.760
  135SOL    HW2 1086   1.220   0.420   1.694
  136SOL     OW 1087   1.151   0.226   1.482
  136SOL    HW1 1088   1.142   0.280   1.560
  136SOL    HW2 1089   1.178   0.287   1.413
  137SOL     OW 1090   0.015   1.324   0.193
  137SOL    HW1 1091   3.921   1.337   0.184
  137SOL    HW2 1092   0.025   1.231   0.213
  138SOL     OW 1093   0.078   1.799   0.887
  138SOL    HW1 1094   0.086   1.704   0.889
  138SOL    HW2 1095   0.169   1.830   0.893
  139SOL     OW 1096   0.499   1.571   0.910
  139SOL    HW1 1097   0.568   1.632   0.936
  139SOL    HW2 1098   0.542   1.509   0.852
  140SOL     OW 1099   0.975   0.788   1.223
  140SOL    HW1 1100   1.033   0.769   1.298
  140SOL    HW2 1101   0.891   0.749   1.247
  141SOL     OW 1102   0.035   0.578   1.112
  141SOL    HW1 1103   0.091   0.520   1.061
  141SOL    HW2 1104   0.061   0.564   1.203
  142SOL     OW 1105   0.211   0.515   1.722
  142SOL    HW1 1106   0.256   0.474   1.648
  142SOL    HW2 1107   0.166   0.591   1.684
  143SOL     OW 1108   1.379   0.935   1.656
  143SOL    HW1 1109   1.401   1.028   1.653
  143SOL    HW2 1110   1.376   0.908   1.565
  144SOL     OW 1111   0.815   0.581   0.376
  144SOL    HW1 1112   0.826   0.503   0.322
  144SOL    HW2 1113   0.741   0.628   0.337
  145SOL     OW 1114   1.640   0.602   1.182
  145SOL    HW1 1115   1.630   0.542   1.255
  145SOL    HW2 1116   1.727   0.586   1.147
  146SOL     OW 1117   0.301   1.544   1.723
  146SOL    HW1 1118   0.254   1.613   1.769
  146SOL    HW2 1119   0.271   1.462   1.764
  147SOL     OW 1120   0.714   0.452   1.254
  147SOL    HW1 1121   0.662   0.375   1.230
  147SOL    HW2 1122   0.702   0.512   1.180
  148SOL     OW 1123   0.923   1.679   1.470
  148SOL    HW1 1124   0.899   1.641   1.386
  148SOL    HW2 1125   0.918   1.774   1.456
  149SOL     OW 1126   0.426   0.490   0.227
  149SOL    HW1 1127   0.501   0.549   0.237
  149SOL    HW2 1128   0.354   0.548   0.204
  150SOL     OW 1129   0.155   1.134   1.475
  150SOL    HW1 1130   0.156   1.084   1.557
  150SOL    HW2 1131   0.170   1.069   1.407
  151SOL     OW 1132   1.322   1.044   1.221
  151SOL    HW1 1133   1.344   0.981   1.152
  151SOL    HW2 1134   1.255   1.100   1.181
  152SOL     OW 1135   1.316   0.859   0.328
  152SOL    HW1 1136   1.243   0.824   0.379
  152SOL    HW2 1137   1.291   0.843   0.237
  153SOL     OW 1138   1.761   1.734   1.150
  153SOL    HW1 1139   1.831   1.761   1.091
  153SOL    HW2 1140   1.742   1.644   1.125
  154SOL     OW 1141   1.243   1.734   1.106
  154SOL    HW1 1142   1.326   1.757   1.064
  154SOL    HW2 1143   1.251   1.641   1.127
  155SOL     OW 1144   0.078   1.216   1.027
  155SOL    HW1 1145   0.085   1.242   1.119
  155SOL    HW2 1146   3.986   1.227   1.006
  156SOL     OW 1147   0.680   1.669   1.737
  156SOL    HW1 1148   0.620   1.743   1.727
  156SOL    HW2 1149   0.747   1.684   1.671
  157SOL     OW 1150   0.902   0.104   0.133
  157SOL    HW1 1151   0.941   0.091   0.047
  157SOL    HW2 1152   0.910   0.019   0.176
  158SOL     OW 1153   1.701   0.123   0.497
  158SOL    HW1 1154   1.781   0.133   0.446
  158SOL    HW2 1155   1.692   0.028   0.509
  159SOL     OW 1156   1.388   1.574   0.488
  159SOL    HW1 1157   1.442   1.614   0.421
  159SOL    HW2 1158   1.336   1.646   0.524
  160SOL     OW 1159   0.176   1.762   1.831
  160SOL    HW1 1160   0.120   1.710   1.888
  160SOL    HW2 1161   0.216   1.827   1.889
  161SOL     OW 1162   1.276   0.928   0.672
  161SOL    HW1 1163   1.350   0.869   0.684
  161SOL    HW2 1164   1.311   1.000   0.618
  162SOL     OW 1165   0.807   1.275   1.426
  162SOL    HW1 1166   0.779   1.316   1.508
  162SOL    HW2 1167   0.736   1.290   1.365
  163SOL     OW 1168   0.672   1.587   0.188
  163SOL    HW1 1169   0.665   1.619   0.098
  163SOL    HW2 1170   0.628   1.502   0.188
  164SOL     OW 1171   1.619   1.730   1.391
  164SOL    HW1 1172   1.670   1.733   1.310
  164SOL    HW2 1173   1.609   1.821   1.417
  165SOL     OW 1174   1.839   0.178   0.965
  165SOL    HW1 1175   1.873   0.114   0.902
  165SOL    HW2 1176   1.750   0.196   0.935
  166SOL     OW 1177   0.274   0.320   0.715
  166SOL    HW1 1178   0.189   0.355   0.689
  166SOL    HW2 1179   0.267   0.305   0.809
  167SOL     OW 1180   1.217   1.600   0.036
  167SOL    HW1 1181   1.207   1.508   0.061
  167SOL    HW2 1182   1.180   1.604  13.848
  168SOL     OW 1183   0.823   1.005   1.374
  168SOL    HW1 1184   0.867   0.999   1.289
  168SOL    HW2 1185   0.821   1.099   1.394
  169SOL     OW 1186   0.922   0.911   0.288
  169SOL    HW1 1187   0.992   0.952   0.237
  169SOL    HW2 1188   0.965   0.841   0.337
  170SOL     OW 1189   1.481   1.656   0.062
  170SOL    HW1 1190   1.389   1.632   0.058
  170SOL    HW2 1191   1.515   1.637  13.875
  171SOL     OW 1192   0.374   1.302   1.492
  171SOL    HW1 1193   0.359   1.383   1.442
  171SOL    HW2 1194   0.297   1.248   1.474
  172SOL     OW 1195   1.608   1.284   1.279
  172SOL    HW1 1196   1.669   1.270   1.351
  172SOL    HW2 1197   1.548   1.352   1.310
  173SOL     OW 1198   1.058   1.109   0.709
  173SOL    HW1 1199   0.986   1.058   0.747
  173SOL    HW2 1200   1.122   1.044   0.682
  174SOL     OW 1201   1.015   0.250   0.970
  174SOL    HW1 1202   1.005   0.199   0.889
  174SOL    HW2 1203   1.012   0.184   1.039
  175SOL     OW 1204   0.608   1.486   0.483
  175SOL    HW1 1205   0.653   1.437   0.414
  175SOL    HW2 1206   0.536   1.530   0.438
  176SOL     OW 1207   1.721   0.394   1.371
  176SOL    HW1 1208   1.794   0.456   1.376
  176SOL    HW2 1209   1.754   0.322   1.317
  177SOL     OW 1210   0.267   1.313   0.311
  177SOL    HW1 1211   0.188   1.339   0.264
  177SOL    HW2 1212   0.265   1.364   0.392
  178SOL     OW 1213   0.109   0.999   1.718
  178SOL    HW1 1214   0.049   0.992   1.793
  178SOL    HW2 1215   0.195   0.981   1.755
  179SOL     OW 1216   0.694   0.257   1.503
  179SOL    HW1 1217   0.762   0.203   1.461
  179SOL    HW2 1218   0.723   0.265   1.594
  180SOL     OW 1219   0.069   0.364   0.036
  180SOL    HW1 1220   3.979   0.374   0.069
  180SOL    HW2 1221   0.061   0.379  13.842
  181SOL     OW 1222   1.426   0.856   1.397
  181SOL    HW1 1223   1.377   0.918   1.343
  181SOL    HW2 1224   1.515   0.859   1.363
  182SOL     OW 1225   0.052   0.202   0.320
  182SOL    HW1 1226   0.081   0.275   0.266
  182SOL    HW2 1227   0.132   0.158   0.347
  183SOL     OW 1228   1.186   1.344   0.122
  183SOL    HW1 1229   1.092   1.335   0.111
  183SOL    HW2 1230   1.201   1.331   0.216
  184SOL     OW 1231   0.621   0.828   1.437
  184SOL    HW1 1232   0.678   0.904   1.421
  184SOL    HW2 1233   0.681   0.754   1.445
  185SOL     OW 1234   1.488   1.788   0.985
  185SOL    HW1 1235   1.510   1.855   0.919
  185SOL    HW2 1236   1.572   1.766   1.025
  186SOL     OW 1237   0.718   0.561   1.706
  186SOL    HW1 1238   0.763   0.622   1.764
  186SOL    HW2 1239   0.743   0.474   1.739
  187SOL     OW 1240   1.473   1.196   1.630
  187SOL    HW1 1241   1.461   1.210   1.723
  187SOL    HW2 1242   1.566   1.214   1.614
  188SOL     OW 1243   0.377   1.744   1.556
  188SOL    HW1 1244   0.290   1.782   1.544
  188SOL    HW2 1245   0.362   1.661   1.602
  189SOL     OW 1246   1.665   0.880   1.256
  189SOL    HW1 1247   1.661   0.795   1.213
  189SOL    HW2 1248   1.656   0.944   1.184
  190SOL     OW 1249   1.232   0.335   0.432
  190SOL    HW1 1250   1.294   0.262   0.429
  190SOL    HW2 1251   1.247   0.375   0.518
  191SOL     OW 1252   0.588   0.737   0.673
  191SOL    HW1 1253   0.626   0.823   0.657
  191SOL    HW2 1254   0.522   0.726   0.605
  192SOL     OW 1255   1.750   0.384   1.643
  192SOL    HW1 1256   1.732   0.390   1.549
  192SOL    HW2 1257   1.693   0.313   1.674
  193SOL     OW 1258   1.747   0.934   1.512
  193SOL    HW1 1259   1.738   1.028   1.524
  193SOL    HW2 1260   1.730   0.920   1.419
  194SOL     OW 1261   0.908   1.400   0.068
  194SOL    HW1 1262   0.844   1.378   0.136
  194SOL    HW2 1263   0.859   1.395  13.887
  195SOL     OW 1264   0.663   1.786   0.940
  195SOL    HW1 1265   0.644   1.878   0.920
  195SOL    HW2 1266   0.759   1.780   0.934
  196SOL     OW 1267   0.869   0.969   0.853
  196SOL    HW1 1268   0.919   0.897   0.891
  196SOL    HW2 1269   0.832   1.014   0.928
  197SOL     OW 1270   1.098   1.016   0.112
  197SOL    HW1 1271   1.087   1.060   0.028
  197SOL    HW2 1272   1.171   0.956   0.099
  198SOL     OW 1273   1.843   1.528   0.825
  198SOL    HW1 1274   1.757   1.534   0.783
  198SOL    HW2 1275   1.827   1.477   0.905
  199SOL     OW 1276   0.228   1.304   1.856
  199SOL    HW1 1277   0.154   1.249   1.829
  199SOL    HW2 1278   0.214   1.317   1.950
  200SOL     OW 1279   0.114   1.285   0.731
  200SOL    HW1 1280   0.131   1.236   0.812
  200SOL    HW2 1281   0.103   1.218   0.664
  201SOL     OW 1282   0.683   1.406   1.630
  201SOL    HW1 1283   0.603   1.363   1.661
  201SOL    HW2 1284   0.679   1.494   1.668
  202SOL     OW 1285   1.810   0.183   1.237
  202SOL    HW1 1286   1.813   0.089   1.253
  202SOL    HW2 1287   1.826   0.192   1.143
  203SOL     OW 1288   0.443   0.437   0.533
  203SOL    HW1 1289   0.472   0.363   0.480
  203SOL    HW2 1290   0.390   0.398   0.602
  204SOL     OW 1291   1.702   1.478   1.083
  204SOL    HW1 1292   1.618   1.461   1.040
  204SOL    HW2 1293   1.707   1.412   1.152
  205SOL     OW 1294   0.334   0.559   1.294
  205SOL    HW1 1295   0.390   0.502   1.347
  205SOL    HW2 1296   0.349   0.529   1.204
  206SOL     OW 1297   0.830   1.579   0.675
  206SOL    HW1 1298   0.813   1.643   0.607
  206SOL    HW2 1299   0.755   1.520   0.673
  207SOL     OW 1300   1.460   0.255   1.110
  207SOL    HW1 1301   1.478   0.168   1.146
  207SOL    HW2 1302   1.405   0.297   1.176
  208SOL     OW 1303   1.003   0.027   1.145
  208SOL    HW1 1304   0.920   3.996   1.107
  208SOL    HW2 1305   1.056   3.947   1.154
  209SOL     OW 1306   0.780   1.324   0.320
  209SOL    HW1 1307   0.749   1.235   0.336
  209SOL    HW2 1308   0.861   1.331   0.372
  210SOL     OW 1309   0.621   1.557   1.287
  210SOL    HW1 1310   0.622   1.639   1.336
  210SOL    HW2 1311   0.709   1.549   1.249
  211SOL     OW 1312   1.319   0.069   0.127
  211SOL    HW1 1313   1.335   3.980   0.096
  211SOL    HW2 1314   1.257   0.059   0.198
  212SOL     OW 1315   1.280   0.455   0.682
  212SOL    HW1 1316   1.233   0.538   0.676
  212SOL    HW2 1317   1.283   0.436   0.776
  213SOL     OW 1318   1.587   0.209   0.868
  213SOL    HW1 1319   1.538   0.234   0.946
  213SOL    HW2 1320   1.587   0.289   0.814
  214SOL     OW 1321   0.044   1.028   0.257
  214SOL    HW1 1322   0.138   1.008   0.252
  214SOL    HW2 1323   0.006   0.954   0.304
  215SOL     OW 1324   0.895   1.656   0.342
  215SOL    HW1 1325   0.818   1.628   0.292
  215SOL    HW2 1326   0.863   1.729   0.396
  216SOL     OW 1327   0.232   0.630   1.978
  216SOL    HW1 1328   0.139   0.633   1.999
  216SOL    HW2 1329   0.235   0.599   1.887
  217SOL     OW 1330   0.223   0.290   2.844
  217SOL    HW1 1331   0.246   0.250   2.928
  217SOL    HW2 1332   0.128   0.280   2.838
  218SOL     OW 1333   0.019   0.384   2.498
  218SOL    HW1 1334   3.928   0.399   2.523
  218SOL    HW2 1335   0.025   0.290   2.485
  219SOL     OW 1336   0.582   1.292   3.057
  219SOL    HW1 1337   0.496   1.293   3.015
  219SOL    HW2 1338   0.595   1.381   3.088
  220SOL     OW 1339   1.569   1.514   2.571
  220SOL    HW1 1340   1.526   1.493   2.654
  220SOL    HW2 1341   1.498   1.519   2.508
  221SOL     OW 1342   1.133   0.699   2.557
  221SOL    HW1 1343   1.180   0.781   2.546
  221SOL    HW2 1344   1.085   0.710   2.639
  222SOL     OW 1345   1.770   0.619   2.086
  222SOL    HW1 1346   1.747   0.612   1.993
  222SOL    HW2 1347   1.752   0.533   2.122
  223SOL     OW 1348   0.751   1.138   2.906
  223SOL    HW1 1349   0.689   1.175   2.969
  223SOL    HW2 1350   0.788   1.214   2.861
  224SOL     OW 1351   0.873   0.768   3.687
  224SOL    HW1 1352   0.862   0.839   3.749
  224SOL    HW2 1353   0.895   0.811   3.604
  225SOL     OW 1354   0.685   1.001   2.507
  225SOL    HW1 1355   0.751   0.990   2.575
  225SOL    HW2 1356   0.616   1.053   2.548
  226SOL     OW 1357   0.712   1.149   3.680
  226SOL    HW1 1358   0.760   1.226   3.709
  226SOL    HW2 1359   0.632   1.183   3.641
  227SOL     OW 1360   0.352   1.400   2.941
  227SOL    HW1 1361   0.271   1.378   2.895
  227SOL    HW2 1362   0.398   1.458   2.881
  228SOL     OW 1363   1.460   1.503   3.221
  228SOL    HW1 1364   1.514   1.581   3.229
  228SOL    HW2 1365   1.394   1.511   3.289
  229SOL     OW 1366   0.458   0.408   3.356
  229SOL    HW1 1367   0.541   0.360   3.356
  229SOL    HW2 1368   0.390   0.341   3.360
  230SOL     OW 1369   1.612   0.451   2.597
  230SOL    HW1 1370   1.543   0.482   2.538
  230SOL    HW2 1371   1.626   0.523   2.658
  231SOL     OW 1372   0.219   1.720   2.319
  231SOL    HW1 1373   0.240   1.793   2.376
  231SOL    HW2 1374   0.296   1.711   2.262
  232SOL     OW 1375   1.137   1.342   3.556
  232SOL    HW1 1376   1.179   1.336   3.642
  232SOL    HW2 1377   1.085   1.262   3.548
  233SOL     OW 1378   0.252   1.452   2.401
  233SOL    HW1 1379   0.216   1.539   2.387
  233SOL    HW2 1380   0.185   1.406   2.453
  234SOL     OW 1381   0.248   1.065   2.746
  234SOL    HW1 1382   0.268   0.980   2.784
  234SOL    HW2 1383   0.195   1.109   2.812
  235SOL     OW 1384   0.609   1.793   3.288
  235SOL    HW1 1385   0.527   1.775   3.333
  235SOL    HW2 1386   0.632   1.882   3.315
  236SOL     OW 1387   0.575   0.987   2.002
  236SOL    HW1 1388   0.624   1.030   1.932
  236SOL    HW2 1389   0.616   1.017   2.083
  237SOL     OW 1390   1.582   0.141   3.317
  237SOL    HW1 1391   1.613   0.214   3.263
  237SOL    HW2 1392   1.547   0.183   3.396
  238SOL     OW 1393   0.141   0.653   2.431
  238SOL    HW1 1394   0.099   0.567   2.436
  238SOL    HW2 1395   0.103   0.702   2.503
  239SOL     OW 1396   0.044   1.589   1.999
  239SOL    HW1 1397   0.038   1.497   2.026
  239SOL    HW2 1398   3.959   1.626   2.023
  240SOL     OW 1399   1.687   0.917   2.505
  240SOL    HW1 1400   1.771   0.876   2.485
  240SOL    HW2 1401   1.667   0.969   2.428
  241SOL     OW 1402   1.649   1.105   2.291
  241SOL    HW1 1403   1.736   1.107   2.251
  241SOL    HW2 1404   1.655   1.167   2.364
  242SOL     OW 1405   0.143   0.756   3.451
  242SOL    HW1 1406   0.239   0.752   3.444
  242SOL    HW2 1407   0.125   0.843   3.486
  243SOL     OW 1408   0.613   1.388   2.599
  243SOL    HW1 1409   0.567   1.304   2.607
  243SOL    HW2 1410   0.598   1.414   2.508
  244SOL     OW 1411   1.286   1.237   3.284
  244SOL    HW1 1412   1.317   1.169   3.224
  244SOL    HW2 1413   1.345   1.232   3.359
  245SOL     OW 1414   0.821   0.005   2.379
  245SOL    HW1 1415   0.866   0.085   2.354
  245SOL    HW2 1416   0.728   0.028   2.378
  246SOL     OW 1417   0.184   0.949   3.141
  246SOL    HW1 1418   0.272   0.914   3.130
  246SOL    HW2 1419   0.132   0.908   3.072
  247SOL     OW 1420   1.531   0.997   2.062
  247SOL    HW1 1421   1.462   0.940   2.096
  247SOL    HW2 1422   1.574   1.031   2.141
  248SOL     OW 1423   1.184   1.811   3.487
  248SOL    HW1 1424   1.192   1.871   3.413
  248SOL    HW2 1425   1.202   1.724   3.449
  249SOL     OW 1426   0.346   0.249   3.708
  249SOL    HW1 1427   0.389   0.332   3.688
  249SOL    HW2 1428   0.255   0.272   3.724
  250SOL     OW 1429   1.465   1.420   2.810
  250SOL    HW1 1430   1.399   1.435   2.877
  250SOL    HW2 1431   1.452   1.328   2.784
  251SOL     OW 1432   1.665   1.737   2.418
  251SOL    HW1 1433   1.631   1.700   2.336
  251SOL    HW2 1434   1.647   1.670   2.484
  252SOL     OW 1435   0.595   0.716   2.129
  252SOL    HW1 1436   0.600   0.801   2.085
  252SOL    HW2 1437   0.533   0.730   2.200
  253SOL     OW 1438   1.274   0.371   2.803
  253SOL    HW1 1439   1.187   0.332   2.811
  253SOL    HW2 1440   1.332   0.310   2.849
  254SOL     OW 1441   1.575   1.672   2.159
  254SOL    HW1 1442   1.663   1.701   2.135
  254SOL    HW2 1443   1.534   1.647   2.076
  255SOL     OW 1444   0.794   0.616   3.315
  255SOL    HW1 1445   0.765   0.589   3.402
  255SOL    HW2 1446   0.758   0.549   3.256
  256SOL     OW 1447   1.392   0.476   3.539
  256SOL    HW1 1448   1.399   0.521   3.623
  256SOL    HW2 1449   1.449   0.399   3.549
  257SOL     OW 1450   0.951   0.887   3.447
  257SOL    HW1 1451   1.006   0.818   3.410
  257SOL    HW2 1452   0.902   0.922   3.373
  258SOL     OW 1453   0.993   0.402   3.098
  258SOL    HW1 1454   0.907   0.422   3.135
  258SOL    HW2 1455   0.975   0.374   3.009
  259SOL     OW 1456   1.053   0.700   2.287
  259SOL    HW1 1457   1.070   0.693   2.381
  259SOL    HW2 1458   0.970   0.654   2.274
  260SOL     OW 1459   0.082   0.830   2.652
  260SOL    HW1 1460   0.152   0.795   2.706
  260SOL    HW2 1461   0.105   0.922   2.637
  261SOL     OW 1462   0.130   1.865   3.441
  261SOL    HW1 1463   0.138   1.830   3.529
  261SOL    HW2 1464   0.038   1.855   3.419
  262SOL     OW 1465   0.895   0.352   2.061
  262SOL    HW1 1466   0.937   0.412   1.999
  262SOL    HW2 1467   0.891   0.269   2.014
  263SOL     OW 1468   1.707   0.575   3.692
  263SOL    HW1 1469   1.670   0.649   3.643
  263SOL    HW2 1470   1.731   0.511   3.625
  264SOL     OW 1471   1.380   1.141   2.401
  264SOL    HW1 1472   1.460   1.131   2.349
  264SOL    HW2 1473   1.327   1.204   2.351
  265SOL     OW 1474   0.562   0.195   2.742
  265SOL    HW1 1475   0.567   0.220   2.834
  265SOL    HW2 1476   0.547   0.277   2.696
  266SOL     OW 1477   1.001   1.443   2.331
  266SOL    HW1 1478   0.969   1.518   2.281
  266SOL    HW2 1479   0.980   1.464   2.422
  267SOL     OW 1480   0.365   1.823   2.734
  267SOL    HW1 1481   0.427   1.751   2.744
  267SOL    HW2 1482   0.417   1.902   2.749
  268SOL     OW 1483   1.800   1.050   2.734
  268SOL    HW1 1484   1.747   1.035   2.656
  268SOL    HW2 1485   1.736   1.058   2.806
  269SOL     OW 1486   1.227   1.540   3.375
  269SOL    HW1 1487   1.215   1.467   3.437
  269SOL    HW2 1488   1.162   1.525   3.307
  270SOL     OW 1489   0.310   0.952   2.104
  270SOL    HW1 1490   0.394   0.974   2.062
  270SOL    HW2 1491   0.298   0.859   2.086
  271SOL     OW 1492   1.480   0.750   2.591
  271SOL    HW1 1493   1.476   0.708   2.677
  271SOL    HW2 1494   1.558   0.805   2.594
  272SOL     OW 1495   0.470   1.261   3.600
  272SOL    HW1 1496   0.444   1.269   3.508
  272SOL    HW2 1497   0.387   1.264   3.648
  273SOL     OW 1498   1.123   1.776   2.092
  273SOL    HW1 1499   1.047   1.737   2.136
  273SOL    HW2 1500   1.146   1.713   2.023
  274SOL     OW 1501   0.201   0.293   3.363
  274SOL    HW1 1502   0.108   0.313   3.363
  274SOL    HW2 1503   0.210   0.218   3.422
  275SOL     OW 1504   1.628   1.380   1.950
  275SOL    HW1 1505   1.586   1.465   1.934
  275SOL    HW2 1506   1.559   1.316   1.930
  276SOL     OW 1507   0.466   1.739   2.178
  276SOL    HW1 1508   0.510   1.795   2.242
  276SOL    HW2 1509   0.537   1.702   2.125
  277SOL     OW 1510   1.443   0.169   2.268
  277SOL    HW1 1511   1.393   0.101   2.223
  277SOL    HW2 1512   1.511   0.121   2.315
  278SOL     OW 1513   0.253   1.790   3.093
  278SOL    HW1 1514   0.298   1.724   3.145
  278SOL    HW2 1515   0.251   1.754   3.004
  279SOL     OW 1516   0.938   1.699   2.759
  279SOL    HW1 1517   1.018   1.650   2.780
  279SOL    HW2 1518   0.897   1.649   2.689
  280SOL     OW 1519   0.398   0.695   2.332
  280SOL    HW1 1520   0.423   0.603   2.348
  280SOL    HW2 1521   0.306   0.699   2.358
  281SOL     OW 1522   1.529   0.228   3.589
  281SOL    HW1 1523   1.523   0.252   3.681
  281SOL    HW2 1524   1.514   0.133   3.588
  282SOL     OW 1525   0.646   0.128   1.965
  282SOL    HW1 1526   0.667   0.043   2.004
  282SOL    HW2 1527   0.585   0.107   1.894
  283SOL     OW 1528   0.775   0.285   3.631
  283SOL    HW1 1529   0.852   0.228   3.632
  283SOL    HW2 1530   0.721   0.252   3.703
  284SOL     OW 1531   0.875   1.522   3.056
  284SOL    HW1 1532   0.859   1.485   2.970
  284SOL    HW2 1533   0.945   1.468   3.093
  285SOL     OW 1534   1.339   0.587   3.293
  285SOL    HW1 1535   1.370   0.558   3.379
  285SOL    HW2 1536   1.374   0.676   3.283
  286SOL     OW 1537   0.817   1.391   2.805
  286SOL    HW1 1538   0.902   1.380   2.763
  286SOL    HW2 1539   0.755   1.395   2.732
  287SOL     OW 1540   0.930   0.512   2.761
  287SOL    HW1 1541   0.906   0.504   2.669
  287SOL    HW2 1542   0.955   0.424   2.788
  288SOL     OW 1543   0.547   0.056   2.349
  288SOL    HW1 1544   0.473   0.063   2.410
  288SOL    HW2 1545   0.548   0.139   2.303
  289SOL     OW 1546   1.427   1.199   1.902
  289SOL    HW1 1547   1.457   1.124   1.953
  289SOL    HW2 1548   1.342   1.221   1.939
  290SOL     OW 1549   0.350   0.034   2.061
  290SOL    HW1 1550   0.358   0.087   1.982
  290SOL    HW2 1551   0.437   0.039   2.102
  291SOL     OW 1552   0.944   0.250   2.321
  291SOL    HW1 1553   0.918   0.290   2.238
  291SOL    HW2 1554   1.039   0.255   2.321
  292SOL     OW 1555   1.079   0.685   3.319
  292SOL    HW1 1556   1.010   0.618   3.326
  292SOL    HW2 1557   1.160   0.634   3.315
  293SOL     OW 1558   1.220   1.572   2.657
  293SOL    HW1 1559   1.235   1.638   2.589
  293SOL    HW2 1560   1.290   1.586   2.721
  294SOL     OW 1561   0.466   1.151   2.596
  294SOL    HW1 1562   0.396   1.126   2.655
  294SOL    HW2 1563   0.431   1.136   2.508
  295SOL     OW 1564   1.263   1.792   2.473
  295SOL    HW1 1565   1.308   1.854   2.417
  295SOL    HW2 1566   1.196   1.844   2.517
  296SOL     OW 1567   1.021   0.541   1.892
  296SOL    HW1 1568   0.978   0.624   1.873
  296SOL    HW2 1569   1.085   0.562   1.960
  297SOL     OW 1570   0.081   0.574   3.255
  297SOL    HW1 1571   0.170   0.556   3.225
  297SOL    HW2 1572   0.091   0.646   3.318
  298SOL     OW 1573   0.572   0.231   3.021
  298SOL    HW1 1574   0.593   0.138   3.029
  298SOL    HW2 1575   0.481   0.237   3.051
  299SOL     OW 1576   0.871   0.461   2.500
  299SOL    HW1 1577   0.820   0.514   2.438
  299SOL    HW2 1578   0.891   0.381   2.452
  300SOL     OW 1579   0.997   0.039   2.643
  300SOL    HW1 1580   0.958   0.069   2.561
  300SOL    HW2 1581   1.008   3.944   2.631
  301SOL     OW 1582   1.439   1.161   2.719
  301SOL    HW1 1583   1.368   1.097   2.718
  301SOL    HW2 1584   1.465   1.170   2.627
  302SOL     OW 1585   1.464   0.608   2.834
  302SOL    HW1 1586   1.409   0.530   2.839
  302SOL    HW2 1587   1.523   0.600   2.909
  303SOL     OW 1588   1.843   0.818   2.251
  303SOL    HW1 1589   1.900   0.766   2.307
  303SOL    HW2 1590   1.815   0.758   2.182
  304SOL     OW 1591   0.487   1.422   2.021
  304SOL    HW1 1592   0.411   1.391   2.070
  304SOL    HW2 1593   0.474   1.386   1.933
  305SOL     OW 1594   1.673   1.264   2.506
  305SOL    HW1 1595   1.767   1.262   2.520
  305SOL    HW2 1596   1.647   1.353   2.528
  306SOL     OW 1597   1.395   0.577   1.931
  306SOL    HW1 1598   1.332   0.557   2.000
  306SOL    HW2 1599   1.480   0.557   1.970
  307SOL     OW 1600   0.557   0.271   2.179
  307SOL    HW1 1601   0.606   0.231   2.107
  307SOL    HW2 1602   0.528   0.355   2.145
  308SOL     OW 1603   1.749   1.241   3.429
  308SOL    HW1 1604   1.837   1.202   3.422
  308SOL    HW2 1605   1.765   1.331   3.457
  309SOL     OW 1606   1.055   1.353   3.195
  309SOL    HW1 1607   0.980   1.322   3.245
  309SOL    HW2 1608   1.131   1.312   3.236
  310SOL     OW 1609   1.609   1.627   3.517
  310SOL    HW1 1610   1.602   1.663   3.429
  310SOL    HW2 1611   1.692   1.579   3.517
  311SOL     OW 1612   1.133   1.208   2.965
  311SOL    HW1 1613   1.073   1.245   3.030
  311SOL    HW2 1614   1.103   1.242   2.881
  312SOL     OW 1615   1.624   1.096   2.938
  312SOL    HW1 1616   1.618   1.159   3.010
  312SOL    HW2 1617   1.547   1.115   2.884
  313SOL     OW 1618   0.912   0.117   3.263
  313SOL    HW1 1619   0.932   0.089   3.174
  313SOL    HW2 1620   0.993   0.158   3.294
  314SOL     OW 1621   0.984   1.115   3.585
  314SOL    HW1 1622   0.893   1.132   3.609
  314SOL    HW2 1623   0.981   1.037   3.531
  315SOL     OW 1624   0.708   1.062   2.232
  315SOL    HW1 1625   0.694   1.044   2.325
  315SOL    HW2 1626   0.784   1.009   2.209
  316SOL     OW 1627   0.423   0.818   3.115
  316SOL    HW1 1628   0.492   0.824   3.182
  316SOL    HW2 1629   0.389   0.729   3.124
  317SOL     OW 1630   1.265   0.375   3.139
  317SOL    HW1 1631   1.299   0.453   3.183
  317SOL    HW2 1632   1.178   0.399   3.110
  318SOL     OW 1633   0.065   1.579   3.208
  318SOL    HW1 1634   0.071   1.629   3.126
  318SOL    HW2 1635   0.156   1.569   3.236
  319SOL     OW 1636   0.369   1.103   2.343
  319SOL    HW1 1637   0.363   1.183   2.290
  319SOL    HW2 1638   0.368   1.032   2.280
  320SOL     OW 1639   0.554   0.532   2.719
  320SOL    HW1 1640   0.567   0.592   2.645
  320SOL    HW2 1641   0.620   0.559   2.783
  321SOL     OW 1642   1.247   1.349   2.252
  321SOL    HW1 1643   1.303   1.420   2.285
  321SOL    HW2 1644   1.160   1.370   2.285
  322SOL     OW 1645   1.287   1.460   3.010
  322SOL    HW1 1646   1.343   1.465   3.088
  322SOL    HW2 1647   1.232   1.383   3.025
  323SOL     OW 1648   1.573   0.635   2.350
  323SOL    HW1 1649   1.530   0.688   2.416
  323SOL    HW2 1650   1.620   0.697   2.295
  324SOL     OW 1651   0.345   1.527   3.180
  324SOL    HW1 1652   0.336   1.477   3.099
  324SOL    HW2 1653   0.440   1.542   3.188
  325SOL     OW 1654   0.419   0.737   3.463
  325SOL    HW1 1655   0.482   0.781   3.407
  325SOL    HW2 1656   0.455   0.649   3.475
  326SOL     OW 1657   1.606   0.781   3.548
  326SOL    HW1 1658   1.520   0.823   3.541
  326SOL    HW2 1659   1.658   0.822   3.479
  327SOL     OW 1660   1.008   0.138   3.641
  327SOL    HW1 1661   1.065   0.207   3.608
  327SOL    HW2 1662   0.999   0.077   3.568
  328SOL     OW 1663   0.485   0.037   3.626
  328SOL    HW1 1664   0.490   0.049   3.531
  328SOL    HW2 1665   0.422   0.103   3.655
  329SOL     OW 1666   0.585   0.875   2.894
  329SOL    HW1 1667   0.618   0.965   2.897
  329SOL    HW2 1668   0.529   0.868   2.971
  330SOL     OW 1669   1.351   0.858   2.886
  330SOL    HW1 1670   1.265   0.844   2.845
  330SOL    HW2 1671   1.395   0.774   2.878
  331SOL     OW 1672   1.199   0.538   2.118
  331SOL    HW1 1673   1.208   0.459   2.171
  331SOL    HW2 1674   1.156   0.601   2.176
  332SOL     OW 1675   0.311   0.212   3.101
  332SOL    HW1 1676   0.267   0.248   3.178
  332SOL    HW2 1677   0.296   0.117   3.108
  333SOL     OW 1678   0.063   1.306   3.142
  333SOL    HW1 1679   0.092   1.263   3.222
  333SOL    HW2 1680   0.053   1.398   3.167
  334SOL     OW 1681   0.724   0.633   2.913
  334SOL    HW1 1682   0.799   0.620   2.856
  334SOL    HW2 1683   0.694   0.722   2.893
  335SOL     OW 1684   1.738   0.959   3.719
  335SOL    HW1 1685   1.693   0.894   3.665
  335SOL    HW2 1686   1.678   0.976   3.791
  336SOL     OW 1687   0.332   0.054   2.519
  336SOL    HW1 1688   0.303   0.145   2.520
  336SOL    HW2 1689   0.297   0.017   2.600
  337SOL     OW 1690   1.609   0.394   2.241
  337SOL    HW1 1691   1.565   0.325   2.292
  337SOL    HW2 1692   1.589   0.475   2.287
  338SOL     OW 1693   1.030   0.759   2.820
  338SOL    HW1 1694   1.022   0.776   2.914
  338SOL    HW2 1695   1.003   0.668   2.810
  339SOL     OW 1696   0.981   1.566   3.582
  339SOL    HW1 1697   0.966   1.610   3.498
  339SOL    HW2 1698   1.025   1.484   3.558
  340SOL     OW 1699   1.853   1.501   3.465
  340SOL    HW1 1700   1.870   1.532   3.376
  340SOL    HW2 1701   1.937   1.512   3.510
  341SOL     OW 1702   0.354   0.922   3.660
  341SOL    HW1 1703   0.432   0.942   3.712
  341SOL    HW2 1704   0.384   0.854   3.599
  342SOL     OW 1705   1.502   0.274   1.996
  342SOL    HW1 1706   1.430   0.213   2.008
  342SOL    HW2 1707   1.516   0.313   2.082
  343SOL     OW 1708   1.287   0.827   1.890
  343SOL    HW1 1709   1.330   0.741   1.894
  343SOL    HW2 1710   1.319   0.866   1.809
  344SOL     OW 1711   1.067   1.338   2.718
  344SOL    HW1 1712   1.072   1.266   2.655
  344SOL    HW2 1713   1.127   1.404   2.683
  345SOL     OW 1714   0.313   0.802   2.812
  345SOL    HW1 1715   0.407   0.818   2.806
  345SOL    HW2 1716   0.306   0.712   2.844
  346SOL     OW 1717   0.339   0.529   2.878
  346SOL    HW1 1718   0.297   0.444   2.860
  346SOL    HW2 1719   0.414   0.531   2.818
  347SOL     OW 1720   1.133   0.380   3.561
  347SOL    HW1 1721   1.085   0.434   3.622
  347SOL    HW2 1722   1.220   0.420   3.556
  348SOL     OW 1723   1.151   0.225   3.344
  348SOL    HW1 1724   1.142   0.280   3.422
  348SOL    HW2 1725   1.178   0.287   3.275
  349SOL     OW 1726   0.001   1.316   2.044
  349SOL    HW1 1727   3.907   1.332   2.048
  349SOL    HW2 1728   0.010   1.222   2.063
  350SOL     OW 1729   0.079   1.800   2.750
  350SOL    HW1 1730   0.086   1.704   2.751
  350SOL    HW2 1731   0.169   1.831   2.754
  351SOL     OW 1732   0.498   1.571   2.772
  351SOL    HW1 1733   0.567   1.632   2.798
  351SOL    HW2 1734   0.542   1.509   2.714
  352SOL     OW 1735   0.976   0.788   3.085
  352SOL    HW1 1736   1.033   0.769   3.160
  352SOL    HW2 1737   0.891   0.749   3.109
  353SOL     OW 1738   0.034   0.577   2.974
  353SOL    HW1 1739   0.094   0.522   2.923
  353SOL    HW2 1740   0.061   0.564   3.065
  354SOL     OW 1741   0.211   0.516   3.584
  354SOL    HW1 1742   0.256   0.475   3.510
  354SOL    HW2 1743   0.166   0.591   3.546
  355SOL     OW 1744   1.379   0.935   3.518
  355SOL    HW1 1745   1.401   1.028   3.515
  355SOL    HW2 1746   1.376   0.908   3.427
  356SOL     OW 1747   0.819   0.572   2.226
  356SOL    HW1 1748   0.825   0.496   2.168
  356SOL    HW2 1749   0.744   0.621   2.192
  357SOL     OW 1750   1.639   0.602   3.044
  357SOL    HW1 1751   1.630   0.542   3.117
  357SOL    HW2 1752   1.727   0.585   3.009
  358SOL     OW 1753   0.301   1.544   3.585
  358SOL    HW1 1754   0.254   1.613   3.631
  358SOL    HW2 1755   0.271   1.462   3.626
  359SOL     OW 1756   0.714   0.452   3.116
  359SOL    HW1 1757   0.662   0.375   3.092
  359SOL    HW2 1758   0.702   0.512   3.042
  360SOL     OW 1759   0.923   1.679   3.332
  360SOL    HW1 1760   0.899   1.641   3.248
  360SOL    HW2 1761   0.918   1.774   3.318
  361SOL     OW 1762   0.452   0.492   2.061
  361SOL    HW1 1763   0.516   0.561   2.078
  361SOL    HW2 1764   0.372   0.539   2.036
  362SOL     OW 1765   0.155   1.134   3.337
  362SOL    HW1 1766   0.156   1.084   3.419
  362SOL    HW2 1767   0.170   1.069   3.269
  363SOL     OW 1768   1.322   1.044   3.083
  363SOL    HW1 1769   1.344   0.981   3.014
  363SOL    HW2 1770   1.255   1.100   3.043
  364SOL     OW 1771   1.315   0.856   2.166
  364SOL    HW1 1772   1.241   0.827   2.218
  364SOL    HW2 1773   1.288   0.844   2.075
  365SOL     OW 1774   1.757   1.734   3.010
  365SOL    HW1 1775   1.829   1.760   2.952
  365SOL    HW2 1776   1.739   1.644   2.986
  366SOL     OW 1777   1.243   1.734   2.968
  366SOL    HW1 1778   1.326   1.757   2.927
  366SOL    HW2 1779   1.251   1.641   2.989
  367SOL     OW 1780   0.078   1.217   2.889
  367SOL    HW1 1781   0.084   1.243   2.981
  367SOL    HW2 1782   3.986   1.227   2.868
  368SOL     OW 1783   0.680   1.669   3.599
  368SOL    HW1 1784   0.620   1.743   3.589
  368SOL    HW2 1785   0.747   1.684   3.533
  369SOL     OW 1786   1.715   0.123   2.352
  369SOL    HW1 1787   1.793   0.134   2.297
  369SOL    HW2 1788   1.706   0.028   2.361
  370SOL     OW 1789   1.392   1.568   2.351
  370SOL    HW1 1790   1.446   1.602   2.280
  370SOL    HW2 1791   1.341   1.644   2.380
  371SOL     OW 1792   0.176   1.762   3.693
  371SOL    HW1 1793   0.120   1.710   3.750
  371SOL    HW2 1794   0.216   1.827   3.751
  372SOL     OW 1795   1.277   0.929   2.533
  372SOL    HW1 1796   1.351   0.869   2.545
  372SOL    HW2 1797   1.312   1.000   2.480
  373SOL     OW 1798   0.808   1.275   3.288
  373SOL    HW1 1799   0.779   1.316   3.370
  373SOL    HW2 1800   0.736   1.291   3.227
  374SOL     OW 1801   0.670   1.624   2.017
  374SOL    HW1 1802   0.682   1.636   1.923
  374SOL    HW2 1803   0.614   1.546   2.024
  375SOL     OW 1804   1.619   1.730   3.253
  375SOL    HW1 1805   1.669   1.734   3.171
  375SOL    HW2 1806   1.609   1.821   3.279
  376SOL     OW 1807   1.839   0.178   2.827
  376SOL    HW1 1808   1.872   0.114   2.765
  376SOL    HW2 1809   1.750   0.197   2.798
  377SOL     OW 1810   0.275   0.322   2.576
  377SOL    HW1 1811   0.190   0.356   2.549
  377SOL    HW2 1812   0.267   0.307   2.670
  378SOL     OW 1813   1.206   1.603   1.894
  378SOL    HW1 1814   1.196   1.511   1.920
  378SOL    HW2 1815   1.140   1.615   1.826
  379SOL     OW 1816   0.823   1.005   3.236
  379SOL    HW1 1817   0.867   1.000   3.151
  379SOL    HW2 1818   0.821   1.099   3.256
  380SOL     OW 1819   0.915   0.911   2.152
  380SOL    HW1 1820   0.976   0.943   2.086
  380SOL    HW2 1821   0.964   0.843   2.199
  381SOL     OW 1822   1.485   1.622   1.902
  381SOL    HW1 1823   1.391   1.616   1.885
  381SOL    HW2 1824   1.524   1.630   1.815
  382SOL     OW 1825   0.374   1.302   3.354
  382SOL    HW1 1826   0.359   1.383   3.304
  382SOL    HW2 1827   0.297   1.248   3.336
  383SOL     OW 1828   1.608   1.284   3.141
  383SOL    HW1 1829   1.669   1.270   3.213
  383SOL    HW2 1830   1.548   1.352   3.173
  384SOL     OW 1831   1.058   1.110   2.571
  384SOL    HW1 1832   0.986   1.059   2.609
  384SOL    HW2 1833   1.122   1.044   2.544
  385SOL     OW 1834   1.015   0.250   2.833
  385SOL    HW1 1835   1.005   0.199   2.752
  385SOL    HW2 1836   1.012   0.184   2.902
  386SOL     OW 1837   0.607   1.488   2.344
  386SOL    HW1 1838   0.654   1.439   2.277
  386SOL    HW2 1839   0.531   1.524   2.298
  387SOL     OW 1840   1.721   0.394   3.233
  387SOL    HW1 1841   1.794   0.456   3.238
  387SOL    HW2 1842   1.754   0.323   3.179
  388SOL     OW 1843   0.254   1.341   2.156
  388SOL    HW1 1844   0.161   1.346   2.137
  388SOL    HW2 1845   0.264   1.381   2.242
  389SOL     OW 1846   0.109   0.999   3.580
  389SOL    HW1 1847   0.049   0.992   3.655
  389SOL    HW2 1848   0.195   0.981   3.617
  390SOL     OW 1849   0.694   0.257   3.365
  390SOL    HW1 1850   0.762   0.203   3.323
  390SOL    HW2 1851   0.723   0.265   3.456
  391SOL     OW 1852   0.088   0.319   1.887
  391SOL    HW1 1853   3.993   0.318   1.880
  391SOL    HW2 1854   0.115   0.402   1.847
  392SOL     OW 1855   1.426   0.856   3.259
  392SOL    HW1 1856   1.377   0.918   3.205
  392SOL    HW2 1857   1.515   0.859   3.224
  393SOL     OW 1858   0.036   0.171   2.146
  393SOL    HW1 1859   0.037   0.228   2.069
  393SOL    HW2 1860   0.111   0.201   2.198
  394SOL     OW 1861   1.178   1.336   1.979
  394SOL    HW1 1862   1.087   1.305   1.981
  394SOL    HW2 1863   1.205   1.337   2.071
  395SOL     OW 1864   0.621   0.828   3.299
  395SOL    HW1 1865   0.678   0.904   3.283
  395SOL    HW2 1866   0.682   0.754   3.307
  396SOL     OW 1867   1.489   1.789   2.847
  396SOL    HW1 1868   1.510   1.855   2.782
  396SOL    HW2 1869   1.573   1.767   2.888
  397SOL     OW 1870   0.718   0.561   3.568
  397SOL    HW1 1871   0.763   0.622   3.626
  397SOL    HW2 1872   0.742   0.474   3.601
  398SOL     OW 1873   1.473   1.196   3.492
  398SOL    HW1 1874   1.461   1.210   3.585
  398SOL    HW2 1875   1.566   1.214   3.476
  399SOL     OW 1876   0.377   1.744   3.418
  399SOL    HW1 1877   0.290   1.782   3.406
  399SOL    HW2 1878   0.362   1.661   3.464
  400SOL     OW 1879   1.665   0.880   3.118
  400SOL    HW1 1880   1.661   0.795   3.074
  400SOL    HW2 1881   1.656   0.944   3.046
  401SOL     OW 1882   1.223   0.338   2.303
  401SOL    HW1 1883   1.291   0.271   2.296
  401SOL    HW2 1884   1.241   0.382   2.386
  402SOL     OW 1885   0.590   0.737   2.534
  402SOL    HW1 1886   0.627   0.824   2.518
  402SOL    HW2 1887   0.523   0.727   2.466
  403SOL     OW 1888   1.749   0.384   3.505
  403SOL    HW1 1889   1.732   0.390   3.411
  403SOL    HW2 1890   1.693   0.313   3.536
  404SOL     OW 1891   1.747   0.934   3.374
  404SOL    HW1 1892   1.738   1.028   3.386
  404SOL    HW2 1893   1.730   0.920   3.280
  405SOL     OW 1894   0.863   1.365   1.902
  405SOL    HW1 1895   0.825   1.394   1.985
  405SOL    HW2 1896   0.879   1.447   1.854
  406SOL     OW 1897   0.663   1.786   2.802
  406SOL    HW1 1898   0.644   1.877   2.782
  406SOL    HW2 1899   0.759   1.780   2.796
  407SOL     OW 1900   0.869   0.969   2.715
  407SOL    HW1 1901   0.919   0.897   2.753
  407SOL    HW2 1902   0.832   1.014   2.790
  408SOL     OW 1903   1.077   0.989   1.951
  408SOL    HW1 1904   1.056   1.040   1.873
  408SOL    HW2 1905   1.151   0.935   1.924
  409SOL     OW 1906   1.842   1.536   2.691
  409SOL    HW1 1907   1.757   1.536   2.646
  409SOL    HW2 1908   1.830   1.479   2.767
  410SOL     OW 1909   0.228   1.304   3.719
  410SOL    HW1 1910   0.154   1.249   3.691
  410SOL    HW2 1911   0.214   1.317   3.812
  411SOL     OW 1912   0.125   1.283   2.585
  411SOL    HW1 1913   0.139   1.231   2.664
  411SOL    HW2 1914   0.106   1.218   2.517
  412SOL     OW 1915   0.683   1.406   3.492
  412SOL    HW1 1916   0.603   1.364   3.523
  412SOL    HW2 1917   0.679   1.494   3.530
  413SOL     OW 1918   1.810   0.183   3.099
  413SOL    HW1 1919   1.813   0.089   3.116
  413SOL    HW2 1920   1.826   0.192   3.005
  414SOL     OW 1921   0.445   0.438   2.393
  414SOL    HW1 1922   0.465   0.362   2.339
  414SOL    HW2 1923   0.390   0.404   2.463
  415SOL     OW 1924   1.701   1.477   2.947
  415SOL    HW1 1925   1.618   1.460   2.902
  415SOL    HW2 1926   1.706   1.411   3.015
  416SOL     OW 1927   0.334   0.559   3.155
  416SOL    HW1 1928   0.390   0.502   3.209
  416SOL    HW2 1929   0.349   0.529   3.066
  417SOL     OW 1930   0.830   1.579   2.537
  417SOL    HW1 1931   0.813   1.643   2.468
  417SOL    HW2 1932   0.755   1.520   2.535
  418SOL     OW 1933   1.460   0.255   2.972
  418SOL    HW1 1934   1.478   0.168   3.008
  418SOL    HW2 1935   1.405   0.297   3.038
  419SOL     OW 1936   1.002   0.027   3.008
  419SOL    HW1 1937   0.921   3.996   2.969
  419SOL    HW2 1938   1.056   3.948   3.017
  420SOL     OW 1939   0.773   1.333   2.181
  420SOL    HW1 1940   0.745   1.242   2.188
  420SOL    HW2 1941   0.855   1.337   2.231
  421SOL     OW 1942   0.621   1.557   3.149
  421SOL    HW1 1943   0.622   1.639   3.198
  421SOL    HW2 1944   0.708   1.549   3.112
  422SOL     OW 1945   1.309   0.074   2.027
  422SOL    HW1 1946   1.320   3.991   1.981
  422SOL    HW2 1947   1.224   0.065   2.071
  423SOL     OW 1948   1.280   0.457   2.546
  423SOL    HW1 1949   1.234   0.540   2.541
  423SOL    HW2 1950   1.283   0.437   2.640
  424SOL     OW 1951   1.587   0.210   2.730
  424SOL    HW1 1952   1.538   0.235   2.808
  424SOL    HW2 1953   1.588   0.288   2.676
  425SOL     OW 1954   0.047   1.047   2.104
  425SOL    HW1 1955   0.141   1.032   2.096
  425SOL    HW2 1956   0.011   0.962   2.129
  426SOL     OW 1957   0.888   1.658   2.200
  426SOL    HW1 1958   0.813   1.642   2.143
  426SOL    HW2 1959   0.860   1.731   2.256
  427SOL     OW 1960   0.232   0.629   3.840
  427SOL    HW1 1961   0.139   0.633   3.861
  427SOL    HW2 1962   0.235   0.599   3.749
  428SOL     OW 1963   0.223   0.290   4.706
  428SOL    HW1 1964   0.246   0.250   4.790
  428SOL    HW2 1965   0.128   0.281   4.700
  429SOL     OW 1966   0.019   0.384   4.360
  429SOL    HW1 1967   3.928   0.399   4.385
  429SOL    HW2 1968   0.025   0.290   4.347
  430SOL     OW 1969   0.582   1.291   4.919
  430SOL    HW1 1970   0.496   1.293   4.877
  430SOL    HW2 1971   0.595   1.381   4.950
  431SOL     OW 1972   1.569   1.514   4.433
  431SOL    HW1 1973   1.527   1.493   4.516
  431SOL    HW2 1974   1.498   1.519   4.370
  432SOL     OW 1975   1.133   0.699   4.419
  432SOL    HW1 1976   1.181   0.781   4.408
  432SOL    HW2 1977   1.085   0.710   4.501
  433SOL     OW 1978   1.770   0.619   3.948
  433SOL    HW1 1979   1.747   0.612   3.855
  433SOL    HW2 1980   1.752   0.533   3.984
  434SOL     OW 1981   0.751   1.138   4.768
  434SOL    HW1 1982   0.689   1.175   4.831
  434SOL    HW2 1983   0.788   1.214   4.723
  435SOL     OW 1984   0.874   0.768   5.549
  435SOL    HW1 1985   0.859   0.839   5.610
  435SOL    HW2 1986   0.895   0.811   5.466
  436SOL     OW 1987   0.685   1.001   4.369
  436SOL    HW1 1988   0.751   0.990   4.437
  436SOL    HW2 1989   0.616   1.053   4.410
  437SOL     OW 1990   0.713   1.149   5.543
  437SOL    HW1 1991   0.761   1.227   5.572
  437SOL    HW2 1992   0.633   1.184   5.504
  438SOL     OW 1993   0.352   1.400   4.803
  438SOL    HW1 1994   0.271   1.378   4.757
  438SOL    HW2 1995   0.398   1.458   4.743
  439SOL     OW 1996   1.460   1.503   5.082
  439SOL    HW1 1997   1.515   1.581   5.091
  439SOL    HW2 1998   1.395   1.512   5.152
  440SOL     OW 1999   0.458   0.409   5.218
  440SOL    HW1 2000   0.540   0.360   5.218
  440SOL    HW2 2001   0.390   0.341   5.222
  441SOL     OW 2002   1.612   0.451   4.459
  441SOL    HW1 2003   1.544   0.482   4.400
  441SOL    HW2 2004   1.627   0.524   4.519
  442SOL     OW 2005   0.220   1.720   4.181
  442SOL    HW1 2006   0.240   1.793   4.238
  442SOL    HW2 2007   0.296   1.711   4.124
  443SOL     OW 2008   1.137   1.342   5.415
  443SOL    HW1 2009   1.180   1.335   5.500
  443SOL    HW2 2010   1.085   1.262   5.408
  444SOL     OW 2011   0.252   1.452   4.263
  444SOL    HW1 2012   0.216   1.539   4.249
  444SOL    HW2 2013   0.185   1.406   4.315
  445SOL     OW 2014   0.248   1.065   4.608
  445SOL    HW1 2015   0.268   0.980   4.646
  445SOL    HW2 2016   0.195   1.109   4.674
  446SOL     OW 2017   0.608   1.794   5.149
  446SOL    HW1 2018   0.526   1.776   5.194
  446SOL    HW2 2019   0.632   1.882   5.176
  447SOL     OW 2020   0.575   0.987   3.864
  447SOL    HW1 2021   0.624   1.030   3.794
  447SOL    HW2 2022   0.616   1.017   3.945
  448SOL     OW 2023   1.582   0.141   5.179
  448SOL    HW1 2024   1.614   0.214   5.125
  448SOL    HW2 2025   1.547   0.183   5.258
  449SOL     OW 2026   0.141   0.653   4.293
  449SOL    HW1 2027   0.099   0.567   4.298
  449SOL    HW2 2028   0.103   0.702   4.365
  450SOL     OW 2029   0.044   1.589   3.861
  450SOL    HW1 2030   0.038   1.497   3.889
  450SOL    HW2 2031   3.959   1.626   3.885
  451SOL     OW 2032   1.687   0.917   4.367
  451SOL    HW1 2033   1.771   0.876   4.347
  451SOL    HW2 2034   1.667   0.969   4.290
  452SOL     OW 2035   1.649   1.105   4.153
  452SOL    HW1 2036   1.736   1.107   4.113
  452SOL    HW2 2037   1.655   1.167   4.226
  453SOL     OW 2038   0.143   0.756   5.313
  453SOL    HW1 2039   0.238   0.752   5.306
  453SOL    HW2 2040   0.125   0.843   5.348
  454SOL     OW 2041   0.613   1.388   4.461
  454SOL    HW1 2042   0.567   1.304   4.469
  454SOL    HW2 2043   0.598   1.414   4.370
  455SOL     OW 2044   1.286   1.236   5.145
  455SOL    HW1 2045   1.317   1.169   5.085
  455SOL    HW2 2046   1.346   1.231   5.220
  456SOL     OW 2047   0.821   0.005   4.241
  456SOL    HW1 2048   0.866   0.085   4.216
  456SOL    HW2 2049   0.728   0.028   4.240
  457SOL     OW 2050   0.184   0.949   5.003
  457SOL    HW1 2051   0.272   0.914   4.992
  457SOL    HW2 2052   0.132   0.908   4.934
  458SOL     OW 2053   1.531   0.997   3.925
  458SOL    HW1 2054   1.462   0.940   3.958
  458SOL    HW2 2055   1.574   1.031   4.003
  459SOL     OW 2056   1.178   1.808   5.347
  459SOL    HW1 2057   1.191   1.870   5.275
  459SOL    HW2 2058   1.201   1.723   5.310
  460SOL     OW 2059   0.346   0.249   5.570
  460SOL    HW1 2060   0.389   0.332   5.549
  460SOL    HW2 2061   0.255   0.272   5.586
  461SOL     OW 2062   1.465   1.420   4.672
  461SOL    HW1 2063   1.399   1.435   4.739
  461SOL    HW2 2064   1.452   1.328   4.646
  462SOL     OW 2065   1.664   1.737   4.280
  462SOL    HW1 2066   1.630   1.700   4.198
  462SOL    HW2 2067   1.646   1.670   4.346
  463SOL     OW 2068   0.595   0.716   3.991
  463SOL    HW1 2069   0.600   0.801   3.947
  463SOL    HW2 2070   0.533   0.730   4.062
  464SOL     OW 2071   1.274   0.371   4.665
  464SOL    HW1 2072   1.187   0.332   4.673
  464SOL    HW2 2073   1.332   0.310   4.711
  465SOL     OW 2074   1.575   1.672   4.021
  465SOL    HW1 2075   1.663   1.700   3.997
  465SOL    HW2 2076   1.534   1.648   3.938
  466SOL     OW 2077   0.794   0.616   5.177
  466SOL    HW1 2078   0.765   0.589   5.264
  466SOL    HW2 2079   0.758   0.549   5.118
  467SOL     OW 2080   1.392   0.476   5.401
  467SOL    HW1 2081   1.399   0.521   5.485
  467SOL    HW2 2082   1.449   0.399   5.411
  468SOL     OW 2083   0.951   0.887   5.309
  468SOL    HW1 2084   1.006   0.818   5.271
  468SOL    HW2 2085   0.902   0.922   5.235
  469SOL     OW 2086   0.993   0.402   4.960
  469SOL    HW1 2087   0.907   0.422   4.997
  469SOL    HW2 2088   0.975   0.374   4.871
  470SOL     OW 2089   1.053   0.700   4.149
  470SOL    HW1 2090   1.070   0.693   4.243
  470SOL    HW2 2091   0.970   0.654   4.136
  471SOL     OW 2092   0.082   0.830   4.514
  471SOL    HW1 2093   0.153   0.796   4.568
  471SOL    HW2 2094   0.105   0.922   4.499
  472SOL     OW 2095   0.130   1.866   5.303
  472SOL    HW1 2096   0.138   1.830   5.391
  472SOL    HW2 2097   0.038   1.855   5.281
  473SOL     OW 2098   0.895   0.352   3.923
  473SOL    HW1 2099   0.937   0.413   3.861
  473SOL    HW2 2100   0.891   0.269   3.876
  474SOL     OW 2101   1.706   0.575   5.553
  474SOL    HW1 2102   1.669   0.649   5.504
  474SOL    HW2 2103   1.731   0.511   5.486
  475SOL     OW 2104   1.379   1.141   4.263
  475SOL    HW1 2105   1.460   1.131   4.211
  475SOL    HW2 2106   1.327   1.204   4.213
  476SOL     OW 2107   0.562   0.195   4.604
  476SOL    HW1 2108   0.567   0.220   4.696
  476SOL    HW2 2109   0.547   0.277   4.558
  477SOL     OW 2110   1.001   1.443   4.193
  477SOL    HW1 2111   0.968   1.518   4.143
  477SOL    HW2 2112   0.980   1.464   4.284
  478SOL     OW 2113   0.365   1.823   4.596
  478SOL    HW1 2114   0.427   1.751   4.606
  478SOL    HW2 2115   0.417   1.902   4.611
  479SOL     OW 2116   1.800   1.050   4.596
  479SOL    HW1 2117   1.746   1.035   4.518
  479SOL    HW2 2118   1.736   1.058   4.668
  480SOL     OW 2119   1.227   1.540   5.236
  480SOL    HW1 2120   1.215   1.467   5.297
  480SOL    HW2 2121   1.161   1.525   5.168
  481SOL     OW 2122   0.310   0.952   3.966
  481SOL    HW1 2123   0.394   0.974   3.924
  481SOL    HW2 2124   0.298   0.859   3.948
  482SOL     OW 2125   1.480   0.750   4.453
  482SOL    HW1 2126   1.476   0.709   4.539
  482SOL    HW2 2127   1.558   0.805   4.456
  483SOL     OW 2128   0.470   1.261   5.462
  483SOL    HW1 2129   0.444   1.268   5.370
  483SOL    HW2 2130   0.387   1.263   5.510
  484SOL     OW 2131   1.123   1.776   3.954
  484SOL    HW1 2132   1.047   1.737   3.998
  484SOL    HW2 2133   1.146   1.713   3.885
  485SOL     OW 2134   0.201   0.293   5.225
  485SOL    HW1 2135   0.108   0.313   5.224
  485SOL    HW2 2136   0.210   0.218   5.283
  486SOL     OW 2137   1.628   1.381   3.812
  486SOL    HW1 2138   1.586   1.465   3.796
  486SOL    HW2 2139   1.560   1.316   3.792
  487SOL     OW 2140   0.466   1.739   4.040
  487SOL    HW1 2141   0.510   1.795   4.104
  487SOL    HW2 2142   0.537   1.702   3.987
  488SOL     OW 2143   1.443   0.169   4.130
  488SOL    HW1 2144   1.393   0.101   4.084
  488SOL    HW2 2145   1.511   0.121   4.177
  489SOL     OW 2146   0.253   1.790   4.954
  489SOL    HW1 2147   0.298   1.723   5.006
  489SOL    HW2 2148   0.251   1.754   4.866
  490SOL     OW 2149   0.938   1.699   4.621
  490SOL    HW1 2150   1.018   1.651   4.642
  490SOL    HW2 2151   0.897   1.648   4.551
  491SOL     OW 2152   0.398   0.694   4.194
  491SOL    HW1 2153   0.423   0.603   4.210
  491SOL    HW2 2154   0.306   0.699   4.220
  492SOL     OW 2155   1.528   0.228   5.451
  492SOL    HW1 2156   1.523   0.252   5.543
  492SOL    HW2 2157   1.514   0.133   5.450
  493SOL     OW 2158   0.646   0.128   3.827
  493SOL    HW1 2159   0.667   0.043   3.866
  493SOL    HW2 2160   0.585   0.107   3.756
  494SOL     OW 2161   0.776   0.285   5.494
  494SOL    HW1 2162   0.852   0.228   5.494
  494SOL    HW2 2163   0.721   0.252   5.565
  495SOL     OW 2164   0.875   1.522   4.918
  495SOL    HW1 2165   0.859   1.485   4.831
  495SOL    HW2 2166   0.945   1.468   4.955
  496SOL     OW 2167   1.338   0.587   5.155
  496SOL    HW1 2168   1.370   0.558   5.241
  496SOL    HW2 2169   1.374   0.676   5.145
  497SOL     OW 2170   0.817   1.391   4.667
  497SOL    HW1 2171   0.902   1.380   4.625
  497SOL    HW2 2172   0.755   1.395   4.594
  498SOL     OW 2173   0.930   0.512   4.623
  498SOL    HW1 2174   0.906   0.504   4.531
  498SOL    HW2 2175   0.955   0.424   4.650
  499SOL     OW 2176   0.547   0.056   4.211
  499SOL    HW1 2177   0.473   0.063   4.272
  499SOL    HW2 2178   0.548   0.139   4.165
  500SOL     OW 2179   1.427   1.199   3.764
  500SOL    HW1 2180   1.457   1.124   3.815
  500SOL    HW2 2181   1.342   1.221   3.801
  501SOL     OW 2182   0.350   0.034   3.923
  501SOL    HW1 2183   0.358   0.087   3.844
  501SOL    HW2 2184   0.437   0.039   3.964
  502SOL     OW 2185   0.944   0.250   4.183
  502SOL    HW1 2186   0.918   0.290   4.100
  502SOL    HW2 2187   1.039   0.255   4.183
  503SOL     OW 2188   1.079   0.684   5.182
  503SOL    HW1 2189   1.010   0.618   5.188
  503SOL    HW2 2190   1.160   0.634   5.176
  504SOL     OW 2191   1.220   1.572   4.519
  504SOL    HW1 2192   1.235   1.638   4.451
  504SOL    HW2 2193   1.290   1.586   4.583
  505SOL     OW 2194   0.466   1.151   4.458
  505SOL    HW1 2195   0.396   1.126   4.517
  505SOL    HW2 2196   0.431   1.136   4.370
  506SOL     OW 2197   1.263   1.792   4.335
  506SOL    HW1 2198   1.308   1.854   4.279
  506SOL    HW2 2199   1.196   1.844   4.380
  507SOL     OW 2200   1.021   0.541   3.754
  507SOL    HW1 2201   0.978   0.624   3.735
  507SOL    HW2 2202   1.085   0.562   3.822
  508SOL     OW 2203   0.081   0.574   5.117
  508SOL    HW1 2204   0.170   0.556   5.087
  508SOL    HW2 2205   0.091   0.646   5.180
  509SOL     OW 2206   0.572   0.231   4.883
  509SOL    HW1 2207   0.593   0.138   4.891
  509SOL    HW2 2208   0.481   0.237   4.913
  510SOL     OW 2209   0.871   0.461   4.362
  510SOL    HW1 2210   0.821   0.514   4.300
  510SOL    HW2 2211   0.891   0.381   4.314
  511SOL     OW 2212   0.997   0.039   4.505
  511SOL    HW1 2213   0.958   0.069   4.423
  511SOL    HW2 2214   1.008   3.944   4.493
  512SOL     OW 2215   1.439   1.161   4.581
  512SOL    HW1 2216   1.368   1.097   4.579
  512SOL    HW2 2217   1.465   1.170   4.490
  513SOL     OW 2218   1.464   0.608   4.696
  513SOL    HW1 2219   1.409   0.530   4.701
  513SOL    HW2 2220   1.523   0.600   4.771
  514SOL     OW 2221   1.843   0.818   4.113
  514SOL    HW1 2222   1.900   0.766   4.169
  514SOL    HW2 2223   1.815   0.758   4.044
  515SOL     OW 2224   0.487   1.422   3.883
  515SOL    HW1 2225   0.411   1.391   3.932
  515SOL    HW2 2226   0.474   1.386   3.795
  516SOL     OW 2227   1.673   1.263   4.368
  516SOL    HW1 2228   1.767   1.262   4.382
  516SOL    HW2 2229   1.647   1.353   4.390
  517SOL     OW 2230   1.395   0.577   3.793
  517SOL    HW1 2231   1.332   0.557   3.862
  517SOL    HW2 2232   1.480   0.557   3.832
  518SOL     OW 2233   0.557   0.271   4.041
  518SOL    HW1 2234   0.606   0.231   3.969
  518SOL    HW2 2235   0.528   0.355   4.007
  519SOL     OW 2236   1.749   1.241   5.291
  519SOL    HW1 2237   1.836   1.203   5.285
  519SOL    HW2 2238   1.765   1.332   5.318
  520SOL     OW 2239   1.055   1.353   5.056
  520SOL    HW1 2240   0.980   1.322   5.107
  520SOL    HW2 2241   1.131   1.312   5.098
  521SOL     OW 2242   1.606   1.625   5.373
  521SOL    HW1 2243   1.604   1.662   5.285
  521SOL    HW2 2244   1.690   1.579   5.377
  522SOL     OW 2245   1.133   1.207   4.827
  522SOL    HW1 2246   1.073   1.246   4.892
  522SOL    HW2 2247   1.103   1.242   4.743
  523SOL     OW 2248   1.624   1.096   4.800
  523SOL    HW1 2249   1.618   1.159   4.873
  523SOL    HW2 2250   1.547   1.115   4.746
  524SOL     OW 2251   0.912   0.117   5.125
  524SOL    HW1 2252   0.932   0.089   5.036
  524SOL    HW2 2253   0.993   0.158   5.155
  525SOL     OW 2254   0.984   1.114   5.449
  525SOL    HW1 2255   0.893   1.131   5.471
  525SOL    HW2 2256   0.982   1.037   5.393
  526SOL     OW 2257   0.708   1.062   4.094
  526SOL    HW1 2258   0.694   1.044   4.187
  526SOL    HW2 2259   0.784   1.009   4.071
  527SOL     OW 2260   0.423   0.818   4.977
  527SOL    HW1 2261   0.492   0.824   5.044
  527SOL    HW2 2262   0.389   0.729   4.986
  528SOL     OW 2263   1.265   0.374   5.002
  528SOL    HW1 2264   1.299   0.453   5.045
  528SOL    HW2 2265   1.178   0.399   4.972
  529SOL     OW 2266   0.065   1.580   5.070
  529SOL    HW1 2267   0.071   1.629   4.988
  529SOL    HW2 2268   0.156   1.569   5.098
  530SOL     OW 2269   0.369   1.103   4.205
  530SOL    HW1 2270   0.363   1.183   4.152
  530SOL    HW2 2271   0.368   1.032   4.142
  531SOL     OW 2272   0.554   0.533   4.581
  531SOL    HW1 2273   0.567   0.592   4.507
  531SOL    HW2 2274   0.620   0.559   4.645
  532SOL     OW 2275   1.247   1.349   4.114
  532SOL    HW1 2276   1.303   1.420   4.146
  532SOL    HW2 2277   1.160   1.370   4.147
  533SOL     OW 2278   1.287   1.460   4.873
  533SOL    HW1 2279   1.343   1.465   4.950
  533SOL    HW2 2280   1.232   1.383   4.888
  534SOL     OW 2281   1.573   0.634   4.212
  534SOL    HW1 2282   1.530   0.688   4.278
  534SOL    HW2 2283   1.620   0.697   4.157
  535SOL     OW 2284   0.346   1.528   5.042
  535SOL    HW1 2285   0.336   1.477   4.961
  535SOL    HW2 2286   0.440   1.542   5.049
  536SOL     OW 2287   0.419   0.737   5.325
  536SOL    HW1 2288   0.482   0.781   5.269
  536SOL    HW2 2289   0.455   0.649   5.337
  537SOL     OW 2290   1.605   0.781   5.409
  537SOL    HW1 2291   1.519   0.823   5.402
  537SOL    HW2 2292   1.657   0.822   5.340
  538SOL     OW 2293   1.008   0.138   5.503
  538SOL    HW1 2294   1.065   0.207   5.470
  538SOL    HW2 2295   0.999   0.077   5.430
  539SOL     OW 2296   0.485   0.037   5.488
  539SOL    HW1 2297   0.490   0.049   5.393
  539SOL    HW2 2298   0.422   0.103   5.517
  540SOL     OW 2299   0.585   0.875   4.756
  540SOL    HW1 2300   0.618   0.965   4.758
  540SOL    HW2 2301   0.529   0.868   4.833
  541SOL     OW 2302   1.351   0.858   4.748
  541SOL    HW1 2303   1.265   0.844   4.707
  541SOL    HW2 2304   1.395   0.774   4.740
  542SOL     OW 2305   1.199   0.538   3.980
  542SOL    HW1 2306   1.208   0.459   4.033
  542SOL    HW2 2307   1.156   0.601   4.038
  543SOL     OW 2308   0.311   0.212   4.963
  543SOL    HW1 2309   0.267   0.248   5.040
  543SOL    HW2 2310   0.296   0.117   4.970
  544SOL     OW 2311   0.063   1.306   5.004
  544SOL    HW1 2312   0.092   1.263   5.085
  544SOL    HW2 2313   0.053   1.398   5.028
  545SOL     OW 2314   0.724   0.633   4.776
  545SOL    HW1 2315   0.799   0.620   4.718
  545SOL    HW2 2316   0.694   0.722   4.755
  546SOL     OW 2317   1.739   0.958   5.579
  546SOL    HW1 2318   1.694   0.894   5.524
  546SOL    HW2 2319   1.678   0.976   5.650
  547SOL     OW 2320   0.332   0.054   4.381
  547SOL    HW1 2321   0.303   0.145   4.382
  547SOL    HW2 2322   0.297   0.017   4.462
  548SOL     OW 2323   1.609   0.393   4.103
  548SOL    HW1 2324   1.565   0.325   4.154
  548SOL    HW2 2325   1.589   0.475   4.149
  549SOL     OW 2326   1.030   0.759   4.682
  549SOL    HW1 2327   1.022   0.776   4.776
  549SOL    HW2 2328   1.003   0.668   4.672
  550SOL     OW 2329   0.979   1.564   5.442
  550SOL    HW1 2330   0.965   1.610   5.359
  550SOL    HW2 2331   1.025   1.484   5.418
  551SOL     OW 2332   1.853   1.500   5.326
  551SOL    HW1 2333   1.871   1.532   5.238
  551SOL    HW2 2334   1.935   1.511   5.374
  552SOL     OW 2335   0.354   0.922   5.522
  552SOL    HW1 2336   0.432   0.942   5.574
  552SOL    HW2 2337   0.383   0.854   5.461
  553SOL     OW 2338   1.503   0.274   3.858
  553SOL    HW1 2339   1.430   0.213   3.870
  553SOL    HW2 2340   1.516   0.313   3.944
  554SOL     OW 2341   1.287   0.827   3.752
  554SOL    HW1 2342   1.330   0.741   3.756
  554SOL    HW2 2343   1.319   0.866   3.671
  555SOL     OW 2344   1.068   1.338   4.581
  555SOL    HW1 2345   1.072   1.266   4.517
  555SOL    HW2 2346   1.127   1.404   4.545
  556SOL     OW 2347   0.313   0.802   4.674
  556SOL    HW1 2348   0.407   0.818   4.668
  556SOL    HW2 2349   0.306   0.712   4.706
  557SOL     OW 2350   0.339   0.529   4.740
  557SOL    HW1 2351   0.297   0.444   4.722
  557SOL    HW2 2352   0.414   0.531   4.680
  558SOL     OW 2353   1.133   0.380   5.423
  558SOL    HW1 2354   1.085   0.434   5.484
  558SOL    HW2 2355   1.220   0.420   5.418
  559SOL     OW 2356   1.151   0.225   5.206
  559SOL    HW1 2357   1.142   0.280   5.284
  559SOL    HW2 2358   1.178   0.287   5.137
  560SOL     OW 2359   0.001   1.316   3.906
  560SOL    HW1 2360   3.907   1.332   3.910
  560SOL    HW2 2361   0.010   1.222   3.925
  561SOL     OW 2362   0.079   1.800   4.612
  561SOL    HW1 2363   0.086   1.704   4.613
  561SOL    HW2 2364   0.169   1.831   4.616
  562SOL     OW 2365   0.498   1.571   4.634
  562SOL    HW1 2366   0.568   1.632   4.660
  562SOL    HW2 2367   0.542   1.509   4.576
  563SOL     OW 2368   0.976   0.788   4.947
  563SOL    HW1 2369   1.033   0.769   5.022
  563SOL    HW2 2370   0.892   0.748   4.971
  564SOL     OW 2371   0.034   0.577   4.836
  564SOL    HW1 2372   0.094   0.522   4.785
  564SOL    HW2 2373   0.061   0.563   4.927
  565SOL     OW 2374   0.211   0.515   5.446
  565SOL    HW1 2375   0.256   0.474   5.372
  565SOL    HW2 2376   0.166   0.591   5.408
  566SOL     OW 2377   1.379   0.936   5.381
  566SOL    HW1 2378   1.401   1.028   5.377
  566SOL    HW2 2379   1.375   0.908   5.289
  567SOL     OW 2380   0.819   0.572   4.088
  567SOL    HW1 2381   0.825   0.496   4.030
  567SOL    HW2 2382   0.744   0.621   4.054
  568SOL     OW 2383   1.639   0.602   4.906
  568SOL    HW1 2384   1.630   0.541   4.979
  568SOL    HW2 2385   1.727   0.585   4.871
  569SOL     OW 2386   0.301   1.544   5.447
  569SOL    HW1 2387   0.254   1.613   5.493
  569SOL    HW2 2388   0.271   1.462   5.488
  570SOL     OW 2389   0.714   0.452   4.978
  570SOL    HW1 2390   0.662   0.375   4.954
  570SOL    HW2 2391   0.702   0.512   4.904
  571SOL     OW 2392   0.922   1.679   5.194
  571SOL    HW1 2393   0.898   1.642   5.109
  571SOL    HW2 2394   0.918   1.773   5.181
  572SOL     OW 2395   0.452   0.492   3.923
  572SOL    HW1 2396   0.516   0.561   3.940
  572SOL    HW2 2397   0.372   0.539   3.898
  573SOL     OW 2398   0.155   1.134   5.199
  573SOL    HW1 2399   0.156   1.084   5.281
  573SOL    HW2 2400   0.170   1.069   5.131
  574SOL     OW 2401   1.321   1.044   4.945
  574SOL    HW1 2402   1.344   0.981   4.876
  574SOL    HW2 2403   1.254   1.099   4.905
  575SOL     OW 2404   1.315   0.856   4.028
  575SOL    HW1 2405   1.241   0.827   4.080
  575SOL    HW2 2406   1.288   0.844   3.937
  576SOL     OW 2407   1.752   1.735   4.866
  576SOL    HW1 2408   1.826   1.760   4.812
  576SOL    HW2 2409   1.736   1.643   4.845
  577SOL     OW 2410   1.243   1.734   4.829
  577SOL    HW1 2411   1.326   1.757   4.789
  577SOL    HW2 2412   1.251   1.641   4.850
  578SOL     OW 2413   0.078   1.217   4.751
  578SOL    HW1 2414   0.084   1.242   4.843
  578SOL    HW2 2415   3.986   1.227   4.730
  579SOL     OW 2416   0.680   1.668   5.460
  579SOL    HW1 2417   0.621   1.743   5.450
  579SOL    HW2 2418   0.749   1.683   5.396
  580SOL     OW 2419   1.715   0.123   4.214
  580SOL    HW1 2420   1.793   0.134   4.159
  580SOL    HW2 2421   1.706   0.028   4.223
  581SOL     OW 2422   1.392   1.568   4.212
  581SOL    HW1 2423   1.446   1.602   4.142
  581SOL    HW2 2424   1.341   1.644   4.242
  582SOL     OW 2425   0.176   1.762   5.555
  582SOL    HW1 2426   0.120   1.710   5.612
  582SOL    HW2 2427   0.215   1.827   5.613
  583SOL     OW 2428   1.277   0.928   4.395
  583SOL    HW1 2429   1.351   0.869   4.407
  583SOL    HW2 2430   1.312   1.000   4.342
  584SOL     OW 2431   0.808   1.275   5.151
  584SOL    HW1 2432   0.779   1.316   5.232
  584SOL    HW2 2433   0.736   1.291   5.089
  585SOL     OW 2434   0.670   1.624   3.879
  585SOL    HW1 2435   0.682   1.636   3.785
  585SOL    HW2 2436   0.614   1.546   3.886
  586SOL     OW 2437   1.619   1.731   5.112
  586SOL    HW1 2438   1.668   1.735   5.029
  586SOL    HW2 2439   1.610   1.822   5.139
  587SOL     OW 2440   1.839   0.178   4.689
  587SOL    HW1 2441   1.872   0.114   4.626
  587SOL    HW2 2442   1.750   0.197   4.660
  588SOL     OW 2443   0.275   0.322   4.438
  588SOL    HW1 2444   0.190   0.356   4.411
  588SOL    HW2 2445   0.267   0.307   4.532
  589SOL     OW 2446   1.206   1.603   3.756
  589SOL    HW1 2447   1.196   1.511   3.782
  589SOL    HW2 2448   1.140   1.615   3.688
  590SOL     OW 2449   0.823   1.006   5.098
  590SOL    HW1 2450   0.866   1.000   5.013
  590SOL    HW2 2451   0.821   1.099   5.118
  591SOL     OW 2452   0.915   0.911   4.014
  591SOL    HW1 2453   0.976   0.943   3.948
  591SOL    HW2 2454   0.964   0.843   4.061
  592SOL     OW 2455   1.485   1.622   3.764
  592SOL    HW1 2456   1.391   1.617   3.747
  592SOL    HW2 2457   1.524   1.630   3.677
  593SOL     OW 2458   0.374   1.303   5.216
  593SOL    HW1 2459   0.359   1.383   5.166
  593SOL    HW2 2460   0.297   1.248   5.198
  594SOL     OW 2461   1.607   1.283   5.003
  594SOL    HW1 2462   1.670   1.271   5.075
  594SOL    HW2 2463   1.548   1.352   5.035
  595SOL     OW 2464   1.058   1.110   4.433
  595SOL    HW1 2465   0.986   1.059   4.471
  595SOL    HW2 2466   1.122   1.044   4.406
  596SOL     OW 2467   1.014   0.250   4.695
  596SOL    HW1 2468   1.005   0.199   4.614
  596SOL    HW2 2469   1.012   0.184   4.764
  597SOL     OW 2470   0.607   1.488   4.206
  597SOL    HW1 2471   0.654   1.439   4.139
  597SOL    HW2 2472   0.531   1.525   4.160
  598SOL     OW 2473   1.721   0.394   5.095
  598SOL    HW1 2474   1.794   0.456   5.100
  598SOL    HW2 2475   1.754   0.323   5.041
  599SOL     OW 2476   0.254   1.341   4.018
  599SOL    HW1 2477   0.161   1.346   3.999
  599SOL    HW2 2478   0.264   1.381   4.104
  600SOL     OW 2479   0.109   0.999   5.442
  600SOL    HW1 2480   0.049   0.992   5.516
  600SOL    HW2 2481   0.195   0.981   5.479
  601SOL     OW 2482   0.694   0.256   5.227
  601SOL    HW1 2483   0.762   0.203   5.185
  601SOL    HW2 2484   0.723   0.265   5.318
  602SOL     OW 2485   0.088   0.319   3.749
  602SOL    HW1 2486   3.993   0.318   3.742
  602SOL    HW2 2487   0.115   0.402   3.709
  603SOL     OW 2488   1.425   0.856   5.122
  603SOL    HW1 2489   1.377   0.918   5.067
  603SOL    HW2 2490   1.515   0.859   5.087
  604SOL     OW 2491   0.036   0.171   4.008
  604SOL    HW1 2492   0.037   0.228   3.931
  604SOL    HW2 2493   0.111   0.201   4.060
  605SOL     OW 2494   1.178   1.336   3.841
  605SOL    HW1 2495   1.087   1.306   3.843
  605SOL    HW2 2496   1.205   1.337   3.933
  606SOL     OW 2497   0.622   0.828   5.161
  606SOL    HW1 2498   0.678   0.904   5.145
  606SOL    HW2 2499   0.682   0.754   5.169
  607SOL     OW 2500   1.489   1.788   4.710
  607SOL    HW1 2501   1.510   1.855   4.645
  607SOL    HW2 2502   1.573   1.768   4.751
  608SOL     OW 2503   0.718   0.560   5.430
  608SOL    HW1 2504   0.764   0.621   5.488
  608SOL    HW2 2505   0.743   0.474   5.463
  609SOL     OW 2506   1.474   1.195   5.352
  609SOL    HW1 2507   1.461   1.212   5.445
  609SOL    HW2 2508   1.566   1.214   5.336
  610SOL     OW 2509   0.378   1.744   5.281
  610SOL    HW1 2510   0.291   1.782   5.268
  610SOL    HW2 2511   0.362   1.662   5.326
  611SOL     OW 2512   1.665   0.880   4.980
  611SOL    HW1 2513   1.661   0.795   4.936
  611SOL    HW2 2514   1.656   0.944   4.909
  612SOL     OW 2515   1.223   0.338   4.165
  612SOL    HW1 2516   1.291   0.270   4.158
  612SOL    HW2 2517   1.241   0.382   4.248
  613SOL     OW 2518   0.589   0.737   4.396
  613SOL    HW1 2519   0.627   0.824   4.380
  613SOL    HW2 2520   0.523   0.727   4.328
  614SOL     OW 2521   1.749   0.384   5.367
  614SOL    HW1 2522   1.732   0.390   5.273
  614SOL    HW2 2523   1.693   0.313   5.397
  615SOL     OW 2524   1.748   0.934   5.236
  615SOL    HW1 2525   1.738   1.028   5.249
  615SOL    HW2 2526   1.730   0.921   5.143
  616SOL     OW 2527   0.863   1.365   3.764
  616SOL    HW1 2528   0.825   1.394   3.847
  616SOL    HW2 2529   0.879   1.447   3.716
  617SOL     OW 2530   0.663   1.786   4.664
  617SOL    HW1 2531   0.644   1.877   4.644
  617SOL    HW2 2532   0.759   1.780   4.658
  618SOL     OW 2533   0.869   0.969   4.577
  618SOL    HW1 2534   0.919   0.897   4.615
  618SOL    HW2 2535   0.832   1.015   4.652
  619SOL     OW 2536   1.077   0.989   3.813
  619SOL    HW1 2537   1.056   1.040   3.735
  619SOL    HW2 2538   1.151   0.935   3.786
  620SOL     OW 2539   1.843   1.539   4.556
  620SOL    HW1 2540   1.759   1.538   4.509
  620SOL    HW2 2541   1.829   1.482   4.631
  621SOL     OW 2542   0.228   1.304   5.581
  621SOL    HW1 2543   0.154   1.250   5.552
  621SOL    HW2 2544   0.213   1.317   5.674
  622SOL     OW 2545   0.125   1.283   4.447
  622SOL    HW1 2546   0.139   1.231   4.526
  622SOL    HW2 2547   0.106   1.218   4.379
  623SOL     OW 2548   0.684   1.405   5.357
  623SOL    HW1 2549   0.603   1.364   5.386
  623SOL    HW2 2550   0.679   1.494   5.391
  624SOL     OW 2551   1.810   0.183   4.961
  624SOL    HW1 2552   1.813   0.089   4.978
  624SOL    HW2 2553   1.826   0.192   4.867
  625SOL     OW 2554   0.445   0.438   4.255
  625SOL    HW1 2555   0.465   0.362   4.201
  625SOL    HW2 2556   0.390   0.403   4.325
  626SOL     OW 2557   1.702   1.476   4.808
  626SOL    HW1 2558   1.618   1.459   4.765
  626SOL    HW2 2559   1.706   1.410   4.877
  627SOL     OW 2560   0.334   0.559   5.017
  627SOL    HW1 2561   0.390   0.502   5.071
  627SOL    HW2 2562   0.349   0.529   4.928
  628SOL     OW 2563   0.830   1.579   4.399
  628SOL    HW1 2564   0.813   1.643   4.330
  628SOL    HW2 2565   0.755   1.520   4.396
  629SOL     OW 2566   1.460   0.255   4.834
  629SOL    HW1 2567   1.478   0.168   4.870
  629SOL    HW2 2568   1.405   0.297   4.900
  630SOL     OW 2569   1.002   0.027   4.870
  630SOL    HW1 2570   0.921   3.996   4.831
  630SOL    HW2 2571   1.056   3.948   4.878
  631SOL     OW 2572   0.773   1.333   4.043
  631SOL    HW1 2573   0.745   1.242   4.050
  631SOL    HW2 2574   0.855   1.337   4.093
  632SOL     OW 2575   0.621   1.556   5.011
  632SOL    HW1 2576   0.622   1.639   5.059
  632SOL    HW2 2577   0.708   1.549   4.974
  633SOL     OW 2578   1.309   0.074   3.890
  633SOL    HW1 2579   1.320   3.991   3.843
  633SOL    HW2 2580   1.224   0.065   3.933
  634SOL     OW 2581   1.280   0.457   4.408
  634SOL    HW1 2582   1.234   0.540   4.403
  634SOL    HW2 2583   1.283   0.437   4.502
  635SOL     OW 2584   1.587   0.210   4.592
  635SOL    HW1 2585   1.538   0.235   4.670
  635SOL    HW2 2586   1.588   0.289   4.538
  636SOL     OW 2587   0.047   1.047   3.966
  636SOL    HW1 2588   0.141   1.032   3.958
  636SOL    HW2 2589   0.011   0.962   3.991
  637SOL     OW 2590   0.888   1.658   4.062
  637SOL    HW1 2591   0.813   1.642   4.005
  637SOL    HW2 2592   0.860   1.731   4.118
  638SOL     OW 2593   0.232   0.629   5.702
  638SOL    HW1 2594   0.139   0.633   5.723
  638SOL    HW2 2595   0.235   0.599   5.611
  639SOL     OW 2596   0.223   0.290   6.568
  639SOL    HW1 2597   0.246   0.250   6.652
  639SOL    HW2 2598   0.128   0.280   6.562
  640SOL     OW 2599   0.019   0.384   6.222
  640SOL    HW1 2600   3.928   0.399   6.248
  640SOL    HW2 2601   0.025   0.290   6.209
  641SOL     OW 2602   0.582   1.291   6.780
  641SOL    HW1 2603   0.495   1.293   6.739
  641SOL    HW2 2604   0.596   1.380   6.812
  642SOL     OW 2605   1.132   0.697   6.281
  642SOL    HW1 2606   1.180   0.778   6.268
  642SOL    HW2 2607   1.085   0.709   6.364
  643SOL     OW 2608   1.769   0.618   5.809
  643SOL    HW1 2609   1.746   0.612   5.716
  643SOL    HW2 2610   1.754   0.530   5.844
  644SOL     OW 2611   0.750   1.138   6.629
  644SOL    HW1 2612   0.688   1.174   6.693
  644SOL    HW2 2613   0.786   1.215   6.584
  645SOL     OW 2614   0.872   0.767   7.410
  645SOL    HW1 2615   0.869   0.838   7.474
  645SOL    HW2 2616   0.893   0.810   7.327
  646SOL     OW 2617   0.685   1.001   6.231
  646SOL    HW1 2618   0.751   0.991   6.300
  646SOL    HW2 2619   0.616   1.053   6.272
  647SOL     OW 2620   0.708   1.146   7.401
  647SOL    HW1 2621   0.755   1.225   7.430
  647SOL    HW2 2622   0.627   1.179   7.363
  648SOL     OW 2623   0.351   1.400   6.665
  648SOL    HW1 2624   0.271   1.379   6.618
  648SOL    HW2 2625   0.399   1.458   6.606
  649SOL     OW 2626   0.458   0.408   7.080
  649SOL    HW1 2627   0.541   0.360   7.080
  649SOL    HW2 2628   0.390   0.341   7.083
  650SOL     OW 2629   1.612   0.451   6.321
  650SOL    HW1 2630   1.543   0.482   6.262
  650SOL    HW2 2631   1.627   0.523   6.381
  651SOL     OW 2632   0.220   1.720   6.043
  651SOL    HW1 2633   0.240   1.793   6.101
  651SOL    HW2 2634   0.296   1.712   5.986
  652SOL     OW 2635   1.102   1.336   7.257
  652SOL    HW1 2636   1.131   1.344   7.348
  652SOL    HW2 2637   1.053   1.254   7.255
  653SOL     OW 2638   0.251   1.451   6.125
  653SOL    HW1 2639   0.216   1.539   6.111
  653SOL    HW2 2640   0.184   1.407   6.177
  654SOL     OW 2641   0.248   1.065   6.470
  654SOL    HW1 2642   0.268   0.980   6.508
  654SOL    HW2 2643   0.195   1.110   6.536
  655SOL     OW 2644   0.600   1.790   7.004
  655SOL    HW1 2645   0.520   1.776   7.055
  655SOL    HW2 2646   0.632   1.875   7.032
  656SOL     OW 2647   0.575   0.987   5.726
  656SOL    HW1 2648   0.624   1.031   5.656
  656SOL    HW2 2649   0.616   1.017   5.807
  657SOL     OW 2650   1.583   0.141   7.041
  657SOL    HW1 2651   1.614   0.214   6.987
  657SOL    HW2 2652   1.547   0.183   7.120
  658SOL     OW 2653   0.141   0.653   6.155
  658SOL    HW1 2654   0.099   0.567   6.160
  658SOL    HW2 2655   0.103   0.702   6.227
  659SOL     OW 2656   0.044   1.589   5.724
  659SOL    HW1 2657   0.039   1.497   5.751
  659SOL    HW2 2658   3.959   1.626   5.747
  660SOL     OW 2659   1.682   0.914   6.217
  660SOL    HW1 2660   1.770   0.876   6.214
  660SOL    HW2 2661   1.674   0.962   6.135
  661SOL     OW 2662   1.655   1.115   6.010
  661SOL    HW1 2663   1.737   1.104   5.962
  661SOL    HW2 2664   1.667   1.195   6.060
  662SOL     OW 2665   0.143   0.756   7.175
  662SOL    HW1 2666   0.238   0.752   7.168
  662SOL    HW2 2667   0.125   0.843   7.211
  663SOL     OW 2668   0.613   1.388   6.324
  663SOL    HW1 2669   0.567   1.304   6.331
  663SOL    HW2 2670   0.600   1.415   6.233
  664SOL     OW 2671   1.287   1.231   7.002
  664SOL    HW1 2672   1.312   1.162   6.940
  664SOL    HW2 2673   1.362   1.238   7.061
  665SOL     OW 2674   0.821   0.005   6.103
  665SOL    HW1 2675   0.866   0.085   6.078
  665SOL    HW2 2676   0.728   0.028   6.102
  666SOL     OW 2677   0.184   0.949   6.865
  666SOL    HW1 2678   0.272   0.914   6.853
  666SOL    HW2 2679   0.132   0.908   6.795
  667SOL     OW 2680   1.530   0.999   5.783
  667SOL    HW1 2681   1.461   0.942   5.817
  667SOL    HW2 2682   1.575   1.031   5.861
  668SOL     OW 2683   1.162   1.773   7.115
  668SOL    HW1 2684   1.239   1.828   7.129
  668SOL    HW2 2685   1.196   1.683   7.118
  669SOL     OW 2686   0.346   0.249   7.432
  669SOL    HW1 2687   0.389   0.332   7.412
  669SOL    HW2 2688   0.255   0.272   7.448
  670SOL     OW 2689   0.595   0.716   5.853
  670SOL    HW1 2690   0.600   0.801   5.809
  670SOL    HW2 2691   0.532   0.730   5.924
  671SOL     OW 2692   1.274   0.371   6.527
  671SOL    HW1 2693   1.187   0.332   6.535
  671SOL    HW2 2694   1.332   0.309   6.573
  672SOL     OW 2695   0.794   0.615   7.039
  672SOL    HW1 2696   0.765   0.589   7.126
  672SOL    HW2 2697   0.758   0.549   6.980
  673SOL     OW 2698   1.391   0.475   7.263
  673SOL    HW1 2699   1.399   0.521   7.347
  673SOL    HW2 2700   1.449   0.399   7.272
  674SOL     OW 2701   0.949   0.883   7.169
  674SOL    HW1 2702   1.005   0.815   7.132
  674SOL    HW2 2703   0.901   0.919   7.095
  675SOL     OW 2704   0.993   0.402   6.823
  675SOL    HW1 2705   0.907   0.422   6.860
  675SOL    HW2 2706   0.975   0.374   6.733
  676SOL     OW 2707   1.053   0.700   6.011
  676SOL    HW1 2708   1.070   0.692   6.105
  676SOL    HW2 2709   0.970   0.654   5.998
  677SOL     OW 2710   0.081   0.830   6.376
  677SOL    HW1 2711   0.152   0.796   6.430
  677SOL    HW2 2712   0.105   0.922   6.361
  678SOL     OW 2713   0.129   1.866   7.165
  678SOL    HW1 2714   0.137   1.830   7.254
  678SOL    HW2 2715   0.036   1.855   7.143
  679SOL     OW 2716   0.895   0.352   5.785
  679SOL    HW1 2717   0.937   0.412   5.723
  679SOL    HW2 2718   0.891   0.269   5.738
  680SOL     OW 2719   1.708   0.572   7.416
  680SOL    HW1 2720   1.670   0.645   7.368
  680SOL    HW2 2721   1.733   0.509   7.349
  681SOL     OW 2722   1.388   1.144   6.139
  681SOL    HW1 2723   1.460   1.126   6.078
  681SOL    HW2 2724   1.321   1.186   6.085
  682SOL     OW 2725   0.562   0.195   6.466
  682SOL    HW1 2726   0.567   0.220   6.558
  682SOL    HW2 2727   0.547   0.277   6.420
  683SOL     OW 2728   1.003   1.439   6.047
  683SOL    HW1 2729   0.974   1.516   5.999
  683SOL    HW2 2730   0.984   1.460   6.139
  684SOL     OW 2731   0.365   1.823   6.458
  684SOL    HW1 2732   0.427   1.751   6.468
  684SOL    HW2 2733   0.417   1.902   6.473
  685SOL     OW 2734   1.770   1.003   6.469
  685SOL    HW1 2735   1.714   1.007   6.392
  685SOL    HW2 2736   1.762   1.089   6.509
  686SOL     OW 2737   1.229   1.513   7.093
  686SOL    HW1 2738   1.199   1.445   7.154
  686SOL    HW2 2739   1.173   1.502   7.016
  687SOL     OW 2740   0.310   0.952   5.828
  687SOL    HW1 2741   0.394   0.975   5.786
  687SOL    HW2 2742   0.298   0.859   5.810
  688SOL     OW 2743   1.479   0.748   6.317
  688SOL    HW1 2744   1.476   0.707   6.403
  688SOL    HW2 2745   1.556   0.804   6.320
  689SOL     OW 2746   0.468   1.261   7.324
  689SOL    HW1 2747   0.443   1.269   7.232
  689SOL    HW2 2748   0.385   1.265   7.372
  690SOL     OW 2749   1.121   1.784   5.816
  690SOL    HW1 2750   1.048   1.740   5.860
  690SOL    HW2 2751   1.148   1.724   5.748
  691SOL     OW 2752   0.201   0.293   7.086
  691SOL    HW1 2753   0.108   0.312   7.086
  691SOL    HW2 2754   0.210   0.218   7.146
  692SOL     OW 2755   1.613   1.384   5.692
  692SOL    HW1 2756   1.578   1.471   5.672
  692SOL    HW2 2757   1.546   1.323   5.660
  693SOL     OW 2758   0.466   1.738   5.901
  693SOL    HW1 2759   0.508   1.795   5.965
  693SOL    HW2 2760   0.538   1.702   5.850
  694SOL     OW 2761   1.443   0.169   5.992
  694SOL    HW1 2762   1.393   0.101   5.946
  694SOL    HW2 2763   1.511   0.121   6.039
  695SOL     OW 2764   0.251   1.790   6.817
  695SOL    HW1 2765   0.299   1.725   6.869
  695SOL    HW2 2766   0.253   1.755   6.728
  696SOL     OW 2767   0.932   1.710   6.495
  696SOL    HW1 2768   1.002   1.651   6.523
  696SOL    HW2 2769   0.899   1.671   6.414
  697SOL     OW 2770   0.398   0.694   6.056
  697SOL    HW1 2771   0.423   0.603   6.072
  697SOL    HW2 2772   0.306   0.699   6.082
  698SOL     OW 2773   1.529   0.228   7.312
  698SOL    HW1 2774   1.524   0.253   7.404
  698SOL    HW2 2775   1.514   0.133   7.312
  699SOL     OW 2776   0.646   0.128   5.689
  699SOL    HW1 2777   0.667   0.043   5.728
  699SOL    HW2 2778   0.585   0.108   5.618
  700SOL     OW 2779   0.776   0.284   7.355
  700SOL    HW1 2780   0.852   0.227   7.356
  700SOL    HW2 2781   0.721   0.253   7.427
  701SOL     OW 2782   0.877   1.522   6.777
  701SOL    HW1 2783   0.859   1.483   6.692
  701SOL    HW2 2784   0.945   1.467   6.815
  702SOL     OW 2785   1.340   0.588   7.017
  702SOL    HW1 2786   1.370   0.558   7.103
  702SOL    HW2 2787   1.375   0.677   7.009
  703SOL     OW 2788   0.818   1.390   6.528
  703SOL    HW1 2789   0.902   1.381   6.483
  703SOL    HW2 2790   0.753   1.397   6.457
  704SOL     OW 2791   0.930   0.512   6.485
  704SOL    HW1 2792   0.906   0.504   6.393
  704SOL    HW2 2793   0.955   0.424   6.512
  705SOL     OW 2794   0.547   0.056   6.073
  705SOL    HW1 2795   0.473   0.063   6.134
  705SOL    HW2 2796   0.548   0.139   6.027
  706SOL     OW 2797   1.421   1.199   5.623
  706SOL    HW1 2798   1.454   1.124   5.672
  706SOL    HW2 2799   1.334   1.215   5.658
  707SOL     OW 2800   0.350   0.034   5.785
  707SOL    HW1 2801   0.358   0.087   5.706
  707SOL    HW2 2802   0.437   0.039   5.826
  708SOL     OW 2803   0.944   0.251   6.045
  708SOL    HW1 2804   0.918   0.290   5.962
  708SOL    HW2 2805   1.039   0.255   6.045
  709SOL     OW 2806   1.079   0.683   7.042
  709SOL    HW1 2807   1.011   0.617   7.050
  709SOL    HW2 2808   1.161   0.633   7.039
  710SOL     OW 2809   0.467   1.151   6.320
  710SOL    HW1 2810   0.396   1.126   6.379
  710SOL    HW2 2811   0.431   1.136   6.232
  711SOL     OW 2812   1.021   0.541   5.616
  711SOL    HW1 2813   0.978   0.624   5.596
  711SOL    HW2 2814   1.085   0.563   5.684
  712SOL     OW 2815   0.081   0.574   6.979
  712SOL    HW1 2816   0.170   0.556   6.949
  712SOL    HW2 2817   0.091   0.646   7.042
  713SOL     OW 2818   0.572   0.231   6.745
  713SOL    HW1 2819   0.593   0.138   6.753
  713SOL    HW2 2820   0.481   0.237   6.775
  714SOL     OW 2821   0.871   0.461   6.224
  714SOL    HW1 2822   0.820   0.514   6.162
  714SOL    HW2 2823   0.891   0.381   6.175
  715SOL     OW 2824   0.997   0.038   6.367
  715SOL    HW1 2825   0.958   0.069   6.285
  715SOL    HW2 2826   1.009   3.944   6.355
  716SOL     OW 2827   1.461   1.162   6.409
  716SOL    HW1 2828   1.400   1.107   6.458
  716SOL    HW2 2829   1.430   1.158   6.319
  717SOL     OW 2830   1.465   0.607   6.559
  717SOL    HW1 2831   1.409   0.529   6.564
  717SOL    HW2 2832   1.524   0.600   6.634
  718SOL     OW 2833   1.835   0.817   5.975
  718SOL    HW1 2834   1.896   0.768   6.031
  718SOL    HW2 2835   1.811   0.755   5.906
  719SOL     OW 2836   0.487   1.422   5.743
  719SOL    HW1 2837   0.411   1.391   5.794
  719SOL    HW2 2838   0.472   1.387   5.655
  720SOL     OW 2839   1.396   0.577   5.655
  720SOL    HW1 2840   1.333   0.557   5.724
  720SOL    HW2 2841   1.481   0.555   5.693
  721SOL     OW 2842   0.557   0.271   5.903
  721SOL    HW1 2843   0.606   0.231   5.831
  721SOL    HW2 2844   0.528   0.355   5.869
  722SOL     OW 2845   1.749   1.205   7.139
  722SOL    HW1 2846   1.843   1.188   7.141
  722SOL    HW2 2847   1.739   1.291   7.179
  723SOL     OW 2848   1.054   1.350   6.919
  723SOL    HW1 2849   0.976   1.324   6.969
  723SOL    HW2 2850   1.126   1.305   6.962
  724SOL     OW 2851   1.124   1.201   6.691
  724SOL    HW1 2852   1.071   1.244   6.758
  724SOL    HW2 2853   1.088   1.232   6.608
  725SOL     OW 2854   0.912   0.117   6.987
  725SOL    HW1 2855   0.932   0.089   6.898
  725SOL    HW2 2856   0.993   0.158   7.018
  726SOL     OW 2857   0.974   1.107   7.311
  726SOL    HW1 2858   0.883   1.122   7.336
  726SOL    HW2 2859   0.971   1.029   7.257
  727SOL     OW 2860   0.708   1.062   5.957
  727SOL    HW1 2861   0.694   1.044   6.050
  727SOL    HW2 2862   0.784   1.009   5.933
  728SOL     OW 2863   0.423   0.818   6.839
  728SOL    HW1 2864   0.492   0.824   6.906
  728SOL    HW2 2865   0.389   0.729   6.848
  729SOL     OW 2866   1.266   0.375   6.864
  729SOL    HW1 2867   1.299   0.453   6.907
  729SOL    HW2 2868   1.178   0.400   6.834
  730SOL     OW 2869   0.066   1.579   6.932
  730SOL    HW1 2870   0.072   1.631   6.851
  730SOL    HW2 2871   0.157   1.568   6.960
  731SOL     OW 2872   0.368   1.103   6.067
  731SOL    HW1 2873   0.364   1.183   6.014
  731SOL    HW2 2874   0.367   1.032   6.003
  732SOL     OW 2875   0.554   0.532   6.443
  732SOL    HW1 2876   0.567   0.592   6.369
  732SOL    HW2 2877   0.620   0.559   6.507
  733SOL     OW 2878   1.299   1.417   6.737
  733SOL    HW1 2879   1.298   1.422   6.833
  733SOL    HW2 2880   1.247   1.339   6.718
  734SOL     OW 2881   1.572   0.635   6.074
  734SOL    HW1 2882   1.531   0.690   6.141
  734SOL    HW2 2883   1.626   0.695   6.023
  735SOL     OW 2884   0.346   1.527   6.905
  735SOL    HW1 2885   0.336   1.477   6.824
  735SOL    HW2 2886   0.440   1.542   6.913
  736SOL     OW 2887   0.419   0.736   7.186
  736SOL    HW1 2888   0.482   0.782   7.131
  736SOL    HW2 2889   0.456   0.649   7.200
  737SOL     OW 2890   1.603   0.771   7.270
  737SOL    HW1 2891   1.517   0.813   7.268
  737SOL    HW2 2892   1.653   0.817   7.202
  738SOL     OW 2893   1.009   0.137   7.366
  738SOL    HW1 2894   1.065   0.207   7.332
  738SOL    HW2 2895   0.998   0.077   7.292
  739SOL     OW 2896   0.485   0.037   7.350
  739SOL    HW1 2897   0.490   0.049   7.255
  739SOL    HW2 2898   0.422   0.103   7.379
  740SOL     OW 2899   0.586   0.876   6.618
  740SOL    HW1 2900   0.618   0.966   6.621
  740SOL    HW2 2901   0.529   0.868   6.695
  741SOL     OW 2902   1.352   0.858   6.611
  741SOL    HW1 2903   1.266   0.843   6.572
  741SOL    HW2 2904   1.397   0.774   6.603
  742SOL     OW 2905   1.200   0.538   5.843
  742SOL    HW1 2906   1.209   0.459   5.895
  742SOL    HW2 2907   1.155   0.600   5.901
  743SOL     OW 2908   0.310   0.212   6.825
  743SOL    HW1 2909   0.267   0.248   6.902
  743SOL    HW2 2910   0.296   0.117   6.832
  744SOL     OW 2911   0.059   1.306   6.867
  744SOL    HW1 2912   0.090   1.263   6.946
  744SOL    HW2 2913   0.052   1.398   6.890
  745SOL     OW 2914   0.723   0.633   6.637
  745SOL    HW1 2915   0.799   0.620   6.580
  745SOL    HW2 2916   0.693   0.722   6.617
  746SOL     OW 2917   1.738   0.955   7.434
  746SOL    HW1 2918   1.693   0.888   7.383
  746SOL    HW2 2919   1.680   0.971   7.508
  747SOL     OW 2920   0.332   0.054   6.243
  747SOL    HW1 2921   0.303   0.145   6.244
  747SOL    HW2 2922   0.297   0.017   6.324
  748SOL     OW 2923   1.608   0.393   5.965
  748SOL    HW1 2924   1.564   0.325   6.017
  748SOL    HW2 2925   1.587   0.475   6.011
  749SOL     OW 2926   1.030   0.759   6.544
  749SOL    HW1 2927   1.022   0.776   6.638
  749SOL    HW2 2928   1.003   0.668   6.533
  750SOL     OW 2929   0.965   1.564   7.310
  750SOL    HW1 2930   0.945   1.609   7.227
  750SOL    HW2 2931   1.011   1.485   7.283
  751SOL     OW 2932   0.354   0.922   7.384
  751SOL    HW1 2933   0.432   0.943   7.436
  751SOL    HW2 2934   0.384   0.854   7.323
  752SOL     OW 2935   1.502   0.274   5.720
  752SOL    HW1 2936   1.430   0.213   5.732
  752SOL    HW2 2937   1.516   0.313   5.807
  753SOL     OW 2938   1.289   0.827   5.616
  753SOL    HW1 2939   1.331   0.741   5.619
  753SOL    HW2 2940   1.320   0.866   5.534
  754SOL     OW 2941   1.067   1.331   6.438
  754SOL    HW1 2942   1.064   1.256   6.378
  754SOL    HW2 2943   1.153   1.370   6.423
  755SOL     OW 2944   0.313   0.802   6.536
  755SOL    HW1 2945   0.407   0.818   6.530
  755SOL    HW2 2946   0.306   0.712   6.568
  756SOL     OW 2947   0.339   0.529   6.602
  756SOL    HW1 2948   0.297   0.444   6.584
  756SOL    HW2 2949   0.414   0.531   6.542
  757SOL     OW 2950   1.133   0.380   7.285
  757SOL    HW1 2951   1.085   0.434   7.347
  757SOL    HW2 2952   1.220   0.420   7.280
  758SOL     OW 2953   1.151   0.226   7.068
  758SOL    HW1 2954   1.142   0.280   7.146
  758SOL    HW2 2955   1.178   0.287   7.000
  759SOL     OW 2956   0.001   1.316   5.768
  759SOL    HW1 2957   3.907   1.332   5.772
  759SOL    HW2 2958   0.010   1.222   5.787
  760SOL     OW 2959   0.079   1.800   6.473
  760SOL    HW1 2960   0.087   1.704   6.475
  760SOL    HW2 2961   0.169   1.831   6.478
  761SOL     OW 2962   0.498   1.571   6.497
  761SOL    HW1 2963   0.566   1.632   6.522
  761SOL    HW2 2964   0.541   1.509   6.438
  762SOL     OW 2965   0.976   0.787   6.809
  762SOL    HW1 2966   1.033   0.767   6.883
  762SOL    HW2 2967   0.891   0.750   6.832
  763SOL     OW 2968   0.034   0.577   6.698
  763SOL    HW1 2969   0.094   0.522   6.647
  763SOL    HW2 2970   0.061   0.564   6.789
  764SOL     OW 2971   0.211   0.516   7.308
  764SOL    HW1 2972   0.257   0.475   7.234
  764SOL    HW2 2973   0.167   0.591   7.270
  765SOL     OW 2974   1.381   0.933   7.249
  765SOL    HW1 2975   1.412   1.024   7.252
  765SOL    HW2 2976   1.381   0.912   7.155
  766SOL     OW 2977   0.819   0.573   5.949
  766SOL    HW1 2978   0.825   0.496   5.891
  766SOL    HW2 2979   0.744   0.622   5.916
  767SOL     OW 2980   1.640   0.601   6.770
  767SOL    HW1 2981   1.631   0.539   6.843
  767SOL    HW2 2982   1.727   0.584   6.734
  768SOL     OW 2983   0.298   1.543   7.308
  768SOL    HW1 2984   0.252   1.612   7.356
  768SOL    HW2 2985   0.271   1.462   7.351
  769SOL     OW 2986   0.714   0.452   6.840
  769SOL    HW1 2987   0.662   0.375   6.816
  769SOL    HW2 2988   0.702   0.512   6.766
  770SOL     OW 2989   0.904   1.665   7.065
  770SOL    HW1 2990   0.879   1.653   6.973
  770SOL    HW2 2991   0.973   1.731   7.062
  771SOL     OW 2992   0.452   0.492   5.785
  771SOL    HW1 2993   0.516   0.561   5.802
  771SOL    HW2 2994   0.372   0.539   5.760
  772SOL     OW 2995   0.153   1.134   7.061
  772SOL    HW1 2996   0.156   1.084   7.142
  772SOL    HW2 2997   0.169   1.069   6.992
  773SOL     OW 2998   1.323   1.045   6.805
  773SOL    HW1 2999   1.349   0.983   6.738
  773SOL    HW2 3000   1.252   1.096   6.765
  774SOL     OW 3001   1.310   0.865   5.892
  774SOL    HW1 3002   1.241   0.825   5.944
  774SOL    HW2 3003   1.286   0.848   5.801
  775SOL     OW 3004   1.725   1.828   6.657
  775SOL    HW1 3005   1.793   1.818   6.590
  775SOL    HW2 3006   1.698   1.738   6.677
  776SOL     OW 3007   0.078   1.216   6.614
  776SOL    HW1 3008   0.084   1.242   6.706
  776SOL    HW2 3009   3.986   1.227   6.592
  777SOL     OW 3010   0.680   1.671   7.320
  777SOL    HW1 3011   0.620   1.743   7.306
  777SOL    HW2 3012   0.743   1.677   7.248
  778SOL     OW 3013   1.715   0.123   6.075
  778SOL    HW1 3014   1.793   0.134   6.021
  778SOL    HW2 3015   1.706   0.029   6.085
  779SOL     OW 3016   0.175   1.762   7.417
  779SOL    HW1 3017   0.119   1.709   7.475
  779SOL    HW2 3018   0.215   1.827   7.475
  780SOL     OW 3019   1.277   0.923   6.254
  780SOL    HW1 3020   1.350   0.863   6.272
  780SOL    HW2 3021   1.318   0.996   6.207
  781SOL     OW 3022   0.807   1.274   7.012
  781SOL    HW1 3023   0.779   1.317   7.092
  781SOL    HW2 3024   0.736   1.291   6.949
  782SOL     OW 3025   0.669   1.623   5.740
  782SOL    HW1 3026   0.680   1.636   5.646
  782SOL    HW2 3027   0.613   1.546   5.747
  783SOL     OW 3028   1.839   0.178   6.551
  783SOL    HW1 3029   1.872   0.114   6.489
  783SOL    HW2 3030   1.750   0.197   6.522
  784SOL     OW 3031   0.275   0.322   6.300
  784SOL    HW1 3032   0.190   0.356   6.273
  784SOL    HW2 3033   0.267   0.307   6.394
  785SOL     OW 3034   1.202   1.608   5.618
  785SOL    HW1 3035   1.192   1.515   5.639
  785SOL    HW2 3036   1.137   1.623   5.549
  786SOL     OW 3037   0.823   1.006   6.960
  786SOL    HW1 3038   0.866   1.002   6.874
  786SOL    HW2 3039   0.820   1.099   6.980
  787SOL     OW 3040   0.917   0.912   5.877
  787SOL    HW1 3041   0.978   0.944   5.811
  787SOL    HW2 3042   0.965   0.843   5.922
  788SOL     OW 3043   1.484   1.618   5.620
  788SOL    HW1 3044   1.389   1.621   5.605
  788SOL    HW2 3045   1.521   1.628   5.532
  789SOL     OW 3046   0.373   1.301   7.078
  789SOL    HW1 3047   0.359   1.382   7.028
  789SOL    HW2 3048   0.296   1.248   7.059
  790SOL     OW 3049   1.061   1.103   6.294
  790SOL    HW1 3050   0.987   1.056   6.332
  790SOL    HW2 3051   1.124   1.034   6.271
  791SOL     OW 3052   1.015   0.250   6.556
  791SOL    HW1 3053   1.005   0.199   6.476
  791SOL    HW2 3054   1.012   0.184   6.626
  792SOL     OW 3055   0.607   1.487   6.069
  792SOL    HW1 3056   0.654   1.439   6.001
  792SOL    HW2 3057   0.532   1.526   6.024
  793SOL     OW 3058   1.721   0.394   6.957
  793SOL    HW1 3059   1.793   0.457   6.962
  793SOL    HW2 3060   1.754   0.323   6.903
  794SOL     OW 3061   0.254   1.341   5.880
  794SOL    HW1 3062   0.161   1.346   5.862
  794SOL    HW2 3063   0.264   1.381   5.966
  795SOL     OW 3064   0.109   0.999   7.305
  795SOL    HW1 3065   0.049   0.992   7.379
  795SOL    HW2 3066   0.195   0.981   7.341
  796SOL     OW 3067   0.694   0.256   7.089
  796SOL    HW1 3068   0.762   0.203   7.047
  796SOL    HW2 3069   0.723   0.265   7.180
  797SOL     OW 3070   0.088   0.319   5.611
  797SOL    HW1 3071   3.993   0.318   5.604
  797SOL    HW2 3072   0.115   0.402   5.571
  798SOL     OW 3073   1.425   0.862   6.987
  798SOL    HW1 3074   1.376   0.919   6.928
  798SOL    HW2 3075   1.514   0.862   6.952
  799SOL     OW 3076   0.036   0.172   5.870
  799SOL    HW1 3077   0.037   0.228   5.793
  799SOL    HW2 3078   0.111   0.201   5.922
  800SOL     OW 3079   1.164   1.337   5.701
  800SOL    HW1 3080   1.072   1.315   5.686
  800SOL    HW2 3081   1.170   1.352   5.795
  801SOL     OW 3082   0.622   0.828   7.023
  801SOL    HW1 3083   0.678   0.904   7.007
  801SOL    HW2 3084   0.682   0.755   7.031
  802SOL     OW 3085   0.717   0.561   7.292
  802SOL    HW1 3086   0.762   0.623   7.350
  802SOL    HW2 3087   0.743   0.475   7.325
  803SOL     OW 3088   0.376   1.745   7.146
  803SOL    HW1 3089   0.289   1.783   7.133
  803SOL    HW2 3090   0.360   1.662   7.190
  804SOL     OW 3091   1.661   0.875   6.833
  804SOL    HW1 3092   1.659   0.783   6.807
  804SOL    HW2 3093   1.680   0.922   6.752
  805SOL     OW 3094   1.223   0.338   6.027
  805SOL    HW1 3095   1.291   0.270   6.020
  805SOL    HW2 3096   1.241   0.381   6.110
  806SOL     OW 3097   0.590   0.737   6.258
  806SOL    HW1 3098   0.627   0.824   6.242
  806SOL    HW2 3099   0.523   0.727   6.190
  807SOL     OW 3100   1.751   0.382   7.228
  807SOL    HW1 3101   1.732   0.390   7.135
  807SOL    HW2 3102   1.692   0.313   7.259
  808SOL     OW 3103   1.729   0.931   7.096
  808SOL    HW1 3104   1.736   1.025   7.112
  808SOL    HW2 3105   1.725   0.923   7.001
  809SOL     OW 3106   0.873   1.365   5.630
  809SOL    HW1 3107   0.827   1.393   5.709
  809SOL    HW2 3108   0.881   1.445   5.578
  810SOL     OW 3109   0.661   1.786   6.525
  810SOL    HW1 3110   0.644   1.878   6.504
  810SOL    HW2 3111   0.756   1.778   6.520
  811SOL     OW 3112   0.870   0.970   6.439
  811SOL    HW1 3113   0.919   0.897   6.478
  811SOL    HW2 3114   0.831   1.015   6.514
  812SOL     OW 3115   1.080   0.991   5.677
  812SOL    HW1 3116   1.057   1.041   5.599
  812SOL    HW2 3117   1.153   0.935   5.649
  813SOL     OW 3118   0.226   1.304   7.443
  813SOL    HW1 3119   0.153   1.249   7.416
  813SOL    HW2 3120   0.214   1.317   7.537
  814SOL     OW 3121   0.124   1.282   6.309
  814SOL    HW1 3122   0.140   1.230   6.388
  814SOL    HW2 3123   0.105   1.218   6.241
  815SOL     OW 3124   0.678   1.406   7.210
  815SOL    HW1 3125   0.600   1.363   7.247
  815SOL    HW2 3126   0.681   1.491   7.254
  816SOL     OW 3127   1.811   0.183   6.824
  816SOL    HW1 3128   1.814   0.089   6.840
  816SOL    HW2 3129   1.826   0.192   6.730
  817SOL     OW 3130   0.446   0.438   6.118
  817SOL    HW1 3131   0.465   0.362   6.063
  817SOL    HW2 3132   0.390   0.403   6.188
  818SOL     OW 3133   0.334   0.558   6.879
  818SOL    HW1 3134   0.390   0.502   6.933
  818SOL    HW2 3135   0.349   0.529   6.790
  819SOL     OW 3136   0.837   1.585   6.262
  819SOL    HW1 3137   0.822   1.652   6.195
  819SOL    HW2 3138   0.761   1.528   6.256
  820SOL     OW 3139   1.460   0.255   6.696
  820SOL    HW1 3140   1.478   0.169   6.733
  820SOL    HW2 3141   1.405   0.298   6.762
  821SOL     OW 3142   1.003   0.027   6.732
  821SOL    HW1 3143   0.921   3.996   6.693
  821SOL    HW2 3144   1.056   3.948   6.741
  822SOL     OW 3145   0.773   1.334   5.904
  822SOL    HW1 3146   0.747   1.242   5.914
  822SOL    HW2 3147   0.855   1.340   5.953
  823SOL     OW 3148   0.621   1.554   6.870
  823SOL    HW1 3149   0.620   1.636   6.918
  823SOL    HW2 3150   0.710   1.549   6.834
  824SOL     OW 3151   1.309   0.074   5.752
  824SOL    HW1 3152   1.320   3.991   5.705
  824SOL    HW2 3153   1.224   0.065   5.795
  825SOL     OW 3154   1.281   0.456   6.270
  825SOL    HW1 3155   1.233   0.539   6.265
  825SOL    HW2 3156   1.283   0.437   6.364
  826SOL     OW 3157   1.587   0.210   6.454
  826SOL    HW1 3158   1.538   0.235   6.532
  826SOL    HW2 3159   1.588   0.288   6.400
  827SOL     OW 3160   0.047   1.047   5.828
  827SOL    HW1 3161   0.141   1.032   5.819
  827SOL    HW2 3162   0.011   0.963   5.854
  828SOL     OW 3163   0.890   1.654   5.918
  828SOL    HW1 3164   0.815   1.637   5.861
  828SOL    HW2 3165   0.861   1.725   5.975
  829SOL     OW 3166   0.232   0.629   7.564
  829SOL    HW1 3167   0.139   0.633   7.585
  829SOL    HW2 3168   0.235   0.599   7.473
  830SOL     OW 3169   0.223   0.290   8.430
  830SOL    HW1 3170   0.246   0.250   8.514
  830SOL    HW2 3171   0.128   0.281   8.424
  831SOL     OW 3172   0.019   0.385   8.084
  831SOL    HW1 3173   3.928   0.399   8.110
  831SOL    HW2 3174   0.025   0.290   8.070
  832SOL     OW 3175   0.582   1.291   8.643
  832SOL    HW1 3176   0.496   1.293   8.601
  832SOL    HW2 3177   0.595   1.381   8.674
  833SOL     OW 3178   1.574   1.508   8.160
  833SOL    HW1 3179   1.531   1.490   8.244
  833SOL    HW2 3180   1.503   1.517   8.097
  834SOL     OW 3181   1.132   0.697   8.144
  834SOL    HW1 3182   1.180   0.779   8.132
  834SOL    HW2 3183   1.084   0.709   8.226
  835SOL     OW 3184   1.775   0.617   7.671
  835SOL    HW1 3185   1.749   0.612   7.579
  835SOL    HW2 3186   1.754   0.530   7.707
  836SOL     OW 3187   0.751   1.138   8.492
  836SOL    HW1 3188   0.689   1.175   8.555
  836SOL    HW2 3189   0.788   1.214   8.447
  837SOL     OW 3190   0.873   0.768   9.272
  837SOL    HW1 3191   0.862   0.839   9.335
  837SOL    HW2 3192   0.895   0.811   9.190
  838SOL     OW 3193   0.684   1.001   8.093
  838SOL    HW1 3194   0.751   0.990   8.161
  838SOL    HW2 3195   0.616   1.053   8.135
  839SOL     OW 3196   0.712   1.149   9.266
  839SOL    HW1 3197   0.760   1.226   9.295
  839SOL    HW2 3198   0.632   1.183   9.227
  840SOL     OW 3199   0.352   1.400   8.527
  840SOL    HW1 3200   0.271   1.378   8.480
  840SOL    HW2 3201   0.399   1.458   8.467
  841SOL     OW 3202   1.460   1.502   8.808
  841SOL    HW1 3203   1.513   1.581   8.816
  841SOL    HW2 3204   1.393   1.511   8.876
  842SOL     OW 3205   0.458   0.409   8.942
  842SOL    HW1 3206   0.540   0.360   8.942
  842SOL    HW2 3207   0.390   0.341   8.946
  843SOL     OW 3208   1.612   0.451   8.183
  843SOL    HW1 3209   1.544   0.482   8.123
  843SOL    HW2 3210   1.626   0.524   8.243
  844SOL     OW 3211   0.219   1.719   7.905
  844SOL    HW1 3212   0.240   1.793   7.962
  844SOL    HW2 3213   0.295   1.711   7.848
  845SOL     OW 3214   1.137   1.342   9.142
  845SOL    HW1 3215   1.179   1.336   9.228
  845SOL    HW2 3216   1.085   1.262   9.134
  846SOL     OW 3217   0.250   1.451   7.987
  846SOL    HW1 3218   0.216   1.539   7.972
  846SOL    HW2 3219   0.182   1.407   8.038
  847SOL     OW 3220   0.247   1.065   8.332
  847SOL    HW1 3221   0.267   0.980   8.370
  847SOL    HW2 3222   0.194   1.109   8.398
  848SOL     OW 3223   0.609   1.793   8.874
  848SOL    HW1 3224   0.527   1.775   8.919
  848SOL    HW2 3225   0.632   1.882   8.901
  849SOL     OW 3226   0.574   0.987   7.587
  849SOL    HW1 3227   0.624   1.030   7.518
  849SOL    HW2 3228   0.616   1.016   7.668
  850SOL     OW 3229   1.583   0.141   8.903
  850SOL    HW1 3230   1.613   0.214   8.849
  850SOL    HW2 3231   1.547   0.183   8.982
  851SOL     OW 3232   0.141   0.652   8.017
  851SOL    HW1 3233   0.099   0.567   8.022
  851SOL    HW2 3234   0.103   0.702   8.090
  852SOL     OW 3235   0.044   1.589   7.585
  852SOL    HW1 3236   0.038   1.497   7.612
  852SOL    HW2 3237   3.959   1.626   7.610
  853SOL     OW 3238   1.692   0.920   8.090
  853SOL    HW1 3239   1.772   0.872   8.071
  853SOL    HW2 3240   1.686   0.985   8.021
  854SOL     OW 3241   0.143   0.756   9.037
  854SOL    HW1 3242   0.238   0.752   9.030
  854SOL    HW2 3243   0.125   0.843   9.072
  855SOL     OW 3244   0.612   1.387   8.186
  855SOL    HW1 3245   0.567   1.303   8.195
  855SOL    HW2 3246   0.597   1.413   8.095
  856SOL     OW 3247   1.286   1.237   8.870
  856SOL    HW1 3248   1.317   1.169   8.810
  856SOL    HW2 3249   1.346   1.231   8.945
  857SOL     OW 3250   0.821   0.005   7.965
  857SOL    HW1 3251   0.867   0.085   7.940
  857SOL    HW2 3252   0.729   0.028   7.964
  858SOL     OW 3253   0.183   0.949   8.727
  858SOL    HW1 3254   0.272   0.914   8.716
  858SOL    HW2 3255   0.132   0.908   8.657
  859SOL     OW 3256   1.543   0.964   7.632
  859SOL    HW1 3257   1.465   0.928   7.673
  859SOL    HW2 3258   1.575   1.029   7.694
  860SOL     OW 3259   1.184   1.810   9.073
  860SOL    HW1 3260   1.192   1.871   8.999
  860SOL    HW2 3261   1.202   1.724   9.035
  861SOL     OW 3262   0.346   0.249   9.294
  861SOL    HW1 3263   0.389   0.332   9.274
  861SOL    HW2 3264   0.255   0.272   9.310
  862SOL     OW 3265   1.465   1.420   8.396
  862SOL    HW1 3266   1.398   1.436   8.463
  862SOL    HW2 3267   1.451   1.328   8.371
  863SOL     OW 3268   1.669   1.730   8.018
  863SOL    HW1 3269   1.642   1.689   7.936
  863SOL    HW2 3270   1.649   1.665   8.085
  864SOL     OW 3271   0.596   0.716   7.715
  864SOL    HW1 3272   0.602   0.800   7.671
  864SOL    HW2 3273   0.533   0.730   7.786
  865SOL     OW 3274   1.274   0.371   8.389
  865SOL    HW1 3275   1.187   0.332   8.397
  865SOL    HW2 3276   1.332   0.309   8.435
  866SOL     OW 3277   1.592   1.663   7.759
  866SOL    HW1 3278   1.663   1.725   7.740
  866SOL    HW2 3279   1.564   1.631   7.674
  867SOL     OW 3280   0.794   0.615   8.901
  867SOL    HW1 3281   0.765   0.589   8.988
  867SOL    HW2 3282   0.758   0.549   8.842
  868SOL     OW 3283   1.392   0.476   9.125
  868SOL    HW1 3284   1.399   0.521   9.209
  868SOL    HW2 3285   1.449   0.399   9.135
  869SOL     OW 3286   0.951   0.887   9.033
  869SOL    HW1 3287   1.006   0.818   8.996
  869SOL    HW2 3288   0.902   0.922   8.959
  870SOL     OW 3289   0.993   0.402   8.684
  870SOL    HW1 3290   0.907   0.421   8.721
  870SOL    HW2 3291   0.975   0.375   8.595
  871SOL     OW 3292   1.052   0.699   7.873
  871SOL    HW1 3293   1.070   0.692   7.967
  871SOL    HW2 3294   0.970   0.653   7.861
  872SOL     OW 3295   0.081   0.830   8.238
  872SOL    HW1 3296   0.152   0.795   8.292
  872SOL    HW2 3297   0.105   0.921   8.222
  873SOL     OW 3298   0.130   1.866   9.027
  873SOL    HW1 3299   0.138   1.830   9.115
  873SOL    HW2 3300   0.038   1.855   9.005
  874SOL     OW 3301   0.895   0.353   7.647
  874SOL    HW1 3302   0.937   0.413   7.586
  874SOL    HW2 3303   0.892   0.269   7.600
  875SOL     OW 3304   1.707   0.575   9.278
  875SOL    HW1 3305   1.670   0.649   9.229
  875SOL    HW2 3306   1.731   0.511   9.211
  876SOL     OW 3307   1.381   1.136   7.996
  876SOL    HW1 3308   1.469   1.159   7.968
  876SOL    HW2 3309   1.324   1.198   7.950
  877SOL     OW 3310   0.562   0.195   8.328
  877SOL    HW1 3311   0.567   0.220   8.420
  877SOL    HW2 3312   0.547   0.277   8.282
  878SOL     OW 3313   1.005   1.441   7.920
  878SOL    HW1 3314   0.953   1.508   7.876
  878SOL    HW2 3315   0.990   1.457   8.013
  879SOL     OW 3316   0.365   1.823   8.320
  879SOL    HW1 3317   0.427   1.751   8.330
  879SOL    HW2 3318   0.417   1.902   8.335
  880SOL     OW 3319   1.799   1.029   8.336
  880SOL    HW1 3320   1.749   1.033   8.254
  880SOL    HW2 3321   1.734   1.046   8.404
  881SOL     OW 3322   1.227   1.540   8.961
  881SOL    HW1 3323   1.215   1.467   9.022
  881SOL    HW2 3324   1.162   1.524   8.893
  882SOL     OW 3325   0.311   0.953   7.689
  882SOL    HW1 3326   0.394   0.974   7.648
  882SOL    HW2 3327   0.299   0.859   7.671
  883SOL     OW 3328   1.482   0.749   8.177
  883SOL    HW1 3329   1.478   0.709   8.263
  883SOL    HW2 3330   1.559   0.806   8.180
  884SOL     OW 3331   0.470   1.261   9.186
  884SOL    HW1 3332   0.444   1.269   9.094
  884SOL    HW2 3333   0.387   1.264   9.234
  885SOL     OW 3334   1.073   1.775   7.764
  885SOL    HW1 3335   1.004   1.709   7.772
  885SOL    HW2 3336   1.109   1.763   7.676
  886SOL     OW 3337   0.201   0.293   8.948
  886SOL    HW1 3338   0.108   0.313   8.949
  886SOL    HW2 3339   0.210   0.218   9.007
  887SOL     OW 3340   0.463   1.740   7.762
  887SOL    HW1 3341   0.508   1.794   7.827
  887SOL    HW2 3342   0.533   1.701   7.710
  888SOL     OW 3343   1.443   0.170   7.854
  888SOL    HW1 3344   1.394   0.102   7.806
  888SOL    HW2 3345   1.512   0.122   7.900
  889SOL     OW 3346   0.252   1.790   8.679
  889SOL    HW1 3347   0.298   1.724   8.730
  889SOL    HW2 3348   0.252   1.755   8.590
  890SOL     OW 3349   0.939   1.699   8.344
  890SOL    HW1 3350   1.018   1.650   8.364
  890SOL    HW2 3351   0.896   1.650   8.275
  891SOL     OW 3352   0.398   0.695   7.918
  891SOL    HW1 3353   0.423   0.604   7.934
  891SOL    HW2 3354   0.306   0.699   7.944
  892SOL     OW 3355   1.529   0.228   9.175
  892SOL    HW1 3356   1.523   0.252   9.267
  892SOL    HW2 3357   1.514   0.133   9.174
  893SOL     OW 3358   0.646   0.128   7.551
  893SOL    HW1 3359   0.667   0.043   7.590
  893SOL    HW2 3360   0.585   0.107   7.480
  894SOL     OW 3361   0.776   0.285   9.217
  894SOL    HW1 3362   0.852   0.228   9.218
  894SOL    HW2 3363   0.721   0.252   9.289
  895SOL     OW 3364   0.875   1.522   8.642
  895SOL    HW1 3365   0.859   1.485   8.556
  895SOL    HW2 3366   0.945   1.468   8.679
  896SOL     OW 3367   1.339   0.587   8.879
  896SOL    HW1 3368   1.370   0.559   8.965
  896SOL    HW2 3369   1.374   0.676   8.869
  897SOL     OW 3370   0.817   1.391   8.392
  897SOL    HW1 3371   0.902   1.380   8.350
  897SOL    HW2 3372   0.755   1.396   8.319
  898SOL     OW 3373   0.930   0.512   8.347
  898SOL    HW1 3374   0.905   0.504   8.255
  898SOL    HW2 3375   0.955   0.423   8.374
  899SOL     OW 3376   0.547   0.055   7.935
  899SOL    HW1 3377   0.473   0.063   7.996
  899SOL    HW2 3378   0.548   0.139   7.889
  900SOL     OW 3379   0.350   0.034   7.647
  900SOL    HW1 3380   0.358   0.087   7.568
  900SOL    HW2 3381   0.437   0.039   7.688
  901SOL     OW 3382   0.944   0.250   7.907
  901SOL    HW1 3383   0.918   0.290   7.824
  901SOL    HW2 3384   1.039   0.256   7.907
  902SOL     OW 3385   1.079   0.684   8.906
  902SOL    HW1 3386   1.010   0.618   8.912
  902SOL    HW2 3387   1.160   0.634   8.901
  903SOL     OW 3388   1.219   1.572   8.246
  903SOL    HW1 3389   1.236   1.637   8.177
  903SOL    HW2 3390   1.291   1.584   8.308
  904SOL     OW 3391   0.466   1.151   8.182
  904SOL    HW1 3392   0.395   1.125   8.241
  904SOL    HW2 3393   0.430   1.135   8.094
  905SOL     OW 3394   1.266   1.792   8.062
  905SOL    HW1 3395   1.312   1.859   8.012
  905SOL    HW2 3396   1.192   1.837   8.102
  906SOL     OW 3397   1.021   0.541   7.478
  906SOL    HW1 3398   0.978   0.624   7.459
  906SOL    HW2 3399   1.086   0.563   7.545
  907SOL     OW 3400   0.081   0.574   8.841
  907SOL    HW1 3401   0.170   0.556   8.811
  907SOL    HW2 3402   0.091   0.646   8.904
  908SOL     OW 3403   0.572   0.231   8.607
  908SOL    HW1 3404   0.593   0.138   8.615
  908SOL    HW2 3405   0.481   0.237   8.637
  909SOL     OW 3406   0.870   0.461   8.086
  909SOL    HW1 3407   0.821   0.514   8.024
  909SOL    HW2 3408   0.891   0.381   8.038
  910SOL     OW 3409   0.997   0.038   8.230
  910SOL    HW1 3410   0.959   0.069   8.147
  910SOL    HW2 3411   1.009   3.944   8.217
  911SOL     OW 3412   1.442   1.161   8.309
  911SOL    HW1 3413   1.369   1.101   8.296
  911SOL    HW2 3414   1.481   1.170   8.222
  912SOL     OW 3415   1.464   0.608   8.420
  912SOL    HW1 3416   1.409   0.530   8.425
  912SOL    HW2 3417   1.523   0.600   8.495
  913SOL     OW 3418   1.839   0.815   7.841
  913SOL    HW1 3419   1.898   0.763   7.895
  913SOL    HW2 3420   1.813   0.757   7.770
  914SOL     OW 3421   0.486   1.424   7.608
  914SOL    HW1 3422   0.409   1.391   7.656
  914SOL    HW2 3423   0.479   1.383   7.522
  915SOL     OW 3424   1.657   1.246   8.105
  915SOL    HW1 3425   1.752   1.238   8.117
  915SOL    HW2 3426   1.639   1.339   8.118
  916SOL     OW 3427   1.396   0.575   7.516
  916SOL    HW1 3428   1.333   0.556   7.586
  916SOL    HW2 3429   1.481   0.563   7.557
  917SOL     OW 3430   0.556   0.270   7.765
  917SOL    HW1 3431   0.606   0.231   7.694
  917SOL    HW2 3432   0.528   0.355   7.731
  918SOL     OW 3433   1.749   1.241   9.015
  918SOL    HW1 3434   1.836   1.202   9.010
  918SOL    HW2 3435   1.765   1.331   9.042
  919SOL     OW 3436   1.055   1.355   8.782
  919SOL    HW1 3437   0.980   1.322   8.831
  919SOL    HW2 3438   1.131   1.312   8.822
  920SOL     OW 3439   1.609   1.626   9.103
  920SOL    HW1 3440   1.602   1.663   9.015
  920SOL    HW2 3441   1.692   1.579   9.103
  921SOL     OW 3442   1.134   1.209   8.552
  921SOL    HW1 3443   1.072   1.246   8.615
  921SOL    HW2 3444   1.103   1.242   8.467
  922SOL     OW 3445   1.620   1.097   8.527
  922SOL    HW1 3446   1.613   1.159   8.599
  922SOL    HW2 3447   1.545   1.116   8.471
  923SOL     OW 3448   0.912   0.117   8.849
  923SOL    HW1 3449   0.932   0.089   8.760
  923SOL    HW2 3450   0.993   0.158   8.879
  924SOL     OW 3451   0.984   1.115   9.172
  924SOL    HW1 3452   0.893   1.132   9.194
  924SOL    HW2 3453   0.981   1.037   9.116
  925SOL     OW 3454   0.705   1.060   7.819
  925SOL    HW1 3455   0.693   1.043   7.912
  925SOL    HW2 3456   0.782   1.007   7.795
  926SOL     OW 3457   0.423   0.818   8.701
  926SOL    HW1 3458   0.492   0.824   8.768
  926SOL    HW2 3459   0.389   0.729   8.711
  927SOL     OW 3460   1.265   0.374   8.726
  927SOL    HW1 3461   1.299   0.453   8.769
  927SOL    HW2 3462   1.178   0.399   8.696
  928SOL     OW 3463   0.065   1.579   8.794
  928SOL    HW1 3464   0.071   1.629   8.712
  928SOL    HW2 3465   0.156   1.568   8.822
  929SOL     OW 3466   0.366   1.103   7.930
  929SOL    HW1 3467   0.366   1.182   7.877
  929SOL    HW2 3468   0.367   1.031   7.866
  930SOL     OW 3469   0.554   0.533   8.305
  930SOL    HW1 3470   0.567   0.592   8.231
  930SOL    HW2 3471   0.620   0.559   8.369
  931SOL     OW 3472   1.258   1.342   7.871
  931SOL    HW1 3473   1.305   1.422   7.896
  931SOL    HW2 3474   1.166   1.366   7.880
  932SOL     OW 3475   1.286   1.460   8.597
  932SOL    HW1 3476   1.342   1.464   8.674
  932SOL    HW2 3477   1.232   1.383   8.610
  933SOL     OW 3478   1.575   0.635   7.936
  933SOL    HW1 3479   1.531   0.688   8.002
  933SOL    HW2 3480   1.621   0.698   7.880
  934SOL     OW 3481   0.346   1.527   8.766
  934SOL    HW1 3482   0.336   1.477   8.685
  934SOL    HW2 3483   0.440   1.542   8.774
  935SOL     OW 3484   0.419   0.736   9.049
  935SOL    HW1 3485   0.482   0.781   8.993
  935SOL    HW2 3486   0.455   0.649   9.061
  936SOL     OW 3487   1.606   0.781   9.134
  936SOL    HW1 3488   1.520   0.823   9.127
  936SOL    HW2 3489   1.658   0.822   9.065
  937SOL     OW 3490   1.008   0.138   9.227
  937SOL    HW1 3491   1.065   0.207   9.194
  937SOL    HW2 3492   0.999   0.077   9.154
  938SOL     OW 3493   0.485   0.037   9.212
  938SOL    HW1 3494   0.490   0.049   9.117
  938SOL    HW2 3495   0.422   0.103   9.241
  939SOL     OW 3496   0.585   0.875   8.480
  939SOL    HW1 3497   0.618   0.965   8.482
  939SOL    HW2 3498   0.529   0.868   8.557
  940SOL     OW 3499   1.351   0.857   8.475
  940SOL    HW1 3500   1.267   0.846   8.429
  940SOL    HW2 3501   1.395   0.772   8.465
  941SOL     OW 3502   1.199   0.537   7.704
  941SOL    HW1 3503   1.208   0.458   7.758
  941SOL    HW2 3504   1.157   0.601   7.762
  942SOL     OW 3505   0.311   0.212   8.687
  942SOL    HW1 3506   0.267   0.248   8.764
  942SOL    HW2 3507   0.296   0.117   8.694
  943SOL     OW 3508   0.060   1.306   8.729
  943SOL    HW1 3509   0.091   1.263   8.809
  943SOL    HW2 3510   0.053   1.398   8.753
  944SOL     OW 3511   0.724   0.633   8.500
  944SOL    HW1 3512   0.799   0.620   8.442
  944SOL    HW2 3513   0.694   0.722   8.479
  945SOL     OW 3514   1.738   0.959   9.305
  945SOL    HW1 3515   1.693   0.894   9.250
  945SOL    HW2 3516   1.678   0.976   9.377
  946SOL     OW 3517   0.332   0.054   8.105
  946SOL    HW1 3518   0.303   0.145   8.106
  946SOL    HW2 3519   0.297   0.017   8.186
  947SOL     OW 3520   1.609   0.393   7.827
  947SOL    HW1 3521   1.564   0.326   7.878
  947SOL    HW2 3522   1.589   0.475   7.873
  948SOL     OW 3523   1.029   0.759   8.406
  948SOL    HW1 3524   1.022   0.776   8.500
  948SOL    HW2 3525   1.002   0.668   8.396
  949SOL     OW 3526   0.981   1.566   9.168
  949SOL    HW1 3527   0.966   1.610   9.084
  949SOL    HW2 3528   1.025   1.484   9.144
  950SOL     OW 3529   1.854   1.501   9.051
  950SOL    HW1 3530   1.871   1.533   8.963
  950SOL    HW2 3531   1.937   1.511   9.097
  951SOL     OW 3532   0.354   0.922   9.246
  951SOL    HW1 3533   0.432   0.942   9.298
  951SOL    HW2 3534   0.384   0.854   9.185
  952SOL     OW 3535   1.504   0.272   7.582
  952SOL    HW1 3536   1.430   0.212   7.594
  952SOL    HW2 3537   1.516   0.313   7.667
  953SOL     OW 3538   1.282   0.821   7.477
  953SOL    HW1 3539   1.327   0.737   7.483
  953SOL    HW2 3540   1.318   0.862   7.398
  954SOL     OW 3541   1.067   1.338   8.305
  954SOL    HW1 3542   1.072   1.266   8.242
  954SOL    HW2 3543   1.127   1.404   8.270
  955SOL     OW 3544   0.313   0.802   8.398
  955SOL    HW1 3545   0.407   0.818   8.392
  955SOL    HW2 3546   0.306   0.712   8.430
  956SOL     OW 3547   0.339   0.529   8.464
  956SOL    HW1 3548   0.297   0.444   8.446
  956SOL    HW2 3549   0.414   0.532   8.405
  957SOL     OW 3550   1.133   0.380   9.147
  957SOL    HW1 3551   1.085   0.434   9.209
  957SOL    HW2 3552   1.220   0.420   9.142
  958SOL     OW 3553   1.151   0.225   8.930
  958SOL    HW1 3554   1.142   0.280   9.008
  958SOL    HW2 3555   1.178   0.287   8.861
  959SOL     OW 3556   0.001   1.316   7.631
  959SOL    HW1 3557   3.906   1.332   7.634
  959SOL    HW2 3558   0.009   1.222   7.649
  960SOL     OW 3559   0.079   1.800   8.336
  960SOL    HW1 3560   0.087   1.704   8.337
  960SOL    HW2 3561   0.169   1.831   8.340
  961SOL     OW 3562   0.498   1.572   8.358
  961SOL    HW1 3563   0.568   1.632   8.384
  961SOL    HW2 3564   0.541   1.509   8.300
  962SOL     OW 3565   0.976   0.788   8.672
  962SOL    HW1 3566   1.033   0.769   8.746
  962SOL    HW2 3567   0.892   0.748   8.695
  963SOL     OW 3568   0.034   0.577   8.560
  963SOL    HW1 3569   0.094   0.523   8.509
  963SOL    HW2 3570   0.061   0.563   8.651
  964SOL     OW 3571   0.211   0.515   9.170
  964SOL    HW1 3572   0.256   0.475   9.096
  964SOL    HW2 3573   0.166   0.591   9.132
  965SOL     OW 3574   1.379   0.935   9.104
  965SOL    HW1 3575   1.401   1.028   9.101
  965SOL    HW2 3576   1.375   0.908   9.013
  966SOL     OW 3577   0.818   0.571   7.813
  966SOL    HW1 3578   0.825   0.496   7.754
  966SOL    HW2 3579   0.744   0.621   7.779
  967SOL     OW 3580   1.639   0.602   8.630
  967SOL    HW1 3581   1.630   0.541   8.703
  967SOL    HW2 3582   1.727   0.585   8.595
  968SOL     OW 3583   0.301   1.544   9.171
  968SOL    HW1 3584   0.254   1.613   9.217
  968SOL    HW2 3585   0.272   1.463   9.212
  969SOL     OW 3586   0.713   0.452   8.702
  969SOL    HW1 3587   0.662   0.375   8.678
  969SOL    HW2 3588   0.702   0.512   8.628
  970SOL     OW 3589   0.923   1.679   8.919
  970SOL    HW1 3590   0.899   1.640   8.835
  970SOL    HW2 3591   0.917   1.774   8.904
  971SOL     OW 3592   0.452   0.492   7.647
  971SOL    HW1 3593   0.516   0.561   7.664
  971SOL    HW2 3594   0.372   0.539   7.622
  972SOL     OW 3595   0.155   1.134   8.923
  972SOL    HW1 3596   0.156   1.084   9.004
  972SOL    HW2 3597   0.170   1.069   8.854
  973SOL     OW 3598   1.322   1.044   8.669
  973SOL    HW1 3599   1.344   0.981   8.601
  973SOL    HW2 3600   1.255   1.100   8.629
  974SOL     OW 3601   1.315   0.856   7.752
  974SOL    HW1 3602   1.239   0.832   7.804
  974SOL    HW2 3603   1.286   0.845   7.661
  975SOL     OW 3604   1.740   1.731   8.583
  975SOL    HW1 3605   1.816   1.754   8.531
  975SOL    HW2 3606   1.725   1.638   8.566
  976SOL     OW 3607   1.244   1.735   8.555
  976SOL    HW1 3608   1.327   1.757   8.513
  976SOL    HW2 3609   1.251   1.641   8.575
  977SOL     OW 3610   0.078   1.216   8.476
  977SOL    HW1 3611   0.084   1.242   8.568
  977SOL    HW2 3612   3.986   1.228   8.454
  978SOL     OW 3613   0.680   1.669   9.185
  978SOL    HW1 3614   0.620   1.743   9.175
  978SOL    HW2 3615   0.748   1.683   9.118
  979SOL     OW 3616   1.715   0.123   7.937
  979SOL    HW1 3617   1.793   0.134   7.883
  979SOL    HW2 3618   1.706   0.028   7.947
  980SOL     OW 3619   1.399   1.570   7.950
  980SOL    HW1 3620   1.454   1.604   7.879
  980SOL    HW2 3621   1.345   1.645   7.976
  981SOL     OW 3622   0.176   1.762   9.279
  981SOL    HW1 3623   0.120   1.710   9.336
  981SOL    HW2 3624   0.216   1.827   9.337
  982SOL     OW 3625   1.277   0.924   8.122
  982SOL    HW1 3626   1.351   0.865   8.132
  982SOL    HW2 3627   1.311   0.996   8.068
  983SOL     OW 3628   0.808   1.274   8.875
  983SOL    HW1 3629   0.779   1.316   8.956
  983SOL    HW2 3630   0.736   1.291   8.813
  984SOL     OW 3631   0.663   1.629   7.600
  984SOL    HW1 3632   0.680   1.638   7.506
  984SOL    HW2 3633   0.610   1.550   7.606
  985SOL     OW 3634   1.619   1.730   8.838
  985SOL    HW1 3635   1.663   1.734   8.753
  985SOL    HW2 3636   1.606   1.821   8.862
  986SOL     OW 3637   1.840   0.178   8.413
  986SOL    HW1 3638   1.872   0.114   8.350
  986SOL    HW2 3639   1.750   0.197   8.384
  987SOL     OW 3640   0.275   0.322   8.162
  987SOL    HW1 3641   0.190   0.356   8.135
  987SOL    HW2 3642   0.267   0.307   8.256
  988SOL     OW 3643   0.823   1.005   8.822
  988SOL    HW1 3644   0.866   0.999   8.737
  988SOL    HW2 3645   0.821   1.099   8.842
  989SOL     OW 3646   0.913   0.909   7.742
  989SOL    HW1 3647   0.972   0.941   7.674
  989SOL    HW2 3648   0.963   0.841   7.788
  990SOL     OW 3649   0.374   1.303   8.940
  990SOL    HW1 3650   0.359   1.382   8.890
  990SOL    HW2 3651   0.297   1.248   8.922
  991SOL     OW 3652   1.608   1.283   8.731
  991SOL    HW1 3653   1.667   1.269   8.805
  991SOL    HW2 3654   1.548   1.351   8.762
  992SOL     OW 3655   1.058   1.110   8.159
  992SOL    HW1 3656   0.986   1.058   8.195
  992SOL    HW2 3657   1.120   1.045   8.128
  993SOL     OW 3658   1.015   0.250   8.419
  993SOL    HW1 3659   1.005   0.199   8.338
  993SOL    HW2 3660   1.012   0.184   8.488
  994SOL     OW 3661   0.601   1.480   7.931
  994SOL    HW1 3662   0.653   1.434   7.865
  994SOL    HW2 3663   0.528   1.517   7.882
  995SOL     OW 3664   1.721   0.394   8.819
  995SOL    HW1 3665   1.794   0.456   8.824
  995SOL    HW2 3666   1.754   0.323   8.765
  996SOL     OW 3667   0.254   1.341   7.741
  996SOL    HW1 3668   0.160   1.346   7.723
  996SOL    HW2 3669   0.264   1.380   7.828
  997SOL     OW 3670   0.109   0.999   9.166
  997SOL    HW1 3671   0.049   0.991   9.241
  997SOL    HW2 3672   0.195   0.981   9.203
  998SOL     OW 3673   0.694   0.256   8.951
  998SOL    HW1 3674   0.762   0.203   8.909
  998SOL    HW2 3675   0.723   0.265   9.042
  999SOL     OW 3676   0.088   0.318   7.473
  999SOL    HW1 3677   3.993   0.318   7.466
  999SOL    HW2 3678   0.115   0.401   7.433
 1000SOL     OW 3679   1.426   0.856   8.845
 1000SOL    HW1 3680   1.376   0.918   8.791
 1000SOL    HW2 3681   1.515   0.859   8.810
 1001SOL     OW 3682   0.036   0.171   7.732
 1001SOL    HW1 3683   0.037   0.227   7.654
 1001SOL    HW2 3684   0.111   0.200   7.784
 1002SOL     OW 3685   0.622   0.828   8.885
 1002SOL    HW1 3686   0.678   0.904   8.869
 1002SOL    HW2 3687   0.682   0.754   8.893
 1003SOL     OW 3688   1.489   1.789   8.433
 1003SOL    HW1 3689   1.510   1.859   8.371
 1003SOL    HW2 3690   1.572   1.768   8.475
 1004SOL     OW 3691   0.718   0.561   9.154
 1004SOL    HW1 3692   0.763   0.622   9.212
 1004SOL    HW2 3693   0.743   0.474   9.187
 1005SOL     OW 3694   1.473   1.196   9.078
 1005SOL    HW1 3695   1.461   1.210   9.172
 1005SOL    HW2 3696   1.566   1.214   9.062
 1006SOL     OW 3697   0.377   1.744   9.004
 1006SOL    HW1 3698   0.290   1.782   8.992
 1006SOL    HW2 3699   0.362   1.661   9.050
 1007SOL     OW 3700   1.665   0.880   8.704
 1007SOL    HW1 3701   1.661   0.795   8.660
 1007SOL    HW2 3702   1.655   0.944   8.633
 1008SOL     OW 3703   1.222   0.337   7.890
 1008SOL    HW1 3704   1.290   0.270   7.883
 1008SOL    HW2 3705   1.240   0.382   7.972
 1009SOL     OW 3706   0.589   0.737   8.120
 1009SOL    HW1 3707   0.627   0.823   8.105
 1009SOL    HW2 3708   0.523   0.727   8.052
 1010SOL     OW 3709   1.750   0.384   9.091
 1010SOL    HW1 3710   1.732   0.390   8.997
 1010SOL    HW2 3711   1.693   0.313   9.122
 1011SOL     OW 3712   1.748   0.934   8.959
 1011SOL    HW1 3713   1.738   1.028   8.972
 1011SOL    HW2 3714   1.730   0.920   8.866
 1012SOL     OW 3715   0.842   1.369   7.477
 1012SOL    HW1 3716   0.828   1.393   7.569
 1012SOL    HW2 3717   0.873   1.449   7.436
 1013SOL     OW 3718   0.663   1.786   8.390
 1013SOL    HW1 3719   0.644   1.877   8.368
 1013SOL    HW2 3720   0.759   1.779   8.381
 1014SOL     OW 3721   0.868   0.968   8.301
 1014SOL    HW1 3722   0.919   0.896   8.339
 1014SOL    HW2 3723   0.831   1.014   8.377
 1015SOL     OW 3724   1.069   0.979   7.536
 1015SOL    HW1 3725   1.051   1.036   7.462
 1015SOL    HW2 3726   1.146   0.929   7.510
 1016SOL     OW 3727   1.843   1.548   8.290
 1016SOL    HW1 3728   1.765   1.540   8.235
 1016SOL    HW2 3729   1.833   1.478   8.355
 1017SOL     OW 3730   0.227   1.304   9.305
 1017SOL    HW1 3731   0.154   1.249   9.277
 1017SOL    HW2 3732   0.213   1.317   9.398
 1018SOL     OW 3733   0.123   1.282   8.172
 1018SOL    HW1 3734   0.140   1.229   8.249
 1018SOL    HW2 3735   0.105   1.218   8.103
 1019SOL     OW 3736   0.683   1.406   9.078
 1019SOL    HW1 3737   0.603   1.364   9.109
 1019SOL    HW2 3738   0.679   1.494   9.116
 1020SOL     OW 3739   1.811   0.183   8.685
 1020SOL    HW1 3740   1.814   0.089   8.702
 1020SOL    HW2 3741   1.826   0.192   8.591
 1021SOL     OW 3742   0.445   0.438   7.979
 1021SOL    HW1 3743   0.466   0.362   7.925
 1021SOL    HW2 3744   0.390   0.403   8.049
 1022SOL     OW 3745   1.699   1.469   8.537
 1022SOL    HW1 3746   1.617   1.455   8.489
 1022SOL    HW2 3747   1.699   1.403   8.606
 1023SOL     OW 3748   0.334   0.559   8.741
 1023SOL    HW1 3749   0.390   0.502   8.795
 1023SOL    HW2 3750   0.349   0.530   8.651
 1024SOL     OW 3751   0.828   1.578   8.126
 1024SOL    HW1 3752   0.819   1.634   8.048
 1024SOL    HW2 3753   0.752   1.520   8.122
 1025SOL     OW 3754   1.460   0.255   8.558
 1025SOL    HW1 3755   1.478   0.168   8.595
 1025SOL    HW2 3756   1.405   0.297   8.624
 1026SOL     OW 3757   1.002   0.027   8.594
 1026SOL    HW1 3758   0.920   3.996   8.555
 1026SOL    HW2 3759   1.056   3.948   8.602
 1027SOL     OW 3760   0.772   1.329   7.767
 1027SOL    HW1 3761   0.743   1.239   7.773
 1027SOL    HW2 3762   0.858   1.329   7.809
 1028SOL     OW 3763   0.620   1.557   8.735
 1028SOL    HW1 3764   0.622   1.639   8.784
 1028SOL    HW2 3765   0.708   1.549   8.697
 1029SOL     OW 3766   1.310   0.073   7.616
 1029SOL    HW1 3767   1.318   3.991   7.566
 1029SOL    HW2 3768   1.225   0.066   7.659
 1030SOL     OW 3769   1.280   0.456   8.132
 1030SOL    HW1 3770   1.233   0.539   8.126
 1030SOL    HW2 3771   1.283   0.437   8.226
 1031SOL     OW 3772   1.588   0.210   8.316
 1031SOL    HW1 3773   1.539   0.235   8.395
 1031SOL    HW2 3774   1.588   0.289   8.262
 1032SOL     OW 3775   0.048   1.048   7.689
 1032SOL    HW1 3776   0.142   1.032   7.680
 1032SOL    HW2 3777   0.012   0.964   7.718
 1033SOL     OW 3778   0.848   1.634   7.810
 1033SOL    HW1 3779   0.782   1.627   7.741
 1033SOL    HW2 3780   0.829   1.717   7.853
 1034SOL     OW 3781   0.232   0.629   9.426
 1034SOL    HW1 3782   0.139   0.633   9.447
 1034SOL    HW2 3783   0.235   0.599   9.335
 1035SOL     OW 3784   0.223   0.290  10.292
 1035SOL    HW1 3785   0.246   0.250  10.376
 1035SOL    HW2 3786   0.128   0.281  10.286
 1036SOL     OW 3787   0.019   0.384   9.946
 1036SOL    HW1 3788   3.928   0.399   9.971
 1036SOL    HW2 3789   0.025   0.290   9.933
 1037SOL     OW 3790   0.582   1.292  10.505
 1037SOL    HW1 3791   0.496   1.293  10.463
 1037SOL    HW2 3792   0.595   1.381  10.536
 1038SOL     OW 3793   1.570   1.514  10.019
 1038SOL    HW1 3794   1.527   1.493  10.102
 1038SOL    HW2 3795   1.498   1.520   9.956
 1039SOL     OW 3796   1.133   0.699  10.005
 1039SOL    HW1 3797   1.181   0.781   9.994
 1039SOL    HW2 3798   1.085   0.710  10.087
 1040SOL     OW 3799   1.770   0.619   9.534
 1040SOL    HW1 3800   1.747   0.612   9.441
 1040SOL    HW2 3801   1.752   0.533   9.570
 1041SOL     OW 3802   0.751   1.138  10.354
 1041SOL    HW1 3803   0.689   1.175  10.417
 1041SOL    HW2 3804   0.788   1.214  10.309
 1042SOL     OW 3805   0.873   0.768  11.135
 1042SOL    HW1 3806   0.862   0.839  11.197
 1042SOL    HW2 3807   0.895   0.811  11.052
 1043SOL     OW 3808   0.685   1.001   9.955
 1043SOL    HW1 3809   0.751   0.990  10.023
 1043SOL    HW2 3810   0.616   1.053   9.996
 1044SOL     OW 3811   0.712   1.149  11.128
 1044SOL    HW1 3812   0.760   1.226  11.157
 1044SOL    HW2 3813   0.632   1.183  11.089
 1045SOL     OW 3814   0.352   1.400  10.389
 1045SOL    HW1 3815   0.271   1.378  10.343
 1045SOL    HW2 3816   0.398   1.458  10.329
 1046SOL     OW 3817   1.460   1.502  10.669
 1046SOL    HW1 3818   1.514   1.581  10.678
 1046SOL    HW2 3819   1.394   1.511  10.737
 1047SOL     OW 3820   0.458   0.408  10.804
 1047SOL    HW1 3821   0.541   0.360  10.804
 1047SOL    HW2 3822   0.390   0.341  10.808
 1048SOL     OW 3823   1.612   0.451  10.045
 1048SOL    HW1 3824   1.544   0.482   9.986
 1048SOL    HW2 3825   1.626   0.523  10.106
 1049SOL     OW 3826   0.219   1.720   9.767
 1049SOL    HW1 3827   0.240   1.793   9.824
 1049SOL    HW2 3828   0.296   1.711   9.710
 1050SOL     OW 3829   1.137   1.342  11.004
 1050SOL    HW1 3830   1.179   1.336  11.090
 1050SOL    HW2 3831   1.085   1.262  10.996
 1051SOL     OW 3832   0.252   1.452   9.849
 1051SOL    HW1 3833   0.216   1.539   9.835
 1051SOL    HW2 3834   0.185   1.406   9.901
 1052SOL     OW 3835   0.248   1.065  10.194
 1052SOL    HW1 3836   0.268   0.980  10.232
 1052SOL    HW2 3837   0.195   1.109  10.260
 1053SOL     OW 3838   0.609   1.793  10.736
 1053SOL    HW1 3839   0.527   1.775  10.781
 1053SOL    HW2 3840   0.632   1.882  10.763
 1054SOL     OW 3841   0.575   0.987   9.450
 1054SOL    HW1 3842   0.624   1.030   9.380
 1054SOL    HW2 3843   0.616   1.017   9.531
 1055SOL     OW 3844   1.582   0.141  10.765
 1055SOL    HW1 3845   1.613   0.214  10.711
 1055SOL    HW2 3846   1.547   0.183  10.844
 1056SOL     OW 3847   0.141   0.653   9.879
 1056SOL    HW1 3848   0.099   0.567   9.884
 1056SOL    HW2 3849   0.103   0.702   9.952
 1057SOL     OW 3850   0.044   1.589   9.447
 1057SOL    HW1 3851   0.038   1.497   9.474
 1057SOL    HW2 3852   3.959   1.626   9.471
 1058SOL     OW 3853   1.687   0.917   9.953
 1058SOL    HW1 3854   1.771   0.876   9.933
 1058SOL    HW2 3855   1.667   0.969   9.876
 1059SOL     OW 3856   1.649   1.105   9.739
 1059SOL    HW1 3857   1.736   1.107   9.699
 1059SOL    HW2 3858   1.655   1.167   9.812
 1060SOL     OW 3859   0.143   0.756  10.899
 1060SOL    HW1 3860   0.239   0.752  10.892
 1060SOL    HW2 3861   0.125   0.843  10.934
 1061SOL     OW 3862   0.613   1.388  10.047
 1061SOL    HW1 3863   0.567   1.304  10.055
 1061SOL    HW2 3864   0.598   1.414   9.956
 1062SOL     OW 3865   1.286   1.237  10.732
 1062SOL    HW1 3866   1.317   1.169  10.672
 1062SOL    HW2 3867   1.346   1.231  10.807
 1063SOL     OW 3868   0.821   0.005   9.827
 1063SOL    HW1 3869   0.866   0.085   9.802
 1063SOL    HW2 3870   0.728   0.028   9.826
 1064SOL     OW 3871   0.184   0.949  10.589
 1064SOL    HW1 3872   0.272   0.914  10.578
 1064SOL    HW2 3873   0.132   0.908  10.520
 1065SOL     OW 3874   1.531   0.997   9.510
 1065SOL    HW1 3875   1.462   0.940   9.543
 1065SOL    HW2 3876   1.574   1.031   9.589
 1066SOL     OW 3877   1.184   1.810  10.935
 1066SOL    HW1 3878   1.192   1.871  10.861
 1066SOL    HW2 3879   1.202   1.724  10.897
 1067SOL     OW 3880   0.346   0.249  11.156
 1067SOL    HW1 3881   0.389   0.332  11.136
 1067SOL    HW2 3882   0.255   0.272  11.172
 1068SOL     OW 3883   1.465   1.419  10.257
 1068SOL    HW1 3884   1.398   1.435  10.324
 1068SOL    HW2 3885   1.451   1.328  10.232
 1069SOL     OW 3886   1.661   1.739   9.865
 1069SOL    HW1 3887   1.631   1.700   9.783
 1069SOL    HW2 3888   1.645   1.671   9.931
 1070SOL     OW 3889   0.596   0.716   9.577
 1070SOL    HW1 3890   0.600   0.801   9.533
 1070SOL    HW2 3891   0.533   0.730   9.648
 1071SOL     OW 3892   1.274   0.371  10.251
 1071SOL    HW1 3893   1.187   0.332  10.259
 1071SOL    HW2 3894   1.332   0.310  10.297
 1072SOL     OW 3895   1.575   1.672   9.606
 1072SOL    HW1 3896   1.665   1.694   9.583
 1072SOL    HW2 3897   1.534   1.649   9.523
 1073SOL     OW 3898   0.794   0.616  10.763
 1073SOL    HW1 3899   0.765   0.589  10.850
 1073SOL    HW2 3900   0.758   0.549  10.704
 1074SOL     OW 3901   1.392   0.476  10.987
 1074SOL    HW1 3902   1.399   0.521  11.071
 1074SOL    HW2 3903   1.449   0.399  10.997
 1075SOL     OW 3904   0.951   0.887  10.895
 1075SOL    HW1 3905   1.006   0.818  10.858
 1075SOL    HW2 3906   0.902   0.922  10.821
 1076SOL     OW 3907   0.993   0.402  10.546
 1076SOL    HW1 3908   0.907   0.422  10.583
 1076SOL    HW2 3909   0.975   0.374  10.457
 1077SOL     OW 3910   1.053   0.700   9.735
 1077SOL    HW1 3911   1.070   0.693   9.829
 1077SOL    HW2 3912   0.970   0.654   9.722
 1078SOL     OW 3913   0.082   0.830  10.100
 1078SOL    HW1 3914   0.152   0.795  10.154
 1078SOL    HW2 3915   0.105   0.922  10.085
 1079SOL     OW 3916   0.130   1.866  10.889
 1079SOL    HW1 3917   0.138   1.830  10.977
 1079SOL    HW2 3918   0.038   1.855  10.867
 1080SOL     OW 3919   0.895   0.352   9.509
 1080SOL    HW1 3920   0.937   0.413   9.447
 1080SOL    HW2 3921   0.891   0.269   9.462
 1081SOL     OW 3922   1.707   0.575  11.140
 1081SOL    HW1 3923   1.670   0.649  11.091
 1081SOL    HW2 3924   1.731   0.511  11.073
 1082SOL     OW 3925   1.379   1.141   9.849
 1082SOL    HW1 3926   1.460   1.131   9.798
 1082SOL    HW2 3927   1.327   1.204   9.799
 1083SOL     OW 3928   0.562   0.195  10.190
 1083SOL    HW1 3929   0.567   0.220  10.282
 1083SOL    HW2 3930   0.547   0.277  10.144
 1084SOL     OW 3931   1.001   1.443   9.779
 1084SOL    HW1 3932   0.969   1.518   9.729
 1084SOL    HW2 3933   0.980   1.464   9.870
 1085SOL     OW 3934   0.365   1.823  10.182
 1085SOL    HW1 3935   0.427   1.751  10.192
 1085SOL    HW2 3936   0.417   1.902  10.197
 1086SOL     OW 3937   1.800   1.049  10.183
 1086SOL    HW1 3938   1.746   1.035  10.104
 1086SOL    HW2 3939   1.736   1.058  10.254
 1087SOL     OW 3940   1.227   1.540  10.823
 1087SOL    HW1 3941   1.215   1.467  10.885
 1087SOL    HW2 3942   1.162   1.525  10.755
 1088SOL     OW 3943   0.310   0.952   9.552
 1088SOL    HW1 3944   0.394   0.974   9.510
 1088SOL    HW2 3945   0.298   0.859   9.534
 1089SOL     OW 3946   1.480   0.750  10.039
 1089SOL    HW1 3947   1.476   0.708  10.125
 1089SOL    HW2 3948   1.558   0.805  10.042
 1090SOL     OW 3949   0.470   1.261  11.048
 1090SOL    HW1 3950   0.444   1.269  10.956
 1090SOL    HW2 3951   0.387   1.264  11.096
 1091SOL     OW 3952   1.123   1.776   9.540
 1091SOL    HW1 3953   1.048   1.737   9.584
 1091SOL    HW2 3954   1.146   1.714   9.472
 1092SOL     OW 3955   0.201   0.293  10.811
 1092SOL    HW1 3956   0.108   0.313  10.810
 1092SOL    HW2 3957   0.210   0.218  10.870
 1093SOL     OW 3958   1.628   1.381   9.398
 1093SOL    HW1 3959   1.586   1.466   9.382
 1093SOL    HW2 3960   1.560   1.317   9.378
 1094SOL     OW 3961   0.466   1.739   9.626
 1094SOL    HW1 3962   0.510   1.795   9.689
 1094SOL    HW2 3963   0.537   1.702   9.573
 1095SOL     OW 3964   1.443   0.169   9.716
 1095SOL    HW1 3965   1.393   0.101   9.670
 1095SOL    HW2 3966   1.511   0.121   9.763
 1096SOL     OW 3967   0.253   1.790  10.540
 1096SOL    HW1 3968   0.298   1.723  10.592
 1096SOL    HW2 3969   0.251   1.754  10.452
 1097SOL     OW 3970   0.939   1.699  10.207
 1097SOL    HW1 3971   1.018   1.650  10.228
 1097SOL    HW2 3972   0.897   1.649  10.137
 1098SOL     OW 3973   0.398   0.695   9.780
 1098SOL    HW1 3974   0.423   0.603   9.796
 1098SOL    HW2 3975   0.306   0.699   9.806
 1099SOL     OW 3976   1.529   0.228  11.037
 1099SOL    HW1 3977   1.523   0.252  11.129
 1099SOL    HW2 3978   1.514   0.133  11.036
 1100SOL     OW 3979   0.646   0.128   9.413
 1100SOL    HW1 3980   0.667   0.043   9.452
 1100SOL    HW2 3981   0.585   0.107   9.342
 1101SOL     OW 3982   0.775   0.285  11.079
 1101SOL    HW1 3983   0.852   0.228  11.080
 1101SOL    HW2 3984   0.721   0.252  11.151
 1102SOL     OW 3985   0.875   1.522  10.504
 1102SOL    HW1 3986   0.859   1.485  10.418
 1102SOL    HW2 3987   0.945   1.468  10.541
 1103SOL     OW 3988   1.339   0.587  10.741
 1103SOL    HW1 3989   1.370   0.558  10.827
 1103SOL    HW2 3990   1.374   0.676  10.731
 1104SOL     OW 3991   0.817   1.391  10.253
 1104SOL    HW1 3992   0.902   1.380  10.211
 1104SOL    HW2 3993   0.755   1.395  10.180
 1105SOL     OW 3994   0.930   0.512  10.209
 1105SOL    HW1 3995   0.906   0.504  10.117
 1105SOL    HW2 3996   0.955   0.424  10.236
 1106SOL     OW 3997   0.547   0.056   9.797
 1106SOL    HW1 3998   0.473   0.063   9.858
 1106SOL    HW2 3999   0.548   0.139   9.751
 1107SOL     OW 4000   1.428   1.199   9.350
 1107SOL    HW1 4001   1.457   1.124   9.401
 1107SOL    HW2 4002   1.342   1.221   9.387
 1108SOL     OW 4003   0.350   0.034   9.509
 1108SOL    HW1 4004   0.358   0.087   9.430
 1108SOL    HW2 4005   0.437   0.039   9.550
 1109SOL     OW 4006   0.944   0.250   9.769
 1109SOL    HW1 4007   0.918   0.290   9.686
 1109SOL    HW2 4008   1.039   0.256   9.769
 1110SOL     OW 4009   1.079   0.685  10.768
 1110SOL    HW1 4010   1.010   0.618  10.774
 1110SOL    HW2 4011   1.160   0.634  10.763
 1111SOL     OW 4012   1.220   1.572  10.105
 1111SOL    HW1 4013   1.235   1.637  10.037
 1111SOL    HW2 4014   1.290   1.586  10.168
 1112SOL     OW 4015   0.466   1.151  10.044
 1112SOL    HW1 4016   0.396   1.126  10.103
 1112SOL    HW2 4017   0.431   1.136   9.956
 1113SOL     OW 4018   1.262   1.792   9.920
 1113SOL    HW1 4019   1.308   1.856   9.865
 1113SOL    HW2 4020   1.196   1.843   9.965
 1114SOL     OW 4021   1.021   0.541   9.340
 1114SOL    HW1 4022   0.978   0.624   9.320
 1114SOL    HW2 4023   1.085   0.562   9.408
 1115SOL     OW 4024   0.081   0.574  10.703
 1115SOL    HW1 4025   0.170   0.556  10.673
 1115SOL    HW2 4026   0.091   0.646  10.766
 1116SOL     OW 4027   0.572   0.231  10.469
 1116SOL    HW1 4028   0.593   0.138  10.477
 1116SOL    HW2 4029   0.481   0.237  10.499
 1117SOL     OW 4030   0.871   0.461   9.948
 1117SOL    HW1 4031   0.821   0.514   9.886
 1117SOL    HW2 4032   0.891   0.381   9.900
 1118SOL     OW 4033   0.997   0.038  10.091
 1118SOL    HW1 4034   0.958   0.069  10.009
 1118SOL    HW2 4035   1.008   3.944  10.079
 1119SOL     OW 4036   1.439   1.161  10.167
 1119SOL    HW1 4037   1.368   1.096  10.165
 1119SOL    HW2 4038   1.465   1.170  10.076
 1120SOL     OW 4039   1.464   0.608  10.282
 1120SOL    HW1 4040   1.409   0.530  10.287
 1120SOL    HW2 4041   1.523   0.600  10.357
 1121SOL     OW 4042   1.843   0.818   9.699
 1121SOL    HW1 4043   1.900   0.766   9.755
 1121SOL    HW2 4044   1.815   0.758   9.630
 1122SOL     OW 4045   0.487   1.422   9.469
 1122SOL    HW1 4046   0.411   1.391   9.518
 1122SOL    HW2 4047   0.475   1.386   9.381
 1123SOL     OW 4048   1.672   1.263   9.954
 1123SOL    HW1 4049   1.767   1.261   9.969
 1123SOL    HW2 4050   1.647   1.353   9.976
 1124SOL     OW 4051   1.395   0.577   9.379
 1124SOL    HW1 4052   1.332   0.557   9.448
 1124SOL    HW2 4053   1.480   0.558   9.418
 1125SOL     OW 4054   0.557   0.271   9.627
 1125SOL    HW1 4055   0.606   0.231   9.555
 1125SOL    HW2 4056   0.528   0.355   9.593
 1126SOL     OW 4057   1.750   1.241  10.877
 1126SOL    HW1 4058   1.837   1.203  10.870
 1126SOL    HW2 4059   1.765   1.331  10.905
 1127SOL     OW 4060   1.055   1.354  10.643
 1127SOL    HW1 4061   0.980   1.322  10.693
 1127SOL    HW2 4062   1.131   1.312  10.684
 1128SOL     OW 4063   1.609   1.626  10.965
 1128SOL    HW1 4064   1.602   1.663  10.877
 1128SOL    HW2 4065   1.692   1.579  10.965
 1129SOL     OW 4066   1.133   1.208  10.413
 1129SOL    HW1 4067   1.073   1.245  10.478
 1129SOL    HW2 4068   1.103   1.242  10.329
 1130SOL     OW 4069   1.624   1.096  10.386
 1130SOL    HW1 4070   1.617   1.158  10.459
 1130SOL    HW2 4071   1.547   1.115  10.332
 1131SOL     OW 4072   0.912   0.117  10.711
 1131SOL    HW1 4073   0.932   0.089  10.622
 1131SOL    HW2 4074   0.993   0.158  10.742
 1132SOL     OW 4075   0.984   1.115  11.033
 1132SOL    HW1 4076   0.893   1.132  11.057
 1132SOL    HW2 4077   0.981   1.037  10.979
 1133SOL     OW 4078   0.708   1.062   9.681
 1133SOL    HW1 4079   0.694   1.044   9.774
 1133SOL    HW2 4080   0.784   1.009   9.657
 1134SOL     OW 4081   0.423   0.818  10.563
 1134SOL    HW1 4082   0.492   0.824  10.630
 1134SOL    HW2 4083   0.389   0.729  10.572
 1135SOL     OW 4084   1.265   0.375  10.588
 1135SOL    HW1 4085   1.299   0.453  10.631
 1135SOL    HW2 4086   1.178   0.399  10.558
 1136SOL     OW 4087   0.065   1.580  10.656
 1136SOL    HW1 4088   0.071   1.629  10.574
 1136SOL    HW2 4089   0.156   1.569  10.684
 1137SOL     OW 4090   0.369   1.103   9.791
 1137SOL    HW1 4091   0.363   1.183   9.738
 1137SOL    HW2 4092   0.368   1.032   9.728
 1138SOL     OW 4093   0.554   0.533  10.167
 1138SOL    HW1 4094   0.567   0.592  10.093
 1138SOL    HW2 4095   0.620   0.559  10.231
 1139SOL     OW 4096   1.247   1.349   9.700
 1139SOL    HW1 4097   1.303   1.420   9.733
 1139SOL    HW2 4098   1.160   1.370   9.733
 1140SOL     OW 4099   1.287   1.460  10.458
 1140SOL    HW1 4100   1.343   1.465  10.536
 1140SOL    HW2 4101   1.232   1.383  10.473
 1141SOL     OW 4102   1.573   0.635   9.798
 1141SOL    HW1 4103   1.530   0.688   9.864
 1141SOL    HW2 4104   1.620   0.697   9.743
 1142SOL     OW 4105   0.345   1.528  10.628
 1142SOL    HW1 4106   0.336   1.477  10.547
 1142SOL    HW2 4107   0.440   1.542  10.635
 1143SOL     OW 4108   0.419   0.737  10.911
 1143SOL    HW1 4109   0.482   0.781  10.855
 1143SOL    HW2 4110   0.455   0.649  10.923
 1144SOL     OW 4111   1.605   0.781  10.996
 1144SOL    HW1 4112   1.520   0.823  10.989
 1144SOL    HW2 4113   1.658   0.822  10.927
 1145SOL     OW 4114   1.008   0.138  11.089
 1145SOL    HW1 4115   1.065   0.207  11.056
 1145SOL    HW2 4116   0.999   0.077  11.016
 1146SOL     OW 4117   0.485   0.037  11.074
 1146SOL    HW1 4118   0.490   0.049  10.979
 1146SOL    HW2 4119   0.422   0.103  11.103
 1147SOL     OW 4120   0.585   0.875  10.342
 1147SOL    HW1 4121   0.618   0.965  10.345
 1147SOL    HW2 4122   0.529   0.868  10.419
 1148SOL     OW 4123   1.351   0.858  10.334
 1148SOL    HW1 4124   1.265   0.844  10.293
 1148SOL    HW2 4125   1.395   0.774  10.326
 1149SOL     OW 4126   1.199   0.538   9.566
 1149SOL    HW1 4127   1.208   0.459   9.619
 1149SOL    HW2 4128   1.156   0.601   9.624
 1150SOL     OW 4129   0.311   0.212  10.549
 1150SOL    HW1 4130   0.267   0.248  10.626
 1150SOL    HW2 4131   0.296   0.117  10.556
 1151SOL     OW 4132   0.063   1.306  10.590
 1151SOL    HW1 4133   0.092   1.263  10.670
 1151SOL    HW2 4134   0.053   1.398  10.615
 1152SOL     OW 4135   0.724   0.633  10.361
 1152SOL    HW1 4136   0.799   0.620  10.304
 1152SOL    HW2 4137   0.694   0.722  10.341
 1153SOL     OW 4138   1.738   0.959  11.167
 1153SOL    HW1 4139   1.693   0.894  11.113
 1153SOL    HW2 4140   1.678   0.976  11.239
 1154SOL     OW 4141   0.332   0.054   9.967
 1154SOL    HW1 4142   0.303   0.145   9.968
 1154SOL    HW2 4143   0.297   0.017  10.048
 1155SOL     OW 4144   1.609   0.393   9.689
 1155SOL    HW1 4145   1.565   0.325   9.740
 1155SOL    HW2 4146   1.589   0.475   9.735
 1156SOL     OW 4147   1.030   0.759  10.268
 1156SOL    HW1 4148   1.022   0.776  10.362
 1156SOL    HW2 4149   1.003   0.668  10.258
 1157SOL     OW 4150   0.981   1.566  11.030
 1157SOL    HW1 4151   0.966   1.610  10.946
 1157SOL    HW2 4152   1.025   1.484  11.006
 1158SOL     OW 4153   1.854   1.501  10.913
 1158SOL    HW1 4154   1.871   1.532  10.824
 1158SOL    HW2 4155   1.937   1.512  10.958
 1159SOL     OW 4156   0.354   0.922  11.108
 1159SOL    HW1 4157   0.432   0.942  11.160
 1159SOL    HW2 4158   0.384   0.854  11.047
 1160SOL     OW 4159   1.503   0.274   9.444
 1160SOL    HW1 4160   1.430   0.213   9.456
 1160SOL    HW2 4161   1.516   0.313   9.530
 1161SOL     OW 4162   1.287   0.827   9.338
 1161SOL    HW1 4163   1.330   0.741   9.342
 1161SOL    HW2 4164   1.319   0.866   9.257
 1162SOL     OW 4165   1.067   1.338  10.166
 1162SOL    HW1 4166   1.072   1.266  10.103
 1162SOL    HW2 4167   1.127   1.404  10.131
 1163SOL     OW 4168   0.313   0.802  10.260
 1163SOL    HW1 4169   0.407   0.818  10.254
 1163SOL    HW2 4170   0.306   0.712  10.292
 1164SOL     OW 4171   0.339   0.529  10.326
 1164SOL    HW1 4172   0.297   0.444  10.308
 1164SOL    HW2 4173   0.414   0.531  10.266
 1165SOL     OW 4174   1.133   0.380  11.009
 1165SOL    HW1 4175   1.085   0.434  11.071
 1165SOL    HW2 4176   1.220   0.420  11.004
 1166SOL     OW 4177   1.151   0.225  10.792
 1166SOL    HW1 4178   1.142   0.280  10.870
 1166SOL    HW2 4179   1.178   0.287  10.723
 1167SOL     OW 4180   0.001   1.316   9.493
 1167SOL    HW1 4181   3.907   1.332   9.496
 1167SOL    HW2 4182   0.010   1.222   9.511
 1168SOL     OW 4183   0.079   1.800  10.198
 1168SOL    HW1 4184   0.086   1.704  10.199
 1168SOL    HW2 4185   0.169   1.831  10.202
 1169SOL     OW 4186   0.498   1.571  10.220
 1169SOL    HW1 4187   0.567   1.632  10.246
 1169SOL    HW2 4188   0.541   1.509  10.162
 1170SOL     OW 4189   0.976   0.788  10.533
 1170SOL    HW1 4190   1.033   0.769  10.608
 1170SOL    HW2 4191   0.891   0.749  10.557
 1171SOL     OW 4192   0.034   0.577  10.422
 1171SOL    HW1 4193   0.094   0.522  10.371
 1171SOL    HW2 4194   0.061   0.563  10.513
 1172SOL     OW 4195   0.211   0.515  11.032
 1172SOL    HW1 4196   0.256   0.475  10.958
 1172SOL    HW2 4197   0.166   0.591  10.994
 1173SOL     OW 4198   1.379   0.935  10.966
 1173SOL    HW1 4199   1.401   1.028  10.963
 1173SOL    HW2 4200   1.376   0.908  10.875
 1174SOL     OW 4201   0.819   0.572   9.674
 1174SOL    HW1 4202   0.825   0.496   9.616
 1174SOL    HW2 4203   0.744   0.621   9.640
 1175SOL     OW 4204   1.639   0.602  10.492
 1175SOL    HW1 4205   1.630   0.542  10.565
 1175SOL    HW2 4206   1.727   0.585  10.457
 1176SOL     OW 4207   0.301   1.544  11.033
 1176SOL    HW1 4208   0.254   1.613  11.079
 1176SOL    HW2 4209   0.271   1.463  11.074
 1177SOL     OW 4210   0.714   0.452  10.564
 1177SOL    HW1 4211   0.662   0.375  10.540
 1177SOL    HW2 4212   0.702   0.512  10.490
 1178SOL     OW 4213   0.923   1.679  10.781
 1178SOL    HW1 4214   0.899   1.641  10.696
 1178SOL    HW2 4215   0.918   1.774  10.766
 1179SOL     OW 4216   0.452   0.492   9.509
 1179SOL    HW1 4217   0.516   0.561   9.526
 1179SOL    HW2 4218   0.372   0.539   9.484
 1180SOL     OW 4219   0.155   1.134  10.785
 1180SOL    HW1 4220   0.156   1.084  10.867
 1180SOL    HW2 4221   0.170   1.069  10.717
 1181SOL     OW 4222   1.322   1.044  10.531
 1181SOL    HW1 4223   1.344   0.981  10.462
 1181SOL    HW2 4224   1.255   1.100  10.491
 1182SOL     OW 4225   1.315   0.856   9.614
 1182SOL    HW1 4226   1.241   0.827   9.666
 1182SOL    HW2 4227   1.288   0.844   9.523
 1183SOL     OW 4228   1.742   1.731  10.447
 1183SOL    HW1 4229   1.819   1.754  10.395
 1183SOL    HW2 4230   1.727   1.638  10.429
 1184SOL     OW 4231   1.243   1.734  10.416
 1184SOL    HW1 4232   1.326   1.757  10.375
 1184SOL    HW2 4233   1.251   1.641  10.437
 1185SOL     OW 4234   0.078   1.217  10.337
 1185SOL    HW1 4235   0.084   1.242  10.429
 1185SOL    HW2 4236   3.986   1.227  10.315
 1186SOL     OW 4237   0.680   1.669  11.047
 1186SOL    HW1 4238   0.620   1.743  11.037
 1186SOL    HW2 4239   0.748   1.683  10.981
 1187SOL     OW 4240   1.715   0.123   9.799
 1187SOL    HW1 4241   1.793   0.134   9.745
 1187SOL    HW2 4242   1.706   0.028   9.809
 1188SOL     OW 4243   1.392   1.568   9.798
 1188SOL    HW1 4244   1.446   1.602   9.727
 1188SOL    HW2 4245   1.341   1.644   9.828
 1189SOL     OW 4246   0.176   1.762  11.141
 1189SOL    HW1 4247   0.120   1.710  11.198
 1189SOL    HW2 4248   0.216   1.827  11.199
 1190SOL     OW 4249   1.277   0.928   9.981
 1190SOL    HW1 4250   1.351   0.869   9.993
 1190SOL    HW2 4251   1.312   1.000   9.928
 1191SOL     OW 4252   0.808   1.275  10.736
 1191SOL    HW1 4253   0.779   1.316  10.818
 1191SOL    HW2 4254   0.736   1.291  10.675
 1192SOL     OW 4255   0.670   1.624   9.465
 1192SOL    HW1 4256   0.682   1.636   9.371
 1192SOL    HW2 4257   0.614   1.546   9.472
 1193SOL     OW 4258   1.619   1.730  10.700
 1193SOL    HW1 4259   1.664   1.734  10.616
 1193SOL    HW2 4260   1.607   1.821  10.725
 1194SOL     OW 4261   1.839   0.178  10.275
 1194SOL    HW1 4262   1.872   0.114  10.212
 1194SOL    HW2 4263   1.750   0.197  10.246
 1195SOL     OW 4264   0.275   0.322  10.024
 1195SOL    HW1 4265   0.190   0.356   9.997
 1195SOL    HW2 4266   0.267   0.307  10.118
 1196SOL     OW 4267   1.206   1.603   9.342
 1196SOL    HW1 4268   1.196   1.511   9.368
 1196SOL    HW2 4269   1.140   1.616   9.274
 1197SOL     OW 4270   0.823   1.005  10.684
 1197SOL    HW1 4271   0.867   1.000  10.599
 1197SOL    HW2 4272   0.821   1.099  10.704
 1198SOL     OW 4273   0.915   0.911   9.601
 1198SOL    HW1 4274   0.976   0.943   9.534
 1198SOL    HW2 4275   0.964   0.843   9.647
 1199SOL     OW 4276   1.485   1.623   9.350
 1199SOL    HW1 4277   1.391   1.617   9.333
 1199SOL    HW2 4278   1.524   1.631   9.263
 1200SOL     OW 4279   0.374   1.302  10.802
 1200SOL    HW1 4280   0.359   1.383  10.752
 1200SOL    HW2 4281   0.297   1.248  10.784
 1201SOL     OW 4282   1.607   1.282  10.591
 1201SOL    HW1 4283   1.669   1.269  10.662
 1201SOL    HW2 4284   1.548   1.351  10.622
 1202SOL     OW 4285   1.058   1.110  10.019
 1202SOL    HW1 4286   0.986   1.059  10.057
 1202SOL    HW2 4287   1.122   1.044   9.992
 1203SOL     OW 4288   1.015   0.250  10.281
 1203SOL    HW1 4289   1.005   0.199  10.200
 1203SOL    HW2 4290   1.012   0.184  10.350
 1204SOL     OW 4291   0.607   1.488   9.792
 1204SOL    HW1 4292   0.654   1.439   9.725
 1204SOL    HW2 4293   0.531   1.524   9.746
 1205SOL     OW 4294   1.721   0.394  10.681
 1205SOL    HW1 4295   1.794   0.456  10.686
 1205SOL    HW2 4296   1.754   0.323  10.627
 1206SOL     OW 4297   0.254   1.341   9.604
 1206SOL    HW1 4298   0.161   1.346   9.586
 1206SOL    HW2 4299   0.264   1.381   9.690
 1207SOL     OW 4300   0.109   0.999  11.028
 1207SOL    HW1 4301   0.049   0.992  11.102
 1207SOL    HW2 4302   0.195   0.981  11.065
 1208SOL     OW 4303   0.694   0.256  10.813
 1208SOL    HW1 4304   0.762   0.203  10.771
 1208SOL    HW2 4305   0.723   0.265  10.904
 1209SOL     OW 4306   0.088   0.319   9.335
 1209SOL    HW1 4307   3.993   0.318   9.328
 1209SOL    HW2 4308   0.115   0.401   9.295
 1210SOL     OW 4309   1.426   0.856  10.707
 1210SOL    HW1 4310   1.377   0.918  10.653
 1210SOL    HW2 4311   1.515   0.859  10.673
 1211SOL     OW 4312   0.036   0.172   9.594
 1211SOL    HW1 4313   0.037   0.227   9.516
 1211SOL    HW2 4314   0.111   0.201   9.646
 1212SOL     OW 4315   1.178   1.336   9.427
 1212SOL    HW1 4316   1.087   1.306   9.429
 1212SOL    HW2 4317   1.205   1.337   9.519
 1213SOL     OW 4318   0.621   0.828  10.747
 1213SOL    HW1 4319   0.678   0.904  10.731
 1213SOL    HW2 4320   0.682   0.754  10.755
 1214SOL     OW 4321   1.489   1.789  10.296
 1214SOL    HW1 4322   1.511   1.855  10.231
 1214SOL    HW2 4323   1.572   1.768  10.339
 1215SOL     OW 4324   0.718   0.561  11.016
 1215SOL    HW1 4325   0.763   0.622  11.074
 1215SOL    HW2 4326   0.743   0.474  11.049
 1216SOL     OW 4327   1.473   1.196  10.940
 1216SOL    HW1 4328   1.461   1.210  11.033
 1216SOL    HW2 4329   1.566   1.214  10.924
 1217SOL     OW 4330   0.377   1.744  10.866
 1217SOL    HW1 4331   0.290   1.782  10.854
 1217SOL    HW2 4332   0.362   1.661  10.912
 1218SOL     OW 4333   1.665   0.880  10.566
 1218SOL    HW1 4334   1.661   0.795  10.522
 1218SOL    HW2 4335   1.656   0.944  10.494
 1219SOL     OW 4336   1.223   0.338   9.751
 1219SOL    HW1 4337   1.291   0.270   9.744
 1219SOL    HW2 4338   1.241   0.382   9.834
 1220SOL     OW 4339   0.589   0.737   9.982
 1220SOL    HW1 4340   0.627   0.824   9.966
 1220SOL    HW2 4341   0.523   0.727   9.914
 1221SOL     OW 4342   1.749   0.384  10.953
 1221SOL    HW1 4343   1.732   0.390  10.859
 1221SOL    HW2 4344   1.693   0.313  10.984
 1222SOL     OW 4345   1.747   0.934  10.822
 1222SOL    HW1 4346   1.738   1.028  10.834
 1222SOL    HW2 4347   1.730   0.920  10.729
 1223SOL     OW 4348   0.863   1.365   9.350
 1223SOL    HW1 4349   0.825   1.394   9.433
 1223SOL    HW2 4350   0.880   1.446   9.302
 1224SOL     OW 4351   0.663   1.786  10.251
 1224SOL    HW1 4352   0.644   1.877  10.230
 1224SOL    HW2 4353   0.759   1.780  10.244
 1225SOL     OW 4354   0.869   0.969  10.163
 1225SOL    HW1 4355   0.919   0.897  10.201
 1225SOL    HW2 4356   0.832   1.014  10.238
 1226SOL     OW 4357   1.077   0.989   9.399
 1226SOL    HW1 4358   1.056   1.040   9.321
 1226SOL    HW2 4359   1.151   0.935   9.372
 1227SOL     OW 4360   1.845   1.542  10.148
 1227SOL    HW1 4361   1.763   1.542  10.099
 1227SOL    HW2 4362   1.828   1.483  10.222
 1228SOL     OW 4363   0.228   1.304  11.167
 1228SOL    HW1 4364   0.154   1.249  11.138
 1228SOL    HW2 4365   0.213   1.317  11.260
 1229SOL     OW 4366   0.125   1.283  10.033
 1229SOL    HW1 4367   0.139   1.231  10.112
 1229SOL    HW2 4368   0.106   1.218   9.965
 1230SOL     OW 4369   0.683   1.406  10.940
 1230SOL    HW1 4370   0.603   1.364  10.971
 1230SOL    HW2 4371   0.679   1.494  10.978
 1231SOL     OW 4372   1.810   0.183  10.547
 1231SOL    HW1 4373   1.813   0.089  10.564
 1231SOL    HW2 4374   1.826   0.192  10.453
 1232SOL     OW 4375   0.445   0.438   9.841
 1232SOL    HW1 4376   0.465   0.362   9.787
 1232SOL    HW2 4377   0.390   0.403   9.911
 1233SOL     OW 4378   1.701   1.471  10.395
 1233SOL    HW1 4379   1.618   1.454  10.350
 1233SOL    HW2 4380   1.704   1.405  10.464
 1234SOL     OW 4381   0.334   0.559  10.603
 1234SOL    HW1 4382   0.390   0.502  10.657
 1234SOL    HW2 4383   0.349   0.529  10.514
 1235SOL     OW 4384   0.830   1.579   9.985
 1235SOL    HW1 4385   0.813   1.643   9.916
 1235SOL    HW2 4386   0.755   1.520   9.983
 1236SOL     OW 4387   1.460   0.255  10.420
 1236SOL    HW1 4388   1.478   0.168  10.456
 1236SOL    HW2 4389   1.405   0.297  10.486
 1237SOL     OW 4390   1.002   0.027  10.456
 1237SOL    HW1 4391   0.921   3.996  10.417
 1237SOL    HW2 4392   1.056   3.948  10.464
 1238SOL     OW 4393   0.773   1.333   9.630
 1238SOL    HW1 4394   0.745   1.242   9.636
 1238SOL    HW2 4395   0.855   1.337   9.679
 1239SOL     OW 4396   0.621   1.557  10.597
 1239SOL    HW1 4397   0.622   1.639  10.645
 1239SOL    HW2 4398   0.708   1.549  10.560
 1240SOL     OW 4399   1.309   0.073   9.476
 1240SOL    HW1 4400   1.319   3.991   9.429
 1240SOL    HW2 4401   1.224   0.066   9.520
 1241SOL     OW 4402   1.280   0.457   9.994
 1241SOL    HW1 4403   1.234   0.540   9.989
 1241SOL    HW2 4404   1.283   0.437  10.088
 1242SOL     OW 4405   1.587   0.210  10.178
 1242SOL    HW1 4406   1.538   0.235  10.256
 1242SOL    HW2 4407   1.588   0.289  10.124
 1243SOL     OW 4408   0.047   1.047   9.552
 1243SOL    HW1 4409   0.142   1.032   9.543
 1243SOL    HW2 4410   0.011   0.962   9.578
 1244SOL     OW 4411   0.888   1.658   9.648
 1244SOL    HW1 4412   0.813   1.642   9.591
 1244SOL    HW2 4413   0.860   1.731   9.704
 1245SOL     OW 4414   0.232   0.629  11.288
 1245SOL    HW1 4415   0.139   0.633  11.309
 1245SOL    HW2 4416   0.235   0.599  11.197
 1246SOL     OW 4417   0.223   0.290  12.154
 1246SOL    HW1 4418   0.246   0.250  12.238
 1246SOL    HW2 4419   0.128   0.281  12.148
 1247SOL     OW 4420   0.019   0.384  11.808
 1247SOL    HW1 4421   3.928   0.399  11.833
 1247SOL    HW2 4422   0.025   0.290  11.795
 1248SOL     OW 4423   0.582   1.292  12.367
 1248SOL    HW1 4424   0.496   1.293  12.325
 1248SOL    HW2 4425   0.595   1.381  12.398
 1249SOL     OW 4426   1.570   1.514  11.881
 1249SOL    HW1 4427   1.527   1.494  11.964
 1249SOL    HW2 4428   1.498   1.520  11.818
 1250SOL     OW 4429   1.133   0.699  11.867
 1250SOL    HW1 4430   1.181   0.781  11.856
 1250SOL    HW2 4431   1.085   0.710  11.949
 1251SOL     OW 4432   1.770   0.619  11.396
 1251SOL    HW1 4433   1.747   0.612  11.303
 1251SOL    HW2 4434   1.753   0.533  11.432
 1252SOL     OW 4435   0.751   1.138  12.216
 1252SOL    HW1 4436   0.689   1.175  12.279
 1252SOL    HW2 4437   0.788   1.214  12.171
 1253SOL     OW 4438   0.873   0.768  12.996
 1253SOL    HW1 4439   0.862   0.840  13.058
 1253SOL    HW2 4440   0.895   0.811  12.913
 1254SOL     OW 4441   0.685   1.001  11.817
 1254SOL    HW1 4442   0.751   0.990  11.885
 1254SOL    HW2 4443   0.616   1.053  11.858
 1255SOL     OW 4444   0.712   1.149  12.990
 1255SOL    HW1 4445   0.760   1.226  13.019
 1255SOL    HW2 4446   0.632   1.184  12.951
 1256SOL     OW 4447   0.352   1.400  12.251
 1256SOL    HW1 4448   0.271   1.378  12.204
 1256SOL    HW2 4449   0.398   1.458  12.191
 1257SOL     OW 4450   1.460   1.502  12.531
 1257SOL    HW1 4451   1.514   1.581  12.540
 1257SOL    HW2 4452   1.394   1.511  12.599
 1258SOL     OW 4453   0.458   0.409  12.666
 1258SOL    HW1 4454   0.540   0.360  12.666
 1258SOL    HW2 4455   0.390   0.341  12.670
 1259SOL     OW 4456   1.612   0.451  11.907
 1259SOL    HW1 4457   1.544   0.482  11.848
 1259SOL    HW2 4458   1.627   0.523  11.967
 1260SOL     OW 4459   0.219   1.720  11.628
 1260SOL    HW1 4460   0.240   1.793  11.686
 1260SOL    HW2 4461   0.296   1.711  11.572
 1261SOL     OW 4462   1.137   1.342  12.865
 1261SOL    HW1 4463   1.178   1.336  12.952
 1261SOL    HW2 4464   1.085   1.262  12.858
 1262SOL     OW 4465   0.252   1.452  11.711
 1262SOL    HW1 4466   0.216   1.539  11.697
 1262SOL    HW2 4467   0.185   1.406  11.763
 1263SOL     OW 4468   0.248   1.065  12.056
 1263SOL    HW1 4469   0.268   0.980  12.094
 1263SOL    HW2 4470   0.195   1.109  12.122
 1264SOL     OW 4471   0.609   1.793  12.597
 1264SOL    HW1 4472   0.526   1.775  12.643
 1264SOL    HW2 4473   0.632   1.882  12.625
 1265SOL     OW 4474   0.575   0.987  11.312
 1265SOL    HW1 4475   0.624   1.030  11.242
 1265SOL    HW2 4476   0.616   1.017  11.393
 1266SOL     OW 4477   1.582   0.141  12.627
 1266SOL    HW1 4478   1.613   0.214  12.573
 1266SOL    HW2 4479   1.547   0.183  12.706
 1267SOL     OW 4480   0.141   0.653  11.741
 1267SOL    HW1 4481   0.099   0.567  11.746
 1267SOL    HW2 4482   0.103   0.702  11.813
 1268SOL     OW 4483   0.044   1.589  11.310
 1268SOL    HW1 4484   0.038   1.497  11.337
 1268SOL    HW2 4485   3.959   1.626  11.333
 1269SOL     OW 4486   1.687   0.917  11.815
 1269SOL    HW1 4487   1.771   0.876  11.795
 1269SOL    HW2 4488   1.667   0.969  11.737
 1270SOL     OW 4489   1.649   1.105  11.601
 1270SOL    HW1 4490   1.736   1.107  11.561
 1270SOL    HW2 4491   1.655   1.167  11.674
 1271SOL     OW 4492   0.143   0.756  12.761
 1271SOL    HW1 4493   0.238   0.752  12.754
 1271SOL    HW2 4494   0.125   0.843  12.796
 1272SOL     OW 4495   0.613   1.388  11.909
 1272SOL    HW1 4496   0.567   1.304  11.917
 1272SOL    HW2 4497   0.598   1.414  11.818
 1273SOL     OW 4498   1.286   1.237  12.594
 1273SOL    HW1 4499   1.317   1.169  12.534
 1273SOL    HW2 4500   1.345   1.231  12.669
 1274SOL     OW 4501   0.821   0.005  11.689
 1274SOL    HW1 4502   0.866   0.085  11.664
 1274SOL    HW2 4503   0.728   0.028  11.688
 1275SOL     OW 4504   0.184   0.949  12.451
 1275SOL    HW1 4505   0.272   0.914  12.440
 1275SOL    HW2 4506   0.132   0.908  12.382
 1276SOL     OW 4507   1.531   0.997  11.372
 1276SOL    HW1 4508   1.462   0.940  11.406
 1276SOL    HW2 4509   1.574   1.031  11.451
 1277SOL     OW 4510   1.184   1.810  12.797
 1277SOL    HW1 4511   1.192   1.871  12.723
 1277SOL    HW2 4512   1.202   1.724  12.759
 1278SOL     OW 4513   0.345   0.250  13.015
 1278SOL    HW1 4514   0.388   0.334  12.995
 1278SOL    HW2 4515   0.254   0.273  13.033
 1279SOL     OW 4516   1.465   1.419  12.119
 1279SOL    HW1 4517   1.398   1.435  12.186
 1279SOL    HW2 4518   1.451   1.328  12.093
 1280SOL     OW 4519   1.661   1.739  11.727
 1280SOL    HW1 4520   1.631   1.700  11.645
 1280SOL    HW2 4521   1.645   1.671  11.793
 1281SOL     OW 4522   0.595   0.716  11.439
 1281SOL    HW1 4523   0.600   0.801  11.395
 1281SOL    HW2 4524   0.533   0.730  11.510
 1282SOL     OW 4525   1.274   0.371  12.113
 1282SOL    HW1 4526   1.187   0.332  12.121
 1282SOL    HW2 4527   1.332   0.310  12.159
 1283SOL     OW 4528   1.576   1.671  11.468
 1283SOL    HW1 4529   1.666   1.692  11.445
 1283SOL    HW2 4530   1.534   1.649  11.385
 1284SOL     OW 4531   0.794   0.616  12.625
 1284SOL    HW1 4532   0.765   0.589  12.712
 1284SOL    HW2 4533   0.758   0.549  12.566
 1285SOL     OW 4534   1.392   0.476  12.850
 1285SOL    HW1 4535   1.399   0.521  12.934
 1285SOL    HW2 4536   1.449   0.399  12.859
 1286SOL     OW 4537   0.951   0.887  12.757
 1286SOL    HW1 4538   1.006   0.818  12.719
 1286SOL    HW2 4539   0.902   0.922  12.683
 1287SOL     OW 4540   0.993   0.403  12.408
 1287SOL    HW1 4541   0.907   0.422  12.445
 1287SOL    HW2 4542   0.975   0.374  12.319
 1288SOL     OW 4543   1.053   0.700  11.597
 1288SOL    HW1 4544   1.070   0.693  11.691
 1288SOL    HW2 4545   0.970   0.654  11.584
 1289SOL     OW 4546   0.082   0.830  11.962
 1289SOL    HW1 4547   0.152   0.796  12.016
 1289SOL    HW2 4548   0.105   0.922  11.947
 1290SOL     OW 4549   0.130   1.866  12.751
 1290SOL    HW1 4550   0.138   1.830  12.840
 1290SOL    HW2 4551   0.038   1.855  12.729
 1291SOL     OW 4552   0.895   0.352  11.371
 1291SOL    HW1 4553   0.937   0.413  11.309
 1291SOL    HW2 4554   0.892   0.269  11.324
 1292SOL     OW 4555   1.707   0.576  13.001
 1292SOL    HW1 4556   1.669   0.649  12.951
 1292SOL    HW2 4557   1.731   0.512  12.934
 1293SOL     OW 4558   1.379   1.141  11.711
 1293SOL    HW1 4559   1.460   1.131  11.660
 1293SOL    HW2 4560   1.327   1.204  11.661
 1294SOL     OW 4561   0.562   0.195  12.052
 1294SOL    HW1 4562   0.567   0.220  12.144
 1294SOL    HW2 4563   0.547   0.277  12.006
 1295SOL     OW 4564   1.001   1.443  11.641
 1295SOL    HW1 4565   0.969   1.518  11.591
 1295SOL    HW2 4566   0.980   1.464  11.732
 1296SOL     OW 4567   0.365   1.823  12.044
 1296SOL    HW1 4568   0.427   1.751  12.054
 1296SOL    HW2 4569   0.417   1.902  12.059
 1297SOL     OW 4570   1.800   1.049  12.045
 1297SOL    HW1 4571   1.746   1.035  11.966
 1297SOL    HW2 4572   1.736   1.057  12.116
 1298SOL     OW 4573   1.227   1.540  12.685
 1298SOL    HW1 4574   1.215   1.467  12.746
 1298SOL    HW2 4575   1.162   1.525  12.617
 1299SOL     OW 4576   0.310   0.952  11.414
 1299SOL    HW1 4577   0.394   0.974  11.372
 1299SOL    HW2 4578   0.298   0.859  11.396
 1300SOL     OW 4579   1.480   0.750  11.901
 1300SOL    HW1 4580   1.476   0.708  11.987
 1300SOL    HW2 4581   1.558   0.805  11.904
 1301SOL     OW 4582   0.470   1.261  12.909
 1301SOL    HW1 4583   0.444   1.269  12.818
 1301SOL    HW2 4584   0.387   1.264  12.958
 1302SOL     OW 4585   1.123   1.776  11.402
 1302SOL    HW1 4586   1.048   1.737  11.446
 1302SOL    HW2 4587   1.146   1.714  11.333
 1303SOL     OW 4588   0.201   0.293  12.673
 1303SOL    HW1 4589   0.108   0.312  12.673
 1303SOL    HW2 4590   0.210   0.218  12.731
 1304SOL     OW 4591   1.628   1.381  11.260
 1304SOL    HW1 4592   1.586   1.466  11.244
 1304SOL    HW2 4593   1.560   1.317  11.240
 1305SOL     OW 4594   0.466   1.739  11.488
 1305SOL    HW1 4595   0.510   1.795  11.551
 1305SOL    HW2 4596   0.537   1.702  11.435
 1306SOL     OW 4597   1.443   0.169  11.578
 1306SOL    HW1 4598   1.393   0.101  11.532
 1306SOL    HW2 4599   1.511   0.121  11.625
 1307SOL     OW 4600   0.253   1.790  12.402
 1307SOL    HW1 4601   0.298   1.724  12.454
 1307SOL    HW2 4602   0.251   1.754  12.314
 1308SOL     OW 4603   0.939   1.699  12.069
 1308SOL    HW1 4604   1.018   1.650  12.090
 1308SOL    HW2 4605   0.897   1.649  11.999
 1309SOL     OW 4606   0.398   0.694  11.642
 1309SOL    HW1 4607   0.423   0.603  11.658
 1309SOL    HW2 4608   0.306   0.699  11.668
 1310SOL     OW 4609   1.529   0.227  12.898
 1310SOL    HW1 4610   1.524   0.253  12.990
 1310SOL    HW2 4611   1.515   0.133  12.898
 1311SOL     OW 4612   0.646   0.128  11.275
 1311SOL    HW1 4613   0.667   0.043  11.314
 1311SOL    HW2 4614   0.585   0.107  11.204
 1312SOL     OW 4615   0.775   0.285  12.941
 1312SOL    HW1 4616   0.852   0.228  12.942
 1312SOL    HW2 4617   0.721   0.253  13.013
 1313SOL     OW 4618   0.875   1.522  12.366
 1313SOL    HW1 4619   0.859   1.485  12.280
 1313SOL    HW2 4620   0.945   1.468  12.403
 1314SOL     OW 4621   1.339   0.587  12.603
 1314SOL    HW1 4622   1.370   0.558  12.689
 1314SOL    HW2 4623   1.374   0.676  12.593
 1315SOL     OW 4624   0.817   1.391  12.115
 1315SOL    HW1 4625   0.902   1.380  12.073
 1315SOL    HW2 4626   0.755   1.395  12.042
 1316SOL     OW 4627   0.930   0.512  12.071
 1316SOL    HW1 4628   0.906   0.504  11.979
 1316SOL    HW2 4629   0.955   0.424  12.098
 1317SOL     OW 4630   0.547   0.056  11.659
 1317SOL    HW1 4631   0.473   0.063  11.720
 1317SOL    HW2 4632   0.548   0.139  11.613
 1318SOL     OW 4633   1.428   1.199  11.212
 1318SOL    HW1 4634   1.457   1.124  11.263
 1318SOL    HW2 4635   1.342   1.221  11.249
 1319SOL     OW 4636   0.350   0.034  11.371
 1319SOL    HW1 4637   0.358   0.087  11.292
 1319SOL    HW2 4638   0.437   0.039  11.412
 1320SOL     OW 4639   0.944   0.250  11.631
 1320SOL    HW1 4640   0.918   0.290  11.548
 1320SOL    HW2 4641   1.039   0.256  11.631
 1321SOL     OW 4642   1.079   0.685  12.630
 1321SOL    HW1 4643   1.010   0.618  12.636
 1321SOL    HW2 4644   1.161   0.634  12.625
 1322SOL     OW 4645   1.220   1.572  11.967
 1322SOL    HW1 4646   1.235   1.637  11.899
 1322SOL    HW2 4647   1.290   1.586  12.030
 1323SOL     OW 4648   0.466   1.151  11.906
 1323SOL    HW1 4649   0.396   1.126  11.965
 1323SOL    HW2 4650   0.431   1.136  11.818
 1324SOL     OW 4651   1.262   1.792  11.782
 1324SOL    HW1 4652   1.308   1.856  11.727
 1324SOL    HW2 4653   1.196   1.843  11.827
 1325SOL     OW 4654   1.021   0.541  11.202
 1325SOL    HW1 4655   0.978   0.624  11.183
 1325SOL    HW2 4656   1.085   0.562  11.270
 1326SOL     OW 4657   0.081   0.574  12.565
 1326SOL    HW1 4658   0.171   0.556  12.535
 1326SOL    HW2 4659   0.091   0.646  12.628
 1327SOL     OW 4660   0.572   0.231  12.331
 1327SOL    HW1 4661   0.593   0.138  12.339
 1327SOL    HW2 4662   0.481   0.237  12.361
 1328SOL     OW 4663   0.871   0.461  11.810
 1328SOL    HW1 4664   0.821   0.514  11.748
 1328SOL    HW2 4665   0.891   0.381  11.762
 1329SOL     OW 4666   0.997   0.039  11.953
 1329SOL    HW1 4667   0.958   0.069  11.871
 1329SOL    HW2 4668   1.008   3.944  11.941
 1330SOL     OW 4669   1.439   1.160  12.029
 1330SOL    HW1 4670   1.368   1.096  12.027
 1330SOL    HW2 4671   1.465   1.170  11.938
 1331SOL     OW 4672   1.464   0.608  12.144
 1331SOL    HW1 4673   1.409   0.530  12.149
 1331SOL    HW2 4674   1.523   0.600  12.219
 1332SOL     OW 4675   1.843   0.818  11.561
 1332SOL    HW1 4676   1.900   0.766  11.617
 1332SOL    HW2 4677   1.815   0.758  11.492
 1333SOL     OW 4678   0.487   1.422  11.331
 1333SOL    HW1 4679   0.411   1.391  11.380
 1333SOL    HW2 4680   0.474   1.386  11.243
 1334SOL     OW 4681   1.672   1.263  11.817
 1334SOL    HW1 4682   1.767   1.261  11.831
 1334SOL    HW2 4683   1.647   1.353  11.838
 1335SOL     OW 4684   1.395   0.577  11.241
 1335SOL    HW1 4685   1.332   0.557  11.310
 1335SOL    HW2 4686   1.481   0.558  11.280
 1336SOL     OW 4687   0.557   0.271  11.489
 1336SOL    HW1 4688   0.606   0.231  11.417
 1336SOL    HW2 4689   0.528   0.355  11.455
 1337SOL     OW 4690   1.750   1.241  12.739
 1337SOL    HW1 4691   1.837   1.203  12.731
 1337SOL    HW2 4692   1.765   1.331  12.767
 1338SOL     OW 4693   1.055   1.353  12.505
 1338SOL    HW1 4694   0.980   1.322  12.555
 1338SOL    HW2 4695   1.131   1.312  12.546
 1339SOL     OW 4696   1.609   1.626  12.827
 1339SOL    HW1 4697   1.602   1.663  12.739
 1339SOL    HW2 4698   1.692   1.579  12.827
 1340SOL     OW 4699   1.133   1.208  12.275
 1340SOL    HW1 4700   1.073   1.245  12.340
 1340SOL    HW2 4701   1.103   1.242  12.191
 1341SOL     OW 4702   1.623   1.096  12.248
 1341SOL    HW1 4703   1.617   1.158  12.321
 1341SOL    HW2 4704   1.547   1.115  12.194
 1342SOL     OW 4705   0.912   0.118  12.573
 1342SOL    HW1 4706   0.932   0.089  12.483
 1342SOL    HW2 4707   0.993   0.158  12.603
 1343SOL     OW 4708   0.984   1.115  12.896
 1343SOL    HW1 4709   0.893   1.132  12.918
 1343SOL    HW2 4710   0.981   1.037  12.841
 1344SOL     OW 4711   0.708   1.062  11.542
 1344SOL    HW1 4712   0.694   1.044  11.635
 1344SOL    HW2 4713   0.784   1.009  11.519
 1345SOL     OW 4714   0.423   0.818  12.425
 1345SOL    HW1 4715   0.492   0.824  12.492
 1345SOL    HW2 4716   0.389   0.729  12.434
 1346SOL     OW 4717   1.265   0.375  12.450
 1346SOL    HW1 4718   1.299   0.453  12.494
 1346SOL    HW2 4719   1.178   0.399  12.420
 1347SOL     OW 4720   0.065   1.579  12.518
 1347SOL    HW1 4721   0.071   1.629  12.436
 1347SOL    HW2 4722   0.156   1.569  12.546
 1348SOL     OW 4723   0.369   1.103  11.653
 1348SOL    HW1 4724   0.363   1.183  11.600
 1348SOL    HW2 4725   0.368   1.032  11.590
 1349SOL     OW 4726   0.554   0.533  12.029
 1349SOL    HW1 4727   0.567   0.592  11.955
 1349SOL    HW2 4728   0.620   0.559  12.093
 1350SOL     OW 4729   1.247   1.349  11.562
 1350SOL    HW1 4730   1.303   1.420  11.594
 1350SOL    HW2 4731   1.160   1.370  11.595
 1351SOL     OW 4732   1.287   1.460  12.321
 1351SOL    HW1 4733   1.343   1.465  12.398
 1351SOL    HW2 4734   1.232   1.383  12.335
 1352SOL     OW 4735   1.573   0.634  11.660
 1352SOL    HW1 4736   1.530   0.688  11.726
 1352SOL    HW2 4737   1.620   0.697  11.605
 1353SOL     OW 4738   0.345   1.527  12.490
 1353SOL    HW1 4739   0.336   1.477  12.409
 1353SOL    HW2 4740   0.440   1.542  12.497
 1354SOL     OW 4741   0.419   0.737  12.773
 1354SOL    HW1 4742   0.482   0.782  12.717
 1354SOL    HW2 4743   0.455   0.649  12.785
 1355SOL     OW 4744   1.605   0.782  12.858
 1355SOL    HW1 4745   1.519   0.823  12.851
 1355SOL    HW2 4746   1.658   0.823  12.789
 1356SOL     OW 4747   1.008   0.139  12.952
 1356SOL    HW1 4748   1.065   0.208  12.919
 1356SOL    HW2 4749   1.000   0.077  12.879
 1357SOL     OW 4750   0.483   0.037  12.937
 1357SOL    HW1 4751   0.490   0.048  12.842
 1357SOL    HW2 4752   0.421   0.104  12.965
 1358SOL     OW 4753   0.585   0.875  12.204
 1358SOL    HW1 4754   0.618   0.965  12.207
 1358SOL    HW2 4755   0.529   0.868  12.281
 1359SOL     OW 4756   1.351   0.858  12.196
 1359SOL    HW1 4757   1.265   0.844  12.155
 1359SOL    HW2 4758   1.395   0.774  12.188
 1360SOL     OW 4759   1.199   0.538  11.428
 1360SOL    HW1 4760   1.208   0.459  11.481
 1360SOL    HW2 4761   1.156   0.601  11.486
 1361SOL     OW 4762   0.311   0.212  12.411
 1361SOL    HW1 4763   0.267   0.248  12.488
 1361SOL    HW2 4764   0.296   0.117  12.418
 1362SOL     OW 4765   0.062   1.306  12.452
 1362SOL    HW1 4766   0.092   1.263  12.533
 1362SOL    HW2 4767   0.053   1.398  12.476
 1363SOL     OW 4768   0.724   0.633  12.224
 1363SOL    HW1 4769   0.799   0.620  12.166
 1363SOL    HW2 4770   0.694   0.722  12.203
 1364SOL     OW 4771   1.738   0.958  13.030
 1364SOL    HW1 4772   1.694   0.894  12.975
 1364SOL    HW2 4773   1.677   0.975  13.101
 1365SOL     OW 4774   0.332   0.054  11.829
 1365SOL    HW1 4775   0.303   0.146  11.830
 1365SOL    HW2 4776   0.297   0.017  11.910
 1366SOL     OW 4777   1.609   0.393  11.551
 1366SOL    HW1 4778   1.565   0.325  11.602
 1366SOL    HW2 4779   1.589   0.475  11.597
 1367SOL     OW 4780   1.030   0.759  12.130
 1367SOL    HW1 4781   1.022   0.776  12.224
 1367SOL    HW2 4782   1.003   0.668  12.120
 1368SOL     OW 4783   0.981   1.566  12.892
 1368SOL    HW1 4784   0.966   1.610  12.808
 1368SOL    HW2 4785   1.025   1.484  12.868
 1369SOL     OW 4786   1.854   1.501  12.775
 1369SOL    HW1 4787   1.870   1.532  12.686
 1369SOL    HW2 4788   1.938   1.511  12.820
 1370SOL     OW 4789   0.354   0.921  12.971
 1370SOL    HW1 4790   0.432   0.942  13.022
 1370SOL    HW2 4791   0.383   0.854  12.910
 1371SOL     OW 4792   1.503   0.274  11.306
 1371SOL    HW1 4793   1.430   0.213  11.318
 1371SOL    HW2 4794   1.516   0.313  11.392
 1372SOL     OW 4795   1.287   0.827  11.200
 1372SOL    HW1 4796   1.330   0.741  11.204
 1372SOL    HW2 4797   1.319   0.866  11.119
 1373SOL     OW 4798   1.067   1.338  12.028
 1373SOL    HW1 4799   1.072   1.266  11.965
 1373SOL    HW2 4800   1.127   1.404  11.993
 1374SOL     OW 4801   0.313   0.802  12.122
 1374SOL    HW1 4802   0.407   0.818  12.116
 1374SOL    HW2 4803   0.306   0.712  12.154
 1375SOL     OW 4804   0.339   0.529  12.188
 1375SOL    HW1 4805   0.297   0.444  12.170
 1375SOL    HW2 4806   0.414   0.531  12.128
 1376SOL     OW 4807   1.134   0.379  12.871
 1376SOL    HW1 4808   1.085   0.435  12.933
 1376SOL    HW2 4809   1.220   0.420  12.866
 1377SOL     OW 4810   1.151   0.225  12.654
 1377SOL    HW1 4811   1.142   0.280  12.732
 1377SOL    HW2 4812   1.178   0.287  12.586
 1378SOL     OW 4813   0.001   1.316  11.354
 1378SOL    HW1 4814   3.907   1.332  11.358
 1378SOL    HW2 4815   0.010   1.222  11.373
 1379SOL     OW 4816   0.079   1.800  12.060
 1379SOL    HW1 4817   0.086   1.704  12.061
 1379SOL    HW2 4818   0.169   1.831  12.064
 1380SOL     OW 4819   0.498   1.571  12.082
 1380SOL    HW1 4820   0.567   1.632  12.108
 1380SOL    HW2 4821   0.542   1.509  12.024
 1381SOL     OW 4822   0.976   0.788  12.395
 1381SOL    HW1 4823   1.033   0.769  12.470
 1381SOL    HW2 4824   0.892   0.749  12.419
 1382SOL     OW 4825   0.034   0.577  12.284
 1382SOL    HW1 4826   0.094   0.522  12.233
 1382SOL    HW2 4827   0.061   0.563  12.375
 1383SOL     OW 4828   0.212   0.516  12.894
 1383SOL    HW1 4829   0.256   0.474  12.820
 1383SOL    HW2 4830   0.166   0.591  12.856
 1384SOL     OW 4831   1.379   0.935  12.828
 1384SOL    HW1 4832   1.401   1.029  12.825
 1384SOL    HW2 4833   1.375   0.908  12.737
 1385SOL     OW 4834   0.819   0.572  11.536
 1385SOL    HW1 4835   0.825   0.496  11.478
 1385SOL    HW2 4836   0.744   0.621  11.502
 1386SOL     OW 4837   1.639   0.602  12.354
 1386SOL    HW1 4838   1.630   0.542  12.427
 1386SOL    HW2 4839   1.727   0.585  12.319
 1387SOL     OW 4840   0.301   1.544  12.895
 1387SOL    HW1 4841   0.253   1.613  12.941
 1387SOL    HW2 4842   0.271   1.463  12.936
 1388SOL     OW 4843   0.713   0.452  12.426
 1388SOL    HW1 4844   0.662   0.375  12.402
 1388SOL    HW2 4845   0.702   0.512  12.352
 1389SOL     OW 4846   0.923   1.679  12.643
 1389SOL    HW1 4847   0.899   1.641  12.558
 1389SOL    HW2 4848   0.918   1.774  12.628
 1390SOL     OW 4849   0.452   0.492  11.371
 1390SOL    HW1 4850   0.516   0.561  11.388
 1390SOL    HW2 4851   0.372   0.539  11.346
 1391SOL     OW 4852   0.155   1.134  12.647
 1391SOL    HW1 4853   0.156   1.084  12.729
 1391SOL    HW2 4854   0.170   1.069  12.579
 1392SOL     OW 4855   1.322   1.044  12.393
 1392SOL    HW1 4856   1.344   0.981  12.324
 1392SOL    HW2 4857   1.255   1.100  12.353
 1393SOL     OW 4858   1.315   0.856  11.476
 1393SOL    HW1 4859   1.241   0.827  11.528
 1393SOL    HW2 4860   1.288   0.844  11.385
 1394SOL     OW 4861   1.742   1.730  12.309
 1394SOL    HW1 4862   1.819   1.753  12.256
 1394SOL    HW2 4863   1.727   1.638  12.291
 1395SOL     OW 4864   1.243   1.734  12.278
 1395SOL    HW1 4865   1.326   1.757  12.237
 1395SOL    HW2 4866   1.251   1.641  12.298
 1396SOL     OW 4867   0.078   1.217  12.199
 1396SOL    HW1 4868   0.084   1.242  12.291
 1396SOL    HW2 4869   3.986   1.227  12.177
 1397SOL     OW 4870   0.680   1.669  12.908
 1397SOL    HW1 4871   0.620   1.743  12.899
 1397SOL    HW2 4872   0.748   1.684  12.842
 1398SOL     OW 4873   1.715   0.123  11.661
 1398SOL    HW1 4874   1.793   0.134  11.607
 1398SOL    HW2 4875   1.706   0.028  11.671
 1399SOL     OW 4876   1.392   1.568  11.660
 1399SOL    HW1 4877   1.446   1.602  11.589
 1399SOL    HW2 4878   1.341   1.644  11.690
 1400SOL     OW 4879   0.176   1.762  13.003
 1400SOL    HW1 4880   0.119   1.710  13.061
 1400SOL    HW2 4881   0.217   1.825  13.061
 1401SOL     OW 4882   1.277   0.929  11.843
 1401SOL    HW1 4883   1.351   0.869  11.855
 1401SOL    HW2 4884   1.312   1.000  11.790
 1402SOL     OW 4885   0.808   1.274  12.598
 1402SOL    HW1 4886   0.779   1.316  12.680
 1402SOL    HW2 4887   0.736   1.291  12.537
 1403SOL     OW 4888   0.670   1.624  11.327
 1403SOL    HW1 4889   0.682   1.636  11.233
 1403SOL    HW2 4890   0.614   1.546  11.334
 1404SOL     OW 4891   1.619   1.730  12.562
 1404SOL    HW1 4892   1.664   1.734  12.478
 1404SOL    HW2 4893   1.607   1.821  12.588
 1405SOL     OW 4894   1.839   0.178  12.137
 1405SOL    HW1 4895   1.872   0.114  12.074
 1405SOL    HW2 4896   1.750   0.197  12.108
 1406SOL     OW 4897   0.275   0.322  11.886
 1406SOL    HW1 4898   0.190   0.356  11.859
 1406SOL    HW2 4899   0.267   0.307  11.980
 1407SOL     OW 4900   1.206   1.603  11.204
 1407SOL    HW1 4901   1.196   1.511  11.230
 1407SOL    HW2 4902   1.140   1.615  11.136
 1408SOL     OW 4903   0.823   1.005  12.546
 1408SOL    HW1 4904   0.867   1.000  12.461
 1408SOL    HW2 4905   0.821   1.099  12.566
 1409SOL     OW 4906   0.915   0.911  11.463
 1409SOL    HW1 4907   0.976   0.943  11.396
 1409SOL    HW2 4908   0.964   0.843  11.509
 1410SOL     OW 4909   1.485   1.623  11.212
 1410SOL    HW1 4910   1.391   1.617  11.195
 1410SOL    HW2 4911   1.524   1.630  11.125
 1411SOL     OW 4912   0.374   1.303  12.664
 1411SOL    HW1 4913   0.359   1.383  12.614
 1411SOL    HW2 4914   0.297   1.248  12.646
 1412SOL     OW 4915   1.607   1.282  12.453
 1412SOL    HW1 4916   1.669   1.269  12.524
 1412SOL    HW2 4917   1.548   1.351  12.484
 1413SOL     OW 4918   1.058   1.110  11.881
 1413SOL    HW1 4919   0.986   1.059  11.919
 1413SOL    HW2 4920   1.122   1.044  11.854
 1414SOL     OW 4921   1.014   0.250  12.143
 1414SOL    HW1 4922   1.005   0.199  12.062
 1414SOL    HW2 4923   1.012   0.184  12.212
 1415SOL     OW 4924   0.607   1.488  11.654
 1415SOL    HW1 4925   0.654   1.439  11.587
 1415SOL    HW2 4926   0.531   1.524  11.608
 1416SOL     OW 4927   1.721   0.394  12.543
 1416SOL    HW1 4928   1.794   0.456  12.548
 1416SOL    HW2 4929   1.754   0.323  12.489
 1417SOL     OW 4930   0.254   1.341  11.466
 1417SOL    HW1 4931   0.161   1.346  11.448
 1417SOL    HW2 4932   0.264   1.381  11.552
 1418SOL     OW 4933   0.109   0.999  12.890
 1418SOL    HW1 4934   0.049   0.993  12.964
 1418SOL    HW2 4935   0.195   0.980  12.927
 1419SOL     OW 4936   0.694   0.256  12.675
 1419SOL    HW1 4937   0.762   0.203  12.633
 1419SOL    HW2 4938   0.723   0.264  12.766
 1420SOL     OW 4939   0.088   0.319  11.197
 1420SOL    HW1 4940   3.993   0.318  11.190
 1420SOL    HW2 4941   0.115   0.402  11.157
 1421SOL     OW 4942   1.426   0.856  12.569
 1421SOL    HW1 4943   1.377   0.918  12.515
 1421SOL    HW2 4944   1.515   0.859  12.534
 1422SOL     OW 4945   0.036   0.172  11.456
 1422SOL    HW1 4946   0.037   0.227  11.378
 1422SOL    HW2 4947   0.111   0.201  11.508
 1423SOL     OW 4948   1.178   1.336  11.289
 1423SOL    HW1 4949   1.087   1.305  11.291
 1423SOL    HW2 4950   1.205   1.337  11.381
 1424SOL     OW 4951   0.621   0.828  12.609
 1424SOL    HW1 4952   0.678   0.904  12.593
 1424SOL    HW2 4953   0.682   0.754  12.617
 1425SOL     OW 4954   1.489   1.788  12.158
 1425SOL    HW1 4955   1.511   1.855  12.093
 1425SOL    HW2 4956   1.572   1.768  12.201
 1426SOL     OW 4957   0.718   0.561  12.878
 1426SOL    HW1 4958   0.763   0.622  12.936
 1426SOL    HW2 4959   0.742   0.474  12.911
 1427SOL     OW 4960   1.473   1.196  12.802
 1427SOL    HW1 4961   1.461   1.211  12.896
 1427SOL    HW2 4962   1.566   1.214  12.786
 1428SOL     OW 4963   0.377   1.744  12.728
 1428SOL    HW1 4964   0.290   1.782  12.716
 1428SOL    HW2 4965   0.361   1.661  12.774
 1429SOL     OW 4966   1.665   0.880  12.428
 1429SOL    HW1 4967   1.662   0.795  12.384
 1429SOL    HW2 4968   1.656   0.944  12.357
 1430SOL     OW 4969   1.223   0.338  11.613
 1430SOL    HW1 4970   1.290   0.270  11.606
 1430SOL    HW2 4971   1.241   0.382  11.696
 1431SOL     OW 4972   0.589   0.737  11.844
 1431SOL    HW1 4973   0.627   0.824  11.828
 1431SOL    HW2 4974   0.523   0.727  11.776
 1432SOL     OW 4975   1.750   0.384  12.815
 1432SOL    HW1 4976   1.732   0.390  12.721
 1432SOL    HW2 4977   1.693   0.313  12.846
 1433SOL     OW 4978   1.747   0.934  12.684
 1433SOL    HW1 4979   1.738   1.028  12.696
 1433SOL    HW2 4980   1.730   0.920  12.591
 1434SOL     OW 4981   0.863   1.365  11.212
 1434SOL    HW1 4982   0.825   1.394  11.295
 1434SOL    HW2 4983   0.879   1.446  11.164
 1435SOL     OW 4984   0.663   1.786  12.113
 1435SOL    HW1 4985   0.644   1.877  12.092
 1435SOL    HW2 4986   0.759   1.780  12.106
 1436SOL     OW 4987   0.869   0.969  12.025
 1436SOL    HW1 4988   0.919   0.897  12.063
 1436SOL    HW2 4989   0.832   1.014  12.100
 1437SOL     OW 4990   1.077   0.989  11.261
 1437SOL    HW1 4991   1.056   1.040  11.183
 1437SOL    HW2 4992   1.151   0.935  11.234
 1438SOL     OW 4993   1.844   1.541  12.009
 1438SOL    HW1 4994   1.762   1.541  11.960
 1438SOL    HW2 4995   1.828   1.482  12.083
 1439SOL     OW 4996   0.228   1.304  13.028
 1439SOL    HW1 4997   0.153   1.251  13.001
 1439SOL    HW2 4998   0.215   1.317  13.122
 1440SOL     OW 4999   0.125   1.283  11.895
 1440SOL    HW1 5000   0.139   1.231  11.974
 1440SOL    HW2 5001   0.106   1.219  11.827
 1441SOL     OW 5002   0.683   1.406  12.802
 1441SOL    HW1 5003   0.603   1.364  12.833
 1441SOL    HW2 5004   0.679   1.494  12.839
 1442SOL     OW 5005   1.810   0.183  12.409
 1442SOL    HW1 5006   1.813   0.089  12.426
 1442SOL    HW2 5007   1.826   0.192  12.315
 1443SOL     OW 5008   0.445   0.438  11.703
 1443SOL    HW1 5009   0.465   0.362  11.649
 1443SOL    HW2 5010   0.390   0.403  11.773
 1444SOL     OW 5011   1.701   1.470  12.257
 1444SOL    HW1 5012   1.618   1.454  12.212
 1444SOL    HW2 5013   1.704   1.404  12.326
 1445SOL     OW 5014   0.334   0.559  12.465
 1445SOL    HW1 5015   0.390   0.502  12.519
 1445SOL    HW2 5016   0.349   0.529  12.376
 1446SOL     OW 5017   0.830   1.579  11.847
 1446SOL    HW1 5018   0.813   1.643  11.778
 1446SOL    HW2 5019   0.755   1.520  11.845
 1447SOL     OW 5020   1.460   0.255  12.282
 1447SOL    HW1 5021   1.479   0.168  12.318
 1447SOL    HW2 5022   1.405   0.297  12.348
 1448SOL     OW 5023   1.002   0.027  12.318
 1448SOL    HW1 5024   0.921   3.995  12.279
 1448SOL    HW2 5025   1.057   3.948  12.326
 1449SOL     OW 5026   0.773   1.333  11.492
 1449SOL    HW1 5027   0.745   1.242  11.498
 1449SOL    HW2 5028   0.855   1.337  11.541
 1450SOL     OW 5029   0.621   1.557  12.459
 1450SOL    HW1 5030   0.622   1.639  12.507
 1450SOL    HW2 5031   0.708   1.549  12.422
 1451SOL     OW 5032   1.309   0.074  11.338
 1451SOL    HW1 5033   1.320   3.991  11.291
 1451SOL    HW2 5034   1.224   0.065  11.382
 1452SOL     OW 5035   1.280   0.457  11.856
 1452SOL    HW1 5036   1.234   0.540  11.851
 1452SOL    HW2 5037   1.283   0.437  11.950
 1453SOL     OW 5038   1.587   0.210  12.040
 1453SOL    HW1 5039   1.538   0.235  12.118
 1453SOL    HW2 5040   1.588   0.289  11.986
 1454SOL     OW 5041   0.047   1.047  11.414
 1454SOL    HW1 5042   0.141   1.032  11.406
 1454SOL    HW2 5043   0.011   0.962  11.439
 1455SOL     OW 5044   0.888   1.658  11.510
 1455SOL    HW1 5045   0.813   1.642  11.453
 1455SOL    HW2 5046   0.860   1.731  11.566
 1456SOL     OW 5047   0.231   0.629  13.150
 1456SOL    HW1 5048   0.137   0.632  13.171
 1456SOL    HW2 5049   0.234   0.599  13.059
 1457SOL     OW 5050   0.284   0.254   0.143
 1457SOL    HW1 5051   0.336   0.322   0.185
 1457SOL    HW2 5052   0.207   0.300   0.110
 1458SOL     OW 5053   0.020   0.380  13.666
 1458SOL    HW1 5054   3.930   0.403  13.643
 1458SOL    HW2 5055   0.028   0.287  13.642
 1459SOL     OW 5056   1.521   1.496  13.731
 1459SOL    HW1 5057   1.468   1.422  13.762
 1459SOL    HW2 5058   1.479   1.522  13.649
 1460SOL     OW 5059   1.132   0.698  13.730
 1460SOL    HW1 5060   1.184   0.775  13.708
 1460SOL    HW2 5061   1.075   0.727  13.802
 1461SOL     OW 5062   1.774   0.617  13.255
 1461SOL    HW1 5063   1.748   0.612  13.163
 1461SOL    HW2 5064   1.757   0.530  13.290
 1462SOL     OW 5065   0.688   1.011  13.670
 1462SOL    HW1 5066   0.740   0.991  13.748
 1462SOL    HW2 5067   0.614   1.063  13.703
 1463SOL     OW 5068   1.614   0.453  13.757
 1463SOL    HW1 5069   1.529   0.473  13.717
 1463SOL    HW2 5070   1.644   0.537  13.793
 1464SOL     OW 5071   0.217   1.714  13.484
 1464SOL    HW1 5072   0.236   1.787  13.543
 1464SOL    HW2 5073   0.295   1.707  13.429
 1465SOL     OW 5074   0.250   1.445  13.571
 1465SOL    HW1 5075   0.221   1.536  13.560
 1465SOL    HW2 5076   0.187   1.406  13.631
 1466SOL     OW 5077   0.258   1.074   0.017
 1466SOL    HW1 5078   0.275   1.035   0.102
 1466SOL    HW2 5079   0.217   1.158   0.036
 1467SOL     OW 5080   0.574   0.987  13.172
 1467SOL    HW1 5081   0.623   1.030  13.102
 1467SOL    HW2 5082   0.615   1.017  13.253
 1468SOL     OW 5083   0.148   0.654  13.609
 1468SOL    HW1 5084   0.089   0.578  13.601
 1468SOL    HW2 5085   0.101   0.714  13.668
 1469SOL     OW 5086   0.044   1.590  13.172
 1469SOL    HW1 5087   0.038   1.498  13.199
 1469SOL    HW2 5088   3.961   1.628  13.200
 1470SOL     OW 5089   1.685   0.917  13.668
 1470SOL    HW1 5090   1.770   0.880  13.643
 1470SOL    HW2 5091   1.662   0.973  13.594
 1471SOL     OW 5092   1.649   1.104  13.459
 1471SOL    HW1 5093   1.735   1.105  13.418
 1471SOL    HW2 5094   1.656   1.169  13.529
 1472SOL     OW 5095   0.614   1.387  13.760
 1472SOL    HW1 5096   0.563   1.308  13.778
 1472SOL    HW2 5097   0.583   1.416  13.675
 1473SOL     OW 5098   0.822   0.005  13.549
 1473SOL    HW1 5099   0.866   0.086  13.523
 1473SOL    HW2 5100   0.729   0.026  13.545
 1474SOL     OW 5101   1.530   0.996  13.234
 1474SOL    HW1 5102   1.461   0.939  13.267
 1474SOL    HW2 5103   1.572   1.032  13.313
 1475SOL     OW 5104   1.658   1.736  13.593
 1475SOL    HW1 5105   1.630   1.701  13.509
 1475SOL    HW2 5106   1.656   1.661  13.652
 1476SOL     OW 5107   0.594   0.717  13.298
 1476SOL    HW1 5108   0.598   0.802  13.253
 1476SOL    HW2 5109   0.531   0.731  13.369
 1477SOL     OW 5110   1.237   0.340   0.052
 1477SOL    HW1 5111   1.148   0.329   0.084
 1477SOL    HW2 5112   1.291   0.291   0.114
 1478SOL     OW 5113   1.579   1.675  13.328
 1478SOL    HW1 5114   1.670   1.692  13.304
 1478SOL    HW2 5115   1.536   1.652  13.246
 1479SOL     OW 5116   1.050   0.697  13.459
 1479SOL    HW1 5117   1.066   0.684  13.552
 1479SOL    HW2 5118   0.968   0.651  13.441
 1480SOL     OW 5119   0.078   0.843  13.806
 1480SOL    HW1 5120   0.156   0.821  13.858
 1480SOL    HW2 5121   0.078   0.939  13.802
 1481SOL     OW 5122   0.895   0.352  13.231
 1481SOL    HW1 5123   0.937   0.412  13.170
 1481SOL    HW2 5124   0.893   0.268  13.185
 1482SOL     OW 5125   1.364   1.135  13.550
 1482SOL    HW1 5126   1.454   1.135  13.516
 1482SOL    HW2 5127   1.321   1.206  13.503
 1483SOL     OW 5128   0.998   1.440  13.501
 1483SOL    HW1 5129   0.969   1.516  13.452
 1483SOL    HW2 5130   0.964   1.454  13.590
 1484SOL     OW 5131   0.411   1.800  13.857
 1484SOL    HW1 5132   0.409   1.704  13.867
 1484SOL    HW2 5133   0.494   1.827  13.896
 1485SOL     OW 5134   1.789   1.043   0.000
 1485SOL    HW1 5135   1.733   1.037  13.822
 1485SOL    HW2 5136   1.727   1.040   0.073
 1486SOL     OW 5137   0.310   0.953  13.276
 1486SOL    HW1 5138   0.393   0.976  13.234
 1486SOL    HW2 5139   0.298   0.860  13.257
 1487SOL     OW 5140   1.493   0.734  13.753
 1487SOL    HW1 5141   1.482   0.696  13.840
 1487SOL    HW2 5142   1.562   0.799  13.764
 1488SOL     OW 5143   1.123   1.776  13.264
 1488SOL    HW1 5144   1.048   1.738  13.308
 1488SOL    HW2 5145   1.146   1.713  13.195
 1489SOL     OW 5146   1.628   1.382  13.122
 1489SOL    HW1 5147   1.585   1.466  13.106
 1489SOL    HW2 5148   1.560   1.317  13.103
 1490SOL     OW 5149   0.466   1.739  13.348
 1490SOL    HW1 5150   0.508   1.794  13.414
 1490SOL    HW2 5151   0.539   1.703  13.297
 1491SOL     OW 5152   1.430   0.162  13.444
 1491SOL    HW1 5153   1.392   0.110  13.374
 1491SOL    HW2 5154   1.520   0.133  13.451
 1492SOL     OW 5155   0.917   1.687   0.010
 1492SOL    HW1 5156   0.942   1.618   0.073
 1492SOL    HW2 5157   0.883   1.639  13.835
 1493SOL     OW 5158   0.399   0.697  13.501
 1493SOL    HW1 5159   0.426   0.606  13.515
 1493SOL    HW2 5160   0.308   0.700  13.531
 1494SOL     OW 5161   0.646   0.129  13.138
 1494SOL    HW1 5162   0.668   0.044  13.176
 1494SOL    HW2 5163   0.585   0.108  13.066
 1495SOL     OW 5164   0.552   0.054  13.521
 1495SOL    HW1 5165   0.474   0.058  13.577
 1495SOL    HW2 5166   0.550   0.137  13.473
 1496SOL     OW 5167   1.428   1.199  13.074
 1496SOL    HW1 5168   1.457   1.123  13.125
 1496SOL    HW2 5169   1.342   1.221  13.110
 1497SOL     OW 5170   0.349   0.048  13.235
 1497SOL    HW1 5171   0.358   0.094  13.152
 1497SOL    HW2 5172   0.438   0.034  13.266
 1498SOL     OW 5173   0.943   0.250  13.492
 1498SOL    HW1 5174   0.916   0.290  13.409
 1498SOL    HW2 5175   1.039   0.257  13.492
 1499SOL     OW 5176   0.470   1.145  13.764
 1499SOL    HW1 5177   0.399   1.121  13.823
 1499SOL    HW2 5178   0.433   1.134  13.676
 1500SOL     OW 5179   1.266   1.796  13.634
 1500SOL    HW1 5180   1.307   1.866  13.583
 1500SOL    HW2 5181   1.196   1.839  13.683
 1501SOL     OW 5182   1.021   0.541  13.064
 1501SOL    HW1 5183   0.978   0.624  13.044
 1501SOL    HW2 5184   1.085   0.562  13.132
 1502SOL     OW 5185   0.901   0.474  13.670
 1502SOL    HW1 5186   0.830   0.519  13.625
 1502SOL    HW2 5187   0.908   0.389  13.626
 1503SOL     OW 5188   1.002   0.038  13.793
 1503SOL    HW1 5189   0.970   0.063  13.706
 1503SOL    HW2 5190   1.025   3.945  13.783
 1504SOL     OW 5191   1.844   0.819  13.418
 1504SOL    HW1 5192   1.903   0.768  13.473
 1504SOL    HW2 5193   1.816   0.758  13.350
 1505SOL     OW 5194   0.487   1.422  13.193
 1505SOL    HW1 5195   0.411   1.391  13.242
 1505SOL    HW2 5196   0.474   1.387  13.105
 1506SOL     OW 5197   1.683   1.273  13.661
 1506SOL    HW1 5198   1.775   1.267  13.686
 1506SOL    HW2 5199   1.652   1.354  13.700
 1507SOL     OW 5200   1.395   0.577  13.104
 1507SOL    HW1 5201   1.332   0.556  13.173
 1507SOL    HW2 5202   1.480   0.556  13.141
 1508SOL     OW 5203   0.558   0.272  13.352
 1508SOL    HW1 5204   0.605   0.229  13.280
 1508SOL    HW2 5205   0.528   0.355  13.314
 1509SOL     OW 5206   0.708   1.064  13.399
 1509SOL    HW1 5207   0.695   1.048  13.492
 1509SOL    HW2 5208   0.785   1.010  13.377
 1510SOL     OW 5209   0.370   1.104  13.513
 1510SOL    HW1 5210   0.364   1.185  13.463
 1510SOL    HW2 5211   0.368   1.034  13.447
 1511SOL     OW 5212   0.564   0.541  13.863
 1511SOL    HW1 5213   0.577   0.607  13.796
 1511SOL    HW2 5214   0.626   0.565   0.033
 1512SOL     OW 5215   1.245   1.353  13.419
 1512SOL    HW1 5216   1.299   1.426  13.447
 1512SOL    HW2 5217   1.158   1.373  13.454
 1513SOL     OW 5218   1.584   0.635  13.512
 1513SOL    HW1 5219   1.544   0.683  13.585
 1513SOL    HW2 5220   1.624   0.703  13.458
 1514SOL     OW 5221   1.199   0.533  13.292
 1514SOL    HW1 5222   1.207   0.454  13.345
 1514SOL    HW2 5223   1.156   0.597  13.350
 1515SOL     OW 5224   0.337   0.048  13.681
 1515SOL    HW1 5225   0.313   0.141  13.692
 1515SOL    HW2 5226   0.276   0.001  13.737
 1516SOL     OW 5227   1.593   0.393  13.406
 1516SOL    HW1 5228   1.564   0.328  13.470
 1516SOL    HW2 5229   1.582   0.477  13.450
 1517SOL     OW 5230   1.502   0.279  13.165
 1517SOL    HW1 5231   1.431   0.217  13.180
 1517SOL    HW2 5232   1.518   0.319  13.251
 1518SOL     OW 5233   1.287   0.826  13.061
 1518SOL    HW1 5234   1.330   0.741  13.065
 1518SOL    HW2 5235   1.319   0.866  12.980
 1519SOL     OW 5236   0.000   1.316  13.215
 1519SOL    HW1 5237   3.906   1.333  13.219
 1519SOL    HW2 5238   0.009   1.223  13.232
 1520SOL     OW 5239   0.819   0.575  13.388
 1520SOL    HW1 5240   0.823   0.497  13.334
 1520SOL    HW2 5241   0.742   0.622  13.357
 1521SOL     OW 5242   0.450   0.492  13.233
 1521SOL    HW1 5243   0.515   0.561  13.249
 1521SOL    HW2 5244   0.371   0.539  13.208
 1522SOL     OW 5245   1.317   0.851  13.337
 1522SOL    HW1 5246   1.240   0.827  13.388
 1522SOL    HW2 5247   1.289   0.840  13.246
 1523SOL     OW 5248   1.694   0.113  13.456
 1523SOL    HW1 5249   1.786   0.130  13.436
 1523SOL    HW2 5250   1.696   0.043  13.521
 1524SOL     OW 5251   1.384   1.576  13.508
 1524SOL    HW1 5252   1.439   1.614  13.440
 1524SOL    HW2 5253   1.336   1.650  13.545
 1525SOL     OW 5254   1.290   0.913  13.684
 1525SOL    HW1 5255   1.368   0.858  13.671
 1525SOL    HW2 5256   1.312   0.996  13.641
 1526SOL     OW 5257   0.670   1.624  13.189
 1526SOL    HW1 5258   0.682   1.636  13.095
 1526SOL    HW2 5259   0.614   1.546  13.196
 1527SOL     OW 5260   1.823   0.177   0.066
 1527SOL    HW1 5261   1.863   0.091   0.057
 1527SOL    HW2 5262   1.733   0.166   0.036
 1528SOL     OW 5263   0.288   0.309  13.736
 1528SOL    HW1 5264   0.208   0.354  13.710
 1528SOL    HW2 5265   0.295   0.324  13.830
 1529SOL     OW 5266   1.206   1.603  13.066
 1529SOL    HW1 5267   1.196   1.511  13.091
 1529SOL    HW2 5268   1.140   1.616  12.997
 1530SOL     OW 5269   0.919   0.913  13.330
 1530SOL    HW1 5270   0.978   0.943  13.260
 1530SOL    HW2 5271   0.965   0.840  13.370
 1531SOL     OW 5272   1.485   1.623  13.074
 1531SOL    HW1 5273   1.390   1.617  13.057
 1531SOL    HW2 5274   1.524   1.630  12.987
 1532SOL     OW 5275   1.050   1.090  13.756
 1532SOL    HW1 5276   0.964   1.054  13.738
 1532SOL    HW2 5277   1.106   1.055  13.686
 1533SOL     OW 5278   0.601   1.493  13.504
 1533SOL    HW1 5279   0.648   1.441  13.439
 1533SOL    HW2 5280   0.526   1.529  13.457
 1534SOL     OW 5281   0.253   1.340  13.325
 1534SOL    HW1 5282   0.159   1.346  13.307
 1534SOL    HW2 5283   0.263   1.379  13.412
 1535SOL     OW 5284   0.088   0.320  13.059
 1535SOL    HW1 5285   3.992   0.319  13.051
 1535SOL    HW2 5286   0.114   0.402  13.018
 1536SOL     OW 5287   0.042   0.173  13.305
 1536SOL    HW1 5288   0.045   0.229  13.228
 1536SOL    HW2 5289   0.118   0.200  13.357
 1537SOL     OW 5290   1.177   1.335  13.149
 1537SOL    HW1 5291   1.086   1.307  13.151
 1537SOL    HW2 5292   1.204   1.338  13.241
 1538SOL     OW 5293   1.220   0.332  13.482
 1538SOL    HW1 5294   1.289   0.266  13.472
 1538SOL    HW2 5295   1.246   0.382  13.559
 1539SOL     OW 5296   0.594   0.750  13.691
 1539SOL    HW1 5297   0.628   0.837  13.673
 1539SOL    HW2 5298   0.525   0.737  13.627
 1540SOL     OW 5299   0.864   1.365  13.073
 1540SOL    HW1 5300   0.826   1.393  13.156
 1540SOL    HW2 5301   0.879   1.447  13.026
 1541SOL     OW 5302   0.661   1.856   0.059
 1541SOL    HW1 5303   0.679   1.949   0.043
 1541SOL    HW2 5304   0.747   1.817   0.074
 1542SOL     OW 5305   0.824   0.966  13.899
 1542SOL    HW1 5306   0.846   0.882   0.039
 1542SOL    HW2 5307   0.860   1.031   0.059
 1543SOL     OW 5308   1.076   0.987  13.123
 1543SOL    HW1 5309   1.055   1.039  13.046
 1543SOL    HW2 5310   1.151   0.933  13.096
 1544SOL     OW 5311   0.116   1.278  13.762
 1544SOL    HW1 5312   0.050   1.239  13.819
 1544SOL    HW2 5313   0.119   1.219  13.686
 1545SOL     OW 5314   0.453   0.441  13.557
 1545SOL    HW1 5315   0.480   0.367  13.502
 1545SOL    HW2 5316   0.406   0.401  13.630
 1546SOL     OW 5317   1.706   1.498   0.325
 1546SOL    HW1 5318   1.673   1.450   0.250
 1546SOL    HW2 5319   1.768   1.438   0.367
 1547SOL     OW 5320   0.821   1.551  13.702
 1547SOL    HW1 5321   0.790   1.607  13.631
 1547SOL    HW2 5322   0.747   1.492  13.721
 1548SOL     OW 5323   0.772   1.334  13.349
 1548SOL    HW1 5324   0.745   1.243  13.357
 1548SOL    HW2 5325   0.853   1.339  13.400
 1549SOL     OW 5326   1.310   0.077  13.207
 1549SOL    HW1 5327   1.333   3.998  13.159
 1549SOL    HW2 5328   1.221   0.062  13.239
 1550SOL     OW 5329   1.292   0.459  13.715
 1550SOL    HW1 5330   1.242   0.542  13.714
 1550SOL    HW2 5331   1.283   0.428  13.805
 1551SOL     OW 5332   0.047   1.048  13.271
 1551SOL    HW1 5333   0.141   1.032  13.263
 1551SOL    HW2 5334   0.011   0.964  13.300
 1552SOL     OW 5335   0.888   1.657  13.373
 1552SOL    HW1 5336   0.813   1.642  13.315
 1552SOL    HW2 5337   0.861   1.728  13.430
 1553SOL     OW 5338   0.230   2.516   0.120
 1553SOL    HW1 5339   0.135   2.507   0.133
 1553SOL    HW2 5340   0.247   2.474   0.036
 1554SOL     OW 5341   0.229   2.134   0.987
 1554SOL    HW1 5342   0.250   2.100   1.074
 1554SOL    HW2 5343   0.134   2.127   0.981
 1555SOL     OW 5344   0.009   2.222   0.629
 1555SOL    HW1 5345   3.922   2.241   0.665
 1555SOL    HW2 5346   3.992   2.192   0.540
 1556SOL     OW 5347   0.581   3.153   1.193
 1556SOL    HW1 5348   0.495   3.156   1.151
 1556SOL    HW2 5349   0.595   3.242   1.225
 1557SOL     OW 5350   1.566   3.372   0.708
 1557SOL    HW1 5351   1.521   3.349   0.790
 1557SOL    HW2 5352   1.496   3.374   0.643
 1558SOL     OW 5353   1.133   2.560   0.698
 1558SOL    HW1 5354   1.181   2.641   0.685
 1558SOL    HW2 5355   1.085   2.572   0.780
 1559SOL     OW 5356   1.764   2.461   0.229
 1559SOL    HW1 5357   1.792   2.409   0.154
 1559SOL    HW2 5358   1.719   2.398   0.286
 1560SOL     OW 5359   0.750   2.999   1.043
 1560SOL    HW1 5360   0.687   3.036   1.106
 1560SOL    HW2 5361   0.787   3.075   0.999
 1561SOL     OW 5362   0.872   2.628   1.823
 1561SOL    HW1 5363   0.864   2.699   1.887
 1561SOL    HW2 5364   0.895   2.673   1.741
 1562SOL     OW 5365   0.684   2.861   0.647
 1562SOL    HW1 5366   0.751   2.851   0.715
 1562SOL    HW2 5367   0.616   2.915   0.687
 1563SOL     OW 5368   0.713   3.011   1.818
 1563SOL    HW1 5369   0.761   3.089   1.847
 1563SOL    HW2 5370   0.632   3.046   1.780
 1564SOL     OW 5371   0.351   3.263   1.078
 1564SOL    HW1 5372   0.268   3.248   1.030
 1564SOL    HW2 5373   0.401   3.321   1.021
 1565SOL     OW 5374   1.460   3.363   1.358
 1565SOL    HW1 5375   1.514   3.442   1.368
 1565SOL    HW2 5376   1.392   3.372   1.426
 1566SOL     OW 5377   0.450   2.259   1.485
 1566SOL    HW1 5378   0.526   2.200   1.489
 1566SOL    HW2 5379   0.375   2.202   1.500
 1567SOL     OW 5380   1.606   2.300   0.734
 1567SOL    HW1 5381   1.524   2.321   0.690
 1567SOL    HW2 5382   1.624   2.376   0.790
 1568SOL     OW 5383   0.224   3.572   0.471
 1568SOL    HW1 5384   0.219   3.657   0.515
 1568SOL    HW2 5385   0.301   3.580   0.413
 1569SOL     OW 5386   1.138   3.204   1.694
 1569SOL    HW1 5387   1.179   3.197   1.780
 1569SOL    HW2 5388   1.085   3.124   1.686
 1570SOL     OW 5389   0.245   3.308   0.543
 1570SOL    HW1 5390   0.223   3.400   0.527
 1570SOL    HW2 5391   0.170   3.275   0.594
 1571SOL     OW 5392   0.248   2.927   0.882
 1571SOL    HW1 5393   0.269   2.842   0.922
 1571SOL    HW2 5394   0.195   2.972   0.949
 1572SOL     OW 5395   0.610   3.648   1.426
 1572SOL    HW1 5396   0.527   3.634   1.474
 1572SOL    HW2 5397   0.636   3.737   1.451
 1573SOL     OW 5398   0.560   2.843   0.168
 1573SOL    HW1 5399   0.589   2.882   0.085
 1573SOL    HW2 5400   0.616   2.883   0.234
 1574SOL     OW 5401   1.597   1.994   1.464
 1574SOL    HW1 5402   1.594   2.080   1.423
 1574SOL    HW2 5403   1.586   2.011   1.558
 1575SOL     OW 5404   0.141   2.520   0.572
 1575SOL    HW1 5405   0.088   2.441   0.573
 1575SOL    HW2 5406   0.108   2.573   0.644
 1576SOL     OW 5407   1.838   3.602   0.336
 1576SOL    HW1 5408   1.901   3.570   0.401
 1576SOL    HW2 5409   1.860   3.695   0.326
 1577SOL     OW 5410   0.030   3.468   0.137
 1577SOL    HW1 5411   0.035   3.375   0.158
 1577SOL    HW2 5412   3.936   3.487   0.137
 1578SOL     OW 5413   1.687   2.779   0.645
 1578SOL    HW1 5414   1.769   2.736   0.620
 1578SOL    HW2 5415   1.665   2.832   0.568
 1579SOL     OW 5416   1.649   2.965   0.433
 1579SOL    HW1 5417   1.736   2.968   0.392
 1579SOL    HW2 5418   1.653   3.030   0.503
 1580SOL     OW 5419   0.142   2.614   1.590
 1580SOL    HW1 5420   0.237   2.611   1.584
 1580SOL    HW2 5421   0.123   2.702   1.624
 1581SOL     OW 5422   0.616   3.248   0.735
 1581SOL    HW1 5423   0.568   3.166   0.744
 1581SOL    HW2 5424   0.600   3.276   0.645
 1582SOL     OW 5425   1.286   3.098   1.422
 1582SOL    HW1 5426   1.318   3.030   1.362
 1582SOL    HW2 5427   1.346   3.093   1.496
 1583SOL     OW 5428   0.824   1.863   0.514
 1583SOL    HW1 5429   0.863   1.947   0.490
 1583SOL    HW2 5430   0.730   1.881   0.519
 1584SOL     OW 5431   0.184   2.811   1.281
 1584SOL    HW1 5432   0.272   2.776   1.269
 1584SOL    HW2 5433   0.133   2.775   1.209
 1585SOL     OW 5434   1.529   2.863   0.206
 1585SOL    HW1 5435   1.461   2.804   0.239
 1585SOL    HW2 5436   1.571   2.898   0.284
 1586SOL     OW 5437   1.220   3.667   1.628
 1586SOL    HW1 5438   1.195   3.728   1.559
 1586SOL    HW2 5439   1.221   3.581   1.585
 1587SOL     OW 5440   0.343   2.109   1.818
 1587SOL    HW1 5441   0.378   2.198   1.826
 1587SOL    HW2 5442   0.251   2.117   1.843
 1588SOL     OW 5443   1.466   3.281   0.949
 1588SOL    HW1 5444   1.399   3.296   1.016
 1588SOL    HW2 5445   1.453   3.190   0.923
 1589SOL     OW 5446   1.659   3.601   0.589
 1589SOL    HW1 5447   1.643   3.577   0.498
 1589SOL    HW2 5448   1.634   3.524   0.639
 1590SOL     OW 5449   0.597   2.577   0.267
 1590SOL    HW1 5450   0.598   2.660   0.221
 1590SOL    HW2 5451   0.536   2.591   0.340
 1591SOL     OW 5452   1.279   2.225   0.935
 1591SOL    HW1 5453   1.191   2.189   0.945
 1591SOL    HW2 5454   1.335   2.169   0.989
 1592SOL     OW 5455   1.561   3.593   0.315
 1592SOL    HW1 5456   1.657   3.592   0.313
 1592SOL    HW2 5457   1.535   3.561   0.228
 1593SOL     OW 5458   0.791   2.480   1.449
 1593SOL    HW1 5459   0.765   2.454   1.538
 1593SOL    HW2 5460   0.755   2.412   1.393
 1594SOL     OW 5461   1.392   2.335   1.677
 1594SOL    HW1 5462   1.395   2.381   1.760
 1594SOL    HW2 5463   1.455   2.263   1.687
 1595SOL     OW 5464   0.951   2.748   1.585
 1595SOL    HW1 5465   1.006   2.679   1.547
 1595SOL    HW2 5466   0.903   2.783   1.510
 1596SOL     OW 5467   0.993   2.272   1.235
 1596SOL    HW1 5468   0.905   2.291   1.267
 1596SOL    HW2 5469   0.980   2.229   1.151
 1597SOL     OW 5470   1.053   2.563   0.429
 1597SOL    HW1 5471   1.070   2.555   0.522
 1597SOL    HW2 5472   0.969   2.518   0.416
 1598SOL     OW 5473   0.082   2.692   0.790
 1598SOL    HW1 5474   0.156   2.661   0.844
 1598SOL    HW2 5475   0.102   2.784   0.775
 1599SOL     OW 5476   0.127   3.719   1.580
 1599SOL    HW1 5477   0.135   3.687   1.670
 1599SOL    HW2 5478   0.035   3.706   1.558
 1600SOL     OW 5479   0.869   2.222   0.216
 1600SOL    HW1 5480   0.907   2.284   0.154
 1600SOL    HW2 5481   0.884   2.136   0.177
 1601SOL     OW 5482   1.669   2.444   1.835
 1601SOL    HW1 5483   1.647   2.516   1.775
 1601SOL    HW2 5484   1.717   2.382   1.781
 1602SOL     OW 5485   1.380   3.004   0.543
 1602SOL    HW1 5486   1.458   2.992   0.489
 1602SOL    HW2 5487   1.326   3.067   0.494
 1603SOL     OW 5488   0.547   2.040   0.896
 1603SOL    HW1 5489   0.553   2.071   0.986
 1603SOL    HW2 5490   0.546   2.119   0.842
 1604SOL     OW 5491   1.002   3.304   0.474
 1604SOL    HW1 5492   0.971   3.379   0.423
 1604SOL    HW2 5493   0.979   3.326   0.565
 1605SOL     OW 5494   0.359   3.672   0.865
 1605SOL    HW1 5495   0.440   3.622   0.878
 1605SOL    HW2 5496   0.386   3.763   0.873
 1606SOL     OW 5497   1.800   2.912   0.871
 1606SOL    HW1 5498   1.747   2.896   0.793
 1606SOL    HW2 5499   1.737   2.921   0.942
 1607SOL     OW 5500   1.227   3.399   1.511
 1607SOL    HW1 5501   1.215   3.327   1.573
 1607SOL    HW2 5502   1.158   3.388   1.446
 1608SOL     OW 5503   0.307   2.791   0.242
 1608SOL    HW1 5504   0.398   2.805   0.216
 1608SOL    HW2 5505   0.295   2.696   0.235
 1609SOL     OW 5506   1.481   2.607   0.723
 1609SOL    HW1 5507   1.476   2.567   0.810
 1609SOL    HW2 5508   1.558   2.663   0.726
 1610SOL     OW 5509   0.469   3.122   1.737
 1610SOL    HW1 5510   0.444   3.131   1.645
 1610SOL    HW2 5511   0.387   3.126   1.785
 1611SOL     OW 5512   1.127   3.639   0.230
 1611SOL    HW1 5513   1.062   3.594   0.285
 1611SOL    HW2 5514   1.154   3.574   0.166
 1612SOL     OW 5515   0.204   2.132   1.508
 1612SOL    HW1 5516   0.114   2.166   1.503
 1612SOL    HW2 5517   0.195   2.044   1.545
 1613SOL     OW 5518   1.636   3.238   0.088
 1613SOL    HW1 5519   1.602   3.320   0.053
 1613SOL    HW2 5520   1.567   3.174   0.069
 1614SOL     OW 5521   0.465   3.605   0.322
 1614SOL    HW1 5522   0.503   3.666   0.384
 1614SOL    HW2 5523   0.539   3.570   0.273
 1615SOL     OW 5524   1.403   1.968   0.433
 1615SOL    HW1 5525   1.385   1.952   0.340
 1615SOL    HW2 5526   1.489   1.929   0.447
 1616SOL     OW 5527   0.255   3.657   1.225
 1616SOL    HW1 5528   0.297   3.588   1.277
 1616SOL    HW2 5529   0.253   3.622   1.136
 1617SOL     OW 5530   0.938   3.564   0.899
 1617SOL    HW1 5531   1.017   3.513   0.920
 1617SOL    HW2 5532   0.896   3.514   0.830
 1618SOL     OW 5533   0.399   2.556   0.471
 1618SOL    HW1 5534   0.422   2.464   0.485
 1618SOL    HW2 5535   0.307   2.562   0.499
 1619SOL     OW 5536   1.534   2.086   1.725
 1619SOL    HW1 5537   1.546   2.106   1.818
 1619SOL    HW2 5538   1.462   2.023   1.723
 1620SOL     OW 5539   0.765   2.141   1.755
 1620SOL    HW1 5540   0.845   2.088   1.752
 1620SOL    HW2 5541   0.719   2.110   1.833
 1621SOL     OW 5542   0.876   3.383   1.194
 1621SOL    HW1 5543   0.859   3.346   1.107
 1621SOL    HW2 5544   0.946   3.328   1.230
 1622SOL     OW 5545   1.340   2.451   1.432
 1622SOL    HW1 5546   1.370   2.420   1.518
 1622SOL    HW2 5547   1.376   2.539   1.425
 1623SOL     OW 5548   0.818   3.252   0.943
 1623SOL    HW1 5549   0.903   3.241   0.901
 1623SOL    HW2 5550   0.756   3.256   0.871
 1624SOL     OW 5551   0.928   2.371   0.901
 1624SOL    HW1 5552   0.904   2.363   0.809
 1624SOL    HW2 5553   0.959   2.284   0.925
 1625SOL     OW 5554   0.559   1.921   0.501
 1625SOL    HW1 5555   0.477   1.919   0.552
 1625SOL    HW2 5556   0.551   1.999   0.446
 1626SOL     OW 5557   1.431   3.071   0.044
 1626SOL    HW1 5558   1.450   2.990   0.092
 1626SOL    HW2 5559   1.339   3.090   0.064
 1627SOL     OW 5560   0.260   1.873   0.215
 1627SOL    HW1 5561   0.291   1.957   0.181
 1627SOL    HW2 5562   0.341   1.826   0.238
 1628SOL     OW 5563   0.943   2.109   0.460
 1628SOL    HW1 5564   0.912   2.149   0.380
 1628SOL    HW2 5565   1.037   2.128   0.462
 1629SOL     OW 5566   1.081   2.545   1.458
 1629SOL    HW1 5567   1.015   2.476   1.463
 1629SOL    HW2 5568   1.164   2.498   1.452
 1630SOL     OW 5569   1.219   3.434   0.795
 1630SOL    HW1 5570   1.235   3.499   0.727
 1630SOL    HW2 5571   1.291   3.448   0.858
 1631SOL     OW 5572   0.466   3.013   0.731
 1631SOL    HW1 5573   0.395   2.989   0.792
 1631SOL    HW2 5574   0.428   3.000   0.644
 1632SOL     OW 5575   1.265   3.656   0.609
 1632SOL    HW1 5576   1.314   3.721   0.558
 1632SOL    HW2 5577   1.192   3.706   0.646
 1633SOL     OW 5578   0.995   2.404   0.053
 1633SOL    HW1 5579   0.990   2.385  13.859
 1633SOL    HW2 5580   1.088   2.393   0.075
 1634SOL     OW 5581   0.083   2.436   1.389
 1634SOL    HW1 5582   0.173   2.422   1.359
 1634SOL    HW2 5583   0.090   2.505   1.455
 1635SOL     OW 5584   0.566   2.089   1.167
 1635SOL    HW1 5585   0.608   2.015   1.212
 1635SOL    HW2 5586   0.475   2.085   1.196
 1636SOL     OW 5587   0.866   2.320   0.639
 1636SOL    HW1 5588   0.825   2.376   0.573
 1636SOL    HW2 5589   0.888   2.240   0.591
 1637SOL     OW 5590   1.018   1.915   0.748
 1637SOL    HW1 5591   0.959   1.910   0.673
 1637SOL    HW2 5592   0.994   1.841   0.803
 1638SOL     OW 5593   1.438   3.023   0.857
 1638SOL    HW1 5594   1.368   2.959   0.856
 1638SOL    HW2 5595   1.463   3.033   0.765
 1639SOL     OW 5596   1.464   2.470   0.970
 1639SOL    HW1 5597   1.409   2.392   0.973
 1639SOL    HW2 5598   1.522   2.462   1.046
 1640SOL     OW 5599   1.844   2.674   0.378
 1640SOL    HW1 5600   1.900   2.623   0.438
 1640SOL    HW2 5601   1.813   2.609   0.315
 1641SOL     OW 5602   0.491   3.248   0.165
 1641SOL    HW1 5603   0.420   3.213   0.219
 1641SOL    HW2 5604   0.446   3.294   0.094
 1642SOL     OW 5605   1.674   3.124   0.647
 1642SOL    HW1 5606   1.769   3.126   0.659
 1642SOL    HW2 5607   1.646   3.214   0.660
 1643SOL     OW 5608   1.421   2.443   0.087
 1643SOL    HW1 5609   1.352   2.437   0.153
 1643SOL    HW2 5610   1.464   2.358   0.089
 1644SOL     OW 5611   0.535   2.126   0.327
 1644SOL    HW1 5612   0.586   2.093   0.253
 1644SOL    HW2 5613   0.498   2.209   0.297
 1645SOL     OW 5614   1.750   3.104   1.566
 1645SOL    HW1 5615   1.837   3.065   1.563
 1645SOL    HW2 5616   1.765   3.194   1.594
 1646SOL     OW 5617   1.055   3.214   1.331
 1646SOL    HW1 5618   0.980   3.183   1.382
 1646SOL    HW2 5619   1.131   3.173   1.373
 1647SOL     OW 5620   1.610   3.489   1.657
 1647SOL    HW1 5621   1.601   3.523   1.568
 1647SOL    HW2 5622   1.693   3.440   1.657
 1648SOL     OW 5623   1.133   3.069   1.103
 1648SOL    HW1 5624   1.074   3.107   1.167
 1648SOL    HW2 5625   1.103   3.104   1.019
 1649SOL     OW 5626   1.625   2.959   1.076
 1649SOL    HW1 5627   1.618   3.022   1.148
 1649SOL    HW2 5628   1.548   2.978   1.021
 1650SOL     OW 5629   0.918   1.956   1.393
 1650SOL    HW1 5630   0.942   1.938   1.302
 1650SOL    HW2 5631   0.997   1.996   1.430
 1651SOL     OW 5632   0.984   2.977   1.722
 1651SOL    HW1 5633   0.893   2.993   1.746
 1651SOL    HW2 5634   0.981   2.899   1.668
 1652SOL     OW 5635   0.716   2.922   0.378
 1652SOL    HW1 5636   0.702   2.903   0.470
 1652SOL    HW2 5637   0.791   2.867   0.353
 1653SOL     OW 5638   0.423   2.679   1.253
 1653SOL    HW1 5639   0.491   2.688   1.319
 1653SOL    HW2 5640   0.389   2.590   1.264
 1654SOL     OW 5641   1.264   2.236   1.280
 1654SOL    HW1 5642   1.297   2.314   1.324
 1654SOL    HW2 5643   1.174   2.258   1.257
 1655SOL     OW 5644   0.065   3.441   1.345
 1655SOL    HW1 5645   0.071   3.487   1.261
 1655SOL    HW2 5646   0.156   3.432   1.373
 1656SOL     OW 5647   0.359   2.964   0.480
 1656SOL    HW1 5648   0.351   3.042   0.425
 1656SOL    HW2 5649   0.378   2.893   0.419
 1657SOL     OW 5650   0.548   2.395   0.861
 1657SOL    HW1 5651   0.562   2.452   0.786
 1657SOL    HW2 5652   0.616   2.421   0.924
 1658SOL     OW 5653   1.248   3.209   0.400
 1658SOL    HW1 5654   1.304   3.282   0.426
 1658SOL    HW2 5655   1.161   3.233   0.431
 1659SOL     OW 5656   1.286   3.322   1.149
 1659SOL    HW1 5657   1.342   3.326   1.226
 1659SOL    HW2 5658   1.230   3.246   1.164
 1660SOL     OW 5659   1.577   2.490   0.478
 1660SOL    HW1 5660   1.529   2.533   0.548
 1660SOL    HW2 5661   1.605   2.561   0.421
 1661SOL     OW 5662   0.345   3.390   1.317
 1661SOL    HW1 5663   0.335   3.340   1.236
 1661SOL    HW2 5664   0.439   3.405   1.325
 1662SOL     OW 5665   0.418   2.600   1.601
 1662SOL    HW1 5666   0.481   2.645   1.545
 1662SOL    HW2 5667   0.458   2.514   1.619
 1663SOL     OW 5668   1.603   2.649   1.677
 1663SOL    HW1 5669   1.518   2.692   1.671
 1663SOL    HW2 5670   1.656   2.693   1.610
 1664SOL     OW 5671   0.996   1.993   1.753
 1664SOL    HW1 5672   1.055   2.065   1.731
 1664SOL    HW2 5673   1.044   1.914   1.728
 1665SOL     OW 5674   0.497   1.896   1.747
 1665SOL    HW1 5675   0.452   1.844   1.680
 1665SOL    HW2 5676   0.443   1.975   1.756
 1666SOL     OW 5677   0.585   2.737   1.032
 1666SOL    HW1 5678   0.620   2.826   1.034
 1666SOL    HW2 5679   0.530   2.731   1.110
 1667SOL     OW 5680   1.351   2.720   1.024
 1667SOL    HW1 5681   1.266   2.707   0.982
 1667SOL    HW2 5682   1.395   2.635   1.015
 1668SOL     OW 5683   1.219   2.403   0.272
 1668SOL    HW1 5684   1.222   2.324   0.325
 1668SOL    HW2 5685   1.162   2.463   0.321
 1669SOL     OW 5686   0.310   2.057   1.247
 1669SOL    HW1 5687   0.263   2.094   1.323
 1669SOL    HW2 5688   0.287   1.964   1.247
 1670SOL     OW 5689   0.061   3.167   1.281
 1670SOL    HW1 5690   0.092   3.126   1.361
 1670SOL    HW2 5691   0.053   3.260   1.303
 1671SOL     OW 5692   0.722   2.492   1.054
 1671SOL    HW1 5693   0.798   2.478   0.998
 1671SOL    HW2 5694   0.694   2.581   1.034
 1672SOL     OW 5695   1.737   2.822   1.854
 1672SOL    HW1 5696   1.692   2.756   1.801
 1672SOL    HW2 5697   1.677   2.837   1.928
 1673SOL     OW 5698   0.316   1.922   0.623
 1673SOL    HW1 5699   0.292   2.012   0.643
 1673SOL    HW2 5700   0.322   1.879   0.709
 1674SOL     OW 5701   1.623   2.242   0.384
 1674SOL    HW1 5702   1.611   2.182   0.458
 1674SOL    HW2 5703   1.598   2.327   0.419
 1675SOL     OW 5704   1.028   2.620   0.959
 1675SOL    HW1 5705   1.021   2.637   1.053
 1675SOL    HW2 5706   1.002   2.529   0.949
 1676SOL     OW 5707   0.986   3.430   1.722
 1676SOL    HW1 5708   0.966   3.470   1.637
 1676SOL    HW2 5709   1.028   3.347   1.699
 1677SOL     OW 5710   1.853   3.364   1.604
 1677SOL    HW1 5711   1.873   3.392   1.515
 1677SOL    HW2 5712   1.933   3.380   1.653
 1678SOL     OW 5713   0.354   2.784   1.799
 1678SOL    HW1 5714   0.432   2.805   1.850
 1678SOL    HW2 5715   0.383   2.717   1.738
 1679SOL     OW 5716   1.509   2.168   0.144
 1679SOL    HW1 5717   1.496   2.073   0.148
 1679SOL    HW2 5718   1.557   2.189   0.224
 1680SOL     OW 5719   1.290   2.689   0.056
 1680SOL    HW1 5720   1.339   2.607   0.059
 1680SOL    HW2 5721   1.309   2.724  13.868
 1681SOL     OW 5722   1.068   3.199   0.856
 1681SOL    HW1 5723   1.073   3.128   0.793
 1681SOL    HW2 5724   1.127   3.266   0.820
 1682SOL     OW 5725   0.314   2.663   0.949
 1682SOL    HW1 5726   0.408   2.681   0.945
 1682SOL    HW2 5727   0.308   2.573   0.981
 1683SOL     OW 5728   0.329   2.383   1.014
 1683SOL    HW1 5729   0.294   2.295   0.999
 1683SOL    HW2 5730   0.405   2.390   0.957
 1684SOL     OW 5731   1.134   2.235   1.685
 1684SOL    HW1 5732   1.086   2.290   1.748
 1684SOL    HW2 5733   1.222   2.273   1.681
 1685SOL     OW 5734   1.160   2.061   1.472
 1685SOL    HW1 5735   1.149   2.124   1.543
 1685SOL    HW2 5736   1.202   2.112   1.402
 1686SOL     OW 5737   0.015   3.189   0.192
 1686SOL    HW1 5738   3.921   3.205   0.183
 1686SOL    HW2 5739   0.022   3.096   0.213
 1687SOL     OW 5740   0.075   3.664   0.894
 1687SOL    HW1 5741   0.093   3.570   0.889
 1687SOL    HW2 5742   0.162   3.704   0.895
 1688SOL     OW 5743   0.507   3.424   0.918
 1688SOL    HW1 5744   0.572   3.491   0.937
 1688SOL    HW2 5745   0.549   3.366   0.855
 1689SOL     OW 5746   0.976   2.650   1.224
 1689SOL    HW1 5747   1.035   2.631   1.297
 1689SOL    HW2 5748   0.892   2.613   1.251
 1690SOL     OW 5749   0.038   2.422   1.109
 1690SOL    HW1 5750   0.121   2.400   1.067
 1690SOL    HW2 5751   0.057   2.419   1.203
 1691SOL     OW 5752   0.206   2.374   1.728
 1691SOL    HW1 5753   0.244   2.325   1.655
 1691SOL    HW2 5754   0.162   2.448   1.686
 1692SOL     OW 5755   1.375   2.800   1.656
 1692SOL    HW1 5756   1.398   2.893   1.652
 1692SOL    HW2 5757   1.371   2.773   1.564
 1693SOL     OW 5758   0.815   2.439   0.378
 1693SOL    HW1 5759   0.825   2.364   0.320
 1693SOL    HW2 5760   0.743   2.490   0.339
 1694SOL     OW 5761   1.642   2.465   1.180
 1694SOL    HW1 5762   1.632   2.412   1.259
 1694SOL    HW2 5763   1.728   2.442   1.146
 1695SOL     OW 5764   0.300   3.406   1.724
 1695SOL    HW1 5765   0.253   3.476   1.770
 1695SOL    HW2 5766   0.271   3.325   1.765
 1696SOL     OW 5767   0.710   2.310   1.255
 1696SOL    HW1 5768   0.656   2.236   1.227
 1696SOL    HW2 5769   0.703   2.374   1.184
 1697SOL     OW 5770   0.926   3.533   1.470
 1697SOL    HW1 5771   0.900   3.494   1.387
 1697SOL    HW2 5772   0.918   3.627   1.456
 1698SOL     OW 5773   0.426   2.355   0.233
 1698SOL    HW1 5774   0.503   2.413   0.238
 1698SOL    HW2 5775   0.355   2.412   0.204
 1699SOL     OW 5776   0.155   2.996   1.477
 1699SOL    HW1 5777   0.155   2.946   1.558
 1699SOL    HW2 5778   0.170   2.931   1.408
 1700SOL     OW 5779   1.322   2.906   1.220
 1700SOL    HW1 5780   1.344   2.843   1.152
 1700SOL    HW2 5781   1.255   2.962   1.181
 1701SOL     OW 5782   1.315   2.720   0.327
 1701SOL    HW1 5783   1.242   2.685   0.377
 1701SOL    HW2 5784   1.292   2.704   0.236
 1702SOL     OW 5785   1.774   3.600   1.152
 1702SOL    HW1 5786   1.836   3.628   1.085
 1702SOL    HW2 5787   1.751   3.510   1.128
 1703SOL     OW 5788   1.244   3.594   1.107
 1703SOL    HW1 5789   1.327   3.617   1.065
 1703SOL    HW2 5790   1.252   3.501   1.127
 1704SOL     OW 5791   0.077   3.074   1.028
 1704SOL    HW1 5792   0.084   3.102   1.119
 1704SOL    HW2 5793   3.984   3.087   1.007
 1705SOL     OW 5794   0.680   3.528   1.736
 1705SOL    HW1 5795   0.621   3.603   1.739
 1705SOL    HW2 5796   0.740   3.548   1.664
 1706SOL     OW 5797   0.932   1.974   0.126
 1706SOL    HW1 5798   0.965   1.962   0.037
 1706SOL    HW2 5799   0.981   1.909   0.178
 1707SOL     OW 5800   1.390   3.434   0.488
 1707SOL    HW1 5801   1.452   3.469   0.424
 1707SOL    HW2 5802   1.342   3.511   0.519
 1708SOL     OW 5803   0.171   3.621   1.833
 1708SOL    HW1 5804   0.117   3.568   1.891
 1708SOL    HW2 5805   0.217   3.681   1.891
 1709SOL     OW 5806   1.278   2.789   0.671
 1709SOL    HW1 5807   1.351   2.728   0.680
 1709SOL    HW2 5808   1.311   2.861   0.618
 1710SOL     OW 5809   0.808   3.137   1.427
 1710SOL    HW1 5810   0.779   3.178   1.508
 1710SOL    HW2 5811   0.737   3.154   1.365
 1711SOL     OW 5812   0.672   3.451   0.192
 1711SOL    HW1 5813   0.659   3.492   0.107
 1711SOL    HW2 5814   0.626   3.367   0.185
 1712SOL     OW 5815   1.621   3.588   1.390
 1712SOL    HW1 5816   1.673   3.593   1.310
 1712SOL    HW2 5817   1.607   3.680   1.414
 1713SOL     OW 5818   0.265   2.173   0.716
 1713SOL    HW1 5819   0.178   2.205   0.691
 1713SOL    HW2 5820   0.260   2.164   0.811
 1714SOL     OW 5821   1.221   3.460   0.036
 1714SOL    HW1 5822   1.210   3.368   0.062
 1714SOL    HW2 5823   1.177   3.466  13.851
 1715SOL     OW 5824   0.823   2.868   1.374
 1715SOL    HW1 5825   0.868   2.863   1.290
 1715SOL    HW2 5826   0.821   2.962   1.394
 1716SOL     OW 5827   0.923   2.774   0.290
 1716SOL    HW1 5828   0.992   2.813   0.236
 1716SOL    HW2 5829   0.967   2.703   0.337
 1717SOL     OW 5830   1.484   3.514   0.064
 1717SOL    HW1 5831   1.392   3.489   0.059
 1717SOL    HW2 5832   1.519   3.498  13.877
 1718SOL     OW 5833   0.374   3.165   1.491
 1718SOL    HW1 5834   0.359   3.245   1.441
 1718SOL    HW2 5835   0.297   3.111   1.474
 1719SOL     OW 5836   1.609   3.146   1.280
 1719SOL    HW1 5837   1.669   3.132   1.353
 1719SOL    HW2 5838   1.548   3.213   1.311
 1720SOL     OW 5839   1.058   2.971   0.709
 1720SOL    HW1 5840   0.986   2.920   0.747
 1720SOL    HW2 5841   1.122   2.906   0.681
 1721SOL     OW 5842   1.024   2.103   0.966
 1721SOL    HW1 5843   1.021   2.056   0.883
 1721SOL    HW2 5844   1.018   2.034   1.033
 1722SOL     OW 5845   0.608   3.348   0.482
 1722SOL    HW1 5846   0.655   3.300   0.414
 1722SOL    HW2 5847   0.536   3.391   0.436
 1723SOL     OW 5848   1.725   2.256   1.378
 1723SOL    HW1 5849   1.799   2.316   1.385
 1723SOL    HW2 5850   1.751   2.194   1.310
 1724SOL     OW 5851   0.265   3.176   0.310
 1724SOL    HW1 5852   0.186   3.202   0.264
 1724SOL    HW2 5853   0.263   3.227   0.392
 1725SOL     OW 5854   0.108   2.859   1.717
 1725SOL    HW1 5855   0.048   2.854   1.792
 1725SOL    HW2 5856   0.194   2.841   1.755
 1726SOL     OW 5857   0.676   2.058   1.500
 1726SOL    HW1 5858   0.761   2.036   1.459
 1726SOL    HW2 5859   0.699   2.091   1.587
 1727SOL     OW 5860   0.051   2.222   0.035
 1727SOL    HW1 5861   3.962   2.232   0.069
 1727SOL    HW2 5862   0.041   2.224  13.840
 1728SOL     OW 5863   1.427   2.720   1.397
 1728SOL    HW1 5864   1.378   2.781   1.342
 1728SOL    HW2 5865   1.516   2.723   1.363
 1729SOL     OW 5866   0.052   2.038   0.312
 1729SOL    HW1 5867   0.082   2.101   0.248
 1729SOL    HW2 5868   0.112   1.964   0.304
 1730SOL     OW 5869   1.186   3.206   0.123
 1730SOL    HW1 5870   1.091   3.197   0.112
 1730SOL    HW2 5871   1.201   3.193   0.217
 1731SOL     OW 5872   0.620   2.692   1.437
 1731SOL    HW1 5873   0.676   2.768   1.422
 1731SOL    HW2 5874   0.681   2.619   1.444
 1732SOL     OW 5875   1.486   3.643   0.983
 1732SOL    HW1 5876   1.508   3.701   0.910
 1732SOL    HW2 5877   1.571   3.618   1.020
 1733SOL     OW 5878   0.716   2.423   1.703
 1733SOL    HW1 5879   0.762   2.484   1.761
 1733SOL    HW2 5880   0.739   2.337   1.736
 1734SOL     OW 5881   1.474   3.058   1.629
 1734SOL    HW1 5882   1.462   3.073   1.723
 1734SOL    HW2 5883   1.566   3.077   1.614
 1735SOL     OW 5884   0.378   3.609   1.560
 1735SOL    HW1 5885   0.290   3.645   1.547
 1735SOL    HW2 5886   0.363   3.525   1.604
 1736SOL     OW 5887   1.666   2.743   1.253
 1736SOL    HW1 5888   1.660   2.658   1.210
 1736SOL    HW2 5889   1.655   2.807   1.183
 1737SOL     OW 5890   1.218   2.182   0.456
 1737SOL    HW1 5891   1.282   2.111   0.449
 1737SOL    HW2 5892   1.245   2.232   0.533
 1738SOL     OW 5893   0.587   2.598   0.675
 1738SOL    HW1 5894   0.626   2.683   0.659
 1738SOL    HW2 5895   0.522   2.588   0.605
 1739SOL     OW 5896   1.753   2.242   1.658
 1739SOL    HW1 5897   1.746   2.249   1.563
 1739SOL    HW2 5898   1.683   2.182   1.683
 1740SOL     OW 5899   1.749   2.800   1.507
 1740SOL    HW1 5900   1.740   2.894   1.520
 1740SOL    HW2 5901   1.731   2.786   1.414
 1741SOL     OW 5902   0.907   3.262   0.070
 1741SOL    HW1 5903   0.843   3.241   0.138
 1741SOL    HW2 5904   0.858   3.256  13.888
 1742SOL     OW 5905   0.658   3.649   0.933
 1742SOL    HW1 5906   0.637   3.741   0.915
 1742SOL    HW2 5907   0.754   3.646   0.931
 1743SOL     OW 5908   0.869   2.830   0.853
 1743SOL    HW1 5909   0.919   2.758   0.891
 1743SOL    HW2 5910   0.832   2.877   0.928
 1744SOL     OW 5911   1.098   2.874   0.110
 1744SOL    HW1 5912   1.089   2.920   0.027
 1744SOL    HW2 5913   1.171   2.814   0.097
 1745SOL     OW 5914   1.849   3.411   0.841
 1745SOL    HW1 5915   1.770   3.403   0.788
 1745SOL    HW2 5916   1.835   3.352   0.915
 1746SOL     OW 5917   0.228   3.166   1.857
 1746SOL    HW1 5918   0.153   3.114   1.830
 1746SOL    HW2 5919   0.216   3.179   1.951
 1747SOL     OW 5920   0.108   3.144   0.730
 1747SOL    HW1 5921   0.131   3.097   0.811
 1747SOL    HW2 5922   0.102   3.076   0.664
 1748SOL     OW 5923   0.684   3.267   1.631
 1748SOL    HW1 5924   0.603   3.226   1.662
 1748SOL    HW2 5925   0.680   3.356   1.668
 1749SOL     OW 5926   0.439   2.297   0.539
 1749SOL    HW1 5927   0.468   2.225   0.483
 1749SOL    HW2 5928   0.384   2.257   0.606
 1750SOL     OW 5929   1.700   3.346   1.089
 1750SOL    HW1 5930   1.618   3.326   1.043
 1750SOL    HW2 5931   1.706   3.279   1.156
 1751SOL     OW 5932   0.336   2.420   1.292
 1751SOL    HW1 5933   0.389   2.363   1.347
 1751SOL    HW2 5934   0.350   2.389   1.203
 1752SOL     OW 5935   0.830   3.442   0.676
 1752SOL    HW1 5936   0.813   3.501   0.603
 1752SOL    HW2 5937   0.756   3.381   0.677
 1753SOL     OW 5938   1.437   2.093   1.119
 1753SOL    HW1 5939   1.444   2.004   1.154
 1753SOL    HW2 5940   1.383   2.139   1.183
 1754SOL     OW 5941   1.010   1.878   1.138
 1754SOL    HW1 5942   0.956   1.811   1.096
 1754SOL    HW2 5943   1.098   1.840   1.139
 1755SOL     OW 5944   0.780   3.186   0.321
 1755SOL    HW1 5945   0.750   3.096   0.337
 1755SOL    HW2 5946   0.861   3.193   0.372
 1756SOL     OW 5947   0.621   3.415   1.287
 1756SOL    HW1 5948   0.621   3.497   1.336
 1756SOL    HW2 5949   0.709   3.410   1.249
 1757SOL     OW 5950   1.348   1.920   0.167
 1757SOL    HW1 5951   1.379   1.867   0.093
 1757SOL    HW2 5952   1.264   1.881   0.191
 1758SOL     OW 5953   1.298   2.324   0.679
 1758SOL    HW1 5954   1.246   2.404   0.683
 1758SOL    HW2 5955   1.292   2.286   0.767
 1759SOL     OW 5956   1.569   2.050   0.872
 1759SOL    HW1 5957   1.535   2.079   0.957
 1759SOL    HW2 5958   1.586   2.131   0.824
 1760SOL     OW 5959   0.043   2.891   0.256
 1760SOL    HW1 5960   0.137   2.873   0.251
 1760SOL    HW2 5961   0.008   2.818   0.307
 1761SOL     OW 5962   0.894   3.521   0.344
 1761SOL    HW1 5963   0.819   3.492   0.293
 1761SOL    HW2 5964   0.862   3.597   0.393
 1762SOL     OW 5965   0.231   2.488   1.980
 1762SOL    HW1 5966   0.138   2.495   2.002
 1762SOL    HW2 5967   0.232   2.455   1.890
 1763SOL     OW 5968   0.229   2.134   2.849
 1763SOL    HW1 5969   0.250   2.100   2.935
 1763SOL    HW2 5970   0.134   2.127   2.842
 1764SOL     OW 5971   0.007   2.220   2.492
 1764SOL    HW1 5972   3.918   2.238   2.521
 1764SOL    HW2 5973   3.997   2.190   2.401
 1765SOL     OW 5974   0.581   3.153   3.055
 1765SOL    HW1 5975   0.495   3.156   3.014
 1765SOL    HW2 5976   0.595   3.242   3.087
 1766SOL     OW 5977   1.566   3.373   2.571
 1766SOL    HW1 5978   1.524   3.351   2.654
 1766SOL    HW2 5979   1.494   3.376   2.508
 1767SOL     OW 5980   1.132   2.560   2.559
 1767SOL    HW1 5981   1.180   2.642   2.546
 1767SOL    HW2 5982   1.085   2.573   2.641
 1768SOL     OW 5983   1.748   2.478   2.095
 1768SOL    HW1 5984   1.731   2.475   2.001
 1768SOL    HW2 5985   1.757   2.386   2.120
 1769SOL     OW 5986   0.750   2.999   2.906
 1769SOL    HW1 5987   0.688   3.036   2.968
 1769SOL    HW2 5988   0.787   3.076   2.861
 1770SOL     OW 5989   0.872   2.628   3.685
 1770SOL    HW1 5990   0.864   2.699   3.749
 1770SOL    HW2 5991   0.895   2.672   3.603
 1771SOL     OW 5992   0.685   2.862   2.507
 1771SOL    HW1 5993   0.751   2.852   2.575
 1771SOL    HW2 5994   0.616   2.915   2.548
 1772SOL     OW 5995   0.713   3.011   3.680
 1772SOL    HW1 5996   0.761   3.089   3.710
 1772SOL    HW2 5997   0.632   3.046   3.642
 1773SOL     OW 5998   0.351   3.263   2.940
 1773SOL    HW1 5999   0.269   3.246   2.893
 1773SOL    HW2 6000   0.400   3.320   2.882
 1774SOL     OW 6001   1.460   3.363   3.220
 1774SOL    HW1 6002   1.514   3.442   3.231
 1774SOL    HW2 6003   1.392   3.372   3.288
 1775SOL     OW 6004   0.450   2.259   3.347
 1775SOL    HW1 6005   0.526   2.200   3.352
 1775SOL    HW2 6006   0.375   2.202   3.362
 1776SOL     OW 6007   1.606   2.300   2.596
 1776SOL    HW1 6008   1.527   2.322   2.547
 1776SOL    HW2 6009   1.623   2.376   2.652
 1777SOL     OW 6010   0.222   3.572   2.328
 1777SOL    HW1 6011   0.221   3.656   2.373
 1777SOL    HW2 6012   0.299   3.576   2.271
 1778SOL     OW 6013   1.138   3.204   3.556
 1778SOL    HW1 6014   1.179   3.197   3.642
 1778SOL    HW2 6015   1.085   3.124   3.548
 1779SOL     OW 6016   0.252   3.306   2.401
 1779SOL    HW1 6017   0.223   3.396   2.388
 1779SOL    HW2 6018   0.183   3.267   2.455
 1780SOL     OW 6019   0.248   2.928   2.745
 1780SOL    HW1 6020   0.268   2.843   2.785
 1780SOL    HW2 6021   0.195   2.973   2.811
 1781SOL     OW 6022   0.609   3.648   3.288
 1781SOL    HW1 6023   0.527   3.634   3.335
 1781SOL    HW2 6024   0.636   3.737   3.313
 1782SOL     OW 6025   0.575   2.849   2.001
 1782SOL    HW1 6026   0.625   2.893   1.932
 1782SOL    HW2 6027   0.616   2.878   2.082
 1783SOL     OW 6028   1.597   1.994   3.326
 1783SOL    HW1 6029   1.592   2.080   3.285
 1783SOL    HW2 6030   1.585   2.012   3.419
 1784SOL     OW 6031   0.143   2.517   2.435
 1784SOL    HW1 6032   0.087   2.440   2.434
 1784SOL    HW2 6033   0.107   2.571   2.506
 1785SOL     OW 6034   1.843   3.607   2.199
 1785SOL    HW1 6035   1.913   3.583   2.261
 1785SOL    HW2 6036   1.862   3.697   2.176
 1786SOL     OW 6037   0.041   3.452   2.001
 1786SOL    HW1 6038   0.036   3.360   2.029
 1786SOL    HW2 6039   3.956   3.488   2.026
 1787SOL     OW 6040   1.690   2.781   2.506
 1787SOL    HW1 6041   1.770   2.735   2.480
 1787SOL    HW2 6042   1.665   2.832   2.428
 1788SOL     OW 6043   1.648   2.966   2.291
 1788SOL    HW1 6044   1.735   2.968   2.250
 1788SOL    HW2 6045   1.654   3.029   2.363
 1789SOL     OW 6046   0.142   2.615   3.452
 1789SOL    HW1 6047   0.237   2.611   3.446
 1789SOL    HW2 6048   0.123   2.702   3.486
 1790SOL     OW 6049   0.617   3.249   2.596
 1790SOL    HW1 6050   0.569   3.167   2.605
 1790SOL    HW2 6051   0.599   3.277   2.506
 1791SOL     OW 6052   1.286   3.098   3.283
 1791SOL    HW1 6053   1.318   3.030   3.224
 1791SOL    HW2 6054   1.346   3.094   3.358
 1792SOL     OW 6055   0.822   1.863   2.375
 1792SOL    HW1 6056   0.862   1.947   2.352
 1792SOL    HW2 6057   0.728   1.882   2.379
 1793SOL     OW 6058   0.184   2.811   3.143
 1793SOL    HW1 6059   0.272   2.776   3.130
 1793SOL    HW2 6060   0.133   2.774   3.070
 1794SOL     OW 6061   1.531   2.860   2.062
 1794SOL    HW1 6062   1.462   2.802   2.094
 1794SOL    HW2 6063   1.574   2.893   2.140
 1795SOL     OW 6064   1.220   3.667   3.490
 1795SOL    HW1 6065   1.195   3.728   3.421
 1795SOL    HW2 6066   1.221   3.581   3.447
 1796SOL     OW 6067   0.343   2.109   3.680
 1796SOL    HW1 6068   0.378   2.198   3.688
 1796SOL    HW2 6069   0.251   2.117   3.705
 1797SOL     OW 6070   1.466   3.281   2.810
 1797SOL    HW1 6071   1.399   3.297   2.877
 1797SOL    HW2 6072   1.453   3.190   2.784
 1798SOL     OW 6073   1.653   3.603   2.443
 1798SOL    HW1 6074   1.639   3.572   2.354
 1798SOL    HW2 6075   1.631   3.529   2.499
 1799SOL     OW 6076   0.596   2.576   2.129
 1799SOL    HW1 6077   0.602   2.661   2.085
 1799SOL    HW2 6078   0.533   2.590   2.199
 1800SOL     OW 6079   1.279   2.225   2.797
 1800SOL    HW1 6080   1.191   2.189   2.807
 1800SOL    HW2 6081   1.335   2.169   2.851
 1801SOL     OW 6082   1.576   3.538   2.171
 1801SOL    HW1 6083   1.669   3.560   2.165
 1801SOL    HW2 6084   1.550   3.519   2.081
 1802SOL     OW 6085   0.791   2.480   3.312
 1802SOL    HW1 6086   0.765   2.454   3.400
 1802SOL    HW2 6087   0.755   2.412   3.255
 1803SOL     OW 6088   1.392   2.335   3.539
 1803SOL    HW1 6089   1.395   2.382   3.622
 1803SOL    HW2 6090   1.455   2.263   3.549
 1804SOL     OW 6091   0.951   2.747   3.447
 1804SOL    HW1 6092   1.006   2.679   3.409
 1804SOL    HW2 6093   0.903   2.783   3.372
 1805SOL     OW 6094   0.993   2.272   3.097
 1805SOL    HW1 6095   0.905   2.291   3.129
 1805SOL    HW2 6096   0.980   2.229   3.013
 1806SOL     OW 6097   1.053   2.561   2.287
 1806SOL    HW1 6098   1.071   2.554   2.381
 1806SOL    HW2 6099   0.970   2.514   2.274
 1807SOL     OW 6100   0.082   2.693   2.652
 1807SOL    HW1 6101   0.155   2.661   2.705
 1807SOL    HW2 6102   0.103   2.785   2.635
 1808SOL     OW 6103   0.127   3.719   3.442
 1808SOL    HW1 6104   0.135   3.687   3.532
 1808SOL    HW2 6105   0.035   3.706   3.420
 1809SOL     OW 6106   0.898   2.212   2.055
 1809SOL    HW1 6107   0.938   2.276   1.996
 1809SOL    HW2 6108   0.914   2.128   2.014
 1810SOL     OW 6109   1.667   2.444   3.698
 1810SOL    HW1 6110   1.645   2.515   3.638
 1810SOL    HW2 6111   1.717   2.382   3.645
 1811SOL     OW 6112   1.380   3.004   2.402
 1811SOL    HW1 6113   1.459   2.992   2.349
 1811SOL    HW2 6114   1.327   3.066   2.352
 1812SOL     OW 6115   0.546   2.039   2.757
 1812SOL    HW1 6116   0.553   2.072   2.847
 1812SOL    HW2 6117   0.546   2.118   2.703
 1813SOL     OW 6118   1.002   3.307   2.331
 1813SOL    HW1 6119   0.967   3.381   2.283
 1813SOL    HW2 6120   0.980   3.326   2.423
 1814SOL     OW 6121   0.359   3.672   2.725
 1814SOL    HW1 6122   0.439   3.621   2.739
 1814SOL    HW2 6123   0.387   3.763   2.734
 1815SOL     OW 6124   1.801   2.914   2.732
 1815SOL    HW1 6125   1.748   2.894   2.655
 1815SOL    HW2 6126   1.737   2.922   2.803
 1816SOL     OW 6127   1.227   3.399   3.373
 1816SOL    HW1 6128   1.215   3.327   3.435
 1816SOL    HW2 6129   1.158   3.387   3.308
 1817SOL     OW 6130   0.311   2.815   2.104
 1817SOL    HW1 6131   0.394   2.837   2.062
 1817SOL    HW2 6132   0.299   2.722   2.084
 1818SOL     OW 6133   1.480   2.611   2.587
 1818SOL    HW1 6134   1.477   2.568   2.672
 1818SOL    HW2 6135   1.560   2.664   2.590
 1819SOL     OW 6136   0.469   3.123   3.599
 1819SOL    HW1 6137   0.444   3.131   3.507
 1819SOL    HW2 6138   0.387   3.126   3.647
 1820SOL     OW 6139   1.113   3.643   2.083
 1820SOL    HW1 6140   1.048   3.598   2.136
 1820SOL    HW2 6141   1.144   3.577   2.021
 1821SOL     OW 6142   0.204   2.132   3.370
 1821SOL    HW1 6143   0.114   2.166   3.365
 1821SOL    HW2 6144   0.195   2.044   3.407
 1822SOL     OW 6145   1.627   3.244   1.953
 1822SOL    HW1 6146   1.587   3.329   1.935
 1822SOL    HW2 6147   1.559   3.180   1.932
 1823SOL     OW 6148   0.467   3.603   2.183
 1823SOL    HW1 6149   0.506   3.664   2.245
 1823SOL    HW2 6150   0.540   3.573   2.129
 1824SOL     OW 6151   1.396   1.966   2.296
 1824SOL    HW1 6152   1.381   1.945   2.204
 1824SOL    HW2 6153   1.489   1.948   2.310
 1825SOL     OW 6154   0.255   3.657   3.087
 1825SOL    HW1 6155   0.297   3.589   3.139
 1825SOL    HW2 6156   0.253   3.620   2.998
 1826SOL     OW 6157   0.938   3.564   2.761
 1826SOL    HW1 6158   1.015   3.512   2.784
 1826SOL    HW2 6159   0.895   3.514   2.691
 1827SOL     OW 6160   0.400   2.554   2.333
 1827SOL    HW1 6161   0.424   2.463   2.348
 1827SOL    HW2 6162   0.308   2.560   2.359
 1828SOL     OW 6163   1.534   2.086   3.587
 1828SOL    HW1 6164   1.546   2.106   3.680
 1828SOL    HW2 6165   1.462   2.023   3.585
 1829SOL     OW 6166   0.646   1.979   1.957
 1829SOL    HW1 6167   0.704   1.906   1.979
 1829SOL    HW2 6168   0.595   1.947   1.883
 1830SOL     OW 6169   0.765   2.141   3.617
 1830SOL    HW1 6170   0.845   2.088   3.614
 1830SOL    HW2 6171   0.719   2.110   3.695
 1831SOL     OW 6172   0.876   3.383   3.056
 1831SOL    HW1 6173   0.859   3.346   2.970
 1831SOL    HW2 6174   0.945   3.328   3.093
 1832SOL     OW 6175   1.340   2.451   3.294
 1832SOL    HW1 6176   1.370   2.420   3.380
 1832SOL    HW2 6177   1.376   2.539   3.287
 1833SOL     OW 6178   0.818   3.252   2.805
 1833SOL    HW1 6179   0.903   3.241   2.763
 1833SOL    HW2 6180   0.755   3.256   2.733
 1834SOL     OW 6181   0.929   2.371   2.763
 1834SOL    HW1 6182   0.905   2.363   2.671
 1834SOL    HW2 6183   0.960   2.284   2.788
 1835SOL     OW 6184   0.558   1.924   2.356
 1835SOL    HW1 6185   0.476   1.929   2.405
 1835SOL    HW2 6186   0.561   2.006   2.306
 1836SOL     OW 6187   1.428   3.062   1.901
 1836SOL    HW1 6188   1.458   2.987   1.952
 1836SOL    HW2 6189   1.342   3.083   1.939
 1837SOL     OW 6190   0.309   1.913   2.031
 1837SOL    HW1 6191   0.372   1.951   1.970
 1837SOL    HW2 6192   0.360   1.848   2.080
 1838SOL     OW 6193   0.941   2.110   2.319
 1838SOL    HW1 6194   0.913   2.150   2.237
 1838SOL    HW2 6195   1.035   2.127   2.324
 1839SOL     OW 6196   1.080   2.545   3.319
 1839SOL    HW1 6197   1.015   2.476   3.324
 1839SOL    HW2 6198   1.164   2.498   3.314
 1840SOL     OW 6199   1.220   3.433   2.656
 1840SOL    HW1 6200   1.235   3.500   2.589
 1840SOL    HW2 6201   1.290   3.448   2.720
 1841SOL     OW 6202   0.467   3.013   2.595
 1841SOL    HW1 6203   0.396   2.989   2.655
 1841SOL    HW2 6204   0.431   2.998   2.508
 1842SOL     OW 6205   1.265   3.655   2.471
 1842SOL    HW1 6206   1.313   3.720   2.420
 1842SOL    HW2 6207   1.192   3.704   2.508
 1843SOL     OW 6208   1.023   2.399   1.888
 1843SOL    HW1 6209   0.981   2.482   1.869
 1843SOL    HW2 6210   1.091   2.420   1.952
 1844SOL     OW 6211   0.083   2.435   3.251
 1844SOL    HW1 6212   0.173   2.422   3.221
 1844SOL    HW2 6213   0.090   2.505   3.317
 1845SOL     OW 6214   0.566   2.089   3.029
 1845SOL    HW1 6215   0.608   2.015   3.073
 1845SOL    HW2 6216   0.475   2.085   3.057
 1846SOL     OW 6217   0.867   2.320   2.501
 1846SOL    HW1 6218   0.820   2.374   2.438
 1846SOL    HW2 6219   0.888   2.240   2.453
 1847SOL     OW 6220   1.017   1.916   2.611
 1847SOL    HW1 6221   0.959   1.911   2.535
 1847SOL    HW2 6222   0.993   1.841   2.665
 1848SOL     OW 6223   1.439   3.023   2.718
 1848SOL    HW1 6224   1.368   2.958   2.719
 1848SOL    HW2 6225   1.463   3.032   2.626
 1849SOL     OW 6226   1.464   2.470   2.832
 1849SOL    HW1 6227   1.409   2.392   2.835
 1849SOL    HW2 6228   1.522   2.462   2.908
 1850SOL     OW 6229   1.842   2.680   2.248
 1850SOL    HW1 6230   1.902   2.628   2.302
 1850SOL    HW2 6231   1.810   2.617   2.183
 1851SOL     OW 6232   0.488   3.283   2.020
 1851SOL    HW1 6233   0.412   3.253   2.070
 1851SOL    HW2 6234   0.472   3.251   1.931
 1852SOL     OW 6235   1.675   3.126   2.505
 1852SOL    HW1 6236   1.769   3.127   2.519
 1852SOL    HW2 6237   1.646   3.215   2.527
 1853SOL     OW 6238   1.390   2.439   1.929
 1853SOL    HW1 6239   1.339   2.413   2.005
 1853SOL    HW2 6240   1.481   2.421   1.953
 1854SOL     OW 6241   0.574   2.129   2.178
 1854SOL    HW1 6242   0.607   2.083   2.101
 1854SOL    HW2 6243   0.543   2.213   2.144
 1855SOL     OW 6244   1.750   3.104   3.428
 1855SOL    HW1 6245   1.837   3.065   3.425
 1855SOL    HW2 6246   1.765   3.194   3.456
 1856SOL     OW 6247   1.055   3.214   3.193
 1856SOL    HW1 6248   0.980   3.183   3.244
 1856SOL    HW2 6249   1.131   3.173   3.236
 1857SOL     OW 6250   1.610   3.489   3.519
 1857SOL    HW1 6251   1.601   3.523   3.430
 1857SOL    HW2 6252   1.692   3.440   3.519
 1858SOL     OW 6253   1.133   3.070   2.965
 1858SOL    HW1 6254   1.074   3.107   3.029
 1858SOL    HW2 6255   1.102   3.104   2.881
 1859SOL     OW 6256   1.625   2.959   2.937
 1859SOL    HW1 6257   1.619   3.021   3.010
 1859SOL    HW2 6258   1.548   2.977   2.884
 1860SOL     OW 6259   0.918   1.956   3.255
 1860SOL    HW1 6260   0.941   1.938   3.164
 1860SOL    HW2 6261   0.997   1.996   3.292
 1861SOL     OW 6262   0.984   2.977   3.584
 1861SOL    HW1 6263   0.893   2.993   3.608
 1861SOL    HW2 6264   0.981   2.899   3.530
 1862SOL     OW 6265   0.708   2.923   2.233
 1862SOL    HW1 6266   0.694   2.905   2.326
 1862SOL    HW2 6267   0.784   2.870   2.209
 1863SOL     OW 6268   0.423   2.680   3.115
 1863SOL    HW1 6269   0.491   2.688   3.182
 1863SOL    HW2 6270   0.389   2.591   3.126
 1864SOL     OW 6271   1.264   2.236   3.142
 1864SOL    HW1 6272   1.297   2.314   3.186
 1864SOL    HW2 6273   1.174   2.257   3.119
 1865SOL     OW 6274   0.066   3.442   3.207
 1865SOL    HW1 6275   0.071   3.489   3.124
 1865SOL    HW2 6276   0.157   3.431   3.235
 1866SOL     OW 6277   0.367   2.964   2.343
 1866SOL    HW1 6278   0.364   3.045   2.293
 1866SOL    HW2 6279   0.367   2.895   2.278
 1867SOL     OW 6280   0.548   2.397   2.723
 1867SOL    HW1 6281   0.562   2.454   2.648
 1867SOL    HW2 6282   0.616   2.422   2.786
 1868SOL     OW 6283   1.247   3.212   2.252
 1868SOL    HW1 6284   1.303   3.282   2.283
 1868SOL    HW2 6285   1.160   3.233   2.285
 1869SOL     OW 6286   1.287   3.322   3.010
 1869SOL    HW1 6287   1.342   3.326   3.088
 1869SOL    HW2 6288   1.231   3.246   3.025
 1870SOL     OW 6289   1.574   2.481   2.340
 1870SOL    HW1 6290   1.530   2.538   2.403
 1870SOL    HW2 6291   1.619   2.540   2.280
 1871SOL     OW 6292   0.345   3.390   3.179
 1871SOL    HW1 6293   0.335   3.340   3.098
 1871SOL    HW2 6294   0.439   3.405   3.187
 1872SOL     OW 6295   0.418   2.600   3.463
 1872SOL    HW1 6296   0.481   2.644   3.407
 1872SOL    HW2 6297   0.457   2.514   3.481
 1873SOL     OW 6298   1.603   2.649   3.538
 1873SOL    HW1 6299   1.518   2.693   3.533
 1873SOL    HW2 6300   1.657   2.693   3.472
 1874SOL     OW 6301   0.996   1.993   3.615
 1874SOL    HW1 6302   1.055   2.065   3.593
 1874SOL    HW2 6303   1.044   1.914   3.590
 1875SOL     OW 6304   0.497   1.896   3.609
 1875SOL    HW1 6305   0.452   1.844   3.542
 1875SOL    HW2 6306   0.443   1.975   3.618
 1876SOL     OW 6307   0.586   2.736   2.894
 1876SOL    HW1 6308   0.619   2.826   2.895
 1876SOL    HW2 6309   0.530   2.731   2.972
 1877SOL     OW 6310   1.351   2.720   2.886
 1877SOL    HW1 6311   1.266   2.707   2.844
 1877SOL    HW2 6312   1.396   2.636   2.877
 1878SOL     OW 6313   1.202   2.389   2.127
 1878SOL    HW1 6314   1.210   2.311   2.182
 1878SOL    HW2 6315   1.159   2.454   2.183
 1879SOL     OW 6316   0.310   2.057   3.109
 1879SOL    HW1 6317   0.263   2.094   3.184
 1879SOL    HW2 6318   0.287   1.964   3.109
 1880SOL     OW 6319   0.061   3.167   3.142
 1880SOL    HW1 6320   0.092   3.125   3.223
 1880SOL    HW2 6321   0.053   3.260   3.165
 1881SOL     OW 6322   0.722   2.492   2.917
 1881SOL    HW1 6323   0.799   2.478   2.860
 1881SOL    HW2 6324   0.694   2.581   2.897
 1882SOL     OW 6325   1.736   2.822   3.716
 1882SOL    HW1 6326   1.692   2.756   3.663
 1882SOL    HW2 6327   1.677   2.837   3.790
 1883SOL     OW 6328   0.316   1.923   2.482
 1883SOL    HW1 6329   0.293   2.014   2.502
 1883SOL    HW2 6330   0.322   1.880   2.567
 1884SOL     OW 6331   1.609   2.232   2.237
 1884SOL    HW1 6332   1.614   2.184   2.319
 1884SOL    HW2 6333   1.590   2.322   2.263
 1885SOL     OW 6334   1.029   2.620   2.821
 1885SOL    HW1 6335   1.021   2.638   2.915
 1885SOL    HW2 6336   1.002   2.529   2.811
 1886SOL     OW 6337   0.986   3.430   3.584
 1886SOL    HW1 6338   0.966   3.470   3.499
 1886SOL    HW2 6339   1.028   3.347   3.561
 1887SOL     OW 6340   1.853   3.364   3.466
 1887SOL    HW1 6341   1.873   3.392   3.377
 1887SOL    HW2 6342   1.933   3.380   3.515
 1888SOL     OW 6343   0.354   2.784   3.661
 1888SOL    HW1 6344   0.432   2.805   3.712
 1888SOL    HW2 6345   0.383   2.717   3.600
 1889SOL     OW 6346   1.530   2.129   1.991
 1889SOL    HW1 6347   1.462   2.068   2.019
 1889SOL    HW2 6348   1.561   2.169   2.072
 1890SOL     OW 6349   1.287   2.689   1.891
 1890SOL    HW1 6350   1.328   2.603   1.895
 1890SOL    HW2 6351   1.320   2.727   1.809
 1891SOL     OW 6352   1.068   3.200   2.718
 1891SOL    HW1 6353   1.072   3.127   2.655
 1891SOL    HW2 6354   1.127   3.266   2.682
 1892SOL     OW 6355   0.313   2.663   2.812
 1892SOL    HW1 6356   0.407   2.681   2.806
 1892SOL    HW2 6357   0.308   2.573   2.843
 1893SOL     OW 6358   0.328   2.383   2.877
 1893SOL    HW1 6359   0.294   2.295   2.861
 1893SOL    HW2 6360   0.405   2.390   2.819
 1894SOL     OW 6361   1.134   2.235   3.547
 1894SOL    HW1 6362   1.086   2.290   3.610
 1894SOL    HW2 6363   1.222   2.273   3.543
 1895SOL     OW 6364   1.161   2.061   3.334
 1895SOL    HW1 6365   1.149   2.124   3.405
 1895SOL    HW2 6366   1.202   2.112   3.264
 1896SOL     OW 6367   0.000   3.178   2.044
 1896SOL    HW1 6368   3.906   3.194   2.048
 1896SOL    HW2 6369   0.009   3.085   2.062
 1897SOL     OW 6370   0.076   3.662   2.757
 1897SOL    HW1 6371   0.093   3.568   2.753
 1897SOL    HW2 6372   0.163   3.703   2.757
 1898SOL     OW 6373   0.506   3.424   2.780
 1898SOL    HW1 6374   0.572   3.491   2.799
 1898SOL    HW2 6375   0.549   3.366   2.716
 1899SOL     OW 6376   0.976   2.651   3.086
 1899SOL    HW1 6377   1.035   2.631   3.159
 1899SOL    HW2 6378   0.892   2.612   3.112
 1900SOL     OW 6379   0.038   2.422   2.971
 1900SOL    HW1 6380   0.121   2.399   2.929
 1900SOL    HW2 6381   0.057   2.418   3.065
 1901SOL     OW 6382   0.206   2.374   3.590
 1901SOL    HW1 6383   0.244   2.325   3.517
 1901SOL    HW2 6384   0.162   2.448   3.548
 1902SOL     OW 6385   1.375   2.800   3.518
 1902SOL    HW1 6386   1.398   2.893   3.514
 1902SOL    HW2 6387   1.371   2.773   3.426
 1903SOL     OW 6388   0.819   2.431   2.226
 1903SOL    HW1 6389   0.824   2.356   2.167
 1903SOL    HW2 6390   0.745   2.482   2.193
 1904SOL     OW 6391   1.642   2.465   3.042
 1904SOL    HW1 6392   1.632   2.411   3.121
 1904SOL    HW2 6393   1.728   2.442   3.008
 1905SOL     OW 6394   0.300   3.406   3.586
 1905SOL    HW1 6395   0.253   3.475   3.632
 1905SOL    HW2 6396   0.271   3.325   3.627
 1906SOL     OW 6397   0.710   2.310   3.117
 1906SOL    HW1 6398   0.656   2.236   3.089
 1906SOL    HW2 6399   0.703   2.374   3.046
 1907SOL     OW 6400   0.926   3.533   3.332
 1907SOL    HW1 6401   0.899   3.494   3.249
 1907SOL    HW2 6402   0.918   3.627   3.318
 1908SOL     OW 6403   0.452   2.350   2.058
 1908SOL    HW1 6404   0.518   2.418   2.076
 1908SOL    HW2 6405   0.373   2.399   2.036
 1909SOL     OW 6406   0.155   2.996   3.338
 1909SOL    HW1 6407   0.155   2.946   3.420
 1909SOL    HW2 6408   0.170   2.931   3.270
 1910SOL     OW 6409   1.323   2.906   3.082
 1910SOL    HW1 6410   1.344   2.843   3.014
 1910SOL    HW2 6411   1.255   2.962   3.043
 1911SOL     OW 6412   1.314   2.719   2.166
 1911SOL    HW1 6413   1.240   2.687   2.218
 1911SOL    HW2 6414   1.288   2.705   2.075
 1912SOL     OW 6415   1.774   3.600   3.014
 1912SOL    HW1 6416   1.836   3.628   2.947
 1912SOL    HW2 6417   1.751   3.510   2.990
 1913SOL     OW 6418   1.244   3.594   2.969
 1913SOL    HW1 6419   1.327   3.616   2.927
 1913SOL    HW2 6420   1.252   3.501   2.989
 1914SOL     OW 6421   0.077   3.075   2.890
 1914SOL    HW1 6422   0.084   3.103   2.981
 1914SOL    HW2 6423   3.984   3.088   2.868
 1915SOL     OW 6424   0.680   3.528   3.598
 1915SOL    HW1 6425   0.621   3.603   3.601
 1915SOL    HW2 6426   0.740   3.548   3.527
 1916SOL     OW 6427   1.391   3.431   2.350
 1916SOL    HW1 6428   1.450   3.465   2.283
 1916SOL    HW2 6429   1.342   3.507   2.381
 1917SOL     OW 6430   0.171   3.621   3.695
 1917SOL    HW1 6431   0.117   3.568   3.753
 1917SOL    HW2 6432   0.217   3.681   3.753
 1918SOL     OW 6433   1.277   2.790   2.533
 1918SOL    HW1 6434   1.351   2.729   2.543
 1918SOL    HW2 6435   1.312   2.861   2.480
 1919SOL     OW 6436   0.808   3.137   3.288
 1919SOL    HW1 6437   0.779   3.178   3.370
 1919SOL    HW2 6438   0.736   3.154   3.227
 1920SOL     OW 6439   0.674   3.480   2.021
 1920SOL    HW1 6440   0.683   3.498   1.927
 1920SOL    HW2 6441   0.615   3.405   2.025
 1921SOL     OW 6442   1.621   3.589   3.252
 1921SOL    HW1 6443   1.673   3.593   3.172
 1921SOL    HW2 6444   1.607   3.680   3.276
 1922SOL     OW 6445   0.265   2.174   2.577
 1922SOL    HW1 6446   0.178   2.206   2.552
 1922SOL    HW2 6447   0.260   2.165   2.673
 1923SOL     OW 6448   1.208   3.465   1.898
 1923SOL    HW1 6449   1.197   3.373   1.922
 1923SOL    HW2 6450   1.147   3.478   1.826
 1924SOL     OW 6451   0.823   2.868   3.236
 1924SOL    HW1 6452   0.868   2.862   3.152
 1924SOL    HW2 6453   0.821   2.962   3.256
 1925SOL     OW 6454   0.916   2.772   2.153
 1925SOL    HW1 6455   0.976   2.805   2.086
 1925SOL    HW2 6456   0.966   2.704   2.199
 1926SOL     OW 6457   1.488   3.492   1.905
 1926SOL    HW1 6458   1.395   3.481   1.889
 1926SOL    HW2 6459   1.528   3.497   1.818
 1927SOL     OW 6460   0.374   3.165   3.353
 1927SOL    HW1 6461   0.359   3.245   3.303
 1927SOL    HW2 6462   0.297   3.111   3.336
 1928SOL     OW 6463   1.609   3.146   3.142
 1928SOL    HW1 6464   1.669   3.132   3.215
 1928SOL    HW2 6465   1.548   3.213   3.173
 1929SOL     OW 6466   1.058   2.971   2.571
 1929SOL    HW1 6467   0.986   2.921   2.608
 1929SOL    HW2 6468   1.122   2.906   2.544
 1930SOL     OW 6469   1.024   2.103   2.829
 1930SOL    HW1 6470   1.021   2.057   2.745
 1930SOL    HW2 6471   1.018   2.034   2.895
 1931SOL     OW 6472   0.607   3.352   2.342
 1931SOL    HW1 6473   0.653   3.302   2.275
 1931SOL    HW2 6474   0.533   3.392   2.296
 1932SOL     OW 6475   1.725   2.257   3.240
 1932SOL    HW1 6476   1.799   2.317   3.247
 1932SOL    HW2 6477   1.752   2.193   3.174
 1933SOL     OW 6478   0.254   3.202   2.154
 1933SOL    HW1 6479   0.160   3.209   2.136
 1933SOL    HW2 6480   0.264   3.241   2.241
 1934SOL     OW 6481   0.108   2.859   3.579
 1934SOL    HW1 6482   0.048   2.853   3.654
 1934SOL    HW2 6483   0.195   2.842   3.616
 1935SOL     OW 6484   0.676   2.058   3.362
 1935SOL    HW1 6485   0.761   2.036   3.321
 1935SOL    HW2 6486   0.699   2.091   3.449
 1936SOL     OW 6487   0.081   2.174   1.899
 1936SOL    HW1 6488   3.985   2.174   1.907
 1936SOL    HW2 6489   0.101   2.255   1.853
 1937SOL     OW 6490   1.427   2.720   3.260
 1937SOL    HW1 6491   1.378   2.782   3.204
 1937SOL    HW2 6492   1.516   2.723   3.225
 1938SOL     OW 6493   0.016   2.102   2.240
 1938SOL    HW1 6494   0.045   2.165   2.174
 1938SOL    HW2 6495   0.097   2.060   2.270
 1939SOL     OW 6496   1.177   3.198   1.979
 1939SOL    HW1 6497   1.086   3.169   1.980
 1939SOL    HW2 6498   1.204   3.198   2.071
 1940SOL     OW 6499   0.620   2.692   3.299
 1940SOL    HW1 6500   0.676   2.768   3.284
 1940SOL    HW2 6501   0.681   2.619   3.306
 1941SOL     OW 6502   1.486   3.642   2.844
 1941SOL    HW1 6503   1.509   3.703   2.773
 1941SOL    HW2 6504   1.571   3.619   2.883
 1942SOL     OW 6505   0.716   2.423   3.565
 1942SOL    HW1 6506   0.762   2.484   3.623
 1942SOL    HW2 6507   0.739   2.337   3.598
 1943SOL     OW 6508   1.474   3.059   3.491
 1943SOL    HW1 6509   1.462   3.073   3.585
 1943SOL    HW2 6510   1.566   3.077   3.476
 1944SOL     OW 6511   0.378   3.609   3.422
 1944SOL    HW1 6512   0.290   3.645   3.409
 1944SOL    HW2 6513   0.364   3.525   3.466
 1945SOL     OW 6514   1.666   2.743   3.115
 1945SOL    HW1 6515   1.660   2.657   3.072
 1945SOL    HW2 6516   1.655   2.806   3.044
 1946SOL     OW 6517   1.215   2.181   2.320
 1946SOL    HW1 6518   1.277   2.109   2.313
 1946SOL    HW2 6519   1.244   2.231   2.396
 1947SOL     OW 6520   0.588   2.598   2.536
 1947SOL    HW1 6521   0.627   2.684   2.520
 1947SOL    HW2 6522   0.523   2.589   2.466
 1948SOL     OW 6523   1.753   2.242   3.519
 1948SOL    HW1 6524   1.744   2.249   3.424
 1948SOL    HW2 6525   1.683   2.182   3.545
 1949SOL     OW 6526   1.750   2.800   3.369
 1949SOL    HW1 6527   1.740   2.895   3.382
 1949SOL    HW2 6528   1.731   2.786   3.276
 1950SOL     OW 6529   0.865   3.228   1.903
 1950SOL    HW1 6530   0.824   3.256   1.985
 1950SOL    HW2 6531   0.879   3.309   1.854
 1951SOL     OW 6532   0.658   3.649   2.794
 1951SOL    HW1 6533   0.638   3.741   2.776
 1951SOL    HW2 6534   0.754   3.646   2.793
 1952SOL     OW 6535   0.869   2.831   2.715
 1952SOL    HW1 6536   0.919   2.759   2.753
 1952SOL    HW2 6537   0.832   2.877   2.790
 1953SOL     OW 6538   1.076   2.850   1.950
 1953SOL    HW1 6539   1.056   2.902   1.873
 1953SOL    HW2 6540   1.151   2.796   1.925
 1954SOL     OW 6541   1.849   3.412   2.703
 1954SOL    HW1 6542   1.768   3.401   2.652
 1954SOL    HW2 6543   1.840   3.350   2.775
 1955SOL     OW 6544   0.228   3.166   3.719
 1955SOL    HW1 6545   0.153   3.113   3.692
 1955SOL    HW2 6546   0.216   3.179   3.813
 1956SOL     OW 6547   0.118   3.143   2.585
 1956SOL    HW1 6548   0.137   3.091   2.664
 1956SOL    HW2 6549   0.104   3.077   2.517
 1957SOL     OW 6550   0.684   3.267   3.493
 1957SOL    HW1 6551   0.603   3.226   3.524
 1957SOL    HW2 6552   0.680   3.356   3.530
 1958SOL     OW 6553   0.440   2.296   2.396
 1958SOL    HW1 6554   0.441   2.226   2.331
 1958SOL    HW2 6555   0.385   2.262   2.467
 1959SOL     OW 6556   1.700   3.347   2.952
 1959SOL    HW1 6557   1.618   3.326   2.906
 1959SOL    HW2 6558   1.706   3.279   3.019
 1960SOL     OW 6559   0.336   2.421   3.154
 1960SOL    HW1 6560   0.389   2.363   3.209
 1960SOL    HW2 6561   0.350   2.389   3.065
 1961SOL     OW 6562   0.829   3.441   2.538
 1961SOL    HW1 6563   0.810   3.497   2.463
 1961SOL    HW2 6564   0.756   3.380   2.542
 1962SOL     OW 6565   1.437   2.092   2.981
 1962SOL    HW1 6566   1.444   2.004   3.017
 1962SOL    HW2 6567   1.383   2.139   3.045
 1963SOL     OW 6568   1.010   1.878   3.000
 1963SOL    HW1 6569   0.956   1.811   2.957
 1963SOL    HW2 6570   1.098   1.840   3.001
 1964SOL     OW 6571   0.773   3.194   2.183
 1964SOL    HW1 6572   0.744   3.103   2.189
 1964SOL    HW2 6573   0.856   3.197   2.231
 1965SOL     OW 6574   0.621   3.415   3.148
 1965SOL    HW1 6575   0.621   3.497   3.198
 1965SOL    HW2 6576   0.709   3.410   3.111
 1966SOL     OW 6577   1.351   1.914   2.030
 1966SOL    HW1 6578   1.383   1.849   1.967
 1966SOL    HW2 6579   1.263   1.884   2.053
 1967SOL     OW 6580   1.297   2.324   2.541
 1967SOL    HW1 6581   1.245   2.404   2.546
 1967SOL    HW2 6582   1.292   2.287   2.629
 1968SOL     OW 6583   1.569   2.050   2.734
 1968SOL    HW1 6584   1.535   2.078   2.818
 1968SOL    HW2 6585   1.585   2.131   2.685
 1969SOL     OW 6586   0.047   2.910   2.102
 1969SOL    HW1 6587   0.142   2.895   2.094
 1969SOL    HW2 6588   0.012   2.825   2.129
 1970SOL     OW 6589   0.887   3.523   2.204
 1970SOL    HW1 6590   0.815   3.503   2.143
 1970SOL    HW2 6591   0.856   3.597   2.256
 1971SOL     OW 6592   0.231   2.488   3.842
 1971SOL    HW1 6593   0.138   2.495   3.863
 1971SOL    HW2 6594   0.232   2.455   3.752
 1972SOL     OW 6595   0.229   2.134   4.711
 1972SOL    HW1 6596   0.250   2.100   4.797
 1972SOL    HW2 6597   0.134   2.127   4.704
 1973SOL     OW 6598   0.007   2.220   4.354
 1973SOL    HW1 6599   3.918   2.238   4.383
 1973SOL    HW2 6600   3.997   2.190   4.263
 1974SOL     OW 6601   0.581   3.153   4.918
 1974SOL    HW1 6602   0.495   3.156   4.876
 1974SOL    HW2 6603   0.595   3.242   4.949
 1975SOL     OW 6604   1.566   3.373   4.433
 1975SOL    HW1 6605   1.524   3.350   4.516
 1975SOL    HW2 6606   1.494   3.376   4.370
 1976SOL     OW 6607   1.132   2.560   4.421
 1976SOL    HW1 6608   1.180   2.642   4.408
 1976SOL    HW2 6609   1.085   2.573   4.503
 1977SOL     OW 6610   1.750   2.477   3.957
 1977SOL    HW1 6611   1.731   2.474   3.863
 1977SOL    HW2 6612   1.756   2.385   3.983
 1978SOL     OW 6613   0.750   3.000   4.768
 1978SOL    HW1 6614   0.688   3.036   4.830
 1978SOL    HW2 6615   0.787   3.076   4.723
 1979SOL     OW 6616   0.872   2.628   5.547
 1979SOL    HW1 6617   0.861   2.700   5.610
 1979SOL    HW2 6618   0.895   2.672   5.465
 1980SOL     OW 6619   0.685   2.862   4.369
 1980SOL    HW1 6620   0.751   2.852   4.437
 1980SOL    HW2 6621   0.616   2.915   4.410
 1981SOL     OW 6622   0.713   3.011   5.543
 1981SOL    HW1 6623   0.761   3.089   5.572
 1981SOL    HW2 6624   0.632   3.046   5.504
 1982SOL     OW 6625   0.351   3.263   4.802
 1982SOL    HW1 6626   0.269   3.246   4.755
 1982SOL    HW2 6627   0.400   3.320   4.744
 1983SOL     OW 6628   1.460   3.363   5.083
 1983SOL    HW1 6629   1.514   3.442   5.092
 1983SOL    HW2 6630   1.392   3.372   5.150
 1984SOL     OW 6631   0.450   2.259   5.210
 1984SOL    HW1 6632   0.525   2.200   5.213
 1984SOL    HW2 6633   0.374   2.202   5.224
 1985SOL     OW 6634   1.605   2.300   4.458
 1985SOL    HW1 6635   1.526   2.323   4.410
 1985SOL    HW2 6636   1.621   2.376   4.515
 1986SOL     OW 6637   0.222   3.572   4.190
 1986SOL    HW1 6638   0.221   3.656   4.235
 1986SOL    HW2 6639   0.299   3.576   4.133
 1987SOL     OW 6640   1.138   3.203   5.418
 1987SOL    HW1 6641   1.179   3.197   5.504
 1987SOL    HW2 6642   1.085   3.124   5.410
 1988SOL     OW 6643   0.252   3.306   4.263
 1988SOL    HW1 6644   0.223   3.396   4.250
 1988SOL    HW2 6645   0.183   3.267   4.317
 1989SOL     OW 6646   0.248   2.928   4.607
 1989SOL    HW1 6647   0.268   2.843   4.647
 1989SOL    HW2 6648   0.195   2.972   4.673
 1990SOL     OW 6649   0.609   3.648   5.150
 1990SOL    HW1 6650   0.527   3.634   5.197
 1990SOL    HW2 6651   0.636   3.737   5.175
 1991SOL     OW 6652   0.575   2.849   3.863
 1991SOL    HW1 6653   0.625   2.893   3.794
 1991SOL    HW2 6654   0.616   2.878   3.944
 1992SOL     OW 6655   1.596   1.994   5.187
 1992SOL    HW1 6656   1.590   2.081   5.147
 1992SOL    HW2 6657   1.584   2.010   5.281
 1993SOL     OW 6658   0.143   2.517   4.297
 1993SOL    HW1 6659   0.087   2.440   4.295
 1993SOL    HW2 6660   0.107   2.571   4.368
 1994SOL     OW 6661   1.843   3.607   4.061
 1994SOL    HW1 6662   1.913   3.583   4.123
 1994SOL    HW2 6663   1.862   3.697   4.038
 1995SOL     OW 6664   0.041   3.452   3.863
 1995SOL    HW1 6665   0.036   3.360   3.891
 1995SOL    HW2 6666   3.956   3.488   3.888
 1996SOL     OW 6667   1.690   2.781   4.368
 1996SOL    HW1 6668   1.770   2.735   4.343
 1996SOL    HW2 6669   1.666   2.831   4.290
 1997SOL     OW 6670   1.648   2.966   4.153
 1997SOL    HW1 6671   1.735   2.968   4.112
 1997SOL    HW2 6672   1.655   3.029   4.225
 1998SOL     OW 6673   0.142   2.615   5.314
 1998SOL    HW1 6674   0.237   2.610   5.309
 1998SOL    HW2 6675   0.123   2.702   5.347
 1999SOL     OW 6676   0.617   3.249   4.458
 1999SOL    HW1 6677   0.569   3.167   4.468
 1999SOL    HW2 6678   0.599   3.277   4.368
 2000SOL     OW 6679   1.286   3.098   5.146
 2000SOL    HW1 6680   1.317   3.030   5.085
 2000SOL    HW2 6681   1.346   3.093   5.220
 2001SOL     OW 6682   0.822   1.863   4.237
 2001SOL    HW1 6683   0.862   1.947   4.214
 2001SOL    HW2 6684   0.728   1.882   4.241
 2002SOL     OW 6685   0.184   2.811   5.005
 2002SOL    HW1 6686   0.272   2.776   4.992
 2002SOL    HW2 6687   0.133   2.775   4.932
 2003SOL     OW 6688   1.531   2.860   3.923
 2003SOL    HW1 6689   1.462   2.802   3.956
 2003SOL    HW2 6690   1.574   2.893   4.002
 2004SOL     OW 6691   1.220   3.667   5.352
 2004SOL    HW1 6692   1.195   3.728   5.283
 2004SOL    HW2 6693   1.221   3.581   5.309
 2005SOL     OW 6694   0.343   2.109   5.543
 2005SOL    HW1 6695   0.377   2.198   5.548
 2005SOL    HW2 6696   0.251   2.118   5.567
 2006SOL     OW 6697   1.466   3.281   4.672
 2006SOL    HW1 6698   1.399   3.297   4.739
 2006SOL    HW2 6699   1.453   3.190   4.646
 2007SOL     OW 6700   1.653   3.604   4.305
 2007SOL    HW1 6701   1.639   3.572   4.216
 2007SOL    HW2 6702   1.631   3.529   4.361
 2008SOL     OW 6703   0.596   2.576   3.991
 2008SOL    HW1 6704   0.602   2.661   3.947
 2008SOL    HW2 6705   0.533   2.590   4.061
 2009SOL     OW 6706   1.279   2.225   4.659
 2009SOL    HW1 6707   1.191   2.189   4.669
 2009SOL    HW2 6708   1.335   2.169   4.713
 2010SOL     OW 6709   1.576   3.538   4.033
 2010SOL    HW1 6710   1.669   3.560   4.027
 2010SOL    HW2 6711   1.550   3.519   3.943
 2011SOL     OW 6712   0.790   2.480   5.174
 2011SOL    HW1 6713   0.764   2.454   5.262
 2011SOL    HW2 6714   0.755   2.412   5.117
 2012SOL     OW 6715   1.393   2.333   5.400
 2012SOL    HW1 6716   1.398   2.381   5.483
 2012SOL    HW2 6717   1.452   2.259   5.411
 2013SOL     OW 6718   0.951   2.747   5.309
 2013SOL    HW1 6719   1.006   2.678   5.271
 2013SOL    HW2 6720   0.903   2.783   5.234
 2014SOL     OW 6721   0.993   2.273   4.959
 2014SOL    HW1 6722   0.905   2.291   4.991
 2014SOL    HW2 6723   0.981   2.229   4.875
 2015SOL     OW 6724   1.053   2.561   4.149
 2015SOL    HW1 6725   1.071   2.554   4.243
 2015SOL    HW2 6726   0.970   2.514   4.136
 2016SOL     OW 6727   0.082   2.693   4.514
 2016SOL    HW1 6728   0.155   2.661   4.567
 2016SOL    HW2 6729   0.103   2.785   4.497
 2017SOL     OW 6730   0.127   3.719   5.304
 2017SOL    HW1 6731   0.135   3.687   5.394
 2017SOL    HW2 6732   0.035   3.706   5.282
 2018SOL     OW 6733   0.898   2.212   3.918
 2018SOL    HW1 6734   0.938   2.276   3.858
 2018SOL    HW2 6735   0.914   2.128   3.876
 2019SOL     OW 6736   1.668   2.446   5.557
 2019SOL    HW1 6737   1.648   2.516   5.495
 2019SOL    HW2 6738   1.719   2.383   5.505
 2020SOL     OW 6739   1.380   3.004   4.264
 2020SOL    HW1 6740   1.459   2.992   4.211
 2020SOL    HW2 6741   1.327   3.066   4.214
 2021SOL     OW 6742   0.546   2.039   4.619
 2021SOL    HW1 6743   0.553   2.072   4.709
 2021SOL    HW2 6744   0.546   2.118   4.565
 2022SOL     OW 6745   1.002   3.307   4.193
 2022SOL    HW1 6746   0.967   3.381   4.145
 2022SOL    HW2 6747   0.980   3.326   4.285
 2023SOL     OW 6748   0.359   3.672   4.588
 2023SOL    HW1 6749   0.439   3.621   4.601
 2023SOL    HW2 6750   0.387   3.763   4.596
 2024SOL     OW 6751   1.801   2.915   4.594
 2024SOL    HW1 6752   1.748   2.894   4.517
 2024SOL    HW2 6753   1.736   2.922   4.665
 2025SOL     OW 6754   1.227   3.399   5.235
 2025SOL    HW1 6755   1.215   3.327   5.297
 2025SOL    HW2 6756   1.158   3.387   5.170
 2026SOL     OW 6757   0.311   2.815   3.966
 2026SOL    HW1 6758   0.394   2.837   3.924
 2026SOL    HW2 6759   0.298   2.722   3.946
 2027SOL     OW 6760   1.480   2.611   4.449
 2027SOL    HW1 6761   1.477   2.568   4.534
 2027SOL    HW2 6762   1.560   2.664   4.452
 2028SOL     OW 6763   0.469   3.122   5.461
 2028SOL    HW1 6764   0.444   3.131   5.369
 2028SOL    HW2 6765   0.387   3.125   5.509
 2029SOL     OW 6766   1.113   3.643   3.945
 2029SOL    HW1 6767   1.048   3.598   3.998
 2029SOL    HW2 6768   1.144   3.577   3.883
 2030SOL     OW 6769   0.204   2.132   5.233
 2030SOL    HW1 6770   0.114   2.166   5.227
 2030SOL    HW2 6771   0.194   2.044   5.269
 2031SOL     OW 6772   1.627   3.244   3.815
 2031SOL    HW1 6773   1.587   3.329   3.797
 2031SOL    HW2 6774   1.559   3.180   3.794
 2032SOL     OW 6775   0.467   3.603   4.045
 2032SOL    HW1 6776   0.506   3.664   4.107
 2032SOL    HW2 6777   0.540   3.573   3.991
 2033SOL     OW 6778   1.396   1.966   4.158
 2033SOL    HW1 6779   1.381   1.945   4.066
 2033SOL    HW2 6780   1.489   1.947   4.172
 2034SOL     OW 6781   0.255   3.657   4.949
 2034SOL    HW1 6782   0.297   3.588   5.001
 2034SOL    HW2 6783   0.253   3.621   4.860
 2035SOL     OW 6784   0.938   3.564   4.623
 2035SOL    HW1 6785   1.016   3.512   4.645
 2035SOL    HW2 6786   0.895   3.514   4.553
 2036SOL     OW 6787   0.400   2.554   4.195
 2036SOL    HW1 6788   0.424   2.463   4.210
 2036SOL    HW2 6789   0.308   2.560   4.221
 2037SOL     OW 6790   1.531   2.085   5.448
 2037SOL    HW1 6791   1.543   2.107   5.540
 2037SOL    HW2 6792   1.463   2.018   5.448
 2038SOL     OW 6793   0.646   1.979   3.820
 2038SOL    HW1 6794   0.704   1.906   3.841
 2038SOL    HW2 6795   0.595   1.947   3.745
 2039SOL     OW 6796   0.765   2.142   5.479
 2039SOL    HW1 6797   0.845   2.089   5.474
 2039SOL    HW2 6798   0.718   2.106   5.555
 2040SOL     OW 6799   0.876   3.383   4.918
 2040SOL    HW1 6800   0.859   3.346   4.832
 2040SOL    HW2 6801   0.945   3.328   4.955
 2041SOL     OW 6802   1.339   2.451   5.157
 2041SOL    HW1 6803   1.370   2.419   5.242
 2041SOL    HW2 6804   1.377   2.539   5.150
 2042SOL     OW 6805   0.818   3.252   4.667
 2042SOL    HW1 6806   0.903   3.241   4.625
 2042SOL    HW2 6807   0.755   3.256   4.595
 2043SOL     OW 6808   0.929   2.371   4.625
 2043SOL    HW1 6809   0.904   2.363   4.533
 2043SOL    HW2 6810   0.959   2.284   4.650
 2044SOL     OW 6811   0.558   1.924   4.218
 2044SOL    HW1 6812   0.476   1.929   4.267
 2044SOL    HW2 6813   0.561   2.006   4.168
 2045SOL     OW 6814   1.428   3.062   3.763
 2045SOL    HW1 6815   1.458   2.987   3.814
 2045SOL    HW2 6816   1.342   3.083   3.801
 2046SOL     OW 6817   0.309   1.913   3.893
 2046SOL    HW1 6818   0.372   1.951   3.832
 2046SOL    HW2 6819   0.360   1.848   3.942
 2047SOL     OW 6820   0.941   2.110   4.181
 2047SOL    HW1 6821   0.913   2.150   4.099
 2047SOL    HW2 6822   1.035   2.127   4.186
 2048SOL     OW 6823   1.080   2.545   5.182
 2048SOL    HW1 6824   1.015   2.475   5.186
 2048SOL    HW2 6825   1.164   2.499   5.176
 2049SOL     OW 6826   1.220   3.434   4.518
 2049SOL    HW1 6827   1.235   3.500   4.451
 2049SOL    HW2 6828   1.290   3.448   4.582
 2050SOL     OW 6829   0.467   3.013   4.457
 2050SOL    HW1 6830   0.396   2.989   4.517
 2050SOL    HW2 6831   0.431   2.998   4.370
 2051SOL     OW 6832   1.265   3.655   4.333
 2051SOL    HW1 6833   1.313   3.720   4.281
 2051SOL    HW2 6834   1.192   3.704   4.370
 2052SOL     OW 6835   1.024   2.399   3.750
 2052SOL    HW1 6836   0.981   2.482   3.731
 2052SOL    HW2 6837   1.091   2.420   3.814
 2053SOL     OW 6838   0.083   2.435   5.114
 2053SOL    HW1 6839   0.173   2.422   5.083
 2053SOL    HW2 6840   0.090   2.505   5.179
 2054SOL     OW 6841   0.567   2.089   4.891
 2054SOL    HW1 6842   0.608   2.015   4.935
 2054SOL    HW2 6843   0.475   2.085   4.919
 2055SOL     OW 6844   0.867   2.320   4.363
 2055SOL    HW1 6845   0.820   2.374   4.300
 2055SOL    HW2 6846   0.888   2.240   4.315
 2056SOL     OW 6847   1.017   1.916   4.473
 2056SOL    HW1 6848   0.959   1.911   4.398
 2056SOL    HW2 6849   0.993   1.841   4.527
 2057SOL     OW 6850   1.438   3.023   4.580
 2057SOL    HW1 6851   1.368   2.958   4.581
 2057SOL    HW2 6852   1.463   3.032   4.488
 2058SOL     OW 6853   1.465   2.470   4.694
 2058SOL    HW1 6854   1.410   2.392   4.697
 2058SOL    HW2 6855   1.523   2.461   4.770
 2059SOL     OW 6856   1.842   2.680   4.110
 2059SOL    HW1 6857   1.902   2.629   4.164
 2059SOL    HW2 6858   1.810   2.617   4.045
 2060SOL     OW 6859   0.488   3.283   3.882
 2060SOL    HW1 6860   0.412   3.253   3.932
 2060SOL    HW2 6861   0.472   3.250   3.793
 2061SOL     OW 6862   1.675   3.126   4.367
 2061SOL    HW1 6863   1.769   3.126   4.381
 2061SOL    HW2 6864   1.646   3.215   4.389
 2062SOL     OW 6865   1.389   2.439   3.790
 2062SOL    HW1 6866   1.339   2.413   3.868
 2062SOL    HW2 6867   1.480   2.422   3.814
 2063SOL     OW 6868   0.574   2.130   4.040
 2063SOL    HW1 6869   0.607   2.083   3.963
 2063SOL    HW2 6870   0.543   2.213   4.006
 2064SOL     OW 6871   1.750   3.104   5.290
 2064SOL    HW1 6872   1.838   3.065   5.287
 2064SOL    HW2 6873   1.766   3.195   5.318
 2065SOL     OW 6874   1.055   3.214   5.056
 2065SOL    HW1 6875   0.980   3.184   5.106
 2065SOL    HW2 6876   1.131   3.173   5.098
 2066SOL     OW 6877   1.610   3.489   5.381
 2066SOL    HW1 6878   1.601   3.523   5.292
 2066SOL    HW2 6879   1.693   3.440   5.381
 2067SOL     OW 6880   1.134   3.070   4.827
 2067SOL    HW1 6881   1.073   3.107   4.891
 2067SOL    HW2 6882   1.103   3.104   4.743
 2068SOL     OW 6883   1.625   2.959   4.799
 2068SOL    HW1 6884   1.618   3.021   4.872
 2068SOL    HW2 6885   1.548   2.977   4.746
 2069SOL     OW 6886   0.918   1.957   5.117
 2069SOL    HW1 6887   0.942   1.938   5.026
 2069SOL    HW2 6888   0.997   1.996   5.154
 2070SOL     OW 6889   0.984   2.977   5.447
 2070SOL    HW1 6890   0.893   2.993   5.470
 2070SOL    HW2 6891   0.981   2.898   5.392
 2071SOL     OW 6892   0.708   2.923   4.095
 2071SOL    HW1 6893   0.694   2.905   4.188
 2071SOL    HW2 6894   0.784   2.870   4.071
 2072SOL     OW 6895   0.423   2.680   4.977
 2072SOL    HW1 6896   0.491   2.688   5.044
 2072SOL    HW2 6897   0.389   2.591   4.988
 2073SOL     OW 6898   1.264   2.236   5.004
 2073SOL    HW1 6899   1.297   2.314   5.049
 2073SOL    HW2 6900   1.174   2.258   4.981
 2074SOL     OW 6901   0.065   3.442   5.069
 2074SOL    HW1 6902   0.071   3.488   4.986
 2074SOL    HW2 6903   0.157   3.431   5.097
 2075SOL     OW 6904   0.367   2.964   4.205
 2075SOL    HW1 6905   0.364   3.045   4.155
 2075SOL    HW2 6906   0.367   2.895   4.140
 2076SOL     OW 6907   0.548   2.397   4.585
 2076SOL    HW1 6908   0.562   2.454   4.510
 2076SOL    HW2 6909   0.616   2.422   4.648
 2077SOL     OW 6910   1.247   3.212   4.114
 2077SOL    HW1 6911   1.303   3.282   4.145
 2077SOL    HW2 6912   1.160   3.233   4.147
 2078SOL     OW 6913   1.287   3.322   4.872
 2078SOL    HW1 6914   1.342   3.326   4.950
 2078SOL    HW2 6915   1.231   3.245   4.886
 2079SOL     OW 6916   1.573   2.481   4.202
 2079SOL    HW1 6917   1.530   2.538   4.265
 2079SOL    HW2 6918   1.619   2.541   4.143
 2080SOL     OW 6919   0.345   3.390   5.041
 2080SOL    HW1 6920   0.335   3.340   4.960
 2080SOL    HW2 6921   0.439   3.405   5.049
 2081SOL     OW 6922   0.418   2.600   5.326
 2081SOL    HW1 6923   0.481   2.645   5.269
 2081SOL    HW2 6924   0.457   2.514   5.342
 2082SOL     OW 6925   1.604   2.652   5.400
 2082SOL    HW1 6926   1.518   2.694   5.394
 2082SOL    HW2 6927   1.657   2.696   5.332
 2083SOL     OW 6928   0.995   1.993   5.476
 2083SOL    HW1 6929   1.055   2.065   5.455
 2083SOL    HW2 6930   1.042   1.914   5.452
 2084SOL     OW 6931   0.497   1.896   5.472
 2084SOL    HW1 6932   0.452   1.844   5.405
 2084SOL    HW2 6933   0.443   1.975   5.481
 2085SOL     OW 6934   0.586   2.736   4.756
 2085SOL    HW1 6935   0.619   2.826   4.757
 2085SOL    HW2 6936   0.530   2.731   4.834
 2086SOL     OW 6937   1.351   2.720   4.748
 2086SOL    HW1 6938   1.266   2.707   4.706
 2086SOL    HW2 6939   1.396   2.636   4.739
 2087SOL     OW 6940   1.202   2.389   3.989
 2087SOL    HW1 6941   1.210   2.311   4.045
 2087SOL    HW2 6942   1.159   2.454   4.045
 2088SOL     OW 6943   0.310   2.057   4.971
 2088SOL    HW1 6944   0.263   2.094   5.046
 2088SOL    HW2 6945   0.287   1.964   4.971
 2089SOL     OW 6946   0.062   3.167   5.004
 2089SOL    HW1 6947   0.092   3.125   5.085
 2089SOL    HW2 6948   0.053   3.260   5.027
 2090SOL     OW 6949   0.723   2.492   4.779
 2090SOL    HW1 6950   0.799   2.478   4.722
 2090SOL    HW2 6951   0.695   2.581   4.759
 2091SOL     OW 6952   1.738   2.819   5.584
 2091SOL    HW1 6953   1.697   2.754   5.526
 2091SOL    HW2 6954   1.671   2.836   5.651
 2092SOL     OW 6955   0.316   1.923   4.344
 2092SOL    HW1 6956   0.293   2.014   4.364
 2092SOL    HW2 6957   0.322   1.880   4.429
 2093SOL     OW 6958   1.610   2.233   4.099
 2093SOL    HW1 6959   1.611   2.183   4.181
 2093SOL    HW2 6960   1.590   2.323   4.126
 2094SOL     OW 6961   1.029   2.621   4.683
 2094SOL    HW1 6962   1.021   2.638   4.777
 2094SOL    HW2 6963   1.002   2.529   4.673
 2095SOL     OW 6964   0.986   3.430   5.446
 2095SOL    HW1 6965   0.966   3.470   5.361
 2095SOL    HW2 6966   1.028   3.347   5.423
 2096SOL     OW 6967   1.853   3.364   5.328
 2096SOL    HW1 6968   1.873   3.392   5.238
 2096SOL    HW2 6969   1.933   3.380   5.377
 2097SOL     OW 6970   0.354   2.784   5.524
 2097SOL    HW1 6971   0.432   2.805   5.574
 2097SOL    HW2 6972   0.382   2.716   5.462
 2098SOL     OW 6973   1.529   2.129   3.852
 2098SOL    HW1 6974   1.462   2.068   3.881
 2098SOL    HW2 6975   1.561   2.169   3.934
 2099SOL     OW 6976   1.287   2.690   3.753
 2099SOL    HW1 6977   1.328   2.603   3.757
 2099SOL    HW2 6978   1.320   2.728   3.671
 2100SOL     OW 6979   1.068   3.200   4.580
 2100SOL    HW1 6980   1.072   3.127   4.517
 2100SOL    HW2 6981   1.127   3.266   4.544
 2101SOL     OW 6982   0.313   2.663   4.674
 2101SOL    HW1 6983   0.407   2.680   4.668
 2101SOL    HW2 6984   0.308   2.573   4.705
 2102SOL     OW 6985   0.328   2.383   4.739
 2102SOL    HW1 6986   0.294   2.295   4.723
 2102SOL    HW2 6987   0.405   2.390   4.681
 2103SOL     OW 6988   1.134   2.235   5.409
 2103SOL    HW1 6989   1.086   2.291   5.471
 2103SOL    HW2 6990   1.222   2.273   5.405
 2104SOL     OW 6991   1.160   2.061   5.195
 2104SOL    HW1 6992   1.150   2.124   5.267
 2104SOL    HW2 6993   1.202   2.112   5.126
 2105SOL     OW 6994   0.000   3.178   3.906
 2105SOL    HW1 6995   3.906   3.194   3.910
 2105SOL    HW2 6996   0.009   3.085   3.924
 2106SOL     OW 6997   0.076   3.662   4.619
 2106SOL    HW1 6998   0.093   3.568   4.615
 2106SOL    HW2 6999   0.163   3.703   4.619
 2107SOL     OW 7000   0.506   3.424   4.642
 2107SOL    HW1 7001   0.572   3.491   4.661
 2107SOL    HW2 7002   0.549   3.366   4.578
 2108SOL     OW 7003   0.976   2.651   4.949
 2108SOL    HW1 7004   1.035   2.631   5.021
 2108SOL    HW2 7005   0.893   2.612   4.974
 2109SOL     OW 7006   0.038   2.422   4.833
 2109SOL    HW1 7007   0.121   2.399   4.791
 2109SOL    HW2 7008   0.057   2.418   4.927
 2110SOL     OW 7009   0.207   2.374   5.452
 2110SOL    HW1 7010   0.244   2.324   5.378
 2110SOL    HW2 7011   0.162   2.447   5.411
 2111SOL     OW 7012   1.374   2.801   5.380
 2111SOL    HW1 7013   1.397   2.894   5.376
 2111SOL    HW2 7014   1.370   2.773   5.289
 2112SOL     OW 7015   0.819   2.431   4.088
 2112SOL    HW1 7016   0.824   2.356   4.029
 2112SOL    HW2 7017   0.745   2.482   4.055
 2113SOL     OW 7018   1.642   2.465   4.904
 2113SOL    HW1 7019   1.632   2.410   4.982
 2113SOL    HW2 7020   1.729   2.442   4.870
 2114SOL     OW 7021   0.301   3.406   5.448
 2114SOL    HW1 7022   0.253   3.476   5.494
 2114SOL    HW2 7023   0.271   3.325   5.489
 2115SOL     OW 7024   0.710   2.310   4.980
 2115SOL    HW1 7025   0.656   2.236   4.951
 2115SOL    HW2 7026   0.703   2.374   4.908
 2116SOL     OW 7027   0.926   3.533   5.194
 2116SOL    HW1 7028   0.900   3.494   5.111
 2116SOL    HW2 7029   0.918   3.627   5.180
 2117SOL     OW 7030   0.452   2.350   3.920
 2117SOL    HW1 7031   0.518   2.418   3.938
 2117SOL    HW2 7032   0.373   2.399   3.898
 2118SOL     OW 7033   0.155   2.996   5.200
 2118SOL    HW1 7034   0.155   2.946   5.282
 2118SOL    HW2 7035   0.170   2.931   5.132
 2119SOL     OW 7036   1.322   2.906   4.944
 2119SOL    HW1 7037   1.344   2.843   4.876
 2119SOL    HW2 7038   1.255   2.962   4.905
 2120SOL     OW 7039   1.314   2.719   4.029
 2120SOL    HW1 7040   1.240   2.686   4.080
 2120SOL    HW2 7041   1.288   2.705   3.937
 2121SOL     OW 7042   1.774   3.600   4.876
 2121SOL    HW1 7043   1.836   3.628   4.809
 2121SOL    HW2 7044   1.751   3.510   4.852
 2122SOL     OW 7045   1.244   3.594   4.831
 2122SOL    HW1 7046   1.327   3.616   4.789
 2122SOL    HW2 7047   1.252   3.501   4.851
 2123SOL     OW 7048   0.077   3.075   4.752
 2123SOL    HW1 7049   0.084   3.103   4.843
 2123SOL    HW2 7050   3.984   3.088   4.730
 2124SOL     OW 7051   0.680   3.528   5.460
 2124SOL    HW1 7052   0.621   3.603   5.463
 2124SOL    HW2 7053   0.740   3.548   5.388
 2125SOL     OW 7054   1.391   3.431   4.213
 2125SOL    HW1 7055   1.450   3.465   4.145
 2125SOL    HW2 7056   1.342   3.507   4.243
 2126SOL     OW 7057   0.171   3.621   5.557
 2126SOL    HW1 7058   0.117   3.568   5.615
 2126SOL    HW2 7059   0.217   3.681   5.615
 2127SOL     OW 7060   1.277   2.790   4.395
 2127SOL    HW1 7061   1.351   2.730   4.406
 2127SOL    HW2 7062   1.312   2.861   4.342
 2128SOL     OW 7063   0.808   3.137   5.150
 2128SOL    HW1 7064   0.779   3.178   5.232
 2128SOL    HW2 7065   0.736   3.154   5.089
 2129SOL     OW 7066   0.674   3.480   3.883
 2129SOL    HW1 7067   0.683   3.498   3.789
 2129SOL    HW2 7068   0.615   3.405   3.887
 2130SOL     OW 7069   1.621   3.588   5.114
 2130SOL    HW1 7070   1.673   3.593   5.034
 2130SOL    HW2 7071   1.607   3.680   5.138
 2131SOL     OW 7072   0.265   2.174   4.439
 2131SOL    HW1 7073   0.178   2.206   4.414
 2131SOL    HW2 7074   0.260   2.165   4.535
 2132SOL     OW 7075   1.208   3.465   3.760
 2132SOL    HW1 7076   1.197   3.373   3.784
 2132SOL    HW2 7077   1.147   3.478   3.688
 2133SOL     OW 7078   0.823   2.868   5.098
 2133SOL    HW1 7079   0.868   2.862   5.014
 2133SOL    HW2 7080   0.821   2.962   5.118
 2134SOL     OW 7081   0.916   2.772   4.015
 2134SOL    HW1 7082   0.976   2.805   3.948
 2134SOL    HW2 7083   0.966   2.704   4.061
 2135SOL     OW 7084   1.488   3.493   3.767
 2135SOL    HW1 7085   1.395   3.481   3.751
 2135SOL    HW2 7086   1.528   3.498   3.680
 2136SOL     OW 7087   0.374   3.165   5.215
 2136SOL    HW1 7088   0.359   3.245   5.165
 2136SOL    HW2 7089   0.297   3.111   5.198
 2137SOL     OW 7090   1.608   3.145   5.004
 2137SOL    HW1 7091   1.669   3.132   5.076
 2137SOL    HW2 7092   1.548   3.213   5.035
 2138SOL     OW 7093   1.058   2.971   4.433
 2138SOL    HW1 7094   0.986   2.920   4.470
 2138SOL    HW2 7095   1.122   2.906   4.406
 2139SOL     OW 7096   1.024   2.103   4.691
 2139SOL    HW1 7097   1.020   2.057   4.608
 2139SOL    HW2 7098   1.018   2.034   4.757
 2140SOL     OW 7099   0.607   3.352   4.204
 2140SOL    HW1 7100   0.653   3.302   4.137
 2140SOL    HW2 7101   0.533   3.392   4.158
 2141SOL     OW 7102   1.725   2.256   5.101
 2141SOL    HW1 7103   1.799   2.316   5.108
 2141SOL    HW2 7104   1.755   2.188   5.041
 2142SOL     OW 7105   0.254   3.202   4.016
 2142SOL    HW1 7106   0.160   3.209   3.998
 2142SOL    HW2 7107   0.264   3.241   4.103
 2143SOL     OW 7108   0.108   2.859   5.441
 2143SOL    HW1 7109   0.048   2.853   5.516
 2143SOL    HW2 7110   0.195   2.842   5.479
 2144SOL     OW 7111   0.677   2.058   5.224
 2144SOL    HW1 7112   0.761   2.036   5.183
 2144SOL    HW2 7113   0.700   2.091   5.311
 2145SOL     OW 7114   0.081   2.174   3.761
 2145SOL    HW1 7115   3.985   2.174   3.769
 2145SOL    HW2 7116   0.101   2.255   3.715
 2146SOL     OW 7117   1.427   2.721   5.122
 2146SOL    HW1 7118   1.378   2.782   5.067
 2146SOL    HW2 7119   1.516   2.722   5.087
 2147SOL     OW 7120   0.016   2.102   4.101
 2147SOL    HW1 7121   0.045   2.165   4.036
 2147SOL    HW2 7122   0.097   2.060   4.132
 2148SOL     OW 7123   1.177   3.198   3.841
 2148SOL    HW1 7124   1.086   3.169   3.842
 2148SOL    HW2 7125   1.204   3.198   3.933
 2149SOL     OW 7126   0.620   2.693   5.161
 2149SOL    HW1 7127   0.676   2.768   5.146
 2149SOL    HW2 7128   0.680   2.619   5.168
 2150SOL     OW 7129   1.486   3.643   4.706
 2150SOL    HW1 7130   1.509   3.703   4.635
 2150SOL    HW2 7131   1.571   3.618   4.744
 2151SOL     OW 7132   0.716   2.423   5.427
 2151SOL    HW1 7133   0.762   2.483   5.485
 2151SOL    HW2 7134   0.739   2.336   5.460
 2152SOL     OW 7135   1.474   3.059   5.353
 2152SOL    HW1 7136   1.462   3.073   5.447
 2152SOL    HW2 7137   1.567   3.077   5.338
 2153SOL     OW 7138   0.378   3.609   5.284
 2153SOL    HW1 7139   0.290   3.645   5.271
 2153SOL    HW2 7140   0.364   3.525   5.328
 2154SOL     OW 7141   1.666   2.742   4.978
 2154SOL    HW1 7142   1.660   2.657   4.935
 2154SOL    HW2 7143   1.655   2.806   4.907
 2155SOL     OW 7144   1.215   2.181   4.182
 2155SOL    HW1 7145   1.277   2.109   4.175
 2155SOL    HW2 7146   1.244   2.231   4.259
 2156SOL     OW 7147   0.588   2.599   4.398
 2156SOL    HW1 7148   0.627   2.684   4.382
 2156SOL    HW2 7149   0.523   2.589   4.328
 2157SOL     OW 7150   1.752   2.240   5.380
 2157SOL    HW1 7151   1.742   2.248   5.285
 2157SOL    HW2 7152   1.683   2.180   5.407
 2158SOL     OW 7153   1.751   2.803   5.231
 2158SOL    HW1 7154   1.740   2.897   5.242
 2158SOL    HW2 7155   1.732   2.787   5.138
 2159SOL     OW 7156   0.865   3.228   3.765
 2159SOL    HW1 7157   0.824   3.257   3.847
 2159SOL    HW2 7158   0.879   3.309   3.716
 2160SOL     OW 7159   0.658   3.649   4.657
 2160SOL    HW1 7160   0.638   3.741   4.639
 2160SOL    HW2 7161   0.754   3.646   4.655
 2161SOL     OW 7162   0.869   2.831   4.577
 2161SOL    HW1 7163   0.919   2.759   4.615
 2161SOL    HW2 7164   0.832   2.877   4.653
 2162SOL     OW 7165   1.076   2.850   3.812
 2162SOL    HW1 7166   1.056   2.902   3.734
 2162SOL    HW2 7167   1.151   2.797   3.787
 2163SOL     OW 7168   1.849   3.412   4.565
 2163SOL    HW1 7169   1.768   3.401   4.514
 2163SOL    HW2 7170   1.840   3.350   4.637
 2164SOL     OW 7171   0.228   3.166   5.581
 2164SOL    HW1 7172   0.153   3.113   5.553
 2164SOL    HW2 7173   0.215   3.179   5.675
 2165SOL     OW 7174   0.119   3.143   4.448
 2165SOL    HW1 7175   0.137   3.092   4.526
 2165SOL    HW2 7176   0.104   3.077   4.379
 2166SOL     OW 7177   0.684   3.267   5.356
 2166SOL    HW1 7178   0.603   3.226   5.386
 2166SOL    HW2 7179   0.680   3.356   5.392
 2167SOL     OW 7180   0.440   2.296   4.258
 2167SOL    HW1 7181   0.441   2.226   4.193
 2167SOL    HW2 7182   0.385   2.262   4.329
 2168SOL     OW 7183   1.699   3.347   4.814
 2168SOL    HW1 7184   1.618   3.326   4.768
 2168SOL    HW2 7185   1.706   3.279   4.881
 2169SOL     OW 7186   0.336   2.421   5.016
 2169SOL    HW1 7187   0.389   2.363   5.071
 2169SOL    HW2 7188   0.350   2.389   4.927
 2170SOL     OW 7189   0.829   3.441   4.400
 2170SOL    HW1 7190   0.810   3.497   4.324
 2170SOL    HW2 7191   0.756   3.380   4.404
 2171SOL     OW 7192   1.437   2.093   4.843
 2171SOL    HW1 7193   1.445   2.004   4.879
 2171SOL    HW2 7194   1.383   2.139   4.907
 2172SOL     OW 7195   1.010   1.878   4.862
 2172SOL    HW1 7196   0.956   1.811   4.819
 2172SOL    HW2 7197   1.098   1.840   4.863
 2173SOL     OW 7198   0.773   3.194   4.045
 2173SOL    HW1 7199   0.744   3.103   4.051
 2173SOL    HW2 7200   0.856   3.197   4.093
 2174SOL     OW 7201   0.621   3.415   5.011
 2174SOL    HW1 7202   0.621   3.497   5.060
 2174SOL    HW2 7203   0.709   3.410   4.973
 2175SOL     OW 7204   1.351   1.914   3.892
 2175SOL    HW1 7205   1.383   1.849   3.829
 2175SOL    HW2 7206   1.263   1.884   3.915
 2176SOL     OW 7207   1.298   2.324   4.403
 2176SOL    HW1 7208   1.245   2.404   4.408
 2176SOL    HW2 7209   1.292   2.287   4.491
 2177SOL     OW 7210   1.567   2.049   4.595
 2177SOL    HW1 7211   1.534   2.078   4.680
 2177SOL    HW2 7212   1.585   2.130   4.547
 2178SOL     OW 7213   0.047   2.910   3.964
 2178SOL    HW1 7214   0.142   2.895   3.956
 2178SOL    HW2 7215   0.012   2.825   3.991
 2179SOL     OW 7216   0.887   3.523   4.066
 2179SOL    HW1 7217   0.815   3.503   4.006
 2179SOL    HW2 7218   0.856   3.597   4.118
 2180SOL     OW 7219   0.231   2.487   5.704
 2180SOL    HW1 7220   0.138   2.495   5.725
 2180SOL    HW2 7221   0.232   2.455   5.614
 2181SOL     OW 7222   0.229   2.135   6.573
 2181SOL    HW1 7223   0.251   2.100   6.659
 2181SOL    HW2 7224   0.134   2.127   6.566
 2182SOL     OW 7225   0.008   2.220   6.215
 2182SOL    HW1 7226   3.918   2.238   6.245
 2182SOL    HW2 7227   3.997   2.190   6.125
 2183SOL     OW 7228   0.581   3.154   6.780
 2183SOL    HW1 7229   0.495   3.156   6.738
 2183SOL    HW2 7230   0.594   3.243   6.812
 2184SOL     OW 7231   1.565   3.372   6.295
 2184SOL    HW1 7232   1.523   3.351   6.378
 2184SOL    HW2 7233   1.494   3.377   6.231
 2185SOL     OW 7234   1.707   2.462   5.825
 2185SOL    HW1 7235   1.707   2.469   5.729
 2185SOL    HW2 7236   1.728   2.371   5.842
 2186SOL     OW 7237   0.750   3.000   6.631
 2186SOL    HW1 7238   0.687   3.037   6.694
 2186SOL    HW2 7239   0.787   3.077   6.587
 2187SOL     OW 7240   0.871   2.631   7.411
 2187SOL    HW1 7241   0.860   2.701   7.475
 2187SOL    HW2 7242   0.891   2.676   7.329
 2188SOL     OW 7243   0.683   2.861   6.230
 2188SOL    HW1 7244   0.750   2.853   6.298
 2188SOL    HW2 7245   0.614   2.915   6.271
 2189SOL     OW 7246   0.713   3.012   7.405
 2189SOL    HW1 7247   0.760   3.090   7.434
 2189SOL    HW2 7248   0.632   3.046   7.366
 2190SOL     OW 7249   0.350   3.263   6.664
 2190SOL    HW1 7250   0.269   3.246   6.617
 2190SOL    HW2 7251   0.400   3.321   6.606
 2191SOL     OW 7252   1.460   3.363   6.944
 2191SOL    HW1 7253   1.514   3.441   6.955
 2191SOL    HW2 7254   1.395   3.368   7.013
 2192SOL     OW 7255   0.447   2.260   7.073
 2192SOL    HW1 7256   0.522   2.201   7.076
 2192SOL    HW2 7257   0.371   2.204   7.086
 2193SOL     OW 7258   1.616   2.293   6.260
 2193SOL    HW1 7259   1.583   2.366   6.209
 2193SOL    HW2 7260   1.592   2.313   6.351
 2194SOL     OW 7261   0.222   3.572   6.052
 2194SOL    HW1 7262   0.221   3.656   6.097
 2194SOL    HW2 7263   0.299   3.576   5.995
 2195SOL     OW 7264   1.136   3.206   7.280
 2195SOL    HW1 7265   1.182   3.197   7.363
 2195SOL    HW2 7266   1.084   3.125   7.272
 2196SOL     OW 7267   0.252   3.306   6.126
 2196SOL    HW1 7268   0.223   3.396   6.112
 2196SOL    HW2 7269   0.183   3.267   6.179
 2197SOL     OW 7270   0.248   2.928   6.469
 2197SOL    HW1 7271   0.268   2.843   6.508
 2197SOL    HW2 7272   0.195   2.972   6.535
 2198SOL     OW 7273   0.609   3.649   7.012
 2198SOL    HW1 7274   0.527   3.634   7.059
 2198SOL    HW2 7275   0.636   3.737   7.037
 2199SOL     OW 7276   0.576   2.848   5.725
 2199SOL    HW1 7277   0.625   2.893   5.656
 2199SOL    HW2 7278   0.616   2.879   5.807
 2200SOL     OW 7279   0.143   2.517   6.159
 2200SOL    HW1 7280   0.088   2.439   6.158
 2200SOL    HW2 7281   0.108   2.571   6.230
 2201SOL     OW 7282   1.843   3.607   5.924
 2201SOL    HW1 7283   1.913   3.583   5.985
 2201SOL    HW2 7284   1.862   3.698   5.900
 2202SOL     OW 7285   0.040   3.452   5.725
 2202SOL    HW1 7286   0.036   3.360   5.753
 2202SOL    HW2 7287   3.955   3.488   5.750
 2203SOL     OW 7288   1.641   2.989   5.996
 2203SOL    HW1 7289   1.731   2.984   5.963
 2203SOL    HW2 7290   1.649   3.039   6.078
 2204SOL     OW 7291   0.142   2.614   7.176
 2204SOL    HW1 7292   0.237   2.610   7.171
 2204SOL    HW2 7293   0.123   2.702   7.209
 2205SOL     OW 7294   0.617   3.249   6.320
 2205SOL    HW1 7295   0.570   3.167   6.330
 2205SOL    HW2 7296   0.599   3.277   6.230
 2206SOL     OW 7297   1.282   3.102   7.009
 2206SOL    HW1 7298   1.314   3.031   6.954
 2206SOL    HW2 7299   1.342   3.105   7.083
 2207SOL     OW 7300   0.809   1.853   6.083
 2207SOL    HW1 7301   0.852   1.938   6.077
 2207SOL    HW2 7302   0.716   1.873   6.093
 2208SOL     OW 7303   0.183   2.811   6.867
 2208SOL    HW1 7304   0.271   2.776   6.855
 2208SOL    HW2 7305   0.132   2.774   6.795
 2209SOL     OW 7306   1.532   2.859   5.782
 2209SOL    HW1 7307   1.466   2.799   5.817
 2209SOL    HW2 7308   1.567   2.904   5.859
 2210SOL     OW 7309   1.221   3.667   7.214
 2210SOL    HW1 7310   1.195   3.728   7.145
 2210SOL    HW2 7311   1.221   3.581   7.172
 2211SOL     OW 7312   0.343   2.111   7.408
 2211SOL    HW1 7313   0.376   2.200   7.410
 2211SOL    HW2 7314   0.250   2.118   7.430
 2212SOL     OW 7315   1.466   3.279   6.536
 2212SOL    HW1 7316   1.400   3.298   6.602
 2212SOL    HW2 7317   1.449   3.189   6.509
 2213SOL     OW 7318   1.652   3.603   6.167
 2213SOL    HW1 7319   1.639   3.572   6.078
 2213SOL    HW2 7320   1.632   3.528   6.223
 2214SOL     OW 7321   0.595   2.578   5.853
 2214SOL    HW1 7322   0.599   2.663   5.808
 2214SOL    HW2 7323   0.532   2.591   5.923
 2215SOL     OW 7324   1.576   3.538   5.895
 2215SOL    HW1 7325   1.669   3.560   5.889
 2215SOL    HW2 7326   1.550   3.519   5.805
 2216SOL     OW 7327   0.770   2.480   7.036
 2216SOL    HW1 7328   0.751   2.452   7.125
 2216SOL    HW2 7329   0.739   2.409   6.981
 2217SOL     OW 7330   0.943   2.752   7.173
 2217SOL    HW1 7331   0.990   2.677   7.136
 2217SOL    HW2 7332   0.895   2.790   7.099
 2218SOL     OW 7333   0.982   2.262   6.855
 2218SOL    HW1 7334   0.893   2.292   6.871
 2218SOL    HW2 7335   0.974   2.203   6.779
 2219SOL     OW 7336   1.049   2.557   6.010
 2219SOL    HW1 7337   1.043   2.572   6.104
 2219SOL    HW2 7338   0.968   2.511   5.988
 2220SOL     OW 7339   0.082   2.693   6.375
 2220SOL    HW1 7340   0.155   2.661   6.429
 2220SOL    HW2 7341   0.103   2.785   6.360
 2221SOL     OW 7342   0.127   3.719   7.166
 2221SOL    HW1 7343   0.135   3.687   7.256
 2221SOL    HW2 7344   0.035   3.706   7.144
 2222SOL     OW 7345   0.900   2.211   5.775
 2222SOL    HW1 7346   0.940   2.276   5.717
 2222SOL    HW2 7347   0.904   2.129   5.726
 2223SOL     OW 7348   1.383   3.004   6.118
 2223SOL    HW1 7349   1.463   2.999   6.066
 2223SOL    HW2 7350   1.328   3.067   6.072
 2224SOL     OW 7351   0.545   2.041   6.480
 2224SOL    HW1 7352   0.553   2.071   6.571
 2224SOL    HW2 7353   0.544   2.121   6.428
 2225SOL     OW 7354   1.002   3.307   6.056
 2225SOL    HW1 7355   0.967   3.381   6.006
 2225SOL    HW2 7356   0.979   3.326   6.147
 2226SOL     OW 7357   0.359   3.672   6.449
 2226SOL    HW1 7358   0.439   3.621   6.463
 2226SOL    HW2 7359   0.387   3.763   6.458
 2227SOL     OW 7360   1.801   2.968   6.485
 2227SOL    HW1 7361   1.777   2.904   6.418
 2227SOL    HW2 7362   1.733   2.959   6.552
 2228SOL     OW 7363   1.227   3.401   7.097
 2228SOL    HW1 7364   1.216   3.328   7.159
 2228SOL    HW2 7365   1.158   3.388   7.032
 2229SOL     OW 7366   0.311   2.815   5.829
 2229SOL    HW1 7367   0.394   2.838   5.786
 2229SOL    HW2 7368   0.298   2.722   5.808
 2230SOL     OW 7369   0.469   3.123   7.323
 2230SOL    HW1 7370   0.444   3.131   7.231
 2230SOL    HW2 7371   0.387   3.126   7.371
 2231SOL     OW 7372   1.113   3.643   5.807
 2231SOL    HW1 7373   1.048   3.598   5.860
 2231SOL    HW2 7374   1.144   3.577   5.745
 2232SOL     OW 7375   0.203   2.132   7.094
 2232SOL    HW1 7376   0.113   2.165   7.090
 2232SOL    HW2 7377   0.194   2.044   7.130
 2233SOL     OW 7378   1.626   3.245   5.676
 2233SOL    HW1 7379   1.586   3.330   5.658
 2233SOL    HW2 7380   1.558   3.181   5.655
 2234SOL     OW 7381   0.467   3.603   5.907
 2234SOL    HW1 7382   0.506   3.664   5.969
 2234SOL    HW2 7383   0.540   3.573   5.853
 2235SOL     OW 7384   0.255   3.657   6.811
 2235SOL    HW1 7385   0.297   3.589   6.863
 2235SOL    HW2 7386   0.253   3.620   6.722
 2236SOL     OW 7387   0.937   3.564   6.485
 2236SOL    HW1 7388   1.013   3.512   6.510
 2236SOL    HW2 7389   0.895   3.514   6.415
 2237SOL     OW 7390   0.400   2.554   6.057
 2237SOL    HW1 7391   0.424   2.463   6.073
 2237SOL    HW2 7392   0.308   2.560   6.083
 2238SOL     OW 7393   0.649   1.980   5.680
 2238SOL    HW1 7394   0.703   1.905   5.706
 2238SOL    HW2 7395   0.596   1.947   5.607
 2239SOL     OW 7396   0.766   2.143   7.341
 2239SOL    HW1 7397   0.840   2.083   7.341
 2239SOL    HW2 7398   0.713   2.117   7.416
 2240SOL     OW 7399   0.876   3.384   6.779
 2240SOL    HW1 7400   0.858   3.346   6.693
 2240SOL    HW2 7401   0.944   3.328   6.816
 2241SOL     OW 7402   1.324   2.531   7.051
 2241SOL    HW1 7403   1.376   2.487   7.118
 2241SOL    HW2 7404   1.374   2.609   7.029
 2242SOL     OW 7405   0.818   3.253   6.529
 2242SOL    HW1 7406   0.903   3.240   6.487
 2242SOL    HW2 7407   0.755   3.255   6.457
 2243SOL     OW 7408   0.927   2.382   6.481
 2243SOL    HW1 7409   0.900   2.372   6.389
 2243SOL    HW2 7410   0.985   2.307   6.496
 2244SOL     OW 7411   0.551   1.926   6.079
 2244SOL    HW1 7412   0.469   1.932   6.128
 2244SOL    HW2 7413   0.556   2.008   6.031
 2245SOL     OW 7414   1.427   3.063   5.625
 2245SOL    HW1 7415   1.457   2.987   5.674
 2245SOL    HW2 7416   1.342   3.084   5.662
 2246SOL     OW 7417   0.308   1.913   5.756
 2246SOL    HW1 7418   0.370   1.951   5.693
 2246SOL    HW2 7419   0.359   1.848   5.804
 2247SOL     OW 7420   0.923   2.110   6.036
 2247SOL    HW1 7421   0.896   2.150   5.953
 2247SOL    HW2 7422   1.016   2.090   6.024
 2248SOL     OW 7423   1.061   2.546   7.049
 2248SOL    HW1 7424   1.020   2.460   7.040
 2248SOL    HW2 7425   1.155   2.529   7.048
 2249SOL     OW 7426   1.223   3.432   6.379
 2249SOL    HW1 7427   1.235   3.499   6.312
 2249SOL    HW2 7428   1.288   3.452   6.445
 2250SOL     OW 7429   0.466   3.014   6.319
 2250SOL    HW1 7430   0.396   2.989   6.379
 2250SOL    HW2 7431   0.430   2.998   6.232
 2251SOL     OW 7432   1.264   3.655   6.195
 2251SOL    HW1 7433   1.313   3.720   6.144
 2251SOL    HW2 7434   1.191   3.704   6.232
 2252SOL     OW 7435   1.023   2.400   5.611
 2252SOL    HW1 7436   0.979   2.483   5.591
 2252SOL    HW2 7437   1.092   2.424   5.673
 2253SOL     OW 7438   0.083   2.435   6.975
 2253SOL    HW1 7439   0.173   2.422   6.945
 2253SOL    HW2 7440   0.090   2.505   7.041
 2254SOL     OW 7441   0.567   2.087   6.751
 2254SOL    HW1 7442   0.611   2.014   6.796
 2254SOL    HW2 7443   0.476   2.082   6.782
 2255SOL     OW 7444   0.872   2.327   6.218
 2255SOL    HW1 7445   0.813   2.377   6.163
 2255SOL    HW2 7446   0.887   2.246   6.169
 2256SOL     OW 7447   1.439   3.019   6.444
 2256SOL    HW1 7448   1.358   2.973   6.424
 2256SOL    HW2 7449   1.481   3.032   6.359
 2257SOL     OW 7450   0.488   3.282   5.744
 2257SOL    HW1 7451   0.412   3.253   5.794
 2257SOL    HW2 7452   0.472   3.251   5.655
 2258SOL     OW 7453   1.669   3.121   6.231
 2258SOL    HW1 7454   1.763   3.120   6.245
 2258SOL    HW2 7455   1.643   3.212   6.249
 2259SOL     OW 7456   1.393   2.441   5.650
 2259SOL    HW1 7457   1.343   2.415   5.727
 2259SOL    HW2 7458   1.484   2.421   5.673
 2260SOL     OW 7459   0.576   2.131   5.901
 2260SOL    HW1 7460   0.608   2.084   5.824
 2260SOL    HW2 7461   0.542   2.213   5.866
 2261SOL     OW 7462   1.750   3.105   7.158
 2261SOL    HW1 7463   1.836   3.062   7.159
 2261SOL    HW2 7464   1.769   3.196   7.180
 2262SOL     OW 7465   1.054   3.215   6.916
 2262SOL    HW1 7466   0.979   3.185   6.967
 2262SOL    HW2 7467   1.130   3.175   6.959
 2263SOL     OW 7468   1.612   3.492   7.244
 2263SOL    HW1 7469   1.601   3.524   7.155
 2263SOL    HW2 7470   1.693   3.441   7.242
 2264SOL     OW 7471   1.132   3.068   6.689
 2264SOL    HW1 7472   1.073   3.106   6.753
 2264SOL    HW2 7473   1.101   3.102   6.605
 2265SOL     OW 7474   1.599   2.951   6.668
 2265SOL    HW1 7475   1.599   3.019   6.735
 2265SOL    HW2 7476   1.542   2.984   6.599
 2266SOL     OW 7477   0.864   1.964   6.956
 2266SOL    HW1 7478   0.904   1.935   6.874
 2266SOL    HW2 7479   0.938   1.984   7.013
 2267SOL     OW 7480   0.985   2.978   7.312
 2267SOL    HW1 7481   0.894   2.996   7.336
 2267SOL    HW2 7482   0.980   2.900   7.256
 2268SOL     OW 7483   0.707   2.923   5.957
 2268SOL    HW1 7484   0.693   2.905   6.050
 2268SOL    HW2 7485   0.784   2.870   5.933
 2269SOL     OW 7486   0.421   2.680   6.838
 2269SOL    HW1 7487   0.489   2.690   6.905
 2269SOL    HW2 7488   0.389   2.590   6.850
 2270SOL     OW 7489   0.065   3.442   6.931
 2270SOL    HW1 7490   0.071   3.488   6.848
 2270SOL    HW2 7491   0.156   3.431   6.959
 2271SOL     OW 7492   0.367   2.965   6.067
 2271SOL    HW1 7493   0.364   3.046   6.016
 2271SOL    HW2 7494   0.367   2.895   6.001
 2272SOL     OW 7495   0.550   2.397   6.447
 2272SOL    HW1 7496   0.564   2.454   6.371
 2272SOL    HW2 7497   0.617   2.423   6.510
 2273SOL     OW 7498   1.247   3.212   5.976
 2273SOL    HW1 7499   1.303   3.283   6.007
 2273SOL    HW2 7500   1.160   3.233   6.010
 2274SOL     OW 7501   1.287   3.322   6.735
 2274SOL    HW1 7502   1.342   3.327   6.812
 2274SOL    HW2 7503   1.228   3.248   6.752
 2275SOL     OW 7504   1.573   2.487   6.062
 2275SOL    HW1 7505   1.551   2.579   6.074
 2275SOL    HW2 7506   1.620   2.484   5.979
 2276SOL     OW 7507   0.345   3.391   6.903
 2276SOL    HW1 7508   0.335   3.340   6.822
 2276SOL    HW2 7509   0.439   3.405   6.911
 2277SOL     OW 7510   0.417   2.600   7.188
 2277SOL    HW1 7511   0.480   2.646   7.132
 2277SOL    HW2 7512   0.458   2.515   7.204
 2278SOL     OW 7513   0.496   1.899   7.335
 2278SOL    HW1 7514   0.452   1.846   7.268
 2278SOL    HW2 7515   0.442   1.978   7.343
 2279SOL     OW 7516   0.583   2.737   6.617
 2279SOL    HW1 7517   0.620   2.825   6.620
 2279SOL    HW2 7518   0.529   2.732   6.696
 2280SOL     OW 7519   1.205   2.395   5.849
 2280SOL    HW1 7520   1.227   2.320   5.904
 2280SOL    HW2 7521   1.158   2.455   5.907
 2281SOL     OW 7522   0.310   2.057   6.833
 2281SOL    HW1 7523   0.264   2.094   6.909
 2281SOL    HW2 7524   0.287   1.964   6.833
 2282SOL     OW 7525   0.062   3.168   6.866
 2282SOL    HW1 7526   0.092   3.125   6.947
 2282SOL    HW2 7527   0.053   3.260   6.889
 2283SOL     OW 7528   0.722   2.494   6.640
 2283SOL    HW1 7529   0.800   2.481   6.585
 2283SOL    HW2 7530   0.695   2.583   6.621
 2284SOL     OW 7531   0.312   1.924   6.207
 2284SOL    HW1 7532   0.291   2.015   6.229
 2284SOL    HW2 7533   0.321   1.881   6.292
 2285SOL     OW 7534   1.608   2.224   5.952
 2285SOL    HW1 7535   1.619   2.147   6.007
 2285SOL    HW2 7536   1.592   2.296   6.014
 2286SOL     OW 7537   1.010   2.638   6.545
 2286SOL    HW1 7538   1.011   2.642   6.641
 2286SOL    HW2 7539   1.001   2.545   6.525
 2287SOL     OW 7540   0.985   3.431   7.308
 2287SOL    HW1 7541   0.966   3.471   7.223
 2287SOL    HW2 7542   1.028   3.348   7.286
 2288SOL     OW 7543   1.853   3.363   7.189
 2288SOL    HW1 7544   1.873   3.391   7.099
 2288SOL    HW2 7545   1.933   3.380   7.238
 2289SOL     OW 7546   0.354   2.784   7.385
 2289SOL    HW1 7547   0.432   2.805   7.436
 2289SOL    HW2 7548   0.383   2.717   7.324
 2290SOL     OW 7549   1.525   2.134   5.710
 2290SOL    HW1 7550   1.463   2.065   5.735
 2290SOL    HW2 7551   1.558   2.167   5.793
 2291SOL     OW 7552   1.290   2.691   5.617
 2291SOL    HW1 7553   1.331   2.604   5.620
 2291SOL    HW2 7554   1.321   2.729   5.534
 2292SOL     OW 7555   1.068   3.200   6.441
 2292SOL    HW1 7556   1.071   3.127   6.379
 2292SOL    HW2 7557   1.127   3.266   6.405
 2293SOL     OW 7558   0.313   2.663   6.535
 2293SOL    HW1 7559   0.407   2.682   6.533
 2293SOL    HW2 7560   0.308   2.572   6.567
 2294SOL     OW 7561   0.330   2.383   6.600
 2294SOL    HW1 7562   0.295   2.295   6.584
 2294SOL    HW2 7563   0.406   2.390   6.543
 2295SOL     OW 7564   1.075   2.056   7.096
 2295SOL    HW1 7565   1.120   2.117   7.155
 2295SOL    HW2 7566   1.107   2.078   7.009
 2296SOL     OW 7567   0.000   3.178   5.768
 2296SOL    HW1 7568   3.906   3.194   5.772
 2296SOL    HW2 7569   0.009   3.085   5.786
 2297SOL     OW 7570   0.076   3.662   6.481
 2297SOL    HW1 7571   0.093   3.568   6.477
 2297SOL    HW2 7572   0.163   3.702   6.481
 2298SOL     OW 7573   0.506   3.424   6.504
 2298SOL    HW1 7574   0.572   3.491   6.523
 2298SOL    HW2 7575   0.549   3.366   6.440
 2299SOL     OW 7576   0.973   2.652   6.814
 2299SOL    HW1 7577   1.027   2.631   6.890
 2299SOL    HW2 7578   0.887   2.614   6.833
 2300SOL     OW 7579   0.038   2.422   6.695
 2300SOL    HW1 7580   0.121   2.399   6.653
 2300SOL    HW2 7581   0.057   2.418   6.789
 2301SOL     OW 7582   0.207   2.373   7.313
 2301SOL    HW1 7583   0.246   2.325   7.240
 2301SOL    HW2 7584   0.162   2.448   7.273
 2302SOL     OW 7585   0.818   2.434   5.940
 2302SOL    HW1 7586   0.820   2.357   5.884
 2302SOL    HW2 7587   0.742   2.484   5.911
 2303SOL     OW 7588   0.300   3.407   7.310
 2303SOL    HW1 7589   0.253   3.476   7.356
 2303SOL    HW2 7590   0.271   3.325   7.351
 2304SOL     OW 7591   0.704   2.309   6.839
 2304SOL    HW1 7592   0.652   2.235   6.809
 2304SOL    HW2 7593   0.700   2.373   6.768
 2305SOL     OW 7594   0.926   3.533   7.056
 2305SOL    HW1 7595   0.899   3.494   6.973
 2305SOL    HW2 7596   0.918   3.627   7.042
 2306SOL     OW 7597   0.453   2.351   5.782
 2306SOL    HW1 7598   0.518   2.419   5.800
 2306SOL    HW2 7599   0.374   2.399   5.759
 2307SOL     OW 7600   0.155   2.996   7.062
 2307SOL    HW1 7601   0.155   2.946   7.143
 2307SOL    HW2 7602   0.170   2.931   6.994
 2308SOL     OW 7603   1.322   2.911   6.809
 2308SOL    HW1 7604   1.372   2.884   6.732
 2308SOL    HW2 7605   1.247   2.958   6.774
 2309SOL     OW 7606   1.317   2.715   5.893
 2309SOL    HW1 7607   1.237   2.693   5.940
 2309SOL    HW2 7608   1.294   2.704   5.801
 2310SOL     OW 7609   1.773   3.601   6.738
 2310SOL    HW1 7610   1.836   3.629   6.671
 2310SOL    HW2 7611   1.751   3.511   6.714
 2311SOL     OW 7612   1.244   3.594   6.691
 2311SOL    HW1 7613   1.327   3.616   6.650
 2311SOL    HW2 7614   1.252   3.501   6.713
 2312SOL     OW 7615   0.077   3.076   6.614
 2312SOL    HW1 7616   0.084   3.103   6.705
 2312SOL    HW2 7617   3.985   3.088   6.592
 2313SOL     OW 7618   0.680   3.528   7.322
 2313SOL    HW1 7619   0.621   3.603   7.325
 2313SOL    HW2 7620   0.741   3.548   7.251
 2314SOL     OW 7621   1.664   1.989   6.072
 2314SOL    HW1 7622   1.754   1.972   6.042
 2314SOL    HW2 7623   1.649   1.925   6.141
 2315SOL     OW 7624   1.391   3.431   6.074
 2315SOL    HW1 7625   1.450   3.465   6.007
 2315SOL    HW2 7626   1.342   3.507   6.104
 2316SOL     OW 7627   0.171   3.621   7.419
 2316SOL    HW1 7628   0.117   3.568   7.477
 2316SOL    HW2 7629   0.217   3.681   7.477
 2317SOL     OW 7630   1.264   2.798   6.243
 2317SOL    HW1 7631   1.330   2.730   6.252
 2317SOL    HW2 7632   1.306   2.866   6.191
 2318SOL     OW 7633   0.807   3.139   7.012
 2318SOL    HW1 7634   0.779   3.179   7.094
 2318SOL    HW2 7635   0.735   3.154   6.951
 2319SOL     OW 7636   0.674   3.480   5.744
 2319SOL    HW1 7637   0.683   3.498   5.651
 2319SOL    HW2 7638   0.615   3.405   5.749
 2320SOL     OW 7639   1.621   3.588   6.976
 2320SOL    HW1 7640   1.673   3.593   6.896
 2320SOL    HW2 7641   1.607   3.680   7.000
 2321SOL     OW 7642   0.265   2.175   6.302
 2321SOL    HW1 7643   0.178   2.207   6.276
 2321SOL    HW2 7644   0.260   2.166   6.397
 2322SOL     OW 7645   1.208   3.465   5.622
 2322SOL    HW1 7646   1.197   3.373   5.646
 2322SOL    HW2 7647   1.147   3.478   5.550
 2323SOL     OW 7648   0.820   2.870   6.959
 2323SOL    HW1 7649   0.868   2.861   6.876
 2323SOL    HW2 7650   0.820   2.964   6.977
 2324SOL     OW 7651   0.916   2.773   5.876
 2324SOL    HW1 7652   0.975   2.807   5.809
 2324SOL    HW2 7653   0.965   2.703   5.918
 2325SOL     OW 7654   1.488   3.493   5.629
 2325SOL    HW1 7655   1.395   3.481   5.612
 2325SOL    HW2 7656   1.528   3.498   5.542
 2326SOL     OW 7657   0.374   3.165   7.077
 2326SOL    HW1 7658   0.359   3.245   7.027
 2326SOL    HW2 7659   0.297   3.111   7.060
 2327SOL     OW 7660   1.603   3.142   6.862
 2327SOL    HW1 7661   1.673   3.134   6.928
 2327SOL    HW2 7662   1.545   3.210   6.897
 2328SOL     OW 7663   1.058   2.972   6.297
 2328SOL    HW1 7664   0.985   2.922   6.334
 2328SOL    HW2 7665   1.121   2.905   6.271
 2329SOL     OW 7666   0.607   3.353   6.066
 2329SOL    HW1 7667   0.653   3.303   5.999
 2329SOL    HW2 7668   0.533   3.392   6.020
 2330SOL     OW 7669   0.254   3.202   5.878
 2330SOL    HW1 7670   0.160   3.209   5.860
 2330SOL    HW2 7671   0.264   3.241   5.965
 2331SOL     OW 7672   0.108   2.859   7.303
 2331SOL    HW1 7673   0.049   2.853   7.378
 2331SOL    HW2 7674   0.195   2.842   7.340
 2332SOL     OW 7675   0.654   2.069   7.091
 2332SOL    HW1 7676   0.731   2.044   7.039
 2332SOL    HW2 7677   0.691   2.100   7.173
 2333SOL     OW 7678   0.081   2.174   5.624
 2333SOL    HW1 7679   3.985   2.174   5.632
 2333SOL    HW2 7680   0.101   2.255   5.577
 2334SOL     OW 7681   1.458   2.747   6.983
 2334SOL    HW1 7682   1.402   2.809   6.936
 2334SOL    HW2 7683   1.541   2.750   6.937
 2335SOL     OW 7684   0.017   2.102   5.964
 2335SOL    HW1 7685   0.045   2.165   5.898
 2335SOL    HW2 7686   0.098   2.061   5.994
 2336SOL     OW 7687   1.177   3.197   5.703
 2336SOL    HW1 7688   1.086   3.170   5.704
 2336SOL    HW2 7689   1.203   3.197   5.796
 2337SOL     OW 7690   0.616   2.698   7.024
 2337SOL    HW1 7691   0.675   2.772   7.007
 2337SOL    HW2 7692   0.673   2.622   7.030
 2338SOL     OW 7693   1.487   3.641   6.567
 2338SOL    HW1 7694   1.509   3.703   6.497
 2338SOL    HW2 7695   1.571   3.619   6.607
 2339SOL     OW 7696   0.715   2.425   7.295
 2339SOL    HW1 7697   0.763   2.488   7.348
 2339SOL    HW2 7698   0.745   2.340   7.325
 2340SOL     OW 7699   1.469   3.100   7.210
 2340SOL    HW1 7700   1.455   3.094   7.304
 2340SOL    HW2 7701   1.565   3.100   7.200
 2341SOL     OW 7702   0.378   3.609   7.146
 2341SOL    HW1 7703   0.290   3.645   7.133
 2341SOL    HW2 7704   0.364   3.525   7.190
 2342SOL     OW 7705   1.683   2.742   6.830
 2342SOL    HW1 7706   1.701   2.665   6.776
 2342SOL    HW2 7707   1.665   2.812   6.766
 2343SOL     OW 7708   0.592   2.596   6.256
 2343SOL    HW1 7709   0.628   2.684   6.245
 2343SOL    HW2 7710   0.524   2.589   6.189
 2344SOL     OW 7711   1.774   2.219   7.254
 2344SOL    HW1 7712   1.758   2.237   7.161
 2344SOL    HW2 7713   1.711   2.151   7.277
 2345SOL     OW 7714   1.791   2.826   7.065
 2345SOL    HW1 7715   1.742   2.906   7.084
 2345SOL    HW2 7716   1.756   2.795   6.982
 2346SOL     OW 7717   0.866   3.228   5.628
 2346SOL    HW1 7718   0.824   3.257   5.709
 2346SOL    HW2 7719   0.879   3.309   5.578
 2347SOL     OW 7720   0.658   3.650   6.518
 2347SOL    HW1 7721   0.638   3.741   6.500
 2347SOL    HW2 7722   0.754   3.646   6.517
 2348SOL     OW 7723   0.864   2.837   6.435
 2348SOL    HW1 7724   0.916   2.764   6.470
 2348SOL    HW2 7725   0.829   2.880   6.513
 2349SOL     OW 7726   1.077   2.850   5.675
 2349SOL    HW1 7727   1.056   2.902   5.597
 2349SOL    HW2 7728   1.152   2.797   5.649
 2350SOL     OW 7729   1.850   3.412   6.426
 2350SOL    HW1 7730   1.768   3.399   6.378
 2350SOL    HW2 7731   1.846   3.349   6.497
 2351SOL     OW 7732   0.228   3.166   7.443
 2351SOL    HW1 7733   0.153   3.113   7.415
 2351SOL    HW2 7734   0.215   3.179   7.537
 2352SOL     OW 7735   0.118   3.143   6.309
 2352SOL    HW1 7736   0.138   3.092   6.388
 2352SOL    HW2 7737   0.104   3.077   6.241
 2353SOL     OW 7738   0.684   3.268   7.217
 2353SOL    HW1 7739   0.603   3.226   7.248
 2353SOL    HW2 7740   0.680   3.356   7.254
 2354SOL     OW 7741   0.441   2.295   6.120
 2354SOL    HW1 7742   0.439   2.226   6.054
 2354SOL    HW2 7743   0.386   2.262   6.191
 2355SOL     OW 7744   1.699   3.348   6.677
 2355SOL    HW1 7745   1.618   3.327   6.631
 2355SOL    HW2 7746   1.707   3.280   6.744
 2356SOL     OW 7747   0.336   2.420   6.878
 2356SOL    HW1 7748   0.389   2.363   6.933
 2356SOL    HW2 7749   0.351   2.388   6.789
 2357SOL     OW 7750   0.830   3.441   6.262
 2357SOL    HW1 7751   0.810   3.497   6.187
 2357SOL    HW2 7752   0.756   3.380   6.266
 2358SOL     OW 7753   0.991   1.888   6.719
 2358SOL    HW1 7754   0.947   1.833   6.655
 2358SOL    HW2 7755   1.082   1.857   6.719
 2359SOL     OW 7756   0.773   3.194   5.907
 2359SOL    HW1 7757   0.744   3.103   5.913
 2359SOL    HW2 7758   0.855   3.197   5.955
 2360SOL     OW 7759   0.621   3.416   6.872
 2360SOL    HW1 7760   0.621   3.498   6.922
 2360SOL    HW2 7761   0.709   3.410   6.834
 2361SOL     OW 7762   1.350   1.923   5.740
 2361SOL    HW1 7763   1.391   1.844   5.705
 2361SOL    HW2 7764   1.267   1.892   5.777
 2362SOL     OW 7765   0.047   2.910   5.826
 2362SOL    HW1 7766   0.142   2.895   5.819
 2362SOL    HW2 7767   0.011   2.825   5.852
 2363SOL     OW 7768   0.887   3.523   5.928
 2363SOL    HW1 7769   0.815   3.503   5.867
 2363SOL    HW2 7770   0.856   3.597   5.979
 2364SOL     OW 7771   0.231   2.488   7.566
 2364SOL    HW1 7772   0.138   2.495   7.587
 2364SOL    HW2 7773   0.232   2.456   7.476
 2365SOL     OW 7774   0.229   2.135   8.435
 2365SOL    HW1 7775   0.250   2.100   8.521
 2365SOL    HW2 7776   0.134   2.127   8.428
 2366SOL     OW 7777   0.008   2.220   8.078
 2366SOL    HW1 7778   3.918   2.238   8.107
 2366SOL    HW2 7779   3.998   2.190   7.987
 2367SOL     OW 7780   0.581   3.153   8.642
 2367SOL    HW1 7781   0.495   3.156   8.600
 2367SOL    HW2 7782   0.595   3.242   8.674
 2368SOL     OW 7783   1.565   3.373   8.158
 2368SOL    HW1 7784   1.523   3.351   8.241
 2368SOL    HW2 7785   1.493   3.377   8.094
 2369SOL     OW 7786   1.132   2.559   8.152
 2369SOL    HW1 7787   1.180   2.640   8.134
 2369SOL    HW2 7788   1.088   2.575   8.236
 2370SOL     OW 7789   0.751   3.000   8.492
 2370SOL    HW1 7790   0.688   3.037   8.555
 2370SOL    HW2 7791   0.787   3.076   8.447
 2371SOL     OW 7792   0.872   2.628   9.271
 2371SOL    HW1 7793   0.863   2.699   9.335
 2371SOL    HW2 7794   0.895   2.672   9.189
 2372SOL     OW 7795   0.685   2.862   8.093
 2372SOL    HW1 7796   0.751   2.852   8.161
 2372SOL    HW2 7797   0.616   2.915   8.135
 2373SOL     OW 7798   0.713   3.011   9.266
 2373SOL    HW1 7799   0.761   3.089   9.296
 2373SOL    HW2 7800   0.632   3.046   9.228
 2374SOL     OW 7801   0.350   3.263   8.526
 2374SOL    HW1 7802   0.269   3.246   8.478
 2374SOL    HW2 7803   0.400   3.320   8.469
 2375SOL     OW 7804   1.459   3.364   8.807
 2375SOL    HW1 7805   1.513   3.442   8.817
 2375SOL    HW2 7806   1.392   3.372   8.874
 2376SOL     OW 7807   0.450   2.259   8.934
 2376SOL    HW1 7808   0.525   2.201   8.938
 2376SOL    HW2 7809   0.374   2.202   8.948
 2377SOL     OW 7810   1.593   2.308   8.194
 2377SOL    HW1 7811   1.506   2.314   8.154
 2377SOL    HW2 7812   1.598   2.386   8.250
 2378SOL     OW 7813   0.222   3.572   7.914
 2378SOL    HW1 7814   0.221   3.656   7.959
 2378SOL    HW2 7815   0.299   3.576   7.857
 2379SOL     OW 7816   1.138   3.204   9.142
 2379SOL    HW1 7817   1.178   3.197   9.228
 2379SOL    HW2 7818   1.085   3.124   9.134
 2380SOL     OW 7819   0.252   3.306   7.988
 2380SOL    HW1 7820   0.223   3.397   7.974
 2380SOL    HW2 7821   0.182   3.267   8.040
 2381SOL     OW 7822   0.248   2.928   8.331
 2381SOL    HW1 7823   0.268   2.843   8.370
 2381SOL    HW2 7824   0.195   2.972   8.397
 2382SOL     OW 7825   0.609   3.648   8.874
 2382SOL    HW1 7826   0.527   3.634   8.921
 2382SOL    HW2 7827   0.636   3.737   8.899
 2383SOL     OW 7828   0.575   2.849   7.587
 2383SOL    HW1 7829   0.625   2.893   7.518
 2383SOL    HW2 7830   0.616   2.879   7.668
 2384SOL     OW 7831   1.585   1.994   8.908
 2384SOL    HW1 7832   1.584   2.080   8.865
 2384SOL    HW2 7833   1.576   2.013   9.001
 2385SOL     OW 7834   0.143   2.517   8.022
 2385SOL    HW1 7835   0.087   2.439   8.020
 2385SOL    HW2 7836   0.107   2.571   8.092
 2386SOL     OW 7837   1.844   3.607   7.786
 2386SOL    HW1 7838   1.913   3.584   7.848
 2386SOL    HW2 7839   1.862   3.698   7.763
 2387SOL     OW 7840   0.040   3.452   7.588
 2387SOL    HW1 7841   0.036   3.360   7.615
 2387SOL    HW2 7842   3.955   3.488   7.612
 2388SOL     OW 7843   1.688   2.776   8.108
 2388SOL    HW1 7844   1.774   2.736   8.104
 2388SOL    HW2 7845   1.677   2.819   8.023
 2389SOL     OW 7846   1.649   2.958   7.884
 2389SOL    HW1 7847   1.722   2.985   7.828
 2389SOL    HW2 7848   1.652   3.018   7.958
 2390SOL     OW 7849   0.142   2.615   9.038
 2390SOL    HW1 7850   0.237   2.611   9.032
 2390SOL    HW2 7851   0.123   2.702   9.072
 2391SOL     OW 7852   0.617   3.249   8.182
 2391SOL    HW1 7853   0.569   3.167   8.191
 2391SOL    HW2 7854   0.599   3.277   8.092
 2392SOL     OW 7855   1.286   3.098   8.870
 2392SOL    HW1 7856   1.317   3.030   8.810
 2392SOL    HW2 7857   1.346   3.093   8.945
 2393SOL     OW 7858   0.816   1.862   7.964
 2393SOL    HW1 7859   0.856   1.944   7.937
 2393SOL    HW2 7860   0.722   1.881   7.969
 2394SOL     OW 7861   0.183   2.811   8.729
 2394SOL    HW1 7862   0.271   2.776   8.717
 2394SOL    HW2 7863   0.133   2.775   8.656
 2395SOL     OW 7864   1.501   2.880   7.658
 2395SOL    HW1 7865   1.449   2.801   7.671
 2395SOL    HW2 7866   1.548   2.892   7.740
 2396SOL     OW 7867   1.221   3.667   9.076
 2396SOL    HW1 7868   1.195   3.728   9.007
 2396SOL    HW2 7869   1.221   3.581   9.033
 2397SOL     OW 7870   0.343   2.109   9.267
 2397SOL    HW1 7871   0.378   2.198   9.273
 2397SOL    HW2 7872   0.251   2.117   9.291
 2398SOL     OW 7873   1.467   3.281   8.397
 2398SOL    HW1 7874   1.400   3.297   8.463
 2398SOL    HW2 7875   1.453   3.190   8.371
 2399SOL     OW 7876   1.654   3.602   8.029
 2399SOL    HW1 7877   1.639   3.572   7.940
 2399SOL    HW2 7878   1.630   3.528   8.085
 2400SOL     OW 7879   0.594   2.578   7.714
 2400SOL    HW1 7880   0.601   2.663   7.670
 2400SOL    HW2 7881   0.531   2.593   7.784
 2401SOL     OW 7882   1.276   2.223   8.386
 2401SOL    HW1 7883   1.189   2.186   8.395
 2401SOL    HW2 7884   1.332   2.167   8.439
 2402SOL     OW 7885   1.576   3.537   7.757
 2402SOL    HW1 7886   1.669   3.560   7.751
 2402SOL    HW2 7887   1.550   3.520   7.667
 2403SOL     OW 7888   0.790   2.480   8.898
 2403SOL    HW1 7889   0.764   2.454   8.986
 2403SOL    HW2 7890   0.755   2.412   8.841
 2404SOL     OW 7891   1.393   2.335   9.125
 2404SOL    HW1 7892   1.397   2.381   9.209
 2404SOL    HW2 7893   1.455   2.263   9.135
 2405SOL     OW 7894   0.951   2.747   9.033
 2405SOL    HW1 7895   1.006   2.679   8.995
 2405SOL    HW2 7896   0.903   2.783   8.958
 2406SOL     OW 7897   0.993   2.273   8.683
 2406SOL    HW1 7898   0.904   2.291   8.715
 2406SOL    HW2 7899   0.980   2.230   8.599
 2407SOL     OW 7900   1.027   2.577   7.898
 2407SOL    HW1 7901   1.051   2.565   7.990
 2407SOL    HW2 7902   0.945   2.529   7.888
 2408SOL     OW 7903   0.082   2.693   8.238
 2408SOL    HW1 7904   0.155   2.661   8.291
 2408SOL    HW2 7905   0.103   2.785   8.221
 2409SOL     OW 7906   0.127   3.719   9.028
 2409SOL    HW1 7907   0.135   3.687   9.118
 2409SOL    HW2 7908   0.035   3.706   9.006
 2410SOL     OW 7909   0.869   2.222   7.647
 2410SOL    HW1 7910   0.923   2.282   7.596
 2410SOL    HW2 7911   0.878   2.138   7.602
 2411SOL     OW 7912   1.702   2.438   9.283
 2411SOL    HW1 7913   1.667   2.509   9.228
 2411SOL    HW2 7914   1.733   2.373   9.220
 2412SOL     OW 7915   1.378   3.002   7.985
 2412SOL    HW1 7916   1.460   2.998   7.936
 2412SOL    HW2 7917   1.325   3.066   7.937
 2413SOL     OW 7918   0.546   2.040   8.343
 2413SOL    HW1 7919   0.553   2.072   8.433
 2413SOL    HW2 7920   0.545   2.119   8.289
 2414SOL     OW 7921   1.003   3.307   7.918
 2414SOL    HW1 7922   0.967   3.381   7.868
 2414SOL    HW2 7923   0.980   3.326   8.009
 2415SOL     OW 7924   0.359   3.672   8.312
 2415SOL    HW1 7925   0.439   3.621   8.325
 2415SOL    HW2 7926   0.387   3.763   8.320
 2416SOL     OW 7927   1.797   2.924   8.322
 2416SOL    HW1 7928   1.744   2.895   8.248
 2416SOL    HW2 7929   1.736   2.929   8.395
 2417SOL     OW 7930   1.227   3.399   8.959
 2417SOL    HW1 7931   1.215   3.327   9.021
 2417SOL    HW2 7932   1.158   3.387   8.894
 2418SOL     OW 7933   0.311   2.815   7.690
 2418SOL    HW1 7934   0.394   2.837   7.648
 2418SOL    HW2 7935   0.299   2.722   7.670
 2419SOL     OW 7936   1.466   2.625   8.187
 2419SOL    HW1 7937   1.474   2.570   8.264
 2419SOL    HW2 7938   1.554   2.662   8.175
 2420SOL     OW 7939   0.469   3.123   9.185
 2420SOL    HW1 7940   0.444   3.131   9.093
 2420SOL    HW2 7941   0.387   3.126   9.233
 2421SOL     OW 7942   1.113   3.643   7.669
 2421SOL    HW1 7943   1.048   3.598   7.722
 2421SOL    HW2 7944   1.144   3.577   7.607
 2422SOL     OW 7945   0.204   2.132   8.956
 2422SOL    HW1 7946   0.114   2.166   8.951
 2422SOL    HW2 7947   0.195   2.044   8.993
 2423SOL     OW 7948   1.627   3.247   7.540
 2423SOL    HW1 7949   1.589   3.333   7.521
 2423SOL    HW2 7950   1.559   3.185   7.516
 2424SOL     OW 7951   0.467   3.603   7.769
 2424SOL    HW1 7952   0.506   3.664   7.831
 2424SOL    HW2 7953   0.540   3.573   7.714
 2425SOL     OW 7954   0.255   3.657   8.673
 2425SOL    HW1 7955   0.297   3.589   8.725
 2425SOL    HW2 7956   0.253   3.621   8.584
 2426SOL     OW 7957   0.938   3.564   8.347
 2426SOL    HW1 7958   1.015   3.512   8.370
 2426SOL    HW2 7959   0.895   3.514   8.277
 2427SOL     OW 7960   0.400   2.554   7.919
 2427SOL    HW1 7961   0.424   2.463   7.934
 2427SOL    HW2 7962   0.308   2.560   7.946
 2428SOL     OW 7963   1.534   2.086   9.172
 2428SOL    HW1 7964   1.548   2.107   9.265
 2428SOL    HW2 7965   1.464   2.021   9.173
 2429SOL     OW 7966   0.653   1.975   7.541
 2429SOL    HW1 7967   0.687   1.892   7.576
 2429SOL    HW2 7968   0.597   1.949   7.468
 2430SOL     OW 7969   0.765   2.141   9.203
 2430SOL    HW1 7970   0.845   2.088   9.200
 2430SOL    HW2 7971   0.719   2.110   9.281
 2431SOL     OW 7972   0.876   3.383   8.642
 2431SOL    HW1 7973   0.859   3.346   8.556
 2431SOL    HW2 7974   0.945   3.328   8.679
 2432SOL     OW 7975   1.339   2.451   8.880
 2432SOL    HW1 7976   1.370   2.420   8.966
 2432SOL    HW2 7977   1.376   2.539   8.872
 2433SOL     OW 7978   0.818   3.252   8.391
 2433SOL    HW1 7979   0.903   3.241   8.349
 2433SOL    HW2 7980   0.755   3.256   8.319
 2434SOL     OW 7981   0.928   2.371   8.350
 2434SOL    HW1 7982   0.904   2.364   8.258
 2434SOL    HW2 7983   0.959   2.284   8.373
 2435SOL     OW 7984   0.555   1.924   7.941
 2435SOL    HW1 7985   0.473   1.929   7.990
 2435SOL    HW2 7986   0.558   2.006   7.892
 2436SOL     OW 7987   1.423   3.074   7.485
 2436SOL    HW1 7988   1.451   3.003   7.541
 2436SOL    HW2 7989   1.338   3.100   7.520
 2437SOL     OW 7990   0.306   1.913   7.617
 2437SOL    HW1 7991   0.367   1.952   7.555
 2437SOL    HW2 7992   0.358   1.849   7.665
 2438SOL     OW 7993   0.924   2.110   7.903
 2438SOL    HW1 7994   0.891   2.159   7.827
 2438SOL    HW2 7995   1.019   2.121   7.899
 2439SOL     OW 7996   1.080   2.545   8.906
 2439SOL    HW1 7997   1.014   2.475   8.910
 2439SOL    HW2 7998   1.164   2.498   8.900
 2440SOL     OW 7999   1.221   3.433   8.241
 2440SOL    HW1 8000   1.235   3.500   8.175
 2440SOL    HW2 8001   1.290   3.450   8.307
 2441SOL     OW 8002   0.467   3.014   8.181
 2441SOL    HW1 8003   0.396   2.989   8.241
 2441SOL    HW2 8004   0.431   2.998   8.094
 2442SOL     OW 8005   1.265   3.655   8.057
 2442SOL    HW1 8006   1.313   3.720   8.005
 2442SOL    HW2 8007   1.191   3.704   8.094
 2443SOL     OW 8008   1.014   2.399   7.478
 2443SOL    HW1 8009   0.975   2.483   7.456
 2443SOL    HW2 8010   1.053   2.412   7.565
 2444SOL     OW 8011   0.083   2.435   8.838
 2444SOL    HW1 8012   0.173   2.422   8.807
 2444SOL    HW2 8013   0.090   2.505   8.903
 2445SOL     OW 8014   0.566   2.089   8.615
 2445SOL    HW1 8015   0.608   2.014   8.658
 2445SOL    HW2 8016   0.475   2.085   8.643
 2446SOL     OW 8017   0.864   2.322   8.088
 2446SOL    HW1 8018   0.818   2.376   8.024
 2446SOL    HW2 8019   0.879   2.239   8.043
 2447SOL     OW 8020   1.017   1.913   8.191
 2447SOL    HW1 8021   0.956   1.905   8.118
 2447SOL    HW2 8022   0.994   1.840   8.249
 2448SOL     OW 8023   1.437   3.023   8.306
 2448SOL    HW1 8024   1.368   2.957   8.308
 2448SOL    HW2 8025   1.461   3.029   8.213
 2449SOL     OW 8026   1.468   2.470   8.420
 2449SOL    HW1 8027   1.412   2.392   8.422
 2449SOL    HW2 8028   1.524   2.461   8.497
 2450SOL     OW 8029   0.488   3.283   7.606
 2450SOL    HW1 8030   0.411   3.253   7.655
 2450SOL    HW2 8031   0.473   3.250   7.517
 2451SOL     OW 8032   1.672   3.127   8.088
 2451SOL    HW1 8033   1.766   3.128   8.105
 2451SOL    HW2 8034   1.643   3.215   8.112
 2452SOL     OW 8035   0.573   2.127   7.763
 2452SOL    HW1 8036   0.610   2.085   7.685
 2452SOL    HW2 8037   0.544   2.213   7.731
 2453SOL     OW 8038   1.750   3.104   9.014
 2453SOL    HW1 8039   1.837   3.065   9.010
 2453SOL    HW2 8040   1.766   3.194   9.042
 2454SOL     OW 8041   1.055   3.215   8.780
 2454SOL    HW1 8042   0.980   3.184   8.831
 2454SOL    HW2 8043   1.131   3.174   8.822
 2455SOL     OW 8044   1.610   3.489   9.105
 2455SOL    HW1 8045   1.601   3.523   9.016
 2455SOL    HW2 8046   1.693   3.440   9.105
 2456SOL     OW 8047   1.134   3.071   8.551
 2456SOL    HW1 8048   1.073   3.107   8.615
 2456SOL    HW2 8049   1.103   3.104   8.467
 2457SOL     OW 8050   1.623   2.959   8.527
 2457SOL    HW1 8051   1.618   3.022   8.599
 2457SOL    HW2 8052   1.545   2.976   8.474
 2458SOL     OW 8053   0.918   1.956   8.841
 2458SOL    HW1 8054   0.941   1.938   8.750
 2458SOL    HW2 8055   0.997   1.996   8.878
 2459SOL     OW 8056   0.984   2.977   9.171
 2459SOL    HW1 8057   0.893   2.993   9.194
 2459SOL    HW2 8058   0.981   2.898   9.116
 2460SOL     OW 8059   0.705   2.924   7.819
 2460SOL    HW1 8060   0.693   2.905   7.912
 2460SOL    HW2 8061   0.781   2.871   7.794
 2461SOL     OW 8062   0.422   2.680   8.701
 2461SOL    HW1 8063   0.491   2.688   8.768
 2461SOL    HW2 8064   0.389   2.591   8.712
 2462SOL     OW 8065   1.263   2.236   8.729
 2462SOL    HW1 8066   1.296   2.314   8.773
 2462SOL    HW2 8067   1.173   2.257   8.705
 2463SOL     OW 8068   0.066   3.441   8.793
 2463SOL    HW1 8069   0.071   3.488   8.710
 2463SOL    HW2 8070   0.157   3.431   8.821
 2464SOL     OW 8071   0.366   2.964   7.930
 2464SOL    HW1 8072   0.364   3.045   7.878
 2464SOL    HW2 8073   0.367   2.894   7.864
 2465SOL     OW 8074   0.548   2.397   8.310
 2465SOL    HW1 8075   0.562   2.454   8.234
 2465SOL    HW2 8076   0.616   2.422   8.372
 2466SOL     OW 8077   1.248   3.211   7.840
 2466SOL    HW1 8078   1.303   3.283   7.871
 2466SOL    HW2 8079   1.161   3.233   7.873
 2467SOL     OW 8080   1.286   3.322   8.596
 2467SOL    HW1 8081   1.342   3.326   8.674
 2467SOL    HW2 8082   1.231   3.245   8.609
 2468SOL     OW 8083   0.345   3.390   8.765
 2468SOL    HW1 8084   0.335   3.340   8.684
 2468SOL    HW2 8085   0.439   3.405   8.773
 2469SOL     OW 8086   0.418   2.600   9.049
 2469SOL    HW1 8087   0.481   2.645   8.993
 2469SOL    HW2 8088   0.457   2.514   9.066
 2470SOL     OW 8089   1.606   2.643   9.132
 2470SOL    HW1 8090   1.520   2.685   9.126
 2470SOL    HW2 8091   1.658   2.685   9.064
 2471SOL     OW 8092   0.996   1.993   9.202
 2471SOL    HW1 8093   1.055   2.065   9.179
 2471SOL    HW2 8094   1.044   1.914   9.176
 2472SOL     OW 8095   0.497   1.896   9.195
 2472SOL    HW1 8096   0.452   1.844   9.128
 2472SOL    HW2 8097   0.443   1.975   9.204
 2473SOL     OW 8098   0.586   2.736   8.480
 2473SOL    HW1 8099   0.619   2.826   8.481
 2473SOL    HW2 8100   0.529   2.731   8.558
 2474SOL     OW 8101   1.351   2.719   8.476
 2474SOL    HW1 8102   1.269   2.707   8.428
 2474SOL    HW2 8103   1.398   2.637   8.464
 2475SOL     OW 8104   1.103   2.377   7.733
 2475SOL    HW1 8105   1.180   2.327   7.759
 2475SOL    HW2 8106   1.096   2.446   7.799
 2476SOL     OW 8107   0.310   2.057   8.695
 2476SOL    HW1 8108   0.263   2.093   8.771
 2476SOL    HW2 8109   0.287   1.964   8.695
 2477SOL     OW 8110   0.060   3.167   8.729
 2477SOL    HW1 8111   0.091   3.126   8.809
 2477SOL    HW2 8112   0.053   3.260   8.751
 2478SOL     OW 8113   0.723   2.492   8.503
 2478SOL    HW1 8114   0.798   2.477   8.447
 2478SOL    HW2 8115   0.695   2.582   8.483
 2479SOL     OW 8116   1.738   2.821   9.304
 2479SOL    HW1 8117   1.694   2.755   9.251
 2479SOL    HW2 8118   1.677   2.838   9.376
 2480SOL     OW 8119   0.314   1.923   8.068
 2480SOL    HW1 8120   0.292   2.014   8.089
 2480SOL    HW2 8121   0.322   1.880   8.153
 2481SOL     OW 8122   1.027   2.621   8.408
 2481SOL    HW1 8123   1.021   2.638   8.502
 2481SOL    HW2 8124   1.001   2.529   8.398
 2482SOL     OW 8125   0.986   3.430   9.170
 2482SOL    HW1 8126   0.966   3.471   9.085
 2482SOL    HW2 8127   1.028   3.347   9.147
 2483SOL     OW 8128   1.853   3.364   9.052
 2483SOL    HW1 8129   1.873   3.392   8.963
 2483SOL    HW2 8130   1.933   3.380   9.101
 2484SOL     OW 8131   0.354   2.784   9.247
 2484SOL    HW1 8132   0.432   2.805   9.298
 2484SOL    HW2 8133   0.383   2.717   9.186
 2485SOL     OW 8134   1.283   2.693   7.476
 2485SOL    HW1 8135   1.274   2.600   7.454
 2485SOL    HW2 8136   1.342   2.728   7.410
 2486SOL     OW 8137   1.068   3.200   8.304
 2486SOL    HW1 8138   1.072   3.127   8.241
 2486SOL    HW2 8139   1.127   3.266   8.268
 2487SOL     OW 8140   0.313   2.663   8.398
 2487SOL    HW1 8141   0.407   2.681   8.391
 2487SOL    HW2 8142   0.308   2.573   8.429
 2488SOL     OW 8143   0.328   2.383   8.463
 2488SOL    HW1 8144   0.294   2.295   8.447
 2488SOL    HW2 8145   0.405   2.390   8.406
 2489SOL     OW 8146   1.134   2.235   9.134
 2489SOL    HW1 8147   1.086   2.290   9.195
 2489SOL    HW2 8148   1.222   2.274   9.129
 2490SOL     OW 8149   1.160   2.061   8.920
 2490SOL    HW1 8150   1.149   2.124   8.991
 2490SOL    HW2 8151   1.202   2.111   8.850
 2491SOL     OW 8152   0.000   3.179   7.630
 2491SOL    HW1 8153   3.906   3.194   7.634
 2491SOL    HW2 8154   0.009   3.085   7.648
 2492SOL     OW 8155   0.076   3.663   8.343
 2492SOL    HW1 8156   0.093   3.568   8.339
 2492SOL    HW2 8157   0.163   3.703   8.343
 2493SOL     OW 8158   0.506   3.424   8.366
 2493SOL    HW1 8159   0.572   3.491   8.385
 2493SOL    HW2 8160   0.549   3.366   8.302
 2494SOL     OW 8161   0.976   2.651   8.673
 2494SOL    HW1 8162   1.035   2.631   8.746
 2494SOL    HW2 8163   0.892   2.612   8.698
 2495SOL     OW 8164   0.038   2.422   8.557
 2495SOL    HW1 8165   0.120   2.400   8.514
 2495SOL    HW2 8166   0.057   2.418   8.651
 2496SOL     OW 8167   0.206   2.374   9.176
 2496SOL    HW1 8168   0.245   2.325   9.103
 2496SOL    HW2 8169   0.162   2.448   9.134
 2497SOL     OW 8170   1.379   2.798   9.105
 2497SOL    HW1 8171   1.401   2.891   9.101
 2497SOL    HW2 8172   1.375   2.770   9.013
 2498SOL     OW 8173   0.804   2.432   7.826
 2498SOL    HW1 8174   0.820   2.363   7.761
 2498SOL    HW2 8175   0.735   2.485   7.787
 2499SOL     OW 8176   1.643   2.464   8.630
 2499SOL    HW1 8177   1.633   2.408   8.707
 2499SOL    HW2 8178   1.729   2.441   8.595
 2500SOL     OW 8179   0.300   3.406   9.172
 2500SOL    HW1 8180   0.253   3.476   9.218
 2500SOL    HW2 8181   0.271   3.325   9.213
 2501SOL     OW 8182   0.710   2.310   8.704
 2501SOL    HW1 8183   0.656   2.236   8.675
 2501SOL    HW2 8184   0.703   2.374   8.632
 2502SOL     OW 8185   0.926   3.533   8.918
 2502SOL    HW1 8186   0.900   3.494   8.835
 2502SOL    HW2 8187   0.918   3.627   8.904
 2503SOL     OW 8188   0.452   2.350   7.645
 2503SOL    HW1 8189   0.518   2.417   7.662
 2503SOL    HW2 8190   0.373   2.399   7.622
 2504SOL     OW 8191   0.155   2.996   8.924
 2504SOL    HW1 8192   0.155   2.946   9.006
 2504SOL    HW2 8193   0.170   2.931   8.856
 2505SOL     OW 8194   1.322   2.907   8.669
 2505SOL    HW1 8195   1.343   2.842   8.602
 2505SOL    HW2 8196   1.255   2.962   8.629
 2506SOL     OW 8197   1.773   3.600   8.600
 2506SOL    HW1 8198   1.835   3.628   8.533
 2506SOL    HW2 8199   1.751   3.510   8.576
 2507SOL     OW 8200   1.244   3.594   8.555
 2507SOL    HW1 8201   1.327   3.616   8.512
 2507SOL    HW2 8202   1.252   3.501   8.575
 2508SOL     OW 8203   0.077   3.075   8.477
 2508SOL    HW1 8204   0.083   3.103   8.568
 2508SOL    HW2 8205   3.985   3.088   8.454
 2509SOL     OW 8206   0.680   3.528   9.184
 2509SOL    HW1 8207   0.621   3.603   9.187
 2509SOL    HW2 8208   0.740   3.548   9.112
 2510SOL     OW 8209   1.652   1.976   7.907
 2510SOL    HW1 8210   1.743   2.004   7.918
 2510SOL    HW2 8211   1.643   1.900   7.963
 2511SOL     OW 8212   1.392   3.431   7.937
 2511SOL    HW1 8213   1.450   3.465   7.869
 2511SOL    HW2 8214   1.342   3.507   7.966
 2512SOL     OW 8215   0.171   3.621   9.281
 2512SOL    HW1 8216   0.117   3.568   9.339
 2512SOL    HW2 8217   0.217   3.681   9.339
 2513SOL     OW 8218   1.270   2.794   8.121
 2513SOL    HW1 8219   1.343   2.735   8.139
 2513SOL    HW2 8220   1.309   2.863   8.067
 2514SOL     OW 8221   0.807   3.137   8.874
 2514SOL    HW1 8222   0.779   3.178   8.956
 2514SOL    HW2 8223   0.736   3.154   8.813
 2515SOL     OW 8224   0.674   3.480   7.607
 2515SOL    HW1 8225   0.683   3.498   7.513
 2515SOL    HW2 8226   0.615   3.405   7.611
 2516SOL     OW 8227   1.621   3.589   8.838
 2516SOL    HW1 8228   1.673   3.593   8.758
 2516SOL    HW2 8229   1.607   3.680   8.863
 2517SOL     OW 8230   0.265   2.174   8.164
 2517SOL    HW1 8231   0.179   2.206   8.138
 2517SOL    HW2 8232   0.260   2.165   8.259
 2518SOL     OW 8233   1.208   3.464   7.485
 2518SOL    HW1 8234   1.197   3.373   7.509
 2518SOL    HW2 8235   1.147   3.478   7.412
 2519SOL     OW 8236   0.823   2.868   8.823
 2519SOL    HW1 8237   0.867   2.861   8.738
 2519SOL    HW2 8238   0.821   2.962   8.842
 2520SOL     OW 8239   0.911   2.773   7.736
 2520SOL    HW1 8240   0.975   2.807   7.674
 2520SOL    HW2 8241   0.960   2.711   7.790
 2521SOL     OW 8242   1.489   3.494   7.491
 2521SOL    HW1 8243   1.395   3.481   7.475
 2521SOL    HW2 8244   1.528   3.499   7.404
 2522SOL     OW 8245   0.374   3.165   8.939
 2522SOL    HW1 8246   0.359   3.245   8.889
 2522SOL    HW2 8247   0.297   3.111   8.922
 2523SOL     OW 8248   1.610   3.147   8.728
 2523SOL    HW1 8249   1.668   3.132   8.803
 2523SOL    HW2 8250   1.549   3.214   8.759
 2524SOL     OW 8251   1.056   2.972   8.157
 2524SOL    HW1 8252   0.984   2.921   8.194
 2524SOL    HW2 8253   1.121   2.907   8.130
 2525SOL     OW 8254   1.022   2.102   8.414
 2525SOL    HW1 8255   1.019   2.055   8.330
 2525SOL    HW2 8256   1.017   2.033   8.480
 2526SOL     OW 8257   0.607   3.353   7.928
 2526SOL    HW1 8258   0.654   3.302   7.862
 2526SOL    HW2 8259   0.533   3.392   7.881
 2527SOL     OW 8260   1.728   2.252   8.822
 2527SOL    HW1 8261   1.800   2.314   8.831
 2527SOL    HW2 8262   1.761   2.184   8.763
 2528SOL     OW 8263   0.254   3.202   7.740
 2528SOL    HW1 8264   0.160   3.209   7.722
 2528SOL    HW2 8265   0.265   3.241   7.827
 2529SOL     OW 8266   0.108   2.859   9.165
 2529SOL    HW1 8267   0.048   2.853   9.240
 2529SOL    HW2 8268   0.195   2.842   9.203
 2530SOL     OW 8269   0.676   2.058   8.948
 2530SOL    HW1 8270   0.760   2.036   8.907
 2530SOL    HW2 8271   0.700   2.091   9.035
 2531SOL     OW 8272   0.080   2.173   7.485
 2531SOL    HW1 8273   3.984   2.174   7.493
 2531SOL    HW2 8274   0.101   2.254   7.438
 2532SOL     OW 8275   1.427   2.720   8.846
 2532SOL    HW1 8276   1.378   2.781   8.791
 2532SOL    HW2 8277   1.516   2.722   8.811
 2533SOL     OW 8278   0.016   2.102   7.826
 2533SOL    HW1 8279   0.044   2.166   7.760
 2533SOL    HW2 8280   0.097   2.060   7.856
 2534SOL     OW 8281   1.178   3.198   7.567
 2534SOL    HW1 8282   1.087   3.167   7.566
 2534SOL    HW2 8283   1.202   3.197   7.660
 2535SOL     OW 8284   0.620   2.692   8.885
 2535SOL    HW1 8285   0.676   2.768   8.870
 2535SOL    HW2 8286   0.681   2.618   8.892
 2536SOL     OW 8287   1.486   3.642   8.429
 2536SOL    HW1 8288   1.508   3.704   8.359
 2536SOL    HW2 8289   1.571   3.620   8.469
 2537SOL     OW 8290   0.716   2.423   9.151
 2537SOL    HW1 8291   0.762   2.484   9.209
 2537SOL    HW2 8292   0.739   2.336   9.184
 2538SOL     OW 8293   1.474   3.058   9.078
 2538SOL    HW1 8294   1.461   3.073   9.171
 2538SOL    HW2 8295   1.566   3.076   9.062
 2539SOL     OW 8296   0.378   3.609   9.008
 2539SOL    HW1 8297   0.290   3.645   8.995
 2539SOL    HW2 8298   0.364   3.525   9.052
 2540SOL     OW 8299   1.667   2.742   8.703
 2540SOL    HW1 8300   1.661   2.656   8.660
 2540SOL    HW2 8301   1.655   2.805   8.632
 2541SOL     OW 8302   0.587   2.599   8.123
 2541SOL    HW1 8303   0.627   2.684   8.107
 2541SOL    HW2 8304   0.523   2.589   8.052
 2542SOL     OW 8305   1.752   2.244   9.098
 2542SOL    HW1 8306   1.738   2.247   9.003
 2542SOL    HW2 8307   1.691   2.178   9.129
 2543SOL     OW 8308   1.746   2.797   8.959
 2543SOL    HW1 8309   1.737   2.892   8.971
 2543SOL    HW2 8310   1.729   2.783   8.866
 2544SOL     OW 8311   0.865   3.229   7.489
 2544SOL    HW1 8312   0.823   3.258   7.571
 2544SOL    HW2 8313   0.879   3.309   7.439
 2545SOL     OW 8314   0.658   3.649   8.381
 2545SOL    HW1 8315   0.638   3.741   8.363
 2545SOL    HW2 8316   0.754   3.646   8.379
 2546SOL     OW 8317   0.868   2.831   8.301
 2546SOL    HW1 8318   0.919   2.759   8.339
 2546SOL    HW2 8319   0.832   2.877   8.377
 2547SOL     OW 8320   1.079   2.861   7.545
 2547SOL    HW1 8321   1.058   2.906   7.464
 2547SOL    HW2 8322   1.153   2.804   7.523
 2548SOL     OW 8323   1.849   3.410   8.288
 2548SOL    HW1 8324   1.767   3.403   8.239
 2548SOL    HW2 8325   1.836   3.353   8.364
 2549SOL     OW 8326   0.228   3.166   9.305
 2549SOL    HW1 8327   0.153   3.113   9.277
 2549SOL    HW2 8328   0.215   3.179   9.399
 2550SOL     OW 8329   0.118   3.142   8.172
 2550SOL    HW1 8330   0.139   3.090   8.250
 2550SOL    HW2 8331   0.103   3.077   8.103
 2551SOL     OW 8332   0.684   3.267   9.080
 2551SOL    HW1 8333   0.603   3.226   9.110
 2551SOL    HW2 8334   0.680   3.356   9.116
 2552SOL     OW 8335   0.440   2.295   7.982
 2552SOL    HW1 8336   0.439   2.226   7.916
 2552SOL    HW2 8337   0.385   2.262   8.053
 2553SOL     OW 8338   1.701   3.346   8.536
 2553SOL    HW1 8339   1.619   3.326   8.491
 2553SOL    HW2 8340   1.707   3.279   8.604
 2554SOL     OW 8341   0.336   2.420   8.740
 2554SOL    HW1 8342   0.389   2.363   8.795
 2554SOL    HW2 8343   0.350   2.389   8.651
 2555SOL     OW 8344   0.829   3.441   8.124
 2555SOL    HW1 8345   0.811   3.497   8.048
 2555SOL    HW2 8346   0.756   3.380   8.127
 2556SOL     OW 8347   1.436   2.092   8.569
 2556SOL    HW1 8348   1.442   2.003   8.604
 2556SOL    HW2 8349   1.382   2.139   8.632
 2557SOL     OW 8350   1.010   1.877   8.585
 2557SOL    HW1 8351   0.956   1.811   8.543
 2557SOL    HW2 8352   1.098   1.840   8.587
 2558SOL     OW 8353   0.773   3.195   7.769
 2558SOL    HW1 8354   0.743   3.104   7.775
 2558SOL    HW2 8355   0.856   3.196   7.816
 2559SOL     OW 8356   0.621   3.415   8.735
 2559SOL    HW1 8357   0.621   3.497   8.784
 2559SOL    HW2 8358   0.709   3.410   8.697
 2560SOL     OW 8359   1.320   2.335   8.139
 2560SOL    HW1 8360   1.257   2.407   8.134
 2560SOL    HW2 8361   1.298   2.290   8.221
 2561SOL     OW 8362   1.564   2.046   8.321
 2561SOL    HW1 8363   1.533   2.078   8.406
 2561SOL    HW2 8364   1.585   2.125   8.272
 2562SOL     OW 8365   0.048   2.910   7.688
 2562SOL    HW1 8366   0.142   2.895   7.680
 2562SOL    HW2 8367   0.012   2.825   7.715
 2563SOL     OW 8368   0.887   3.523   7.790
 2563SOL    HW1 8369   0.815   3.503   7.729
 2563SOL    HW2 8370   0.856   3.597   7.841
 2564SOL     OW 8371   0.231   2.488   9.428
 2564SOL    HW1 8372   0.138   2.495   9.449
 2564SOL    HW2 8373   0.232   2.455   9.338
 2565SOL     OW 8374   0.229   2.134  10.297
 2565SOL    HW1 8375   0.250   2.100  10.383
 2565SOL    HW2 8376   0.134   2.127  10.290
 2566SOL     OW 8377   0.007   2.220   9.940
 2566SOL    HW1 8378   3.918   2.238   9.969
 2566SOL    HW2 8379   3.997   2.190   9.849
 2567SOL     OW 8380   0.581   3.153  10.503
 2567SOL    HW1 8381   0.495   3.156  10.461
 2567SOL    HW2 8382   0.595   3.242  10.535
 2568SOL     OW 8383   1.566   3.373  10.019
 2568SOL    HW1 8384   1.524   3.351  10.102
 2568SOL    HW2 8385   1.494   3.376   9.956
 2569SOL     OW 8386   1.133   2.560  10.007
 2569SOL    HW1 8387   1.181   2.642   9.994
 2569SOL    HW2 8388   1.085   2.572  10.089
 2570SOL     OW 8389   1.780   2.463   9.537
 2570SOL    HW1 8390   1.751   2.460   9.445
 2570SOL    HW2 8391   1.740   2.385   9.576
 2571SOL     OW 8392   0.750   2.999  10.354
 2571SOL    HW1 8393   0.688   3.036  10.416
 2571SOL    HW2 8394   0.787   3.076  10.309
 2572SOL     OW 8395   0.872   2.628  11.133
 2572SOL    HW1 8396   0.863   2.699  11.197
 2572SOL    HW2 8397   0.895   2.672  11.051
 2573SOL     OW 8398   0.685   2.862   9.955
 2573SOL    HW1 8399   0.751   2.852  10.024
 2573SOL    HW2 8400   0.616   2.915   9.996
 2574SOL     OW 8401   0.713   3.011  11.128
 2574SOL    HW1 8402   0.761   3.089  11.158
 2574SOL    HW2 8403   0.632   3.046  11.090
 2575SOL     OW 8404   0.351   3.263  10.388
 2575SOL    HW1 8405   0.269   3.246  10.341
 2575SOL    HW2 8406   0.400   3.320  10.330
 2576SOL     OW 8407   1.460   3.363  10.668
 2576SOL    HW1 8408   1.514   3.442  10.679
 2576SOL    HW2 8409   1.392   3.372  10.736
 2577SOL     OW 8410   0.450   2.259  10.795
 2577SOL    HW1 8411   0.525   2.200  10.799
 2577SOL    HW2 8412   0.374   2.202  10.810
 2578SOL     OW 8413   1.601   2.303  10.047
 2578SOL    HW1 8414   1.518   2.321  10.004
 2578SOL    HW2 8415   1.614   2.378  10.106
 2579SOL     OW 8416   0.222   3.572   9.776
 2579SOL    HW1 8417   0.221   3.656   9.821
 2579SOL    HW2 8418   0.299   3.576   9.719
 2580SOL     OW 8419   1.138   3.204  11.004
 2580SOL    HW1 8420   1.178   3.197  11.090
 2580SOL    HW2 8421   1.085   3.124  10.996
 2581SOL     OW 8422   0.252   3.306   9.850
 2581SOL    HW1 8423   0.223   3.397   9.836
 2581SOL    HW2 8424   0.183   3.267   9.903
 2582SOL     OW 8425   0.248   2.928  10.193
 2582SOL    HW1 8426   0.268   2.843  10.233
 2582SOL    HW2 8427   0.195   2.973  10.259
 2583SOL     OW 8428   0.609   3.648  10.736
 2583SOL    HW1 8429   0.527   3.634  10.783
 2583SOL    HW2 8430   0.636   3.737  10.761
 2584SOL     OW 8431   0.575   2.849   9.449
 2584SOL    HW1 8432   0.625   2.893   9.380
 2584SOL    HW2 8433   0.616   2.878   9.531
 2585SOL     OW 8434   1.588   1.994  10.771
 2585SOL    HW1 8435   1.589   2.080  10.729
 2585SOL    HW2 8436   1.578   2.013  10.865
 2586SOL     OW 8437   0.143   2.517   9.884
 2586SOL    HW1 8438   0.087   2.440   9.882
 2586SOL    HW2 8439   0.107   2.571   9.954
 2587SOL     OW 8440   1.843   3.606   9.647
 2587SOL    HW1 8441   1.913   3.583   9.709
 2587SOL    HW2 8442   1.862   3.697   9.624
 2588SOL     OW 8443   0.041   3.452   9.449
 2588SOL    HW1 8444   0.036   3.360   9.477
 2588SOL    HW2 8445   3.956   3.488   9.474
 2589SOL     OW 8446   1.689   2.781   9.954
 2589SOL    HW1 8447   1.771   2.737   9.930
 2589SOL    HW2 8448   1.666   2.832   9.876
 2590SOL     OW 8449   1.648   2.966   9.739
 2590SOL    HW1 8450   1.735   2.968   9.698
 2590SOL    HW2 8451   1.654   3.029   9.811
 2591SOL     OW 8452   0.142   2.615  10.900
 2591SOL    HW1 8453   0.237   2.611  10.894
 2591SOL    HW2 8454   0.123   2.702  10.934
 2592SOL     OW 8455   0.617   3.249  10.044
 2592SOL    HW1 8456   0.569   3.167  10.053
 2592SOL    HW2 8457   0.599   3.277   9.954
 2593SOL     OW 8458   1.286   3.098  10.732
 2593SOL    HW1 8459   1.318   3.030  10.672
 2593SOL    HW2 8460   1.345   3.093  10.807
 2594SOL     OW 8461   0.822   1.863   9.823
 2594SOL    HW1 8462   0.862   1.947   9.800
 2594SOL    HW2 8463   0.728   1.882   9.827
 2595SOL     OW 8464   0.184   2.811  10.591
 2595SOL    HW1 8465   0.272   2.776  10.578
 2595SOL    HW2 8466   0.133   2.775  10.518
 2596SOL     OW 8467   1.531   2.859   9.510
 2596SOL    HW1 8468   1.462   2.802   9.542
 2596SOL    HW2 8469   1.573   2.893   9.589
 2597SOL     OW 8470   1.220   3.667  10.938
 2597SOL    HW1 8471   1.195   3.728  10.869
 2597SOL    HW2 8472   1.221   3.581  10.895
 2598SOL     OW 8473   0.343   2.109  11.128
 2598SOL    HW1 8474   0.378   2.198  11.135
 2598SOL    HW2 8475   0.251   2.117  11.153
 2599SOL     OW 8476   1.466   3.281  10.259
 2599SOL    HW1 8477   1.400   3.297  10.325
 2599SOL    HW2 8478   1.453   3.190  10.233
 2600SOL     OW 8479   1.653   3.603   9.891
 2600SOL    HW1 8480   1.639   3.572   9.802
 2600SOL    HW2 8481   1.631   3.528   9.947
 2601SOL     OW 8482   0.596   2.577   9.577
 2601SOL    HW1 8483   0.601   2.661   9.533
 2601SOL    HW2 8484   0.533   2.591   9.648
 2602SOL     OW 8485   1.279   2.225  10.245
 2602SOL    HW1 8486   1.191   2.189  10.255
 2602SOL    HW2 8487   1.334   2.169  10.299
 2603SOL     OW 8488   1.576   3.538   9.619
 2603SOL    HW1 8489   1.669   3.560   9.613
 2603SOL    HW2 8490   1.550   3.519   9.529
 2604SOL     OW 8491   0.791   2.480  10.760
 2604SOL    HW1 8492   0.765   2.454  10.848
 2604SOL    HW2 8493   0.755   2.412  10.703
 2605SOL     OW 8494   1.393   2.334  10.987
 2605SOL    HW1 8495   1.397   2.380  11.071
 2605SOL    HW2 8496   1.455   2.262  10.997
 2606SOL     OW 8497   0.951   2.747  10.895
 2606SOL    HW1 8498   1.006   2.679  10.857
 2606SOL    HW2 8499   0.903   2.783  10.820
 2607SOL     OW 8500   0.993   2.273  10.545
 2607SOL    HW1 8501   0.905   2.291  10.577
 2607SOL    HW2 8502   0.980   2.229  10.461
 2608SOL     OW 8503   1.053   2.560   9.735
 2608SOL    HW1 8504   1.071   2.553   9.829
 2608SOL    HW2 8505   0.971   2.514   9.722
 2609SOL     OW 8506   0.082   2.693  10.100
 2609SOL    HW1 8507   0.155   2.661  10.153
 2609SOL    HW2 8508   0.103   2.785  10.083
 2610SOL     OW 8509   0.127   3.719  10.890
 2610SOL    HW1 8510   0.135   3.687  10.980
 2610SOL    HW2 8511   0.035   3.706  10.868
 2611SOL     OW 8512   0.898   2.212   9.504
 2611SOL    HW1 8513   0.937   2.276   9.444
 2611SOL    HW2 8514   0.913   2.127   9.462
 2612SOL     OW 8515   1.702   2.437  11.144
 2612SOL    HW1 8516   1.668   2.508  11.090
 2612SOL    HW2 8517   1.733   2.372  11.081
 2613SOL     OW 8518   1.380   3.004   9.850
 2613SOL    HW1 8519   1.459   2.992   9.797
 2613SOL    HW2 8520   1.326   3.066   9.800
 2614SOL     OW 8521   0.546   2.039  10.205
 2614SOL    HW1 8522   0.553   2.072  10.295
 2614SOL    HW2 8523   0.545   2.118  10.151
 2615SOL     OW 8524   1.002   3.307   9.779
 2615SOL    HW1 8525   0.967   3.381   9.730
 2615SOL    HW2 8526   0.980   3.326   9.871
 2616SOL     OW 8527   0.359   3.672  10.174
 2616SOL    HW1 8528   0.439   3.621  10.187
 2616SOL    HW2 8529   0.387   3.763  10.182
 2617SOL     OW 8530   1.800   2.914  10.180
 2617SOL    HW1 8531   1.747   2.895  10.103
 2617SOL    HW2 8532   1.737   2.921  10.252
 2618SOL     OW 8533   1.227   3.399  10.821
 2618SOL    HW1 8534   1.215   3.327  10.883
 2618SOL    HW2 8535   1.158   3.388  10.756
 2619SOL     OW 8536   0.311   2.815   9.553
 2619SOL    HW1 8537   0.394   2.837   9.510
 2619SOL    HW2 8538   0.298   2.722   9.532
 2620SOL     OW 8539   1.482   2.608  10.033
 2620SOL    HW1 8540   1.476   2.568  10.119
 2620SOL    HW2 8541   1.559   2.664  10.036
 2621SOL     OW 8542   0.469   3.122  11.047
 2621SOL    HW1 8543   0.444   3.131  10.955
 2621SOL    HW2 8544   0.387   3.125  11.095
 2622SOL     OW 8545   1.113   3.643   9.531
 2622SOL    HW1 8546   1.048   3.598   9.584
 2622SOL    HW2 8547   1.144   3.577   9.469
 2623SOL     OW 8548   0.204   2.132  10.818
 2623SOL    HW1 8549   0.114   2.166  10.813
 2623SOL    HW2 8550   0.195   2.044  10.855
 2624SOL     OW 8551   1.627   3.244   9.401
 2624SOL    HW1 8552   1.587   3.329   9.384
 2624SOL    HW2 8553   1.559   3.180   9.380
 2625SOL     OW 8554   0.467   3.602   9.631
 2625SOL    HW1 8555   0.506   3.664   9.693
 2625SOL    HW2 8556   0.540   3.573   9.577
 2626SOL     OW 8557   1.399   1.967   9.744
 2626SOL    HW1 8558   1.383   1.946   9.652
 2626SOL    HW2 8559   1.489   1.938   9.760
 2627SOL     OW 8560   0.255   3.657  10.535
 2627SOL    HW1 8561   0.297   3.589  10.587
 2627SOL    HW2 8562   0.253   3.621  10.446
 2628SOL     OW 8563   0.938   3.564  10.209
 2628SOL    HW1 8564   1.015   3.512  10.232
 2628SOL    HW2 8565   0.895   3.514  10.139
 2629SOL     OW 8566   0.400   2.554   9.781
 2629SOL    HW1 8567   0.424   2.463   9.796
 2629SOL    HW2 8568   0.308   2.560   9.807
 2630SOL     OW 8569   1.535   2.086  11.035
 2630SOL    HW1 8570   1.548   2.107  11.127
 2630SOL    HW2 8571   1.464   2.021  11.035
 2631SOL     OW 8572   0.646   1.979   9.405
 2631SOL    HW1 8573   0.704   1.906   9.427
 2631SOL    HW2 8574   0.595   1.948   9.331
 2632SOL     OW 8575   0.765   2.141  11.065
 2632SOL    HW1 8576   0.845   2.088  11.062
 2632SOL    HW2 8577   0.719   2.110  11.143
 2633SOL     OW 8578   0.876   3.383  10.504
 2633SOL    HW1 8579   0.859   3.346  10.418
 2633SOL    HW2 8580   0.945   3.328  10.540
 2634SOL     OW 8581   1.339   2.451  10.742
 2634SOL    HW1 8582   1.370   2.420  10.827
 2634SOL    HW2 8583   1.376   2.539  10.735
 2635SOL     OW 8584   0.818   3.252  10.253
 2635SOL    HW1 8585   0.903   3.241  10.211
 2635SOL    HW2 8586   0.755   3.256  10.181
 2636SOL     OW 8587   0.929   2.371  10.211
 2636SOL    HW1 8588   0.905   2.363  10.119
 2636SOL    HW2 8589   0.959   2.284  10.236
 2637SOL     OW 8590   0.558   1.924   9.804
 2637SOL    HW1 8591   0.476   1.929   9.853
 2637SOL    HW2 8592   0.561   2.006   9.754
 2638SOL     OW 8593   1.428   3.062   9.350
 2638SOL    HW1 8594   1.458   2.986   9.400
 2638SOL    HW2 8595   1.342   3.083   9.386
 2639SOL     OW 8596   0.309   1.913   9.479
 2639SOL    HW1 8597   0.371   1.951   9.418
 2639SOL    HW2 8598   0.360   1.848   9.528
 2640SOL     OW 8599   0.941   2.110   9.767
 2640SOL    HW1 8600   0.913   2.149   9.685
 2640SOL    HW2 8601   1.035   2.127   9.771
 2641SOL     OW 8602   1.080   2.545  10.768
 2641SOL    HW1 8603   1.014   2.476  10.772
 2641SOL    HW2 8604   1.164   2.498  10.762
 2642SOL     OW 8605   1.221   3.433  10.104
 2642SOL    HW1 8606   1.235   3.500  10.037
 2642SOL    HW2 8607   1.290   3.449  10.168
 2643SOL     OW 8608   0.467   3.013  10.043
 2643SOL    HW1 8609   0.396   2.989  10.103
 2643SOL    HW2 8610   0.431   2.998   9.956
 2644SOL     OW 8611   1.265   3.655   9.919
 2644SOL    HW1 8612   1.313   3.720   9.867
 2644SOL    HW2 8613   1.191   3.704   9.956
 2645SOL     OW 8614   1.023   2.399   9.336
 2645SOL    HW1 8615   0.980   2.482   9.316
 2645SOL    HW2 8616   1.089   2.421   9.401
 2646SOL     OW 8617   0.083   2.435  10.700
 2646SOL    HW1 8618   0.173   2.422  10.669
 2646SOL    HW2 8619   0.090   2.505  10.765
 2647SOL     OW 8620   0.567   2.089  10.477
 2647SOL    HW1 8621   0.608   2.015  10.521
 2647SOL    HW2 8622   0.475   2.085  10.505
 2648SOL     OW 8623   0.867   2.320   9.949
 2648SOL    HW1 8624   0.820   2.374   9.886
 2648SOL    HW2 8625   0.888   2.240   9.901
 2649SOL     OW 8626   1.017   1.916  10.059
 2649SOL    HW1 8627   0.959   1.911   9.983
 2649SOL    HW2 8628   0.993   1.841  10.113
 2650SOL     OW 8629   1.439   3.023  10.167
 2650SOL    HW1 8630   1.368   2.959  10.167
 2650SOL    HW2 8631   1.463   3.032  10.074
 2651SOL     OW 8632   1.465   2.470  10.280
 2651SOL    HW1 8633   1.409   2.392  10.284
 2651SOL    HW2 8634   1.523   2.462  10.356
 2652SOL     OW 8635   1.841   2.675   9.695
 2652SOL    HW1 8636   1.902   2.628   9.752
 2652SOL    HW2 8637   1.817   2.612   9.628
 2653SOL     OW 8638   0.488   3.283   9.468
 2653SOL    HW1 8639   0.412   3.253   9.518
 2653SOL    HW2 8640   0.472   3.251   9.379
 2654SOL     OW 8641   1.675   3.126   9.953
 2654SOL    HW1 8642   1.769   3.126   9.967
 2654SOL    HW2 8643   1.646   3.214   9.975
 2655SOL     OW 8644   1.393   2.436   9.379
 2655SOL    HW1 8645   1.334   2.414   9.451
 2655SOL    HW2 8646   1.479   2.406   9.409
 2656SOL     OW 8647   0.575   2.129   9.626
 2656SOL    HW1 8648   0.607   2.083   9.549
 2656SOL    HW2 8649   0.543   2.213   9.592
 2657SOL     OW 8650   1.750   3.104  10.876
 2657SOL    HW1 8651   1.837   3.065  10.871
 2657SOL    HW2 8652   1.766   3.194  10.904
 2658SOL     OW 8653   1.055   3.214  10.641
 2658SOL    HW1 8654   0.980   3.183  10.692
 2658SOL    HW2 8655   1.131   3.173  10.684
 2659SOL     OW 8656   1.610   3.489  10.967
 2659SOL    HW1 8657   1.601   3.523  10.878
 2659SOL    HW2 8658   1.693   3.440  10.966
 2660SOL     OW 8659   1.134   3.069  10.413
 2660SOL    HW1 8660   1.074   3.107  10.478
 2660SOL    HW2 8661   1.102   3.104  10.329
 2661SOL     OW 8662   1.625   2.959  10.386
 2661SOL    HW1 8663   1.619   3.021  10.458
 2661SOL    HW2 8664   1.548   2.977  10.332
 2662SOL     OW 8665   0.918   1.957  10.703
 2662SOL    HW1 8666   0.941   1.938  10.612
 2662SOL    HW2 8667   0.997   1.996  10.740
 2663SOL     OW 8668   0.984   2.977  11.033
 2663SOL    HW1 8669   0.893   2.993  11.056
 2663SOL    HW2 8670   0.981   2.898  10.978
 2664SOL     OW 8671   0.708   2.923   9.681
 2664SOL    HW1 8672   0.694   2.905   9.774
 2664SOL    HW2 8673   0.784   2.870   9.657
 2665SOL     OW 8674   0.423   2.680  10.563
 2665SOL    HW1 8675   0.491   2.688  10.630
 2665SOL    HW2 8676   0.389   2.591  10.574
 2666SOL     OW 8677   1.264   2.236  10.590
 2666SOL    HW1 8678   1.296   2.314  10.635
 2666SOL    HW2 8679   1.173   2.258  10.567
 2667SOL     OW 8680   0.066   3.442  10.655
 2667SOL    HW1 8681   0.071   3.489  10.572
 2667SOL    HW2 8682   0.157   3.431  10.683
 2668SOL     OW 8683   0.367   2.964   9.791
 2668SOL    HW1 8684   0.364   3.045   9.741
 2668SOL    HW2 8685   0.367   2.895   9.726
 2669SOL     OW 8686   0.548   2.397  10.171
 2669SOL    HW1 8687   0.562   2.454  10.096
 2669SOL    HW2 8688   0.616   2.422  10.234
 2670SOL     OW 8689   1.247   3.211   9.700
 2670SOL    HW1 8690   1.303   3.282   9.731
 2670SOL    HW2 8691   1.160   3.233   9.733
 2671SOL     OW 8692   1.287   3.322  10.458
 2671SOL    HW1 8693   1.342   3.326  10.536
 2671SOL    HW2 8694   1.231   3.246  10.473
 2672SOL     OW 8695   1.575   2.489   9.783
 2672SOL    HW1 8696   1.529   2.533   9.855
 2672SOL    HW2 8697   1.624   2.559   9.740
 2673SOL     OW 8698   0.345   3.390  10.627
 2673SOL    HW1 8699   0.335   3.340  10.546
 2673SOL    HW2 8700   0.439   3.405  10.635
 2674SOL     OW 8701   0.418   2.600  10.911
 2674SOL    HW1 8702   0.481   2.645  10.855
 2674SOL    HW2 8703   0.457   2.514  10.928
 2675SOL     OW 8704   1.606   2.643  10.994
 2675SOL    HW1 8705   1.520   2.685  10.988
 2675SOL    HW2 8706   1.658   2.685  10.926
 2676SOL     OW 8707   0.996   1.993  11.063
 2676SOL    HW1 8708   1.055   2.065  11.041
 2676SOL    HW2 8709   1.044   1.914  11.038
 2677SOL     OW 8710   0.497   1.896  11.057
 2677SOL    HW1 8711   0.452   1.844  10.990
 2677SOL    HW2 8712   0.443   1.975  11.066
 2678SOL     OW 8713   0.586   2.736  10.342
 2678SOL    HW1 8714   0.619   2.826  10.343
 2678SOL    HW2 8715   0.530   2.731  10.420
 2679SOL     OW 8716   1.351   2.720  10.334
 2679SOL    HW1 8717   1.266   2.707  10.293
 2679SOL    HW2 8718   1.395   2.636  10.325
 2680SOL     OW 8719   1.202   2.390   9.574
 2680SOL    HW1 8720   1.209   2.312   9.629
 2680SOL    HW2 8721   1.159   2.454   9.629
 2681SOL     OW 8722   0.310   2.057  10.557
 2681SOL    HW1 8723   0.263   2.094  10.632
 2681SOL    HW2 8724   0.287   1.964  10.557
 2682SOL     OW 8725   0.061   3.167  10.590
 2682SOL    HW1 8726   0.092   3.126  10.671
 2682SOL    HW2 8727   0.053   3.260  10.613
 2683SOL     OW 8728   0.723   2.492  10.365
 2683SOL    HW1 8729   0.799   2.478  10.308
 2683SOL    HW2 8730   0.694   2.581  10.345
 2684SOL     OW 8731   1.738   2.821  11.166
 2684SOL    HW1 8732   1.694   2.755  11.113
 2684SOL    HW2 8733   1.677   2.838  11.238
 2685SOL     OW 8734   0.316   1.923   9.930
 2685SOL    HW1 8735   0.293   2.014   9.950
 2685SOL    HW2 8736   0.322   1.880  10.015
 2686SOL     OW 8737   1.613   2.243   9.680
 2686SOL    HW1 8738   1.610   2.186   9.757
 2686SOL    HW2 8739   1.591   2.330   9.714
 2687SOL     OW 8740   1.029   2.620  10.269
 2687SOL    HW1 8741   1.022   2.638  10.363
 2687SOL    HW2 8742   1.002   2.529  10.259
 2688SOL     OW 8743   0.986   3.430  11.032
 2688SOL    HW1 8744   0.966   3.471  10.947
 2688SOL    HW2 8745   1.028   3.347  11.009
 2689SOL     OW 8746   1.853   3.364  10.914
 2689SOL    HW1 8747   1.873   3.392  10.825
 2689SOL    HW2 8748   1.933   3.380  10.963
 2690SOL     OW 8749   0.354   2.784  11.109
 2690SOL    HW1 8750   0.432   2.805  11.160
 2690SOL    HW2 8751   0.383   2.717  11.048
 2691SOL     OW 8752   1.525   2.135   9.438
 2691SOL    HW1 8753   1.460   2.070   9.466
 2691SOL    HW2 8754   1.558   2.171   9.521
 2692SOL     OW 8755   1.288   2.688   9.339
 2692SOL    HW1 8756   1.331   2.602   9.343
 2692SOL    HW2 8757   1.320   2.727   9.258
 2693SOL     OW 8758   1.068   3.200  10.166
 2693SOL    HW1 8759   1.073   3.128  10.103
 2693SOL    HW2 8760   1.127   3.266  10.130
 2694SOL     OW 8761   0.313   2.663  10.260
 2694SOL    HW1 8762   0.407   2.680  10.254
 2694SOL    HW2 8763   0.308   2.573  10.291
 2695SOL     OW 8764   0.329   2.383  10.325
 2695SOL    HW1 8765   0.294   2.295  10.309
 2695SOL    HW2 8766   0.405   2.390  10.267
 2696SOL     OW 8767   1.134   2.235  10.995
 2696SOL    HW1 8768   1.087   2.290  11.057
 2696SOL    HW2 8769   1.222   2.274  10.991
 2697SOL     OW 8770   1.160   2.061  10.782
 2697SOL    HW1 8771   1.149   2.124  10.853
 2697SOL    HW2 8772   1.202   2.111  10.712
 2698SOL     OW 8773   0.000   3.178   9.492
 2698SOL    HW1 8774   3.906   3.194   9.496
 2698SOL    HW2 8775   0.009   3.085   9.510
 2699SOL     OW 8776   0.076   3.662  10.205
 2699SOL    HW1 8777   0.093   3.568  10.201
 2699SOL    HW2 8778   0.163   3.703  10.205
 2700SOL     OW 8779   0.506   3.424  10.228
 2700SOL    HW1 8780   0.572   3.491  10.247
 2700SOL    HW2 8781   0.549   3.366  10.164
 2701SOL     OW 8782   0.976   2.651  10.534
 2701SOL    HW1 8783   1.035   2.631  10.607
 2701SOL    HW2 8784   0.892   2.612  10.560
 2702SOL     OW 8785   0.038   2.422  10.419
 2702SOL    HW1 8786   0.120   2.399  10.377
 2702SOL    HW2 8787   0.057   2.418  10.513
 2703SOL     OW 8788   0.207   2.374  11.038
 2703SOL    HW1 8789   0.244   2.325  10.965
 2703SOL    HW2 8790   0.162   2.448  10.996
 2704SOL     OW 8791   1.379   2.797  10.967
 2704SOL    HW1 8792   1.401   2.891  10.964
 2704SOL    HW2 8793   1.375   2.770  10.875
 2705SOL     OW 8794   0.819   2.431   9.673
 2705SOL    HW1 8795   0.824   2.356   9.615
 2705SOL    HW2 8796   0.745   2.482   9.641
 2706SOL     OW 8797   1.643   2.464  10.490
 2706SOL    HW1 8798   1.632   2.408  10.567
 2706SOL    HW2 8799   1.730   2.441  10.456
 2707SOL     OW 8800   0.300   3.406  11.034
 2707SOL    HW1 8801   0.253   3.476  11.080
 2707SOL    HW2 8802   0.271   3.325  11.075
 2708SOL     OW 8803   0.710   2.310  10.565
 2708SOL    HW1 8804   0.656   2.236  10.537
 2708SOL    HW2 8805   0.703   2.374  10.494
 2709SOL     OW 8806   0.926   3.533  10.780
 2709SOL    HW1 8807   0.899   3.494  10.697
 2709SOL    HW2 8808   0.918   3.627  10.766
 2710SOL     OW 8809   0.452   2.350   9.506
 2710SOL    HW1 8810   0.518   2.418   9.524
 2710SOL    HW2 8811   0.373   2.399   9.484
 2711SOL     OW 8812   0.155   2.996  10.786
 2711SOL    HW1 8813   0.155   2.946  10.868
 2711SOL    HW2 8814   0.170   2.931  10.718
 2712SOL     OW 8815   1.323   2.906  10.530
 2712SOL    HW1 8816   1.344   2.843  10.462
 2712SOL    HW2 8817   1.255   2.962  10.491
 2713SOL     OW 8818   1.314   2.720   9.614
 2713SOL    HW1 8819   1.240   2.687   9.666
 2713SOL    HW2 8820   1.288   2.705   9.523
 2714SOL     OW 8821   1.774   3.600  10.462
 2714SOL    HW1 8822   1.836   3.628  10.395
 2714SOL    HW2 8823   1.751   3.510  10.438
 2715SOL     OW 8824   1.244   3.594  10.417
 2715SOL    HW1 8825   1.327   3.616  10.375
 2715SOL    HW2 8826   1.252   3.501  10.437
 2716SOL     OW 8827   0.077   3.075  10.338
 2716SOL    HW1 8828   0.084   3.103  10.429
 2716SOL    HW2 8829   3.984   3.088  10.316
 2717SOL     OW 8830   0.680   3.528  11.046
 2717SOL    HW1 8831   0.621   3.603  11.049
 2717SOL    HW2 8832   0.740   3.548  10.974
 2718SOL     OW 8833   1.391   3.431   9.798
 2718SOL    HW1 8834   1.450   3.465   9.731
 2718SOL    HW2 8835   1.342   3.507   9.829
 2719SOL     OW 8836   0.171   3.621  11.143
 2719SOL    HW1 8837   0.117   3.568  11.201
 2719SOL    HW2 8838   0.217   3.681  11.201
 2720SOL     OW 8839   1.278   2.789   9.981
 2720SOL    HW1 8840   1.352   2.729   9.990
 2720SOL    HW2 8841   1.312   2.861   9.928
 2721SOL     OW 8842   0.808   3.137  10.736
 2721SOL    HW1 8843   0.779   3.178  10.818
 2721SOL    HW2 8844   0.736   3.154  10.675
 2722SOL     OW 8845   0.674   3.480   9.469
 2722SOL    HW1 8846   0.683   3.498   9.375
 2722SOL    HW2 8847   0.615   3.405   9.473
 2723SOL     OW 8848   1.621   3.589  10.700
 2723SOL    HW1 8849   1.673   3.593  10.620
 2723SOL    HW2 8850   1.607   3.680  10.724
 2724SOL     OW 8851   0.265   2.174  10.025
 2724SOL    HW1 8852   0.178   2.206  10.000
 2724SOL    HW2 8853   0.260   2.165  10.121
 2725SOL     OW 8854   1.208   3.465   9.346
 2725SOL    HW1 8855   1.197   3.373   9.370
 2725SOL    HW2 8856   1.147   3.478   9.274
 2726SOL     OW 8857   0.823   2.868  10.684
 2726SOL    HW1 8858   0.867   2.862  10.600
 2726SOL    HW2 8859   0.821   2.962  10.704
 2727SOL     OW 8860   0.916   2.772   9.601
 2727SOL    HW1 8861   0.976   2.805   9.534
 2727SOL    HW2 8862   0.966   2.704   9.647
 2728SOL     OW 8863   1.489   3.492   9.353
 2728SOL    HW1 8864   1.395   3.481   9.337
 2728SOL    HW2 8865   1.528   3.497   9.266
 2729SOL     OW 8866   0.374   3.165  10.801
 2729SOL    HW1 8867   0.359   3.245  10.751
 2729SOL    HW2 8868   0.297   3.111  10.784
 2730SOL     OW 8869   1.609   3.146  10.590
 2730SOL    HW1 8870   1.669   3.131  10.663
 2730SOL    HW2 8871   1.548   3.213  10.621
 2731SOL     OW 8872   1.059   2.971  10.019
 2731SOL    HW1 8873   0.986   2.921  10.057
 2731SOL    HW2 8874   1.122   2.905   9.991
 2732SOL     OW 8875   1.024   2.103  10.277
 2732SOL    HW1 8876   1.020   2.057  10.193
 2732SOL    HW2 8877   1.018   2.034  10.343
 2733SOL     OW 8878   0.607   3.352   9.790
 2733SOL    HW1 8879   0.653   3.302   9.723
 2733SOL    HW2 8880   0.533   3.392   9.744
 2734SOL     OW 8881   1.730   2.249  10.682
 2734SOL    HW1 8882   1.800   2.313  10.692
 2734SOL    HW2 8883   1.765   2.182  10.625
 2735SOL     OW 8884   0.254   3.202   9.602
 2735SOL    HW1 8885   0.160   3.209   9.584
 2735SOL    HW2 8886   0.264   3.241   9.689
 2736SOL     OW 8887   0.108   2.859  11.027
 2736SOL    HW1 8888   0.048   2.853  11.102
 2736SOL    HW2 8889   0.195   2.842  11.065
 2737SOL     OW 8890   0.676   2.058  10.810
 2737SOL    HW1 8891   0.760   2.036  10.769
 2737SOL    HW2 8892   0.699   2.091  10.897
 2738SOL     OW 8893   0.081   2.174   9.347
 2738SOL    HW1 8894   3.985   2.174   9.355
 2738SOL    HW2 8895   0.101   2.255   9.301
 2739SOL     OW 8896   1.427   2.720  10.708
 2739SOL    HW1 8897   1.378   2.781  10.653
 2739SOL    HW2 8898   1.516   2.722  10.673
 2740SOL     OW 8899   0.016   2.102   9.688
 2740SOL    HW1 8900   0.045   2.165   9.622
 2740SOL    HW2 8901   0.097   2.060   9.718
 2741SOL     OW 8902   1.178   3.197   9.427
 2741SOL    HW1 8903   1.086   3.169   9.428
 2741SOL    HW2 8904   1.204   3.197   9.519
 2742SOL     OW 8905   0.620   2.692  10.747
 2742SOL    HW1 8906   0.676   2.768  10.732
 2742SOL    HW2 8907   0.681   2.619  10.754
 2743SOL     OW 8908   1.486   3.642  10.292
 2743SOL    HW1 8909   1.509   3.703  10.221
 2743SOL    HW2 8910   1.571   3.619  10.331
 2744SOL     OW 8911   0.716   2.423  11.013
 2744SOL    HW1 8912   0.762   2.484  11.071
 2744SOL    HW2 8913   0.739   2.336  11.046
 2745SOL     OW 8914   1.474   3.058  10.939
 2745SOL    HW1 8915   1.461   3.073  11.033
 2745SOL    HW2 8916   1.566   3.076  10.924
 2746SOL     OW 8917   0.378   3.609  10.870
 2746SOL    HW1 8918   0.290   3.645  10.857
 2746SOL    HW2 8919   0.364   3.525  10.914
 2747SOL     OW 8920   1.666   2.742  10.564
 2747SOL    HW1 8921   1.661   2.657  10.521
 2747SOL    HW2 8922   1.656   2.806  10.493
 2748SOL     OW 8923   1.216   2.182   9.768
 2748SOL    HW1 8924   1.278   2.109   9.761
 2748SOL    HW2 8925   1.245   2.231   9.845
 2749SOL     OW 8926   0.588   2.598   9.984
 2749SOL    HW1 8927   0.627   2.684   9.968
 2749SOL    HW2 8928   0.523   2.589   9.914
 2750SOL     OW 8929   1.754   2.244  10.959
 2750SOL    HW1 8930   1.740   2.245  10.864
 2750SOL    HW2 8931   1.694   2.176  10.991
 2751SOL     OW 8932   1.746   2.797  10.821
 2751SOL    HW1 8933   1.738   2.892  10.833
 2751SOL    HW2 8934   1.729   2.784  10.727
 2752SOL     OW 8935   0.866   3.228   9.352
 2752SOL    HW1 8936   0.824   3.257   9.433
 2752SOL    HW2 8937   0.879   3.309   9.302
 2753SOL     OW 8938   0.658   3.649  10.242
 2753SOL    HW1 8939   0.638   3.741  10.224
 2753SOL    HW2 8940   0.754   3.646  10.241
 2754SOL     OW 8941   0.869   2.831  10.163
 2754SOL    HW1 8942   0.919   2.759  10.201
 2754SOL    HW2 8943   0.832   2.877  10.238
 2755SOL     OW 8944   1.076   2.850   9.399
 2755SOL    HW1 8945   1.056   2.902   9.321
 2755SOL    HW2 8946   1.151   2.796   9.372
 2756SOL     OW 8947   1.849   3.412  10.151
 2756SOL    HW1 8948   1.768   3.402  10.100
 2756SOL    HW2 8949   1.839   3.350  10.224
 2757SOL     OW 8950   0.228   3.166  11.167
 2757SOL    HW1 8951   0.153   3.114  11.140
 2757SOL    HW2 8952   0.216   3.179  11.261
 2758SOL     OW 8953   0.118   3.143  10.034
 2758SOL    HW1 8954   0.137   3.091  10.112
 2758SOL    HW2 8955   0.104   3.077   9.965
 2759SOL     OW 8956   0.684   3.267  10.942
 2759SOL    HW1 8957   0.603   3.226  10.972
 2759SOL    HW2 8958   0.680   3.356  10.978
 2760SOL     OW 8959   0.440   2.295   9.844
 2760SOL    HW1 8960   0.441   2.226   9.779
 2760SOL    HW2 8961   0.385   2.262   9.915
 2761SOL     OW 8962   1.700   3.346  10.400
 2761SOL    HW1 8963   1.618   3.326  10.353
 2761SOL    HW2 8964   1.707   3.279  10.467
 2762SOL     OW 8965   0.336   2.421  10.602
 2762SOL    HW1 8966   0.389   2.363  10.657
 2762SOL    HW2 8967   0.350   2.389  10.513
 2763SOL     OW 8968   0.829   3.441   9.986
 2763SOL    HW1 8969   0.810   3.497   9.911
 2763SOL    HW2 8970   0.756   3.380   9.989
 2764SOL     OW 8971   1.436   2.093  10.430
 2764SOL    HW1 8972   1.444   2.004  10.465
 2764SOL    HW2 8973   1.382   2.139  10.493
 2765SOL     OW 8974   1.010   1.878  10.448
 2765SOL    HW1 8975   0.956   1.811  10.405
 2765SOL    HW2 8976   1.098   1.840  10.449
 2766SOL     OW 8977   0.773   3.194   9.631
 2766SOL    HW1 8978   0.744   3.103   9.637
 2766SOL    HW2 8979   0.856   3.197   9.679
 2767SOL     OW 8980   0.621   3.415  10.597
 2767SOL    HW1 8981   0.621   3.497  10.646
 2767SOL    HW2 8982   0.709   3.410  10.559
 2768SOL     OW 8983   1.352   1.914   9.478
 2768SOL    HW1 8984   1.384   1.849   9.415
 2768SOL    HW2 8985   1.263   1.884   9.500
 2769SOL     OW 8986   1.300   2.325   9.990
 2769SOL    HW1 8987   1.246   2.404   9.993
 2769SOL    HW2 8988   1.292   2.287  10.077
 2770SOL     OW 8989   1.566   2.049  10.183
 2770SOL    HW1 8990   1.532   2.079  10.268
 2770SOL    HW2 8991   1.586   2.130  10.136
 2771SOL     OW 8992   0.047   2.910   9.550
 2771SOL    HW1 8993   0.142   2.895   9.542
 2771SOL    HW2 8994   0.012   2.825   9.577
 2772SOL     OW 8995   0.887   3.523   9.652
 2772SOL    HW1 8996   0.815   3.503   9.591
 2772SOL    HW2 8997   0.856   3.597   9.703
 2773SOL     OW 8998   0.231   2.488  11.290
 2773SOL    HW1 8999   0.138   2.495  11.311
 2773SOL    HW2 9000   0.232   2.455  11.200
 2774SOL     OW 9001   0.229   2.134  12.159
 2774SOL    HW1 9002   0.250   2.100  12.245
 2774SOL    HW2 9003   0.134   2.127  12.152
 2775SOL     OW 9004   0.007   2.220  11.802
 2775SOL    HW1 9005   3.918   2.238  11.831
 2775SOL    HW2 9006   3.997   2.190  11.711
 2776SOL     OW 9007   0.581   3.153  12.365
 2776SOL    HW1 9008   0.495   3.156  12.323
 2776SOL    HW2 9009   0.595   3.242  12.397
 2777SOL     OW 9010   1.566   3.373  11.881
 2777SOL    HW1 9011   1.524   3.351  11.964
 2777SOL    HW2 9012   1.494   3.376  11.818
 2778SOL     OW 9013   1.133   2.560  11.869
 2778SOL    HW1 9014   1.181   2.642  11.856
 2778SOL    HW2 9015   1.085   2.572  11.951
 2779SOL     OW 9016   1.780   2.463  11.398
 2779SOL    HW1 9017   1.752   2.460  11.307
 2779SOL    HW2 9018   1.741   2.385  11.438
 2780SOL     OW 9019   0.750   2.999  12.215
 2780SOL    HW1 9020   0.688   3.036  12.278
 2780SOL    HW2 9021   0.787   3.076  12.171
 2781SOL     OW 9022   0.872   2.628  12.995
 2781SOL    HW1 9023   0.864   2.699  13.059
 2781SOL    HW2 9024   0.895   2.672  12.913
 2782SOL     OW 9025   0.685   2.862  11.817
 2782SOL    HW1 9026   0.751   2.852  11.886
 2782SOL    HW2 9027   0.616   2.915  11.858
 2783SOL     OW 9028   0.713   3.011  12.989
 2783SOL    HW1 9029   0.761   3.088  13.019
 2783SOL    HW2 9030   0.632   3.046  12.951
 2784SOL     OW 9031   0.350   3.263  12.250
 2784SOL    HW1 9032   0.269   3.246  12.203
 2784SOL    HW2 9033   0.400   3.320  12.192
 2785SOL     OW 9034   1.460   3.363  12.530
 2785SOL    HW1 9035   1.514   3.442  12.541
 2785SOL    HW2 9036   1.392   3.372  12.598
 2786SOL     OW 9037   0.450   2.259  12.657
 2786SOL    HW1 9038   0.525   2.200  12.662
 2786SOL    HW2 9039   0.374   2.202  12.672
 2787SOL     OW 9040   1.600   2.304  11.911
 2787SOL    HW1 9041   1.517   2.322  11.867
 2787SOL    HW2 9042   1.612   2.379  11.970
 2788SOL     OW 9043   0.222   3.572  11.638
 2788SOL    HW1 9044   0.221   3.656  11.683
 2788SOL    HW2 9045   0.299   3.576  11.581
 2789SOL     OW 9046   1.138   3.204  12.865
 2789SOL    HW1 9047   1.178   3.198  12.952
 2789SOL    HW2 9048   1.085   3.124  12.858
 2790SOL     OW 9049   0.252   3.306  11.712
 2790SOL    HW1 9050   0.223   3.396  11.698
 2790SOL    HW2 9051   0.183   3.267  11.765
 2791SOL     OW 9052   0.248   2.928  12.055
 2791SOL    HW1 9053   0.268   2.843  12.095
 2791SOL    HW2 9054   0.195   2.972  12.121
 2792SOL     OW 9055   0.609   3.648  12.598
 2792SOL    HW1 9056   0.527   3.634  12.645
 2792SOL    HW2 9057   0.636   3.737  12.623
 2793SOL     OW 9058   0.575   2.849  11.311
 2793SOL    HW1 9059   0.625   2.893  11.242
 2793SOL    HW2 9060   0.616   2.878  11.393
 2794SOL     OW 9061   1.588   1.994  12.634
 2794SOL    HW1 9062   1.591   2.080  12.591
 2794SOL    HW2 9063   1.578   2.014  12.727
 2795SOL     OW 9064   0.143   2.517  11.745
 2795SOL    HW1 9065   0.087   2.440  11.743
 2795SOL    HW2 9066   0.107   2.571  11.816
 2796SOL     OW 9067   1.843   3.606  11.509
 2796SOL    HW1 9068   1.913   3.583  11.571
 2796SOL    HW2 9069   1.862   3.697  11.486
 2797SOL     OW 9070   0.041   3.452  11.311
 2797SOL    HW1 9071   0.036   3.360  11.339
 2797SOL    HW2 9072   3.956   3.488  11.336
 2798SOL     OW 9073   1.689   2.781  11.816
 2798SOL    HW1 9074   1.771   2.737  11.792
 2798SOL    HW2 9075   1.666   2.832  11.738
 2799SOL     OW 9076   1.648   2.966  11.601
 2799SOL    HW1 9077   1.735   2.968  11.560
 2799SOL    HW2 9078   1.654   3.029  11.673
 2800SOL     OW 9079   0.142   2.614  12.762
 2800SOL    HW1 9080   0.237   2.610  12.757
 2800SOL    HW2 9081   0.123   2.702  12.796
 2801SOL     OW 9082   0.617   3.249  11.906
 2801SOL    HW1 9083   0.569   3.167  11.915
 2801SOL    HW2 9084   0.599   3.277  11.816
 2802SOL     OW 9085   1.286   3.098  12.593
 2802SOL    HW1 9086   1.318   3.030  12.534
 2802SOL    HW2 9087   1.345   3.093  12.669
 2803SOL     OW 9088   0.822   1.863  11.685
 2803SOL    HW1 9089   0.862   1.947  11.662
 2803SOL    HW2 9090   0.728   1.882  11.689
 2804SOL     OW 9091   0.184   2.811  12.453
 2804SOL    HW1 9092   0.272   2.776  12.440
 2804SOL    HW2 9093   0.133   2.775  12.380
 2805SOL     OW 9094   1.531   2.859  11.372
 2805SOL    HW1 9095   1.461   2.802  11.404
 2805SOL    HW2 9096   1.573   2.893  11.451
 2806SOL     OW 9097   1.220   3.667  12.800
 2806SOL    HW1 9098   1.195   3.728  12.731
 2806SOL    HW2 9099   1.221   3.581  12.757
 2807SOL     OW 9100   0.343   2.109  12.990
 2807SOL    HW1 9101   0.378   2.198  12.998
 2807SOL    HW2 9102   0.251   2.117  13.015
 2808SOL     OW 9103   1.466   3.281  12.121
 2808SOL    HW1 9104   1.400   3.297  12.187
 2808SOL    HW2 9105   1.453   3.190  12.095
 2809SOL     OW 9106   1.653   3.603  11.753
 2809SOL    HW1 9107   1.639   3.572  11.664
 2809SOL    HW2 9108   1.631   3.529  11.809
 2810SOL     OW 9109   0.596   2.577  11.439
 2810SOL    HW1 9110   0.601   2.661  11.395
 2810SOL    HW2 9111   0.533   2.590  11.510
 2811SOL     OW 9112   1.279   2.225  12.107
 2811SOL    HW1 9113   1.191   2.189  12.117
 2811SOL    HW2 9114   1.334   2.169  12.161
 2812SOL     OW 9115   1.576   3.538  11.481
 2812SOL    HW1 9116   1.669   3.560  11.475
 2812SOL    HW2 9117   1.550   3.519  11.391
 2813SOL     OW 9118   0.790   2.480  12.622
 2813SOL    HW1 9119   0.764   2.454  12.710
 2813SOL    HW2 9120   0.755   2.412  12.565
 2814SOL     OW 9121   1.393   2.334  12.849
 2814SOL    HW1 9122   1.397   2.380  12.933
 2814SOL    HW2 9123   1.456   2.262  12.859
 2815SOL     OW 9124   0.951   2.747  12.757
 2815SOL    HW1 9125   1.006   2.679  12.719
 2815SOL    HW2 9126   0.903   2.783  12.682
 2816SOL     OW 9127   0.993   2.273  12.407
 2816SOL    HW1 9128   0.905   2.291  12.439
 2816SOL    HW2 9129   0.980   2.229  12.323
 2817SOL     OW 9130   1.053   2.560  11.597
 2817SOL    HW1 9131   1.071   2.553  11.691
 2817SOL    HW2 9132   0.971   2.514  11.584
 2818SOL     OW 9133   0.082   2.693  11.962
 2818SOL    HW1 9134   0.155   2.661  12.015
 2818SOL    HW2 9135   0.103   2.785  11.945
 2819SOL     OW 9136   0.127   3.719  12.753
 2819SOL    HW1 9137   0.135   3.688  12.843
 2819SOL    HW2 9138   0.035   3.706  12.730
 2820SOL     OW 9139   0.898   2.212  11.366
 2820SOL    HW1 9140   0.937   2.276  11.306
 2820SOL    HW2 9141   0.913   2.127  11.324
 2821SOL     OW 9142   1.700   2.436  13.005
 2821SOL    HW1 9143   1.666   2.508  12.951
 2821SOL    HW2 9144   1.732   2.372  12.942
 2822SOL     OW 9145   1.380   3.004  11.712
 2822SOL    HW1 9146   1.459   2.992  11.659
 2822SOL    HW2 9147   1.326   3.066  11.662
 2823SOL     OW 9148   0.546   2.039  12.067
 2823SOL    HW1 9149   0.553   2.072  12.157
 2823SOL    HW2 9150   0.545   2.118  12.013
 2824SOL     OW 9151   1.002   3.307  11.641
 2824SOL    HW1 9152   0.967   3.381  11.592
 2824SOL    HW2 9153   0.980   3.326  11.733
 2825SOL     OW 9154   0.359   3.672  12.036
 2825SOL    HW1 9155   0.439   3.621  12.049
 2825SOL    HW2 9156   0.387   3.763  12.044
 2826SOL     OW 9157   1.800   2.914  12.042
 2826SOL    HW1 9158   1.747   2.895  11.965
 2826SOL    HW2 9159   1.737   2.921  12.114
 2827SOL     OW 9160   1.227   3.399  12.683
 2827SOL    HW1 9161   1.215   3.327  12.745
 2827SOL    HW2 9162   1.158   3.387  12.618
 2828SOL     OW 9163   0.311   2.815  11.415
 2828SOL    HW1 9164   0.394   2.837  11.372
 2828SOL    HW2 9165   0.298   2.722  11.394
 2829SOL     OW 9166   1.481   2.608  11.895
 2829SOL    HW1 9167   1.476   2.569  11.981
 2829SOL    HW2 9168   1.559   2.664  11.898
 2830SOL     OW 9169   0.469   3.122  12.909
 2830SOL    HW1 9170   0.444   3.131  12.817
 2830SOL    HW2 9171   0.387   3.126  12.957
 2831SOL     OW 9172   1.113   3.643  11.393
 2831SOL    HW1 9173   1.048   3.598  11.446
 2831SOL    HW2 9174   1.144   3.577  11.331
 2832SOL     OW 9175   0.204   2.132  12.680
 2832SOL    HW1 9176   0.114   2.166  12.675
 2832SOL    HW2 9177   0.195   2.044  12.717
 2833SOL     OW 9178   1.627   3.244  11.263
 2833SOL    HW1 9179   1.587   3.329  11.246
 2833SOL    HW2 9180   1.559   3.180  11.242
 2834SOL     OW 9181   0.467   3.603  11.493
 2834SOL    HW1 9182   0.506   3.664  11.555
 2834SOL    HW2 9183   0.540   3.573  11.439
 2835SOL     OW 9184   1.399   1.967  11.606
 2835SOL    HW1 9185   1.383   1.946  11.514
 2835SOL    HW2 9186   1.489   1.938  11.622
 2836SOL     OW 9187   0.255   3.657  12.397
 2836SOL    HW1 9188   0.297   3.588  12.449
 2836SOL    HW2 9189   0.253   3.621  12.308
 2837SOL     OW 9190   0.938   3.564  12.071
 2837SOL    HW1 9191   1.015   3.512  12.094
 2837SOL    HW2 9192   0.895   3.514  12.001
 2838SOL     OW 9193   0.400   2.554  11.643
 2838SOL    HW1 9194   0.424   2.463  11.658
 2838SOL    HW2 9195   0.308   2.560  11.669
 2839SOL     OW 9196   1.535   2.086  12.898
 2839SOL    HW1 9197   1.549   2.107  12.990
 2839SOL    HW2 9198   1.464   2.022  12.898
 2840SOL     OW 9199   0.646   1.979  11.267
 2840SOL    HW1 9200   0.704   1.906  11.289
 2840SOL    HW2 9201   0.595   1.948  11.193
 2841SOL     OW 9202   0.765   2.141  12.927
 2841SOL    HW1 9203   0.845   2.088  12.924
 2841SOL    HW2 9204   0.719   2.111  13.006
 2842SOL     OW 9205   0.876   3.383  12.366
 2842SOL    HW1 9206   0.859   3.346  12.280
 2842SOL    HW2 9207   0.945   3.328  12.403
 2843SOL     OW 9208   1.340   2.451  12.604
 2843SOL    HW1 9209   1.370   2.420  12.690
 2843SOL    HW2 9210   1.376   2.539  12.597
 2844SOL     OW 9211   0.818   3.252  12.115
 2844SOL    HW1 9212   0.903   3.241  12.073
 2844SOL    HW2 9213   0.755   3.256  12.043
 2845SOL     OW 9214   0.929   2.371  12.073
 2845SOL    HW1 9215   0.905   2.363  11.981
 2845SOL    HW2 9216   0.959   2.284  12.098
 2846SOL     OW 9217   0.558   1.924  11.666
 2846SOL    HW1 9218   0.476   1.929  11.715
 2846SOL    HW2 9219   0.561   2.006  11.616
 2847SOL     OW 9220   1.428   3.062  11.211
 2847SOL    HW1 9221   1.458   2.986  11.262
 2847SOL    HW2 9222   1.342   3.083  11.249
 2848SOL     OW 9223   0.309   1.913  11.341
 2848SOL    HW1 9224   0.371   1.951  11.280
 2848SOL    HW2 9225   0.360   1.848  11.390
 2849SOL     OW 9226   0.941   2.110  11.629
 2849SOL    HW1 9227   0.913   2.149  11.547
 2849SOL    HW2 9228   1.035   2.127  11.633
 2850SOL     OW 9229   1.080   2.545  12.629
 2850SOL    HW1 9230   1.014   2.476  12.634
 2850SOL    HW2 9231   1.164   2.498  12.624
 2851SOL     OW 9232   1.221   3.433  11.966
 2851SOL    HW1 9233   1.235   3.500  11.899
 2851SOL    HW2 9234   1.290   3.448  12.030
 2852SOL     OW 9235   0.467   3.013  11.905
 2852SOL    HW1 9236   0.396   2.989  11.965
 2852SOL    HW2 9237   0.431   2.998  11.818
 2853SOL     OW 9238   1.265   3.655  11.781
 2853SOL    HW1 9239   1.313   3.720  11.729
 2853SOL    HW2 9240   1.192   3.704  11.818
 2854SOL     OW 9241   1.023   2.399  11.197
 2854SOL    HW1 9242   0.980   2.482  11.178
 2854SOL    HW2 9243   1.089   2.421  11.263
 2855SOL     OW 9244   0.083   2.435  12.561
 2855SOL    HW1 9245   0.173   2.422  12.531
 2855SOL    HW2 9246   0.090   2.505  12.627
 2856SOL     OW 9247   0.567   2.089  12.339
 2856SOL    HW1 9248   0.608   2.015  12.383
 2856SOL    HW2 9249   0.475   2.085  12.367
 2857SOL     OW 9250   0.867   2.320  11.811
 2857SOL    HW1 9251   0.820   2.374  11.748
 2857SOL    HW2 9252   0.888   2.240  11.763
 2858SOL     OW 9253   1.017   1.916  11.921
 2858SOL    HW1 9254   0.959   1.911  11.845
 2858SOL    HW2 9255   0.993   1.841  11.975
 2859SOL     OW 9256   1.439   3.023  12.029
 2859SOL    HW1 9257   1.368   2.958  12.029
 2859SOL    HW2 9258   1.462   3.032  11.936
 2860SOL     OW 9259   1.465   2.470  12.142
 2860SOL    HW1 9260   1.409   2.392  12.146
 2860SOL    HW2 9261   1.523   2.462  12.218
 2861SOL     OW 9262   1.841   2.675  11.557
 2861SOL    HW1 9263   1.902   2.628  11.614
 2861SOL    HW2 9264   1.817   2.612  11.489
 2862SOL     OW 9265   0.488   3.282  11.330
 2862SOL    HW1 9266   0.412   3.253  11.380
 2862SOL    HW2 9267   0.472   3.251  11.241
 2863SOL     OW 9268   1.675   3.126  11.815
 2863SOL    HW1 9269   1.769   3.126  11.829
 2863SOL    HW2 9270   1.646   3.214  11.837
 2864SOL     OW 9271   1.393   2.436  11.241
 2864SOL    HW1 9272   1.334   2.414  11.313
 2864SOL    HW2 9273   1.479   2.406  11.271
 2865SOL     OW 9274   0.575   2.130  11.488
 2865SOL    HW1 9275   0.607   2.083  11.411
 2865SOL    HW2 9276   0.543   2.213  11.454
 2866SOL     OW 9277   1.750   3.104  12.738
 2866SOL    HW1 9278   1.837   3.065  12.733
 2866SOL    HW2 9279   1.766   3.194  12.766
 2867SOL     OW 9280   1.055   3.214  12.503
 2867SOL    HW1 9281   0.980   3.183  12.554
 2867SOL    HW2 9282   1.131   3.173  12.546
 2868SOL     OW 9283   1.610   3.489  12.829
 2868SOL    HW1 9284   1.601   3.523  12.740
 2868SOL    HW2 9285   1.692   3.440  12.828
 2869SOL     OW 9286   1.133   3.069  12.275
 2869SOL    HW1 9287   1.074   3.107  12.340
 2869SOL    HW2 9288   1.102   3.104  12.191
 2870SOL     OW 9289   1.625   2.959  12.248
 2870SOL    HW1 9290   1.619   3.021  12.320
 2870SOL    HW2 9291   1.548   2.977  12.194
 2871SOL     OW 9292   0.918   1.956  12.565
 2871SOL    HW1 9293   0.941   1.938  12.474
 2871SOL    HW2 9294   0.997   1.996  12.602
 2872SOL     OW 9295   0.984   2.977  12.894
 2872SOL    HW1 9296   0.893   2.994  12.918
 2872SOL    HW2 9297   0.981   2.898  12.840
 2873SOL     OW 9298   0.708   2.923  11.543
 2873SOL    HW1 9299   0.694   2.905  11.636
 2873SOL    HW2 9300   0.784   2.870  11.519
 2874SOL     OW 9301   0.423   2.680  12.425
 2874SOL    HW1 9302   0.491   2.688  12.492
 2874SOL    HW2 9303   0.389   2.591  12.436
 2875SOL     OW 9304   1.264   2.236  12.452
 2875SOL    HW1 9305   1.296   2.314  12.497
 2875SOL    HW2 9306   1.173   2.258  12.429
 2876SOL     OW 9307   0.065   3.442  12.517
 2876SOL    HW1 9308   0.071   3.488  12.433
 2876SOL    HW2 9309   0.156   3.432  12.545
 2877SOL     OW 9310   0.367   2.964  11.653
 2877SOL    HW1 9311   0.364   3.046  11.603
 2877SOL    HW2 9312   0.367   2.895  11.588
 2878SOL     OW 9313   0.548   2.397  12.033
 2878SOL    HW1 9314   0.562   2.454  11.958
 2878SOL    HW2 9315   0.616   2.422  12.096
 2879SOL     OW 9316   1.247   3.211  11.562
 2879SOL    HW1 9317   1.303   3.282  11.593
 2879SOL    HW2 9318   1.160   3.233  11.595
 2880SOL     OW 9319   1.287   3.322  12.320
 2880SOL    HW1 9320   1.342   3.326  12.398
 2880SOL    HW2 9321   1.231   3.246  12.335
 2881SOL     OW 9322   1.575   2.489  11.645
 2881SOL    HW1 9323   1.529   2.533  11.717
 2881SOL    HW2 9324   1.624   2.559  11.602
 2882SOL     OW 9325   0.345   3.391  12.489
 2882SOL    HW1 9326   0.335   3.340  12.408
 2882SOL    HW2 9327   0.439   3.405  12.497
 2883SOL     OW 9328   0.418   2.600  12.774
 2883SOL    HW1 9329   0.481   2.645  12.717
 2883SOL    HW2 9330   0.457   2.514  12.791
 2884SOL     OW 9331   1.606   2.643  12.856
 2884SOL    HW1 9332   1.520   2.685  12.850
 2884SOL    HW2 9333   1.658   2.685  12.788
 2885SOL     OW 9334   0.996   1.993  12.925
 2885SOL    HW1 9335   1.055   2.065  12.903
 2885SOL    HW2 9336   1.044   1.914  12.900
 2886SOL     OW 9337   0.497   1.896  12.919
 2886SOL    HW1 9338   0.452   1.844  12.852
 2886SOL    HW2 9339   0.443   1.975  12.928
 2887SOL     OW 9340   0.586   2.736  12.204
 2887SOL    HW1 9341   0.619   2.826  12.205
 2887SOL    HW2 9342   0.530   2.731  12.282
 2888SOL     OW 9343   1.351   2.720  12.195
 2888SOL    HW1 9344   1.265   2.707  12.155
 2888SOL    HW2 9345   1.395   2.636  12.187
 2889SOL     OW 9346   1.202   2.390  11.435
 2889SOL    HW1 9347   1.209   2.312  11.490
 2889SOL    HW2 9348   1.159   2.454  11.491
 2890SOL     OW 9349   0.310   2.057  12.419
 2890SOL    HW1 9350   0.263   2.094  12.494
 2890SOL    HW2 9351   0.287   1.964  12.419
 2891SOL     OW 9352   0.062   3.167  12.452
 2891SOL    HW1 9353   0.092   3.125  12.533
 2891SOL    HW2 9354   0.053   3.260  12.475
 2892SOL     OW 9355   0.722   2.492  12.227
 2892SOL    HW1 9356   0.799   2.478  12.170
 2892SOL    HW2 9357   0.694   2.581  12.207
 2893SOL     OW 9358   1.737   2.821  13.028
 2893SOL    HW1 9359   1.694   2.754  12.975
 2893SOL    HW2 9360   1.677   2.837  13.101
 2894SOL     OW 9361   0.316   1.923  11.792
 2894SOL    HW1 9362   0.293   2.014  11.812
 2894SOL    HW2 9363   0.322   1.880  11.877
 2895SOL     OW 9364   1.613   2.243  11.542
 2895SOL    HW1 9365   1.610   2.186  11.619
 2895SOL    HW2 9366   1.591   2.330  11.576
 2896SOL     OW 9367   1.029   2.620  12.131
 2896SOL    HW1 9368   1.022   2.638  12.225
 2896SOL    HW2 9369   1.003   2.529  12.121
 2897SOL     OW 9370   0.986   3.430  12.894
 2897SOL    HW1 9371   0.966   3.471  12.809
 2897SOL    HW2 9372   1.028   3.347  12.871
 2898SOL     OW 9373   1.853   3.364  12.776
 2898SOL    HW1 9374   1.873   3.392  12.687
 2898SOL    HW2 9375   1.933   3.380  12.825
 2899SOL     OW 9376   0.354   2.784  12.972
 2899SOL    HW1 9377   0.432   2.805  13.023
 2899SOL    HW2 9378   0.383   2.716  12.910
 2900SOL     OW 9379   1.525   2.135  11.301
 2900SOL    HW1 9380   1.460   2.070  11.328
 2900SOL    HW2 9381   1.558   2.171  11.383
 2901SOL     OW 9382   1.288   2.688  11.201
 2901SOL    HW1 9383   1.331   2.602  11.205
 2901SOL    HW2 9384   1.320   2.726  11.120
 2902SOL     OW 9385   1.068   3.200  12.028
 2902SOL    HW1 9386   1.073   3.127  11.965
 2902SOL    HW2 9387   1.127   3.266  11.992
 2903SOL     OW 9388   0.313   2.663  12.122
 2903SOL    HW1 9389   0.407   2.680  12.116
 2903SOL    HW2 9390   0.308   2.573  12.153
 2904SOL     OW 9391   0.329   2.383  12.187
 2904SOL    HW1 9392   0.294   2.295  12.171
 2904SOL    HW2 9393   0.405   2.390  12.129
 2905SOL     OW 9394   1.134   2.235  12.857
 2905SOL    HW1 9395   1.087   2.290  12.919
 2905SOL    HW2 9396   1.222   2.273  12.853
 2906SOL     OW 9397   1.160   2.061  12.644
 2906SOL    HW1 9398   1.149   2.124  12.715
 2906SOL    HW2 9399   1.202   2.111  12.574
 2907SOL     OW 9400   0.000   3.178  11.354
 2907SOL    HW1 9401   3.906   3.194  11.358
 2907SOL    HW2 9402   0.009   3.085  11.372
 2908SOL     OW 9403   0.076   3.662  12.067
 2908SOL    HW1 9404   0.093   3.568  12.063
 2908SOL    HW2 9405   0.163   3.703  12.067
 2909SOL     OW 9406   0.506   3.424  12.090
 2909SOL    HW1 9407   0.572   3.491  12.109
 2909SOL    HW2 9408   0.549   3.366  12.026
 2910SOL     OW 9409   0.976   2.651  12.396
 2910SOL    HW1 9410   1.035   2.631  12.469
 2910SOL    HW2 9411   0.892   2.612  12.422
 2911SOL     OW 9412   0.038   2.422  12.281
 2911SOL    HW1 9413   0.120   2.399  12.239
 2911SOL    HW2 9414   0.057   2.418  12.375
 2912SOL     OW 9415   0.206   2.374  12.900
 2912SOL    HW1 9416   0.245   2.325  12.827
 2912SOL    HW2 9417   0.162   2.448  12.858
 2913SOL     OW 9418   1.379   2.798  12.829
 2913SOL    HW1 9419   1.401   2.891  12.826
 2913SOL    HW2 9420   1.376   2.771  12.737
 2914SOL     OW 9421   0.819   2.431  11.535
 2914SOL    HW1 9422   0.824   2.356  11.477
 2914SOL    HW2 9423   0.745   2.482  11.503
 2915SOL     OW 9424   1.643   2.464  12.351
 2915SOL    HW1 9425   1.632   2.408  12.429
 2915SOL    HW2 9426   1.730   2.440  12.317
 2916SOL     OW 9427   0.300   3.407  12.896
 2916SOL    HW1 9428   0.252   3.476  12.942
 2916SOL    HW2 9429   0.271   3.326  12.937
 2917SOL     OW 9430   0.710   2.310  12.427
 2917SOL    HW1 9431   0.656   2.236  12.399
 2917SOL    HW2 9432   0.703   2.374  12.356
 2918SOL     OW 9433   0.926   3.533  12.642
 2918SOL    HW1 9434   0.899   3.494  12.559
 2918SOL    HW2 9435   0.918   3.627  12.628
 2919SOL     OW 9436   0.453   2.350  11.368
 2919SOL    HW1 9437   0.518   2.418  11.386
 2919SOL    HW2 9438   0.373   2.399  11.346
 2920SOL     OW 9439   0.155   2.996  12.648
 2920SOL    HW1 9440   0.155   2.946  12.730
 2920SOL    HW2 9441   0.170   2.931  12.580
 2921SOL     OW 9442   1.323   2.906  12.392
 2921SOL    HW1 9443   1.344   2.843  12.324
 2921SOL    HW2 9444   1.255   2.962  12.353
 2922SOL     OW 9445   1.314   2.720  11.476
 2922SOL    HW1 9446   1.240   2.687  11.528
 2922SOL    HW2 9447   1.288   2.705  11.385
 2923SOL     OW 9448   1.774   3.600  12.324
 2923SOL    HW1 9449   1.836   3.628  12.257
 2923SOL    HW2 9450   1.751   3.510  12.300
 2924SOL     OW 9451   1.244   3.594  12.278
 2924SOL    HW1 9452   1.327   3.616  12.237
 2924SOL    HW2 9453   1.252   3.501  12.299
 2925SOL     OW 9454   0.077   3.075  12.200
 2925SOL    HW1 9455   0.084   3.103  12.291
 2925SOL    HW2 9456   3.984   3.088  12.178
 2926SOL     OW 9457   0.680   3.528  12.908
 2926SOL    HW1 9458   0.621   3.603  12.911
 2926SOL    HW2 9459   0.741   3.548  12.837
 2927SOL     OW 9460   1.391   3.431  11.660
 2927SOL    HW1 9461   1.450   3.465  11.593
 2927SOL    HW2 9462   1.342   3.507  11.691
 2928SOL     OW 9463   0.170   3.622  13.006
 2928SOL    HW1 9464   0.116   3.568  13.063
 2928SOL    HW2 9465   0.217   3.681  13.065
 2929SOL     OW 9466   1.278   2.789  11.843
 2929SOL    HW1 9467   1.352   2.729  11.852
 2929SOL    HW2 9468   1.312   2.861  11.790
 2930SOL     OW 9469   0.808   3.137  12.598
 2930SOL    HW1 9470   0.779   3.178  12.680
 2930SOL    HW2 9471   0.736   3.154  12.537
 2931SOL     OW 9472   0.674   3.480  11.331
 2931SOL    HW1 9473   0.683   3.498  11.237
 2931SOL    HW2 9474   0.615   3.405  11.335
 2932SOL     OW 9475   1.621   3.589  12.562
 2932SOL    HW1 9476   1.673   3.593  12.482
 2932SOL    HW2 9477   1.607   3.680  12.586
 2933SOL     OW 9478   0.265   2.174  11.887
 2933SOL    HW1 9479   0.178   2.206  11.862
 2933SOL    HW2 9480   0.260   2.165  11.983
 2934SOL     OW 9481   1.208   3.465  11.208
 2934SOL    HW1 9482   1.197   3.373  11.232
 2934SOL    HW2 9483   1.147   3.478  11.136
 2935SOL     OW 9484   0.823   2.868  12.546
 2935SOL    HW1 9485   0.868   2.862  12.462
 2935SOL    HW2 9486   0.821   2.961  12.566
 2936SOL     OW 9487   0.916   2.772  11.463
 2936SOL    HW1 9488   0.976   2.805  11.396
 2936SOL    HW2 9489   0.966   2.704  11.509
 2937SOL     OW 9490   1.489   3.492  11.215
 2937SOL    HW1 9491   1.395   3.481  11.199
 2937SOL    HW2 9492   1.528   3.497  11.128
 2938SOL     OW 9493   0.374   3.165  12.663
 2938SOL    HW1 9494   0.359   3.245  12.613
 2938SOL    HW2 9495   0.297   3.111  12.646
 2939SOL     OW 9496   1.609   3.146  12.452
 2939SOL    HW1 9497   1.668   3.131  12.525
 2939SOL    HW2 9498   1.548   3.213  12.483
 2940SOL     OW 9499   1.059   2.971  11.881
 2940SOL    HW1 9500   0.986   2.921  11.919
 2940SOL    HW2 9501   1.122   2.905  11.853
 2941SOL     OW 9502   1.024   2.103  12.139
 2941SOL    HW1 9503   1.020   2.057  12.055
 2941SOL    HW2 9504   1.018   2.034  12.205
 2942SOL     OW 9505   0.607   3.352  11.652
 2942SOL    HW1 9506   0.653   3.302  11.585
 2942SOL    HW2 9507   0.533   3.392  11.606
 2943SOL     OW 9508   1.730   2.248  12.544
 2943SOL    HW1 9509   1.801   2.312  12.553
 2943SOL    HW2 9510   1.767   2.181  12.486
 2944SOL     OW 9511   0.254   3.202  11.464
 2944SOL    HW1 9512   0.160   3.209  11.446
 2944SOL    HW2 9513   0.264   3.241  11.551
 2945SOL     OW 9514   0.108   2.859  12.889
 2945SOL    HW1 9515   0.048   2.854  12.964
 2945SOL    HW2 9516   0.195   2.841  12.927
 2946SOL     OW 9517   0.676   2.058  12.672
 2946SOL    HW1 9518   0.760   2.036  12.631
 2946SOL    HW2 9519   0.699   2.091  12.759
 2947SOL     OW 9520   0.081   2.174  11.209
 2947SOL    HW1 9521   3.985   2.174  11.217
 2947SOL    HW2 9522   0.101   2.255  11.163
 2948SOL     OW 9523   1.427   2.720  12.570
 2948SOL    HW1 9524   1.378   2.781  12.515
 2948SOL    HW2 9525   1.516   2.722  12.535
 2949SOL     OW 9526   0.016   2.102  11.550
 2949SOL    HW1 9527   0.045   2.165  11.484
 2949SOL    HW2 9528   0.097   2.060  11.580
 2950SOL     OW 9529   1.178   3.197  11.289
 2950SOL    HW1 9530   1.086   3.169  11.290
 2950SOL    HW2 9531   1.204   3.197  11.381
 2951SOL     OW 9532   0.620   2.692  12.609
 2951SOL    HW1 9533   0.676   2.768  12.594
 2951SOL    HW2 9534   0.680   2.619  12.616
 2952SOL     OW 9535   1.486   3.642  12.154
 2952SOL    HW1 9536   1.509   3.703  12.083
 2952SOL    HW2 9537   1.571   3.619  12.193
 2953SOL     OW 9538   0.716   2.423  12.875
 2953SOL    HW1 9539   0.761   2.484  12.933
 2953SOL    HW2 9540   0.739   2.336  12.908
 2954SOL     OW 9541   1.473   3.058  12.802
 2954SOL    HW1 9542   1.461   3.072  12.896
 2954SOL    HW2 9543   1.566   3.076  12.787
 2955SOL     OW 9544   0.377   3.609  12.732
 2955SOL    HW1 9545   0.290   3.645  12.719
 2955SOL    HW2 9546   0.363   3.525  12.776
 2956SOL     OW 9547   1.667   2.742  12.426
 2956SOL    HW1 9548   1.661   2.657  12.383
 2956SOL    HW2 9549   1.656   2.806  12.355
 2957SOL     OW 9550   1.216   2.182  11.630
 2957SOL    HW1 9551   1.278   2.109  11.623
 2957SOL    HW2 9552   1.245   2.231  11.706
 2958SOL     OW 9553   0.588   2.598  11.845
 2958SOL    HW1 9554   0.627   2.684  11.830
 2958SOL    HW2 9555   0.523   2.589  11.776
 2959SOL     OW 9556   1.755   2.243  12.820
 2959SOL    HW1 9557   1.740   2.244  12.726
 2959SOL    HW2 9558   1.695   2.176  12.853
 2960SOL     OW 9559   1.746   2.797  12.683
 2960SOL    HW1 9560   1.737   2.892  12.695
 2960SOL    HW2 9561   1.729   2.784  12.589
 2961SOL     OW 9562   0.865   3.228  11.213
 2961SOL    HW1 9563   0.824   3.256  11.295
 2961SOL    HW2 9564   0.879   3.309  11.164
 2962SOL     OW 9565   0.658   3.649  12.104
 2962SOL    HW1 9566   0.638   3.741  12.086
 2962SOL    HW2 9567   0.754   3.646  12.103
 2963SOL     OW 9568   0.869   2.831  12.025
 2963SOL    HW1 9569   0.919   2.759  12.063
 2963SOL    HW2 9570   0.832   2.877  12.100
 2964SOL     OW 9571   1.076   2.850  11.261
 2964SOL    HW1 9572   1.056   2.902  11.183
 2964SOL    HW2 9573   1.151   2.796  11.234
 2965SOL     OW 9574   1.849   3.411  12.013
 2965SOL    HW1 9575   1.768   3.402  11.962
 2965SOL    HW2 9576   1.840   3.350  12.086
 2966SOL     OW 9577   0.228   3.166  13.029
 2966SOL    HW1 9578   0.152   3.115  13.002
 2966SOL    HW2 9579   0.217   3.179  13.123
 2967SOL     OW 9580   0.118   3.143  11.895
 2967SOL    HW1 9581   0.137   3.092  11.974
 2967SOL    HW2 9582   0.104   3.077  11.827
 2968SOL     OW 9583   0.683   3.267  12.803
 2968SOL    HW1 9584   0.603   3.226  12.834
 2968SOL    HW2 9585   0.680   3.356  12.840
 2969SOL     OW 9586   0.440   2.295  11.706
 2969SOL    HW1 9587   0.440   2.226  11.641
 2969SOL    HW2 9588   0.385   2.262  11.777
 2970SOL     OW 9589   1.700   3.346  12.262
 2970SOL    HW1 9590   1.618   3.326  12.216
 2970SOL    HW2 9591   1.707   3.279  12.329
 2971SOL     OW 9592   0.336   2.421  12.464
 2971SOL    HW1 9593   0.389   2.363  12.519
 2971SOL    HW2 9594   0.350   2.389  12.375
 2972SOL     OW 9595   0.829   3.441  11.848
 2972SOL    HW1 9596   0.810   3.497  11.773
 2972SOL    HW2 9597   0.756   3.380  11.852
 2973SOL     OW 9598   1.436   2.093  12.292
 2973SOL    HW1 9599   1.444   2.004  12.327
 2973SOL    HW2 9600   1.382   2.139  12.356
 2974SOL     OW 9601   1.010   1.878  12.309
 2974SOL    HW1 9602   0.956   1.811  12.267
 2974SOL    HW2 9603   1.098   1.840  12.311
 2975SOL     OW 9604   0.773   3.194  11.493
 2975SOL    HW1 9605   0.744   3.103  11.499
 2975SOL    HW2 9606   0.856   3.197  11.541
 2976SOL     OW 9607   0.621   3.415  12.458
 2976SOL    HW1 9608   0.621   3.497  12.508
 2976SOL    HW2 9609   0.709   3.410  12.421
 2977SOL     OW 9610   1.352   1.914  11.340
 2977SOL    HW1 9611   1.384   1.849  11.278
 2977SOL    HW2 9612   1.263   1.884  11.362
 2978SOL     OW 9613   1.300   2.325  11.852
 2978SOL    HW1 9614   1.246   2.404  11.855
 2978SOL    HW2 9615   1.292   2.287  11.939
 2979SOL     OW 9616   1.566   2.050  12.046
 2979SOL    HW1 9617   1.532   2.079  12.130
 2979SOL    HW2 9618   1.586   2.130  11.998
 2980SOL     OW 9619   0.047   2.910  11.412
 2980SOL    HW1 9620   0.142   2.895  11.405
 2980SOL    HW2 9621   0.012   2.825  11.439
 2981SOL     OW 9622   0.887   3.523  11.514
 2981SOL    HW1 9623   0.815   3.503  11.453
 2981SOL    HW2 9624   0.856   3.597  11.565
 2982SOL     OW 9625   0.229   2.489  13.152
 2982SOL    HW1 9626   0.136   2.495  13.173
 2982SOL    HW2 9627   0.231   2.456  13.063
 2983SOL     OW 9628   0.286   2.134   0.130
 2983SOL    HW1 9629   0.332   2.204   0.175
 2983SOL    HW2 9630   0.202   2.172   0.104
 2984SOL     OW 9631   0.003   2.220  13.662
 2984SOL    HW1 9632   3.909   2.240  13.663
 2984SOL    HW2 9633   0.020   2.192  13.572
 2985SOL     OW 9634   1.520   3.357  13.730
 2985SOL    HW1 9635   1.468   3.284  13.764
 2985SOL    HW2 9636   1.476   3.381  13.648
 2986SOL     OW 9637   1.131   2.559  13.727
 2986SOL    HW1 9638   1.182   2.638  13.709
 2986SOL    HW2 9639   1.083   2.579  13.807
 2987SOL     OW 9640   1.789   2.461  13.256
 2987SOL    HW1 9641   1.756   2.457  13.166
 2987SOL    HW2 9642   1.742   2.390  13.301
 2988SOL     OW 9643   0.687   2.871  13.670
 2988SOL    HW1 9644   0.739   2.853  13.748
 2988SOL    HW2 9645   0.614   2.924  13.703
 2989SOL     OW 9646   1.619   2.306  13.733
 2989SOL    HW1 9647   1.525   2.321  13.717
 2989SOL    HW2 9648   1.634   2.339  13.821
 2990SOL     OW 9649   0.222   3.570  13.501
 2990SOL    HW1 9650   0.241   3.630  13.574
 2990SOL    HW2 9651   0.298   3.576  13.444
 2991SOL     OW 9652   0.250   3.302  13.571
 2991SOL    HW1 9653   0.224   3.393  13.560
 2991SOL    HW2 9654   0.186   3.266  13.632
 2992SOL     OW 9655   0.257   2.935   0.016
 2992SOL    HW1 9656   0.276   2.898   0.103
 2992SOL    HW2 9657   0.218   3.020   0.035
 2993SOL     OW 9658   0.575   2.849  13.171
 2993SOL    HW1 9659   0.624   2.893  13.102
 2993SOL    HW2 9660   0.615   2.879  13.252
 2994SOL     OW 9661   0.142   2.513  13.614
 2994SOL    HW1 9662   0.066   2.459  13.592
 2994SOL    HW2 9663   0.108   2.579  13.675
 2995SOL     OW 9664   1.846   3.607  13.372
 2995SOL    HW1 9665   1.914   3.585  13.436
 2995SOL    HW2 9666   1.863   3.699  13.350
 2996SOL     OW 9667   0.041   3.453  13.174
 2996SOL    HW1 9668   0.036   3.361  13.200
 2996SOL    HW2 9669   3.960   3.492  13.207
 2997SOL     OW 9670   1.687   2.779  13.670
 2997SOL    HW1 9671   1.772   2.741  13.647
 2997SOL    HW2 9672   1.664   2.833  13.595
 2998SOL     OW 9673   1.649   2.966  13.460
 2998SOL    HW1 9674   1.735   2.966  13.417
 2998SOL    HW2 9675   1.656   3.031  13.529
 2999SOL     OW 9676   0.617   3.247  13.759
 2999SOL    HW1 9677   0.565   3.168  13.778
 2999SOL    HW2 9678   0.585   3.277  13.674
 3000SOL     OW 9679   0.821   1.863  13.545
 3000SOL    HW1 9680   0.859   1.948  13.523
 3000SOL    HW2 9681   0.727   1.880  13.552
 3001SOL     OW 9682   1.530   2.858  13.234
 3001SOL    HW1 9683   1.461   2.801  13.266
 3001SOL    HW2 9684   1.572   2.893  13.312
 3002SOL     OW 9685   1.652   3.600  13.612
 3002SOL    HW1 9686   1.634   3.569  13.524
 3002SOL    HW2 9687   1.644   3.522  13.667
 3003SOL     OW 9688   0.594   2.577  13.298
 3003SOL    HW1 9689   0.600   2.662  13.254
 3003SOL    HW2 9690   0.531   2.592  13.369
 3004SOL     OW 9691   1.248   2.190   0.039
 3004SOL    HW1 9692   1.187   2.131   0.083
 3004SOL    HW2 9693   1.333   2.173   0.080
 3005SOL     OW 9694   1.578   3.542  13.340
 3005SOL    HW1 9695   1.671   3.561  13.335
 3005SOL    HW2 9696   1.553   3.521  13.250
 3006SOL     OW 9697   1.051   2.559  13.457
 3006SOL    HW1 9698   1.067   2.548  13.551
 3006SOL    HW2 9699   0.968   2.512  13.442
 3007SOL     OW 9700   0.082   2.707  13.805
 3007SOL    HW1 9701   0.161   2.690  13.857
 3007SOL    HW2 9702   0.076   2.802  13.801
 3008SOL     OW 9703   0.896   2.211  13.226
 3008SOL    HW1 9704   0.936   2.275  13.166
 3008SOL    HW2 9705   0.916   2.126  13.186
 3009SOL     OW 9706   1.364   2.997  13.551
 3009SOL    HW1 9707   1.454   2.996  13.516
 3009SOL    HW2 9708   1.321   3.068  13.503
 3010SOL     OW 9709   0.998   3.302  13.501
 3010SOL    HW1 9710   0.967   3.380  13.453
 3010SOL    HW2 9711   0.966   3.315  13.590
 3011SOL     OW 9712   0.419   3.680  13.801
 3011SOL    HW1 9713   0.417   3.587  13.825
 3011SOL    HW2 9714   0.468   3.721  13.872
 3012SOL     OW 9715   1.790   2.911  13.899
 3012SOL    HW1 9716   1.736   2.895  13.821
 3012SOL    HW2 9717   1.729   2.905   0.072
 3013SOL     OW 9718   0.311   2.815  13.277
 3013SOL    HW1 9719   0.393   2.838  13.234
 3013SOL    HW2 9720   0.298   2.722  13.256
 3014SOL     OW 9721   1.490   2.595  13.743
 3014SOL    HW1 9722   1.488   2.548  13.826
 3014SOL    HW2 9723   1.566   2.654  13.750
 3015SOL     OW 9724   1.113   3.644  13.253
 3015SOL    HW1 9725   1.049   3.599  13.308
 3015SOL    HW2 9726   1.144   3.577  13.193
 3016SOL     OW 9727   1.628   3.243  13.125
 3016SOL    HW1 9728   1.587   3.328  13.107
 3016SOL    HW2 9729   1.559   3.180  13.104
 3017SOL     OW 9730   0.465   3.601  13.353
 3017SOL    HW1 9731   0.504   3.661  13.417
 3017SOL    HW2 9732   0.539   3.572  13.299
 3018SOL     OW 9733   1.403   1.972  13.464
 3018SOL    HW1 9734   1.385   1.949  13.373
 3018SOL    HW2 9735   1.492   1.941  13.480
 3019SOL     OW 9736   0.927   3.546   0.009
 3019SOL    HW1 9737   0.942   3.477   0.074
 3019SOL    HW2 9738   0.887   3.501  13.835
 3020SOL     OW 9739   0.396   2.557  13.503
 3020SOL    HW1 9740   0.424   2.466  13.515
 3020SOL    HW2 9741   0.305   2.559  13.533
 3021SOL     OW 9742   0.646   1.979  13.130
 3021SOL    HW1 9743   0.705   1.906  13.151
 3021SOL    HW2 9744   0.595   1.947  13.055
 3022SOL     OW 9745   0.556   1.924  13.528
 3022SOL    HW1 9746   0.472   1.928  13.575
 3022SOL    HW2 9747   0.559   2.006  13.479
 3023SOL     OW 9748   1.428   3.061  13.074
 3023SOL    HW1 9749   1.458   2.986  13.125
 3023SOL    HW2 9750   1.342   3.083  13.111
 3024SOL     OW 9751   0.309   1.911  13.202
 3024SOL    HW1 9752   0.373   1.950  13.141
 3024SOL    HW2 9753   0.360   1.848  13.252
 3025SOL     OW 9754   0.941   2.108  13.492
 3025SOL    HW1 9755   0.912   2.149  13.411
 3025SOL    HW2 9756   1.035   2.126  13.496
 3026SOL     OW 9757   0.470   3.006  13.764
 3026SOL    HW1 9758   0.399   2.982  13.823
 3026SOL    HW2 9759   0.432   2.996  13.676
 3027SOL     OW 9760   1.266   3.658  13.629
 3027SOL    HW1 9761   1.312   3.726  13.580
 3027SOL    HW2 9762   1.197   3.705  13.676
 3028SOL     OW 9763   1.023   2.399  13.059
 3028SOL    HW1 9764   0.981   2.482  13.040
 3028SOL    HW2 9765   1.089   2.420  13.126
 3029SOL     OW 9766   0.896   2.331  13.675
 3029SOL    HW1 9767   0.829   2.379  13.625
 3029SOL    HW2 9768   0.903   2.247  13.629
 3030SOL     OW 9769   1.027   1.893  13.773
 3030SOL    HW1 9770   0.968   1.906  13.699
 3030SOL    HW2 9771   0.993   1.816  13.818
 3031SOL     OW 9772   1.841   2.676  13.413
 3031SOL    HW1 9773   1.899   2.629  13.473
 3031SOL    HW2 9774   1.819   2.612  13.346
 3032SOL     OW 9775   0.487   3.283  13.192
 3032SOL    HW1 9776   0.411   3.253  13.242
 3032SOL    HW2 9777   0.472   3.250  13.103
 3033SOL     OW 9778   1.685   3.136  13.659
 3033SOL    HW1 9779   1.778   3.133  13.685
 3033SOL    HW2 9780   1.651   3.215  13.701
 3034SOL     OW 9781   1.393   2.436  13.103
 3034SOL    HW1 9782   1.334   2.414  13.175
 3034SOL    HW2 9783   1.479   2.409  13.134
 3035SOL     OW 9784   0.572   2.130  13.349
 3035SOL    HW1 9785   0.607   2.082  13.274
 3035SOL    HW2 9786   0.544   2.214  13.313
 3036SOL     OW 9787   0.708   2.924  13.399
 3036SOL    HW1 9788   0.695   2.909  13.493
 3036SOL    HW2 9789   0.785   2.871  13.377
 3037SOL     OW 9790   0.368   2.965  13.513
 3037SOL    HW1 9791   0.365   3.047  13.464
 3037SOL    HW2 9792   0.367   2.897  13.446
 3038SOL     OW 9793   0.568   2.406  13.871
 3038SOL    HW1 9794   0.576   2.469  13.799
 3038SOL    HW2 9795   0.634   2.433   0.034
 3039SOL     OW 9796   1.245   3.215  13.417
 3039SOL    HW1 9797   1.299   3.288  13.446
 3039SOL    HW2 9798   1.158   3.235  13.454
 3040SOL     OW 9799   1.575   2.496  13.488
 3040SOL    HW1 9800   1.536   2.525  13.571
 3040SOL    HW2 9801   1.623   2.572  13.456
 3041SOL     OW 9802   1.200   2.389  13.296
 3041SOL    HW1 9803   1.209   2.311  13.352
 3041SOL    HW2 9804   1.158   2.454  13.353
 3042SOL     OW 9805   0.305   1.921  13.640
 3042SOL    HW1 9806   0.292   2.012  13.667
 3042SOL    HW2 9807   0.325   1.874  13.721
 3043SOL     OW 9808   1.613   2.242  13.409
 3043SOL    HW1 9809   1.601   2.190  13.489
 3043SOL    HW2 9810   1.593   2.332  13.435
 3044SOL     OW 9811   1.527   2.134  13.164
 3044SOL    HW1 9812   1.461   2.070  13.191
 3044SOL    HW2 9813   1.560   2.170  13.247
 3045SOL     OW 9814   1.286   2.687  13.061
 3045SOL    HW1 9815   1.330   2.602  13.066
 3045SOL    HW2 9816   1.319   2.726  12.980
 3046SOL     OW 9817   4.000   3.179  13.214
 3046SOL    HW1 9818   3.905   3.195  13.219
 3046SOL    HW2 9819   0.009   3.085  13.231
 3047SOL     OW 9820   0.819   2.433  13.389
 3047SOL    HW1 9821   0.822   2.356  13.333
 3047SOL    HW2 9822   0.742   2.482  13.358
 3048SOL     OW 9823   0.452   2.350  13.228
 3048SOL    HW1 9824   0.517   2.418  13.246
 3048SOL    HW2 9825   0.372   2.399  13.207
 3049SOL     OW 9826   1.315   2.717  13.336
 3049SOL    HW1 9827   1.241   2.688  13.389
 3049SOL    HW2 9828   1.288   2.702  13.245
 3050SOL     OW 9829   1.383   3.437  13.507
 3050SOL    HW1 9830   1.442   3.476  13.443
 3050SOL    HW2 9831   1.337   3.512  13.545
 3051SOL     OW 9832   1.289   2.776  13.685
 3051SOL    HW1 9833   1.365   2.719  13.673
 3051SOL    HW2 9834   1.313   2.858  13.641
 3052SOL     OW 9835   0.674   3.481  13.192
 3052SOL    HW1 9836   0.683   3.498  13.098
 3052SOL    HW2 9837   0.615   3.405  13.197
 3053SOL     OW 9838   0.283   2.172  13.737
 3053SOL    HW1 9839   0.200   2.217  13.723
 3053SOL    HW2 9840   0.293   2.170  13.832
 3054SOL     OW 9841   1.208   3.465  13.070
 3054SOL    HW1 9842   1.198   3.373  13.094
 3054SOL    HW2 9843   1.147   3.478  12.998
 3055SOL     OW 9844   0.918   2.774  13.329
 3055SOL    HW1 9845   0.977   2.805  13.260
 3055SOL    HW2 9846   0.966   2.702  13.371
 3056SOL     OW 9847   1.489   3.492  13.077
 3056SOL    HW1 9848   1.395   3.480  13.061
 3056SOL    HW2 9849   1.528   3.497  12.989
 3057SOL     OW 9850   1.050   2.953  13.755
 3057SOL    HW1 9851   0.965   2.914  13.737
 3057SOL    HW2 9852   1.108   2.915  13.689
 3058SOL     OW 9853   0.601   3.357  13.503
 3058SOL    HW1 9854   0.648   3.305  13.438
 3058SOL    HW2 9855   0.529   3.396  13.455
 3059SOL     OW 9856   0.253   3.202  13.324
 3059SOL    HW1 9857   0.159   3.209  13.305
 3059SOL    HW2 9858   0.263   3.239  13.411
 3060SOL     OW 9859   0.080   2.172  13.071
 3060SOL    HW1 9860   3.985   2.173  13.080
 3060SOL    HW2 9861   0.101   2.254  13.025
 3061SOL     OW 9862   0.018   2.107  13.412
 3061SOL    HW1 9863   0.048   2.166  13.343
 3061SOL    HW2 9864   0.096   2.057  13.436
 3062SOL     OW 9865   1.177   3.197  13.149
 3062SOL    HW1 9866   1.085   3.169  13.150
 3062SOL    HW2 9867   1.203   3.199  13.241
 3063SOL     OW 9868   1.215   2.181  13.490
 3063SOL    HW1 9869   1.279   2.110  13.482
 3063SOL    HW2 9870   1.245   2.231  13.566
 3064SOL     OW 9871   0.593   2.610  13.691
 3064SOL    HW1 9872   0.627   2.698  13.673
 3064SOL    HW2 9873   0.523   2.599  13.626
 3065SOL     OW 9874   0.865   3.228  13.074
 3065SOL    HW1 9875   0.824   3.254  13.157
 3065SOL    HW2 9876   0.878   3.310  13.027
 3066SOL     OW 9877   0.656   3.716   0.070
 3066SOL    HW1 9878   0.655   3.809   0.093
 3066SOL    HW2 9879   0.748   3.690   0.078
 3067SOL     OW 9880   0.824   2.828  13.899
 3067SOL    HW1 9881   0.851   2.743   0.035
 3067SOL    HW2 9882   0.862   2.892   0.058
 3068SOL     OW 9883   1.075   2.848  13.122
 3068SOL    HW1 9884   1.055   2.901  13.045
 3068SOL    HW2 9885   1.150   2.795  13.096
 3069SOL     OW 9886   0.115   3.139  13.762
 3069SOL    HW1 9887   0.049   3.100  13.819
 3069SOL    HW2 9888   0.119   3.079  13.687
 3070SOL     OW 9889   0.448   2.301  13.556
 3070SOL    HW1 9890   0.456   2.227  13.495
 3070SOL    HW2 9891   0.403   2.264  13.632
 3071SOL     OW 9892   1.680   3.317   0.350
 3071SOL    HW1 9893   1.649   3.296   0.262
 3071SOL    HW2 9894   1.770   3.286   0.352
 3072SOL     OW 9895   0.820   3.414  13.703
 3072SOL    HW1 9896   0.787   3.463  13.627
 3072SOL    HW2 9897   0.748   3.354  13.725
 3073SOL     OW 9898   0.773   3.195  13.349
 3073SOL    HW1 9899   0.745   3.104  13.357
 3073SOL    HW2 9900   0.854   3.200  13.400
 3074SOL     OW 9901   1.351   1.914  13.201
 3074SOL    HW1 9902   1.383   1.849  13.138
 3074SOL    HW2 9903   1.263   1.884  13.224
 3075SOL     OW 9904   1.304   2.323  13.708
 3075SOL    HW1 9905   1.252   2.403  13.714
 3075SOL    HW2 9906   1.285   2.276  13.789
 3076SOL     OW 9907   0.047   2.910  13.270
 3076SOL    HW1 9908   0.142   2.895  13.263
 3076SOL    HW2 9909   0.011   2.826  13.299
 3077SOL     OW 9910   0.888   3.522  13.376
 3077SOL    HW1 9911   0.815   3.505  13.316
 3077SOL    HW2 9912   0.857   3.595  13.430
 3078SOL     OW 9913   0.233   3.942   0.963
 3078SOL    HW1 9914   0.255   3.957   1.055
 3078SOL    HW2 9915   0.140   3.962   0.956
 3079SOL     OW 9916   0.016   0.101   0.630
 3079SOL    HW1 9917   3.927   0.083   0.661
 3079SOL    HW2 9918   0.023   0.054   0.547
 3080SOL     OW 9919   1.809   0.356   0.274
 3080SOL    HW1 9920   1.787   0.305   0.196
 3080SOL    HW2 9921   1.726   0.362   0.322
 3081SOL     OW 9922   0.440   0.096   1.509
 3081SOL    HW1 9923   0.511   0.057   1.458
 3081SOL    HW2 9924   0.363   0.044   1.486
 3082SOL     OW 9925   1.595   3.850   1.460
 3082SOL    HW1 9926   1.603   3.935   1.417
 3082SOL    HW2 9927   1.577   3.870   1.552
 3083SOL     OW 9928   0.807   3.727   0.509
 3083SOL    HW1 9929   0.835   3.818   0.499
 3083SOL    HW2 9930   0.712   3.731   0.518
 3084SOL     OW 9931   1.267   0.062   0.934
 3084SOL    HW1 9932   1.194   0.008   0.905
 3084SOL    HW2 9933   1.323   0.002   0.984
 3085SOL     OW 9934   0.556   3.904   0.892
 3085SOL    HW1 9935   0.553   3.926   0.985
 3085SOL    HW2 9936   0.549   3.989   0.847
 3086SOL     OW 9937   0.190   3.977   1.498
 3086SOL    HW1 9938   0.101   0.012   1.503
 3086SOL    HW2 9939   0.186   3.893   1.544
 3087SOL     OW 9940   1.410   3.837   0.433
 3087SOL    HW1 9941   1.406   3.795   0.347
 3087SOL    HW2 9942   1.502   3.829   0.459
 3088SOL     OW 9943   1.533   3.938   1.721
 3088SOL    HW1 9944   1.558   3.940   1.813
 3088SOL    HW2 9945   1.463   3.872   1.717
 3089SOL     OW 9946   0.772   3.954   1.742
 3089SOL    HW1 9947   0.827   3.926   1.815
 3089SOL    HW2 9948   0.686   3.970   1.782
 3090SOL     OW 9949   0.536   3.782   0.517
 3090SOL    HW1 9950   0.483   3.781   0.596
 3090SOL    HW2 9951   0.545   3.875   0.496
 3091SOL     OW 9952   0.265   3.735   0.180
 3091SOL    HW1 9953   0.298   3.824   0.171
 3091SOL    HW2 9954   0.335   3.687   0.223
 3092SOL     OW 9955   0.563   3.945   1.168
 3092SOL    HW1 9956   0.605   3.875   1.219
 3092SOL    HW2 9957   0.471   3.941   1.196
 3093SOL     OW 9958   1.021   3.766   0.731
 3093SOL    HW1 9959   0.955   3.755   0.663
 3093SOL    HW2 9960   0.997   3.703   0.798
 3094SOL     OW 9961   0.924   3.802   1.396
 3094SOL    HW1 9962   0.953   3.781   1.308
 3094SOL    HW2 9963   0.998   3.849   1.435
 3095SOL     OW 9964   1.267   0.073   1.266
 3095SOL    HW1 9965   1.278   0.142   1.331
 3095SOL    HW2 9966   1.199   0.105   1.207
 3096SOL     OW 9967   0.508   3.751   1.757
 3096SOL    HW1 9968   0.453   3.706   1.693
 3096SOL    HW2 9969   0.479   3.842   1.753
 3097SOL     OW 9970   0.303   3.924   1.255
 3097SOL    HW1 9971   0.256   3.941   1.337
 3097SOL    HW2 9972   0.289   3.831   1.238
 3098SOL     OW 9973   1.597   3.935   0.158
 3098SOL    HW1 9974   1.518   3.882   0.157
 3098SOL    HW2 9975   1.568   0.021   0.188
 3099SOL     OW 9976   1.163   3.920   1.473
 3099SOL    HW1 9977   1.167   3.995   1.532
 3099SOL    HW2 9978   1.206   3.950   1.393
 3100SOL     OW 9979   0.924   3.826   0.149
 3100SOL    HW1 9980   0.953   3.817   0.058
 3100SOL    HW2 9981   0.984   3.770   0.199
 3101SOL     OW 9982   1.705   3.857   0.511
 3101SOL    HW1 9983   1.784   3.847   0.457
 3101SOL    HW2 9984   1.696   3.773   0.555
 3102SOL     OW 9985   1.836   3.878   0.972
 3102SOL    HW1 9986   1.871   3.795   0.939
 3102SOL    HW2 9987   1.756   3.893   0.921
 3103SOL     OW 9988   0.678   3.908   1.488
 3103SOL    HW1 9989   0.762   3.899   1.442
 3103SOL    HW2 9990   0.703   3.931   1.578
 3104SOL     OW 9991   0.042   0.011   0.040
 3104SOL    HW1 9992   3.953   0.016   0.003
 3104SOL    HW2 9993   0.084   0.092   0.012
 3105SOL     OW 9994   0.123   3.934   0.377
 3105SOL    HW1 9995   0.072   3.974   0.307
 3105SOL    HW2 9996   0.167   3.860   0.335
 3106SOL     OW 9997   1.194   0.012   0.463
 3106SOL    HW1 9998   1.254   3.937   0.468
 3106SOL    HW2 9999   1.213   0.063   0.541
 3107SOL     OW10000   1.786   0.040   1.639
 3107SOL    HW110001   1.758   0.074   1.554
 3107SOL    HW210002   1.707   0.000   1.676
 3108SOL     OW10003   1.816   3.912   1.239
 3108SOL    HW110004   1.821   3.822   1.269
 3108SOL    HW210005   1.822   3.907   1.143
 3109SOL     OW10006   1.439   3.932   1.116
 3109SOL    HW110007   1.471   3.853   1.160
 3109SOL    HW210008   1.381   3.973   1.180
 3110SOL     OW10009   1.017   3.736   1.146
 3110SOL    HW110010   0.959   3.682   1.093
 3110SOL    HW210011   1.102   3.693   1.142
 3111SOL     OW10012   1.354   3.783   0.150
 3111SOL    HW110013   1.394   3.710   0.102
 3111SOL    HW210014   1.270   3.748   0.182
 3112SOL     OW10015   1.284   0.163   0.678
 3112SOL    HW110016   1.282   0.258   0.687
 3112SOL    HW210017   1.287   0.131   0.768
 3113SOL     OW10018   1.580   3.926   0.881
 3113SOL    HW110019   1.531   3.931   0.962
 3113SOL    HW210020   1.581   0.016   0.847
 3114SOL     OW10021   0.234   3.944   2.822
 3114SOL    HW110022   0.256   3.958   2.914
 3114SOL    HW210023   0.140   3.962   2.817
 3115SOL     OW10024   0.009   0.107   2.484
 3115SOL    HW110025   3.924   0.088   2.524
 3115SOL    HW210026   0.014   0.046   2.410
 3116SOL     OW10027   1.777   0.318   2.050
 3116SOL    HW110028   1.704   0.295   1.993
 3116SOL    HW210029   1.736   0.338   2.134
 3117SOL     OW10030   0.440   0.096   3.371
 3117SOL    HW110031   0.511   0.057   3.320
 3117SOL    HW210032   0.363   0.044   3.348
 3118SOL     OW10033   1.595   3.850   3.321
 3118SOL    HW110034   1.603   3.936   3.280
 3118SOL    HW210035   1.577   3.870   3.413
 3119SOL     OW10036   0.806   3.730   2.369
 3119SOL    HW110037   0.832   3.821   2.362
 3119SOL    HW210038   0.711   3.733   2.378
 3120SOL     OW10039   1.266   0.062   2.800
 3120SOL    HW110040   1.194   0.008   2.768
 3120SOL    HW210041   1.323   0.001   2.847
 3121SOL     OW10042   0.556   3.905   2.754
 3121SOL    HW110043   0.553   3.925   2.847
 3121SOL    HW210044   0.551   3.990   2.711
 3122SOL     OW10045   0.190   3.977   3.360
 3122SOL    HW110046   0.101   0.012   3.365
 3122SOL    HW210047   0.186   3.893   3.406
 3123SOL     OW10048   1.408   3.831   2.296
 3123SOL    HW110049   1.399   3.798   2.206
 3123SOL    HW210050   1.501   3.824   2.315
 3124SOL     OW10051   1.533   3.938   3.583
 3124SOL    HW110052   1.558   3.940   3.675
 3124SOL    HW210053   1.463   3.872   3.579
 3125SOL     OW10054   0.628   3.850   1.989
 3125SOL    HW110055   0.719   3.820   1.989
 3125SOL    HW210056   0.586   3.800   1.919
 3126SOL     OW10057   0.771   3.953   3.604
 3126SOL    HW110058   0.827   3.927   3.677
 3126SOL    HW210059   0.686   3.970   3.644
 3127SOL     OW10060   0.535   3.785   2.377
 3127SOL    HW110061   0.484   3.785   2.458
 3127SOL    HW210062   0.543   3.877   2.353
 3128SOL     OW10063   0.287   3.760   2.039
 3128SOL    HW110064   0.327   3.846   2.033
 3128SOL    HW210065   0.353   3.705   2.081
 3129SOL     OW10066   0.563   3.944   3.030
 3129SOL    HW110067   0.606   3.876   3.082
 3129SOL    HW210068   0.471   3.941   3.058
 3130SOL     OW10069   1.021   3.766   2.593
 3130SOL    HW110070   0.955   3.754   2.525
 3130SOL    HW210071   0.997   3.702   2.661
 3131SOL     OW10072   0.924   3.802   3.258
 3131SOL    HW110073   0.953   3.781   3.170
 3131SOL    HW210074   0.998   3.849   3.297
 3132SOL     OW10075   1.267   0.073   3.128
 3132SOL    HW110076   1.278   0.142   3.193
 3132SOL    HW210077   1.200   0.106   3.068
 3133SOL     OW10078   0.508   3.751   3.619
 3133SOL    HW110079   0.453   3.706   3.555
 3133SOL    HW210080   0.479   3.842   3.615
 3134SOL     OW10081   0.303   3.924   3.117
 3134SOL    HW110082   0.256   3.941   3.198
 3134SOL    HW210083   0.289   3.831   3.100
 3135SOL     OW10084   1.577   3.952   1.981
 3135SOL    HW110085   1.518   3.896   2.031
 3135SOL    HW210086   1.610   0.015   2.045
 3136SOL     OW10087   1.163   3.920   3.335
 3136SOL    HW110088   1.167   3.995   3.394
 3136SOL    HW210089   1.206   3.951   3.255
 3137SOL     OW10090   0.901   3.811   1.963
 3137SOL    HW110091   0.958   3.767   1.901
 3137SOL    HW210092   0.943   3.798   2.048
 3138SOL     OW10093   1.708   3.856   2.356
 3138SOL    HW110094   1.787   3.842   2.303
 3138SOL    HW210095   1.698   3.774   2.405
 3139SOL     OW10096   1.836   3.878   2.835
 3139SOL    HW110097   1.871   3.796   2.802
 3139SOL    HW210098   1.757   3.893   2.784
 3140SOL     OW10099   0.678   3.908   3.350
 3140SOL    HW110100   0.762   3.899   3.304
 3140SOL    HW210101   0.703   3.931   3.439
 3141SOL     OW10102   0.071   0.022   1.851
 3141SOL    HW110103   3.977   0.023   1.864
 3141SOL    HW210104   0.100   0.110   1.874
 3142SOL     OW10105   0.108   3.919   2.233
 3142SOL    HW110106   0.081   0.002   2.193
 3142SOL    HW210107   0.187   3.894   2.187
 3143SOL     OW10108   1.196   0.012   2.325
 3143SOL    HW110109   1.262   3.943   2.327
 3143SOL    HW210110   1.215   0.065   2.403
 3144SOL     OW10111   1.786   0.039   3.501
 3144SOL    HW110112   1.758   0.075   3.416
 3144SOL    HW210113   1.707   0.000   3.538
 3145SOL     OW10114   1.816   3.913   3.101
 3145SOL    HW110115   1.821   3.822   3.131
 3145SOL    HW210116   1.822   3.907   3.006
 3146SOL     OW10117   1.440   3.931   2.979
 3146SOL    HW110118   1.472   3.853   3.024
 3146SOL    HW210119   1.382   3.973   3.042
 3147SOL     OW10120   1.017   3.736   3.008
 3147SOL    HW110121   0.959   3.682   2.955
 3147SOL    HW210122   1.102   3.693   3.004
 3148SOL     OW10123   1.354   3.770   2.026
 3148SOL    HW110124   1.389   3.701   1.969
 3148SOL    HW210125   1.266   3.740   2.049
 3149SOL     OW10126   1.281   0.162   2.544
 3149SOL    HW110127   1.284   0.258   2.549
 3149SOL    HW210128   1.285   0.133   2.635
 3150SOL     OW10129   1.580   3.926   2.742
 3150SOL    HW110130   1.531   3.931   2.824
 3150SOL    HW210131   1.581   0.015   2.709
 3151SOL     OW10132   0.234   3.944   4.684
 3151SOL    HW110133   0.256   3.958   4.776
 3151SOL    HW210134   0.140   3.962   4.679
 3152SOL     OW10135   0.009   0.107   4.346
 3152SOL    HW110136   3.924   0.087   4.386
 3152SOL    HW210137   0.014   0.046   4.272
 3153SOL     OW10138   1.777   0.319   3.912
 3153SOL    HW110139   1.704   0.295   3.855
 3153SOL    HW210140   1.736   0.338   3.996
 3154SOL     OW10141   0.440   0.096   5.233
 3154SOL    HW110142   0.511   0.057   5.182
 3154SOL    HW210143   0.363   0.044   5.210
 3155SOL     OW10144   1.595   3.850   5.183
 3155SOL    HW110145   1.604   3.935   5.141
 3155SOL    HW210146   1.577   3.870   5.275
 3156SOL     OW10147   0.806   3.730   4.231
 3156SOL    HW110148   0.833   3.821   4.224
 3156SOL    HW210149   0.711   3.733   4.240
 3157SOL     OW10150   1.266   0.062   4.662
 3157SOL    HW110151   1.194   0.008   4.629
 3157SOL    HW210152   1.323   0.001   4.709
 3158SOL     OW10153   0.556   3.905   4.616
 3158SOL    HW110154   0.553   3.925   4.709
 3158SOL    HW210155   0.551   3.990   4.573
 3159SOL     OW10156   0.190   3.977   5.222
 3159SOL    HW110157   0.101   0.012   5.227
 3159SOL    HW210158   0.186   3.893   5.268
 3160SOL     OW10159   1.408   3.831   4.158
 3160SOL    HW110160   1.399   3.798   4.068
 3160SOL    HW210161   1.501   3.824   4.177
 3161SOL     OW10162   1.533   3.938   5.445
 3161SOL    HW110163   1.558   3.940   5.537
 3161SOL    HW210164   1.463   3.872   5.441
 3162SOL     OW10165   0.628   3.850   3.851
 3162SOL    HW110166   0.719   3.820   3.851
 3162SOL    HW210167   0.586   3.800   3.781
 3163SOL     OW10168   0.771   3.954   5.466
 3163SOL    HW110169   0.827   3.927   5.539
 3163SOL    HW210170   0.686   3.970   5.506
 3164SOL     OW10171   0.535   3.785   4.239
 3164SOL    HW110172   0.484   3.785   4.320
 3164SOL    HW210173   0.543   3.877   4.215
 3165SOL     OW10174   0.287   3.760   3.901
 3165SOL    HW110175   0.327   3.846   3.895
 3165SOL    HW210176   0.353   3.705   3.943
 3166SOL     OW10177   0.563   3.944   4.892
 3166SOL    HW110178   0.606   3.875   4.943
 3166SOL    HW210179   0.471   3.941   4.920
 3167SOL     OW10180   1.021   3.766   4.455
 3167SOL    HW110181   0.955   3.754   4.387
 3167SOL    HW210182   0.997   3.702   4.523
 3168SOL     OW10183   0.924   3.802   5.120
 3168SOL    HW110184   0.953   3.781   5.032
 3168SOL    HW210185   0.998   3.850   5.159
 3169SOL     OW10186   1.267   0.072   4.990
 3169SOL    HW110187   1.278   0.142   5.055
 3169SOL    HW210188   1.200   0.105   4.930
 3170SOL     OW10189   0.508   3.751   5.481
 3170SOL    HW110190   0.453   3.706   5.417
 3170SOL    HW210191   0.479   3.842   5.477
 3171SOL     OW10192   0.303   3.924   4.979
 3171SOL    HW110193   0.256   3.941   5.060
 3171SOL    HW210194   0.289   3.831   4.962
 3172SOL     OW10195   1.577   3.952   3.843
 3172SOL    HW110196   1.518   3.896   3.893
 3172SOL    HW210197   1.611   0.015   3.907
 3173SOL     OW10198   1.163   3.920   5.197
 3173SOL    HW110199   1.166   3.996   5.256
 3173SOL    HW210200   1.206   3.950   5.117
 3174SOL     OW10201   0.901   3.811   3.825
 3174SOL    HW110202   0.958   3.767   3.763
 3174SOL    HW210203   0.943   3.798   3.910
 3175SOL     OW10204   1.708   3.856   4.218
 3175SOL    HW110205   1.787   3.842   4.165
 3175SOL    HW210206   1.698   3.774   4.267
 3176SOL     OW10207   1.836   3.878   4.697
 3176SOL    HW110208   1.871   3.796   4.664
 3176SOL    HW210209   1.757   3.893   4.646
 3177SOL     OW10210   0.678   3.908   5.212
 3177SOL    HW110211   0.762   3.899   5.166
 3177SOL    HW210212   0.703   3.931   5.301
 3178SOL     OW10213   0.072   0.022   3.713
 3178SOL    HW110214   3.977   0.023   3.726
 3178SOL    HW210215   0.100   0.110   3.735
 3179SOL     OW10216   0.108   3.919   4.095
 3179SOL    HW110217   0.082   0.002   4.055
 3179SOL    HW210218   0.187   3.894   4.049
 3180SOL     OW10219   1.196   0.012   4.188
 3180SOL    HW110220   1.263   3.943   4.189
 3180SOL    HW210221   1.215   0.065   4.265
 3181SOL     OW10222   1.786   0.039   5.363
 3181SOL    HW110223   1.759   0.075   5.279
 3181SOL    HW210224   1.707   0.000   5.400
 3182SOL     OW10225   1.816   3.912   4.963
 3182SOL    HW110226   1.821   3.822   4.993
 3182SOL    HW210227   1.822   3.907   4.868
 3183SOL     OW10228   1.440   3.931   4.841
 3183SOL    HW110229   1.472   3.853   4.886
 3183SOL    HW210230   1.382   3.973   4.904
 3184SOL     OW10231   1.017   3.736   4.870
 3184SOL    HW110232   0.959   3.682   4.817
 3184SOL    HW210233   1.102   3.693   4.866
 3185SOL     OW10234   1.354   3.770   3.888
 3185SOL    HW110235   1.389   3.701   3.831
 3185SOL    HW210236   1.266   3.740   3.911
 3186SOL     OW10237   1.280   0.162   4.406
 3186SOL    HW110238   1.284   0.258   4.411
 3186SOL    HW210239   1.285   0.133   4.497
 3187SOL     OW10240   1.580   3.926   4.604
 3187SOL    HW110241   1.531   3.931   4.686
 3187SOL    HW210242   1.581   0.015   4.571
 3188SOL     OW10243   0.234   3.944   6.546
 3188SOL    HW110244   0.256   3.958   6.638
 3188SOL    HW210245   0.140   3.962   6.541
 3189SOL     OW10246   0.009   0.107   6.208
 3189SOL    HW110247   3.924   0.088   6.248
 3189SOL    HW210248   0.014   0.046   6.134
 3190SOL     OW10249   1.777   0.319   5.774
 3190SOL    HW110250   1.704   0.295   5.717
 3190SOL    HW210251   1.735   0.338   5.859
 3191SOL     OW10252   0.440   0.096   7.095
 3191SOL    HW110253   0.511   0.057   7.044
 3191SOL    HW210254   0.363   0.044   7.072
 3192SOL     OW10255   1.594   3.850   7.045
 3192SOL    HW110256   1.604   3.936   7.004
 3192SOL    HW210257   1.577   3.870   7.137
 3193SOL     OW10258   0.806   3.730   6.093
 3193SOL    HW110259   0.833   3.821   6.086
 3193SOL    HW210260   0.711   3.732   6.102
 3194SOL     OW10261   1.266   0.062   6.524
 3194SOL    HW110262   1.194   0.008   6.492
 3194SOL    HW210263   1.323   0.001   6.572
 3195SOL     OW10264   0.556   3.905   6.478
 3195SOL    HW110265   0.553   3.925   6.571
 3195SOL    HW210266   0.551   3.990   6.435
 3196SOL     OW10267   0.190   3.977   7.084
 3196SOL    HW110268   0.101   0.012   7.089
 3196SOL    HW210269   0.186   3.893   7.130
 3197SOL     OW10270   1.407   3.830   6.020
 3197SOL    HW110271   1.399   3.798   5.931
 3197SOL    HW210272   1.501   3.824   6.039
 3198SOL     OW10273   1.533   3.937   7.307
 3198SOL    HW110274   1.559   3.940   7.399
 3198SOL    HW210275   1.463   3.872   7.303
 3199SOL     OW10276   0.628   3.850   5.713
 3199SOL    HW110277   0.719   3.820   5.713
 3199SOL    HW210278   0.586   3.800   5.643
 3200SOL     OW10279   0.772   3.954   7.328
 3200SOL    HW110280   0.827   3.926   7.401
 3200SOL    HW210281   0.686   3.970   7.368
 3201SOL     OW10282   0.535   3.785   6.101
 3201SOL    HW110283   0.484   3.785   6.182
 3201SOL    HW210284   0.543   3.877   6.077
 3202SOL     OW10285   0.287   3.760   5.763
 3202SOL    HW110286   0.327   3.846   5.756
 3202SOL    HW210287   0.353   3.705   5.805
 3203SOL     OW10288   0.563   3.944   6.754
 3203SOL    HW110289   0.606   3.875   6.806
 3203SOL    HW210290   0.471   3.941   6.782
 3204SOL     OW10291   1.021   3.766   6.317
 3204SOL    HW110292   0.955   3.754   6.248
 3204SOL    HW210293   0.997   3.702   6.385
 3205SOL     OW10294   0.924   3.802   6.982
 3205SOL    HW110295   0.953   3.781   6.894
 3205SOL    HW210296   0.998   3.850   7.021
 3206SOL     OW10297   1.267   0.073   6.852
 3206SOL    HW110298   1.278   0.142   6.917
 3206SOL    HW210299   1.200   0.106   6.792
 3207SOL     OW10300   0.508   3.751   7.343
 3207SOL    HW110301   0.453   3.706   7.279
 3207SOL    HW210302   0.479   3.842   7.339
 3208SOL     OW10303   0.303   3.924   6.840
 3208SOL    HW110304   0.256   3.941   6.922
 3208SOL    HW210305   0.289   3.831   6.824
 3209SOL     OW10306   1.577   3.952   5.705
 3209SOL    HW110307   1.518   3.896   5.755
 3209SOL    HW210308   1.611   0.014   5.769
 3210SOL     OW10309   1.163   3.920   7.059
 3210SOL    HW110310   1.167   3.995   7.119
 3210SOL    HW210311   1.206   3.951   6.980
 3211SOL     OW10312   0.901   3.811   5.687
 3211SOL    HW110313   0.958   3.767   5.625
 3211SOL    HW210314   0.943   3.798   5.772
 3212SOL     OW10315   1.708   3.856   6.080
 3212SOL    HW110316   1.787   3.842   6.027
 3212SOL    HW210317   1.698   3.774   6.129
 3213SOL     OW10318   1.836   3.878   6.559
 3213SOL    HW110319   1.871   3.796   6.526
 3213SOL    HW210320   1.756   3.893   6.508
 3214SOL     OW10321   0.678   3.908   7.074
 3214SOL    HW110322   0.762   3.899   7.028
 3214SOL    HW210323   0.703   3.931   7.164
 3215SOL     OW10324   0.071   0.022   5.576
 3215SOL    HW110325   3.977   0.023   5.588
 3215SOL    HW210326   0.100   0.110   5.598
 3216SOL     OW10327   0.108   3.919   5.958
 3216SOL    HW110328   0.082   0.002   5.917
 3216SOL    HW210329   0.187   3.893   5.911
 3217SOL     OW10330   1.196   0.012   6.050
 3217SOL    HW110331   1.262   3.943   6.051
 3217SOL    HW210332   1.215   0.065   6.127
 3218SOL     OW10333   1.786   0.039   7.225
 3218SOL    HW110334   1.758   0.075   7.141
 3218SOL    HW210335   1.707   4.000   7.262
 3219SOL     OW10336   1.816   3.912   6.825
 3219SOL    HW110337   1.821   3.822   6.855
 3219SOL    HW210338   1.822   3.907   6.730
 3220SOL     OW10339   1.440   3.931   6.703
 3220SOL    HW110340   1.473   3.854   6.749
 3220SOL    HW210341   1.381   3.973   6.766
 3221SOL     OW10342   1.017   3.736   6.732
 3221SOL    HW110343   0.959   3.682   6.679
 3221SOL    HW210344   1.102   3.693   6.727
 3222SOL     OW10345   1.354   3.770   5.750
 3222SOL    HW110346   1.388   3.701   5.693
 3222SOL    HW210347   1.266   3.740   5.773
 3223SOL     OW10348   1.280   0.162   6.268
 3223SOL    HW110349   1.284   0.258   6.274
 3223SOL    HW210350   1.285   0.132   6.359
 3224SOL     OW10351   1.580   3.925   6.467
 3224SOL    HW110352   1.531   3.931   6.549
 3224SOL    HW210353   1.581   0.015   6.433
 3225SOL     OW10354   0.234   3.944   8.408
 3225SOL    HW110355   0.256   3.958   8.500
 3225SOL    HW210356   0.140   3.962   8.403
 3226SOL     OW10357   0.009   0.107   8.070
 3226SOL    HW110358   3.924   0.087   8.110
 3226SOL    HW210359   0.014   0.047   7.996
 3227SOL     OW10360   1.777   0.317   7.637
 3227SOL    HW110361   1.704   0.294   7.579
 3227SOL    HW210362   1.735   0.337   7.721
 3228SOL     OW10363   0.440   0.096   8.957
 3228SOL    HW110364   0.511   0.058   8.906
 3228SOL    HW210365   0.363   0.044   8.934
 3229SOL     OW10366   1.595   3.850   8.907
 3229SOL    HW110367   1.604   3.936   8.866
 3229SOL    HW210368   1.577   3.870   8.999
 3230SOL     OW10369   0.806   3.730   7.955
 3230SOL    HW110370   0.833   3.821   7.949
 3230SOL    HW210371   0.711   3.732   7.964
 3231SOL     OW10372   1.266   0.063   8.387
 3231SOL    HW110373   1.194   0.009   8.353
 3231SOL    HW210374   1.322   0.001   8.433
 3232SOL     OW10375   0.555   3.905   8.340
 3232SOL    HW110376   0.553   3.925   8.433
 3232SOL    HW210377   0.551   3.990   8.297
 3233SOL     OW10378   0.190   3.977   8.946
 3233SOL    HW110379   0.101   0.012   8.951
 3233SOL    HW210380   0.186   3.893   8.992
 3234SOL     OW10381   1.407   3.830   7.882
 3234SOL    HW110382   1.399   3.798   7.792
 3234SOL    HW210383   1.501   3.825   7.900
 3235SOL     OW10384   1.533   3.938   9.169
 3235SOL    HW110385   1.558   3.940   9.261
 3235SOL    HW210386   1.463   3.872   9.165
 3236SOL     OW10387   0.628   3.850   7.575
 3236SOL    HW110388   0.719   3.820   7.575
 3236SOL    HW210389   0.586   3.800   7.505
 3237SOL     OW10390   0.772   3.954   9.190
 3237SOL    HW110391   0.827   3.927   9.263
 3237SOL    HW210392   0.686   3.970   9.230
 3238SOL     OW10393   0.535   3.785   7.963
 3238SOL    HW110394   0.484   3.786   8.044
 3238SOL    HW210395   0.543   3.877   7.939
 3239SOL     OW10396   0.286   3.760   7.625
 3239SOL    HW110397   0.327   3.846   7.618
 3239SOL    HW210398   0.353   3.705   7.667
 3240SOL     OW10399   0.563   3.944   8.616
 3240SOL    HW110400   0.606   3.875   8.667
 3240SOL    HW210401   0.471   3.941   8.644
 3241SOL     OW10402   1.021   3.766   8.179
 3241SOL    HW110403   0.955   3.754   8.110
 3241SOL    HW210404   0.997   3.702   8.246
 3242SOL     OW10405   0.924   3.802   8.844
 3242SOL    HW110406   0.953   3.781   8.756
 3242SOL    HW210407   0.998   3.850   8.883
 3243SOL     OW10408   1.267   0.073   8.714
 3243SOL    HW110409   1.277   0.142   8.779
 3243SOL    HW210410   1.200   0.105   8.654
 3244SOL     OW10411   0.508   3.751   9.205
 3244SOL    HW110412   0.453   3.706   9.141
 3244SOL    HW210413   0.479   3.842   9.201
 3245SOL     OW10414   0.303   3.924   8.703
 3245SOL    HW110415   0.256   3.941   8.784
 3245SOL    HW210416   0.289   3.831   8.686
 3246SOL     OW10417   1.578   3.951   7.567
 3246SOL    HW110418   1.516   3.897   7.616
 3246SOL    HW210419   1.607   0.017   7.630
 3247SOL     OW10420   1.164   3.920   8.921
 3247SOL    HW110421   1.166   3.996   8.980
 3247SOL    HW210422   1.206   3.951   8.841
 3248SOL     OW10423   0.901   3.811   7.549
 3248SOL    HW110424   0.958   3.766   7.487
 3248SOL    HW210425   0.943   3.798   7.634
 3249SOL     OW10426   1.707   3.855   7.942
 3249SOL    HW110427   1.786   3.843   7.889
 3249SOL    HW210428   1.698   3.774   7.991
 3250SOL     OW10429   1.836   3.878   8.421
 3250SOL    HW110430   1.871   3.795   8.387
 3250SOL    HW210431   1.757   3.893   8.370
 3251SOL     OW10432   0.678   3.908   8.936
 3251SOL    HW110433   0.762   3.899   8.890
 3251SOL    HW210434   0.703   3.931   9.025
 3252SOL     OW10435   0.071   0.021   7.438
 3252SOL    HW110436   3.976   0.023   7.450
 3252SOL    HW210437   0.100   0.110   7.459
 3253SOL     OW10438   0.108   3.919   7.820
 3253SOL    HW110439   0.082   0.002   7.779
 3253SOL    HW210440   0.187   3.893   7.773
 3254SOL     OW10441   1.196   0.011   7.912
 3254SOL    HW110442   1.263   3.943   7.913
 3254SOL    HW210443   1.215   0.065   7.990
 3255SOL     OW10444   1.786   0.039   9.087
 3255SOL    HW110445   1.758   0.075   9.003
 3255SOL    HW210446   1.707   0.000   9.124
 3256SOL     OW10447   1.816   3.913   8.688
 3256SOL    HW110448   1.821   3.822   8.718
 3256SOL    HW210449   1.822   3.907   8.592
 3257SOL     OW10450   1.440   3.931   8.565
 3257SOL    HW110451   1.472   3.853   8.611
 3257SOL    HW210452   1.381   3.973   8.628
 3258SOL     OW10453   1.017   3.736   8.594
 3258SOL    HW110454   0.959   3.682   8.541
 3258SOL    HW210455   1.102   3.693   8.589
 3259SOL     OW10456   1.354   3.769   7.612
 3259SOL    HW110457   1.388   3.701   7.555
 3259SOL    HW210458   1.266   3.740   7.635
 3260SOL     OW10459   1.280   0.162   8.130
 3260SOL    HW110460   1.284   0.258   8.135
 3260SOL    HW210461   1.285   0.133   8.221
 3261SOL     OW10462   1.580   3.925   8.329
 3261SOL    HW110463   1.531   3.932   8.411
 3261SOL    HW210464   1.581   0.015   8.295
 3262SOL     OW10465   0.234   3.944  10.270
 3262SOL    HW110466   0.256   3.958  10.362
 3262SOL    HW210467   0.140   3.962  10.265
 3263SOL     OW10468   0.009   0.107   9.932
 3263SOL    HW110469   3.924   0.088   9.972
 3263SOL    HW210470   0.014   0.047   9.858
 3264SOL     OW10471   1.777   0.318   9.498
 3264SOL    HW110472   1.704   0.295   9.441
 3264SOL    HW210473   1.736   0.338   9.582
 3265SOL     OW10474   0.440   0.096  10.819
 3265SOL    HW110475   0.511   0.057  10.768
 3265SOL    HW210476   0.363   0.044  10.796
 3266SOL     OW10477   1.595   3.850  10.769
 3266SOL    HW110478   1.604   3.936  10.728
 3266SOL    HW210479   1.577   3.870  10.861
 3267SOL     OW10480   0.806   3.730   9.817
 3267SOL    HW110481   0.833   3.821   9.810
 3267SOL    HW210482   0.711   3.732   9.826
 3268SOL     OW10483   1.266   0.062  10.248
 3268SOL    HW110484   1.194   0.008  10.216
 3268SOL    HW210485   1.323   0.001  10.295
 3269SOL     OW10486   0.556   3.905  10.202
 3269SOL    HW110487   0.553   3.925  10.295
 3269SOL    HW210488   0.551   3.990  10.159
 3270SOL     OW10489   0.190   3.977  10.808
 3270SOL    HW110490   0.101   0.012  10.813
 3270SOL    HW210491   0.186   3.893  10.854
 3271SOL     OW10492   1.408   3.830   9.744
 3271SOL    HW110493   1.399   3.798   9.655
 3271SOL    HW210494   1.501   3.824   9.763
 3272SOL     OW10495   1.533   3.938  11.031
 3272SOL    HW110496   1.558   3.940  11.123
 3272SOL    HW210497   1.463   3.872  11.027
 3273SOL     OW10498   0.628   3.850   9.438
 3273SOL    HW110499   0.719   3.820   9.437
 3273SOL    HW210500   0.586   3.800   9.367
 3274SOL     OW10501   0.772   3.953  11.052
 3274SOL    HW110502   0.827   3.927  11.125
 3274SOL    HW210503   0.686   3.970  11.092
 3275SOL     OW10504   0.535   3.785   9.825
 3275SOL    HW110505   0.484   3.785   9.906
 3275SOL    HW210506   0.543   3.877   9.801
 3276SOL     OW10507   0.287   3.760   9.487
 3276SOL    HW110508   0.327   3.846   9.480
 3276SOL    HW210509   0.353   3.705   9.529
 3277SOL     OW10510   0.563   3.944  10.478
 3277SOL    HW110511   0.606   3.875  10.530
 3277SOL    HW210512   0.471   3.941  10.506
 3278SOL     OW10513   1.021   3.766  10.041
 3278SOL    HW110514   0.955   3.754   9.973
 3278SOL    HW210515   0.997   3.702  10.109
 3279SOL     OW10516   0.924   3.802  10.706
 3279SOL    HW110517   0.953   3.781  10.618
 3279SOL    HW210518   0.998   3.850  10.745
 3280SOL     OW10519   1.267   0.072  10.576
 3280SOL    HW110520   1.278   0.142  10.641
 3280SOL    HW210521   1.200   0.106  10.516
 3281SOL     OW10522   0.508   3.751  11.067
 3281SOL    HW110523   0.453   3.706  11.003
 3281SOL    HW210524   0.479   3.842  11.063
 3282SOL     OW10525   0.303   3.924  10.565
 3282SOL    HW110526   0.256   3.941  10.646
 3282SOL    HW210527   0.289   3.831  10.548
 3283SOL     OW10528   1.577   3.952   9.429
 3283SOL    HW110529   1.517   3.896   9.479
 3283SOL    HW210530   1.610   0.015   9.493
 3284SOL     OW10531   1.163   3.920  10.783
 3284SOL    HW110532   1.167   3.996  10.842
 3284SOL    HW210533   1.206   3.951  10.703
 3285SOL     OW10534   0.901   3.811   9.411
 3285SOL    HW110535   0.958   3.767   9.349
 3285SOL    HW210536   0.943   3.798   9.496
 3286SOL     OW10537   1.708   3.856   9.804
 3286SOL    HW110538   1.787   3.842   9.751
 3286SOL    HW210539   1.698   3.774   9.853
 3287SOL     OW10540   1.836   3.878  10.283
 3287SOL    HW110541   1.871   3.796  10.250
 3287SOL    HW210542   1.757   3.893  10.232
 3288SOL     OW10543   0.678   3.908  10.798
 3288SOL    HW110544   0.762   3.899  10.752
 3288SOL    HW210545   0.703   3.931  10.887
 3289SOL     OW10546   0.071   0.022   9.299
 3289SOL    HW110547   3.977   0.023   9.312
 3289SOL    HW210548   0.100   0.110   9.321
 3290SOL     OW10549   0.108   3.919   9.681
 3290SOL    HW110550   0.082   0.002   9.641
 3290SOL    HW210551   0.187   3.894   9.635
 3291SOL     OW10552   1.196   0.012   9.774
 3291SOL    HW110553   1.263   3.943   9.775
 3291SOL    HW210554   1.215   0.065   9.851
 3292SOL     OW10555   1.786   0.039  10.949
 3292SOL    HW110556   1.758   0.075  10.865
 3292SOL    HW210557   1.707   0.000  10.986
 3293SOL     OW10558   1.816   3.913  10.549
 3293SOL    HW110559   1.821   3.822  10.579
 3293SOL    HW210560   1.822   3.907  10.454
 3294SOL     OW10561   1.440   3.931  10.427
 3294SOL    HW110562   1.472   3.853  10.472
 3294SOL    HW210563   1.382   3.973  10.490
 3295SOL     OW10564   1.017   3.736  10.456
 3295SOL    HW110565   0.959   3.682  10.403
 3295SOL    HW210566   1.102   3.693  10.452
 3296SOL     OW10567   1.354   3.770   9.474
 3296SOL    HW110568   1.388   3.701   9.417
 3296SOL    HW210569   1.266   3.740   9.497
 3297SOL     OW10570   1.280   0.162   9.992
 3297SOL    HW110571   1.284   0.258   9.997
 3297SOL    HW210572   1.285   0.133  10.083
 3298SOL     OW10573   1.580   3.926  10.190
 3298SOL    HW110574   1.531   3.931  10.272
 3298SOL    HW210575   1.581   0.015  10.157
 3299SOL     OW10576   0.234   3.944  12.132
 3299SOL    HW110577   0.256   3.958  12.224
 3299SOL    HW210578   0.140   3.962  12.127
 3300SOL     OW10579   0.009   0.107  11.794
 3300SOL    HW110580   3.924   0.087  11.834
 3300SOL    HW210581   0.014   0.047  11.720
 3301SOL     OW10582   1.777   0.319  11.360
 3301SOL    HW110583   1.704   0.295  11.303
 3301SOL    HW210584   1.735   0.338  11.444
 3302SOL     OW10585   0.440   0.096  12.682
 3302SOL    HW110586   0.511   0.058  12.630
 3302SOL    HW210587   0.363   0.044  12.658
 3303SOL     OW10588   1.594   3.850  12.632
 3303SOL    HW110589   1.603   3.936  12.590
 3303SOL    HW210590   1.577   3.870  12.724
 3304SOL     OW10591   0.806   3.730  11.679
 3304SOL    HW110592   0.833   3.821  11.672
 3304SOL    HW210593   0.711   3.732  11.688
 3305SOL     OW10594   1.266   0.062  12.110
 3305SOL    HW110595   1.194   0.008  12.078
 3305SOL    HW210596   1.323   0.001  12.157
 3306SOL     OW10597   0.556   3.905  12.064
 3306SOL    HW110598   0.553   3.925  12.157
 3306SOL    HW210599   0.551   3.990  12.021
 3307SOL     OW10600   0.190   3.977  12.670
 3307SOL    HW110601   0.101   0.011  12.675
 3307SOL    HW210602   0.186   3.893  12.715
 3308SOL     OW10603   1.408   3.830  11.606
 3308SOL    HW110604   1.399   3.798  11.517
 3308SOL    HW210605   1.501   3.824  11.625
 3309SOL     OW10606   1.533   3.938  12.894
 3309SOL    HW110607   1.557   3.943  12.987
 3309SOL    HW210608   1.463   3.872  12.891
 3310SOL     OW10609   0.628   3.850  11.300
 3310SOL    HW110610   0.719   3.820  11.299
 3310SOL    HW210611   0.586   3.800  11.229
 3311SOL     OW10612   0.771   3.953  12.914
 3311SOL    HW110613   0.828   3.927  12.987
 3311SOL    HW210614   0.686   3.968  12.955
 3312SOL     OW10615   0.535   3.785  11.687
 3312SOL    HW110616   0.484   3.785  11.768
 3312SOL    HW210617   0.543   3.877  11.663
 3313SOL     OW10618   0.287   3.760  11.349
 3313SOL    HW110619   0.327   3.846  11.343
 3313SOL    HW210620   0.353   3.705  11.391
 3314SOL     OW10621   0.563   3.944  12.340
 3314SOL    HW110622   0.606   3.875  12.392
 3314SOL    HW210623   0.471   3.941  12.368
 3315SOL     OW10624   1.021   3.766  11.903
 3315SOL    HW110625   0.955   3.754  11.835
 3315SOL    HW210626   0.997   3.702  11.971
 3316SOL     OW10627   0.924   3.802  12.568
 3316SOL    HW110628   0.953   3.781  12.479
 3316SOL    HW210629   0.998   3.850  12.607
 3317SOL     OW10630   1.267   0.073  12.438
 3317SOL    HW110631   1.278   0.142  12.503
 3317SOL    HW210632   1.200   0.106  12.378
 3318SOL     OW10633   0.507   3.751  12.929
 3318SOL    HW110634   0.453   3.705  12.864
 3318SOL    HW210635   0.478   3.842  12.924
 3319SOL     OW10636   0.303   3.924  12.427
 3319SOL    HW110637   0.256   3.941  12.508
 3319SOL    HW210638   0.289   3.831  12.410
 3320SOL     OW10639   1.577   3.952  11.291
 3320SOL    HW110640   1.518   3.896  11.341
 3320SOL    HW210641   1.610   0.015  11.355
 3321SOL     OW10642   1.163   3.920  12.645
 3321SOL    HW110643   1.167   3.995  12.704
 3321SOL    HW210644   1.206   3.951  12.565
 3322SOL     OW10645   0.901   3.811  11.273
 3322SOL    HW110646   0.958   3.767  11.211
 3322SOL    HW210647   0.943   3.798  11.358
 3323SOL     OW10648   1.708   3.856  11.666
 3323SOL    HW110649   1.786   3.842  11.613
 3323SOL    HW210650   1.698   3.774  11.715
 3324SOL     OW10651   1.836   3.878  12.145
 3324SOL    HW110652   1.871   3.796  12.112
 3324SOL    HW210653   1.757   3.893  12.094
 3325SOL     OW10654   0.679   3.908  12.660
 3325SOL    HW110655   0.762   3.898  12.614
 3325SOL    HW210656   0.703   3.931  12.750
 3326SOL     OW10657   0.072   0.022  11.161
 3326SOL    HW110658   3.977   0.023  11.174
 3326SOL    HW210659   0.100   0.110  11.183
 3327SOL     OW10660   0.108   3.919  11.543
 3327SOL    HW110661   0.082   0.002  11.503
 3327SOL    HW210662   0.187   3.894  11.497
 3328SOL     OW10663   1.196   0.012  11.636
 3328SOL    HW110664   1.263   3.943  11.637
 3328SOL    HW210665   1.215   0.065  11.713
 3329SOL     OW10666   1.786   0.039  12.810
 3329SOL    HW110667   1.757   0.074  12.726
 3329SOL    HW210668   1.707   0.000  12.848
 3330SOL     OW10669   1.816   3.913  12.411
 3330SOL    HW110670   1.821   3.822  12.441
 3330SOL    HW210671   1.822   3.907  12.316
 3331SOL     OW10672   1.440   3.931  12.289
 3331SOL    HW110673   1.472   3.853  12.334
 3331SOL    HW210674   1.382   3.973  12.352
 3332SOL     OW10675   1.017   3.736  12.318
 3332SOL    HW110676   0.959   3.682  12.265
 3332SOL    HW210677   1.102   3.693  12.313
 3333SOL     OW10678   1.354   3.770  11.336
 3333SOL    HW110679   1.388   3.701  11.279
 3333SOL    HW210680   1.266   3.740  11.359
 3334SOL     OW10681   1.280   0.162  11.854
 3334SOL    HW110682   1.284   0.258  11.859
 3334SOL    HW210683   1.285   0.133  11.945
 3335SOL     OW10684   1.580   3.926  12.052
 3335SOL    HW110685   1.531   3.931  12.134
 3335SOL    HW210686   1.581   0.015  12.019
 3336SOL     OW10687   0.010   0.102  13.642
 3336SOL    HW110688   3.916   0.090  13.652
 3336SOL    HW210689   0.033   0.048  13.567
 3337SOL     OW10690   1.776   0.320  13.222
 3337SOL    HW110691   1.702   0.299  13.166
 3337SOL    HW210692   1.739   0.328  13.310
 3338SOL     OW10693   1.613   0.171  13.767
 3338SOL    HW110694   1.525   0.144  13.740
 3338SOL    HW210695   1.604   0.263  13.791
 3339SOL     OW10696   0.809   3.731  13.540
 3339SOL    HW110697   0.832   3.824  13.534
 3339SOL    HW210698   0.714   3.730  13.550
 3340SOL     OW10699   1.406   3.833  13.464
 3340SOL    HW110700   1.400   3.799  13.375
 3340SOL    HW210701   1.498   3.827  13.486
 3341SOL     OW10702   0.626   3.851  13.160
 3341SOL    HW110703   0.717   3.821  13.163
 3341SOL    HW210704   0.586   3.800  13.090
 3342SOL     OW10705   0.536   3.777  13.549
 3342SOL    HW110706   0.487   3.765  13.631
 3342SOL    HW210707   0.537   3.872  13.537
 3343SOL     OW10708   0.286   3.760  13.213
 3343SOL    HW110709   0.335   3.841  13.198
 3343SOL    HW210710   0.349   3.702  13.256
 3344SOL     OW10711   1.011   3.761  13.770
 3344SOL    HW110712   0.954   3.755  13.693
 3344SOL    HW210713   0.991   3.682  13.821
 3345SOL     OW10714   1.576   3.958  13.155
 3345SOL    HW110715   1.526   3.894  13.206
 3345SOL    HW210716   1.630   0.003  13.220
 3346SOL     OW10717   0.900   3.812  13.136
 3346SOL    HW110718   0.957   3.767  13.073
 3346SOL    HW210719   0.941   3.796  13.221
 3347SOL     OW10720   1.731   3.859  13.557
 3347SOL    HW110721   1.797   3.845  13.489
 3347SOL    HW210722   1.711   3.772  13.591
 3348SOL     OW10723   1.848   3.897   0.055
 3348SOL    HW110724   1.872   3.805   0.052
 3348SOL    HW210725   1.757   3.898   0.086
 3349SOL     OW10726   0.073   0.019  13.024
 3349SOL    HW110727   3.978   0.021  13.037
 3349SOL    HW210728   0.102   0.107  13.048
 3350SOL     OW10729   0.114   3.928  13.412
 3350SOL    HW110730   0.089   0.002  13.357
 3350SOL    HW210731   0.188   3.887  13.366
 3351SOL     OW10732   1.189   0.002  13.519
 3351SOL    HW110733   1.261   3.943  13.498
 3351SOL    HW210734   1.223   0.058  13.588
 3352SOL     OW10735   1.355   3.769  13.196
 3352SOL    HW110736   1.388   3.699  13.140
 3352SOL    HW210737   1.267   3.741  13.221
 3353SOL     OW10738   1.313   0.154  13.736
 3353SOL    HW110739   1.283   0.244  13.719
 3353SOL    HW210740   1.292   0.140  13.829
 3354SOL     OW10741   2.096   0.647   0.117
 3354SOL    HW110742   2.010   0.615   0.143
 3354SOL    HW210743   2.114   0.600   0.035
 3355SOL     OW10744   2.077   0.302   0.993
 3355SOL    HW110745   2.115   0.258   1.069
 3355SOL    HW210746   1.993   0.259   0.980
 3356SOL     OW10747   1.872   0.401   0.632
 3356SOL    HW110748   1.784   0.413   0.669
 3356SOL    HW210749   1.861   0.328   0.570
 3357SOL     OW10750   2.431   1.293   1.180
 3357SOL    HW110751   2.344   1.297   1.139
 3357SOL    HW210752   2.448   1.382   1.210
 3358SOL     OW10753   3.429   1.514   0.708
 3358SOL    HW110754   3.384   1.490   0.789
 3358SOL    HW210755   3.359   1.516   0.642
 3359SOL     OW10756   2.995   0.698   0.696
 3359SOL    HW110757   3.043   0.780   0.684
 3359SOL    HW210758   2.947   0.709   0.778
 3360SOL     OW10759   3.620   0.631   0.222
 3360SOL    HW110760   3.625   0.622   0.127
 3360SOL    HW210761   3.633   0.542   0.255
 3361SOL     OW10762   2.612   1.139   1.045
 3361SOL    HW110763   2.545   1.176   1.102
 3361SOL    HW210764   2.650   1.215   1.001
 3362SOL     OW10765   2.734   0.767   1.824
 3362SOL    HW110766   2.720   0.838   1.887
 3362SOL    HW210767   2.756   0.812   1.743
 3363SOL     OW10768   2.547   0.997   0.646
 3363SOL    HW110769   2.613   0.989   0.715
 3363SOL    HW210770   2.479   1.052   0.685
 3364SOL     OW10771   2.575   1.149   1.816
 3364SOL    HW110772   2.623   1.227   1.847
 3364SOL    HW210773   2.494   1.184   1.779
 3365SOL     OW10774   2.194   1.414   1.069
 3365SOL    HW110775   2.117   1.381   1.023
 3365SOL    HW210776   2.240   1.467   1.003
 3366SOL     OW10777   3.320   1.502   1.359
 3366SOL    HW110778   3.375   1.580   1.368
 3366SOL    HW210779   3.255   1.511   1.428
 3367SOL     OW10780   2.308   0.392   1.491
 3367SOL    HW110781   2.399   0.363   1.492
 3367SOL    HW210782   2.257   0.311   1.500
 3368SOL     OW10783   3.472   0.450   0.735
 3368SOL    HW110784   3.407   0.488   0.676
 3368SOL    HW210785   3.495   0.521   0.794
 3369SOL     OW10786   2.111   1.696   0.474
 3369SOL    HW110787   2.144   1.765   0.531
 3369SOL    HW210788   2.175   1.690   0.404
 3370SOL     OW10789   2.999   1.342   1.694
 3370SOL    HW110790   3.041   1.336   1.780
 3370SOL    HW210791   2.947   1.263   1.687
 3371SOL     OW10792   2.075   1.434   0.531
 3371SOL    HW110793   2.078   1.530   0.526
 3371SOL    HW210794   2.021   1.416   0.608
 3372SOL     OW10795   2.125   1.090   0.889
 3372SOL    HW110796   2.121   1.003   0.928
 3372SOL    HW210797   2.069   1.144   0.945
 3373SOL     OW10798   2.469   1.793   1.426
 3373SOL    HW110799   2.389   1.774   1.476
 3373SOL    HW210800   2.495   1.880   1.455
 3374SOL     OW10801   2.426   0.979   0.165
 3374SOL    HW110802   2.461   1.017   0.084
 3374SOL    HW210803   2.479   1.019   0.235
 3375SOL     OW10804   3.445   0.142   1.456
 3375SOL    HW110805   3.472   0.214   1.399
 3375SOL    HW210806   3.405   0.185   1.532
 3376SOL     OW10807   1.980   0.657   0.559
 3376SOL    HW110808   1.952   0.569   0.582
 3376SOL    HW210809   1.972   0.707   0.640
 3377SOL     OW10810   3.709   1.756   0.332
 3377SOL    HW110811   3.772   1.721   0.395
 3377SOL    HW210812   3.728   1.850   0.329
 3378SOL     OW10813   1.901   1.591   0.105
 3378SOL    HW110814   1.901   1.497   0.124
 3378SOL    HW210815   1.868   1.631   0.186
 3379SOL     OW10816   3.549   0.918   0.650
 3379SOL    HW110817   3.633   0.874   0.633
 3379SOL    HW210818   3.532   0.968   0.571
 3380SOL     OW10819   3.507   1.102   0.434
 3380SOL    HW110820   3.592   1.110   0.392
 3380SOL    HW210821   3.509   1.167   0.505
 3381SOL     OW10822   1.985   0.750   1.579
 3381SOL    HW110823   2.075   0.783   1.583
 3381SOL    HW210824   1.931   0.829   1.585
 3382SOL     OW10825   2.478   1.388   0.734
 3382SOL    HW110826   2.432   1.304   0.742
 3382SOL    HW210827   2.461   1.415   0.644
 3383SOL     OW10828   3.148   1.237   1.422
 3383SOL    HW110829   3.180   1.170   1.361
 3383SOL    HW210830   3.208   1.232   1.497
 3384SOL     OW10831   2.685   0.004   0.521
 3384SOL    HW110832   2.730   0.084   0.494
 3384SOL    HW210833   2.592   0.027   0.520
 3385SOL     OW10834   2.051   0.961   1.277
 3385SOL    HW110835   2.136   0.922   1.262
 3385SOL    HW210836   1.991   0.912   1.220
 3386SOL     OW10837   3.391   0.998   0.206
 3386SOL    HW110838   3.323   0.940   0.240
 3386SOL    HW210839   3.432   1.036   0.285
 3387SOL     OW10840   3.045   1.810   1.624
 3387SOL    HW110841   3.054   1.870   1.550
 3387SOL    HW210842   3.064   1.724   1.588
 3388SOL     OW10843   2.221   0.251   1.847
 3388SOL    HW110844   2.266   0.336   1.847
 3388SOL    HW210845   2.128   0.273   1.848
 3389SOL     OW10846   3.328   1.420   0.948
 3389SOL    HW110847   3.261   1.435   1.015
 3389SOL    HW210848   3.317   1.328   0.923
 3390SOL     OW10849   3.520   1.748   0.584
 3390SOL    HW110850   3.497   1.723   0.495
 3390SOL    HW210851   3.500   1.670   0.636
 3391SOL     OW10852   2.457   0.716   0.268
 3391SOL    HW110853   2.458   0.799   0.221
 3391SOL    HW210854   2.396   0.730   0.341
 3392SOL     OW10855   3.137   0.371   0.940
 3392SOL    HW110856   3.049   0.332   0.948
 3392SOL    HW210857   3.194   0.309   0.985
 3393SOL     OW10858   3.428   1.729   0.315
 3393SOL    HW110859   3.524   1.730   0.311
 3393SOL    HW210860   3.400   1.697   0.229
 3394SOL     OW10861   2.657   0.616   1.451
 3394SOL    HW110862   2.629   0.589   1.539
 3394SOL    HW210863   2.621   0.549   1.393
 3395SOL     OW10864   3.254   0.476   1.677
 3395SOL    HW110865   3.260   0.521   1.761
 3395SOL    HW210866   3.310   0.399   1.688
 3396SOL     OW10867   2.813   0.887   1.585
 3396SOL    HW110868   2.868   0.818   1.548
 3396SOL    HW210869   2.765   0.922   1.511
 3397SOL     OW10870   2.855   0.402   1.237
 3397SOL    HW110871   2.770   0.421   1.274
 3397SOL    HW210872   2.836   0.375   1.147
 3398SOL     OW10873   2.914   0.703   0.428
 3398SOL    HW110874   2.932   0.695   0.522
 3398SOL    HW210875   2.831   0.657   0.416
 3399SOL     OW10876   1.950   0.824   0.775
 3399SOL    HW110877   2.030   0.815   0.827
 3399SOL    HW210878   1.905   0.900   0.812
 3400SOL     OW10879   2.736   0.361   0.222
 3400SOL    HW110880   2.772   0.419   0.155
 3400SOL    HW210881   2.738   0.274   0.182
 3401SOL     OW10882   3.568   0.573   1.830
 3401SOL    HW110883   3.532   0.647   1.782
 3401SOL    HW210884   3.594   0.511   1.762
 3402SOL     OW10885   3.240   1.141   0.542
 3402SOL    HW110886   3.319   1.130   0.490
 3402SOL    HW210887   3.188   1.205   0.493
 3403SOL     OW10888   2.421   0.199   0.881
 3403SOL    HW110889   2.423   0.219   0.974
 3403SOL    HW210890   2.417   0.284   0.838
 3404SOL     OW10891   2.863   1.440   0.475
 3404SOL    HW110892   2.834   1.515   0.423
 3404SOL    HW210893   2.840   1.462   0.565
 3405SOL     OW10894   2.219   1.798   0.863
 3405SOL    HW110895   2.254   1.710   0.873
 3405SOL    HW210896   2.287   1.856   0.897
 3406SOL     OW10897   3.668   1.062   0.869
 3406SOL    HW110898   3.615   1.035   0.794
 3406SOL    HW210899   3.606   1.065   0.942
 3407SOL     OW10900   3.088   1.540   1.514
 3407SOL    HW110901   3.076   1.468   1.575
 3407SOL    HW210902   3.024   1.523   1.445
 3408SOL     OW10903   2.168   0.937   0.232
 3408SOL    HW110904   2.261   0.949   0.208
 3408SOL    HW210905   2.155   0.843   0.226
 3409SOL     OW10906   3.340   0.751   0.730
 3409SOL    HW110907   3.337   0.708   0.816
 3409SOL    HW210908   3.418   0.806   0.734
 3410SOL     OW10909   2.332   1.265   1.739
 3410SOL    HW110910   2.306   1.268   1.647
 3410SOL    HW210911   2.249   1.262   1.787
 3411SOL     OW10912   2.984   1.781   0.227
 3411SOL    HW110913   2.922   1.734   0.283
 3411SOL    HW210914   3.015   1.716   0.164
 3412SOL     OW10915   2.030   0.274   1.500
 3412SOL    HW110916   1.977   0.353   1.487
 3412SOL    HW210917   2.035   0.263   1.595
 3413SOL     OW10918   3.494   1.375   0.091
 3413SOL    HW110919   3.463   1.459   0.058
 3413SOL    HW210920   3.424   1.314   0.069
 3414SOL     OW10921   2.342   1.718   0.330
 3414SOL    HW110922   2.381   1.791   0.379
 3414SOL    HW210923   2.406   1.698   0.262
 3415SOL     OW10924   3.299   0.137   0.390
 3415SOL    HW110925   3.255   0.053   0.405
 3415SOL    HW210926   3.383   0.129   0.434
 3416SOL     OW10927   2.153   1.763   1.217
 3416SOL    HW110928   2.193   1.682   1.246
 3416SOL    HW210929   2.111   1.741   1.134
 3417SOL     OW10930   2.799   1.699   0.898
 3417SOL    HW110931   2.879   1.650   0.919
 3417SOL    HW210932   2.758   1.648   0.828
 3418SOL     OW10933   2.256   0.695   0.471
 3418SOL    HW110934   2.276   0.603   0.486
 3418SOL    HW210935   2.163   0.703   0.494
 3419SOL     OW10936   3.392   0.228   1.727
 3419SOL    HW110937   3.383   0.253   1.819
 3419SOL    HW210938   3.377   0.134   1.726
 3420SOL     OW10939   2.482   0.104   0.120
 3420SOL    HW110940   2.578   0.103   0.127
 3420SOL    HW210941   2.465   0.132   0.029
 3421SOL     OW10942   2.636   0.283   1.771
 3421SOL    HW110943   2.711   0.224   1.773
 3421SOL    HW210944   2.580   0.253   1.843
 3422SOL     OW10945   2.738   1.523   1.194
 3422SOL    HW110946   2.722   1.486   1.107
 3422SOL    HW210947   2.808   1.468   1.231
 3423SOL     OW10948   3.201   0.587   1.431
 3423SOL    HW110949   3.232   0.559   1.517
 3423SOL    HW210950   3.235   0.676   1.421
 3424SOL     OW10951   2.680   1.391   0.944
 3424SOL    HW110952   2.765   1.379   0.901
 3424SOL    HW210953   2.617   1.396   0.871
 3425SOL     OW10954   2.792   0.512   0.899
 3425SOL    HW110955   2.767   0.504   0.807
 3425SOL    HW210956   2.817   0.423   0.925
 3426SOL     OW10957   2.411   0.052   0.500
 3426SOL    HW110958   2.335   0.058   0.558
 3426SOL    HW210959   2.403   0.128   0.442
 3427SOL     OW10960   3.291   1.207   0.043
 3427SOL    HW110961   3.309   1.128   0.093
 3427SOL    HW210962   3.200   1.229   0.065
 3428SOL     OW10963   2.202   0.008   0.188
 3428SOL    HW110964   2.171   0.087   0.144
 3428SOL    HW210965   2.291   0.030   0.217
 3429SOL     OW10966   2.806   0.250   0.466
 3429SOL    HW110967   2.774   0.289   0.384
 3429SOL    HW210968   2.902   0.252   0.458
 3430SOL     OW10969   2.942   0.685   1.458
 3430SOL    HW110970   2.872   0.619   1.464
 3430SOL    HW210971   3.022   0.634   1.453
 3431SOL     OW10972   3.081   1.573   0.796
 3431SOL    HW110973   3.097   1.637   0.727
 3431SOL    HW210974   3.152   1.586   0.858
 3432SOL     OW10975   2.333   1.152   0.727
 3432SOL    HW110976   2.266   1.132   0.792
 3432SOL    HW210977   2.289   1.140   0.643
 3433SOL     OW10978   3.127   1.794   0.610
 3433SOL    HW110979   3.177   1.857   0.557
 3433SOL    HW210980   3.059   1.847   0.652
 3434SOL     OW10981   2.859   0.531   0.051
 3434SOL    HW110982   2.857   0.525  13.856
 3434SOL    HW210983   2.950   0.548   0.073
 3435SOL     OW10984   1.945   0.549   1.396
 3435SOL    HW110985   2.036   0.552   1.367
 3435SOL    HW210986   1.938   0.622   1.458
 3436SOL     OW10987   2.425   0.231   1.161
 3436SOL    HW110988   2.448   0.139   1.170
 3436SOL    HW210989   2.335   0.236   1.194
 3437SOL     OW10990   2.732   0.462   0.638
 3437SOL    HW110991   2.688   0.516   0.573
 3437SOL    HW210992   2.753   0.381   0.591
 3438SOL     OW10993   2.859   0.039   0.780
 3438SOL    HW110994   2.816   0.068   0.699
 3438SOL    HW210995   2.870   3.945   0.768
 3439SOL     OW10996   3.302   1.161   0.858
 3439SOL    HW110997   3.230   1.098   0.855
 3439SOL    HW210998   3.328   1.171   0.766
 3440SOL     OW10999   3.325   0.609   0.972
 3440SOL    HW111000   3.271   0.530   0.977
 3440SOL    HW211001   3.385   0.601   1.047
 3441SOL     OW11002   3.725   0.825   0.374
 3441SOL    HW111003   3.763   0.768   0.440
 3441SOL    HW211004   3.679   0.766   0.314
 3442SOL     OW11005   2.348   1.408   0.154
 3442SOL    HW111006   2.275   1.374   0.206
 3442SOL    HW211007   2.333   1.373   0.066
 3443SOL     OW11008   3.529   1.264   0.646
 3443SOL    HW111009   3.625   1.267   0.655
 3443SOL    HW211010   3.501   1.354   0.658
 3444SOL     OW11011   3.284   0.591   0.088
 3444SOL    HW111012   3.215   0.579   0.153
 3444SOL    HW211013   3.333   0.508   0.090
 3445SOL     OW11014   2.379   0.255   0.324
 3445SOL    HW111015   2.422   0.209   0.251
 3445SOL    HW211016   2.356   0.340   0.288
 3446SOL     OW11017   3.613   1.233   1.563
 3446SOL    HW111018   3.700   1.198   1.546
 3446SOL    HW211019   3.628   1.323   1.593
 3447SOL     OW11020   2.918   1.354   1.333
 3447SOL    HW111021   2.842   1.322   1.383
 3447SOL    HW211022   2.993   1.312   1.374
 3448SOL     OW11023   3.468   1.629   1.657
 3448SOL    HW111024   3.460   1.663   1.568
 3448SOL    HW211025   3.548   1.576   1.655
 3449SOL     OW11026   2.995   1.208   1.103
 3449SOL    HW111027   2.934   1.246   1.167
 3449SOL    HW211028   2.965   1.242   1.019
 3450SOL     OW11029   3.488   1.095   1.075
 3450SOL    HW111030   3.479   1.157   1.147
 3450SOL    HW211031   3.413   1.112   1.018
 3451SOL     OW11032   2.774   0.118   1.401
 3451SOL    HW111033   2.794   0.089   1.312
 3451SOL    HW211034   2.854   0.159   1.431
 3452SOL     OW11035   2.846   1.115   1.724
 3452SOL    HW111036   2.755   1.132   1.747
 3452SOL    HW211037   2.843   1.037   1.669
 3453SOL     OW11038   2.578   1.060   0.378
 3453SOL    HW111039   2.563   1.040   0.470
 3453SOL    HW211040   2.652   1.004   0.353
 3454SOL     OW11041   2.283   0.817   1.251
 3454SOL    HW111042   2.352   0.825   1.318
 3454SOL    HW211043   2.248   0.729   1.264
 3455SOL     OW11044   3.128   0.375   1.277
 3455SOL    HW111045   3.162   0.453   1.321
 3455SOL    HW211046   3.040   0.400   1.247
 3456SOL     OW11047   1.935   1.578   1.354
 3456SOL    HW111048   1.900   1.642   1.291
 3456SOL    HW211049   2.030   1.579   1.340
 3457SOL     OW11050   2.204   1.115   0.486
 3457SOL    HW111051   2.202   1.186   0.422
 3457SOL    HW211052   2.212   1.035   0.433
 3458SOL     OW11053   2.415   0.529   0.857
 3458SOL    HW111054   2.428   0.589   0.783
 3458SOL    HW211055   2.480   0.557   0.921
 3459SOL     OW11056   3.110   1.347   0.398
 3459SOL    HW111057   3.166   1.420   0.425
 3459SOL    HW211058   3.023   1.370   0.431
 3460SOL     OW11059   3.148   1.460   1.148
 3460SOL    HW111060   3.204   1.465   1.226
 3460SOL    HW211061   3.094   1.383   1.162
 3461SOL     OW11062   3.436   0.633   0.493
 3461SOL    HW111063   3.393   0.693   0.554
 3461SOL    HW211064   3.471   0.690   0.424
 3462SOL     OW11065   2.214   1.514   1.315
 3462SOL    HW111066   2.200   1.470   1.232
 3462SOL    HW211067   2.309   1.525   1.321
 3463SOL     OW11068   2.281   0.745   1.603
 3463SOL    HW111069   2.342   0.789   1.544
 3463SOL    HW211070   2.322   0.660   1.621
 3464SOL     OW11071   3.467   0.779   1.685
 3464SOL    HW111072   3.382   0.822   1.679
 3464SOL    HW211073   3.520   0.822   1.617
 3465SOL     OW11074   2.872   0.136   1.781
 3465SOL    HW111075   2.926   0.207   1.745
 3465SOL    HW211076   2.857   0.077   1.707
 3466SOL     OW11077   2.351   0.034   1.761
 3466SOL    HW111078   2.352   0.049   1.666
 3466SOL    HW211079   2.292   0.101   1.795
 3467SOL     OW11080   2.445   0.875   1.031
 3467SOL    HW111081   2.477   0.965   1.035
 3467SOL    HW211082   2.389   0.866   1.108
 3468SOL     OW11083   3.212   0.859   1.024
 3468SOL    HW111084   3.127   0.845   0.983
 3468SOL    HW211085   3.257   0.774   1.016
 3469SOL     OW11086   3.079   0.552   0.266
 3469SOL    HW111087   3.086   0.472   0.318
 3469SOL    HW211088   3.022   0.609   0.317
 3470SOL     OW11089   2.160   0.209   1.244
 3470SOL    HW111090   2.118   0.237   1.325
 3470SOL    HW211091   2.150   0.113   1.243
 3471SOL     OW11092   1.906   1.313   1.277
 3471SOL    HW111093   1.940   1.258   1.347
 3471SOL    HW211094   1.914   1.402   1.312
 3472SOL     OW11095   2.583   0.632   1.051
 3472SOL    HW111096   2.660   0.619   0.994
 3472SOL    HW211097   2.554   0.721   1.032
 3473SOL     OW11098   3.594   0.957   1.864
 3473SOL    HW111099   3.552   0.893   1.806
 3473SOL    HW211100   3.529   0.973   1.933
 3474SOL     OW11101   2.185   0.055   0.654
 3474SOL    HW111102   2.165   0.148   0.665
 3474SOL    HW211103   2.150   0.013   0.733
 3475SOL     OW11104   3.435   0.389   0.390
 3475SOL    HW111105   3.417   0.329   0.462
 3475SOL    HW211106   3.430   0.476   0.430
 3476SOL     OW11107   2.892   0.759   0.958
 3476SOL    HW111108   2.884   0.776   1.052
 3476SOL    HW211109   2.864   0.668   0.947
 3477SOL     OW11110   2.844   1.567   1.720
 3477SOL    HW111111   2.829   1.610   1.636
 3477SOL    HW211112   2.887   1.484   1.697
 3478SOL     OW11113   3.704   1.496   1.597
 3478SOL    HW111114   3.728   1.527   1.510
 3478SOL    HW211115   3.784   1.506   1.649
 3479SOL     OW11116   2.214   0.915   1.809
 3479SOL    HW111117   2.295   0.935   1.856
 3479SOL    HW211118   2.240   0.853   1.742
 3480SOL     OW11119   3.382   0.275   0.144
 3480SOL    HW111120   3.324   0.198   0.148
 3480SOL    HW211121   3.390   0.304   0.234
 3481SOL     OW11122   3.150   0.832   0.056
 3481SOL    HW111123   3.197   0.749   0.061
 3481SOL    HW211124   3.167   0.864  13.867
 3482SOL     OW11125   2.930   1.337   0.856
 3482SOL    HW111126   2.934   1.266   0.793
 3482SOL    HW211127   2.989   1.404   0.821
 3483SOL     OW11128   2.170   0.810   0.945
 3483SOL    HW111129   2.263   0.831   0.940
 3483SOL    HW211130   2.167   0.720   0.977
 3484SOL     OW11131   2.198   0.538   1.014
 3484SOL    HW111132   2.156   0.453   1.000
 3484SOL    HW211133   2.274   0.537   0.956
 3485SOL     OW11134   2.995   0.380   1.698
 3485SOL    HW111135   2.946   0.434   1.760
 3485SOL    HW211136   3.081   0.421   1.693
 3486SOL     OW11137   3.014   0.226   1.481
 3486SOL    HW111138   3.004   0.279   1.560
 3486SOL    HW211139   3.039   0.288   1.413
 3487SOL     OW11140   1.886   1.305   0.172
 3487SOL    HW111141   1.801   1.319   0.129
 3487SOL    HW211142   1.876   1.221   0.217
 3488SOL     OW11143   1.982   1.708   0.981
 3488SOL    HW111144   1.939   1.653   0.916
 3488SOL    HW211145   2.044   1.761   0.931
 3489SOL     OW11146   2.360   1.567   0.909
 3489SOL    HW111147   2.428   1.631   0.932
 3489SOL    HW211148   2.404   1.506   0.850
 3490SOL     OW11149   2.838   0.787   1.223
 3490SOL    HW111150   2.896   0.769   1.297
 3490SOL    HW211151   2.753   0.750   1.249
 3491SOL     OW11152   1.895   0.549   1.117
 3491SOL    HW111153   1.969   0.521   1.062
 3491SOL    HW211154   1.929   0.547   1.206
 3492SOL     OW11155   2.066   0.527   1.712
 3492SOL    HW111156   2.137   0.506   1.652
 3492SOL    HW211157   2.023   0.603   1.672
 3493SOL     OW11158   3.243   0.935   1.657
 3493SOL    HW111159   3.263   1.028   1.654
 3493SOL    HW211160   3.238   0.908   1.565
 3494SOL     OW11161   2.677   0.580   0.377
 3494SOL    HW111162   2.687   0.503   0.322
 3494SOL    HW211163   2.604   0.628   0.338
 3495SOL     OW11164   3.501   0.602   1.182
 3495SOL    HW111165   3.490   0.542   1.255
 3495SOL    HW211166   3.587   0.582   1.146
 3496SOL     OW11167   2.113   1.540   1.706
 3496SOL    HW111168   2.092   1.608   1.770
 3496SOL    HW211169   2.118   1.459   1.758
 3497SOL     OW11170   2.573   0.452   1.254
 3497SOL    HW111171   2.521   0.375   1.230
 3497SOL    HW211172   2.563   0.511   1.180
 3498SOL     OW11173   2.783   1.679   1.471
 3498SOL    HW111174   2.762   1.641   1.386
 3498SOL    HW211175   2.779   1.774   1.456
 3499SOL     OW11176   2.294   0.492   0.229
 3499SOL    HW111177   2.368   0.550   0.243
 3499SOL    HW211178   2.226   0.549   0.193
 3500SOL     OW11179   2.003   1.142   1.473
 3500SOL    HW111180   2.005   1.093   1.556
 3500SOL    HW211181   2.021   1.075   1.406
 3501SOL     OW11182   3.182   1.044   1.221
 3501SOL    HW111183   3.205   0.981   1.153
 3501SOL    HW211184   3.116   1.100   1.181
 3502SOL     OW11185   3.179   0.857   0.328
 3502SOL    HW111186   3.105   0.825   0.379
 3502SOL    HW211187   3.152   0.843   0.237
 3503SOL     OW11188   3.644   1.740   1.159
 3503SOL    HW111189   3.699   1.767   1.085
 3503SOL    HW211190   3.614   1.652   1.134
 3504SOL     OW11191   3.102   1.734   1.108
 3504SOL    HW111192   3.184   1.757   1.065
 3504SOL    HW211193   3.111   1.640   1.128
 3505SOL     OW11194   1.951   1.261   1.015
 3505SOL    HW111195   1.932   1.279   1.107
 3505SOL    HW211196   1.876   1.210   0.984
 3506SOL     OW11197   2.544   1.665   1.733
 3506SOL    HW111198   2.493   1.746   1.730
 3506SOL    HW211199   2.614   1.680   1.669
 3507SOL     OW11200   2.757   0.103   0.132
 3507SOL    HW111201   2.798   0.091   0.047
 3507SOL    HW211202   2.767   0.018   0.175
 3508SOL     OW11203   3.553   0.123   0.484
 3508SOL    HW111204   3.635   0.135   0.436
 3508SOL    HW211205   3.553   0.031   0.509
 3509SOL     OW11206   3.252   1.572   0.487
 3509SOL    HW111207   3.315   1.606   0.424
 3509SOL    HW211208   3.205   1.649   0.518
 3510SOL     OW11209   2.026   1.740   1.863
 3510SOL    HW111210   1.964   1.689   1.916
 3510SOL    HW211211   2.008   1.831   1.886
 3511SOL     OW11212   3.137   0.928   0.671
 3511SOL    HW111213   3.212   0.869   0.684
 3511SOL    HW211214   3.172   1.000   0.618
 3512SOL     OW11215   2.670   1.275   1.425
 3512SOL    HW111216   2.642   1.315   1.508
 3512SOL    HW211217   2.599   1.295   1.364
 3513SOL     OW11218   2.544   1.588   0.181
 3513SOL    HW111219   2.531   1.629   0.096
 3513SOL    HW211220   2.486   1.512   0.181
 3514SOL     OW11221   3.480   1.727   1.391
 3514SOL    HW111222   3.537   1.732   1.314
 3514SOL    HW211223   3.467   1.819   1.416
 3515SOL     OW11224   3.705   0.182   0.970
 3515SOL    HW111225   3.729   0.097   0.933
 3515SOL    HW211226   3.618   0.200   0.933
 3516SOL     OW11227   2.124   0.316   0.716
 3516SOL    HW111228   2.038   0.351   0.694
 3516SOL    HW211229   2.123   0.308   0.812
 3517SOL     OW11230   3.081   1.600   0.036
 3517SOL    HW111231   3.070   1.508   0.062
 3517SOL    HW211232   3.044   1.605  13.848
 3518SOL     OW11233   2.686   1.006   1.374
 3518SOL    HW111234   2.728   1.001   1.288
 3518SOL    HW211235   2.683   1.099   1.394
 3519SOL     OW11236   2.784   0.910   0.288
 3519SOL    HW111237   2.853   0.951   0.237
 3519SOL    HW211238   2.828   0.841   0.337
 3520SOL     OW11239   3.346   1.649   0.067
 3520SOL    HW111240   3.253   1.628   0.058
 3520SOL    HW211241   3.382   1.635  13.879
 3521SOL     OW11242   2.232   1.297   1.493
 3521SOL    HW111243   2.220   1.375   1.440
 3521SOL    HW211244   2.153   1.244   1.478
 3522SOL     OW11245   3.462   1.280   1.276
 3522SOL    HW111246   3.530   1.271   1.343
 3522SOL    HW211247   3.405   1.349   1.310
 3523SOL     OW11248   2.919   1.109   0.709
 3523SOL    HW111249   2.848   1.058   0.747
 3523SOL    HW211250   2.984   1.044   0.682
 3524SOL     OW11251   2.877   0.249   0.970
 3524SOL    HW111252   2.867   0.199   0.889
 3524SOL    HW211253   2.874   0.184   1.040
 3525SOL     OW11254   2.469   1.489   0.481
 3525SOL    HW111255   2.513   1.438   0.413
 3525SOL    HW211256   2.406   1.543   0.433
 3526SOL     OW11257   3.583   0.395   1.371
 3526SOL    HW111258   3.655   0.457   1.371
 3526SOL    HW211259   3.614   0.322   1.317
 3527SOL     OW11260   2.133   1.319   0.298
 3527SOL    HW111261   2.050   1.328   0.251
 3527SOL    HW211262   2.119   1.365   0.381
 3528SOL     OW11263   1.976   1.029   1.723
 3528SOL    HW111264   1.899   1.003   1.774
 3528SOL    HW211265   2.050   0.987   1.767
 3529SOL     OW11266   2.557   0.260   1.503
 3529SOL    HW111267   2.622   0.204   1.462
 3529SOL    HW211268   2.583   0.264   1.595
 3530SOL     OW11269   1.901   0.442   0.007
 3530SOL    HW111270   1.869   0.354   0.026
 3530SOL    HW211271   1.898   0.449  13.812
 3531SOL     OW11272   3.286   0.856   1.397
 3531SOL    HW111273   3.236   0.918   1.344
 3531SOL    HW211274   3.374   0.859   1.361
 3532SOL     OW11275   1.943   0.145   0.370
 3532SOL    HW111276   1.915   0.227   0.330
 3532SOL    HW211277   2.029   0.128   0.334
 3533SOL     OW11278   3.049   1.344   0.122
 3533SOL    HW111279   2.954   1.336   0.111
 3533SOL    HW211280   3.063   1.332   0.216
 3534SOL     OW11281   2.484   0.829   1.434
 3534SOL    HW111282   2.540   0.904   1.419
 3534SOL    HW211283   2.544   0.755   1.443
 3535SOL     OW11284   3.344   1.784   0.981
 3535SOL    HW111285   3.367   1.847   0.913
 3535SOL    HW211286   3.428   1.752   1.015
 3536SOL     OW11287   2.580   0.560   1.704
 3536SOL    HW111288   2.623   0.622   1.763
 3536SOL    HW211289   2.604   0.474   1.738
 3537SOL     OW11290   3.335   1.196   1.629
 3537SOL    HW111291   3.324   1.211   1.723
 3537SOL    HW211292   3.428   1.212   1.613
 3538SOL     OW11293   2.235   1.746   1.567
 3538SOL    HW111294   2.165   1.764   1.504
 3538SOL    HW211295   2.209   1.664   1.608
 3539SOL     OW11296   3.525   0.880   1.259
 3539SOL    HW111297   3.525   0.795   1.215
 3539SOL    HW211298   3.518   0.944   1.188
 3540SOL     OW11299   3.092   0.335   0.432
 3540SOL    HW111300   3.155   0.263   0.427
 3540SOL    HW211301   3.108   0.375   0.518
 3541SOL     OW11302   2.449   0.735   0.672
 3541SOL    HW111303   2.489   0.821   0.658
 3541SOL    HW211304   2.383   0.727   0.603
 3542SOL     OW11305   3.616   0.381   1.642
 3542SOL    HW111306   3.595   0.390   1.549
 3542SOL    HW211307   3.555   0.314   1.673
 3543SOL     OW11308   3.617   0.930   1.513
 3543SOL    HW111309   3.606   1.023   1.531
 3543SOL    HW211310   3.592   0.920   1.421
 3544SOL     OW11311   2.772   1.399   0.068
 3544SOL    HW111312   2.706   1.384   0.135
 3544SOL    HW211313   2.724   1.399  13.885
 3545SOL     OW11314   2.522   1.791   0.939
 3545SOL    HW111315   2.507   1.882   0.914
 3545SOL    HW211316   2.617   1.780   0.932
 3546SOL     OW11317   2.731   0.969   0.854
 3546SOL    HW111318   2.781   0.897   0.892
 3546SOL    HW211319   2.693   1.015   0.929
 3547SOL     OW11320   2.958   1.015   0.112
 3547SOL    HW111321   2.949   1.060   0.028
 3547SOL    HW211322   3.032   0.955   0.099
 3548SOL     OW11323   3.713   1.555   0.840
 3548SOL    HW111324   3.633   1.541   0.789
 3548SOL    HW211325   3.709   1.489   0.909
 3549SOL     OW11326   2.089   1.300   1.854
 3549SOL    HW111327   2.023   1.237   1.826
 3549SOL    HW211328   2.073   1.312   1.948
 3550SOL     OW11329   1.943   1.217   0.666
 3550SOL    HW111330   1.960   1.173   0.749
 3550SOL    HW211331   2.019   1.196   0.612
 3551SOL     OW11332   2.544   1.405   1.628
 3551SOL    HW111333   2.466   1.362   1.663
 3551SOL    HW211334   2.542   1.493   1.666
 3552SOL     OW11335   3.675   0.181   1.244
 3552SOL    HW111336   3.677   0.086   1.253
 3552SOL    HW211337   3.694   0.197   1.151
 3553SOL     OW11338   2.294   0.436   0.533
 3553SOL    HW111339   2.326   0.364   0.479
 3553SOL    HW211340   2.244   0.393   0.603
 3554SOL     OW11341   3.557   1.490   1.095
 3554SOL    HW111342   3.479   1.468   1.044
 3554SOL    HW211343   3.566   1.419   1.158
 3555SOL     OW11344   2.195   0.557   1.295
 3555SOL    HW111345   2.247   0.497   1.349
 3555SOL    HW211346   2.214   0.530   1.205
 3556SOL     OW11347   2.693   1.578   0.677
 3556SOL    HW111348   2.676   1.642   0.608
 3556SOL    HW211349   2.617   1.519   0.674
 3557SOL     OW11350   3.322   0.253   1.110
 3557SOL    HW111351   3.336   0.165   1.145
 3557SOL    HW211352   3.267   0.297   1.175
 3558SOL     OW11353   2.865   0.026   1.146
 3558SOL    HW111354   2.783   3.996   1.108
 3558SOL    HW211355   2.918   3.946   1.155
 3559SOL     OW11356   2.638   1.323   0.320
 3559SOL    HW111357   2.610   1.233   0.338
 3559SOL    HW211358   2.720   1.333   0.370
 3560SOL     OW11359   2.483   1.554   1.286
 3560SOL    HW111360   2.483   1.637   1.334
 3560SOL    HW211361   2.572   1.547   1.250
 3561SOL     OW11362   3.179   0.067   0.123
 3561SOL    HW111363   3.196   3.976   0.097
 3561SOL    HW211364   3.118   0.059   0.197
 3562SOL     OW11365   3.140   0.454   0.682
 3562SOL    HW111366   3.094   0.538   0.676
 3562SOL    HW211367   3.145   0.436   0.776
 3563SOL     OW11368   3.453   0.210   0.867
 3563SOL    HW111369   3.404   0.233   0.947
 3563SOL    HW211370   3.451   0.290   0.814
 3564SOL     OW11371   1.902   1.069   0.311
 3564SOL    HW111372   1.998   1.066   0.310
 3564SOL    HW211373   1.876   0.980   0.331
 3565SOL     OW11374   2.761   1.655   0.341
 3565SOL    HW111375   2.684   1.628   0.291
 3565SOL    HW211376   2.731   1.727   0.395
 3566SOL     OW11377   2.087   0.619   1.983
 3566SOL    HW111378   1.997   0.628   2.015
 3566SOL    HW211379   2.078   0.599   1.890
 3567SOL     OW11380   2.078   0.302   2.854
 3567SOL    HW111381   2.116   0.258   2.930
 3567SOL    HW211382   1.993   0.259   2.841
 3568SOL     OW11383   1.871   0.399   2.494
 3568SOL    HW111384   1.784   0.414   2.532
 3568SOL    HW211385   1.856   0.330   2.429
 3569SOL     OW11386   2.431   1.293   3.042
 3569SOL    HW111387   2.345   1.298   3.001
 3569SOL    HW211388   2.448   1.382   3.073
 3570SOL     OW11389   3.428   1.513   2.570
 3570SOL    HW111390   3.385   1.491   2.653
 3570SOL    HW211391   3.357   1.518   2.507
 3571SOL     OW11392   2.995   0.698   2.557
 3571SOL    HW111393   3.042   0.781   2.545
 3571SOL    HW211394   2.947   0.710   2.640
 3572SOL     OW11395   3.625   0.624   2.087
 3572SOL    HW111396   3.606   0.612   1.994
 3572SOL    HW211397   3.605   0.539   2.127
 3573SOL     OW11398   2.612   1.139   2.907
 3573SOL    HW111399   2.545   1.176   2.965
 3573SOL    HW211400   2.650   1.215   2.863
 3574SOL     OW11401   2.734   0.767   3.686
 3574SOL    HW111402   2.720   0.837   3.749
 3574SOL    HW211403   2.756   0.812   3.605
 3575SOL     OW11404   2.548   0.999   2.506
 3575SOL    HW111405   2.614   0.990   2.576
 3575SOL    HW211406   2.479   1.052   2.545
 3576SOL     OW11407   2.575   1.149   3.678
 3576SOL    HW111408   2.622   1.227   3.709
 3576SOL    HW211409   2.494   1.184   3.641
 3577SOL     OW11410   2.195   1.414   2.930
 3577SOL    HW111411   2.118   1.380   2.885
 3577SOL    HW211412   2.240   1.468   2.865
 3578SOL     OW11413   3.320   1.502   3.221
 3578SOL    HW111414   3.375   1.580   3.230
 3578SOL    HW211415   3.254   1.511   3.290
 3579SOL     OW11416   2.308   0.392   3.353
 3579SOL    HW111417   2.399   0.363   3.353
 3579SOL    HW211418   2.257   0.311   3.362
 3580SOL     OW11419   3.472   0.450   2.597
 3580SOL    HW111420   3.404   0.483   2.539
 3580SOL    HW211421   3.492   0.523   2.656
 3581SOL     OW11422   2.102   1.696   2.327
 3581SOL    HW111423   2.133   1.763   2.388
 3581SOL    HW211424   2.173   1.686   2.264
 3582SOL     OW11425   2.999   1.342   3.556
 3582SOL    HW111426   3.041   1.336   3.643
 3582SOL    HW211427   2.947   1.263   3.549
 3583SOL     OW11428   2.089   1.433   2.398
 3583SOL    HW111429   2.081   1.529   2.393
 3583SOL    HW211430   2.028   1.408   2.467
 3584SOL     OW11431   2.125   1.091   2.753
 3584SOL    HW111432   2.121   1.003   2.791
 3584SOL    HW211433   2.068   1.144   2.808
 3585SOL     OW11434   2.469   1.793   3.289
 3585SOL    HW111435   2.389   1.774   3.338
 3585SOL    HW211436   2.495   1.880   3.317
 3586SOL     OW11437   2.442   0.984   2.000
 3586SOL    HW111438   2.491   1.030   1.931
 3586SOL    HW211439   2.482   1.016   2.082
 3587SOL     OW11440   3.445   0.142   3.318
 3587SOL    HW111441   3.472   0.214   3.261
 3587SOL    HW211442   3.405   0.185   3.394
 3588SOL     OW11443   1.980   0.658   2.423
 3588SOL    HW111444   1.953   0.569   2.446
 3588SOL    HW211445   1.972   0.707   2.504
 3589SOL     OW11446   3.703   1.757   2.197
 3589SOL    HW111447   3.773   1.733   2.258
 3589SOL    HW211448   3.720   1.849   2.176
 3590SOL     OW11449   1.863   1.602   2.028
 3590SOL    HW111450   1.851   1.509   2.010
 3590SOL    HW211451   1.892   1.604   2.120
 3591SOL     OW11452   3.550   0.918   2.510
 3591SOL    HW111453   3.634   0.875   2.493
 3591SOL    HW211454   3.533   0.968   2.430
 3592SOL     OW11455   3.504   1.103   2.294
 3592SOL    HW111456   3.589   1.109   2.250
 3592SOL    HW211457   3.510   1.167   2.365
 3593SOL     OW11458   1.985   0.750   3.441
 3593SOL    HW111459   2.075   0.783   3.445
 3593SOL    HW211460   1.931   0.829   3.447
 3594SOL     OW11461   2.478   1.388   2.596
 3594SOL    HW111462   2.432   1.304   2.605
 3594SOL    HW211463   2.460   1.416   2.506
 3595SOL     OW11464   3.148   1.237   3.284
 3595SOL    HW111465   3.180   1.170   3.223
 3595SOL    HW211466   3.208   1.232   3.359
 3596SOL     OW11467   2.683   0.006   2.380
 3596SOL    HW111468   2.728   0.085   2.353
 3596SOL    HW211469   2.590   0.029   2.379
 3597SOL     OW11470   2.050   0.961   3.139
 3597SOL    HW111471   2.136   0.922   3.124
 3597SOL    HW211472   1.991   0.913   3.082
 3598SOL     OW11473   3.390   0.997   2.063
 3598SOL    HW111474   3.320   0.940   2.097
 3598SOL    HW211475   3.432   1.032   2.141
 3599SOL     OW11476   3.045   1.810   3.486
 3599SOL    HW111477   3.054   1.870   3.412
 3599SOL    HW211478   3.064   1.724   3.450
 3600SOL     OW11479   2.221   0.251   3.709
 3600SOL    HW111480   2.266   0.336   3.709
 3600SOL    HW211481   2.128   0.273   3.710
 3601SOL     OW11482   3.329   1.420   2.810
 3601SOL    HW111483   3.262   1.436   2.877
 3601SOL    HW211484   3.317   1.328   2.785
 3602SOL     OW11485   3.514   1.749   2.441
 3602SOL    HW111486   3.499   1.715   2.352
 3602SOL    HW211487   3.495   1.674   2.498
 3603SOL     OW11488   2.457   0.719   2.131
 3603SOL    HW111489   2.460   0.803   2.085
 3603SOL    HW211490   2.392   0.733   2.200
 3604SOL     OW11491   3.136   0.370   2.803
 3604SOL    HW111492   3.049   0.332   2.811
 3604SOL    HW211493   3.194   0.309   2.848
 3605SOL     OW11494   3.439   1.672   2.172
 3605SOL    HW111495   3.530   1.700   2.166
 3605SOL    HW211496   3.412   1.656   2.082
 3606SOL     OW11497   2.658   0.615   3.313
 3606SOL    HW111498   2.629   0.589   3.401
 3606SOL    HW211499   2.621   0.549   3.255
 3607SOL     OW11500   3.254   0.476   3.539
 3607SOL    HW111501   3.260   0.521   3.623
 3607SOL    HW211502   3.310   0.399   3.550
 3608SOL     OW11503   2.813   0.887   3.447
 3608SOL    HW111504   2.868   0.819   3.410
 3608SOL    HW211505   2.765   0.923   3.373
 3609SOL     OW11506   2.855   0.402   3.099
 3609SOL    HW111507   2.770   0.421   3.137
 3609SOL    HW211508   2.836   0.375   3.009
 3610SOL     OW11509   2.915   0.700   2.286
 3610SOL    HW111510   2.932   0.693   2.380
 3610SOL    HW211511   2.831   0.654   2.274
 3611SOL     OW11512   1.949   0.823   2.639
 3611SOL    HW111513   2.029   0.815   2.691
 3611SOL    HW211514   1.905   0.900   2.675
 3612SOL     OW11515   2.757   0.353   2.062
 3612SOL    HW111516   2.800   0.412   2.000
 3612SOL    HW211517   2.748   0.271   2.014
 3613SOL     OW11518   3.568   0.573   3.692
 3613SOL    HW111519   3.531   0.647   3.644
 3613SOL    HW211520   3.594   0.511   3.624
 3614SOL     OW11521   3.239   1.141   2.401
 3614SOL    HW111522   3.319   1.130   2.350
 3614SOL    HW211523   3.188   1.204   2.351
 3615SOL     OW11524   2.421   0.199   2.742
 3615SOL    HW111525   2.423   0.218   2.836
 3615SOL    HW211526   2.416   0.285   2.700
 3616SOL     OW11527   2.863   1.442   2.332
 3616SOL    HW111528   2.831   1.517   2.281
 3616SOL    HW211529   2.841   1.464   2.422
 3617SOL     OW11530   2.220   1.802   2.725
 3617SOL    HW111531   2.255   1.714   2.736
 3617SOL    HW211532   2.288   1.860   2.758
 3618SOL     OW11533   3.668   1.062   2.730
 3618SOL    HW111534   3.615   1.035   2.655
 3618SOL    HW211535   3.606   1.065   2.803
 3619SOL     OW11536   3.088   1.540   3.376
 3619SOL    HW111537   3.076   1.468   3.437
 3619SOL    HW211538   3.024   1.523   3.307
 3620SOL     OW11539   2.179   0.961   2.115
 3620SOL    HW111540   2.262   0.980   2.071
 3620SOL    HW211541   2.150   0.878   2.078
 3621SOL     OW11542   3.343   0.748   2.590
 3621SOL    HW111543   3.338   0.708   2.676
 3621SOL    HW211544   3.420   0.805   2.594
 3622SOL     OW11545   2.332   1.265   3.601
 3622SOL    HW111546   2.305   1.268   3.509
 3622SOL    HW211547   2.249   1.262   3.649
 3623SOL     OW11548   2.986   1.778   2.090
 3623SOL    HW111549   2.911   1.737   2.135
 3623SOL    HW211550   3.010   1.715   2.023
 3624SOL     OW11551   2.030   0.274   3.362
 3624SOL    HW111552   1.977   0.353   3.349
 3624SOL    HW211553   2.034   0.263   3.457
 3625SOL     OW11554   3.487   1.384   1.949
 3625SOL    HW111555   3.443   1.468   1.935
 3625SOL    HW211556   3.419   1.319   1.929
 3626SOL     OW11557   2.343   1.709   2.198
 3626SOL    HW111558   2.382   1.785   2.241
 3626SOL    HW211559   2.397   1.693   2.121
 3627SOL     OW11560   3.298   0.173   2.264
 3627SOL    HW111561   3.250   0.098   2.229
 3627SOL    HW211562   3.373   0.134   2.309
 3628SOL     OW11563   2.154   1.766   3.080
 3628SOL    HW111564   2.194   1.684   3.109
 3628SOL    HW211565   2.109   1.744   2.999
 3629SOL     OW11566   2.799   1.699   2.760
 3629SOL    HW111567   2.879   1.650   2.781
 3629SOL    HW211568   2.758   1.648   2.690
 3630SOL     OW11569   2.258   0.695   2.335
 3630SOL    HW111570   2.275   0.602   2.348
 3630SOL    HW211571   2.164   0.705   2.353
 3631SOL     OW11572   3.392   0.228   3.589
 3631SOL    HW111573   3.383   0.253   3.681
 3631SOL    HW211574   3.377   0.134   3.588
 3632SOL     OW11575   2.506   0.128   1.971
 3632SOL    HW111576   2.527   0.043   2.010
 3632SOL    HW211577   2.444   0.108   1.901
 3633SOL     OW11578   2.636   0.283   3.633
 3633SOL    HW111579   2.711   0.224   3.635
 3633SOL    HW211580   2.580   0.253   3.705
 3634SOL     OW11581   2.738   1.523   3.056
 3634SOL    HW111582   2.722   1.486   2.970
 3634SOL    HW211583   2.808   1.468   3.093
 3635SOL     OW11584   3.201   0.587   3.293
 3635SOL    HW111585   3.232   0.559   3.379
 3635SOL    HW211586   3.235   0.676   3.283
 3636SOL     OW11587   2.679   1.391   2.806
 3636SOL    HW111588   2.764   1.380   2.763
 3636SOL    HW211589   2.617   1.396   2.734
 3637SOL     OW11590   2.792   0.512   2.761
 3637SOL    HW111591   2.767   0.503   2.669
 3637SOL    HW211592   2.818   0.423   2.787
 3638SOL     OW11593   2.406   0.056   2.352
 3638SOL    HW111594   2.332   0.061   2.413
 3638SOL    HW211595   2.402   0.137   2.301
 3639SOL     OW11596   3.289   1.200   1.902
 3639SOL    HW111597   3.319   1.125   1.953
 3639SOL    HW211598   3.204   1.222   1.939
 3640SOL     OW11599   2.192   0.045   2.074
 3640SOL    HW111600   2.199   0.110   2.004
 3640SOL    HW211601   2.273   0.055   2.124
 3641SOL     OW11602   2.806   0.251   2.321
 3641SOL    HW111603   2.781   0.290   2.237
 3641SOL    HW211604   2.901   0.256   2.322
 3642SOL     OW11605   2.942   0.685   3.320
 3642SOL    HW111606   2.872   0.620   3.326
 3642SOL    HW211607   3.022   0.634   3.315
 3643SOL     OW11608   3.082   1.572   2.657
 3643SOL    HW111609   3.097   1.637   2.589
 3643SOL    HW211610   3.152   1.587   2.720
 3644SOL     OW11611   2.334   1.152   2.591
 3644SOL    HW111612   2.266   1.132   2.656
 3644SOL    HW211613   2.291   1.137   2.507
 3645SOL     OW11614   3.128   1.792   2.473
 3645SOL    HW111615   3.176   1.853   2.418
 3645SOL    HW211616   3.060   1.846   2.514
 3646SOL     OW11617   2.883   0.541   1.892
 3646SOL    HW111618   2.839   0.624   1.872
 3646SOL    HW211619   2.947   0.563   1.960
 3647SOL     OW11620   1.945   0.549   3.259
 3647SOL    HW111621   2.036   0.552   3.229
 3647SOL    HW211622   1.938   0.622   3.320
 3648SOL     OW11623   2.424   0.231   3.022
 3648SOL    HW111624   2.448   0.139   3.032
 3648SOL    HW211625   2.335   0.236   3.056
 3649SOL     OW11626   2.732   0.460   2.499
 3649SOL    HW111627   2.685   0.515   2.436
 3649SOL    HW211628   2.753   0.381   2.451
 3650SOL     OW11629   2.859   0.038   2.643
 3650SOL    HW111630   2.820   0.069   2.561
 3650SOL    HW211631   2.870   3.944   2.631
 3651SOL     OW11632   3.303   1.161   2.720
 3651SOL    HW111633   3.230   1.098   2.718
 3651SOL    HW211634   3.328   1.170   2.628
 3652SOL     OW11635   3.325   0.609   2.834
 3652SOL    HW111636   3.271   0.531   2.839
 3652SOL    HW211637   3.385   0.602   2.909
 3653SOL     OW11638   3.722   0.825   2.237
 3653SOL    HW111639   3.763   0.767   2.302
 3653SOL    HW211640   3.684   0.765   2.172
 3654SOL     OW11641   2.354   1.421   2.013
 3654SOL    HW111642   2.279   1.395   2.066
 3654SOL    HW211643   2.344   1.371   1.932
 3655SOL     OW11644   3.530   1.265   2.505
 3655SOL    HW111645   3.625   1.268   2.515
 3655SOL    HW211646   3.501   1.354   2.526
 3656SOL     OW11647   3.257   0.577   1.930
 3656SOL    HW111648   3.193   0.557   1.999
 3656SOL    HW211649   3.342   0.561   1.972
 3657SOL     OW11650   2.388   0.266   2.178
 3657SOL    HW111651   2.444   0.228   2.110
 3657SOL    HW211652   2.359   0.349   2.140
 3658SOL     OW11653   3.613   1.233   3.425
 3658SOL    HW111654   3.700   1.198   3.408
 3658SOL    HW211655   3.628   1.323   3.455
 3659SOL     OW11656   2.918   1.354   3.195
 3659SOL    HW111657   2.842   1.322   3.245
 3659SOL    HW211658   2.993   1.312   3.236
 3660SOL     OW11659   3.468   1.629   3.519
 3660SOL    HW111660   3.460   1.663   3.430
 3660SOL    HW211661   3.548   1.576   3.517
 3661SOL     OW11662   2.995   1.209   2.965
 3661SOL    HW111663   2.935   1.246   3.029
 3661SOL    HW211664   2.965   1.242   2.881
 3662SOL     OW11665   3.489   1.095   2.936
 3662SOL    HW111666   3.479   1.157   3.008
 3662SOL    HW211667   3.413   1.112   2.880
 3663SOL     OW11668   2.774   0.118   3.263
 3663SOL    HW111669   2.794   0.089   3.174
 3663SOL    HW211670   2.854   0.159   3.294
 3664SOL     OW11671   2.846   1.115   3.586
 3664SOL    HW111672   2.755   1.132   3.609
 3664SOL    HW211673   2.843   1.037   3.531
 3665SOL     OW11674   2.571   1.063   2.233
 3665SOL    HW111675   2.557   1.044   2.325
 3665SOL    HW211676   2.647   1.009   2.209
 3666SOL     OW11677   2.283   0.817   3.114
 3666SOL    HW111678   2.352   0.825   3.180
 3666SOL    HW211679   2.248   0.729   3.126
 3667SOL     OW11680   3.128   0.375   3.139
 3667SOL    HW111681   3.162   0.453   3.183
 3667SOL    HW211682   3.041   0.400   3.109
 3668SOL     OW11683   1.936   1.578   3.216
 3668SOL    HW111684   1.902   1.641   3.153
 3668SOL    HW211685   2.030   1.578   3.202
 3669SOL     OW11686   2.205   1.114   2.352
 3669SOL    HW111687   2.210   1.189   2.293
 3669SOL    HW211688   2.202   1.038   2.294
 3670SOL     OW11689   2.415   0.530   2.718
 3670SOL    HW111690   2.428   0.590   2.645
 3670SOL    HW211691   2.480   0.557   2.783
 3671SOL     OW11692   3.109   1.349   2.252
 3671SOL    HW111693   3.165   1.420   2.283
 3671SOL    HW211694   3.022   1.370   2.286
 3672SOL     OW11695   3.149   1.460   3.010
 3672SOL    HW111696   3.204   1.464   3.088
 3672SOL    HW211697   3.094   1.383   3.024
 3673SOL     OW11698   3.432   0.633   2.349
 3673SOL    HW111699   3.390   0.687   2.416
 3673SOL    HW211700   3.479   0.696   2.294
 3674SOL     OW11701   2.214   1.516   3.177
 3674SOL    HW111702   2.200   1.471   3.093
 3674SOL    HW211703   2.308   1.526   3.183
 3675SOL     OW11704   2.281   0.745   3.465
 3675SOL    HW111705   2.342   0.789   3.406
 3675SOL    HW211706   2.322   0.660   3.483
 3676SOL     OW11707   3.467   0.779   3.547
 3676SOL    HW111708   3.382   0.822   3.541
 3676SOL    HW211709   3.520   0.822   3.479
 3677SOL     OW11710   2.872   0.136   3.643
 3677SOL    HW111711   2.926   0.206   3.607
 3677SOL    HW211712   2.857   0.077   3.569
 3678SOL     OW11713   2.351   0.034   3.623
 3678SOL    HW111714   2.352   0.049   3.528
 3678SOL    HW211715   2.292   0.101   3.657
 3679SOL     OW11716   2.446   0.874   2.894
 3679SOL    HW111717   2.477   0.965   2.896
 3679SOL    HW211718   2.389   0.866   2.970
 3680SOL     OW11719   3.212   0.859   2.886
 3680SOL    HW111720   3.127   0.845   2.845
 3680SOL    HW211721   3.257   0.775   2.878
 3681SOL     OW11722   3.061   0.538   2.118
 3681SOL    HW111723   3.069   0.459   2.171
 3681SOL    HW211724   3.018   0.601   2.175
 3682SOL     OW11725   2.160   0.209   3.105
 3682SOL    HW111726   2.118   0.237   3.186
 3682SOL    HW211727   2.150   0.113   3.105
 3683SOL     OW11728   1.906   1.313   3.139
 3683SOL    HW111729   1.940   1.257   3.209
 3683SOL    HW211730   1.914   1.402   3.174
 3684SOL     OW11731   2.583   0.631   2.913
 3684SOL    HW111732   2.660   0.620   2.856
 3684SOL    HW211733   2.553   0.721   2.895
 3685SOL     OW11734   3.594   0.957   3.726
 3685SOL    HW111735   3.552   0.893   3.668
 3685SOL    HW211736   3.529   0.973   3.795
 3686SOL     OW11737   2.185   0.055   2.516
 3686SOL    HW111738   2.165   0.148   2.527
 3686SOL    HW211739   2.154   0.014   2.596
 3687SOL     OW11740   3.475   0.394   2.240
 3687SOL    HW111741   3.434   0.325   2.293
 3687SOL    HW211742   3.454   0.475   2.286
 3688SOL     OW11743   2.892   0.759   2.820
 3688SOL    HW111744   2.884   0.776   2.914
 3688SOL    HW211745   2.865   0.668   2.809
 3689SOL     OW11746   2.844   1.567   3.582
 3689SOL    HW111747   2.829   1.610   3.498
 3689SOL    HW211748   2.887   1.484   3.559
 3690SOL     OW11749   3.704   1.496   3.459
 3690SOL    HW111750   3.728   1.527   3.372
 3690SOL    HW211751   3.784   1.506   3.511
 3691SOL     OW11752   2.214   0.915   3.672
 3691SOL    HW111753   2.295   0.935   3.718
 3691SOL    HW211754   2.240   0.853   3.604
 3692SOL     OW11755   3.361   0.273   1.995
 3692SOL    HW111756   3.288   0.211   2.005
 3692SOL    HW211757   3.373   0.311   2.082
 3693SOL     OW11758   3.149   0.827   1.890
 3693SOL    HW111759   3.191   0.741   1.893
 3693SOL    HW211760   3.182   0.866   1.809
 3694SOL     OW11761   2.930   1.338   2.719
 3694SOL    HW111762   2.934   1.266   2.655
 3694SOL    HW211763   2.989   1.404   2.683
 3695SOL     OW11764   2.169   0.810   2.808
 3695SOL    HW111765   2.263   0.831   2.801
 3695SOL    HW211766   2.167   0.720   2.840
 3696SOL     OW11767   2.198   0.537   2.876
 3696SOL    HW111768   2.157   0.452   2.861
 3696SOL    HW211769   2.274   0.537   2.818
 3697SOL     OW11770   2.995   0.380   3.560
 3697SOL    HW111771   2.946   0.434   3.622
 3697SOL    HW211772   3.081   0.421   3.555
 3698SOL     OW11773   3.014   0.226   3.343
 3698SOL    HW111774   3.004   0.279   3.422
 3698SOL    HW211775   3.039   0.288   3.275
 3699SOL     OW11776   1.867   1.316   2.055
 3699SOL    HW111777   1.779   1.329   2.018
 3699SOL    HW211778   1.865   1.227   2.090
 3700SOL     OW11779   1.985   1.711   2.849
 3700SOL    HW111780   1.941   1.656   2.784
 3700SOL    HW211781   2.046   1.764   2.798
 3701SOL     OW11782   2.359   1.569   2.771
 3701SOL    HW111783   2.427   1.632   2.793
 3701SOL    HW211784   2.402   1.508   2.711
 3702SOL     OW11785   2.838   0.787   3.085
 3702SOL    HW111786   2.896   0.769   3.159
 3702SOL    HW211787   2.753   0.751   3.111
 3703SOL     OW11788   1.895   0.548   2.979
 3703SOL    HW111789   1.969   0.523   2.924
 3703SOL    HW211790   1.929   0.547   3.068
 3704SOL     OW11791   2.066   0.527   3.574
 3704SOL    HW111792   2.138   0.507   3.514
 3704SOL    HW211793   2.022   0.603   3.534
 3705SOL     OW11794   3.243   0.935   3.519
 3705SOL    HW111795   3.264   1.028   3.516
 3705SOL    HW211796   3.238   0.909   3.427
 3706SOL     OW11797   2.679   0.572   2.228
 3706SOL    HW111798   2.685   0.497   2.168
 3706SOL    HW211799   2.604   0.622   2.195
 3707SOL     OW11800   3.501   0.602   3.043
 3707SOL    HW111801   3.490   0.542   3.117
 3707SOL    HW211802   3.587   0.582   3.007
 3708SOL     OW11803   2.113   1.539   3.568
 3708SOL    HW111804   2.093   1.608   3.631
 3708SOL    HW211805   2.118   1.459   3.620
 3709SOL     OW11806   2.573   0.451   3.116
 3709SOL    HW111807   2.521   0.375   3.092
 3709SOL    HW211808   2.563   0.511   3.042
 3710SOL     OW11809   2.783   1.679   3.333
 3710SOL    HW111810   2.762   1.641   3.248
 3710SOL    HW211811   2.779   1.774   3.318
 3711SOL     OW11812   2.324   0.494   2.043
 3711SOL    HW111813   2.382   0.566   2.068
 3711SOL    HW211814   2.238   0.535   2.031
 3712SOL     OW11815   2.003   1.142   3.335
 3712SOL    HW111816   2.005   1.093   3.418
 3712SOL    HW211817   2.021   1.076   3.268
 3713SOL     OW11818   3.182   1.044   3.083
 3713SOL    HW111819   3.205   0.981   3.014
 3713SOL    HW211820   3.116   1.100   3.043
 3714SOL     OW11821   3.177   0.854   2.166
 3714SOL    HW111822   3.101   0.827   2.218
 3714SOL    HW211823   3.148   0.843   2.075
 3715SOL     OW11824   3.644   1.740   3.021
 3715SOL    HW111825   3.699   1.768   2.947
 3715SOL    HW211826   3.614   1.653   2.996
 3716SOL     OW11827   3.102   1.734   2.970
 3716SOL    HW111828   3.184   1.757   2.927
 3716SOL    HW211829   3.111   1.640   2.990
 3717SOL     OW11830   1.950   1.263   2.876
 3717SOL    HW111831   1.932   1.280   2.968
 3717SOL    HW211832   1.876   1.210   2.846
 3718SOL     OW11833   2.544   1.666   3.595
 3718SOL    HW111834   2.492   1.746   3.592
 3718SOL    HW211835   2.614   1.680   3.531
 3719SOL     OW11836   3.549   0.119   2.350
 3719SOL    HW111837   3.630   0.135   2.302
 3719SOL    HW211838   3.553   0.026   2.372
 3720SOL     OW11839   3.253   1.567   2.351
 3720SOL    HW111840   3.312   1.601   2.284
 3720SOL    HW211841   3.203   1.644   2.380
 3721SOL     OW11842   2.027   1.740   3.723
 3721SOL    HW111843   1.966   1.691   3.778
 3721SOL    HW211844   2.007   1.832   3.741
 3722SOL     OW11845   3.139   0.927   2.533
 3722SOL    HW111846   3.214   0.868   2.544
 3722SOL    HW211847   3.173   0.999   2.480
 3723SOL     OW11848   2.670   1.275   3.287
 3723SOL    HW111849   2.641   1.315   3.370
 3723SOL    HW211850   2.599   1.295   3.226
 3724SOL     OW11851   2.535   1.623   2.012
 3724SOL    HW111852   2.547   1.634   1.917
 3724SOL    HW211853   2.479   1.546   2.020
 3725SOL     OW11854   3.480   1.727   3.253
 3725SOL    HW111855   3.537   1.732   3.176
 3725SOL    HW211856   3.467   1.819   3.278
 3726SOL     OW11857   3.704   0.182   2.833
 3726SOL    HW111858   3.728   0.097   2.796
 3726SOL    HW211859   3.618   0.201   2.796
 3727SOL     OW11860   2.125   0.315   2.577
 3727SOL    HW111861   2.039   0.350   2.554
 3727SOL    HW211862   2.124   0.309   2.672
 3728SOL     OW11863   3.070   1.603   1.894
 3728SOL    HW111864   3.059   1.511   1.921
 3728SOL    HW211865   3.004   1.616   1.826
 3729SOL     OW11866   2.686   1.006   3.236
 3729SOL    HW111867   2.728   1.002   3.149
 3729SOL    HW211868   2.683   1.099   3.256
 3730SOL     OW11869   2.778   0.911   2.152
 3730SOL    HW111870   2.839   0.944   2.086
 3730SOL    HW211871   2.827   0.843   2.198
 3731SOL     OW11872   3.350   1.630   1.906
 3731SOL    HW111873   3.256   1.620   1.891
 3731SOL    HW211874   3.388   1.635   1.818
 3732SOL     OW11875   2.232   1.297   3.355
 3732SOL    HW111876   2.219   1.375   3.301
 3732SOL    HW211877   2.153   1.245   3.340
 3733SOL     OW11878   3.462   1.280   3.138
 3733SOL    HW111879   3.530   1.271   3.205
 3733SOL    HW211880   3.405   1.349   3.172
 3734SOL     OW11881   2.920   1.110   2.572
 3734SOL    HW111882   2.848   1.059   2.609
 3734SOL    HW211883   2.983   1.044   2.543
 3735SOL     OW11884   2.877   0.249   2.832
 3735SOL    HW111885   2.867   0.199   2.752
 3735SOL    HW211886   2.874   0.184   2.902
 3736SOL     OW11887   2.467   1.489   2.343
 3736SOL    HW111888   2.510   1.440   2.274
 3736SOL    HW211889   2.406   1.547   2.297
 3737SOL     OW11890   3.583   0.395   3.233
 3737SOL    HW111891   3.655   0.457   3.234
 3737SOL    HW211892   3.614   0.322   3.179
 3738SOL     OW11893   2.122   1.344   2.149
 3738SOL    HW111894   2.029   1.339   2.127
 3738SOL    HW211895   2.124   1.379   2.238
 3739SOL     OW11896   1.976   1.029   3.585
 3739SOL    HW111897   1.899   1.003   3.636
 3739SOL    HW211898   2.050   0.987   3.629
 3740SOL     OW11899   2.557   0.260   3.365
 3740SOL    HW111900   2.622   0.204   3.324
 3740SOL    HW211901   2.583   0.264   3.457
 3741SOL     OW11902   1.963   0.317   1.854
 3741SOL    HW111903   1.896   0.336   1.920
 3741SOL    HW211904   1.970   0.397   1.802
 3742SOL     OW11905   3.286   0.856   3.259
 3742SOL    HW111906   3.236   0.918   3.206
 3742SOL    HW211907   3.374   0.859   3.223
 3743SOL     OW11908   1.942   0.151   2.202
 3743SOL    HW111909   1.911   0.209   2.132
 3743SOL    HW211910   2.029   0.124   2.172
 3744SOL     OW11911   3.040   1.336   1.980
 3744SOL    HW111912   2.949   1.305   1.982
 3744SOL    HW211913   3.067   1.337   2.072
 3745SOL     OW11914   2.484   0.829   3.296
 3745SOL    HW111915   2.540   0.904   3.281
 3745SOL    HW211916   2.544   0.755   3.305
 3746SOL     OW11917   3.344   1.783   2.843
 3746SOL    HW111918   3.367   1.847   2.776
 3746SOL    HW211919   3.428   1.753   2.877
 3747SOL     OW11920   2.580   0.560   3.566
 3747SOL    HW111921   2.623   0.622   3.625
 3747SOL    HW211922   2.604   0.474   3.600
 3748SOL     OW11923   3.335   1.196   3.491
 3748SOL    HW111924   3.324   1.211   3.585
 3748SOL    HW211925   3.428   1.212   3.475
 3749SOL     OW11926   2.235   1.746   3.429
 3749SOL    HW111927   2.166   1.762   3.365
 3749SOL    HW211928   2.210   1.663   3.471
 3750SOL     OW11929   3.525   0.880   3.121
 3750SOL    HW111930   3.525   0.795   3.077
 3750SOL    HW211931   3.518   0.944   3.050
 3751SOL     OW11932   3.082   0.339   2.304
 3751SOL    HW111933   3.151   0.273   2.294
 3751SOL    HW211934   3.101   0.382   2.387
 3752SOL     OW11935   2.451   0.735   2.533
 3752SOL    HW111936   2.490   0.821   2.519
 3752SOL    HW211937   2.384   0.727   2.465
 3753SOL     OW11938   3.616   0.381   3.504
 3753SOL    HW111939   3.595   0.390   3.411
 3753SOL    HW211940   3.555   0.314   3.535
 3754SOL     OW11941   3.617   0.930   3.375
 3754SOL    HW111942   3.606   1.023   3.393
 3754SOL    HW211943   3.592   0.920   3.283
 3755SOL     OW11944   2.724   1.366   1.902
 3755SOL    HW111945   2.687   1.392   1.986
 3755SOL    HW211946   2.741   1.448   1.856
 3756SOL     OW11947   2.523   1.791   2.802
 3756SOL    HW111948   2.508   1.882   2.776
 3756SOL    HW211949   2.618   1.779   2.795
 3757SOL     OW11950   2.731   0.970   2.716
 3757SOL    HW111951   2.781   0.898   2.754
 3757SOL    HW211952   2.693   1.015   2.791
 3758SOL     OW11953   2.940   0.990   1.952
 3758SOL    HW111954   2.918   1.041   1.874
 3758SOL    HW211955   3.014   0.935   1.924
 3759SOL     OW11956   3.712   1.556   2.703
 3759SOL    HW111957   3.633   1.540   2.652
 3759SOL    HW211958   3.712   1.488   2.770
 3760SOL     OW11959   2.089   1.300   3.716
 3760SOL    HW111960   2.023   1.237   3.688
 3760SOL    HW211961   2.073   1.312   3.810
 3761SOL     OW11962   1.945   1.222   2.527
 3761SOL    HW111963   1.960   1.178   2.611
 3761SOL    HW211964   2.017   1.192   2.471
 3762SOL     OW11965   2.544   1.405   3.490
 3762SOL    HW111966   2.466   1.362   3.524
 3762SOL    HW211967   2.542   1.493   3.528
 3763SOL     OW11968   3.675   0.181   3.106
 3763SOL    HW111969   3.677   0.086   3.115
 3763SOL    HW211970   3.694   0.197   3.014
 3764SOL     OW11971   2.290   0.435   2.387
 3764SOL    HW111972   2.325   0.363   2.334
 3764SOL    HW211973   2.242   0.391   2.458
 3765SOL     OW11974   3.557   1.491   2.958
 3765SOL    HW111975   3.479   1.468   2.907
 3765SOL    HW211976   3.566   1.419   3.020
 3766SOL     OW11977   2.195   0.557   3.157
 3766SOL    HW111978   2.247   0.497   3.211
 3766SOL    HW211979   2.214   0.530   3.067
 3767SOL     OW11980   2.692   1.578   2.538
 3767SOL    HW111981   2.675   1.641   2.468
 3767SOL    HW211982   2.617   1.519   2.537
 3768SOL     OW11983   3.323   0.254   2.972
 3768SOL    HW111984   3.337   0.166   3.007
 3768SOL    HW211985   3.267   0.297   3.037
 3769SOL     OW11986   2.865   0.026   3.008
 3769SOL    HW111987   2.783   3.996   2.970
 3769SOL    HW211988   2.918   3.947   3.017
 3770SOL     OW11989   2.636   1.333   2.179
 3770SOL    HW111990   2.607   1.243   2.188
 3770SOL    HW211991   2.717   1.338   2.231
 3771SOL     OW11992   2.483   1.555   3.148
 3771SOL    HW111993   2.484   1.637   3.196
 3771SOL    HW211994   2.571   1.548   3.112
 3772SOL     OW11995   3.170   0.070   2.021
 3772SOL    HW111996   3.175   3.984   1.978
 3772SOL    HW211997   3.087   0.069   2.068
 3773SOL     OW11998   3.142   0.456   2.546
 3773SOL    HW111999   3.096   0.540   2.541
 3773SOL    HW212000   3.145   0.437   2.640
 3774SOL     OW12001   3.453   0.210   2.729
 3774SOL    HW112002   3.404   0.234   2.808
 3774SOL    HW212003   3.451   0.289   2.675
 3775SOL     OW12004   1.907   1.068   2.168
 3775SOL    HW112005   2.000   1.060   2.151
 3775SOL    HW212006   1.879   0.980   2.193
 3776SOL     OW12007   2.752   1.656   2.199
 3776SOL    HW112008   2.676   1.642   2.142
 3776SOL    HW212009   2.726   1.729   2.255
 3777SOL     OW12010   2.087   0.619   3.845
 3777SOL    HW112011   1.997   0.628   3.876
 3777SOL    HW212012   2.078   0.599   3.752
 3778SOL     OW12013   2.078   0.302   4.716
 3778SOL    HW112014   2.116   0.258   4.792
 3778SOL    HW212015   1.993   0.259   4.703
 3779SOL     OW12016   1.871   0.399   4.356
 3779SOL    HW112017   1.784   0.414   4.394
 3779SOL    HW212018   1.856   0.330   4.291
 3780SOL     OW12019   2.431   1.293   4.904
 3780SOL    HW112020   2.345   1.299   4.862
 3780SOL    HW212021   2.448   1.382   4.935
 3781SOL     OW12022   3.428   1.513   4.432
 3781SOL    HW112023   3.385   1.491   4.515
 3781SOL    HW212024   3.356   1.518   4.369
 3782SOL     OW12025   2.995   0.698   4.419
 3782SOL    HW112026   3.042   0.780   4.407
 3782SOL    HW212027   2.947   0.710   4.502
 3783SOL     OW12028   3.625   0.624   3.949
 3783SOL    HW112029   3.606   0.612   3.856
 3783SOL    HW212030   3.605   0.539   3.989
 3784SOL     OW12031   2.612   1.139   4.769
 3784SOL    HW112032   2.545   1.176   4.827
 3784SOL    HW212033   2.650   1.215   4.725
 3785SOL     OW12034   2.734   0.767   5.548
 3785SOL    HW112035   2.718   0.838   5.610
 3785SOL    HW212036   2.757   0.811   5.466
 3786SOL     OW12037   2.548   0.998   4.368
 3786SOL    HW112038   2.614   0.990   4.438
 3786SOL    HW212039   2.479   1.052   4.407
 3787SOL     OW12040   2.577   1.150   5.542
 3787SOL    HW112041   2.624   1.227   5.572
 3787SOL    HW212042   2.496   1.184   5.504
 3788SOL     OW12043   2.195   1.414   4.792
 3788SOL    HW112044   2.118   1.381   4.746
 3788SOL    HW212045   2.240   1.469   4.727
 3789SOL     OW12046   3.321   1.502   5.083
 3789SOL    HW112047   3.375   1.580   5.093
 3789SOL    HW212048   3.254   1.511   5.151
 3790SOL     OW12049   2.308   0.392   5.216
 3790SOL    HW112050   2.399   0.363   5.216
 3790SOL    HW212051   2.257   0.311   5.224
 3791SOL     OW12052   3.472   0.450   4.459
 3791SOL    HW112053   3.404   0.483   4.401
 3791SOL    HW212054   3.492   0.523   4.518
 3792SOL     OW12055   2.097   1.695   4.182
 3792SOL    HW112056   2.128   1.762   4.244
 3792SOL    HW212057   2.170   1.685   4.121
 3793SOL     OW12058   2.999   1.342   5.417
 3793SOL    HW112059   3.040   1.337   5.503
 3793SOL    HW212060   2.947   1.262   5.410
 3794SOL     OW12061   2.089   1.434   4.260
 3794SOL    HW112062   2.080   1.529   4.253
 3794SOL    HW212063   2.029   1.408   4.329
 3795SOL     OW12064   2.125   1.091   4.614
 3795SOL    HW112065   2.121   1.003   4.653
 3795SOL    HW212066   2.068   1.144   4.670
 3796SOL     OW12067   2.468   1.793   5.149
 3796SOL    HW112068   2.389   1.773   5.200
 3796SOL    HW212069   2.495   1.880   5.178
 3797SOL     OW12070   2.443   0.984   3.862
 3797SOL    HW112071   2.491   1.030   3.793
 3797SOL    HW212072   2.482   1.016   3.944
 3798SOL     OW12073   3.445   0.142   5.180
 3798SOL    HW112074   3.472   0.214   5.123
 3798SOL    HW212075   3.405   0.185   5.256
 3799SOL     OW12076   1.980   0.658   4.285
 3799SOL    HW112077   1.953   0.569   4.308
 3799SOL    HW212078   1.972   0.707   4.366
 3800SOL     OW12079   3.703   1.757   4.059
 3800SOL    HW112080   3.773   1.733   4.120
 3800SOL    HW212081   3.720   1.849   4.038
 3801SOL     OW12082   1.865   1.603   3.890
 3801SOL    HW112083   1.852   1.510   3.872
 3801SOL    HW212084   1.895   1.606   3.981
 3802SOL     OW12085   3.550   0.918   4.372
 3802SOL    HW112086   3.634   0.875   4.355
 3802SOL    HW212087   3.533   0.968   4.292
 3803SOL     OW12088   3.504   1.103   4.156
 3803SOL    HW112089   3.589   1.109   4.112
 3803SOL    HW212090   3.510   1.167   4.227
 3804SOL     OW12091   1.985   0.751   5.304
 3804SOL    HW112092   2.075   0.784   5.308
 3804SOL    HW212093   1.930   0.829   5.308
 3805SOL     OW12094   2.477   1.389   4.458
 3805SOL    HW112095   2.432   1.305   4.467
 3805SOL    HW212096   2.460   1.416   4.368
 3806SOL     OW12097   3.148   1.237   5.145
 3806SOL    HW112098   3.180   1.169   5.085
 3806SOL    HW212099   3.207   1.232   5.220
 3807SOL     OW12100   2.683   0.006   4.242
 3807SOL    HW112101   2.728   0.085   4.215
 3807SOL    HW212102   2.590   0.029   4.241
 3808SOL     OW12103   2.050   0.961   5.001
 3808SOL    HW112104   2.136   0.922   4.986
 3808SOL    HW212105   1.991   0.913   4.943
 3809SOL     OW12106   3.390   0.997   3.925
 3809SOL    HW112107   3.320   0.940   3.959
 3809SOL    HW212108   3.432   1.032   4.003
 3810SOL     OW12109   3.049   1.811   5.348
 3810SOL    HW112110   3.054   1.870   5.273
 3810SOL    HW212111   3.066   1.724   5.311
 3811SOL     OW12112   2.221   0.251   5.572
 3811SOL    HW112113   2.266   0.335   5.571
 3811SOL    HW212114   2.128   0.273   5.572
 3812SOL     OW12115   3.329   1.420   4.672
 3812SOL    HW112116   3.262   1.435   4.739
 3812SOL    HW212117   3.317   1.328   4.647
 3813SOL     OW12118   3.514   1.749   4.303
 3813SOL    HW112119   3.499   1.715   4.214
 3813SOL    HW212120   3.495   1.674   4.360
 3814SOL     OW12121   2.457   0.719   3.993
 3814SOL    HW112122   2.460   0.803   3.947
 3814SOL    HW212123   2.392   0.733   4.062
 3815SOL     OW12124   3.136   0.370   4.665
 3815SOL    HW112125   3.049   0.332   4.673
 3815SOL    HW212126   3.194   0.309   4.710
 3816SOL     OW12127   3.439   1.672   4.034
 3816SOL    HW112128   3.530   1.701   4.028
 3816SOL    HW212129   3.412   1.656   3.944
 3817SOL     OW12130   2.658   0.615   5.175
 3817SOL    HW112131   2.629   0.589   5.263
 3817SOL    HW212132   2.621   0.549   5.117
 3818SOL     OW12133   3.254   0.476   5.401
 3818SOL    HW112134   3.260   0.521   5.485
 3818SOL    HW212135   3.310   0.399   5.411
 3819SOL     OW12136   2.812   0.887   5.309
 3819SOL    HW112137   2.868   0.819   5.271
 3819SOL    HW212138   2.765   0.923   5.235
 3820SOL     OW12139   2.855   0.402   4.961
 3820SOL    HW112140   2.770   0.421   4.999
 3820SOL    HW212141   2.836   0.376   4.871
 3821SOL     OW12142   2.915   0.700   4.148
 3821SOL    HW112143   2.932   0.693   4.242
 3821SOL    HW212144   2.831   0.654   4.136
 3822SOL     OW12145   1.949   0.823   4.501
 3822SOL    HW112146   2.029   0.815   4.553
 3822SOL    HW212147   1.905   0.900   4.537
 3823SOL     OW12148   2.757   0.353   3.924
 3823SOL    HW112149   2.800   0.412   3.862
 3823SOL    HW212150   2.748   0.271   3.876
 3824SOL     OW12151   3.568   0.573   5.554
 3824SOL    HW112152   3.532   0.647   5.506
 3824SOL    HW212153   3.594   0.511   5.486
 3825SOL     OW12154   3.239   1.141   4.263
 3825SOL    HW112155   3.319   1.130   4.212
 3825SOL    HW212156   3.187   1.204   4.214
 3826SOL     OW12157   2.421   0.199   4.604
 3826SOL    HW112158   2.423   0.218   4.698
 3826SOL    HW212159   2.416   0.285   4.562
 3827SOL     OW12160   2.863   1.442   4.194
 3827SOL    HW112161   2.831   1.517   4.143
 3827SOL    HW212162   2.841   1.464   4.284
 3828SOL     OW12163   2.220   1.805   4.586
 3828SOL    HW112164   2.255   1.717   4.599
 3828SOL    HW212165   2.289   1.863   4.619
 3829SOL     OW12166   3.668   1.062   4.592
 3829SOL    HW112167   3.615   1.035   4.517
 3829SOL    HW212168   3.606   1.065   4.665
 3830SOL     OW12169   3.089   1.540   5.237
 3830SOL    HW112170   3.077   1.468   5.298
 3830SOL    HW212171   3.022   1.526   5.170
 3831SOL     OW12172   2.179   0.961   3.977
 3831SOL    HW112173   2.262   0.980   3.933
 3831SOL    HW212174   2.150   0.878   3.940
 3832SOL     OW12175   3.343   0.748   4.452
 3832SOL    HW112176   3.338   0.708   4.538
 3832SOL    HW212177   3.420   0.805   4.456
 3833SOL     OW12178   2.333   1.264   5.463
 3833SOL    HW112179   2.306   1.269   5.371
 3833SOL    HW212180   2.251   1.260   5.512
 3834SOL     OW12181   2.986   1.778   3.952
 3834SOL    HW112182   2.911   1.737   3.997
 3834SOL    HW212183   3.010   1.715   3.885
 3835SOL     OW12184   2.030   0.274   5.224
 3835SOL    HW112185   1.978   0.353   5.210
 3835SOL    HW212186   2.034   0.264   5.319
 3836SOL     OW12187   3.487   1.384   3.811
 3836SOL    HW112188   3.443   1.468   3.797
 3836SOL    HW212189   3.419   1.319   3.791
 3837SOL     OW12190   2.342   1.708   4.060
 3837SOL    HW112191   2.381   1.784   4.103
 3837SOL    HW212192   2.398   1.693   3.983
 3838SOL     OW12193   3.298   0.173   4.126
 3838SOL    HW112194   3.250   0.098   4.091
 3838SOL    HW212195   3.373   0.134   4.171
 3839SOL     OW12196   2.155   1.767   4.941
 3839SOL    HW112197   2.195   1.685   4.972
 3839SOL    HW212198   2.109   1.742   4.861
 3840SOL     OW12199   2.799   1.699   4.622
 3840SOL    HW112200   2.878   1.650   4.644
 3840SOL    HW212201   2.758   1.648   4.551
 3841SOL     OW12202   2.258   0.695   4.197
 3841SOL    HW112203   2.275   0.602   4.210
 3841SOL    HW212204   2.164   0.705   4.215
 3842SOL     OW12205   3.392   0.228   5.451
 3842SOL    HW112206   3.383   0.253   5.543
 3842SOL    HW212207   3.377   0.134   5.450
 3843SOL     OW12208   2.506   0.128   3.833
 3843SOL    HW112209   2.527   0.043   3.872
 3843SOL    HW212210   2.444   0.108   3.763
 3844SOL     OW12211   2.636   0.283   5.495
 3844SOL    HW112212   2.711   0.223   5.497
 3844SOL    HW212213   2.580   0.253   5.566
 3845SOL     OW12214   2.738   1.523   4.918
 3845SOL    HW112215   2.721   1.485   4.831
 3845SOL    HW212216   2.808   1.468   4.954
 3846SOL     OW12217   3.201   0.587   5.154
 3846SOL    HW112218   3.232   0.559   5.241
 3846SOL    HW212219   3.235   0.676   5.145
 3847SOL     OW12220   2.679   1.391   4.668
 3847SOL    HW112221   2.764   1.380   4.625
 3847SOL    HW212222   2.617   1.396   4.596
 3848SOL     OW12223   2.792   0.512   4.623
 3848SOL    HW112224   2.767   0.503   4.531
 3848SOL    HW212225   2.818   0.423   4.649
 3849SOL     OW12226   2.406   0.056   4.214
 3849SOL    HW112227   2.332   0.061   4.275
 3849SOL    HW212228   2.402   0.137   4.163
 3850SOL     OW12229   3.289   1.200   3.764
 3850SOL    HW112230   3.319   1.125   3.815
 3850SOL    HW212231   3.204   1.222   3.801
 3851SOL     OW12232   2.192   0.045   3.936
 3851SOL    HW112233   2.199   0.110   3.866
 3851SOL    HW212234   2.273   0.055   3.986
 3852SOL     OW12235   2.806   0.251   4.183
 3852SOL    HW112236   2.781   0.290   4.099
 3852SOL    HW212237   2.901   0.256   4.184
 3853SOL     OW12238   2.942   0.685   5.182
 3853SOL    HW112239   2.872   0.620   5.188
 3853SOL    HW212240   3.022   0.634   5.177
 3854SOL     OW12241   3.082   1.572   4.519
 3854SOL    HW112242   3.097   1.637   4.450
 3854SOL    HW212243   3.152   1.587   4.582
 3855SOL     OW12244   2.334   1.152   4.453
 3855SOL    HW112245   2.266   1.132   4.518
 3855SOL    HW212246   2.291   1.138   4.369
 3856SOL     OW12247   3.128   1.792   4.335
 3856SOL    HW112248   3.176   1.854   4.280
 3856SOL    HW212249   3.059   1.845   4.376
 3857SOL     OW12250   2.883   0.541   3.754
 3857SOL    HW112251   2.839   0.623   3.734
 3857SOL    HW212252   2.947   0.563   3.822
 3858SOL     OW12253   1.945   0.549   5.121
 3858SOL    HW112254   2.036   0.552   5.091
 3858SOL    HW212255   1.938   0.622   5.183
 3859SOL     OW12256   2.424   0.231   4.884
 3859SOL    HW112257   2.448   0.138   4.894
 3859SOL    HW212258   2.335   0.236   4.918
 3860SOL     OW12259   2.732   0.460   4.361
 3860SOL    HW112260   2.685   0.515   4.298
 3860SOL    HW212261   2.753   0.381   4.313
 3861SOL     OW12262   2.859   0.038   4.505
 3861SOL    HW112263   2.820   0.069   4.423
 3861SOL    HW212264   2.870   3.944   4.493
 3862SOL     OW12265   3.303   1.160   4.582
 3862SOL    HW112266   3.230   1.099   4.580
 3862SOL    HW212267   3.328   1.170   4.490
 3863SOL     OW12268   3.325   0.609   4.696
 3863SOL    HW112269   3.271   0.531   4.701
 3863SOL    HW212270   3.385   0.602   4.771
 3864SOL     OW12271   3.722   0.825   4.099
 3864SOL    HW112272   3.763   0.767   4.164
 3864SOL    HW212273   3.684   0.765   4.034
 3865SOL     OW12274   2.354   1.421   3.875
 3865SOL    HW112275   2.279   1.395   3.929
 3865SOL    HW212276   2.343   1.371   3.794
 3866SOL     OW12277   3.530   1.265   4.367
 3866SOL    HW112278   3.625   1.268   4.377
 3866SOL    HW212279   3.501   1.354   4.388
 3867SOL     OW12280   3.257   0.577   3.792
 3867SOL    HW112281   3.193   0.557   3.861
 3867SOL    HW212282   3.342   0.562   3.834
 3868SOL     OW12283   2.388   0.266   4.040
 3868SOL    HW112284   2.444   0.228   3.972
 3868SOL    HW212285   2.359   0.349   4.002
 3869SOL     OW12286   3.613   1.233   5.288
 3869SOL    HW112287   3.700   1.198   5.270
 3869SOL    HW212288   3.628   1.323   5.317
 3870SOL     OW12289   2.917   1.353   5.056
 3870SOL    HW112290   2.842   1.322   5.106
 3870SOL    HW212291   2.993   1.312   5.098
 3871SOL     OW12292   3.468   1.629   5.381
 3871SOL    HW112293   3.460   1.663   5.292
 3871SOL    HW212294   3.548   1.576   5.378
 3872SOL     OW12295   2.995   1.207   4.827
 3872SOL    HW112296   2.935   1.246   4.891
 3872SOL    HW212297   2.965   1.242   4.743
 3873SOL     OW12298   3.489   1.095   4.798
 3873SOL    HW112299   3.479   1.157   4.870
 3873SOL    HW212300   3.413   1.112   4.742
 3874SOL     OW12301   2.774   0.118   5.125
 3874SOL    HW112302   2.793   0.089   5.036
 3874SOL    HW212303   2.854   0.159   5.155
 3875SOL     OW12304   2.847   1.115   5.448
 3875SOL    HW112305   2.756   1.132   5.472
 3875SOL    HW212306   2.843   1.037   5.393
 3876SOL     OW12307   2.571   1.063   4.095
 3876SOL    HW112308   2.557   1.044   4.187
 3876SOL    HW212309   2.647   1.009   4.071
 3877SOL     OW12310   2.283   0.817   4.976
 3877SOL    HW112311   2.352   0.825   5.042
 3877SOL    HW212312   2.248   0.729   4.989
 3878SOL     OW12313   3.128   0.375   5.001
 3878SOL    HW112314   3.162   0.453   5.045
 3878SOL    HW212315   3.041   0.400   4.971
 3879SOL     OW12316   1.937   1.577   5.078
 3879SOL    HW112317   1.904   1.642   5.015
 3879SOL    HW212318   2.032   1.577   5.065
 3880SOL     OW12319   2.204   1.114   4.214
 3880SOL    HW112320   2.210   1.189   4.155
 3880SOL    HW212321   2.201   1.038   4.156
 3881SOL     OW12322   2.415   0.530   4.580
 3881SOL    HW112323   2.428   0.590   4.507
 3881SOL    HW212324   2.480   0.557   4.645
 3882SOL     OW12325   3.109   1.349   4.114
 3882SOL    HW112326   3.165   1.421   4.145
 3882SOL    HW212327   3.022   1.370   4.148
 3883SOL     OW12328   3.149   1.460   4.872
 3883SOL    HW112329   3.205   1.465   4.950
 3883SOL    HW212330   3.093   1.383   4.887
 3884SOL     OW12331   3.432   0.633   4.211
 3884SOL    HW112332   3.390   0.686   4.278
 3884SOL    HW212333   3.479   0.696   4.156
 3885SOL     OW12334   2.213   1.516   5.039
 3885SOL    HW112335   2.200   1.471   4.955
 3885SOL    HW212336   2.308   1.527   5.045
 3886SOL     OW12337   2.283   0.741   5.325
 3886SOL    HW112338   2.343   0.787   5.267
 3886SOL    HW212339   2.325   0.657   5.342
 3887SOL     OW12340   3.467   0.779   5.409
 3887SOL    HW112341   3.382   0.822   5.403
 3887SOL    HW212342   3.520   0.822   5.341
 3888SOL     OW12343   2.872   0.136   5.505
 3888SOL    HW112344   2.926   0.206   5.469
 3888SOL    HW212345   2.857   0.077   5.431
 3889SOL     OW12346   2.351   0.034   5.485
 3889SOL    HW112347   2.352   0.049   5.391
 3889SOL    HW212348   2.292   0.101   5.519
 3890SOL     OW12349   2.446   0.874   4.756
 3890SOL    HW112350   2.477   0.965   4.758
 3890SOL    HW212351   2.389   0.867   4.832
 3891SOL     OW12352   3.213   0.859   4.748
 3891SOL    HW112353   3.127   0.845   4.707
 3891SOL    HW212354   3.257   0.774   4.740
 3892SOL     OW12355   3.061   0.538   3.980
 3892SOL    HW112356   3.069   0.459   4.033
 3892SOL    HW212357   3.018   0.601   4.037
 3893SOL     OW12358   2.160   0.208   4.967
 3893SOL    HW112359   2.118   0.237   5.048
 3893SOL    HW212360   2.150   0.113   4.967
 3894SOL     OW12361   1.905   1.313   5.001
 3894SOL    HW112362   1.939   1.258   5.071
 3894SOL    HW212363   1.914   1.402   5.035
 3895SOL     OW12364   2.583   0.631   4.775
 3895SOL    HW112365   2.660   0.620   4.718
 3895SOL    HW212366   2.553   0.721   4.757
 3896SOL     OW12367   3.594   0.956   5.589
 3896SOL    HW112368   3.552   0.893   5.530
 3896SOL    HW212369   3.529   0.973   5.657
 3897SOL     OW12370   2.185   0.055   4.378
 3897SOL    HW112371   2.165   0.148   4.389
 3897SOL    HW212372   2.154   0.014   4.458
 3898SOL     OW12373   3.475   0.394   4.102
 3898SOL    HW112374   3.434   0.325   4.155
 3898SOL    HW212375   3.454   0.475   4.148
 3899SOL     OW12376   2.892   0.759   4.682
 3899SOL    HW112377   2.884   0.776   4.776
 3899SOL    HW212378   2.865   0.668   4.671
 3900SOL     OW12379   2.845   1.568   5.442
 3900SOL    HW112380   2.829   1.611   5.358
 3900SOL    HW212381   2.887   1.485   5.420
 3901SOL     OW12382   3.704   1.496   5.321
 3901SOL    HW112383   3.728   1.527   5.234
 3901SOL    HW212384   3.784   1.506   5.373
 3902SOL     OW12385   2.213   0.914   5.528
 3902SOL    HW112386   2.292   0.934   5.579
 3902SOL    HW212387   2.243   0.851   5.462
 3903SOL     OW12388   3.361   0.272   3.857
 3903SOL    HW112389   3.288   0.211   3.867
 3903SOL    HW212390   3.373   0.311   3.944
 3904SOL     OW12391   3.149   0.827   3.751
 3904SOL    HW112392   3.191   0.741   3.755
 3904SOL    HW212393   3.182   0.866   3.671
 3905SOL     OW12394   2.930   1.338   4.581
 3905SOL    HW112395   2.934   1.266   4.517
 3905SOL    HW212396   2.989   1.405   4.545
 3906SOL     OW12397   2.169   0.810   4.670
 3906SOL    HW112398   2.263   0.831   4.663
 3906SOL    HW212399   2.167   0.720   4.702
 3907SOL     OW12400   2.198   0.537   4.738
 3907SOL    HW112401   2.157   0.452   4.723
 3907SOL    HW212402   2.274   0.537   4.680
 3908SOL     OW12403   2.995   0.380   5.422
 3908SOL    HW112404   2.946   0.434   5.484
 3908SOL    HW212405   3.081   0.421   5.417
 3909SOL     OW12406   3.014   0.226   5.205
 3909SOL    HW112407   3.004   0.279   5.284
 3909SOL    HW212408   3.039   0.288   5.137
 3910SOL     OW12409   1.867   1.317   3.917
 3910SOL    HW112410   1.780   1.330   3.880
 3910SOL    HW212411   1.865   1.227   3.952
 3911SOL     OW12412   1.986   1.712   4.716
 3911SOL    HW112413   1.943   1.657   4.651
 3911SOL    HW212414   2.042   1.771   4.664
 3912SOL     OW12415   2.358   1.570   4.632
 3912SOL    HW112416   2.426   1.634   4.655
 3912SOL    HW212417   2.401   1.509   4.573
 3913SOL     OW12418   2.838   0.786   4.947
 3913SOL    HW112419   2.896   0.769   5.021
 3913SOL    HW212420   2.753   0.751   4.973
 3914SOL     OW12421   1.895   0.548   4.841
 3914SOL    HW112422   1.969   0.523   4.786
 3914SOL    HW212423   1.930   0.547   4.930
 3915SOL     OW12424   2.066   0.527   5.435
 3915SOL    HW112425   2.138   0.507   5.376
 3915SOL    HW212426   2.023   0.603   5.396
 3916SOL     OW12427   3.243   0.935   5.381
 3916SOL    HW112428   3.263   1.028   5.378
 3916SOL    HW212429   3.237   0.908   5.289
 3917SOL     OW12430   2.679   0.572   4.090
 3917SOL    HW112431   2.685   0.497   4.030
 3917SOL    HW212432   2.604   0.622   4.057
 3918SOL     OW12433   3.501   0.602   4.905
 3918SOL    HW112434   3.490   0.542   4.979
 3918SOL    HW212435   3.587   0.581   4.869
 3919SOL     OW12436   2.114   1.534   5.428
 3919SOL    HW112437   2.095   1.606   5.489
 3919SOL    HW212438   2.118   1.457   5.484
 3920SOL     OW12439   2.573   0.451   4.978
 3920SOL    HW112440   2.520   0.375   4.954
 3920SOL    HW212441   2.563   0.512   4.904
 3921SOL     OW12442   2.787   1.679   5.193
 3921SOL    HW112443   2.761   1.642   5.108
 3921SOL    HW212444   2.780   1.774   5.180
 3922SOL     OW12445   2.324   0.494   3.905
 3922SOL    HW112446   2.382   0.566   3.930
 3922SOL    HW212447   2.238   0.535   3.893
 3923SOL     OW12448   2.003   1.141   5.197
 3923SOL    HW112449   2.005   1.093   5.279
 3923SOL    HW212450   2.020   1.075   5.130
 3924SOL     OW12451   3.183   1.043   4.945
 3924SOL    HW112452   3.205   0.981   4.876
 3924SOL    HW212453   3.116   1.099   4.905
 3925SOL     OW12454   3.177   0.854   4.028
 3925SOL    HW112455   3.101   0.827   4.080
 3925SOL    HW212456   3.148   0.843   3.937
 3926SOL     OW12457   3.644   1.740   4.883
 3926SOL    HW112458   3.699   1.768   4.809
 3926SOL    HW212459   3.614   1.653   4.858
 3927SOL     OW12460   3.102   1.733   4.832
 3927SOL    HW112461   3.185   1.756   4.789
 3927SOL    HW212462   3.111   1.640   4.852
 3928SOL     OW12463   1.950   1.262   4.738
 3928SOL    HW112464   1.932   1.280   4.830
 3928SOL    HW212465   1.876   1.211   4.708
 3929SOL     OW12466   2.541   1.664   5.452
 3929SOL    HW112467   2.489   1.745   5.455
 3929SOL    HW212468   2.613   1.684   5.393
 3930SOL     OW12469   3.550   0.119   4.212
 3930SOL    HW112470   3.631   0.135   4.164
 3930SOL    HW212471   3.553   0.026   4.234
 3931SOL     OW12472   3.253   1.567   4.213
 3931SOL    HW112473   3.312   1.601   4.146
 3931SOL    HW212474   3.203   1.644   4.242
 3932SOL     OW12475   2.038   1.743   5.575
 3932SOL    HW112476   1.982   1.691   5.632
 3932SOL    HW212477   2.011   1.834   5.592
 3933SOL     OW12478   3.139   0.927   4.395
 3933SOL    HW112479   3.214   0.868   4.406
 3933SOL    HW212480   3.173   0.999   4.342
 3934SOL     OW12481   2.670   1.275   5.150
 3934SOL    HW112482   2.642   1.315   5.232
 3934SOL    HW212483   2.600   1.296   5.088
 3935SOL     OW12484   2.535   1.623   3.874
 3935SOL    HW112485   2.547   1.634   3.779
 3935SOL    HW212486   2.479   1.546   3.882
 3936SOL     OW12487   3.481   1.727   5.115
 3936SOL    HW112488   3.537   1.732   5.038
 3936SOL    HW212489   3.467   1.819   5.140
 3937SOL     OW12490   3.704   0.182   4.695
 3937SOL    HW112491   3.728   0.097   4.657
 3937SOL    HW212492   3.618   0.201   4.658
 3938SOL     OW12493   2.125   0.315   4.439
 3938SOL    HW112494   2.039   0.350   4.416
 3938SOL    HW212495   2.124   0.309   4.534
 3939SOL     OW12496   3.070   1.603   3.756
 3939SOL    HW112497   3.059   1.511   3.783
 3939SOL    HW212498   3.004   1.616   3.688
 3940SOL     OW12499   2.686   1.006   5.097
 3940SOL    HW112500   2.727   1.003   5.011
 3940SOL    HW212501   2.683   1.100   5.118
 3941SOL     OW12502   2.778   0.911   4.014
 3941SOL    HW112503   2.839   0.944   3.948
 3941SOL    HW212504   2.827   0.843   4.060
 3942SOL     OW12505   3.350   1.630   3.768
 3942SOL    HW112506   3.256   1.620   3.753
 3942SOL    HW212507   3.388   1.635   3.680
 3943SOL     OW12508   2.231   1.297   5.218
 3943SOL    HW112509   2.219   1.376   5.165
 3943SOL    HW212510   2.152   1.245   5.201
 3944SOL     OW12511   3.462   1.280   5.000
 3944SOL    HW112512   3.530   1.271   5.067
 3944SOL    HW212513   3.405   1.349   5.034
 3945SOL     OW12514   2.920   1.110   4.434
 3945SOL    HW112515   2.848   1.059   4.471
 3945SOL    HW212516   2.983   1.043   4.405
 3946SOL     OW12517   2.877   0.249   4.694
 3946SOL    HW112518   2.867   0.199   4.614
 3946SOL    HW212519   2.874   0.184   4.764
 3947SOL     OW12520   2.466   1.489   4.205
 3947SOL    HW112521   2.510   1.440   4.136
 3947SOL    HW212522   2.405   1.547   4.159
 3948SOL     OW12523   3.583   0.395   5.095
 3948SOL    HW112524   3.655   0.457   5.096
 3948SOL    HW212525   3.614   0.322   5.041
 3949SOL     OW12526   2.122   1.344   4.011
 3949SOL    HW112527   2.029   1.339   3.990
 3949SOL    HW212528   2.124   1.379   4.100
 3950SOL     OW12529   1.979   1.035   5.449
 3950SOL    HW112530   1.901   1.009   5.499
 3950SOL    HW212531   2.051   0.988   5.490
 3951SOL     OW12532   2.557   0.260   5.227
 3951SOL    HW112533   2.622   0.204   5.186
 3951SOL    HW212534   2.583   0.264   5.319
 3952SOL     OW12535   1.963   0.317   3.716
 3952SOL    HW112536   1.896   0.337   3.782
 3952SOL    HW212537   1.970   0.397   3.664
 3953SOL     OW12538   3.286   0.856   5.121
 3953SOL    HW112539   3.236   0.918   5.068
 3953SOL    HW212540   3.374   0.859   5.085
 3954SOL     OW12541   1.942   0.151   4.064
 3954SOL    HW112542   1.911   0.210   3.994
 3954SOL    HW212543   2.029   0.124   4.034
 3955SOL     OW12544   3.040   1.336   3.842
 3955SOL    HW112545   2.949   1.306   3.844
 3955SOL    HW212546   3.067   1.337   3.934
 3956SOL     OW12547   2.484   0.828   5.157
 3956SOL    HW112548   2.541   0.905   5.143
 3956SOL    HW212549   2.545   0.755   5.166
 3957SOL     OW12550   3.344   1.783   4.705
 3957SOL    HW112551   3.367   1.847   4.637
 3957SOL    HW212552   3.428   1.754   4.739
 3958SOL     OW12553   2.580   0.560   5.428
 3958SOL    HW112554   2.623   0.622   5.486
 3958SOL    HW212555   2.604   0.474   5.462
 3959SOL     OW12556   3.335   1.195   5.353
 3959SOL    HW112557   3.324   1.211   5.447
 3959SOL    HW212558   3.428   1.212   5.337
 3960SOL     OW12559   2.234   1.743   5.288
 3960SOL    HW112560   2.162   1.759   5.227
 3960SOL    HW212561   2.210   1.661   5.332
 3961SOL     OW12562   3.525   0.880   4.983
 3961SOL    HW112563   3.525   0.795   4.939
 3961SOL    HW212564   3.518   0.944   4.912
 3962SOL     OW12565   3.082   0.339   4.166
 3962SOL    HW112566   3.151   0.273   4.156
 3962SOL    HW212567   3.101   0.382   4.249
 3963SOL     OW12568   2.451   0.735   4.395
 3963SOL    HW112569   2.490   0.821   4.381
 3963SOL    HW212570   2.385   0.727   4.327
 3964SOL     OW12571   3.615   0.381   5.366
 3964SOL    HW112572   3.595   0.390   5.273
 3964SOL    HW212573   3.555   0.314   5.397
 3965SOL     OW12574   3.617   0.930   5.237
 3965SOL    HW112575   3.606   1.023   5.255
 3965SOL    HW212576   3.592   0.920   5.145
 3966SOL     OW12577   2.724   1.366   3.764
 3966SOL    HW112578   2.687   1.392   3.848
 3966SOL    HW212579   2.741   1.448   3.718
 3967SOL     OW12580   2.523   1.790   4.663
 3967SOL    HW112581   2.509   1.882   4.639
 3967SOL    HW212582   2.618   1.779   4.657
 3968SOL     OW12583   2.731   0.970   4.578
 3968SOL    HW112584   2.781   0.898   4.616
 3968SOL    HW212585   2.693   1.015   4.653
 3969SOL     OW12586   2.940   0.990   3.814
 3969SOL    HW112587   2.918   1.041   3.736
 3969SOL    HW212588   3.014   0.935   3.786
 3970SOL     OW12589   3.712   1.556   4.565
 3970SOL    HW112590   3.633   1.540   4.514
 3970SOL    HW212591   3.712   1.489   4.633
 3971SOL     OW12592   2.087   1.291   5.575
 3971SOL    HW112593   2.050   1.217   5.526
 3971SOL    HW212594   2.022   1.312   5.641
 3972SOL     OW12595   1.945   1.222   4.390
 3972SOL    HW112596   1.960   1.178   4.473
 3972SOL    HW212597   2.016   1.193   4.333
 3973SOL     OW12598   2.545   1.404   5.353
 3973SOL    HW112599   2.467   1.362   5.388
 3973SOL    HW212600   2.542   1.493   5.388
 3974SOL     OW12601   3.676   0.181   4.968
 3974SOL    HW112602   3.677   0.086   4.977
 3974SOL    HW212603   3.694   0.197   4.876
 3975SOL     OW12604   2.290   0.435   4.249
 3975SOL    HW112605   2.325   0.363   4.196
 3975SOL    HW212606   2.242   0.391   4.320
 3976SOL     OW12607   3.557   1.490   4.820
 3976SOL    HW112608   3.479   1.469   4.768
 3976SOL    HW212609   3.566   1.419   4.882
 3977SOL     OW12610   2.195   0.557   5.019
 3977SOL    HW112611   2.247   0.497   5.073
 3977SOL    HW212612   2.214   0.531   4.929
 3978SOL     OW12613   2.693   1.577   4.400
 3978SOL    HW112614   2.675   1.641   4.330
 3978SOL    HW212615   2.617   1.519   4.399
 3979SOL     OW12616   3.323   0.254   4.834
 3979SOL    HW112617   3.336   0.166   4.869
 3979SOL    HW212618   3.267   0.297   4.899
 3980SOL     OW12619   2.865   0.026   4.870
 3980SOL    HW112620   2.783   3.996   4.832
 3980SOL    HW212621   2.918   3.947   4.879
 3981SOL     OW12622   2.637   1.333   4.041
 3981SOL    HW112623   2.607   1.243   4.050
 3981SOL    HW212624   2.716   1.338   4.093
 3982SOL     OW12625   2.483   1.554   5.010
 3982SOL    HW112626   2.483   1.637   5.058
 3982SOL    HW212627   2.571   1.548   4.974
 3983SOL     OW12628   3.171   0.070   3.883
 3983SOL    HW112629   3.174   3.984   3.840
 3983SOL    HW212630   3.087   0.069   3.930
 3984SOL     OW12631   3.142   0.456   4.408
 3984SOL    HW112632   3.096   0.540   4.403
 3984SOL    HW212633   3.145   0.437   4.502
 3985SOL     OW12634   3.453   0.210   4.591
 3985SOL    HW112635   3.404   0.234   4.670
 3985SOL    HW212636   3.451   0.289   4.537
 3986SOL     OW12637   1.906   1.069   4.030
 3986SOL    HW112638   2.000   1.060   4.013
 3986SOL    HW212639   1.878   0.981   4.055
 3987SOL     OW12640   2.752   1.656   4.061
 3987SOL    HW112641   2.676   1.642   4.004
 3987SOL    HW212642   2.727   1.729   4.117
 3988SOL     OW12643   2.088   0.618   5.706
 3988SOL    HW112644   1.998   0.629   5.738
 3988SOL    HW212645   2.079   0.599   5.613
 3989SOL     OW12646   2.078   0.300   6.577
 3989SOL    HW112647   2.115   0.256   6.654
 3989SOL    HW212648   1.993   0.258   6.565
 3990SOL     OW12649   1.871   0.398   6.218
 3990SOL    HW112650   1.784   0.413   6.257
 3990SOL    HW212651   1.856   0.330   6.153
 3991SOL     OW12652   2.446   1.284   6.807
 3991SOL    HW112653   2.369   1.235   6.777
 3991SOL    HW212654   2.431   1.373   6.775
 3992SOL     OW12655   3.425   1.513   6.294
 3992SOL    HW112656   3.382   1.493   6.378
 3992SOL    HW212657   3.353   1.517   6.231
 3993SOL     OW12658   2.995   0.698   6.281
 3993SOL    HW112659   3.042   0.781   6.269
 3993SOL    HW212660   2.948   0.710   6.364
 3994SOL     OW12661   3.624   0.624   5.812
 3994SOL    HW112662   3.605   0.612   5.719
 3994SOL    HW212663   3.606   0.538   5.851
 3995SOL     OW12664   2.737   0.766   7.413
 3995SOL    HW112665   2.723   0.837   7.476
 3995SOL    HW212666   2.758   0.810   7.331
 3996SOL     OW12667   2.541   1.006   6.238
 3996SOL    HW112668   2.609   0.995   6.304
 3996SOL    HW212669   2.482   1.071   6.274
 3997SOL     OW12670   2.576   1.145   7.395
 3997SOL    HW112671   2.628   1.219   7.425
 3997SOL    HW212672   2.507   1.184   7.341
 3998SOL     OW12673   3.320   1.501   6.947
 3998SOL    HW112674   3.375   1.580   6.955
 3998SOL    HW212675   3.257   1.510   7.019
 3999SOL     OW12676   2.309   0.392   7.077
 3999SOL    HW112677   2.399   0.361   7.078
 3999SOL    HW212678   2.256   0.313   7.086
 4000SOL     OW12679   3.472   0.450   6.321
 4000SOL    HW112680   3.405   0.484   6.262
 4000SOL    HW212681   3.493   0.523   6.379
 4001SOL     OW12682   2.096   1.717   6.051
 4001SOL    HW112683   2.138   1.752   6.130
 4001SOL    HW212684   2.169   1.698   5.992
 4002SOL     OW12685   2.997   1.352   7.287
 4002SOL    HW112686   3.040   1.338   7.371
 4002SOL    HW212687   2.948   1.271   7.272
 4003SOL     OW12688   2.143   1.065   6.517
 4003SOL    HW112689   2.135   0.970   6.516
 4003SOL    HW212690   2.064   1.094   6.563
 4004SOL     OW12691   2.442   0.983   5.725
 4004SOL    HW112692   2.490   1.029   5.656
 4004SOL    HW212693   2.481   1.014   5.806
 4005SOL     OW12694   3.445   0.142   7.042
 4005SOL    HW112695   3.472   0.214   6.985
 4005SOL    HW212696   3.405   0.185   7.118
 4006SOL     OW12697   1.980   0.657   6.144
 4006SOL    HW112698   1.953   0.568   6.168
 4006SOL    HW212699   1.971   0.707   6.225
 4007SOL     OW12700   3.703   1.758   5.921
 4007SOL    HW112701   3.773   1.733   5.982
 4007SOL    HW212702   3.721   1.849   5.900
 4008SOL     OW12703   1.885   1.584   5.725
 4008SOL    HW112704   1.876   1.489   5.719
 4008SOL    HW212705   1.842   1.607   5.807
 4009SOL     OW12706   3.550   0.917   6.233
 4009SOL    HW112707   3.634   0.874   6.218
 4009SOL    HW212708   3.533   0.967   6.153
 4010SOL     OW12709   3.505   1.103   6.019
 4010SOL    HW112710   3.589   1.108   5.974
 4010SOL    HW212711   3.511   1.167   6.090
 4011SOL     OW12712   1.987   0.749   7.165
 4011SOL    HW112713   2.078   0.778   7.167
 4011SOL    HW212714   1.936   0.829   7.183
 4012SOL     OW12715   3.152   1.232   7.011
 4012SOL    HW112716   3.184   1.167   6.949
 4012SOL    HW212717   3.214   1.228   7.084
 4013SOL     OW12718   2.683   0.006   6.104
 4013SOL    HW112719   2.728   0.086   6.078
 4013SOL    HW212720   2.590   0.029   6.103
 4014SOL     OW12721   2.056   0.957   6.879
 4014SOL    HW112722   2.136   0.911   6.855
 4014SOL    HW212723   2.003   0.958   6.800
 4015SOL     OW12724   3.389   0.997   5.787
 4015SOL    HW112725   3.320   0.940   5.821
 4015SOL    HW212726   3.432   1.032   5.866
 4016SOL     OW12727   3.079   1.794   7.226
 4016SOL    HW112728   3.065   1.870   7.170
 4016SOL    HW212729   3.085   1.720   7.166
 4017SOL     OW12730   2.221   0.251   7.433
 4017SOL    HW112731   2.265   0.336   7.433
 4017SOL    HW212732   2.128   0.273   7.434
 4018SOL     OW12733   3.335   1.417   6.540
 4018SOL    HW112734   3.264   1.434   6.602
 4018SOL    HW212735   3.320   1.327   6.511
 4019SOL     OW12736   3.513   1.748   6.165
 4019SOL    HW112737   3.499   1.715   6.076
 4019SOL    HW212738   3.493   1.674   6.222
 4020SOL     OW12739   2.457   0.720   5.856
 4020SOL    HW112740   2.458   0.803   5.808
 4020SOL    HW212741   2.392   0.732   5.925
 4021SOL     OW12742   3.136   0.371   6.527
 4021SOL    HW112743   3.049   0.331   6.535
 4021SOL    HW212744   3.194   0.309   6.572
 4022SOL     OW12745   3.440   1.671   5.896
 4022SOL    HW112746   3.531   1.701   5.889
 4022SOL    HW212747   3.413   1.657   5.805
 4023SOL     OW12748   2.656   0.616   7.037
 4023SOL    HW112749   2.629   0.589   7.124
 4023SOL    HW212750   2.620   0.549   6.979
 4024SOL     OW12751   3.254   0.476   7.263
 4024SOL    HW112752   3.261   0.521   7.347
 4024SOL    HW212753   3.310   0.399   7.273
 4025SOL     OW12754   2.814   0.883   7.172
 4025SOL    HW112755   2.869   0.815   7.134
 4025SOL    HW212756   2.763   0.917   7.099
 4026SOL     OW12757   2.855   0.404   6.822
 4026SOL    HW112758   2.769   0.421   6.859
 4026SOL    HW212759   2.837   0.374   6.732
 4027SOL     OW12760   2.915   0.699   6.010
 4027SOL    HW112761   2.932   0.692   6.104
 4027SOL    HW212762   2.831   0.653   5.998
 4028SOL     OW12763   1.945   0.819   6.360
 4028SOL    HW112764   2.024   0.810   6.413
 4028SOL    HW212765   1.892   0.884   6.406
 4029SOL     OW12766   2.758   0.353   5.786
 4029SOL    HW112767   2.800   0.412   5.724
 4029SOL    HW212768   2.747   0.271   5.738
 4030SOL     OW12769   3.567   0.573   7.416
 4030SOL    HW112770   3.531   0.647   7.368
 4030SOL    HW212771   3.594   0.511   7.348
 4031SOL     OW12772   3.239   1.139   6.122
 4031SOL    HW112773   3.322   1.127   6.075
 4031SOL    HW212774   3.191   1.203   6.070
 4032SOL     OW12775   2.421   0.199   6.466
 4032SOL    HW112776   2.423   0.218   6.560
 4032SOL    HW212777   2.416   0.285   6.424
 4033SOL     OW12778   2.237   1.799   6.383
 4033SOL    HW112779   2.293   1.722   6.394
 4033SOL    HW212780   2.297   1.873   6.391
 4034SOL     OW12781   3.668   1.062   6.455
 4034SOL    HW112782   3.615   1.036   6.379
 4034SOL    HW212783   3.606   1.065   6.528
 4035SOL     OW12784   3.081   1.537   7.099
 4035SOL    HW112785   3.061   1.472   7.167
 4035SOL    HW212786   3.030   1.508   7.023
 4036SOL     OW12787   2.160   0.969   5.823
 4036SOL    HW112788   2.251   0.987   5.799
 4036SOL    HW212789   2.143   0.881   5.787
 4037SOL     OW12790   3.341   0.750   6.315
 4037SOL    HW112791   3.338   0.708   6.401
 4037SOL    HW212792   3.419   0.805   6.317
 4038SOL     OW12793   2.988   1.776   5.820
 4038SOL    HW112794   2.906   1.743   5.856
 4038SOL    HW212795   3.010   1.714   5.750
 4039SOL     OW12796   2.032   0.276   7.086
 4039SOL    HW112797   1.977   0.354   7.072
 4039SOL    HW212798   2.033   0.264   7.181
 4040SOL     OW12799   3.487   1.384   5.673
 4040SOL    HW112800   3.443   1.469   5.659
 4040SOL    HW212801   3.419   1.319   5.653
 4041SOL     OW12802   2.341   1.718   5.921
 4041SOL    HW112803   2.363   1.793   5.976
 4041SOL    HW212804   2.396   1.729   5.843
 4042SOL     OW12805   3.298   0.173   5.988
 4042SOL    HW112806   3.250   0.098   5.952
 4042SOL    HW212807   3.373   0.134   6.033
 4043SOL     OW12808   2.260   0.694   6.060
 4043SOL    HW112809   2.275   0.600   6.073
 4043SOL    HW212810   2.166   0.706   6.075
 4044SOL     OW12811   3.391   0.228   7.313
 4044SOL    HW112812   3.382   0.253   7.405
 4044SOL    HW212813   3.377   0.134   7.312
 4045SOL     OW12814   2.506   0.128   5.695
 4045SOL    HW112815   2.527   0.043   5.734
 4045SOL    HW212816   2.444   0.108   5.626
 4046SOL     OW12817   2.636   0.283   7.358
 4046SOL    HW112818   2.711   0.223   7.359
 4046SOL    HW212819   2.580   0.252   7.429
 4047SOL     OW12820   2.737   1.477   6.770
 4047SOL    HW112821   2.778   1.507   6.689
 4047SOL    HW212822   2.810   1.451   6.826
 4048SOL     OW12823   3.201   0.588   7.017
 4048SOL    HW112824   3.232   0.559   7.103
 4048SOL    HW212825   3.236   0.676   7.007
 4049SOL     OW12826   2.792   0.511   6.485
 4049SOL    HW112827   2.767   0.503   6.392
 4049SOL    HW212828   2.817   0.423   6.511
 4050SOL     OW12829   2.406   0.056   6.076
 4050SOL    HW112830   2.332   0.061   6.137
 4050SOL    HW212831   2.402   0.137   6.025
 4051SOL     OW12832   3.289   1.200   5.625
 4051SOL    HW112833   3.318   1.125   5.677
 4051SOL    HW212834   3.203   1.223   5.661
 4052SOL     OW12835   2.192   0.045   5.798
 4052SOL    HW112836   2.199   0.111   5.728
 4052SOL    HW212837   2.273   0.055   5.848
 4053SOL     OW12838   2.806   0.251   6.045
 4053SOL    HW112839   2.781   0.290   5.961
 4053SOL    HW212840   2.901   0.256   6.046
 4054SOL     OW12841   2.941   0.684   7.041
 4054SOL    HW112842   2.874   0.617   7.049
 4054SOL    HW212843   3.024   0.635   7.037
 4055SOL     OW12844   3.104   1.556   6.366
 4055SOL    HW112845   3.110   1.627   6.303
 4055SOL    HW212846   3.142   1.591   6.446
 4056SOL     OW12847   3.138   1.780   6.190
 4056SOL    HW112848   3.187   1.845   6.139
 4056SOL    HW212849   3.055   1.823   6.210
 4057SOL     OW12850   2.883   0.541   5.616
 4057SOL    HW112851   2.839   0.624   5.596
 4057SOL    HW212852   2.947   0.563   5.683
 4058SOL     OW12853   1.944   0.550   6.982
 4058SOL    HW112854   2.035   0.553   6.953
 4058SOL    HW212855   1.936   0.624   7.043
 4059SOL     OW12856   2.425   0.231   6.747
 4059SOL    HW112857   2.448   0.138   6.756
 4059SOL    HW212858   2.335   0.236   6.780
 4060SOL     OW12859   2.731   0.461   6.223
 4060SOL    HW112860   2.685   0.515   6.159
 4060SOL    HW212861   2.754   0.381   6.175
 4061SOL     OW12862   2.858   0.039   6.367
 4061SOL    HW112863   2.820   0.069   6.284
 4061SOL    HW212864   2.870   3.945   6.355
 4062SOL     OW12865   3.307   1.159   6.445
 4062SOL    HW112866   3.229   1.103   6.440
 4062SOL    HW212867   3.333   1.171   6.354
 4063SOL     OW12868   3.326   0.609   6.558
 4063SOL    HW112869   3.271   0.530   6.563
 4063SOL    HW212870   3.385   0.601   6.633
 4064SOL     OW12871   3.722   0.824   5.961
 4064SOL    HW112872   3.763   0.767   6.025
 4064SOL    HW212873   3.684   0.765   5.896
 4065SOL     OW12874   2.350   1.418   5.736
 4065SOL    HW112875   2.291   1.379   5.800
 4065SOL    HW212876   2.326   1.376   5.653
 4066SOL     OW12877   3.529   1.265   6.230
 4066SOL    HW112878   3.624   1.269   6.240
 4066SOL    HW212879   3.499   1.354   6.250
 4067SOL     OW12880   3.257   0.576   5.654
 4067SOL    HW112881   3.193   0.557   5.723
 4067SOL    HW212882   3.342   0.561   5.695
 4068SOL     OW12883   2.388   0.266   5.902
 4068SOL    HW112884   2.444   0.228   5.834
 4068SOL    HW212885   2.359   0.349   5.864
 4069SOL     OW12886   3.613   1.233   7.151
 4069SOL    HW112887   3.701   1.198   7.133
 4069SOL    HW212888   3.629   1.323   7.179
 4070SOL     OW12889   2.929   1.355   6.926
 4070SOL    HW112890   2.854   1.315   6.969
 4070SOL    HW212891   3.005   1.309   6.963
 4071SOL     OW12892   3.467   1.626   7.243
 4071SOL    HW112893   3.459   1.663   7.155
 4071SOL    HW212894   3.548   1.575   7.239
 4072SOL     OW12895   2.982   1.192   6.698
 4072SOL    HW112896   2.929   1.248   6.754
 4072SOL    HW212897   2.978   1.233   6.612
 4073SOL     OW12898   3.488   1.094   6.660
 4073SOL    HW112899   3.478   1.157   6.732
 4073SOL    HW212900   3.415   1.112   6.602
 4074SOL     OW12901   2.773   0.120   6.987
 4074SOL    HW112902   2.794   0.088   6.899
 4074SOL    HW212903   2.855   0.159   7.017
 4075SOL     OW12904   2.851   1.114   7.302
 4075SOL    HW112905   2.761   1.123   7.331
 4075SOL    HW212906   2.851   1.035   7.248
 4076SOL     OW12907   2.569   1.061   5.959
 4076SOL    HW112908   2.555   1.042   6.052
 4076SOL    HW212909   2.646   1.009   5.935
 4077SOL     OW12910   2.286   0.812   6.835
 4077SOL    HW112911   2.352   0.821   6.903
 4077SOL    HW212912   2.248   0.725   6.850
 4078SOL     OW12913   3.128   0.375   6.863
 4078SOL    HW112914   3.161   0.453   6.907
 4078SOL    HW212915   3.040   0.400   6.833
 4079SOL     OW12916   2.416   0.530   6.442
 4079SOL    HW112917   2.429   0.590   6.369
 4079SOL    HW212918   2.482   0.557   6.507
 4080SOL     OW12919   3.103   1.350   5.977
 4080SOL    HW112920   3.163   1.421   6.001
 4080SOL    HW212921   3.027   1.362   6.034
 4081SOL     OW12922   3.151   1.459   6.737
 4081SOL    HW112923   3.209   1.466   6.812
 4081SOL    HW212924   3.095   1.383   6.757
 4082SOL     OW12925   3.433   0.633   6.074
 4082SOL    HW112926   3.390   0.689   6.139
 4082SOL    HW212927   3.480   0.694   6.017
 4083SOL     OW12928   2.281   0.744   7.191
 4083SOL    HW112929   2.342   0.788   7.131
 4083SOL    HW212930   2.321   0.658   7.206
 4084SOL     OW12931   3.467   0.780   7.271
 4084SOL    HW112932   3.381   0.822   7.265
 4084SOL    HW212933   3.520   0.822   7.204
 4085SOL     OW12934   2.872   0.136   7.367
 4085SOL    HW112935   2.926   0.206   7.330
 4085SOL    HW212936   2.857   0.076   7.293
 4086SOL     OW12937   2.351   0.035   7.347
 4086SOL    HW112938   2.352   0.049   7.253
 4086SOL    HW212939   2.292   0.101   7.381
 4087SOL     OW12940   2.451   0.877   6.626
 4087SOL    HW112941   2.427   0.967   6.604
 4087SOL    HW212942   2.392   0.853   6.697
 4088SOL     OW12943   3.214   0.858   6.612
 4088SOL    HW112944   3.131   0.847   6.565
 4088SOL    HW212945   3.258   0.773   6.603
 4089SOL     OW12946   3.061   0.538   5.842
 4089SOL    HW112947   3.069   0.458   5.895
 4089SOL    HW212948   3.018   0.601   5.899
 4090SOL     OW12949   2.160   0.209   6.829
 4090SOL    HW112950   2.118   0.237   6.910
 4090SOL    HW212951   2.150   0.113   6.829
 4091SOL     OW12952   1.952   1.302   6.894
 4091SOL    HW112953   1.981   1.243   6.963
 4091SOL    HW212954   1.915   1.377   6.940
 4092SOL     OW12955   2.584   0.632   6.637
 4092SOL    HW112956   2.660   0.619   6.580
 4092SOL    HW212957   2.558   0.722   6.621
 4093SOL     OW12958   3.593   0.957   7.451
 4093SOL    HW112959   3.552   0.893   7.392
 4093SOL    HW212960   3.529   0.972   7.520
 4094SOL     OW12961   2.185   0.055   6.240
 4094SOL    HW112962   2.165   0.148   6.251
 4094SOL    HW212963   2.154   0.013   6.320
 4095SOL     OW12964   3.475   0.394   5.965
 4095SOL    HW112965   3.434   0.325   6.017
 4095SOL    HW212966   3.454   0.475   6.011
 4096SOL     OW12967   2.888   0.759   6.541
 4096SOL    HW112968   2.882   0.777   6.635
 4096SOL    HW212969   2.862   0.668   6.532
 4097SOL     OW12970   3.704   1.496   7.183
 4097SOL    HW112971   3.728   1.527   7.096
 4097SOL    HW212972   3.784   1.506   7.235
 4098SOL     OW12973   2.224   0.915   7.401
 4098SOL    HW112974   2.307   0.926   7.447
 4098SOL    HW212975   2.243   0.853   7.330
 4099SOL     OW12976   3.361   0.272   5.719
 4099SOL    HW112977   3.288   0.211   5.729
 4099SOL    HW212978   3.373   0.311   5.806
 4100SOL     OW12979   3.149   0.827   5.614
 4100SOL    HW112980   3.192   0.741   5.617
 4100SOL    HW212981   3.182   0.866   5.533
 4101SOL     OW12982   2.978   1.320   6.461
 4101SOL    HW112983   2.959   1.261   6.389
 4101SOL    HW212984   3.013   1.399   6.419
 4102SOL     OW12985   2.169   0.793   6.525
 4102SOL    HW112986   2.263   0.810   6.512
 4102SOL    HW212987   2.166   0.706   6.563
 4103SOL     OW12988   2.202   0.531   6.604
 4103SOL    HW112989   2.158   0.447   6.588
 4103SOL    HW212990   2.277   0.531   6.544
 4104SOL     OW12991   2.995   0.380   7.283
 4104SOL    HW112992   2.946   0.434   7.346
 4104SOL    HW212993   3.081   0.421   7.279
 4105SOL     OW12994   3.014   0.226   7.067
 4105SOL    HW112995   3.004   0.279   7.145
 4105SOL    HW212996   3.040   0.288   6.999
 4106SOL     OW12997   1.865   1.303   5.728
 4106SOL    HW112998   1.773   1.323   5.713
 4106SOL    HW212999   1.865   1.221   5.777
 4107SOL     OW13000   1.928   1.735   6.482
 4107SOL    HW113001   1.984   1.673   6.434
 4107SOL    HW213002   1.980   1.816   6.486
 4108SOL     OW13003   2.834   0.791   6.809
 4108SOL    HW113004   2.894   0.770   6.881
 4108SOL    HW213005   2.753   0.746   6.832
 4109SOL     OW13006   1.894   0.545   6.703
 4109SOL    HW113007   1.969   0.521   6.648
 4109SOL    HW213008   1.928   0.549   6.792
 4110SOL     OW13009   2.065   0.527   7.298
 4110SOL    HW113010   2.136   0.506   7.237
 4110SOL    HW213011   2.021   0.603   7.260
 4111SOL     OW13012   3.241   0.936   7.243
 4111SOL    HW113013   3.264   1.029   7.240
 4111SOL    HW213014   3.238   0.909   7.151
 4112SOL     OW13015   2.679   0.572   5.952
 4112SOL    HW113016   2.685   0.498   5.893
 4112SOL    HW213017   2.604   0.623   5.919
 4113SOL     OW13018   3.501   0.602   6.767
 4113SOL    HW113019   3.490   0.541   6.841
 4113SOL    HW213020   3.587   0.582   6.731
 4114SOL     OW13021   2.574   0.451   6.839
 4114SOL    HW113022   2.521   0.374   6.817
 4114SOL    HW213023   2.563   0.510   6.765
 4115SOL     OW13024   2.324   0.494   5.768
 4115SOL    HW113025   2.382   0.566   5.793
 4115SOL    HW213026   2.239   0.535   5.755
 4116SOL     OW13027   2.019   1.134   7.082
 4116SOL    HW113028   2.017   1.086   7.165
 4116SOL    HW213029   2.037   1.067   7.016
 4117SOL     OW13030   3.181   1.041   6.809
 4117SOL    HW113031   3.206   0.981   6.739
 4117SOL    HW213032   3.109   1.092   6.772
 4118SOL     OW13033   3.176   0.854   5.890
 4118SOL    HW113034   3.100   0.826   5.941
 4118SOL    HW213035   3.149   0.844   5.799
 4119SOL     OW13036   3.644   1.740   6.745
 4119SOL    HW113037   3.699   1.768   6.672
 4119SOL    HW213038   3.614   1.653   6.720
 4120SOL     OW13039   3.103   1.727   6.691
 4120SOL    HW113040   3.185   1.753   6.651
 4120SOL    HW213041   3.113   1.634   6.710
 4121SOL     OW13042   1.938   1.171   6.661
 4121SOL    HW113043   1.941   1.215   6.746
 4121SOL    HW213044   1.910   1.239   6.600
 4122SOL     OW13045   3.549   0.119   6.074
 4122SOL    HW113046   3.630   0.135   6.026
 4122SOL    HW213047   3.553   0.026   6.096
 4123SOL     OW13048   3.254   1.561   6.067
 4123SOL    HW113049   3.315   1.596   6.002
 4123SOL    HW213050   3.208   1.638   6.101
 4124SOL     OW13051   2.035   1.730   7.428
 4124SOL    HW113052   1.985   1.678   7.491
 4124SOL    HW213053   2.008   1.820   7.445
 4125SOL     OW13054   3.138   0.929   6.259
 4125SOL    HW113055   3.212   0.870   6.271
 4125SOL    HW213056   3.172   1.000   6.204
 4126SOL     OW13057   2.677   1.272   7.008
 4126SOL    HW113058   2.659   1.331   7.080
 4126SOL    HW213059   2.614   1.296   6.940
 4127SOL     OW13060   2.543   1.609   5.728
 4127SOL    HW113061   2.545   1.628   5.634
 4127SOL    HW213062   2.476   1.541   5.738
 4128SOL     OW13063   3.480   1.726   6.977
 4128SOL    HW113064   3.537   1.731   6.900
 4128SOL    HW213065   3.468   1.817   7.003
 4129SOL     OW13066   3.704   0.182   6.557
 4129SOL    HW113067   3.728   0.097   6.520
 4129SOL    HW213068   3.618   0.201   6.520
 4130SOL     OW13069   2.125   0.315   6.301
 4130SOL    HW113070   2.039   0.350   6.278
 4130SOL    HW213071   2.123   0.308   6.396
 4131SOL     OW13072   3.071   1.603   5.617
 4131SOL    HW113073   3.059   1.512   5.643
 4131SOL    HW213074   3.004   1.618   5.550
 4132SOL     OW13075   2.687   1.002   6.961
 4132SOL    HW113076   2.741   0.988   6.884
 4132SOL    HW213077   2.686   1.097   6.973
 4133SOL     OW13078   2.780   0.913   5.881
 4133SOL    HW113079   2.838   0.945   5.812
 4133SOL    HW213080   2.828   0.843   5.923
 4134SOL     OW13081   3.351   1.629   5.630
 4134SOL    HW113082   3.256   1.620   5.615
 4134SOL    HW213083   3.388   1.635   5.542
 4135SOL     OW13084   3.460   1.279   6.863
 4135SOL    HW113085   3.533   1.272   6.926
 4135SOL    HW213086   3.405   1.349   6.898
 4136SOL     OW13087   2.917   1.113   6.288
 4136SOL    HW113088   2.846   1.063   6.328
 4136SOL    HW213089   2.982   1.047   6.264
 4137SOL     OW13090   2.876   0.249   6.557
 4137SOL    HW113091   2.867   0.199   6.476
 4137SOL    HW213092   2.874   0.183   6.626
 4138SOL     OW13093   2.465   1.504   6.037
 4138SOL    HW113094   2.502   1.452   5.966
 4138SOL    HW213095   2.411   1.570   5.994
 4139SOL     OW13096   3.583   0.395   6.957
 4139SOL    HW113097   3.655   0.457   6.958
 4139SOL    HW213098   3.614   0.322   6.903
 4140SOL     OW13099   1.975   1.003   7.307
 4140SOL    HW113100   1.897   0.993   7.363
 4140SOL    HW213101   2.048   0.981   7.364
 4141SOL     OW13102   2.557   0.261   7.089
 4141SOL    HW113103   2.622   0.205   7.048
 4141SOL    HW213104   2.583   0.264   7.181
 4142SOL     OW13105   1.963   0.317   5.578
 4142SOL    HW113106   1.896   0.337   5.643
 4142SOL    HW213107   1.970   0.397   5.525
 4143SOL     OW13108   3.286   0.856   6.984
 4143SOL    HW113109   3.236   0.917   6.930
 4143SOL    HW213110   3.375   0.859   6.948
 4144SOL     OW13111   1.943   0.152   5.926
 4144SOL    HW113112   1.911   0.210   5.856
 4144SOL    HW213113   2.029   0.124   5.896
 4145SOL     OW13114   3.040   1.336   5.701
 4145SOL    HW113115   2.947   1.312   5.700
 4145SOL    HW213116   3.063   1.338   5.794
 4146SOL     OW13117   2.483   0.829   7.022
 4146SOL    HW113118   2.541   0.903   7.003
 4146SOL    HW213119   2.542   0.754   7.030
 4147SOL     OW13120   3.345   1.786   6.569
 4147SOL    HW113121   3.369   1.847   6.499
 4147SOL    HW213122   3.429   1.752   6.601
 4148SOL     OW13123   2.582   0.559   7.290
 4148SOL    HW113124   2.625   0.619   7.351
 4148SOL    HW213125   2.604   0.472   7.323
 4149SOL     OW13126   3.338   1.195   7.216
 4149SOL    HW113127   3.327   1.210   7.310
 4149SOL    HW213128   3.430   1.212   7.199
 4150SOL     OW13129   2.289   1.811   7.202
 4150SOL    HW113130   2.199   1.817   7.169
 4150SOL    HW213131   2.303   1.717   7.218
 4151SOL     OW13132   3.525   0.880   6.845
 4151SOL    HW113133   3.525   0.795   6.801
 4151SOL    HW213134   3.518   0.944   6.774
 4152SOL     OW13135   3.082   0.339   6.028
 4152SOL    HW113136   3.151   0.273   6.018
 4152SOL    HW213137   3.101   0.382   6.111
 4153SOL     OW13138   2.449   0.738   6.260
 4153SOL    HW113139   2.485   0.826   6.244
 4153SOL    HW213140   2.385   0.726   6.190
 4154SOL     OW13141   3.615   0.381   7.228
 4154SOL    HW113142   3.595   0.390   7.135
 4154SOL    HW213143   3.555   0.314   7.259
 4155SOL     OW13144   3.616   0.930   7.099
 4155SOL    HW113145   3.608   1.023   7.117
 4155SOL    HW213146   3.592   0.920   7.007
 4156SOL     OW13147   2.732   1.366   5.625
 4156SOL    HW113148   2.686   1.389   5.706
 4156SOL    HW213149   2.742   1.449   5.578
 4157SOL     OW13150   2.733   0.971   6.443
 4157SOL    HW113151   2.782   0.892   6.464
 4157SOL    HW213152   2.713   1.011   6.527
 4158SOL     OW13153   2.939   0.988   5.676
 4158SOL    HW113154   2.917   1.041   5.600
 4158SOL    HW213155   3.013   0.935   5.648
 4159SOL     OW13156   3.712   1.557   6.427
 4159SOL    HW113157   3.633   1.540   6.376
 4159SOL    HW213158   3.712   1.489   6.495
 4160SOL     OW13159   3.675   0.181   6.830
 4160SOL    HW113160   3.677   0.086   6.839
 4160SOL    HW213161   3.694   0.197   6.738
 4161SOL     OW13162   2.291   0.433   6.112
 4161SOL    HW113163   2.324   0.362   6.058
 4161SOL    HW213164   2.242   0.389   6.182
 4162SOL     OW13165   3.559   1.491   6.683
 4162SOL    HW113166   3.482   1.468   6.631
 4162SOL    HW213167   3.569   1.418   6.745
 4163SOL     OW13168   2.195   0.556   6.882
 4163SOL    HW113169   2.247   0.496   6.936
 4163SOL    HW213170   2.213   0.528   6.792
 4164SOL     OW13171   3.323   0.254   6.696
 4164SOL    HW113172   3.337   0.166   6.730
 4164SOL    HW213173   3.267   0.296   6.761
 4165SOL     OW13174   2.865   0.026   6.732
 4165SOL    HW113175   2.782   3.996   6.694
 4165SOL    HW213176   2.917   3.946   6.741
 4166SOL     OW13177   2.628   1.326   5.888
 4166SOL    HW113178   2.595   1.237   5.902
 4166SOL    HW213179   2.697   1.337   5.954
 4167SOL     OW13180   3.171   0.070   5.745
 4167SOL    HW113181   3.175   3.985   5.702
 4167SOL    HW213182   3.087   0.069   5.792
 4168SOL     OW13183   3.142   0.456   6.271
 4168SOL    HW113184   3.096   0.540   6.265
 4168SOL    HW213185   3.145   0.437   6.364
 4169SOL     OW13186   3.453   0.210   6.453
 4169SOL    HW113187   3.405   0.234   6.532
 4169SOL    HW213188   3.451   0.289   6.399
 4170SOL     OW13189   1.898   1.065   5.882
 4170SOL    HW113190   1.991   1.058   5.861
 4170SOL    HW213191   1.874   0.976   5.910
 4171SOL     OW13192   2.747   1.665   5.907
 4171SOL    HW113193   2.681   1.641   5.843
 4171SOL    HW213194   2.697   1.680   5.988
 4172SOL     OW13195   2.087   0.620   7.569
 4172SOL    HW113196   1.998   0.630   7.601
 4172SOL    HW213197   2.078   0.600   7.476
 4173SOL     OW13198   2.078   0.301   8.440
 4173SOL    HW113199   2.115   0.258   8.516
 4173SOL    HW213200   1.993   0.259   8.427
 4174SOL     OW13201   1.870   0.398   8.080
 4174SOL    HW113202   1.784   0.414   8.119
 4174SOL    HW213203   1.855   0.331   8.013
 4175SOL     OW13204   2.431   1.295   8.626
 4175SOL    HW113205   2.343   1.300   8.587
 4175SOL    HW213206   2.446   1.383   8.660
 4176SOL     OW13207   3.429   1.513   8.156
 4176SOL    HW113208   3.386   1.492   8.239
 4176SOL    HW213209   3.358   1.519   8.092
 4177SOL     OW13210   2.995   0.699   8.143
 4177SOL    HW113211   3.042   0.781   8.131
 4177SOL    HW213212   2.947   0.710   8.225
 4178SOL     OW13213   3.624   0.624   7.674
 4178SOL    HW113214   3.605   0.612   7.580
 4178SOL    HW213215   3.606   0.538   7.712
 4179SOL     OW13216   2.612   1.139   8.493
 4179SOL    HW113217   2.544   1.176   8.550
 4179SOL    HW213218   2.652   1.216   8.452
 4180SOL     OW13219   2.734   0.767   9.273
 4180SOL    HW113220   2.720   0.837   9.336
 4180SOL    HW213221   2.756   0.812   9.191
 4181SOL     OW13222   2.549   1.000   8.094
 4181SOL    HW113223   2.615   0.989   8.163
 4181SOL    HW213224   2.479   1.051   8.135
 4182SOL     OW13225   2.575   1.150   9.264
 4182SOL    HW113226   2.622   1.227   9.295
 4182SOL    HW213227   2.494   1.184   9.227
 4183SOL     OW13228   2.193   1.414   8.517
 4183SOL    HW113229   2.116   1.381   8.472
 4183SOL    HW213230   2.236   1.471   8.453
 4184SOL     OW13231   3.320   1.502   8.807
 4184SOL    HW113232   3.375   1.580   8.816
 4184SOL    HW213233   3.255   1.511   8.876
 4185SOL     OW13234   2.308   0.392   8.939
 4185SOL    HW113235   2.399   0.362   8.939
 4185SOL    HW213236   2.257   0.311   8.948
 4186SOL     OW13237   3.472   0.450   8.183
 4186SOL    HW113238   3.404   0.484   8.125
 4186SOL    HW213239   3.493   0.523   8.241
 4187SOL     OW13240   2.999   1.342   9.142
 4187SOL    HW113241   3.040   1.337   9.228
 4187SOL    HW213242   2.947   1.263   9.135
 4188SOL     OW13243   2.127   1.089   8.345
 4188SOL    HW113244   2.121   1.000   8.379
 4188SOL    HW213245   2.071   1.141   8.402
 4189SOL     OW13246   2.468   1.793   8.877
 4189SOL    HW113247   2.389   1.776   8.928
 4189SOL    HW213248   2.493   1.883   8.900
 4190SOL     OW13249   2.445   0.982   7.581
 4190SOL    HW113250   2.495   1.028   7.515
 4190SOL    HW213251   2.482   1.010   7.665
 4191SOL     OW13252   3.445   0.142   8.904
 4191SOL    HW113253   3.472   0.214   8.847
 4191SOL    HW213254   3.405   0.185   8.980
 4192SOL     OW13255   1.982   0.655   8.009
 4192SOL    HW113256   1.953   0.567   8.032
 4192SOL    HW213257   1.973   0.706   8.090
 4193SOL     OW13258   3.703   1.758   7.785
 4193SOL    HW113259   3.774   1.733   7.844
 4193SOL    HW213260   3.721   1.849   7.762
 4194SOL     OW13261   3.551   0.918   8.096
 4194SOL    HW113262   3.635   0.875   8.080
 4194SOL    HW213263   3.534   0.967   8.016
 4195SOL     OW13264   3.505   1.103   7.880
 4195SOL    HW113265   3.589   1.108   7.836
 4195SOL    HW213266   3.511   1.167   7.951
 4196SOL     OW13267   1.985   0.750   9.028
 4196SOL    HW113268   2.074   0.783   9.031
 4196SOL    HW213269   1.930   0.829   9.032
 4197SOL     OW13270   2.477   1.388   8.181
 4197SOL    HW113271   2.445   1.300   8.205
 4197SOL    HW213272   2.427   1.411   8.103
 4198SOL     OW13273   3.148   1.237   8.869
 4198SOL    HW113274   3.180   1.170   8.809
 4198SOL    HW213275   3.207   1.232   8.945
 4199SOL     OW13276   2.683   0.006   7.966
 4199SOL    HW113277   2.728   0.085   7.940
 4199SOL    HW213278   2.590   0.029   7.965
 4200SOL     OW13279   2.051   0.961   8.726
 4200SOL    HW113280   2.136   0.921   8.710
 4200SOL    HW213281   1.991   0.915   8.667
 4201SOL     OW13282   3.389   0.997   7.649
 4201SOL    HW113283   3.320   0.941   7.684
 4201SOL    HW213284   3.433   1.032   7.727
 4202SOL     OW13285   3.046   1.811   9.072
 4202SOL    HW113286   3.054   1.870   8.998
 4202SOL    HW213287   3.064   1.724   9.036
 4203SOL     OW13288   2.221   0.251   9.295
 4203SOL    HW113289   2.266   0.336   9.296
 4203SOL    HW213290   2.128   0.273   9.296
 4204SOL     OW13291   3.327   1.421   8.395
 4204SOL    HW113292   3.261   1.435   8.463
 4204SOL    HW213293   3.316   1.329   8.371
 4205SOL     OW13294   3.513   1.750   8.027
 4205SOL    HW113295   3.500   1.715   7.939
 4205SOL    HW213296   3.496   1.675   8.085
 4206SOL     OW13297   2.456   0.718   7.718
 4206SOL    HW113298   2.460   0.802   7.672
 4206SOL    HW213299   2.391   0.732   7.788
 4207SOL     OW13300   3.136   0.371   8.389
 4207SOL    HW113301   3.049   0.331   8.397
 4207SOL    HW213302   3.194   0.309   8.434
 4208SOL     OW13303   3.440   1.671   7.758
 4208SOL    HW113304   3.531   1.700   7.752
 4208SOL    HW213305   3.414   1.656   7.667
 4209SOL     OW13306   2.657   0.616   8.899
 4209SOL    HW113307   2.629   0.590   8.987
 4209SOL    HW213308   2.621   0.549   8.841
 4210SOL     OW13309   3.254   0.476   9.125
 4210SOL    HW113310   3.260   0.521   9.209
 4210SOL    HW213311   3.310   0.399   9.136
 4211SOL     OW13312   2.813   0.887   9.034
 4211SOL    HW113313   2.868   0.818   8.996
 4211SOL    HW213314   2.764   0.922   8.959
 4212SOL     OW13315   2.855   0.402   8.685
 4212SOL    HW113316   2.770   0.421   8.722
 4212SOL    HW213317   2.836   0.375   8.595
 4213SOL     OW13318   2.914   0.701   7.872
 4213SOL    HW113319   2.932   0.694   7.966
 4213SOL    HW213320   2.831   0.655   7.860
 4214SOL     OW13321   1.948   0.819   8.225
 4214SOL    HW113322   2.029   0.814   8.277
 4214SOL    HW213323   1.898   0.890   8.266
 4215SOL     OW13324   2.757   0.352   7.648
 4215SOL    HW113325   2.800   0.411   7.586
 4215SOL    HW213326   2.746   0.270   7.601
 4216SOL     OW13327   3.568   0.573   9.278
 4216SOL    HW113328   3.531   0.647   9.230
 4216SOL    HW213329   3.594   0.511   9.210
 4217SOL     OW13330   3.240   1.140   7.987
 4217SOL    HW113331   3.321   1.128   7.937
 4217SOL    HW213332   3.190   1.203   7.935
 4218SOL     OW13333   2.421   0.199   8.328
 4218SOL    HW113334   2.423   0.218   8.422
 4218SOL    HW213335   2.416   0.284   8.286
 4219SOL     OW13336   2.896   1.467   7.944
 4219SOL    HW113337   2.870   1.553   7.910
 4219SOL    HW213338   2.871   1.469   8.036
 4220SOL     OW13339   2.220   1.795   8.295
 4220SOL    HW113340   2.262   1.712   8.316
 4220SOL    HW213341   2.290   1.860   8.305
 4221SOL     OW13342   3.668   1.062   8.317
 4221SOL    HW113343   3.616   1.035   8.242
 4221SOL    HW213344   3.606   1.065   8.390
 4222SOL     OW13345   3.089   1.540   8.962
 4222SOL    HW113346   3.077   1.468   9.023
 4222SOL    HW213347   3.023   1.525   8.894
 4223SOL     OW13348   2.189   0.950   7.701
 4223SOL    HW113349   2.268   0.972   7.652
 4223SOL    HW213350   2.158   0.869   7.660
 4224SOL     OW13351   3.342   0.749   8.176
 4224SOL    HW113352   3.338   0.708   8.262
 4224SOL    HW213353   3.420   0.805   8.180
 4225SOL     OW13354   2.332   1.265   9.185
 4225SOL    HW113355   2.305   1.269   9.093
 4225SOL    HW213356   2.250   1.261   9.233
 4226SOL     OW13357   3.006   1.766   7.698
 4226SOL    HW113358   2.912   1.783   7.699
 4226SOL    HW213359   3.019   1.705   7.625
 4227SOL     OW13360   2.030   0.274   8.948
 4227SOL    HW113361   1.977   0.353   8.934
 4227SOL    HW213362   2.034   0.264   9.043
 4228SOL     OW13363   3.487   1.384   7.537
 4228SOL    HW113364   3.444   1.468   7.521
 4228SOL    HW213365   3.420   1.319   7.515
 4229SOL     OW13366   3.298   0.173   7.850
 4229SOL    HW113367   3.250   0.098   7.814
 4229SOL    HW213368   3.372   0.134   7.895
 4230SOL     OW13369   2.170   1.785   8.668
 4230SOL    HW113370   2.202   1.701   8.703
 4230SOL    HW213371   2.121   1.760   8.589
 4231SOL     OW13372   2.806   1.705   8.348
 4231SOL    HW113373   2.884   1.655   8.371
 4231SOL    HW213374   2.763   1.652   8.281
 4232SOL     OW13375   2.258   0.695   7.923
 4232SOL    HW113376   2.276   0.602   7.936
 4232SOL    HW213377   2.164   0.704   7.940
 4233SOL     OW13378   3.392   0.228   9.175
 4233SOL    HW113379   3.383   0.253   9.267
 4233SOL    HW213380   3.377   0.134   9.174
 4234SOL     OW13381   2.506   0.128   7.558
 4234SOL    HW113382   2.527   0.043   7.596
 4234SOL    HW213383   2.444   0.108   7.488
 4235SOL     OW13384   2.636   0.283   9.219
 4235SOL    HW113385   2.711   0.224   9.221
 4235SOL    HW213386   2.580   0.253   9.291
 4236SOL     OW13387   2.738   1.523   8.643
 4236SOL    HW113388   2.722   1.486   8.556
 4236SOL    HW213389   2.807   1.469   8.680
 4237SOL     OW13390   3.201   0.587   8.879
 4237SOL    HW113391   3.232   0.559   8.965
 4237SOL    HW213392   3.236   0.676   8.869
 4238SOL     OW13393   2.681   1.391   8.392
 4238SOL    HW113394   2.766   1.379   8.351
 4238SOL    HW213395   2.619   1.389   8.319
 4239SOL     OW13396   2.792   0.512   8.347
 4239SOL    HW113397   2.767   0.503   8.255
 4239SOL    HW213398   2.818   0.423   8.373
 4240SOL     OW13399   2.406   0.056   7.938
 4240SOL    HW113400   2.332   0.062   7.999
 4240SOL    HW213401   2.402   0.137   7.888
 4241SOL     OW13402   3.291   1.199   7.487
 4241SOL    HW113403   3.322   1.124   7.538
 4241SOL    HW213404   3.207   1.221   7.526
 4242SOL     OW13405   2.193   0.045   7.660
 4242SOL    HW113406   2.198   0.110   7.590
 4242SOL    HW213407   2.274   0.056   7.709
 4243SOL     OW13408   2.806   0.251   7.907
 4243SOL    HW113409   2.781   0.289   7.823
 4243SOL    HW213410   2.901   0.256   7.908
 4244SOL     OW13411   2.942   0.685   8.905
 4244SOL    HW113412   2.872   0.620   8.912
 4244SOL    HW213413   3.022   0.634   8.901
 4245SOL     OW13414   3.080   1.573   8.242
 4245SOL    HW113415   3.098   1.638   8.174
 4245SOL    HW213416   3.151   1.584   8.305
 4246SOL     OW13417   2.336   1.152   8.184
 4246SOL    HW113418   2.267   1.131   8.248
 4246SOL    HW213419   2.296   1.133   8.100
 4247SOL     OW13420   3.125   1.792   8.059
 4247SOL    HW113421   3.176   1.852   8.003
 4247SOL    HW213422   3.064   1.850   8.105
 4248SOL     OW13423   2.884   0.539   7.478
 4248SOL    HW113424   2.840   0.622   7.459
 4248SOL    HW213425   2.947   0.561   7.547
 4249SOL     OW13426   1.945   0.549   8.845
 4249SOL    HW113427   2.036   0.552   8.815
 4249SOL    HW213428   1.937   0.622   8.906
 4250SOL     OW13429   2.424   0.231   8.609
 4250SOL    HW113430   2.448   0.139   8.618
 4250SOL    HW213431   2.335   0.236   8.642
 4251SOL     OW13432   2.732   0.461   8.085
 4251SOL    HW113433   2.685   0.515   8.022
 4251SOL    HW213434   2.754   0.381   8.037
 4252SOL     OW13435   2.859   0.039   8.229
 4252SOL    HW113436   2.820   0.069   8.147
 4252SOL    HW213437   2.870   3.944   8.217
 4253SOL     OW13438   3.302   1.161   8.306
 4253SOL    HW113439   3.232   1.096   8.303
 4253SOL    HW213440   3.329   1.170   8.214
 4254SOL     OW13441   3.325   0.609   8.420
 4254SOL    HW113442   3.271   0.531   8.425
 4254SOL    HW213443   3.385   0.602   8.495
 4255SOL     OW13444   3.720   0.825   7.823
 4255SOL    HW113445   3.761   0.767   7.888
 4255SOL    HW213446   3.683   0.765   7.758
 4256SOL     OW13447   3.530   1.265   8.092
 4256SOL    HW113448   3.625   1.267   8.101
 4256SOL    HW213449   3.502   1.354   8.112
 4257SOL     OW13450   3.257   0.577   7.517
 4257SOL    HW113451   3.194   0.557   7.586
 4257SOL    HW213452   3.342   0.560   7.557
 4258SOL     OW13453   2.388   0.266   7.764
 4258SOL    HW113454   2.444   0.228   7.696
 4258SOL    HW213455   2.358   0.349   7.726
 4259SOL     OW13456   3.613   1.233   9.011
 4259SOL    HW113457   3.700   1.198   8.994
 4259SOL    HW213458   3.628   1.323   9.041
 4260SOL     OW13459   2.917   1.352   8.779
 4260SOL    HW113460   2.842   1.322   8.830
 4260SOL    HW213461   2.993   1.312   8.822
 4261SOL     OW13462   3.468   1.629   9.105
 4261SOL    HW113463   3.459   1.663   9.016
 4261SOL    HW213464   3.548   1.576   9.103
 4262SOL     OW13465   2.994   1.207   8.551
 4262SOL    HW113466   2.936   1.246   8.617
 4262SOL    HW213467   2.962   1.241   8.468
 4263SOL     OW13468   3.488   1.095   8.523
 4263SOL    HW113469   3.479   1.157   8.595
 4263SOL    HW213470   3.412   1.112   8.467
 4264SOL     OW13471   2.774   0.118   8.849
 4264SOL    HW113472   2.794   0.089   8.760
 4264SOL    HW213473   2.854   0.159   8.880
 4265SOL     OW13474   2.846   1.116   9.171
 4265SOL    HW113475   2.755   1.132   9.195
 4265SOL    HW213476   2.843   1.037   9.117
 4266SOL     OW13477   2.561   1.049   7.817
 4266SOL    HW113478   2.552   1.038   7.911
 4266SOL    HW213479   2.642   1.004   7.794
 4267SOL     OW13480   2.284   0.816   8.699
 4267SOL    HW113481   2.352   0.825   8.766
 4267SOL    HW213482   2.248   0.728   8.712
 4268SOL     OW13483   3.128   0.375   8.725
 4268SOL    HW113484   3.162   0.453   8.769
 4268SOL    HW213485   3.040   0.400   8.695
 4269SOL     OW13486   1.938   1.579   8.803
 4269SOL    HW113487   1.905   1.636   8.734
 4269SOL    HW213488   2.032   1.574   8.787
 4270SOL     OW13489   2.221   1.108   7.942
 4270SOL    HW113490   2.217   1.176   7.875
 4270SOL    HW213491   2.211   1.026   7.894
 4271SOL     OW13492   2.415   0.530   8.304
 4271SOL    HW113493   2.428   0.590   8.231
 4271SOL    HW213494   2.480   0.557   8.369
 4272SOL     OW13495   3.116   1.350   7.834
 4272SOL    HW113496   3.176   1.418   7.863
 4272SOL    HW213497   3.032   1.373   7.875
 4273SOL     OW13498   3.149   1.460   8.597
 4273SOL    HW113499   3.205   1.465   8.674
 4273SOL    HW213500   3.095   1.382   8.612
 4274SOL     OW13501   3.432   0.633   7.935
 4274SOL    HW113502   3.390   0.688   8.001
 4274SOL    HW213503   3.481   0.694   7.880
 4275SOL     OW13504   2.211   1.525   8.760
 4275SOL    HW113505   2.197   1.479   8.677
 4275SOL    HW213506   2.306   1.533   8.768
 4276SOL     OW13507   2.281   0.745   9.051
 4276SOL    HW113508   2.342   0.789   8.992
 4276SOL    HW213509   2.322   0.660   9.069
 4277SOL     OW13510   3.467   0.779   9.133
 4277SOL    HW113511   3.382   0.822   9.127
 4277SOL    HW213512   3.520   0.822   9.065
 4278SOL     OW13513   2.872   0.136   9.229
 4278SOL    HW113514   2.926   0.207   9.193
 4278SOL    HW213515   2.857   0.077   9.155
 4279SOL     OW13516   2.351   0.034   9.209
 4279SOL    HW113517   2.352   0.049   9.114
 4279SOL    HW213518   2.292   0.101   9.243
 4280SOL     OW13519   2.446   0.874   8.480
 4280SOL    HW113520   2.476   0.965   8.484
 4280SOL    HW213521   2.389   0.865   8.556
 4281SOL     OW13522   3.212   0.859   8.471
 4281SOL    HW113523   3.127   0.845   8.431
 4281SOL    HW213524   3.257   0.775   8.464
 4282SOL     OW13525   3.061   0.538   7.704
 4282SOL    HW113526   3.069   0.459   7.757
 4282SOL    HW213527   3.017   0.601   7.762
 4283SOL     OW13528   2.160   0.209   8.691
 4283SOL    HW113529   2.118   0.237   8.772
 4283SOL    HW213530   2.150   0.113   8.691
 4284SOL     OW13531   1.908   1.313   8.728
 4284SOL    HW113532   1.941   1.257   8.799
 4284SOL    HW213533   1.913   1.402   8.764
 4285SOL     OW13534   2.583   0.631   8.499
 4285SOL    HW113535   2.660   0.619   8.442
 4285SOL    HW213536   2.554   0.721   8.480
 4286SOL     OW13537   3.594   0.957   9.312
 4286SOL    HW113538   3.552   0.893   9.254
 4286SOL    HW213539   3.529   0.973   9.381
 4287SOL     OW13540   2.186   0.055   8.102
 4287SOL    HW113541   2.165   0.148   8.113
 4287SOL    HW213542   2.153   0.014   8.183
 4288SOL     OW13543   3.475   0.394   7.827
 4288SOL    HW113544   3.434   0.325   7.880
 4288SOL    HW213545   3.453   0.475   7.872
 4289SOL     OW13546   2.892   0.759   8.406
 4289SOL    HW113547   2.883   0.776   8.500
 4289SOL    HW213548   2.864   0.668   8.395
 4290SOL     OW13549   2.843   1.567   9.168
 4290SOL    HW113550   2.828   1.610   9.085
 4290SOL    HW213551   2.887   1.485   9.145
 4291SOL     OW13552   3.704   1.497   9.045
 4291SOL    HW113553   3.728   1.527   8.958
 4291SOL    HW213554   3.784   1.506   9.097
 4292SOL     OW13555   2.214   0.915   9.258
 4292SOL    HW113556   2.295   0.935   9.304
 4292SOL    HW213557   2.240   0.853   9.190
 4293SOL     OW13558   3.361   0.273   7.581
 4293SOL    HW113559   3.288   0.211   7.591
 4293SOL    HW213560   3.373   0.311   7.668
 4294SOL     OW13561   3.148   0.826   7.476
 4294SOL    HW113562   3.191   0.741   7.480
 4294SOL    HW213563   3.181   0.866   7.395
 4295SOL     OW13564   2.927   1.339   8.301
 4295SOL    HW113565   2.934   1.266   8.240
 4295SOL    HW213566   2.991   1.403   8.269
 4296SOL     OW13567   2.169   0.810   8.394
 4296SOL    HW113568   2.263   0.830   8.387
 4296SOL    HW213569   2.166   0.719   8.425
 4297SOL     OW13570   2.198   0.537   8.462
 4297SOL    HW113571   2.157   0.452   8.447
 4297SOL    HW213572   2.274   0.537   8.404
 4298SOL     OW13573   2.995   0.380   9.146
 4298SOL    HW113574   2.946   0.434   9.208
 4298SOL    HW213575   3.081   0.421   9.141
 4299SOL     OW13576   3.014   0.226   8.929
 4299SOL    HW113577   3.004   0.279   9.008
 4299SOL    HW213578   3.039   0.288   8.861
 4300SOL     OW13579   1.986   1.720   8.448
 4300SOL    HW113580   1.943   1.660   8.388
 4300SOL    HW213581   2.032   1.783   8.392
 4301SOL     OW13582   2.362   1.569   8.361
 4301SOL    HW113583   2.426   1.636   8.383
 4301SOL    HW213584   2.411   1.506   8.308
 4302SOL     OW13585   2.838   0.787   8.671
 4302SOL    HW113586   2.895   0.769   8.745
 4302SOL    HW213587   2.753   0.750   8.697
 4303SOL     OW13588   1.895   0.548   8.565
 4303SOL    HW113589   1.969   0.523   8.510
 4303SOL    HW213590   1.929   0.547   8.654
 4304SOL     OW13591   2.066   0.527   9.160
 4304SOL    HW113592   2.137   0.507   9.100
 4304SOL    HW213593   2.022   0.603   9.121
 4305SOL     OW13594   3.243   0.935   9.105
 4305SOL    HW113595   3.264   1.028   9.102
 4305SOL    HW213596   3.238   0.909   9.013
 4306SOL     OW13597   2.680   0.573   7.813
 4306SOL    HW113598   2.686   0.497   7.754
 4306SOL    HW213599   2.604   0.622   7.781
 4307SOL     OW13600   3.501   0.602   8.629
 4307SOL    HW113601   3.490   0.542   8.703
 4307SOL    HW213602   3.587   0.582   8.593
 4308SOL     OW13603   2.114   1.536   9.154
 4308SOL    HW113604   2.095   1.605   9.217
 4308SOL    HW213605   2.118   1.456   9.206
 4309SOL     OW13606   2.573   0.451   8.702
 4309SOL    HW113607   2.521   0.375   8.678
 4309SOL    HW213608   2.563   0.511   8.628
 4310SOL     OW13609   2.786   1.679   8.918
 4310SOL    HW113610   2.761   1.641   8.833
 4310SOL    HW213611   2.780   1.773   8.905
 4311SOL     OW13612   2.323   0.493   7.629
 4311SOL    HW113613   2.381   0.566   7.655
 4311SOL    HW213614   2.238   0.534   7.617
 4312SOL     OW13615   2.005   1.142   8.922
 4312SOL    HW113616   2.006   1.093   9.005
 4312SOL    HW213617   2.022   1.076   8.855
 4313SOL     OW13618   3.183   1.043   8.669
 4313SOL    HW113619   3.206   0.981   8.600
 4313SOL    HW213620   3.116   1.099   8.629
 4314SOL     OW13621   3.175   0.856   7.753
 4314SOL    HW113622   3.101   0.824   7.804
 4314SOL    HW213623   3.149   0.842   7.662
 4315SOL     OW13624   3.644   1.740   8.607
 4315SOL    HW113625   3.699   1.768   8.533
 4315SOL    HW213626   3.614   1.653   8.582
 4316SOL     OW13627   3.101   1.732   8.554
 4316SOL    HW113628   3.184   1.756   8.512
 4316SOL    HW213629   3.111   1.640   8.575
 4317SOL     OW13630   1.950   1.259   8.467
 4317SOL    HW113631   1.933   1.279   8.559
 4317SOL    HW213632   1.871   1.213   8.438
 4318SOL     OW13633   2.539   1.670   9.181
 4318SOL    HW113634   2.485   1.749   9.179
 4318SOL    HW213635   2.607   1.686   9.116
 4319SOL     OW13636   3.549   0.119   7.936
 4319SOL    HW113637   3.630   0.135   7.888
 4319SOL    HW213638   3.553   0.026   7.958
 4320SOL     OW13639   3.256   1.567   7.936
 4320SOL    HW113640   3.316   1.601   7.870
 4320SOL    HW213641   3.203   1.643   7.962
 4321SOL     OW13642   2.032   1.737   9.307
 4321SOL    HW113643   1.969   1.697   9.367
 4321SOL    HW213644   2.004   1.828   9.300
 4322SOL     OW13645   3.139   0.928   8.120
 4322SOL    HW113646   3.213   0.869   8.131
 4322SOL    HW213647   3.174   0.999   8.066
 4323SOL     OW13648   2.669   1.275   8.874
 4323SOL    HW113649   2.642   1.315   8.956
 4323SOL    HW213650   2.598   1.295   8.813
 4324SOL     OW13651   3.480   1.728   8.839
 4324SOL    HW113652   3.537   1.732   8.762
 4324SOL    HW213653   3.467   1.819   8.864
 4325SOL     OW13654   3.704   0.182   8.419
 4325SOL    HW113655   3.728   0.097   8.381
 4325SOL    HW213656   3.618   0.201   8.382
 4326SOL     OW13657   2.125   0.315   8.162
 4326SOL    HW113658   2.038   0.350   8.139
 4326SOL    HW213659   2.124   0.309   8.258
 4327SOL     OW13660   3.061   1.610   7.481
 4327SOL    HW113661   3.053   1.514   7.486
 4327SOL    HW213662   3.043   1.630   7.389
 4328SOL     OW13663   2.686   1.006   8.822
 4328SOL    HW113664   2.729   1.001   8.737
 4328SOL    HW213665   2.683   1.100   8.842
 4329SOL     OW13666   2.780   0.913   7.735
 4329SOL    HW113667   2.843   0.946   7.671
 4329SOL    HW213668   2.828   0.844   7.783
 4330SOL     OW13669   3.352   1.630   7.492
 4330SOL    HW113670   3.258   1.622   7.476
 4330SOL    HW213671   3.391   1.635   7.404
 4331SOL     OW13672   2.232   1.300   8.938
 4331SOL    HW113673   2.217   1.379   8.887
 4331SOL    HW213674   2.154   1.246   8.924
 4332SOL     OW13675   3.461   1.280   8.724
 4332SOL    HW113676   3.531   1.271   8.790
 4332SOL    HW213677   3.405   1.349   8.759
 4333SOL     OW13678   2.921   1.110   8.158
 4333SOL    HW113679   2.849   1.059   8.195
 4333SOL    HW213680   2.985   1.044   8.130
 4334SOL     OW13681   2.876   0.249   8.418
 4334SOL    HW113682   2.867   0.199   8.338
 4334SOL    HW213683   2.874   0.184   8.488
 4335SOL     OW13684   3.583   0.395   8.819
 4335SOL    HW113685   3.655   0.457   8.820
 4335SOL    HW213686   3.614   0.322   8.765
 4336SOL     OW13687   1.976   1.029   9.171
 4336SOL    HW113688   1.899   1.003   9.222
 4336SOL    HW213689   2.050   0.988   9.215
 4337SOL     OW13690   2.557   0.260   8.951
 4337SOL    HW113691   2.622   0.204   8.910
 4337SOL    HW213692   2.583   0.264   9.043
 4338SOL     OW13693   1.963   0.317   7.441
 4338SOL    HW113694   1.896   0.337   7.506
 4338SOL    HW213695   1.970   0.397   7.389
 4339SOL     OW13696   3.286   0.856   8.845
 4339SOL    HW113697   3.236   0.918   8.792
 4339SOL    HW213698   3.375   0.859   8.809
 4340SOL     OW13699   1.943   0.151   7.788
 4340SOL    HW113700   1.911   0.209   7.719
 4340SOL    HW213701   2.029   0.124   7.758
 4341SOL     OW13702   3.044   1.333   7.566
 4341SOL    HW113703   2.966   1.278   7.571
 4341SOL    HW213704   3.074   1.340   7.656
 4342SOL     OW13705   2.484   0.829   8.882
 4342SOL    HW113706   2.540   0.904   8.867
 4342SOL    HW213707   2.544   0.755   8.891
 4343SOL     OW13708   3.344   1.783   8.429
 4343SOL    HW113709   3.368   1.848   8.362
 4343SOL    HW213710   3.428   1.753   8.463
 4344SOL     OW13711   2.581   0.560   9.152
 4344SOL    HW113712   2.623   0.622   9.211
 4344SOL    HW213713   2.604   0.474   9.186
 4345SOL     OW13714   3.335   1.196   9.077
 4345SOL    HW113715   3.324   1.211   9.171
 4345SOL    HW213716   3.428   1.212   9.061
 4346SOL     OW13717   2.235   1.747   9.019
 4346SOL    HW113718   2.159   1.760   8.962
 4346SOL    HW213719   2.218   1.664   9.064
 4347SOL     OW13720   3.525   0.880   8.707
 4347SOL    HW113721   3.525   0.795   8.664
 4347SOL    HW213722   3.519   0.944   8.636
 4348SOL     OW13723   3.082   0.339   7.889
 4348SOL    HW113724   3.151   0.273   7.880
 4348SOL    HW213725   3.102   0.382   7.973
 4349SOL     OW13726   2.451   0.736   8.120
 4349SOL    HW113727   2.490   0.822   8.104
 4349SOL    HW213728   2.385   0.727   8.052
 4350SOL     OW13729   3.616   0.381   9.090
 4350SOL    HW113730   3.595   0.390   8.997
 4350SOL    HW213731   3.555   0.314   9.121
 4351SOL     OW13732   3.617   0.930   8.961
 4351SOL    HW113733   3.607   1.023   8.979
 4351SOL    HW213734   3.592   0.920   8.869
 4352SOL     OW13735   2.744   1.342   7.469
 4352SOL    HW113736   2.742   1.381   7.557
 4352SOL    HW213737   2.765   1.415   7.411
 4353SOL     OW13738   2.525   1.786   8.384
 4353SOL    HW113739   2.501   1.877   8.364
 4353SOL    HW213740   2.621   1.787   8.384
 4354SOL     OW13741   2.731   0.970   8.303
 4354SOL    HW113742   2.781   0.897   8.340
 4354SOL    HW213743   2.693   1.014   8.379
 4355SOL     OW13744   2.943   0.996   7.534
 4355SOL    HW113745   2.923   1.041   7.453
 4355SOL    HW213746   3.015   0.937   7.512
 4356SOL     OW13747   3.712   1.557   8.289
 4356SOL    HW113748   3.633   1.539   8.238
 4356SOL    HW213749   3.714   1.488   8.355
 4357SOL     OW13750   2.090   1.299   9.303
 4357SOL    HW113751   2.024   1.236   9.276
 4357SOL    HW213752   2.075   1.311   9.396
 4358SOL     OW13753   1.927   1.205   8.148
 4358SOL    HW113754   1.954   1.161   8.228
 4358SOL    HW213755   2.000   1.193   8.087
 4359SOL     OW13756   2.545   1.407   9.077
 4359SOL    HW113757   2.467   1.363   9.111
 4359SOL    HW213758   2.541   1.495   9.115
 4360SOL     OW13759   3.675   0.181   8.692
 4360SOL    HW113760   3.677   0.086   8.701
 4360SOL    HW213761   3.694   0.197   8.600
 4361SOL     OW13762   2.292   0.435   7.974
 4361SOL    HW113763   2.325   0.363   7.920
 4361SOL    HW213764   2.243   0.391   8.044
 4362SOL     OW13765   3.556   1.491   8.544
 4362SOL    HW113766   3.479   1.468   8.493
 4362SOL    HW213767   3.566   1.419   8.606
 4363SOL     OW13768   2.195   0.557   8.743
 4363SOL    HW113769   2.247   0.497   8.797
 4363SOL    HW213770   2.213   0.530   8.653
 4364SOL     OW13771   2.685   1.585   8.130
 4364SOL    HW113772   2.647   1.638   8.060
 4364SOL    HW213773   2.619   1.519   8.149
 4365SOL     OW13774   3.323   0.254   8.558
 4365SOL    HW113775   3.337   0.166   8.593
 4365SOL    HW213776   3.267   0.297   8.623
 4366SOL     OW13777   2.865   0.026   8.594
 4366SOL    HW113778   2.783   3.996   8.556
 4366SOL    HW213779   2.918   3.947   8.603
 4367SOL     OW13780   2.483   1.555   8.736
 4367SOL    HW113781   2.483   1.638   8.784
 4367SOL    HW213782   2.571   1.549   8.699
 4368SOL     OW13783   3.171   0.070   7.607
 4368SOL    HW113784   3.176   3.985   7.564
 4368SOL    HW213785   3.086   0.069   7.653
 4369SOL     OW13786   3.142   0.457   8.132
 4369SOL    HW113787   3.095   0.540   8.127
 4369SOL    HW213788   3.145   0.437   8.226
 4370SOL     OW13789   3.453   0.210   8.315
 4370SOL    HW113790   3.404   0.234   8.394
 4370SOL    HW213791   3.451   0.289   8.261
 4371SOL     OW13792   1.939   1.054   7.745
 4371SOL    HW113793   2.027   1.024   7.722
 4371SOL    HW213794   1.893   0.975   7.774
 4372SOL     OW13795   2.087   0.619   9.431
 4372SOL    HW113796   1.997   0.628   9.462
 4372SOL    HW213797   2.078   0.599   9.338
 4373SOL     OW13798   2.078   0.302  10.302
 4373SOL    HW113799   2.116   0.258  10.378
 4373SOL    HW213800   1.993   0.259  10.289
 4374SOL     OW13801   1.871   0.399   9.942
 4374SOL    HW113802   1.784   0.414   9.981
 4374SOL    HW213803   1.856   0.330   9.877
 4375SOL     OW13804   2.431   1.293  10.489
 4375SOL    HW113805   2.345   1.299  10.448
 4375SOL    HW213806   2.448   1.382  10.520
 4376SOL     OW13807   3.428   1.513  10.018
 4376SOL    HW113808   3.385   1.491  10.101
 4376SOL    HW213809   3.357   1.518   9.955
 4377SOL     OW13810   2.995   0.698  10.005
 4377SOL    HW113811   3.042   0.781   9.993
 4377SOL    HW213812   2.947   0.710  10.088
 4378SOL     OW13813   3.625   0.624   9.535
 4378SOL    HW113814   3.606   0.612   9.442
 4378SOL    HW213815   3.605   0.539   9.575
 4379SOL     OW13816   2.612   1.139  10.356
 4379SOL    HW113817   2.545   1.176  10.413
 4379SOL    HW213818   2.650   1.215  10.311
 4380SOL     OW13819   2.734   0.767  11.134
 4380SOL    HW113820   2.720   0.837  11.197
 4380SOL    HW213821   2.756   0.812  11.053
 4381SOL     OW13822   2.548   0.998   9.954
 4381SOL    HW113823   2.613   0.990  10.024
 4381SOL    HW213824   2.479   1.053   9.993
 4382SOL     OW13825   2.576   1.150  11.127
 4382SOL    HW113826   2.623   1.227  11.157
 4382SOL    HW213827   2.494   1.184  11.089
 4383SOL     OW13828   2.195   1.415  10.378
 4383SOL    HW113829   2.118   1.381  10.332
 4383SOL    HW213830   2.239   1.470  10.314
 4384SOL     OW13831   3.320   1.502  10.669
 4384SOL    HW113832   3.375   1.580  10.678
 4384SOL    HW213833   3.254   1.511  10.738
 4385SOL     OW13834   2.308   0.391  10.801
 4385SOL    HW113835   2.399   0.363  10.801
 4385SOL    HW213836   2.258   0.311  10.810
 4386SOL     OW13837   3.472   0.450  10.045
 4386SOL    HW113838   3.404   0.483   9.987
 4386SOL    HW213839   3.492   0.523  10.104
 4387SOL     OW13840   2.091   1.691   9.766
 4387SOL    HW113841   2.100   1.763   9.829
 4387SOL    HW213842   2.172   1.693   9.716
 4388SOL     OW13843   2.999   1.342  11.004
 4388SOL    HW113844   3.040   1.336  11.090
 4388SOL    HW213845   2.947   1.262  10.997
 4389SOL     OW13846   2.091   1.431   9.846
 4389SOL    HW113847   2.082   1.526   9.836
 4389SOL    HW213848   2.031   1.408   9.916
 4390SOL     OW13849   2.125   1.091  10.200
 4390SOL    HW113850   2.121   1.003  10.239
 4390SOL    HW213851   2.068   1.144  10.256
 4391SOL     OW13852   2.470   1.792  10.740
 4391SOL    HW113853   2.390   1.775  10.790
 4391SOL    HW213854   2.495   1.881  10.765
 4392SOL     OW13855   2.443   0.984   9.448
 4392SOL    HW113856   2.491   1.030   9.379
 4392SOL    HW213857   2.482   1.016   9.529
 4393SOL     OW13858   3.445   0.142  10.766
 4393SOL    HW113859   3.472   0.214  10.709
 4393SOL    HW213860   3.405   0.185  10.842
 4394SOL     OW13861   1.980   0.658   9.871
 4394SOL    HW113862   1.953   0.569   9.894
 4394SOL    HW213863   1.972   0.707   9.952
 4395SOL     OW13864   3.703   1.757   9.645
 4395SOL    HW113865   3.773   1.733   9.706
 4395SOL    HW213866   3.720   1.849   9.624
 4396SOL     OW13867   1.863   1.609   9.480
 4396SOL    HW113868   1.850   1.517   9.458
 4396SOL    HW213869   1.901   1.608   9.567
 4397SOL     OW13870   3.550   0.918   9.958
 4397SOL    HW113871   3.634   0.875   9.941
 4397SOL    HW213872   3.533   0.968   9.878
 4398SOL     OW13873   3.504   1.103   9.742
 4398SOL    HW113874   3.589   1.109   9.698
 4398SOL    HW213875   3.510   1.167   9.813
 4399SOL     OW13876   1.985   0.750  10.889
 4399SOL    HW113877   2.075   0.783  10.893
 4399SOL    HW213878   1.931   0.829  10.895
 4400SOL     OW13879   2.478   1.389  10.044
 4400SOL    HW113880   2.432   1.306  10.053
 4400SOL    HW213881   2.460   1.417   9.954
 4401SOL     OW13882   3.148   1.237  10.732
 4401SOL    HW113883   3.180   1.170  10.671
 4401SOL    HW213884   3.207   1.232  10.807
 4402SOL     OW13885   2.683   0.006   9.828
 4402SOL    HW113886   2.728   0.085   9.801
 4402SOL    HW213887   2.590   0.029   9.827
 4403SOL     OW13888   2.050   0.961  10.588
 4403SOL    HW113889   2.136   0.922  10.572
 4403SOL    HW213890   1.991   0.913  10.529
 4404SOL     OW13891   3.390   0.997   9.511
 4404SOL    HW113892   3.320   0.940   9.545
 4404SOL    HW213893   3.432   1.032   9.589
 4405SOL     OW13894   3.046   1.811  10.934
 4405SOL    HW113895   3.054   1.870  10.860
 4405SOL    HW213896   3.064   1.724  10.898
 4406SOL     OW13897   2.221   0.251  11.157
 4406SOL    HW113898   2.266   0.336  11.157
 4406SOL    HW213899   2.128   0.273  11.158
 4407SOL     OW13900   3.329   1.420  10.258
 4407SOL    HW113901   3.262   1.435  10.325
 4407SOL    HW213902   3.317   1.328  10.233
 4408SOL     OW13903   3.514   1.749   9.889
 4408SOL    HW113904   3.499   1.715   9.800
 4408SOL    HW213905   3.495   1.674   9.946
 4409SOL     OW13906   2.457   0.719   9.579
 4409SOL    HW113907   2.460   0.803   9.533
 4409SOL    HW213908   2.392   0.733   9.648
 4410SOL     OW13909   3.136   0.370  10.251
 4410SOL    HW113910   3.049   0.332  10.259
 4410SOL    HW213911   3.194   0.309  10.296
 4411SOL     OW13912   3.439   1.672   9.620
 4411SOL    HW113913   3.530   1.700   9.614
 4411SOL    HW213914   3.412   1.656   9.530
 4412SOL     OW13915   2.658   0.615  10.761
 4412SOL    HW113916   2.629   0.589  10.849
 4412SOL    HW213917   2.621   0.549  10.703
 4413SOL     OW13918   3.254   0.476  10.987
 4413SOL    HW113919   3.260   0.521  11.071
 4413SOL    HW213920   3.310   0.399  10.998
 4414SOL     OW13921   2.813   0.887  10.895
 4414SOL    HW113922   2.868   0.819  10.858
 4414SOL    HW213923   2.765   0.923  10.821
 4415SOL     OW13924   2.855   0.402  10.547
 4415SOL    HW113925   2.770   0.421  10.585
 4415SOL    HW213926   2.836   0.376  10.457
 4416SOL     OW13927   2.915   0.700   9.734
 4416SOL    HW113928   2.932   0.693   9.828
 4416SOL    HW213929   2.831   0.654   9.722
 4417SOL     OW13930   1.949   0.823  10.087
 4417SOL    HW113931   2.029   0.815  10.139
 4417SOL    HW213932   1.905   0.900  10.123
 4418SOL     OW13933   2.757   0.353   9.510
 4418SOL    HW113934   2.800   0.412   9.448
 4418SOL    HW213935   2.748   0.270   9.462
 4419SOL     OW13936   3.568   0.573  11.140
 4419SOL    HW113937   3.532   0.647  11.092
 4419SOL    HW213938   3.594   0.511  11.072
 4420SOL     OW13939   3.239   1.141   9.849
 4420SOL    HW113940   3.319   1.130   9.798
 4420SOL    HW213941   3.187   1.204   9.800
 4421SOL     OW13942   2.421   0.199  10.190
 4421SOL    HW113943   2.423   0.218  10.284
 4421SOL    HW213944   2.416   0.285  10.148
 4422SOL     OW13945   2.863   1.444   9.779
 4422SOL    HW113946   2.830   1.519   9.729
 4422SOL    HW213947   2.841   1.464   9.870
 4423SOL     OW13948   2.228   1.801  10.138
 4423SOL    HW113949   2.259   1.714  10.164
 4423SOL    HW213950   2.293   1.861  10.175
 4424SOL     OW13951   3.668   1.062  10.178
 4424SOL    HW113952   3.615   1.035  10.103
 4424SOL    HW213953   3.606   1.065  10.251
 4425SOL     OW13954   3.089   1.540  10.824
 4425SOL    HW113955   3.077   1.467  10.885
 4425SOL    HW213956   3.023   1.525  10.756
 4426SOL     OW13957   2.179   0.961   9.563
 4426SOL    HW113958   2.262   0.980   9.519
 4426SOL    HW213959   2.150   0.878   9.526
 4427SOL     OW13960   3.343   0.748  10.038
 4427SOL    HW113961   3.338   0.708  10.124
 4427SOL    HW213962   3.420   0.805  10.042
 4428SOL     OW13963   2.332   1.265  11.049
 4428SOL    HW113964   2.306   1.268  10.957
 4428SOL    HW213965   2.250   1.261  11.097
 4429SOL     OW13966   2.986   1.778   9.540
 4429SOL    HW113967   2.910   1.738   9.584
 4429SOL    HW213968   3.010   1.715   9.472
 4430SOL     OW13969   2.030   0.274  10.810
 4430SOL    HW113970   1.977   0.353  10.797
 4430SOL    HW213971   2.034   0.264  10.905
 4431SOL     OW13972   3.486   1.384   9.397
 4431SOL    HW113973   3.443   1.468   9.383
 4431SOL    HW213974   3.419   1.319   9.377
 4432SOL     OW13975   2.341   1.710   9.655
 4432SOL    HW113976   2.374   1.787   9.701
 4432SOL    HW213977   2.395   1.703   9.577
 4433SOL     OW13978   3.298   0.173   9.712
 4433SOL    HW113979   3.250   0.098   9.677
 4433SOL    HW213980   3.373   0.134   9.757
 4434SOL     OW13981   2.160   1.766  10.530
 4434SOL    HW113982   2.199   1.683  10.559
 4434SOL    HW213983   2.116   1.744  10.448
 4435SOL     OW13984   2.799   1.699  10.206
 4435SOL    HW113985   2.878   1.650  10.228
 4435SOL    HW213986   2.758   1.649  10.136
 4436SOL     OW13987   2.258   0.695   9.783
 4436SOL    HW113988   2.275   0.602   9.796
 4436SOL    HW213989   2.164   0.705   9.801
 4437SOL     OW13990   3.392   0.228  11.037
 4437SOL    HW113991   3.383   0.253  11.129
 4437SOL    HW213992   3.377   0.134  11.036
 4438SOL     OW13993   2.506   0.128   9.419
 4438SOL    HW113994   2.527   0.043   9.458
 4438SOL    HW213995   2.444   0.108   9.350
 4439SOL     OW13996   2.636   0.283  11.081
 4439SOL    HW113997   2.711   0.223  11.083
 4439SOL    HW213998   2.580   0.253  11.153
 4440SOL     OW13999   2.738   1.523  10.504
 4440SOL    HW114000   2.721   1.486  10.418
 4440SOL    HW214001   2.808   1.468  10.541
 4441SOL     OW14002   3.201   0.587  10.740
 4441SOL    HW114003   3.232   0.559  10.827
 4441SOL    HW214004   3.235   0.676  10.731
 4442SOL     OW14005   2.679   1.391  10.254
 4442SOL    HW114006   2.764   1.380  10.211
 4442SOL    HW214007   2.616   1.396  10.182
 4443SOL     OW14008   2.792   0.512  10.209
 4443SOL    HW114009   2.767   0.503  10.117
 4443SOL    HW214010   2.818   0.423  10.235
 4444SOL     OW14011   2.406   0.056   9.800
 4444SOL    HW114012   2.332   0.061   9.861
 4444SOL    HW214013   2.402   0.137   9.750
 4445SOL     OW14014   3.289   1.200   9.349
 4445SOL    HW114015   3.319   1.125   9.401
 4445SOL    HW214016   3.204   1.222   9.387
 4446SOL     OW14017   2.193   0.045   9.522
 4446SOL    HW114018   2.199   0.110   9.452
 4446SOL    HW214019   2.273   0.055   9.572
 4447SOL     OW14020   2.806   0.251   9.769
 4447SOL    HW114021   2.780   0.290   9.685
 4447SOL    HW214022   2.901   0.256   9.770
 4448SOL     OW14023   2.942   0.685  10.768
 4448SOL    HW114024   2.872   0.620  10.774
 4448SOL    HW214025   3.022   0.634  10.763
 4449SOL     OW14026   3.082   1.572  10.105
 4449SOL    HW114027   3.097   1.637  10.036
 4449SOL    HW214028   3.152   1.587  10.168
 4450SOL     OW14029   2.334   1.152  10.039
 4450SOL    HW114030   2.266   1.132  10.104
 4450SOL    HW214031   2.291   1.138   9.955
 4451SOL     OW14032   3.128   1.792   9.921
 4451SOL    HW114033   3.176   1.853   9.865
 4451SOL    HW214034   3.061   1.846   9.963
 4452SOL     OW14035   2.883   0.541   9.340
 4452SOL    HW114036   2.839   0.623   9.320
 4452SOL    HW214037   2.947   0.563   9.408
 4453SOL     OW14038   1.945   0.549  10.707
 4453SOL    HW114039   2.036   0.552  10.677
 4453SOL    HW214040   1.938   0.622  10.768
 4454SOL     OW14041   2.424   0.231  10.470
 4454SOL    HW114042   2.448   0.139  10.480
 4454SOL    HW214043   2.335   0.236  10.504
 4455SOL     OW14044   2.732   0.460   9.947
 4455SOL    HW114045   2.685   0.515   9.885
 4455SOL    HW214046   2.753   0.381   9.899
 4456SOL     OW14047   2.859   0.038  10.091
 4456SOL    HW114048   2.820   0.069  10.009
 4456SOL    HW214049   2.870   3.944  10.079
 4457SOL     OW14050   3.303   1.161  10.168
 4457SOL    HW114051   3.230   1.098  10.166
 4457SOL    HW214052   3.328   1.170  10.076
 4458SOL     OW14053   3.325   0.609  10.282
 4458SOL    HW114054   3.271   0.531  10.287
 4458SOL    HW214055   3.385   0.602  10.357
 4459SOL     OW14056   3.722   0.825   9.685
 4459SOL    HW114057   3.763   0.767   9.750
 4459SOL    HW214058   3.684   0.765   9.620
 4460SOL     OW14059   2.355   1.421   9.462
 4460SOL    HW114060   2.279   1.396   9.515
 4460SOL    HW214061   2.343   1.373   9.380
 4461SOL     OW14062   3.530   1.265   9.953
 4461SOL    HW114063   3.625   1.268   9.963
 4461SOL    HW214064   3.501   1.354   9.974
 4462SOL     OW14065   3.257   0.577   9.378
 4462SOL    HW114066   3.193   0.557   9.447
 4462SOL    HW214067   3.342   0.562   9.419
 4463SOL     OW14068   2.388   0.266   9.625
 4463SOL    HW114069   2.444   0.228   9.558
 4463SOL    HW214070   2.359   0.349   9.588
 4464SOL     OW14071   3.613   1.233  10.873
 4464SOL    HW114072   3.700   1.198  10.856
 4464SOL    HW214073   3.628   1.323  10.903
 4465SOL     OW14074   2.917   1.354  10.643
 4465SOL    HW114075   2.842   1.322  10.693
 4465SOL    HW214076   2.993   1.312  10.684
 4466SOL     OW14077   3.468   1.629  10.967
 4466SOL    HW114078   3.459   1.663  10.878
 4466SOL    HW214079   3.548   1.576  10.965
 4467SOL     OW14080   2.995   1.208  10.413
 4467SOL    HW114081   2.935   1.246  10.477
 4467SOL    HW214082   2.965   1.242  10.329
 4468SOL     OW14083   3.489   1.095  10.384
 4468SOL    HW114084   3.479   1.157  10.457
 4468SOL    HW214085   3.413   1.112  10.328
 4469SOL     OW14086   2.774   0.118  10.711
 4469SOL    HW114087   2.794   0.089  10.622
 4469SOL    HW214088   2.854   0.159  10.742
 4470SOL     OW14089   2.846   1.115  11.034
 4470SOL    HW114090   2.755   1.132  11.057
 4470SOL    HW214091   2.843   1.037  10.979
 4471SOL     OW14092   2.571   1.063   9.681
 4471SOL    HW114093   2.557   1.044   9.773
 4471SOL    HW214094   2.647   1.009   9.657
 4472SOL     OW14095   2.283   0.817  10.562
 4472SOL    HW114096   2.352   0.825  10.628
 4472SOL    HW214097   2.248   0.729  10.575
 4473SOL     OW14098   3.128   0.375  10.587
 4473SOL    HW114099   3.162   0.453  10.631
 4473SOL    HW214100   3.041   0.400  10.557
 4474SOL     OW14101   1.938   1.577  10.664
 4474SOL    HW114102   1.906   1.641  10.601
 4474SOL    HW214103   2.033   1.576  10.651
 4475SOL     OW14104   2.205   1.114   9.800
 4475SOL    HW114105   2.210   1.189   9.742
 4475SOL    HW214106   2.202   1.038   9.741
 4476SOL     OW14107   2.415   0.530  10.166
 4476SOL    HW114108   2.428   0.590  10.093
 4476SOL    HW214109   2.480   0.557  10.231
 4477SOL     OW14110   3.109   1.349   9.700
 4477SOL    HW114111   3.165   1.420   9.731
 4477SOL    HW214112   3.022   1.371   9.733
 4478SOL     OW14113   3.149   1.460  10.458
 4478SOL    HW114114   3.204   1.464  10.536
 4478SOL    HW214115   3.094   1.383  10.472
 4479SOL     OW14116   3.432   0.633   9.797
 4479SOL    HW114117   3.390   0.687   9.864
 4479SOL    HW214118   3.479   0.696   9.742
 4480SOL     OW14119   2.214   1.514  10.626
 4480SOL    HW114120   2.201   1.470  10.541
 4480SOL    HW214121   2.309   1.525  10.632
 4481SOL     OW14122   2.281   0.745  10.913
 4481SOL    HW114123   2.342   0.789  10.854
 4481SOL    HW214124   2.323   0.660  10.931
 4482SOL     OW14125   3.467   0.779  10.995
 4482SOL    HW114126   3.382   0.822  10.989
 4482SOL    HW214127   3.520   0.822  10.927
 4483SOL     OW14128   2.872   0.136  11.091
 4483SOL    HW114129   2.926   0.207  11.055
 4483SOL    HW214130   2.857   0.077  11.017
 4484SOL     OW14131   2.351   0.034  11.071
 4484SOL    HW114132   2.352   0.049  10.976
 4484SOL    HW214133   2.292   0.101  11.105
 4485SOL     OW14134   2.446   0.874  10.342
 4485SOL    HW114135   2.477   0.965  10.344
 4485SOL    HW214136   2.389   0.867  10.418
 4486SOL     OW14137   3.212   0.859  10.334
 4486SOL    HW114138   3.127   0.845  10.293
 4486SOL    HW214139   3.257   0.774  10.326
 4487SOL     OW14140   3.061   0.538   9.566
 4487SOL    HW114141   3.069   0.459   9.619
 4487SOL    HW214142   3.018   0.601   9.623
 4488SOL     OW14143   2.160   0.209  10.553
 4488SOL    HW114144   2.118   0.237  10.634
 4488SOL    HW214145   2.150   0.113  10.553
 4489SOL     OW14146   1.905   1.313  10.587
 4489SOL    HW114147   1.940   1.257  10.657
 4489SOL    HW214148   1.914   1.402  10.621
 4490SOL     OW14149   2.583   0.631  10.361
 4490SOL    HW114150   2.659   0.620  10.304
 4490SOL    HW214151   2.553   0.721  10.343
 4491SOL     OW14152   3.594   0.957  11.175
 4491SOL    HW114153   3.552   0.893  11.116
 4491SOL    HW214154   3.529   0.973  11.243
 4492SOL     OW14155   2.185   0.055   9.964
 4492SOL    HW114156   2.165   0.148   9.975
 4492SOL    HW214157   2.154   0.014  10.044
 4493SOL     OW14158   3.475   0.394   9.688
 4493SOL    HW114159   3.434   0.325   9.741
 4493SOL    HW214160   3.454   0.475   9.734
 4494SOL     OW14161   2.892   0.759  10.268
 4494SOL    HW114162   2.884   0.776  10.362
 4494SOL    HW214163   2.865   0.668  10.257
 4495SOL     OW14164   2.844   1.567  11.030
 4495SOL    HW114165   2.828   1.610  10.946
 4495SOL    HW214166   2.887   1.485  11.007
 4496SOL     OW14167   3.704   1.496  10.907
 4496SOL    HW114168   3.728   1.527  10.820
 4496SOL    HW214169   3.784   1.506  10.959
 4497SOL     OW14170   2.214   0.915  11.120
 4497SOL    HW114171   2.295   0.936  11.166
 4497SOL    HW214172   2.240   0.853  11.052
 4498SOL     OW14173   3.361   0.273   9.443
 4498SOL    HW114174   3.288   0.211   9.453
 4498SOL    HW214175   3.373   0.311   9.530
 4499SOL     OW14176   3.149   0.827   9.338
 4499SOL    HW114177   3.191   0.741   9.341
 4499SOL    HW214178   3.182   0.866   9.257
 4500SOL     OW14179   2.930   1.338  10.166
 4500SOL    HW114180   2.934   1.266  10.103
 4500SOL    HW214181   2.989   1.404  10.131
 4501SOL     OW14182   2.169   0.810  10.256
 4501SOL    HW114183   2.263   0.831  10.249
 4501SOL    HW214184   2.167   0.720  10.288
 4502SOL     OW14185   2.198   0.537  10.324
 4502SOL    HW114186   2.157   0.452  10.309
 4502SOL    HW214187   2.274   0.537  10.266
 4503SOL     OW14188   2.995   0.380  11.008
 4503SOL    HW114189   2.946   0.434  11.070
 4503SOL    HW214190   3.081   0.421  11.003
 4504SOL     OW14191   3.014   0.226  10.791
 4504SOL    HW114192   3.004   0.279  10.870
 4504SOL    HW214193   3.039   0.288  10.723
 4505SOL     OW14194   1.867   1.318   9.503
 4505SOL    HW114195   1.780   1.332   9.466
 4505SOL    HW214196   1.865   1.229   9.538
 4506SOL     OW14197   1.983   1.726  10.302
 4506SOL    HW114198   1.946   1.662  10.241
 4506SOL    HW214199   2.015   1.796  10.246
 4507SOL     OW14200   2.359   1.570  10.221
 4507SOL    HW114201   2.425   1.635  10.243
 4507SOL    HW214202   2.403   1.510  10.160
 4508SOL     OW14203   2.838   0.786  10.533
 4508SOL    HW114204   2.896   0.769  10.607
 4508SOL    HW214205   2.753   0.751  10.559
 4509SOL     OW14206   1.895   0.548  10.427
 4509SOL    HW114207   1.969   0.523  10.372
 4509SOL    HW214208   1.929   0.547  10.516
 4510SOL     OW14209   2.066   0.527  11.022
 4510SOL    HW114210   2.138   0.507  10.962
 4510SOL    HW214211   2.022   0.603  10.982
 4511SOL     OW14212   3.243   0.935  10.967
 4511SOL    HW114213   3.263   1.028  10.964
 4511SOL    HW214214   3.238   0.908  10.875
 4512SOL     OW14215   2.679   0.572   9.676
 4512SOL    HW114216   2.685   0.497   9.616
 4512SOL    HW214217   2.604   0.623   9.643
 4513SOL     OW14218   3.501   0.602  10.491
 4513SOL    HW114219   3.490   0.542  10.565
 4513SOL    HW214220   3.587   0.582  10.455
 4514SOL     OW14221   2.114   1.536  11.015
 4514SOL    HW114222   2.095   1.604  11.079
 4514SOL    HW214223   2.119   1.455  11.067
 4515SOL     OW14224   2.573   0.451  10.564
 4515SOL    HW114225   2.521   0.375  10.540
 4515SOL    HW214226   2.563   0.512  10.490
 4516SOL     OW14227   2.785   1.679  10.780
 4516SOL    HW114228   2.762   1.641  10.696
 4516SOL    HW214229   2.780   1.773  10.766
 4517SOL     OW14230   2.324   0.494   9.491
 4517SOL    HW114231   2.382   0.566   9.516
 4517SOL    HW214232   2.238   0.535   9.479
 4518SOL     OW14233   2.003   1.141  10.784
 4518SOL    HW114234   2.005   1.093  10.866
 4518SOL    HW214235   2.020   1.075  10.717
 4519SOL     OW14236   3.182   1.044  10.531
 4519SOL    HW114237   3.205   0.981  10.462
 4519SOL    HW214238   3.116   1.100  10.491
 4520SOL     OW14239   3.177   0.854   9.614
 4520SOL    HW114240   3.101   0.827   9.666
 4520SOL    HW214241   3.148   0.843   9.523
 4521SOL     OW14242   3.644   1.740  10.469
 4521SOL    HW114243   3.699   1.768  10.395
 4521SOL    HW214244   3.614   1.653  10.444
 4522SOL     OW14245   3.102   1.734  10.418
 4522SOL    HW114246   3.184   1.757  10.375
 4522SOL    HW214247   3.111   1.640  10.438
 4523SOL     OW14248   1.950   1.262  10.324
 4523SOL    HW114249   1.931   1.280  10.416
 4523SOL    HW214250   1.875   1.211  10.294
 4524SOL     OW14251   2.539   1.669  11.043
 4524SOL    HW114252   2.485   1.748  11.040
 4524SOL    HW214253   2.607   1.685  10.977
 4525SOL     OW14254   3.549   0.119   9.798
 4525SOL    HW114255   3.630   0.135   9.750
 4525SOL    HW214256   3.553   0.026   9.820
 4526SOL     OW14257   3.253   1.567   9.799
 4526SOL    HW114258   3.312   1.601   9.732
 4526SOL    HW214259   3.203   1.644   9.827
 4527SOL     OW14260   2.034   1.735  11.171
 4527SOL    HW114261   1.968   1.699  11.230
 4527SOL    HW214262   2.006   1.826  11.157
 4528SOL     OW14263   3.139   0.927   9.981
 4528SOL    HW114264   3.214   0.868   9.992
 4528SOL    HW214265   3.173   0.999   9.928
 4529SOL     OW14266   2.669   1.275  10.736
 4529SOL    HW114267   2.641   1.316  10.818
 4529SOL    HW214268   2.599   1.295  10.674
 4530SOL     OW14269   2.536   1.624   9.461
 4530SOL    HW114270   2.545   1.636   9.366
 4530SOL    HW214271   2.479   1.548   9.470
 4531SOL     OW14272   3.480   1.727  10.701
 4531SOL    HW114273   3.536   1.732  10.624
 4531SOL    HW214274   3.467   1.819  10.726
 4532SOL     OW14275   3.704   0.182  10.281
 4532SOL    HW114276   3.728   0.097  10.243
 4532SOL    HW214277   3.618   0.201  10.244
 4533SOL     OW14278   2.125   0.315  10.025
 4533SOL    HW114279   2.039   0.350  10.002
 4533SOL    HW214280   2.124   0.309  10.120
 4534SOL     OW14281   3.070   1.603   9.343
 4534SOL    HW114282   3.059   1.511   9.369
 4534SOL    HW214283   3.003   1.616   9.275
 4535SOL     OW14284   2.686   1.006  10.684
 4535SOL    HW114285   2.727   1.002  10.597
 4535SOL    HW214286   2.683   1.100  10.704
 4536SOL     OW14287   2.778   0.911   9.600
 4536SOL    HW114288   2.839   0.944   9.534
 4536SOL    HW214289   2.827   0.843   9.646
 4537SOL     OW14290   3.350   1.630   9.354
 4537SOL    HW114291   3.256   1.620   9.339
 4537SOL    HW214292   3.388   1.635   9.266
 4538SOL     OW14293   2.232   1.296  10.803
 4538SOL    HW114294   2.220   1.374  10.749
 4538SOL    HW214295   2.153   1.244  10.788
 4539SOL     OW14296   3.462   1.280  10.587
 4539SOL    HW114297   3.530   1.271  10.653
 4539SOL    HW214298   3.405   1.349  10.620
 4540SOL     OW14299   2.920   1.110  10.020
 4540SOL    HW114300   2.848   1.059  10.057
 4540SOL    HW214301   2.983   1.044   9.991
 4541SOL     OW14302   2.877   0.249  10.280
 4541SOL    HW114303   2.867   0.199  10.200
 4541SOL    HW214304   2.874   0.184  10.350
 4542SOL     OW14305   2.466   1.489   9.791
 4542SOL    HW114306   2.509   1.439   9.721
 4542SOL    HW214307   2.406   1.547   9.745
 4543SOL     OW14308   3.583   0.395  10.681
 4543SOL    HW114309   3.655   0.457  10.682
 4543SOL    HW214310   3.614   0.322  10.627
 4544SOL     OW14311   2.122   1.344   9.596
 4544SOL    HW114312   2.029   1.339   9.575
 4544SOL    HW214313   2.125   1.378   9.685
 4545SOL     OW14314   1.976   1.028  11.033
 4545SOL    HW114315   1.899   1.003  11.084
 4545SOL    HW214316   2.050   0.987  11.077
 4546SOL     OW14317   2.557   0.260  10.813
 4546SOL    HW114318   2.622   0.204  10.772
 4546SOL    HW214319   2.583   0.264  10.905
 4547SOL     OW14320   1.963   0.317   9.302
 4547SOL    HW114321   1.896   0.337   9.368
 4547SOL    HW214322   1.970   0.397   9.250
 4548SOL     OW14323   3.286   0.856  10.707
 4548SOL    HW114324   3.236   0.918  10.654
 4548SOL    HW214325   3.374   0.859  10.671
 4549SOL     OW14326   1.942   0.151   9.649
 4549SOL    HW114327   1.911   0.209   9.580
 4549SOL    HW214328   2.029   0.124   9.620
 4550SOL     OW14329   3.040   1.336   9.428
 4550SOL    HW114330   2.949   1.306   9.430
 4550SOL    HW214331   3.067   1.337   9.520
 4551SOL     OW14332   2.484   0.829  10.744
 4551SOL    HW114333   2.540   0.904  10.729
 4551SOL    HW214334   2.545   0.755  10.753
 4552SOL     OW14335   3.344   1.783  10.291
 4552SOL    HW114336   3.367   1.847  10.223
 4552SOL    HW214337   3.428   1.753  10.325
 4553SOL     OW14338   2.580   0.560  11.014
 4553SOL    HW114339   2.623   0.622  11.073
 4553SOL    HW214340   2.604   0.474  11.048
 4554SOL     OW14341   3.335   1.196  10.939
 4554SOL    HW114342   3.324   1.211  11.033
 4554SOL    HW214343   3.428   1.212  10.923
 4555SOL     OW14344   2.235   1.748  10.880
 4555SOL    HW114345   2.169   1.757  10.811
 4555SOL    HW214346   2.212   1.666  10.924
 4556SOL     OW14347   3.525   0.880  10.569
 4556SOL    HW114348   3.525   0.795  10.525
 4556SOL    HW214349   3.518   0.944  10.498
 4557SOL     OW14350   3.082   0.339   9.752
 4557SOL    HW114351   3.151   0.273   9.742
 4557SOL    HW214352   3.101   0.382   9.835
 4558SOL     OW14353   2.451   0.735   9.981
 4558SOL    HW114354   2.490   0.821   9.967
 4558SOL    HW214355   2.385   0.727   9.913
 4559SOL     OW14356   3.616   0.381  10.952
 4559SOL    HW114357   3.595   0.390  10.859
 4559SOL    HW214358   3.555   0.314  10.983
 4560SOL     OW14359   3.617   0.930  10.823
 4560SOL    HW114360   3.606   1.023  10.841
 4560SOL    HW214361   3.592   0.920  10.731
 4561SOL     OW14362   2.724   1.366   9.350
 4561SOL    HW114363   2.687   1.391   9.434
 4561SOL    HW214364   2.740   1.448   9.304
 4562SOL     OW14365   2.524   1.791  10.250
 4562SOL    HW114366   2.510   1.883  10.226
 4562SOL    HW214367   2.619   1.779  10.242
 4563SOL     OW14368   2.731   0.970  10.164
 4563SOL    HW114369   2.781   0.898  10.202
 4563SOL    HW214370   2.693   1.015  10.239
 4564SOL     OW14371   2.940   0.989   9.399
 4564SOL    HW114372   2.918   1.041   9.322
 4564SOL    HW214373   3.014   0.935   9.372
 4565SOL     OW14374   3.712   1.556  10.151
 4565SOL    HW114375   3.633   1.540  10.100
 4565SOL    HW214376   3.712   1.488  10.218
 4566SOL     OW14377   2.090   1.299  11.165
 4566SOL    HW114378   2.023   1.236  11.138
 4566SOL    HW214379   2.075   1.311  11.258
 4567SOL     OW14380   1.944   1.222   9.977
 4567SOL    HW114381   1.960   1.178  10.060
 4567SOL    HW214382   2.016   1.194   9.920
 4568SOL     OW14383   2.545   1.406  10.939
 4568SOL    HW114384   2.466   1.363  10.973
 4568SOL    HW214385   2.541   1.494  10.977
 4569SOL     OW14386   3.676   0.181  10.554
 4569SOL    HW114387   3.677   0.086  10.563
 4569SOL    HW214388   3.694   0.197  10.462
 4570SOL     OW14389   2.290   0.435   9.835
 4570SOL    HW114390   2.325   0.363   9.782
 4570SOL    HW214391   2.242   0.391   9.906
 4571SOL     OW14392   3.557   1.491  10.406
 4571SOL    HW114393   3.479   1.469  10.355
 4571SOL    HW214394   3.566   1.419  10.468
 4572SOL     OW14395   2.195   0.557  10.605
 4572SOL    HW114396   2.247   0.497  10.659
 4572SOL    HW214397   2.214   0.531  10.515
 4573SOL     OW14398   2.691   1.578   9.985
 4573SOL    HW114399   2.671   1.637   9.913
 4573SOL    HW214400   2.617   1.517   9.988
 4574SOL     OW14401   3.323   0.254  10.420
 4574SOL    HW114402   3.337   0.166  10.455
 4574SOL    HW214403   3.267   0.297  10.485
 4575SOL     OW14404   2.865   0.026  10.456
 4575SOL    HW114405   2.783   3.996  10.418
 4575SOL    HW214406   2.918   3.947  10.465
 4576SOL     OW14407   2.637   1.333   9.627
 4576SOL    HW114408   2.607   1.243   9.636
 4576SOL    HW214409   2.717   1.338   9.679
 4577SOL     OW14410   2.484   1.555  10.598
 4577SOL    HW114411   2.484   1.637  10.646
 4577SOL    HW214412   2.571   1.548  10.560
 4578SOL     OW14413   3.171   0.070   9.469
 4578SOL    HW114414   3.175   3.984   9.426
 4578SOL    HW214415   3.087   0.069   9.516
 4579SOL     OW14416   3.142   0.456   9.994
 4579SOL    HW114417   3.096   0.540   9.989
 4579SOL    HW214418   3.145   0.437  10.088
 4580SOL     OW14419   3.453   0.210  10.177
 4580SOL    HW114420   3.404   0.234  10.256
 4580SOL    HW214421   3.451   0.289  10.123
 4581SOL     OW14422   1.906   1.069   9.616
 4581SOL    HW114423   2.000   1.061   9.599
 4581SOL    HW214424   1.878   0.981   9.641
 4582SOL     OW14425   2.749   1.658   9.649
 4582SOL    HW114426   2.676   1.641   9.590
 4582SOL    HW214427   2.719   1.731   9.703
 4583SOL     OW14428   2.087   0.619  11.293
 4583SOL    HW114429   1.997   0.628  11.324
 4583SOL    HW214430   2.078   0.599  11.200
 4584SOL     OW14431   2.078   0.302  12.164
 4584SOL    HW114432   2.116   0.258  12.240
 4584SOL    HW214433   1.993   0.259  12.151
 4585SOL     OW14434   1.871   0.399  11.804
 4585SOL    HW114435   1.784   0.414  11.843
 4585SOL    HW214436   1.856   0.330  11.739
 4586SOL     OW14437   2.431   1.293  12.351
 4586SOL    HW114438   2.345   1.298  12.309
 4586SOL    HW214439   2.448   1.382  12.382
 4587SOL     OW14440   3.428   1.513  11.880
 4587SOL    HW114441   3.385   1.491  11.963
 4587SOL    HW214442   3.357   1.518  11.817
 4588SOL     OW14443   2.995   0.698  11.868
 4588SOL    HW114444   3.042   0.780  11.855
 4588SOL    HW214445   2.947   0.710  11.950
 4589SOL     OW14446   3.625   0.624  11.397
 4589SOL    HW114447   3.606   0.612  11.304
 4589SOL    HW214448   3.605   0.539  11.437
 4590SOL     OW14449   2.613   1.139  12.218
 4590SOL    HW114450   2.545   1.176  12.275
 4590SOL    HW214451   2.650   1.215  12.173
 4591SOL     OW14452   2.734   0.767  12.996
 4591SOL    HW114453   2.720   0.839  13.058
 4591SOL    HW214454   2.757   0.811  12.914
 4592SOL     OW14455   2.548   0.998  11.817
 4592SOL    HW114456   2.613   0.990  11.886
 4592SOL    HW214457   2.479   1.053  11.855
 4593SOL     OW14458   2.576   1.150  12.989
 4593SOL    HW114459   2.623   1.227  13.018
 4593SOL    HW214460   2.495   1.184  12.951
 4594SOL     OW14461   2.195   1.415  12.240
 4594SOL    HW114462   2.118   1.381  12.193
 4594SOL    HW214463   2.239   1.470  12.176
 4595SOL     OW14464   3.321   1.502  12.531
 4595SOL    HW114465   3.375   1.580  12.540
 4595SOL    HW214466   3.254   1.511  12.600
 4596SOL     OW14467   2.308   0.392  12.663
 4596SOL    HW114468   2.399   0.363  12.664
 4596SOL    HW214469   2.257   0.311  12.672
 4597SOL     OW14470   3.472   0.450  11.907
 4597SOL    HW114471   3.404   0.483  11.849
 4597SOL    HW214472   3.492   0.523  11.965
 4598SOL     OW14473   2.093   1.689  11.628
 4598SOL    HW114474   2.103   1.758  11.693
 4598SOL    HW214475   2.173   1.691  11.576
 4599SOL     OW14476   2.999   1.342  12.866
 4599SOL    HW114477   3.040   1.336  12.952
 4599SOL    HW214478   2.947   1.262  12.858
 4600SOL     OW14479   2.092   1.429  11.708
 4600SOL    HW114480   2.083   1.524  11.697
 4600SOL    HW214481   2.031   1.408  11.778
 4601SOL     OW14482   2.125   1.091  12.062
 4601SOL    HW114483   2.121   1.003  12.101
 4601SOL    HW214484   2.068   1.144  12.118
 4602SOL     OW14485   2.470   1.792  12.602
 4602SOL    HW114486   2.390   1.775  12.652
 4602SOL    HW214487   2.495   1.881  12.627
 4603SOL     OW14488   2.443   0.984  11.310
 4603SOL    HW114489   2.491   1.030  11.241
 4603SOL    HW214490   2.482   1.016  11.391
 4604SOL     OW14491   3.445   0.142  12.628
 4604SOL    HW114492   3.472   0.214  12.571
 4604SOL    HW214493   3.405   0.185  12.704
 4605SOL     OW14494   1.980   0.658  11.733
 4605SOL    HW114495   1.953   0.569  11.756
 4605SOL    HW214496   1.972   0.707  11.814
 4606SOL     OW14497   3.703   1.757  11.507
 4606SOL    HW114498   3.773   1.733  11.568
 4606SOL    HW214499   3.720   1.849  11.486
 4607SOL     OW14500   1.860   1.611  11.344
 4607SOL    HW114501   1.848   1.519  11.320
 4607SOL    HW214502   1.902   1.608  11.430
 4608SOL     OW14503   3.550   0.919  11.820
 4608SOL    HW114504   3.634   0.875  11.803
 4608SOL    HW214505   3.533   0.968  11.740
 4609SOL     OW14506   3.504   1.103  11.604
 4609SOL    HW114507   3.589   1.109  11.560
 4609SOL    HW214508   3.510   1.167  11.675
 4610SOL     OW14509   1.985   0.750  12.751
 4610SOL    HW114510   2.075   0.783  12.755
 4610SOL    HW214511   1.931   0.829  12.757
 4611SOL     OW14512   2.478   1.389  11.906
 4611SOL    HW114513   2.432   1.306  11.915
 4611SOL    HW214514   2.460   1.417  11.816
 4612SOL     OW14515   3.148   1.237  12.594
 4612SOL    HW114516   3.180   1.170  12.533
 4612SOL    HW214517   3.208   1.232  12.669
 4613SOL     OW14518   2.683   0.006  11.690
 4613SOL    HW114519   2.728   0.085  11.663
 4613SOL    HW214520   2.590   0.029  11.689
 4614SOL     OW14521   2.050   0.961  12.450
 4614SOL    HW114522   2.136   0.922  12.434
 4614SOL    HW214523   1.991   0.913  12.391
 4615SOL     OW14524   3.390   0.997  11.373
 4615SOL    HW114525   3.320   0.940  11.407
 4615SOL    HW214526   3.432   1.032  11.451
 4616SOL     OW14527   3.046   1.810  12.796
 4616SOL    HW114528   3.054   1.870  12.722
 4616SOL    HW214529   3.064   1.724  12.759
 4617SOL     OW14530   2.221   0.251  13.019
 4617SOL    HW114531   2.265   0.336  13.019
 4617SOL    HW214532   2.128   0.273  13.020
 4618SOL     OW14533   3.329   1.420  12.120
 4618SOL    HW114534   3.262   1.435  12.187
 4618SOL    HW214535   3.317   1.328  12.095
 4619SOL     OW14536   3.514   1.749  11.751
 4619SOL    HW114537   3.499   1.715  11.662
 4619SOL    HW214538   3.495   1.674  11.808
 4620SOL     OW14539   2.457   0.719  11.441
 4620SOL    HW114540   2.460   0.803  11.395
 4620SOL    HW214541   2.392   0.733  11.510
 4621SOL     OW14542   3.136   0.371  12.113
 4621SOL    HW114543   3.049   0.332  12.121
 4621SOL    HW214544   3.194   0.309  12.158
 4622SOL     OW14545   3.439   1.672  11.482
 4622SOL    HW114546   3.530   1.700  11.475
 4622SOL    HW214547   3.412   1.656  11.392
 4623SOL     OW14548   2.658   0.615  12.623
 4623SOL    HW114549   2.629   0.589  12.711
 4623SOL    HW214550   2.621   0.549  12.565
 4624SOL     OW14551   3.254   0.476  12.849
 4624SOL    HW114552   3.260   0.521  12.933
 4624SOL    HW214553   3.310   0.399  12.860
 4625SOL     OW14554   2.813   0.887  12.757
 4625SOL    HW114555   2.868   0.819  12.719
 4625SOL    HW214556   2.765   0.923  12.683
 4626SOL     OW14557   2.855   0.402  12.409
 4626SOL    HW114558   2.770   0.421  12.447
 4626SOL    HW214559   2.837   0.376  12.319
 4627SOL     OW14560   2.915   0.700  11.596
 4627SOL    HW114561   2.932   0.693  11.690
 4627SOL    HW214562   2.831   0.654  11.584
 4628SOL     OW14563   1.949   0.823  11.949
 4628SOL    HW114564   2.029   0.815  12.001
 4628SOL    HW214565   1.905   0.900  11.985
 4629SOL     OW14566   2.758   0.353  11.372
 4629SOL    HW114567   2.800   0.412  11.310
 4629SOL    HW214568   2.748   0.271  11.324
 4630SOL     OW14569   3.567   0.574  13.002
 4630SOL    HW114570   3.531   0.648  12.954
 4630SOL    HW214571   3.593   0.512  12.934
 4631SOL     OW14572   3.239   1.141  11.712
 4631SOL    HW114573   3.319   1.130  11.660
 4631SOL    HW214574   3.187   1.204  11.662
 4632SOL     OW14575   2.421   0.199  12.052
 4632SOL    HW114576   2.423   0.218  12.146
 4632SOL    HW214577   2.416   0.285  12.010
 4633SOL     OW14578   2.863   1.444  11.641
 4633SOL    HW114579   2.830   1.518  11.591
 4633SOL    HW214580   2.841   1.464  11.732
 4634SOL     OW14581   2.230   1.801  12.000
 4634SOL    HW114582   2.260   1.714  12.027
 4634SOL    HW214583   2.295   1.861  12.037
 4635SOL     OW14584   3.668   1.062  12.040
 4635SOL    HW114585   3.615   1.035  11.965
 4635SOL    HW214586   3.606   1.065  12.113
 4636SOL     OW14587   3.089   1.540  12.685
 4636SOL    HW114588   3.077   1.467  12.747
 4636SOL    HW214589   3.023   1.525  12.617
 4637SOL     OW14590   2.179   0.961  11.425
 4637SOL    HW114591   2.262   0.980  11.381
 4637SOL    HW214592   2.150   0.878  11.387
 4638SOL     OW14593   3.343   0.748  11.900
 4638SOL    HW114594   3.338   0.708  11.986
 4638SOL    HW214595   3.420   0.805  11.904
 4639SOL     OW14596   2.332   1.264  12.911
 4639SOL    HW114597   2.306   1.268  12.819
 4639SOL    HW214598   2.250   1.261  12.960
 4640SOL     OW14599   2.986   1.778  11.402
 4640SOL    HW114600   2.910   1.738  11.446
 4640SOL    HW214601   3.010   1.715  11.334
 4641SOL     OW14602   2.030   0.274  12.672
 4641SOL    HW114603   1.977   0.353  12.659
 4641SOL    HW214604   2.034   0.263  12.767
 4642SOL     OW14605   3.487   1.384  11.259
 4642SOL    HW114606   3.443   1.468  11.245
 4642SOL    HW214607   3.419   1.319  11.239
 4643SOL     OW14608   2.342   1.710  11.517
 4643SOL    HW114609   2.375   1.788  11.562
 4643SOL    HW214610   2.397   1.703  11.438
 4644SOL     OW14611   3.298   0.173  11.574
 4644SOL    HW114612   3.250   0.098  11.538
 4644SOL    HW214613   3.373   0.134  11.619
 4645SOL     OW14614   2.159   1.763  12.397
 4645SOL    HW114615   2.199   1.681  12.425
 4645SOL    HW214616   2.118   1.743  12.313
 4646SOL     OW14617   2.799   1.699  12.068
 4646SOL    HW114618   2.878   1.650  12.090
 4646SOL    HW214619   2.758   1.649  11.998
 4647SOL     OW14620   2.258   0.695  11.645
 4647SOL    HW114621   2.275   0.602  11.658
 4647SOL    HW214622   2.164   0.705  11.663
 4648SOL     OW14623   3.391   0.228  12.898
 4648SOL    HW114624   3.383   0.253  12.990
 4648SOL    HW214625   3.377   0.134  12.898
 4649SOL     OW14626   2.506   0.128  11.281
 4649SOL    HW114627   2.527   0.043  11.320
 4649SOL    HW214628   2.444   0.108  11.211
 4650SOL     OW14629   2.636   0.283  12.943
 4650SOL    HW114630   2.711   0.224  12.945
 4650SOL    HW214631   2.580   0.253  13.014
 4651SOL     OW14632   2.738   1.523  12.366
 4651SOL    HW114633   2.721   1.486  12.279
 4651SOL    HW214634   2.808   1.468  12.402
 4652SOL     OW14635   3.201   0.587  12.602
 4652SOL    HW114636   3.232   0.559  12.689
 4652SOL    HW214637   3.235   0.676  12.593
 4653SOL     OW14638   2.679   1.391  12.116
 4653SOL    HW114639   2.764   1.380  12.073
 4653SOL    HW214640   2.616   1.396  12.044
 4654SOL     OW14641   2.792   0.512  12.071
 4654SOL    HW114642   2.767   0.503  11.979
 4654SOL    HW214643   2.818   0.423  12.097
 4655SOL     OW14644   2.406   0.056  11.662
 4655SOL    HW114645   2.332   0.061  11.723
 4655SOL    HW214646   2.402   0.137  11.612
 4656SOL     OW14647   3.289   1.200  11.212
 4656SOL    HW114648   3.319   1.125  11.263
 4656SOL    HW214649   3.204   1.222  11.249
 4657SOL     OW14650   2.193   0.045  11.384
 4657SOL    HW114651   2.199   0.110  11.314
 4657SOL    HW214652   2.273   0.055  11.434
 4658SOL     OW14653   2.806   0.251  11.631
 4658SOL    HW114654   2.780   0.290  11.547
 4658SOL    HW214655   2.901   0.256  11.632
 4659SOL     OW14656   2.942   0.685  12.630
 4659SOL    HW114657   2.872   0.619  12.636
 4659SOL    HW214658   3.022   0.634  12.625
 4660SOL     OW14659   3.082   1.572  11.967
 4660SOL    HW114660   3.097   1.637  11.898
 4660SOL    HW214661   3.152   1.587  12.030
 4661SOL     OW14662   2.334   1.152  11.901
 4661SOL    HW114663   2.266   1.132  11.966
 4661SOL    HW214664   2.292   1.138  11.817
 4662SOL     OW14665   3.128   1.792  11.783
 4662SOL    HW114666   3.176   1.853  11.727
 4662SOL    HW214667   3.061   1.846  11.825
 4663SOL     OW14668   2.883   0.541  11.202
 4663SOL    HW114669   2.839   0.623  11.182
 4663SOL    HW214670   2.947   0.563  11.270
 4664SOL     OW14671   1.945   0.549  12.569
 4664SOL    HW114672   2.036   0.552  12.539
 4664SOL    HW214673   1.938   0.622  12.630
 4665SOL     OW14674   2.424   0.231  12.333
 4665SOL    HW114675   2.448   0.139  12.342
 4665SOL    HW214676   2.335   0.236  12.366
 4666SOL     OW14677   2.732   0.460  11.809
 4666SOL    HW114678   2.685   0.515  11.746
 4666SOL    HW214679   2.753   0.381  11.761
 4667SOL     OW14680   2.859   0.038  11.953
 4667SOL    HW114681   2.820   0.069  11.871
 4667SOL    HW214682   2.870   3.944  11.941
 4668SOL     OW14683   3.303   1.161  12.030
 4668SOL    HW114684   3.230   1.098  12.028
 4668SOL    HW214685   3.328   1.170  11.938
 4669SOL     OW14686   3.325   0.609  12.144
 4669SOL    HW114687   3.271   0.531  12.149
 4669SOL    HW214688   3.385   0.602  12.219
 4670SOL     OW14689   3.722   0.825  11.547
 4670SOL    HW114690   3.763   0.767  11.612
 4670SOL    HW214691   3.684   0.765  11.482
 4671SOL     OW14692   2.355   1.421  11.324
 4671SOL    HW114693   2.279   1.396  11.377
 4671SOL    HW214694   2.344   1.373  11.241
 4672SOL     OW14695   3.530   1.265  11.815
 4672SOL    HW114696   3.625   1.268  11.825
 4672SOL    HW214697   3.501   1.354  11.836
 4673SOL     OW14698   3.257   0.576  11.240
 4673SOL    HW114699   3.193   0.557  11.309
 4673SOL    HW214700   3.342   0.562  11.282
 4674SOL     OW14701   2.388   0.266  11.488
 4674SOL    HW114702   2.444   0.228  11.420
 4674SOL    HW214703   2.359   0.349  11.450
 4675SOL     OW14704   3.613   1.233  12.736
 4675SOL    HW114705   3.700   1.198  12.718
 4675SOL    HW214706   3.628   1.323  12.765
 4676SOL     OW14707   2.917   1.354  12.505
 4676SOL    HW114708   2.842   1.322  12.555
 4676SOL    HW214709   2.993   1.312  12.546
 4677SOL     OW14710   3.468   1.629  12.829
 4677SOL    HW114711   3.460   1.663  12.740
 4677SOL    HW214712   3.548   1.576  12.827
 4678SOL     OW14713   2.995   1.208  12.275
 4678SOL    HW114714   2.935   1.246  12.339
 4678SOL    HW214715   2.965   1.242  12.191
 4679SOL     OW14716   3.489   1.095  12.246
 4679SOL    HW114717   3.479   1.157  12.319
 4679SOL    HW214718   3.413   1.112  12.190
 4680SOL     OW14719   2.774   0.118  12.573
 4680SOL    HW114720   2.794   0.089  12.484
 4680SOL    HW214721   2.855   0.159  12.603
 4681SOL     OW14722   2.846   1.115  12.896
 4681SOL    HW114723   2.755   1.132  12.919
 4681SOL    HW214724   2.843   1.037  12.841
 4682SOL     OW14725   2.571   1.063  11.543
 4682SOL    HW114726   2.557   1.043  11.635
 4682SOL    HW214727   2.647   1.009  11.519
 4683SOL     OW14728   2.283   0.817  12.424
 4683SOL    HW114729   2.352   0.825  12.490
 4683SOL    HW214730   2.248   0.729  12.436
 4684SOL     OW14731   3.128   0.375  12.449
 4684SOL    HW114732   3.162   0.453  12.493
 4684SOL    HW214733   3.041   0.400  12.419
 4685SOL     OW14734   1.937   1.577  12.526
 4685SOL    HW114735   1.904   1.642  12.464
 4685SOL    HW214736   2.032   1.577  12.513
 4686SOL     OW14737   2.205   1.113  11.662
 4686SOL    HW114738   2.210   1.189  11.604
 4686SOL    HW214739   2.202   1.038  11.603
 4687SOL     OW14740   2.415   0.530  12.028
 4687SOL    HW114741   2.428   0.590  11.955
 4687SOL    HW214742   2.480   0.557  12.093
 4688SOL     OW14743   3.109   1.349  11.562
 4688SOL    HW114744   3.165   1.420  11.593
 4688SOL    HW214745   3.022   1.371  11.595
 4689SOL     OW14746   3.148   1.460  12.320
 4689SOL    HW114747   3.204   1.464  12.398
 4689SOL    HW214748   3.094   1.383  12.334
 4690SOL     OW14749   3.432   0.633  11.659
 4690SOL    HW114750   3.390   0.687  11.726
 4690SOL    HW214751   3.479   0.696  11.604
 4691SOL     OW14752   2.216   1.511  12.488
 4691SOL    HW114753   2.201   1.469  12.404
 4691SOL    HW214754   2.311   1.523  12.493
 4692SOL     OW14755   2.281   0.745  12.775
 4692SOL    HW114756   2.342   0.790  12.716
 4692SOL    HW214757   2.322   0.660  12.792
 4693SOL     OW14758   3.467   0.780  12.857
 4693SOL    HW114759   3.382   0.822  12.851
 4693SOL    HW214760   3.520   0.822  12.789
 4694SOL     OW14761   2.873   0.136  12.954
 4694SOL    HW114762   2.926   0.207  12.916
 4694SOL    HW214763   2.857   0.077  12.880
 4695SOL     OW14764   2.351   0.035  12.933
 4695SOL    HW114765   2.352   0.049  12.838
 4695SOL    HW214766   2.291   0.101  12.967
 4696SOL     OW14767   2.447   0.874  12.204
 4696SOL    HW114768   2.477   0.965  12.205
 4696SOL    HW214769   2.389   0.867  12.280
 4697SOL     OW14770   3.212   0.859  12.196
 4697SOL    HW114771   3.127   0.845  12.155
 4697SOL    HW214772   3.257   0.774  12.188
 4698SOL     OW14773   3.061   0.538  11.428
 4698SOL    HW114774   3.069   0.459  11.481
 4698SOL    HW214775   3.018   0.601  11.485
 4699SOL     OW14776   2.160   0.209  12.415
 4699SOL    HW114777   2.118   0.237  12.496
 4699SOL    HW214778   2.150   0.113  12.415
 4700SOL     OW14779   1.905   1.313  12.450
 4700SOL    HW114780   1.940   1.257  12.519
 4700SOL    HW214781   1.914   1.402  12.483
 4701SOL     OW14782   2.583   0.631  12.223
 4701SOL    HW114783   2.659   0.620  12.166
 4701SOL    HW214784   2.553   0.721  12.205
 4702SOL     OW14785   3.594   0.955  13.038
 4702SOL    HW114786   3.552   0.893  12.979
 4702SOL    HW214787   3.529   0.972  13.106
 4703SOL     OW14788   2.185   0.055  11.826
 4703SOL    HW114789   2.165   0.148  11.837
 4703SOL    HW214790   2.154   0.014  11.906
 4704SOL     OW14791   3.475   0.394  11.550
 4704SOL    HW114792   3.434   0.325  11.603
 4704SOL    HW214793   3.454   0.475  11.596
 4705SOL     OW14794   2.892   0.759  12.130
 4705SOL    HW114795   2.884   0.776  12.224
 4705SOL    HW214796   2.865   0.668  12.119
 4706SOL     OW14797   2.843   1.567  12.892
 4706SOL    HW114798   2.828   1.610  12.808
 4706SOL    HW214799   2.887   1.485  12.869
 4707SOL     OW14800   3.704   1.496  12.769
 4707SOL    HW114801   3.728   1.527  12.682
 4707SOL    HW214802   3.784   1.506  12.821
 4708SOL     OW14803   2.214   0.914  12.983
 4708SOL    HW114804   2.295   0.936  13.028
 4708SOL    HW214805   2.240   0.853  12.914
 4709SOL     OW14806   3.361   0.272  11.305
 4709SOL    HW114807   3.288   0.211  11.315
 4709SOL    HW214808   3.373   0.311  11.392
 4710SOL     OW14809   3.149   0.827  11.200
 4710SOL    HW114810   3.191   0.741  11.203
 4710SOL    HW214811   3.182   0.866  11.119
 4711SOL     OW14812   2.930   1.338  12.028
 4711SOL    HW114813   2.934   1.266  11.965
 4711SOL    HW214814   2.989   1.404  11.993
 4712SOL     OW14815   2.169   0.810  12.118
 4712SOL    HW114816   2.263   0.831  12.111
 4712SOL    HW214817   2.167   0.720  12.150
 4713SOL     OW14818   2.198   0.537  12.186
 4713SOL    HW114819   2.157   0.452  12.171
 4713SOL    HW214820   2.274   0.537  12.128
 4714SOL     OW14821   2.995   0.380  12.870
 4714SOL    HW114822   2.946   0.434  12.932
 4714SOL    HW214823   3.081   0.421  12.865
 4715SOL     OW14824   3.014   0.226  12.653
 4715SOL    HW114825   3.004   0.279  12.732
 4715SOL    HW214826   3.039   0.288  12.585
 4716SOL     OW14827   1.867   1.318  11.366
 4716SOL    HW114828   1.780   1.332  11.328
 4716SOL    HW214829   1.865   1.229  11.400
 4717SOL     OW14830   1.981   1.727  12.161
 4717SOL    HW114831   1.944   1.662  12.100
 4717SOL    HW214832   2.014   1.797  12.104
 4718SOL     OW14833   2.359   1.570  12.083
 4718SOL    HW114834   2.426   1.635  12.105
 4718SOL    HW214835   2.403   1.510  12.022
 4719SOL     OW14836   2.838   0.787  12.395
 4719SOL    HW114837   2.896   0.769  12.469
 4719SOL    HW214838   2.753   0.751  12.421
 4720SOL     OW14839   1.895   0.548  12.289
 4720SOL    HW114840   1.969   0.523  12.234
 4720SOL    HW214841   1.929   0.547  12.378
 4721SOL     OW14842   2.066   0.527  12.884
 4721SOL    HW114843   2.137   0.506  12.824
 4721SOL    HW214844   2.023   0.603  12.845
 4722SOL     OW14845   3.242   0.935  12.829
 4722SOL    HW114846   3.263   1.029  12.826
 4722SOL    HW214847   3.237   0.909  12.737
 4723SOL     OW14848   2.679   0.572  11.538
 4723SOL    HW114849   2.685   0.497  11.478
 4723SOL    HW214850   2.604   0.623  11.505
 4724SOL     OW14851   3.501   0.602  12.354
 4724SOL    HW114852   3.490   0.541  12.427
 4724SOL    HW214853   3.587   0.581  12.318
 4725SOL     OW14854   2.114   1.535  12.876
 4725SOL    HW114855   2.095   1.603  12.941
 4725SOL    HW214856   2.119   1.454  12.928
 4726SOL     OW14857   2.573   0.451  12.426
 4726SOL    HW114858   2.521   0.375  12.402
 4726SOL    HW214859   2.563   0.511  12.352
 4727SOL     OW14860   2.785   1.679  12.642
 4727SOL    HW114861   2.762   1.641  12.558
 4727SOL    HW214862   2.780   1.773  12.628
 4728SOL     OW14863   2.324   0.494  11.353
 4728SOL    HW114864   2.382   0.566  11.378
 4728SOL    HW214865   2.238   0.534  11.341
 4729SOL     OW14866   2.002   1.141  12.646
 4729SOL    HW114867   2.005   1.093  12.728
 4729SOL    HW214868   2.020   1.075  12.579
 4730SOL     OW14869   3.182   1.044  12.393
 4730SOL    HW114870   3.205   0.981  12.324
 4730SOL    HW214871   3.116   1.100  12.353
 4731SOL     OW14872   3.177   0.854  11.476
 4731SOL    HW114873   3.101   0.827  11.528
 4731SOL    HW214874   3.148   0.843  11.385
 4732SOL     OW14875   3.644   1.740  12.331
 4732SOL    HW114876   3.699   1.768  12.257
 4732SOL    HW214877   3.614   1.653  12.306
 4733SOL     OW14878   3.102   1.734  12.280
 4733SOL    HW114879   3.184   1.757  12.237
 4733SOL    HW214880   3.111   1.640  12.300
 4734SOL     OW14881   1.950   1.262  12.186
 4734SOL    HW114882   1.931   1.279  12.278
 4734SOL    HW214883   1.875   1.211  12.156
 4735SOL     OW14884   2.539   1.669  12.905
 4735SOL    HW114885   2.485   1.748  12.902
 4735SOL    HW214886   2.607   1.685  12.839
 4736SOL     OW14887   3.550   0.119  11.660
 4736SOL    HW114888   3.630   0.135  11.612
 4736SOL    HW214889   3.553   0.026  11.682
 4737SOL     OW14890   3.253   1.567  11.661
 4737SOL    HW114891   3.312   1.601  11.594
 4737SOL    HW214892   3.203   1.644  11.689
 4738SOL     OW14893   2.034   1.733  13.034
 4738SOL    HW114894   1.967   1.697  13.093
 4738SOL    HW214895   2.007   1.823  13.019
 4739SOL     OW14896   3.139   0.927  11.843
 4739SOL    HW114897   3.214   0.868  11.854
 4739SOL    HW214898   3.173   0.999  11.790
 4740SOL     OW14899   2.669   1.275  12.598
 4740SOL    HW114900   2.641   1.316  12.680
 4740SOL    HW214901   2.600   1.295  12.536
 4741SOL     OW14902   2.536   1.624  11.323
 4741SOL    HW114903   2.545   1.636  11.228
 4741SOL    HW214904   2.479   1.548  11.332
 4742SOL     OW14905   3.480   1.727  12.563
 4742SOL    HW114906   3.537   1.732  12.486
 4742SOL    HW214907   3.467   1.819  12.588
 4743SOL     OW14908   3.704   0.182  12.143
 4743SOL    HW114909   3.728   0.097  12.105
 4743SOL    HW214910   3.618   0.201  12.106
 4744SOL     OW14911   2.125   0.315  11.887
 4744SOL    HW114912   2.039   0.350  11.864
 4744SOL    HW214913   2.124   0.309  11.982
 4745SOL     OW14914   3.070   1.603  11.205
 4745SOL    HW114915   3.059   1.511  11.231
 4745SOL    HW214916   3.004   1.616  11.137
 4746SOL     OW14917   2.686   1.006  12.546
 4746SOL    HW114918   2.727   1.002  12.459
 4746SOL    HW214919   2.683   1.100  12.566
 4747SOL     OW14920   2.778   0.911  11.462
 4747SOL    HW114921   2.838   0.944  11.396
 4747SOL    HW214922   2.827   0.843  11.508
 4748SOL     OW14923   3.350   1.630  11.216
 4748SOL    HW114924   3.256   1.620  11.201
 4748SOL    HW214925   3.388   1.635  11.128
 4749SOL     OW14926   2.232   1.295  12.666
 4749SOL    HW114927   2.221   1.373  12.612
 4749SOL    HW214928   2.153   1.243  12.650
 4750SOL     OW14929   3.461   1.280  12.449
 4750SOL    HW114930   3.530   1.271  12.515
 4750SOL    HW214931   3.405   1.349  12.482
 4751SOL     OW14932   2.920   1.110  11.882
 4751SOL    HW114933   2.848   1.059  11.919
 4751SOL    HW214934   2.983   1.044  11.853
 4752SOL     OW14935   2.877   0.249  12.142
 4752SOL    HW114936   2.867   0.199  12.062
 4752SOL    HW214937   2.874   0.184  12.212
 4753SOL     OW14938   2.466   1.489  11.653
 4753SOL    HW114939   2.510   1.439  11.583
 4753SOL    HW214940   2.406   1.547  11.607
 4754SOL     OW14941   3.583   0.395  12.543
 4754SOL    HW114942   3.655   0.457  12.544
 4754SOL    HW214943   3.614   0.322  12.489
 4755SOL     OW14944   2.122   1.344  11.458
 4755SOL    HW114945   2.029   1.339  11.437
 4755SOL    HW214946   2.125   1.377  11.547
 4756SOL     OW14947   1.976   1.028  12.895
 4756SOL    HW114948   1.899   1.003  12.946
 4756SOL    HW214949   2.050   0.987  12.939
 4757SOL     OW14950   2.557   0.260  12.675
 4757SOL    HW114951   2.622   0.204  12.634
 4757SOL    HW214952   2.583   0.264  12.767
 4758SOL     OW14953   1.963   0.317  11.164
 4758SOL    HW114954   1.896   0.337  11.230
 4758SOL    HW214955   1.970   0.397  11.112
 4759SOL     OW14956   3.286   0.856  12.569
 4759SOL    HW114957   3.236   0.918  12.516
 4759SOL    HW214958   3.374   0.859  12.533
 4760SOL     OW14959   1.942   0.151  11.511
 4760SOL    HW114960   1.911   0.210  11.442
 4760SOL    HW214961   2.029   0.124  11.482
 4761SOL     OW14962   3.040   1.336  11.290
 4761SOL    HW114963   2.949   1.307  11.291
 4761SOL    HW214964   3.066   1.337  11.382
 4762SOL     OW14965   2.484   0.829  12.606
 4762SOL    HW114966   2.540   0.904  12.591
 4762SOL    HW214967   2.545   0.755  12.615
 4763SOL     OW14968   3.344   1.783  12.153
 4763SOL    HW114969   3.367   1.847  12.085
 4763SOL    HW214970   3.428   1.753  12.187
 4764SOL     OW14971   2.580   0.560  12.876
 4764SOL    HW114972   2.623   0.622  12.935
 4764SOL    HW214973   2.603   0.474  12.910
 4765SOL     OW14974   3.335   1.196  12.802
 4765SOL    HW114975   3.324   1.211  12.895
 4765SOL    HW214976   3.428   1.213  12.785
 4766SOL     OW14977   2.235   1.747  12.741
 4766SOL    HW114978   2.171   1.756  12.671
 4766SOL    HW214979   2.212   1.665  12.785
 4767SOL     OW14980   3.525   0.880  12.431
 4767SOL    HW114981   3.525   0.795  12.387
 4767SOL    HW214982   3.518   0.944  12.360
 4768SOL     OW14983   3.081   0.339  11.614
 4768SOL    HW114984   3.151   0.273  11.605
 4768SOL    HW214985   3.101   0.382  11.697
 4769SOL     OW14986   2.451   0.735  11.843
 4769SOL    HW114987   2.489   0.821  11.829
 4769SOL    HW214988   2.385   0.727  11.775
 4770SOL     OW14989   3.615   0.381  12.814
 4770SOL    HW114990   3.595   0.391  12.721
 4770SOL    HW214991   3.555   0.314  12.845
 4771SOL     OW14992   3.617   0.930  12.685
 4771SOL    HW114993   3.607   1.023  12.703
 4771SOL    HW214994   3.592   0.920  12.593
 4772SOL     OW14995   2.725   1.366  11.212
 4772SOL    HW114996   2.687   1.392  11.296
 4772SOL    HW214997   2.741   1.448  11.166
 4773SOL     OW14998   2.525   1.791  12.112
 4773SOL    HW114999   2.510   1.883  12.088
 4773SOL    HW215000   2.619   1.779  12.105
 4774SOL     OW15001   2.731   0.970  12.026
 4774SOL    HW115002   2.781   0.898  12.064
 4774SOL    HW215003   2.693   1.015  12.101
 4775SOL     OW15004   2.940   0.989  11.262
 4775SOL    HW115005   2.918   1.041  11.184
 4775SOL    HW215006   3.014   0.935  11.234
 4776SOL     OW15007   3.712   1.556  12.013
 4776SOL    HW115008   3.633   1.540  11.962
 4776SOL    HW215009   3.712   1.488  12.080
 4777SOL     OW15010   2.090   1.299  13.026
 4777SOL    HW115011   2.023   1.236  12.999
 4777SOL    HW215012   2.075   1.311  13.120
 4778SOL     OW15013   1.943   1.222  11.839
 4778SOL    HW115014   1.960   1.177  11.922
 4778SOL    HW215015   2.015   1.195  11.782
 4779SOL     OW15016   2.545   1.406  12.802
 4779SOL    HW115017   2.466   1.363  12.835
 4779SOL    HW215018   2.541   1.494  12.839
 4780SOL     OW15019   3.676   0.181  12.417
 4780SOL    HW115020   3.678   0.086  12.425
 4780SOL    HW215021   3.694   0.197  12.324
 4781SOL     OW15022   2.290   0.435  11.697
 4781SOL    HW115023   2.325   0.363  11.644
 4781SOL    HW215024   2.242   0.391  11.768
 4782SOL     OW15025   3.557   1.491  12.268
 4782SOL    HW115026   3.479   1.469  12.217
 4782SOL    HW215027   3.566   1.419  12.330
 4783SOL     OW15028   2.195   0.557  12.467
 4783SOL    HW115029   2.247   0.497  12.521
 4783SOL    HW215030   2.214   0.531  12.377
 4784SOL     OW15031   2.691   1.578  11.847
 4784SOL    HW115032   2.671   1.637  11.775
 4784SOL    HW215033   2.617   1.517  11.850
 4785SOL     OW15034   3.323   0.254  12.282
 4785SOL    HW115035   3.336   0.165  12.317
 4785SOL    HW215036   3.267   0.297  12.347
 4786SOL     OW15037   2.865   0.026  12.318
 4786SOL    HW115038   2.783   3.996  12.280
 4786SOL    HW215039   2.918   3.947  12.327
 4787SOL     OW15040   2.637   1.333  11.489
 4787SOL    HW115041   2.607   1.243  11.498
 4787SOL    HW215042   2.717   1.337  11.541
 4788SOL     OW15043   2.484   1.555  12.460
 4788SOL    HW115044   2.484   1.637  12.508
 4788SOL    HW215045   2.572   1.548  12.422
 4789SOL     OW15046   3.171   0.070  11.331
 4789SOL    HW115047   3.174   3.984  11.288
 4789SOL    HW215048   3.087   0.069  11.378
 4790SOL     OW15049   3.142   0.456  11.856
 4790SOL    HW115050   3.096   0.540  11.851
 4790SOL    HW215051   3.145   0.437  11.950
 4791SOL     OW15052   3.453   0.210  12.039
 4791SOL    HW115053   3.405   0.234  12.118
 4791SOL    HW215054   3.451   0.289  11.985
 4792SOL     OW15055   1.906   1.069  11.478
 4792SOL    HW115056   2.000   1.061  11.461
 4792SOL    HW215057   1.878   0.981  11.503
 4793SOL     OW15058   2.749   1.658  11.511
 4793SOL    HW115059   2.676   1.641  11.452
 4793SOL    HW215060   2.719   1.731  11.565
 4794SOL     OW15061   2.087   0.619  13.156
 4794SOL    HW115062   1.996   0.626  13.187
 4794SOL    HW215063   2.079   0.599  13.062
 4795SOL     OW15064   2.115   0.265   0.128
 4795SOL    HW115065   2.161   0.331   0.180
 4795SOL    HW215066   2.023   0.291   0.133
 4796SOL     OW15067   1.870   0.389  13.644
 4796SOL    HW115068   1.776   0.399  13.659
 4796SOL    HW215069   1.879   0.300  13.610
 4797SOL     OW15070   3.384   1.497  13.729
 4797SOL    HW115071   3.330   1.426  13.764
 4797SOL    HW215072   3.341   1.521  13.647
 4798SOL     OW15073   2.994   0.698  13.730
 4798SOL    HW115074   3.047   0.775  13.708
 4798SOL    HW215075   2.937   0.726  13.801
 4799SOL     OW15076   3.635   0.621  13.258
 4799SOL    HW115077   3.612   0.612  13.165
 4799SOL    HW215078   3.605   0.540  13.298
 4800SOL     OW15079   2.546   1.012  13.671
 4800SOL    HW115080   2.599   0.993  13.748
 4800SOL    HW215081   2.471   1.061  13.705
 4801SOL     OW15082   3.474   0.459  13.760
 4801SOL    HW115083   3.387   0.468  13.722
 4801SOL    HW215084   3.497   0.546  13.791
 4802SOL     OW15085   2.096   1.686  13.495
 4802SOL    HW115086   2.107   1.759  13.556
 4802SOL    HW215087   2.173   1.690  13.439
 4803SOL     OW15088   2.098   1.426  13.569
 4803SOL    HW115089   2.089   1.521  13.559
 4803SOL    HW215090   2.033   1.403  13.636
 4804SOL     OW15091   2.101   1.110   0.028
 4804SOL    HW115092   2.120   1.047   0.097
 4804SOL    HW215093   2.033   1.166   0.066
 4805SOL     OW15094   2.442   0.984  13.170
 4805SOL    HW115095   2.490   1.030  13.101
 4805SOL    HW215096   2.481   1.017  13.251
 4806SOL     OW15097   1.982   0.659  13.588
 4806SOL    HW115098   1.953   0.569  13.601
 4806SOL    HW215099   1.966   0.702  13.672
 4807SOL     OW15100   3.703   1.758  13.369
 4807SOL    HW115101   3.774   1.732  13.427
 4807SOL    HW215102   3.721   1.850  13.348
 4808SOL     OW15103   1.858   1.612  13.207
 4808SOL    HW115104   1.845   1.520  13.182
 4808SOL    HW215105   1.902   1.607  13.292
 4809SOL     OW15106   3.546   0.916  13.668
 4809SOL    HW115107   3.634   0.883  13.647
 4809SOL    HW215108   3.525   0.973  13.594
 4810SOL     OW15109   3.504   1.104  13.463
 4810SOL    HW115110   3.588   1.108  13.418
 4810SOL    HW215111   3.512   1.168  13.533
 4811SOL     OW15112   2.466   1.383  13.758
 4811SOL    HW115113   2.422   1.298  13.765
 4811SOL    HW215114   2.443   1.415  13.671
 4812SOL     OW15115   2.684   0.006  13.551
 4812SOL    HW115116   2.728   0.086  13.523
 4812SOL    HW215117   2.590   0.027  13.547
 4813SOL     OW15118   3.389   0.996  13.235
 4813SOL    HW115119   3.320   0.939  13.269
 4813SOL    HW215120   3.430   1.033  13.313
 4814SOL     OW15121   3.514   1.746  13.613
 4814SOL    HW115122   3.495   1.714  13.525
 4814SOL    HW215123   3.510   1.668  13.668
 4815SOL     OW15124   2.455   0.720  13.301
 4815SOL    HW115125   2.457   0.804  13.254
 4815SOL    HW215126   2.389   0.734  13.370
 4816SOL     OW15127   3.098   0.341   0.049
 4816SOL    HW115128   3.011   0.328   0.088
 4816SOL    HW215129   3.157   0.297   0.109
 4817SOL     OW15130   3.439   1.676  13.343
 4817SOL    HW115131   3.531   1.703  13.337
 4817SOL    HW215132   3.413   1.658  13.252
 4818SOL     OW15133   2.912   0.696  13.458
 4818SOL    HW115134   2.927   0.684  13.552
 4818SOL    HW215135   2.829   0.651  13.441
 4819SOL     OW15136   1.941   0.817  13.812
 4819SOL    HW115137   2.021   0.814  13.866
 4819SOL    HW215138   1.893   0.893  13.844
 4820SOL     OW15139   2.757   0.352  13.232
 4820SOL    HW115140   2.799   0.411  13.170
 4820SOL    HW215141   2.748   0.269  13.184
 4821SOL     OW15142   3.223   1.134  13.549
 4821SOL    HW115143   3.314   1.134  13.517
 4821SOL    HW215144   3.181   1.206  13.503
 4822SOL     OW15145   2.859   1.439  13.501
 4822SOL    HW115146   2.830   1.516  13.452
 4822SOL    HW215147   2.827   1.454  13.590
 4823SOL     OW15148   2.274   1.786  13.843
 4823SOL    HW115149   2.239   1.707  13.884
 4823SOL    HW215150   2.349   1.809  13.897
 4824SOL     OW15151   3.654   1.051  13.899
 4824SOL    HW115152   3.596   1.045  13.823
 4824SOL    HW215153   3.595   1.048   0.074
 4825SOL     OW15154   2.180   0.961  13.288
 4825SOL    HW115155   2.261   0.981  13.242
 4825SOL    HW215156   2.150   0.878  13.250
 4826SOL     OW15157   3.357   0.732  13.753
 4826SOL    HW115158   3.343   0.698  13.841
 4826SOL    HW215159   3.424   0.800  13.764
 4827SOL     OW15160   2.985   1.779  13.263
 4827SOL    HW115161   2.911   1.739  13.308
 4827SOL    HW215162   3.009   1.715  13.195
 4828SOL     OW15163   3.486   1.384  13.121
 4828SOL    HW115164   3.443   1.468  13.106
 4828SOL    HW215165   3.419   1.319  13.101
 4829SOL     OW15166   2.341   1.711  13.375
 4829SOL    HW115167   2.376   1.787  13.422
 4829SOL    HW215168   2.397   1.704  13.298
 4830SOL     OW15169   3.284   0.171  13.438
 4830SOL    HW115170   3.247   0.110  13.374
 4830SOL    HW215171   3.372   0.136  13.456
 4831SOL     OW15172   2.783   1.688   0.008
 4831SOL    HW115173   2.805   1.622   0.074
 4831SOL    HW215174   2.746   1.638  13.835
 4832SOL     OW15175   2.256   0.698  13.505
 4832SOL    HW115176   2.275   0.605  13.517
 4832SOL    HW215177   2.163   0.706  13.521
 4833SOL     OW15178   2.506   0.128  13.143
 4833SOL    HW115179   2.527   0.043  13.181
 4833SOL    HW215180   2.444   0.108  13.072
 4834SOL     OW15181   2.411   0.055  13.525
 4834SOL    HW115182   2.336   0.058  13.584
 4834SOL    HW215183   2.404   0.135  13.473
 4835SOL     OW15184   3.289   1.200  13.074
 4835SOL    HW115185   3.318   1.124  13.125
 4835SOL    HW215186   3.204   1.222  13.111
 4836SOL     OW15187   2.195   0.046  13.243
 4836SOL    HW115188   2.202   0.111  13.174
 4836SOL    HW215189   2.277   0.053  13.292
 4837SOL     OW15190   2.804   0.250  13.491
 4837SOL    HW115191   2.778   0.290  13.408
 4837SOL    HW215192   2.900   0.259  13.494
 4838SOL     OW15193   2.324   1.144  13.769
 4838SOL    HW115194   2.252   1.131  13.831
 4838SOL    HW215195   2.284   1.132  13.683
 4839SOL     OW15196   3.129   1.795  13.634
 4839SOL    HW115197   3.174   1.863  13.583
 4839SOL    HW215198   3.061   1.843  13.682
 4840SOL     OW15199   2.883   0.541  13.063
 4840SOL    HW115200   2.839   0.624  13.044
 4840SOL    HW215201   2.947   0.563  13.131
 4841SOL     OW15202   2.763   0.474  13.670
 4841SOL    HW115203   2.694   0.520  13.623
 4841SOL    HW215204   2.770   0.390  13.625
 4842SOL     OW15205   2.864   0.038  13.793
 4842SOL    HW115206   2.830   0.064  13.708
 4842SOL    HW215207   2.887   3.946  13.784
 4843SOL     OW15208   3.728   0.822  13.411
 4843SOL    HW115209   3.774   0.765  13.472
 4843SOL    HW215210   3.691   0.762  13.346
 4844SOL     OW15211   2.355   1.421  13.185
 4844SOL    HW115212   2.280   1.395  13.238
 4844SOL    HW215213   2.344   1.374  13.102
 4845SOL     OW15214   3.540   1.270  13.665
 4845SOL    HW115215   3.635   1.273  13.680
 4845SOL    HW215216   3.508   1.354  13.700
 4846SOL     OW15217   3.256   0.577  13.103
 4846SOL    HW115218   3.193   0.556  13.172
 4846SOL    HW215219   3.341   0.558  13.142
 4847SOL     OW15220   2.390   0.266  13.349
 4847SOL    HW115221   2.446   0.227  13.282
 4847SOL    HW215222   2.360   0.348  13.310
 4848SOL     OW15223   2.572   1.065  13.400
 4848SOL    HW115224   2.557   1.048  13.493
 4848SOL    HW215225   2.647   1.011  13.377
 4849SOL     OW15226   2.208   1.112  13.525
 4849SOL    HW115227   2.212   1.189  13.469
 4849SOL    HW215228   2.203   1.038  13.464
 4850SOL     OW15229   2.430   0.541  13.863
 4850SOL    HW115230   2.441   0.609  13.796
 4850SOL    HW215231   2.490   0.567   0.034
 4851SOL     OW15232   3.106   1.353  13.418
 4851SOL    HW115233   3.161   1.427  13.446
 4851SOL    HW215234   3.020   1.373  13.454
 4852SOL     OW15235   3.444   0.635  13.510
 4852SOL    HW115236   3.405   0.679  13.586
 4852SOL    HW215237   3.478   0.707  13.457
 4853SOL     OW15238   3.062   0.534  13.292
 4853SOL    HW115239   3.067   0.455  13.346
 4853SOL    HW215240   3.019   0.598  13.349
 4854SOL     OW15241   2.195   0.052  13.686
 4854SOL    HW115242   2.176   0.144  13.700
 4854SOL    HW215243   2.116   0.006  13.715
 4855SOL     OW15244   3.465   0.394  13.406
 4855SOL    HW115245   3.433   0.326  13.466
 4855SOL    HW215246   3.449   0.476  13.451
 4856SOL     OW15247   3.360   0.277  13.165
 4856SOL    HW115248   3.289   0.214  13.178
 4856SOL    HW215249   3.374   0.316  13.251
 4857SOL     OW15250   3.149   0.827  13.061
 4857SOL    HW115251   3.191   0.741  13.065
 4857SOL    HW215252   3.181   0.866  12.980
 4858SOL     OW15253   1.867   1.319  13.228
 4858SOL    HW115254   1.780   1.332  13.191
 4858SOL    HW215255   1.865   1.229  13.262
 4859SOL     OW15256   2.679   0.576  13.390
 4859SOL    HW115257   2.683   0.498  13.335
 4859SOL    HW215258   2.602   0.623  13.359
 4860SOL     OW15259   2.324   0.493  13.214
 4860SOL    HW115260   2.381   0.565  13.239
 4860SOL    HW215261   2.238   0.533  13.203
 4861SOL     OW15262   3.179   0.848  13.337
 4861SOL    HW115263   3.100   0.828  13.388
 4861SOL    HW215264   3.151   0.839  13.246
 4862SOL     OW15265   3.539   0.107  13.466
 4862SOL    HW115266   3.630   0.125  13.442
 4862SOL    HW215267   3.545   0.038  13.532
 4863SOL     OW15268   3.244   1.574  13.508
 4863SOL    HW115269   3.304   1.612  13.444
 4863SOL    HW215270   3.198   1.650  13.545
 4864SOL     OW15271   3.153   0.912  13.684
 4864SOL    HW115272   3.231   0.858  13.669
 4864SOL    HW215273   3.174   0.995  13.641
 4865SOL     OW15274   2.537   1.624  13.184
 4865SOL    HW115275   2.546   1.636  13.089
 4865SOL    HW215276   2.480   1.547  13.193
 4866SOL     OW15277   3.670   0.167   0.062
 4866SOL    HW115278   3.704   0.077   0.064
 4866SOL    HW215279   3.582   0.158   0.025
 4867SOL     OW15280   2.139   0.310  13.745
 4867SOL    HW115281   2.049   0.330  13.722
 4867SOL    HW215282   2.139   0.304  13.841
 4868SOL     OW15283   3.070   1.603  13.066
 4868SOL    HW115284   3.059   1.511  13.092
 4868SOL    HW215285   3.004   1.617  12.998
 4869SOL     OW15286   2.782   0.914  13.331
 4869SOL    HW115287   2.840   0.944  13.261
 4869SOL    HW215288   2.827   0.840  13.370
 4870SOL     OW15289   3.350   1.630  13.078
 4870SOL    HW115290   3.256   1.620  13.063
 4870SOL    HW215291   3.388   1.635  12.990
 4871SOL     OW15292   2.912   1.090  13.756
 4871SOL    HW115293   2.825   1.055  13.736
 4871SOL    HW215294   2.968   1.058  13.684
 4872SOL     OW15295   2.459   1.488  13.506
 4872SOL    HW115296   2.505   1.440  13.437
 4872SOL    HW215297   2.403   1.550  13.460
 4873SOL     OW15298   2.123   1.343  13.318
 4873SOL    HW115299   2.029   1.339  13.298
 4873SOL    HW215300   2.127   1.376  13.407
 4874SOL     OW15301   1.963   0.317  13.026
 4874SOL    HW115302   1.895   0.336  13.091
 4874SOL    HW215303   1.969   0.397  12.974
 4875SOL     OW15304   1.952   0.151  13.364
 4875SOL    HW115305   1.922   0.212  13.296
 4875SOL    HW215306   2.038   0.123  13.335
 4876SOL     OW15307   3.039   1.336  13.149
 4876SOL    HW115308   2.948   1.308  13.151
 4876SOL    HW215309   3.066   1.338  13.241
 4877SOL     OW15310   3.077   0.335  13.484
 4877SOL    HW115311   3.146   0.271  13.470
 4877SOL    HW215312   3.105   0.385  13.561
 4878SOL     OW15313   2.455   0.749  13.690
 4878SOL    HW115314   2.489   0.837  13.671
 4878SOL    HW215315   2.386   0.736  13.626
 4879SOL     OW15316   2.726   1.366  13.074
 4879SOL    HW115317   2.687   1.392  13.157
 4879SOL    HW215318   2.741   1.448  13.027
 4880SOL     OW15319   2.518   1.851   0.066
 4880SOL    HW115320   2.531   1.944   0.048
 4880SOL    HW215321   2.606   1.817   0.081
 4881SOL     OW15322   2.684   0.968  13.899
 4881SOL    HW115323   2.708   0.884   0.038
 4881SOL    HW215324   2.725   1.033   0.056
 4882SOL     OW15325   2.938   0.987  13.124
 4882SOL    HW115326   2.917   1.040  13.047
 4882SOL    HW215327   3.013   0.934  13.096
 4883SOL     OW15328   1.948   1.224  13.702
 4883SOL    HW115329   1.953   1.167  13.779
 4883SOL    HW215330   2.019   1.194  13.645
 4884SOL     OW15331   2.291   0.438  13.551
 4884SOL    HW115332   2.328   0.367  13.499
 4884SOL    HW215333   2.252   0.395  13.628
 4885SOL     OW15334   3.544   1.453   0.354
 4885SOL    HW115335   3.512   1.433   0.266
 4885SOL    HW215336   3.635   1.422   0.354
 4886SOL     OW15337   2.679   1.547  13.705
 4886SOL    HW115338   2.652   1.603  13.633
 4886SOL    HW215339   2.604   1.491  13.722
 4887SOL     OW15340   2.636   1.335  13.348
 4887SOL    HW115341   2.607   1.244  13.356
 4887SOL    HW215342   2.716   1.340  13.400
 4888SOL     OW15343   3.171   0.072  13.202
 4888SOL    HW115344   3.187   3.990  13.156
 4888SOL    HW215345   3.081   0.065  13.234
 4889SOL     OW15346   3.157   0.461  13.715
 4889SOL    HW115347   3.107   0.543  13.713
 4889SOL    HW215348   3.145   0.428  13.804
 4890SOL     OW15349   1.907   1.070  13.339
 4890SOL    HW115350   2.001   1.061  13.322
 4890SOL    HW215351   1.879   0.981  13.363
 4891SOL     OW15352   2.749   1.657  13.374
 4891SOL    HW115353   2.677   1.642  13.314
 4891SOL    HW215354   2.720   1.729  13.429
 4892SOL     OW15355   2.095   2.504   0.104
 4892SOL    HW115356   2.009   2.477   0.136
 4892SOL    HW215357   2.111   2.446   0.029
 4893SOL     OW15358   1.871   2.288   0.630
 4893SOL    HW115359   1.781   2.283   0.661
 4893SOL    HW215360   1.882   2.210   0.574
 4894SOL     OW15361   2.429   3.156   1.179
 4894SOL    HW115362   2.343   3.162   1.139
 4894SOL    HW215363   2.446   3.244   1.214
 4895SOL     OW15364   3.427   3.374   0.709
 4895SOL    HW115365   3.383   3.350   0.790
 4895SOL    HW215366   3.358   3.377   0.643
 4896SOL     OW15367   2.993   2.561   0.698
 4896SOL    HW115368   3.042   2.642   0.685
 4896SOL    HW215369   2.946   2.574   0.781
 4897SOL     OW15370   3.627   2.460   0.228
 4897SOL    HW115371   3.646   2.416   0.145
 4897SOL    HW215372   3.585   2.392   0.282
 4898SOL     OW15373   2.610   3.000   1.044
 4898SOL    HW115374   2.543   3.038   1.102
 4898SOL    HW215375   2.649   3.076   1.001
 4899SOL     OW15376   2.733   2.627   1.823
 4899SOL    HW115377   2.720   2.697   1.887
 4899SOL    HW215378   2.756   2.673   1.742
 4900SOL     OW15379   2.546   2.857   0.647
 4900SOL    HW115380   2.613   2.850   0.715
 4900SOL    HW215381   2.479   2.913   0.684
 4901SOL     OW15382   2.575   3.012   1.816
 4901SOL    HW115383   2.623   3.090   1.846
 4901SOL    HW215384   2.494   3.047   1.779
 4902SOL     OW15385   2.194   3.281   1.066
 4902SOL    HW115386   2.119   3.244   1.019
 4902SOL    HW215387   2.239   3.335   1.001
 4903SOL     OW15388   3.320   3.364   1.359
 4903SOL    HW115389   3.375   3.442   1.369
 4903SOL    HW215390   3.254   3.372   1.427
 4904SOL     OW15391   2.283   2.226   1.468
 4904SOL    HW115392   2.370   2.190   1.485
 4904SOL    HW215393   2.223   2.152   1.483
 4905SOL     OW15394   3.470   2.306   0.744
 4905SOL    HW115395   3.398   2.327   0.686
 4905SOL    HW215396   3.481   2.384   0.799
 4906SOL     OW15397   2.082   3.573   0.483
 4906SOL    HW115398   2.107   3.642   0.544
 4906SOL    HW215399   2.147   3.579   0.413
 4907SOL     OW15400   2.999   3.204   1.694
 4907SOL    HW115401   3.041   3.197   1.780
 4907SOL    HW215402   2.947   3.124   1.686
 4908SOL     OW15403   2.080   3.303   0.529
 4908SOL    HW115404   2.073   3.398   0.532
 4908SOL    HW215405   2.027   3.273   0.602
 4909SOL     OW15406   2.125   2.954   0.890
 4909SOL    HW115407   2.120   2.868   0.930
 4909SOL    HW215408   2.068   3.009   0.944
 4910SOL     OW15409   2.468   3.647   1.428
 4910SOL    HW115410   2.387   3.633   1.476
 4910SOL    HW215411   2.495   3.736   1.452
 4911SOL     OW15412   2.427   2.840   0.165
 4911SOL    HW115413   2.460   2.879   0.084
 4911SOL    HW215414   2.479   2.881   0.234
 4912SOL     OW15415   3.456   1.989   1.465
 4912SOL    HW115416   3.475   2.070   1.418
 4912SOL    HW215417   3.440   2.016   1.555
 4913SOL     OW15418   1.986   2.527   0.560
 4913SOL    HW115419   1.952   2.440   0.581
 4913SOL    HW215420   1.975   2.578   0.640
 4914SOL     OW15421   3.697   3.613   0.341
 4914SOL    HW115422   3.766   3.579   0.398
 4914SOL    HW215423   3.720   3.705   0.328
 4915SOL     OW15424   1.882   3.464   0.102
 4915SOL    HW115425   1.891   3.373   0.131
 4915SOL    HW215426   1.867   3.513   0.182
 4916SOL     OW15427   3.549   2.781   0.650
 4916SOL    HW115428   3.632   2.738   0.632
 4916SOL    HW215429   3.530   2.830   0.571
 4917SOL     OW15430   3.506   2.964   0.434
 4917SOL    HW115431   3.592   2.970   0.392
 4917SOL    HW215432   3.509   3.029   0.505
 4918SOL     OW15433   1.984   2.609   1.581
 4918SOL    HW115434   2.075   2.640   1.590
 4918SOL    HW215435   1.931   2.689   1.590
 4919SOL     OW15436   2.478   3.252   0.735
 4919SOL    HW115437   2.432   3.169   0.744
 4919SOL    HW215438   2.461   3.279   0.644
 4920SOL     OW15439   3.148   3.098   1.422
 4920SOL    HW115440   3.180   3.031   1.362
 4920SOL    HW215441   3.208   3.093   1.497
 4921SOL     OW15442   2.707   1.863   0.519
 4921SOL    HW115443   2.747   1.946   0.494
 4921SOL    HW215444   2.612   1.879   0.514
 4922SOL     OW15445   2.051   2.826   1.277
 4922SOL    HW115446   2.136   2.784   1.260
 4922SOL    HW215447   1.989   2.775   1.225
 4923SOL     OW15448   3.391   2.861   0.206
 4923SOL    HW115449   3.323   2.803   0.239
 4923SOL    HW215450   3.431   2.898   0.285
 4924SOL     OW15451   3.084   3.667   1.628
 4924SOL    HW115452   3.057   3.728   1.559
 4924SOL    HW215453   3.083   3.581   1.586
 4925SOL     OW15454   3.326   3.282   0.948
 4925SOL    HW115455   3.260   3.296   1.016
 4925SOL    HW215456   3.316   3.190   0.923
 4926SOL     OW15457   3.514   3.607   0.589
 4926SOL    HW115458   3.506   3.579   0.498
 4926SOL    HW215459   3.495   3.529   0.640
 4927SOL     OW15460   2.458   2.580   0.268
 4927SOL    HW115461   2.460   2.663   0.221
 4927SOL    HW215462   2.398   2.595   0.341
 4928SOL     OW15463   3.139   2.223   0.933
 4928SOL    HW115464   3.051   2.188   0.942
 4928SOL    HW215465   3.192   2.169   0.992
 4929SOL     OW15466   3.421   3.595   0.314
 4929SOL    HW115467   3.517   3.596   0.314
 4929SOL    HW215468   3.397   3.561   0.228
 4930SOL     OW15469   2.654   2.480   1.446
 4930SOL    HW115470   2.630   2.455   1.536
 4930SOL    HW215471   2.617   2.411   1.391
 4931SOL     OW15472   3.255   2.335   1.678
 4931SOL    HW115473   3.259   2.380   1.763
 4931SOL    HW215474   3.313   2.260   1.688
 4932SOL     OW15475   2.813   2.748   1.585
 4932SOL    HW115476   2.868   2.679   1.547
 4932SOL    HW215477   2.765   2.784   1.510
 4933SOL     OW15478   2.855   2.274   1.235
 4933SOL    HW115479   2.767   2.292   1.268
 4933SOL    HW215480   2.841   2.230   1.152
 4934SOL     OW15481   2.914   2.563   0.429
 4934SOL    HW115482   2.932   2.555   0.522
 4934SOL    HW215483   2.831   2.518   0.416
 4935SOL     OW15484   1.951   2.688   0.777
 4935SOL    HW115485   2.031   2.682   0.829
 4935SOL    HW215486   1.905   2.764   0.813
 4936SOL     OW15487   1.981   3.714   1.578
 4936SOL    HW115488   1.986   3.692   1.671
 4936SOL    HW215489   1.889   3.701   1.555
 4937SOL     OW15490   2.730   2.222   0.216
 4937SOL    HW115491   2.768   2.284   0.154
 4937SOL    HW215492   2.745   2.136   0.178
 4938SOL     OW15493   3.569   2.434   1.829
 4938SOL    HW115494   3.532   2.508   1.780
 4938SOL    HW215495   3.595   2.371   1.762
 4939SOL     OW15496   3.239   3.003   0.543
 4939SOL    HW115497   3.318   2.991   0.490
 4939SOL    HW215498   3.187   3.067   0.494
 4940SOL     OW15499   2.413   2.050   0.897
 4940SOL    HW115500   2.413   2.076   0.990
 4940SOL    HW215501   2.430   2.132   0.850
 4941SOL     OW15502   2.863   3.304   0.474
 4941SOL    HW115503   2.833   3.380   0.424
 4941SOL    HW215504   2.841   3.324   0.564
 4942SOL     OW15505   2.213   3.675   0.840
 4942SOL    HW115506   2.263   3.596   0.858
 4942SOL    HW215507   2.273   3.747   0.863
 4943SOL     OW15508   3.668   2.921   0.870
 4943SOL    HW115509   3.614   2.896   0.794
 4943SOL    HW215510   3.606   2.925   0.943
 4944SOL     OW15511   3.089   3.400   1.512
 4944SOL    HW115512   3.077   3.327   1.573
 4944SOL    HW215513   3.020   3.387   1.446
 4945SOL     OW15514   2.169   2.800   0.234
 4945SOL    HW115515   2.261   2.812   0.209
 4945SOL    HW215516   2.154   2.706   0.226
 4946SOL     OW15517   3.342   2.609   0.724
 4946SOL    HW115518   3.337   2.568   0.811
 4946SOL    HW215519   3.419   2.665   0.728
 4947SOL     OW15520   2.331   3.128   1.737
 4947SOL    HW115521   2.304   3.133   1.645
 4947SOL    HW215522   2.249   3.125   1.786
 4948SOL     OW15523   2.990   3.640   0.230
 4948SOL    HW115524   2.925   3.595   0.285
 4948SOL    HW215525   3.016   3.574   0.165
 4949SOL     OW15526   3.493   3.242   0.089
 4949SOL    HW115527   3.456   3.323   0.055
 4949SOL    HW215528   3.426   3.176   0.069
 4950SOL     OW15529   2.335   3.597   0.326
 4950SOL    HW115530   2.370   3.659   0.389
 4950SOL    HW215531   2.412   3.568   0.277
 4951SOL     OW15532   3.266   1.971   0.441
 4951SOL    HW115533   3.262   1.939   0.351
 4951SOL    HW215534   3.359   1.971   0.463
 4952SOL     OW15535   2.123   3.653   1.221
 4952SOL    HW115536   2.169   3.581   1.265
 4952SOL    HW215537   2.106   3.620   1.133
 4953SOL     OW15538   2.801   3.564   0.899
 4953SOL    HW115539   2.879   3.513   0.921
 4953SOL    HW215540   2.758   3.514   0.830
 4954SOL     OW15541   2.256   2.555   0.472
 4954SOL    HW115542   2.275   2.462   0.486
 4954SOL    HW215543   2.164   2.565   0.494
 4955SOL     OW15544   3.394   2.087   1.725
 4955SOL    HW115545   3.404   2.107   1.818
 4955SOL    HW215546   3.326   2.019   1.722
 4956SOL     OW15547   2.625   2.139   1.755
 4956SOL    HW115548   2.705   2.088   1.751
 4956SOL    HW215549   2.582   2.110   1.835
 4957SOL     OW15550   2.738   3.383   1.195
 4957SOL    HW115551   2.721   3.347   1.108
 4957SOL    HW215552   2.808   3.328   1.230
 4958SOL     OW15553   3.201   2.451   1.433
 4958SOL    HW115554   3.233   2.420   1.518
 4958SOL    HW215555   3.238   2.539   1.425
 4959SOL     OW15556   2.680   3.253   0.944
 4959SOL    HW115557   2.764   3.241   0.901
 4959SOL    HW215558   2.617   3.258   0.873
 4960SOL     OW15559   2.789   2.370   0.901
 4960SOL    HW115560   2.765   2.362   0.809
 4960SOL    HW215561   2.822   2.283   0.925
 4961SOL     OW15562   2.450   1.923   0.479
 4961SOL    HW115563   2.376   1.914   0.539
 4961SOL    HW215564   2.430   2.002   0.429
 4962SOL     OW15565   3.292   3.070   0.045
 4962SOL    HW115566   3.311   2.989   0.092
 4962SOL    HW215567   3.201   3.090   0.065
 4963SOL     OW15568   2.810   2.112   0.460
 4963SOL    HW115569   2.777   2.151   0.379
 4963SOL    HW215570   2.904   2.132   0.460
 4964SOL     OW15571   2.943   2.546   1.458
 4964SOL    HW115572   2.878   2.476   1.463
 4964SOL    HW215573   3.027   2.500   1.452
 4965SOL     OW15574   3.081   3.434   0.795
 4965SOL    HW115575   3.097   3.500   0.727
 4965SOL    HW215576   3.152   3.446   0.857
 4966SOL     OW15577   2.333   3.015   0.727
 4966SOL    HW115578   2.266   2.995   0.792
 4966SOL    HW215579   2.290   3.003   0.643
 4967SOL     OW15580   3.127   3.656   0.609
 4967SOL    HW115581   3.175   3.721   0.557
 4967SOL    HW215582   3.053   3.705   0.646
 4968SOL     OW15583   2.858   2.401   0.054
 4968SOL    HW115584   2.854   2.386  13.859
 4968SOL    HW215585   2.951   2.397   0.075
 4969SOL     OW15586   1.941   2.424   1.386
 4969SOL    HW115587   2.034   2.421   1.365
 4969SOL    HW215588   1.934   2.490   1.455
 4970SOL     OW15589   2.417   2.082   1.174
 4970SOL    HW115590   2.469   2.006   1.199
 4970SOL    HW215591   2.334   2.070   1.220
 4971SOL     OW15592   2.725   2.319   0.639
 4971SOL    HW115593   2.687   2.375   0.572
 4971SOL    HW215594   2.751   2.240   0.592
 4972SOL     OW15595   2.876   1.916   0.750
 4972SOL    HW115596   2.821   1.905   0.673
 4972SOL    HW215597   2.855   1.840   0.805
 4973SOL     OW15598   3.302   3.023   0.857
 4973SOL    HW115599   3.231   2.959   0.856
 4973SOL    HW215600   3.327   3.033   0.766
 4974SOL     OW15601   3.327   2.471   0.971
 4974SOL    HW115602   3.273   2.392   0.974
 4974SOL    HW215603   3.385   2.463   1.046
 4975SOL     OW15604   3.725   2.675   0.369
 4975SOL    HW115605   3.765   2.621   0.437
 4975SOL    HW215606   3.683   2.612   0.310
 4976SOL     OW15607   2.352   3.268   0.156
 4976SOL    HW115608   2.277   3.234   0.206
 4976SOL    HW215609   2.335   3.239   0.067
 4977SOL     OW15610   3.529   3.126   0.645
 4977SOL    HW115611   3.624   3.128   0.655
 4977SOL    HW215612   3.501   3.216   0.659
 4978SOL     OW15613   3.284   2.448   0.086
 4978SOL    HW115614   3.218   2.439   0.155
 4978SOL    HW215615   3.319   2.359   0.075
 4979SOL     OW15616   2.385   2.128   0.317
 4979SOL    HW115617   2.445   2.097   0.249
 4979SOL    HW215618   2.349   2.209   0.281
 4980SOL     OW15619   3.612   3.096   1.563
 4980SOL    HW115620   3.700   3.061   1.546
 4980SOL    HW215621   3.628   3.186   1.592
 4981SOL     OW15622   2.918   3.214   1.331
 4981SOL    HW115623   2.843   3.183   1.382
 4981SOL    HW215624   2.993   3.173   1.373
 4982SOL     OW15625   3.469   3.492   1.658
 4982SOL    HW115626   3.459   3.525   1.569
 4982SOL    HW215627   3.549   3.439   1.655
 4983SOL     OW15628   2.994   3.069   1.102
 4983SOL    HW115629   2.936   3.108   1.167
 4983SOL    HW215630   2.964   3.104   1.018
 4984SOL     OW15631   3.489   2.957   1.074
 4984SOL    HW115632   3.479   3.019   1.147
 4984SOL    HW215633   3.413   2.974   1.018
 4985SOL     OW15634   2.778   1.958   1.391
 4985SOL    HW115635   2.803   1.938   1.301
 4985SOL    HW215636   2.857   1.997   1.430
 4986SOL     OW15637   2.846   2.977   1.723
 4986SOL    HW115638   2.755   2.993   1.747
 4986SOL    HW215639   2.843   2.898   1.668
 4987SOL     OW15640   2.579   2.922   0.378
 4987SOL    HW115641   2.563   2.901   0.470
 4987SOL    HW215642   2.653   2.867   0.353
 4988SOL     OW15643   2.282   2.676   1.251
 4988SOL    HW115644   2.349   2.689   1.318
 4988SOL    HW215645   2.248   2.588   1.267
 4989SOL     OW15646   3.126   2.237   1.280
 4989SOL    HW115647   3.159   2.315   1.325
 4989SOL    HW215648   3.036   2.259   1.257
 4990SOL     OW15649   1.935   3.435   1.355
 4990SOL    HW115650   1.908   3.510   1.301
 4990SOL    HW215651   2.031   3.436   1.349
 4991SOL     OW15652   2.204   2.977   0.486
 4991SOL    HW115653   2.200   3.049   0.422
 4991SOL    HW215654   2.211   2.898   0.432
 4992SOL     OW15655   2.404   2.395   0.864
 4992SOL    HW115656   2.417   2.452   0.788
 4992SOL    HW215657   2.472   2.421   0.926
 4993SOL     OW15658   3.110   3.209   0.399
 4993SOL    HW115659   3.166   3.282   0.426
 4993SOL    HW215660   3.023   3.232   0.431
 4994SOL     OW15661   3.148   3.322   1.149
 4994SOL    HW115662   3.205   3.327   1.226
 4994SOL    HW215663   3.093   3.246   1.164
 4995SOL     OW15664   3.440   2.484   0.486
 4995SOL    HW115665   3.390   2.531   0.553
 4995SOL    HW215666   3.466   2.551   0.424
 4996SOL     OW15667   2.207   3.392   1.310
 4996SOL    HW115668   2.196   3.347   1.227
 4996SOL    HW215669   2.302   3.403   1.319
 4997SOL     OW15670   2.280   2.609   1.604
 4997SOL    HW115671   2.342   2.651   1.545
 4997SOL    HW215672   2.324   2.529   1.633
 4998SOL     OW15673   3.468   2.641   1.684
 4998SOL    HW115674   3.382   2.684   1.679
 4998SOL    HW215675   3.520   2.684   1.617
 4999SOL     OW15676   2.857   1.993   1.751
 4999SOL    HW115677   2.917   2.065   1.730
 4999SOL    HW215678   2.905   1.914   1.727
 5000SOL     OW15679   2.373   1.891   1.749
 5000SOL    HW115680   2.324   1.837   1.688
 5000SOL    HW215681   2.318   1.969   1.762
 5001SOL     OW15682   2.447   2.735   1.032
 5001SOL    HW115683   2.480   2.825   1.033
 5001SOL    HW215684   2.390   2.730   1.109
 5002SOL     OW15685   3.213   2.721   1.024
 5002SOL    HW115686   3.129   2.707   0.982
 5002SOL    HW215687   3.258   2.637   1.016
 5003SOL     OW15688   3.082   2.405   0.272
 5003SOL    HW115689   3.086   2.325   0.324
 5003SOL    HW215690   3.025   2.464   0.322
 5004SOL     OW15691   1.908   3.173   1.275
 5004SOL    HW115692   1.941   3.119   1.346
 5004SOL    HW215693   1.914   3.263   1.309
 5005SOL     OW15694   2.580   2.488   1.053
 5005SOL    HW115695   2.659   2.475   0.999
 5005SOL    HW215696   2.555   2.579   1.036
 5006SOL     OW15697   3.592   2.821   1.863
 5006SOL    HW115698   3.552   2.755   1.807
 5006SOL    HW215699   3.528   2.836   1.933
 5007SOL     OW15700   2.225   1.906   0.613
 5007SOL    HW115701   2.145   1.954   0.589
 5007SOL    HW215702   2.208   1.875   0.702
 5008SOL     OW15703   3.484   2.241   0.370
 5008SOL    HW115704   3.507   2.173   0.434
 5008SOL    HW215705   3.459   2.316   0.423
 5009SOL     OW15706   2.889   2.620   0.959
 5009SOL    HW115707   2.883   2.637   1.052
 5009SOL    HW215708   2.863   2.528   0.949
 5010SOL     OW15709   2.848   3.430   1.722
 5010SOL    HW115710   2.828   3.471   1.637
 5010SOL    HW215711   2.889   3.347   1.699
 5011SOL     OW15712   3.704   3.359   1.597
 5011SOL    HW115713   3.728   3.389   1.510
 5011SOL    HW215714   3.784   3.367   1.649
 5012SOL     OW15715   2.215   2.782   1.809
 5012SOL    HW115716   2.296   2.799   1.857
 5012SOL    HW215717   2.240   2.719   1.741
 5013SOL     OW15718   3.414   2.119   0.137
 5013SOL    HW115719   3.352   2.050   0.162
 5013SOL    HW215720   3.435   2.162   0.220
 5014SOL     OW15721   3.151   2.691   0.055
 5014SOL    HW115722   3.198   2.608   0.060
 5014SOL    HW215723   3.169   2.724  13.867
 5015SOL     OW15724   2.930   3.199   0.855
 5015SOL    HW115725   2.934   3.127   0.793
 5015SOL    HW215726   2.989   3.266   0.820
 5016SOL     OW15727   2.172   2.673   0.946
 5016SOL    HW115728   2.264   2.695   0.937
 5016SOL    HW215729   2.171   2.585   0.984
 5017SOL     OW15730   2.182   2.360   1.013
 5017SOL    HW115731   2.141   2.288   0.965
 5017SOL    HW215732   2.263   2.378   0.964
 5018SOL     OW15733   2.996   2.236   1.684
 5018SOL    HW115734   2.948   2.290   1.747
 5018SOL    HW215735   3.083   2.275   1.680
 5019SOL     OW15736   3.021   2.062   1.471
 5019SOL    HW115737   3.011   2.124   1.542
 5019SOL    HW215738   3.064   2.112   1.401
 5020SOL     OW15739   1.884   3.173   0.180
 5020SOL    HW115740   1.802   3.187   0.133
 5020SOL    HW215741   1.874   3.086   0.220
 5021SOL     OW15742   1.960   3.638   0.939
 5021SOL    HW115743   1.928   3.560   0.893
 5021SOL    HW215744   2.044   3.658   0.898
 5022SOL     OW15745   2.354   3.438   0.905
 5022SOL    HW115746   2.422   3.501   0.929
 5022SOL    HW215747   2.399   3.376   0.848
 5023SOL     OW15748   2.838   2.650   1.224
 5023SOL    HW115749   2.899   2.631   1.296
 5023SOL    HW215750   2.754   2.615   1.255
 5024SOL     OW15751   1.900   2.400   1.118
 5024SOL    HW115752   1.984   2.401   1.073
 5024SOL    HW215753   1.922   2.414   1.210
 5025SOL     OW15754   2.059   2.390   1.725
 5025SOL    HW115755   2.120   2.355   1.659
 5025SOL    HW215756   2.015   2.463   1.681
 5026SOL     OW15757   3.242   2.797   1.658
 5026SOL    HW115758   3.263   2.891   1.655
 5026SOL    HW215759   3.238   2.771   1.566
 5027SOL     OW15760   2.676   2.438   0.379
 5027SOL    HW115761   2.686   2.363   0.320
 5027SOL    HW215762   2.605   2.490   0.340
 5028SOL     OW15763   3.501   2.463   1.182
 5028SOL    HW115764   3.490   2.403   1.255
 5028SOL    HW215765   3.588   2.443   1.147
 5029SOL     OW15766   2.103   3.410   1.723
 5029SOL    HW115767   2.080   3.477   1.788
 5029SOL    HW215768   2.108   3.329   1.773
 5030SOL     OW15769   2.567   2.308   1.256
 5030SOL    HW115770   2.512   2.235   1.228
 5030SOL    HW215771   2.561   2.371   1.184
 5031SOL     OW15772   2.788   3.533   1.470
 5031SOL    HW115773   2.761   3.494   1.387
 5031SOL    HW215774   2.779   3.627   1.456
 5032SOL     OW15775   2.302   2.361   0.223
 5032SOL    HW115776   2.366   2.430   0.239
 5032SOL    HW215777   2.226   2.405   0.186
 5033SOL     OW15778   2.005   3.005   1.474
 5033SOL    HW115779   2.006   2.956   1.556
 5033SOL    HW215780   2.023   2.939   1.407
 5034SOL     OW15781   3.182   2.906   1.221
 5034SOL    HW115782   3.206   2.843   1.152
 5034SOL    HW215783   3.116   2.961   1.181
 5035SOL     OW15784   3.178   2.719   0.327
 5035SOL    HW115785   3.105   2.686   0.379
 5035SOL    HW215786   3.152   2.704   0.236
 5036SOL     OW15787   3.641   3.600   1.157
 5036SOL    HW115788   3.699   3.627   1.085
 5036SOL    HW215789   3.613   3.512   1.133
 5037SOL     OW15790   3.106   3.595   1.108
 5037SOL    HW115791   3.189   3.617   1.066
 5037SOL    HW215792   3.113   3.502   1.128
 5038SOL     OW15793   1.949   3.126   1.012
 5038SOL    HW115794   1.933   3.142   1.105
 5038SOL    HW215795   1.874   3.074   0.982
 5039SOL     OW15796   2.541   3.528   1.735
 5039SOL    HW115797   2.483   3.604   1.739
 5039SOL    HW215798   2.602   3.547   1.664
 5040SOL     OW15799   2.794   1.974   0.127
 5040SOL    HW115800   2.825   1.961   0.037
 5040SOL    HW215801   2.843   1.910   0.179
 5041SOL     OW15802   3.567   2.012   0.514
 5041SOL    HW115803   3.645   2.004   0.460
 5041SOL    HW215804   3.558   1.926   0.556
 5042SOL     OW15805   3.252   3.434   0.488
 5042SOL    HW115806   3.314   3.469   0.424
 5042SOL    HW215807   3.204   3.511   0.519
 5043SOL     OW15808   1.998   3.651   1.838
 5043SOL    HW115809   1.946   3.587   1.887
 5043SOL    HW215810   2.046   3.699   1.906
 5044SOL     OW15811   3.138   2.788   0.671
 5044SOL    HW115812   3.213   2.729   0.681
 5044SOL    HW215813   3.172   2.860   0.618
 5045SOL     OW15814   2.670   3.137   1.426
 5045SOL    HW115815   2.642   3.177   1.509
 5045SOL    HW215816   2.600   3.159   1.364
 5046SOL     OW15817   2.542   3.457   0.185
 5046SOL    HW115818   2.524   3.504   0.104
 5046SOL    HW215819   2.486   3.379   0.180
 5047SOL     OW15820   3.480   3.589   1.390
 5047SOL    HW115821   3.536   3.592   1.313
 5047SOL    HW215822   3.467   3.681   1.414
 5048SOL     OW15823   3.701   2.043   0.966
 5048SOL    HW115824   3.731   1.956   0.942
 5048SOL    HW215825   3.614   2.050   0.926
 5049SOL     OW15826   3.085   3.459   0.036
 5049SOL    HW115827   3.073   3.368   0.062
 5049SOL    HW215828   3.038   3.467  13.852
 5050SOL     OW15829   2.686   2.869   1.373
 5050SOL    HW115830   2.730   2.864   1.289
 5050SOL    HW215831   2.683   2.962   1.394
 5051SOL     OW15832   2.785   2.773   0.290
 5051SOL    HW115833   2.854   2.813   0.236
 5051SOL    HW215834   2.829   2.703   0.337
 5052SOL     OW15835   3.348   3.513   0.064
 5052SOL    HW115836   3.255   3.489   0.058
 5052SOL    HW215837   3.381   3.501  13.875
 5053SOL     OW15838   2.231   3.166   1.491
 5053SOL    HW115839   2.217   3.243   1.436
 5053SOL    HW215840   2.153   3.112   1.477
 5054SOL     OW15841   3.461   3.142   1.277
 5054SOL    HW115842   3.530   3.133   1.342
 5054SOL    HW215843   3.405   3.211   1.311
 5055SOL     OW15844   2.919   2.971   0.709
 5055SOL    HW115845   2.848   2.920   0.747
 5055SOL    HW215846   2.984   2.906   0.682
 5056SOL     OW15847   2.883   2.103   0.966
 5056SOL    HW115848   2.880   2.056   0.883
 5056SOL    HW215849   2.880   2.034   1.032
 5057SOL     OW15850   2.468   3.350   0.480
 5057SOL    HW115851   2.514   3.299   0.413
 5057SOL    HW215852   2.399   3.396   0.432
 5058SOL     OW15853   3.587   2.251   1.378
 5058SOL    HW115854   3.659   2.314   1.375
 5058SOL    HW215855   3.615   2.179   1.321
 5059SOL     OW15856   2.133   3.182   0.298
 5059SOL    HW115857   2.050   3.190   0.251
 5059SOL    HW215858   2.120   3.230   0.380
 5060SOL     OW15859   1.975   2.890   1.722
 5060SOL    HW115860   1.898   2.865   1.773
 5060SOL    HW215861   2.049   2.850   1.767
 5061SOL     OW15862   2.536   2.059   1.500
 5061SOL    HW115863   2.619   2.038   1.458
 5061SOL    HW215864   2.560   2.091   1.587
 5062SOL     OW15865   1.861   2.285   0.050
 5062SOL    HW115866   1.854   2.190   0.056
 5062SOL    HW215867   1.936   2.300  13.892
 5063SOL     OW15868   3.287   2.720   1.398
 5063SOL    HW115869   3.237   2.781   1.344
 5063SOL    HW215870   3.375   2.722   1.361
 5064SOL     OW15871   3.048   3.205   0.123
 5064SOL    HW115872   2.954   3.198   0.112
 5064SOL    HW215873   3.063   3.194   0.217
 5065SOL     OW15874   2.482   2.693   1.433
 5065SOL    HW115875   2.538   2.769   1.419
 5065SOL    HW215876   2.543   2.619   1.441
 5066SOL     OW15877   3.348   3.645   0.983
 5066SOL    HW115878   3.371   3.699   0.908
 5066SOL    HW215879   3.431   3.611   1.015
 5067SOL     OW15880   2.579   2.422   1.699
 5067SOL    HW115881   2.622   2.483   1.759
 5067SOL    HW215882   2.599   2.336   1.735
 5068SOL     OW15883   3.335   3.058   1.629
 5068SOL    HW115884   3.325   3.073   1.723
 5068SOL    HW215885   3.428   3.074   1.613
 5069SOL     OW15886   2.235   3.604   1.567
 5069SOL    HW115887   2.151   3.646   1.550
 5069SOL    HW215888   2.212   3.520   1.607
 5070SOL     OW15889   3.526   2.742   1.259
 5070SOL    HW115890   3.524   2.657   1.215
 5070SOL    HW215891   3.518   2.805   1.187
 5071SOL     OW15892   3.082   2.183   0.454
 5071SOL    HW115893   3.144   2.111   0.448
 5071SOL    HW215894   3.108   2.232   0.531
 5072SOL     OW15895   2.444   2.596   0.675
 5072SOL    HW115896   2.487   2.680   0.661
 5072SOL    HW215897   2.381   2.589   0.604
 5073SOL     OW15898   3.619   2.228   1.650
 5073SOL    HW115899   3.603   2.241   1.557
 5073SOL    HW215900   3.549   2.170   1.679
 5074SOL     OW15901   3.619   2.789   1.513
 5074SOL    HW115902   3.610   2.883   1.531
 5074SOL    HW215903   3.594   2.780   1.421
 5075SOL     OW15904   2.771   3.261   0.070
 5075SOL    HW115905   2.705   3.244   0.136
 5075SOL    HW215906   2.723   3.260  13.887
 5076SOL     OW15907   2.523   3.649   0.938
 5076SOL    HW115908   2.502   3.741   0.918
 5076SOL    HW215909   2.619   3.645   0.933
 5077SOL     OW15910   2.731   2.831   0.854
 5077SOL    HW115911   2.781   2.759   0.892
 5077SOL    HW215912   2.694   2.877   0.929
 5078SOL     OW15913   2.959   2.875   0.110
 5078SOL    HW115914   2.950   2.921   0.027
 5078SOL    HW215915   3.033   2.815   0.097
 5079SOL     OW15916   3.711   3.415   0.840
 5079SOL    HW115917   3.632   3.399   0.789
 5079SOL    HW215918   3.709   3.349   0.909
 5080SOL     OW15919   2.088   3.162   1.855
 5080SOL    HW115920   2.023   3.099   1.823
 5080SOL    HW215921   2.067   3.174   1.947
 5081SOL     OW15922   1.948   3.090   0.667
 5081SOL    HW115923   1.957   3.043   0.750
 5081SOL    HW215924   2.019   3.057   0.612
 5082SOL     OW15925   2.546   3.268   1.631
 5082SOL    HW115926   2.467   3.225   1.663
 5082SOL    HW215927   2.543   3.356   1.668
 5083SOL     OW15928   3.673   2.039   1.237
 5083SOL    HW115929   3.665   1.943   1.239
 5083SOL    HW215930   3.689   2.060   1.145
 5084SOL     OW15931   2.291   2.291   0.532
 5084SOL    HW115932   2.326   2.235   0.463
 5084SOL    HW215933   2.250   2.231   0.594
 5085SOL     OW15934   3.557   3.351   1.094
 5085SOL    HW115935   3.479   3.328   1.044
 5085SOL    HW215936   3.567   3.280   1.158
 5086SOL     OW15937   2.195   2.417   1.290
 5086SOL    HW115938   2.239   2.354   1.347
 5086SOL    HW215939   2.210   2.382   1.201
 5087SOL     OW15940   2.692   3.441   0.677
 5087SOL    HW115941   2.673   3.498   0.602
 5087SOL    HW215942   2.617   3.381   0.681
 5088SOL     OW15943   3.292   2.091   1.116
 5088SOL    HW115944   3.312   2.007   1.158
 5088SOL    HW215945   3.241   2.139   1.182
 5089SOL     OW15946   2.870   1.878   1.138
 5089SOL    HW115947   2.817   1.811   1.095
 5089SOL    HW215948   2.958   1.841   1.140
 5090SOL     OW15949   2.639   3.185   0.320
 5090SOL    HW115950   2.610   3.096   0.338
 5090SOL    HW215951   2.720   3.195   0.370
 5091SOL     OW15952   2.482   3.414   1.286
 5091SOL    HW115953   2.482   3.496   1.336
 5091SOL    HW215954   2.570   3.409   1.248
 5092SOL     OW15955   3.212   1.927   0.165
 5092SOL    HW115956   3.248   1.863   0.104
 5092SOL    HW215957   3.129   1.889   0.193
 5093SOL     OW15958   3.156   2.324   0.678
 5093SOL    HW115959   3.104   2.405   0.684
 5093SOL    HW215960   3.152   2.287   0.766
 5094SOL     OW15961   3.443   2.059   0.879
 5094SOL    HW115962   3.388   2.083   0.953
 5094SOL    HW215963   3.444   2.137   0.823
 5095SOL     OW15964   1.901   2.929   0.311
 5095SOL    HW115965   1.997   2.924   0.308
 5095SOL    HW215966   1.873   2.839   0.328
 5096SOL     OW15967   2.759   3.522   0.345
 5096SOL    HW115968   2.684   3.493   0.291
 5096SOL    HW215969   2.725   3.597   0.394
 5097SOL     OW15970   2.093   2.494   1.985
 5097SOL    HW115971   2.009   2.464   2.020
 5097SOL    HW215972   2.091   2.468   1.893
 5098SOL     OW15973   1.869   2.291   2.491
 5098SOL    HW115974   1.779   2.285   2.522
 5098SOL    HW215975   1.881   2.213   2.436
 5099SOL     OW15976   2.429   3.156   3.042
 5099SOL    HW115977   2.343   3.162   3.001
 5099SOL    HW215978   2.446   3.244   3.076
 5100SOL     OW15979   3.427   3.375   2.571
 5100SOL    HW115980   3.385   3.351   2.654
 5100SOL    HW215981   3.355   3.378   2.508
 5101SOL     OW15982   2.993   2.561   2.559
 5101SOL    HW115983   3.042   2.642   2.546
 5101SOL    HW215984   2.946   2.574   2.642
 5102SOL     OW15985   3.630   2.467   2.091
 5102SOL    HW115986   3.609   2.459   1.998
 5102SOL    HW215987   3.596   2.387   2.130
 5103SOL     OW15988   2.610   3.001   2.907
 5103SOL    HW115989   2.543   3.038   2.964
 5103SOL    HW215990   2.649   3.077   2.863
 5104SOL     OW15991   2.733   2.627   3.685
 5104SOL    HW115992   2.720   2.697   3.749
 5104SOL    HW215993   2.757   2.673   3.604
 5105SOL     OW15994   2.547   2.859   2.507
 5105SOL    HW115995   2.613   2.851   2.576
 5105SOL    HW215996   2.479   2.914   2.545
 5106SOL     OW15997   2.575   3.012   3.678
 5106SOL    HW115998   2.623   3.090   3.708
 5106SOL    HW215999   2.494   3.046   3.641
 5107SOL     OW16000   2.193   3.282   2.929
 5107SOL    HW116001   2.119   3.244   2.881
 5107SOL    HW216002   2.239   3.334   2.863
 5108SOL     OW16003   3.320   3.364   3.221
 5108SOL    HW116004   3.375   3.442   3.231
 5108SOL    HW216005   3.253   3.372   3.289
 5109SOL     OW16006   2.284   2.227   3.331
 5109SOL    HW116007   2.371   2.192   3.347
 5109SOL    HW216008   2.225   2.153   3.343
 5110SOL     OW16009   3.470   2.306   2.607
 5110SOL    HW116010   3.399   2.328   2.547
 5110SOL    HW216011   3.480   2.384   2.661
 5111SOL     OW16012   2.084   3.578   2.341
 5111SOL    HW116013   2.113   3.637   2.410
 5111SOL    HW216014   2.156   3.576   2.278
 5112SOL     OW16015   2.999   3.204   3.556
 5112SOL    HW116016   3.041   3.197   3.642
 5112SOL    HW216017   2.947   3.124   3.548
 5113SOL     OW16018   2.092   3.304   2.398
 5113SOL    HW116019   2.074   3.398   2.401
 5113SOL    HW216020   2.034   3.266   2.463
 5114SOL     OW16021   2.126   2.955   2.754
 5114SOL    HW116022   2.121   2.868   2.793
 5114SOL    HW216023   2.068   3.009   2.807
 5115SOL     OW16024   2.468   3.647   3.290
 5115SOL    HW116025   2.387   3.633   3.338
 5115SOL    HW216026   2.495   3.736   3.314
 5116SOL     OW16027   2.443   2.846   1.999
 5116SOL    HW116028   2.491   2.892   1.930
 5116SOL    HW216029   2.481   2.878   2.081
 5117SOL     OW16030   3.456   1.989   3.327
 5117SOL    HW116031   3.475   2.070   3.280
 5117SOL    HW216032   3.440   2.016   3.417
 5118SOL     OW16033   1.988   2.528   2.422
 5118SOL    HW116034   1.951   2.442   2.443
 5118SOL    HW216035   1.977   2.579   2.503
 5119SOL     OW16036   3.700   3.612   2.204
 5119SOL    HW116037   3.772   3.587   2.262
 5119SOL    HW216038   3.718   3.703   2.181
 5120SOL     OW16039   1.893   3.451   1.983
 5120SOL    HW116040   1.878   3.359   2.004
 5120SOL    HW216041   1.872   3.498   2.064
 5121SOL     OW16042   3.551   2.782   2.510
 5121SOL    HW116043   3.634   2.738   2.491
 5121SOL    HW216044   3.531   2.831   2.430
 5122SOL     OW16045   3.504   2.965   2.294
 5122SOL    HW116046   3.589   2.969   2.250
 5122SOL    HW216047   3.510   3.029   2.365
 5123SOL     OW16048   1.984   2.610   3.443
 5123SOL    HW116049   2.074   2.641   3.451
 5123SOL    HW216050   1.931   2.689   3.451
 5124SOL     OW16051   2.478   3.252   2.596
 5124SOL    HW116052   2.433   3.169   2.606
 5124SOL    HW216053   2.461   3.279   2.506
 5125SOL     OW16054   3.148   3.098   3.284
 5125SOL    HW116055   3.180   3.031   3.223
 5125SOL    HW216056   3.208   3.093   3.359
 5126SOL     OW16057   2.704   1.865   2.380
 5126SOL    HW116058   2.745   1.947   2.355
 5126SOL    HW216059   2.610   1.881   2.374
 5127SOL     OW16060   2.051   2.826   3.138
 5127SOL    HW116061   2.136   2.784   3.122
 5127SOL    HW216062   1.989   2.775   3.087
 5128SOL     OW16063   3.389   2.859   2.063
 5128SOL    HW116064   3.320   2.802   2.096
 5128SOL    HW216065   3.432   2.894   2.141
 5129SOL     OW16066   3.084   3.667   3.490
 5129SOL    HW116067   3.057   3.728   3.421
 5129SOL    HW216068   3.083   3.581   3.448
 5130SOL     OW16069   3.327   3.282   2.810
 5130SOL    HW116070   3.261   3.297   2.877
 5130SOL    HW216071   3.316   3.190   2.785
 5131SOL     OW16072   3.507   3.608   2.442
 5131SOL    HW116073   3.500   3.572   2.354
 5131SOL    HW216074   3.492   3.532   2.500
 5132SOL     OW16075   2.459   2.585   2.133
 5132SOL    HW116076   2.461   2.667   2.085
 5132SOL    HW216077   2.393   2.598   2.201
 5133SOL     OW16078   3.139   2.223   2.796
 5133SOL    HW116079   3.051   2.188   2.804
 5133SOL    HW216080   3.192   2.169   2.854
 5134SOL     OW16081   3.435   3.539   2.170
 5134SOL    HW116082   3.528   3.562   2.166
 5134SOL    HW216083   3.410   3.520   2.080
 5135SOL     OW16084   2.654   2.480   3.308
 5135SOL    HW116085   2.630   2.455   3.397
 5135SOL    HW216086   2.617   2.411   3.253
 5136SOL     OW16087   3.255   2.335   3.540
 5136SOL    HW116088   3.259   2.380   3.625
 5136SOL    HW216089   3.313   2.260   3.550
 5137SOL     OW16090   2.813   2.748   3.447
 5137SOL    HW116091   2.868   2.679   3.409
 5137SOL    HW216092   2.765   2.784   3.372
 5138SOL     OW16093   2.855   2.274   3.097
 5138SOL    HW116094   2.767   2.292   3.130
 5138SOL    HW216095   2.841   2.230   3.014
 5139SOL     OW16096   2.915   2.560   2.287
 5139SOL    HW116097   2.933   2.554   2.381
 5139SOL    HW216098   2.832   2.515   2.275
 5140SOL     OW16099   1.951   2.687   2.641
 5140SOL    HW116100   2.031   2.682   2.692
 5140SOL    HW216101   1.906   2.764   2.675
 5141SOL     OW16102   1.981   3.713   3.440
 5141SOL    HW116103   1.986   3.692   3.533
 5141SOL    HW216104   1.888   3.701   3.417
 5142SOL     OW16105   2.760   2.214   2.058
 5142SOL    HW116106   2.801   2.276   1.998
 5142SOL    HW216107   2.766   2.129   2.014
 5143SOL     OW16108   3.570   2.434   3.691
 5143SOL    HW116109   3.532   2.508   3.642
 5143SOL    HW216110   3.595   2.371   3.624
 5144SOL     OW16111   3.239   3.003   2.402
 5144SOL    HW116112   3.319   2.991   2.351
 5144SOL    HW216113   3.187   3.066   2.351
 5145SOL     OW16114   2.411   2.050   2.759
 5145SOL    HW116115   2.412   2.075   2.851
 5145SOL    HW216116   2.429   2.132   2.712
 5146SOL     OW16117   2.864   3.307   2.332
 5146SOL    HW116118   2.829   3.381   2.283
 5146SOL    HW216119   2.842   3.326   2.423
 5147SOL     OW16120   2.213   3.674   2.700
 5147SOL    HW116121   2.263   3.595   2.719
 5147SOL    HW216122   2.272   3.746   2.724
 5148SOL     OW16123   3.668   2.922   2.730
 5148SOL    HW116124   3.616   2.895   2.655
 5148SOL    HW216125   3.606   2.926   2.803
 5149SOL     OW16126   3.089   3.400   3.374
 5149SOL    HW116127   3.077   3.327   3.435
 5149SOL    HW216128   3.020   3.387   3.308
 5150SOL     OW16129   2.177   2.819   2.115
 5150SOL    HW116130   2.258   2.838   2.068
 5150SOL    HW216131   2.146   2.737   2.078
 5151SOL     OW16132   3.343   2.610   2.586
 5151SOL    HW116133   3.338   2.569   2.672
 5151SOL    HW216134   3.421   2.665   2.590
 5152SOL     OW16135   2.331   3.128   3.599
 5152SOL    HW116136   2.304   3.133   3.507
 5152SOL    HW216137   2.249   3.125   3.648
 5153SOL     OW16138   2.977   3.644   2.083
 5153SOL    HW116139   2.911   3.599   2.136
 5153SOL    HW216140   3.007   3.577   2.021
 5154SOL     OW16141   3.486   3.248   1.951
 5154SOL    HW116142   3.443   3.331   1.933
 5154SOL    HW216143   3.419   3.182   1.931
 5155SOL     OW16144   2.328   3.598   2.187
 5155SOL    HW116145   2.367   3.662   2.247
 5155SOL    HW216146   2.400   3.572   2.130
 5156SOL     OW16147   3.263   1.969   2.300
 5156SOL    HW116148   3.256   1.944   2.208
 5156SOL    HW216149   3.357   1.975   2.317
 5157SOL     OW16150   2.123   3.653   3.083
 5157SOL    HW116151   2.169   3.582   3.128
 5157SOL    HW216152   2.106   3.619   2.995
 5158SOL     OW16153   2.800   3.564   2.760
 5158SOL    HW116154   2.877   3.512   2.783
 5158SOL    HW216155   2.757   3.514   2.691
 5159SOL     OW16156   2.259   2.555   2.336
 5159SOL    HW116157   2.275   2.461   2.347
 5159SOL    HW216158   2.165   2.566   2.353
 5160SOL     OW16159   3.393   2.087   3.587
 5160SOL    HW116160   3.403   2.107   3.680
 5160SOL    HW216161   3.326   2.019   3.584
 5161SOL     OW16162   2.514   1.983   1.966
 5161SOL    HW116163   2.572   1.913   1.998
 5161SOL    HW216164   2.464   1.943   1.895
 5162SOL     OW16165   2.625   2.139   3.617
 5162SOL    HW116166   2.705   2.088   3.613
 5162SOL    HW216167   2.582   2.110   3.697
 5163SOL     OW16168   2.738   3.383   3.057
 5163SOL    HW116169   2.721   3.346   2.970
 5163SOL    HW216170   2.808   3.328   3.093
 5164SOL     OW16171   3.201   2.451   3.295
 5164SOL    HW116172   3.233   2.420   3.380
 5164SOL    HW216173   3.238   2.539   3.287
 5165SOL     OW16174   2.680   3.253   2.806
 5165SOL    HW116175   2.764   3.241   2.763
 5165SOL    HW216176   2.616   3.258   2.735
 5166SOL     OW16177   2.790   2.370   2.763
 5166SOL    HW116178   2.765   2.362   2.671
 5166SOL    HW216179   2.822   2.283   2.787
 5167SOL     OW16180   2.448   1.925   2.334
 5167SOL    HW116181   2.374   1.915   2.393
 5167SOL    HW216182   2.430   2.005   2.285
 5168SOL     OW16183   3.289   3.062   1.902
 5168SOL    HW116184   3.320   2.987   1.952
 5168SOL    HW216185   3.204   3.083   1.939
 5169SOL     OW16186   2.808   2.114   2.318
 5169SOL    HW116187   2.782   2.152   2.234
 5169SOL    HW216188   2.903   2.130   2.323
 5170SOL     OW16189   2.943   2.546   3.320
 5170SOL    HW116190   2.878   2.476   3.325
 5170SOL    HW216191   3.027   2.500   3.314
 5171SOL     OW16192   3.082   3.433   2.656
 5171SOL    HW116193   3.097   3.500   2.589
 5171SOL    HW216194   3.152   3.446   2.720
 5172SOL     OW16195   2.334   3.014   2.590
 5172SOL    HW116196   2.266   2.995   2.655
 5172SOL    HW216197   2.291   3.000   2.506
 5173SOL     OW16198   3.126   3.655   2.471
 5173SOL    HW116199   3.174   3.720   2.419
 5173SOL    HW216200   3.053   3.704   2.509
 5174SOL     OW16201   2.885   2.399   1.887
 5174SOL    HW116202   2.841   2.482   1.868
 5174SOL    HW216203   2.950   2.421   1.954
 5175SOL     OW16204   1.941   2.425   3.248
 5175SOL    HW116205   2.034   2.421   3.227
 5175SOL    HW216206   1.934   2.490   3.317
 5176SOL     OW16207   2.416   2.082   3.035
 5176SOL    HW116208   2.469   2.006   3.060
 5176SOL    HW216209   2.333   2.069   3.081
 5177SOL     OW16210   2.725   2.318   2.501
 5177SOL    HW116211   2.685   2.375   2.435
 5177SOL    HW216212   2.751   2.240   2.453
 5178SOL     OW16213   2.875   1.916   2.612
 5178SOL    HW116214   2.820   1.905   2.534
 5178SOL    HW216215   2.854   1.840   2.667
 5179SOL     OW16216   3.302   3.023   2.719
 5179SOL    HW116217   3.231   2.959   2.719
 5179SOL    HW216218   3.327   3.031   2.627
 5180SOL     OW16219   3.327   2.472   2.833
 5180SOL    HW116220   3.273   2.392   2.835
 5180SOL    HW216221   3.385   2.463   2.908
 5181SOL     OW16222   3.723   2.678   2.237
 5181SOL    HW116223   3.767   2.622   2.301
 5181SOL    HW216224   3.687   2.616   2.173
 5182SOL     OW16225   2.352   3.281   2.014
 5182SOL    HW116226   2.276   3.254   2.066
 5182SOL    HW216227   2.342   3.235   1.931
 5183SOL     OW16228   3.530   3.128   2.504
 5183SOL    HW116229   3.625   3.129   2.515
 5183SOL    HW216230   3.502   3.217   2.526
 5184SOL     OW16231   3.256   2.434   1.933
 5184SOL    HW116232   3.194   2.414   2.003
 5184SOL    HW216233   3.340   2.403   1.967
 5185SOL     OW16234   2.385   2.130   2.168
 5185SOL    HW116235   2.431   2.082   2.100
 5185SOL    HW216236   2.360   2.213   2.128
 5186SOL     OW16237   3.612   3.096   3.425
 5186SOL    HW116238   3.700   3.061   3.408
 5186SOL    HW216239   3.628   3.186   3.454
 5187SOL     OW16240   2.918   3.214   3.194
 5187SOL    HW116241   2.843   3.183   3.244
 5187SOL    HW216242   2.993   3.173   3.235
 5188SOL     OW16243   3.469   3.492   3.520
 5188SOL    HW116244   3.459   3.525   3.431
 5188SOL    HW216245   3.549   3.439   3.517
 5189SOL     OW16246   2.995   3.070   2.964
 5189SOL    HW116247   2.936   3.108   3.029
 5189SOL    HW216248   2.964   3.104   2.881
 5190SOL     OW16249   3.489   2.957   2.936
 5190SOL    HW116250   3.480   3.019   3.009
 5190SOL    HW216251   3.413   2.974   2.881
 5191SOL     OW16252   2.778   1.958   3.254
 5191SOL    HW116253   2.803   1.938   3.163
 5191SOL    HW216254   2.857   1.997   3.292
 5192SOL     OW16255   2.846   2.977   3.585
 5192SOL    HW116256   2.755   2.993   3.609
 5192SOL    HW216257   2.843   2.898   3.530
 5193SOL     OW16258   2.572   2.924   2.233
 5193SOL    HW116259   2.557   2.904   2.325
 5193SOL    HW216260   2.647   2.870   2.208
 5194SOL     OW16261   2.281   2.676   3.113
 5194SOL    HW116262   2.349   2.689   3.180
 5194SOL    HW216263   2.248   2.588   3.129
 5195SOL     OW16264   3.126   2.237   3.142
 5195SOL    HW116265   3.159   2.315   3.187
 5195SOL    HW216266   3.036   2.259   3.119
 5196SOL     OW16267   1.935   3.435   3.217
 5196SOL    HW116268   1.908   3.510   3.164
 5196SOL    HW216269   2.031   3.436   3.211
 5197SOL     OW16270   2.204   2.977   2.351
 5197SOL    HW116271   2.207   3.050   2.290
 5197SOL    HW216272   2.201   2.899   2.295
 5198SOL     OW16273   2.404   2.396   2.725
 5198SOL    HW116274   2.417   2.453   2.650
 5198SOL    HW216275   2.472   2.421   2.787
 5199SOL     OW16276   3.109   3.212   2.252
 5199SOL    HW116277   3.165   3.282   2.283
 5199SOL    HW216278   3.022   3.233   2.285
 5200SOL     OW16279   3.148   3.322   3.010
 5200SOL    HW116280   3.205   3.327   3.088
 5200SOL    HW216281   3.093   3.245   3.025
 5201SOL     OW16282   3.439   2.481   2.345
 5201SOL    HW116283   3.391   2.532   2.411
 5201SOL    HW216284   3.481   2.546   2.290
 5202SOL     OW16285   2.207   3.392   3.172
 5202SOL    HW116286   2.196   3.347   3.089
 5202SOL    HW216287   2.302   3.403   3.181
 5203SOL     OW16288   2.280   2.609   3.466
 5203SOL    HW116289   2.342   2.651   3.407
 5203SOL    HW216290   2.324   2.529   3.494
 5204SOL     OW16291   3.468   2.641   3.546
 5204SOL    HW116292   3.382   2.684   3.541
 5204SOL    HW216293   3.521   2.684   3.479
 5205SOL     OW16294   2.857   1.993   3.613
 5205SOL    HW116295   2.917   2.065   3.592
 5205SOL    HW216296   2.905   1.914   3.589
 5206SOL     OW16297   2.372   1.892   3.612
 5206SOL    HW116298   2.323   1.837   3.551
 5206SOL    HW216299   2.315   1.968   3.627
 5207SOL     OW16300   2.448   2.735   2.895
 5207SOL    HW116301   2.480   2.825   2.895
 5207SOL    HW216302   2.390   2.730   2.971
 5208SOL     OW16303   3.213   2.721   2.885
 5208SOL    HW116304   3.128   2.707   2.844
 5208SOL    HW216305   3.258   2.637   2.878
 5209SOL     OW16306   3.062   2.390   2.125
 5209SOL    HW116307   3.072   2.312   2.179
 5209SOL    HW216308   3.020   2.454   2.181
 5210SOL     OW16309   1.908   3.173   3.137
 5210SOL    HW116310   1.940   3.118   3.208
 5210SOL    HW216311   1.914   3.263   3.171
 5211SOL     OW16312   2.580   2.488   2.915
 5211SOL    HW116313   2.659   2.475   2.861
 5211SOL    HW216314   2.555   2.579   2.899
 5212SOL     OW16315   3.592   2.822   3.725
 5212SOL    HW116316   3.552   2.755   3.669
 5212SOL    HW216317   3.528   2.836   3.795
 5213SOL     OW16318   2.224   1.901   2.471
 5213SOL    HW116319   2.147   1.954   2.450
 5213SOL    HW216320   2.211   1.873   2.561
 5214SOL     OW16321   3.482   2.240   2.224
 5214SOL    HW116322   3.509   2.174   2.289
 5214SOL    HW216323   3.459   2.316   2.277
 5215SOL     OW16324   2.890   2.620   2.820
 5215SOL    HW116325   2.883   2.637   2.914
 5215SOL    HW216326   2.864   2.528   2.811
 5216SOL     OW16327   2.848   3.430   3.584
 5216SOL    HW116328   2.828   3.471   3.499
 5216SOL    HW216329   2.889   3.347   3.561
 5217SOL     OW16330   3.704   3.359   3.459
 5217SOL    HW116331   3.728   3.389   3.372
 5217SOL    HW216332   3.784   3.367   3.511
 5218SOL     OW16333   2.215   2.782   3.671
 5218SOL    HW116334   2.296   2.799   3.719
 5218SOL    HW216335   2.240   2.719   3.603
 5219SOL     OW16336   3.390   2.134   1.989
 5219SOL    HW116337   3.326   2.069   2.016
 5219SOL    HW216338   3.424   2.170   2.071
 5220SOL     OW16339   3.150   2.686   1.891
 5220SOL    HW116340   3.193   2.601   1.895
 5220SOL    HW216341   3.183   2.726   1.810
 5221SOL     OW16342   2.929   3.200   2.718
 5221SOL    HW116343   2.934   3.127   2.655
 5221SOL    HW216344   2.988   3.266   2.682
 5222SOL     OW16345   2.172   2.673   2.808
 5222SOL    HW116346   2.264   2.695   2.798
 5222SOL    HW216347   2.172   2.585   2.847
 5223SOL     OW16348   2.183   2.360   2.874
 5223SOL    HW116349   2.140   2.290   2.826
 5223SOL    HW216350   2.263   2.379   2.826
 5224SOL     OW16351   2.996   2.236   3.546
 5224SOL    HW116352   2.948   2.290   3.609
 5224SOL    HW216353   3.083   2.275   3.542
 5225SOL     OW16354   3.021   2.062   3.333
 5225SOL    HW116355   3.011   2.124   3.404
 5225SOL    HW216356   3.064   2.112   3.263
 5226SOL     OW16357   1.868   3.180   2.057
 5226SOL    HW116358   1.781   3.195   2.020
 5226SOL    HW216359   1.864   3.091   2.091
 5227SOL     OW16360   1.960   3.638   2.801
 5227SOL    HW116361   1.928   3.560   2.755
 5227SOL    HW216362   2.044   3.658   2.760
 5228SOL     OW16363   2.354   3.438   2.767
 5228SOL    HW116364   2.422   3.501   2.791
 5228SOL    HW216365   2.399   3.376   2.710
 5229SOL     OW16366   2.838   2.650   3.086
 5229SOL    HW116367   2.899   2.631   3.158
 5229SOL    HW216368   2.754   2.615   3.116
 5230SOL     OW16369   1.900   2.400   2.980
 5230SOL    HW116370   1.984   2.402   2.935
 5230SOL    HW216371   1.922   2.414   3.072
 5231SOL     OW16372   2.062   2.392   3.586
 5231SOL    HW116373   2.123   2.358   3.521
 5231SOL    HW216374   2.017   2.464   3.542
 5232SOL     OW16375   3.242   2.797   3.520
 5232SOL    HW116376   3.263   2.891   3.517
 5232SOL    HW216377   3.238   2.770   3.428
 5233SOL     OW16378   2.678   2.432   2.229
 5233SOL    HW116379   2.684   2.358   2.168
 5233SOL    HW216380   2.605   2.484   2.197
 5234SOL     OW16381   3.501   2.463   3.044
 5234SOL    HW116382   3.490   2.403   3.117
 5234SOL    HW216383   3.588   2.443   3.009
 5235SOL     OW16384   2.103   3.410   3.585
 5235SOL    HW116385   2.080   3.477   3.650
 5235SOL    HW216386   2.108   3.328   3.635
 5236SOL     OW16387   2.566   2.308   3.118
 5236SOL    HW116388   2.512   2.235   3.090
 5236SOL    HW216389   2.561   2.371   3.047
 5237SOL     OW16390   2.787   3.533   3.332
 5237SOL    HW116391   2.761   3.494   3.249
 5237SOL    HW216392   2.779   3.627   3.318
 5238SOL     OW16393   2.324   2.361   2.050
 5238SOL    HW116394   2.382   2.434   2.073
 5238SOL    HW216395   2.240   2.403   2.032
 5239SOL     OW16396   2.006   3.005   3.336
 5239SOL    HW116397   2.006   2.956   3.418
 5239SOL    HW216398   2.023   2.939   3.269
 5240SOL     OW16399   3.183   2.906   3.083
 5240SOL    HW116400   3.205   2.843   3.014
 5240SOL    HW216401   3.116   2.961   3.043
 5241SOL     OW16402   3.176   2.718   2.167
 5241SOL    HW116403   3.101   2.687   2.218
 5241SOL    HW216404   3.149   2.704   2.076
 5242SOL     OW16405   3.641   3.601   3.018
 5242SOL    HW116406   3.699   3.627   2.947
 5242SOL    HW216407   3.612   3.512   2.995
 5243SOL     OW16408   3.106   3.595   2.970
 5243SOL    HW116409   3.189   3.617   2.927
 5243SOL    HW216410   3.113   3.501   2.990
 5244SOL     OW16411   1.948   3.128   2.873
 5244SOL    HW116412   1.932   3.142   2.966
 5244SOL    HW216413   1.875   3.073   2.844
 5245SOL     OW16414   2.541   3.528   3.597
 5245SOL    HW116415   2.484   3.604   3.601
 5245SOL    HW216416   2.602   3.547   3.526
 5246SOL     OW16417   3.570   2.014   2.373
 5246SOL    HW116418   3.638   2.002   2.307
 5246SOL    HW216419   3.560   1.928   2.413
 5247SOL     OW16420   3.252   3.430   2.351
 5247SOL    HW116421   3.311   3.464   2.283
 5247SOL    HW216422   3.204   3.507   2.381
 5248SOL     OW16423   1.998   3.651   3.700
 5248SOL    HW116424   1.946   3.587   3.749
 5248SOL    HW216425   2.046   3.699   3.768
 5249SOL     OW16426   3.139   2.789   2.533
 5249SOL    HW116427   3.213   2.729   2.543
 5249SOL    HW216428   3.173   2.861   2.480
 5250SOL     OW16429   2.670   3.137   3.288
 5250SOL    HW116430   2.642   3.177   3.371
 5250SOL    HW216431   2.600   3.159   3.226
 5251SOL     OW16432   2.536   3.481   2.020
 5251SOL    HW116433   2.546   3.499   1.927
 5251SOL    HW216434   2.477   3.405   2.024
 5252SOL     OW16435   3.480   3.589   3.252
 5252SOL    HW116436   3.536   3.592   3.175
 5252SOL    HW216437   3.467   3.681   3.276
 5253SOL     OW16438   3.700   2.043   2.828
 5253SOL    HW116439   3.731   1.956   2.804
 5253SOL    HW216440   3.614   2.050   2.788
 5254SOL     OW16441   3.070   3.465   1.898
 5254SOL    HW116442   3.059   3.373   1.923
 5254SOL    HW216443   3.008   3.477   1.826
 5255SOL     OW16444   2.686   2.869   3.236
 5255SOL    HW116445   2.729   2.864   3.151
 5255SOL    HW216446   2.683   2.962   3.256
 5256SOL     OW16447   2.779   2.773   2.153
 5256SOL    HW116448   2.839   2.805   2.086
 5256SOL    HW216449   2.828   2.704   2.198
 5257SOL     OW16450   3.349   3.496   1.905
 5257SOL    HW116451   3.256   3.482   1.888
 5257SOL    HW216452   3.388   3.500   1.818
 5258SOL     OW16453   2.231   3.166   3.353
 5258SOL    HW116454   2.217   3.243   3.298
 5258SOL    HW216455   2.153   3.112   3.339
 5259SOL     OW16456   3.461   3.142   3.139
 5259SOL    HW116457   3.530   3.132   3.205
 5259SOL    HW216458   3.405   3.211   3.173
 5260SOL     OW16459   2.920   2.971   2.571
 5260SOL    HW116460   2.848   2.921   2.609
 5260SOL    HW216461   2.984   2.905   2.543
 5261SOL     OW16462   2.884   2.103   2.828
 5261SOL    HW116463   2.880   2.056   2.745
 5261SOL    HW216464   2.880   2.034   2.894
 5262SOL     OW16465   2.467   3.353   2.341
 5262SOL    HW116466   2.514   3.302   2.275
 5262SOL    HW216467   2.397   3.395   2.293
 5263SOL     OW16468   3.587   2.251   3.240
 5263SOL    HW116469   3.659   2.314   3.237
 5263SOL    HW216470   3.615   2.179   3.183
 5264SOL     OW16471   2.123   3.205   2.153
 5264SOL    HW116472   2.030   3.201   2.129
 5264SOL    HW216473   2.124   3.244   2.240
 5265SOL     OW16474   1.975   2.891   3.584
 5265SOL    HW116475   1.898   2.865   3.635
 5265SOL    HW216476   2.049   2.851   3.629
 5266SOL     OW16477   2.536   2.059   3.362
 5266SOL    HW116478   2.619   2.038   3.320
 5266SOL    HW216479   2.560   2.091   3.449
 5267SOL     OW16480   1.898   2.284   1.929
 5267SOL    HW116481   1.860   2.199   1.905
 5267SOL    HW216482   1.945   2.313   1.851
 5268SOL     OW16483   3.287   2.720   3.260
 5268SOL    HW116484   3.237   2.781   3.206
 5268SOL    HW216485   3.375   2.722   3.223
 5269SOL     OW16486   3.039   3.198   1.979
 5269SOL    HW116487   2.948   3.168   1.981
 5269SOL    HW216488   3.066   3.198   2.071
 5270SOL     OW16489   2.482   2.692   3.295
 5270SOL    HW116490   2.538   2.769   3.281
 5270SOL    HW216491   2.543   2.619   3.303
 5271SOL     OW16492   3.348   3.644   2.845
 5271SOL    HW116493   3.371   3.700   2.771
 5271SOL    HW216494   3.431   3.611   2.878
 5272SOL     OW16495   2.579   2.422   3.561
 5272SOL    HW116496   2.622   2.483   3.621
 5272SOL    HW216497   2.599   2.336   3.597
 5273SOL     OW16498   3.335   3.058   3.491
 5273SOL    HW116499   3.325   3.073   3.585
 5273SOL    HW216500   3.428   3.074   3.475
 5274SOL     OW16501   2.235   3.604   3.429
 5274SOL    HW116502   2.151   3.646   3.412
 5274SOL    HW216503   2.212   3.520   3.469
 5275SOL     OW16504   3.526   2.742   3.121
 5275SOL    HW116505   3.525   2.657   3.077
 5275SOL    HW216506   3.519   2.805   3.049
 5276SOL     OW16507   3.080   2.182   2.318
 5276SOL    HW116508   3.142   2.109   2.312
 5276SOL    HW216509   3.109   2.231   2.395
 5277SOL     OW16510   2.446   2.596   2.537
 5277SOL    HW116511   2.488   2.681   2.522
 5277SOL    HW216512   2.383   2.588   2.466
 5278SOL     OW16513   3.619   2.228   3.512
 5278SOL    HW116514   3.603   2.241   3.419
 5278SOL    HW216515   3.549   2.170   3.541
 5279SOL     OW16516   3.619   2.789   3.375
 5279SOL    HW116517   3.609   2.883   3.393
 5279SOL    HW216518   3.594   2.780   3.283
 5280SOL     OW16519   2.726   3.229   1.903
 5280SOL    HW116520   2.685   3.256   1.985
 5280SOL    HW216521   2.740   3.310   1.855
 5281SOL     OW16522   2.523   3.650   2.799
 5281SOL    HW116523   2.502   3.741   2.779
 5281SOL    HW216524   2.618   3.645   2.795
 5282SOL     OW16525   2.731   2.832   2.716
 5282SOL    HW116526   2.781   2.759   2.754
 5282SOL    HW216527   2.694   2.877   2.792
 5283SOL     OW16528   2.940   2.851   1.951
 5283SOL    HW116529   2.918   2.902   1.873
 5283SOL    HW216530   3.014   2.796   1.924
 5284SOL     OW16531   3.711   3.416   2.702
 5284SOL    HW116532   3.631   3.397   2.653
 5284SOL    HW216533   3.715   3.348   2.769
 5285SOL     OW16534   2.088   3.162   3.717
 5285SOL    HW116535   2.024   3.099   3.685
 5285SOL    HW216536   2.066   3.174   3.809
 5286SOL     OW16537   1.949   3.093   2.527
 5286SOL    HW116538   1.958   3.047   2.611
 5286SOL    HW216539   2.015   3.053   2.471
 5287SOL     OW16540   2.546   3.268   3.493
 5287SOL    HW116541   2.467   3.225   3.525
 5287SOL    HW216542   2.543   3.356   3.530
 5288SOL     OW16543   3.673   2.039   3.099
 5288SOL    HW116544   3.665   1.943   3.101
 5288SOL    HW216545   3.689   2.060   3.007
 5289SOL     OW16546   2.292   2.290   2.383
 5289SOL    HW116547   2.327   2.233   2.315
 5289SOL    HW216548   2.250   2.230   2.445
 5290SOL     OW16549   3.556   3.351   2.958
 5290SOL    HW116550   3.478   3.328   2.907
 5290SOL    HW216551   3.567   3.280   3.021
 5291SOL     OW16552   2.195   2.417   3.151
 5291SOL    HW116553   2.239   2.355   3.209
 5291SOL    HW216554   2.210   2.382   3.063
 5292SOL     OW16555   2.691   3.440   2.538
 5292SOL    HW116556   2.671   3.494   2.462
 5292SOL    HW216557   2.618   3.380   2.545
 5293SOL     OW16558   3.292   2.091   2.978
 5293SOL    HW116559   3.312   2.007   3.020
 5293SOL    HW216560   3.241   2.139   3.044
 5294SOL     OW16561   2.870   1.878   3.000
 5294SOL    HW116562   2.817   1.811   2.957
 5294SOL    HW216563   2.958   1.840   3.002
 5295SOL     OW16564   2.635   3.195   2.182
 5295SOL    HW116565   2.606   3.104   2.189
 5295SOL    HW216566   2.718   3.197   2.231
 5296SOL     OW16567   2.482   3.415   3.147
 5296SOL    HW116568   2.482   3.496   3.197
 5296SOL    HW216569   2.570   3.409   3.110
 5297SOL     OW16570   3.218   1.914   2.030
 5297SOL    HW116571   3.250   1.845   1.974
 5297SOL    HW216572   3.129   1.888   2.054
 5298SOL     OW16573   3.156   2.325   2.541
 5298SOL    HW116574   3.105   2.405   2.546
 5298SOL    HW216575   3.153   2.287   2.629
 5299SOL     OW16576   3.443   2.059   2.741
 5299SOL    HW116577   3.388   2.084   2.815
 5299SOL    HW216578   3.444   2.136   2.685
 5300SOL     OW16579   1.906   2.930   2.169
 5300SOL    HW116580   1.999   2.922   2.150
 5300SOL    HW216581   1.877   2.842   2.192
 5301SOL     OW16582   2.749   3.523   2.204
 5301SOL    HW116583   2.678   3.504   2.143
 5301SOL    HW216584   2.718   3.597   2.255
 5302SOL     OW16585   2.093   2.494   3.847
 5302SOL    HW116586   2.008   2.464   3.881
 5302SOL    HW216587   2.092   2.468   3.755
 5303SOL     OW16588   1.866   2.293   4.348
 5303SOL    HW116589   1.777   2.288   4.382
 5303SOL    HW216590   1.873   2.218   4.289
 5304SOL     OW16591   2.430   3.156   4.904
 5304SOL    HW116592   2.343   3.162   4.863
 5304SOL    HW216593   2.446   3.244   4.937
 5305SOL     OW16594   3.427   3.375   4.433
 5305SOL    HW116595   3.385   3.351   4.516
 5305SOL    HW216596   3.355   3.378   4.370
 5306SOL     OW16597   2.993   2.561   4.421
 5306SOL    HW116598   3.042   2.642   4.408
 5306SOL    HW216599   2.946   2.574   4.504
 5307SOL     OW16600   3.630   2.467   3.952
 5307SOL    HW116601   3.609   2.459   3.859
 5307SOL    HW216602   3.596   2.387   3.992
 5308SOL     OW16603   2.610   3.001   4.769
 5308SOL    HW116604   2.544   3.038   4.827
 5308SOL    HW216605   2.649   3.077   4.725
 5309SOL     OW16606   2.736   2.630   5.548
 5309SOL    HW116607   2.719   2.701   5.609
 5309SOL    HW216608   2.758   2.674   5.466
 5310SOL     OW16609   2.547   2.859   4.369
 5310SOL    HW116610   2.613   2.851   4.438
 5310SOL    HW216611   2.479   2.914   4.407
 5311SOL     OW16612   2.577   3.015   5.538
 5311SOL    HW116613   2.624   3.092   5.568
 5311SOL    HW216614   2.496   3.049   5.500
 5312SOL     OW16615   2.193   3.282   4.791
 5312SOL    HW116616   2.119   3.244   4.743
 5312SOL    HW216617   2.239   3.334   4.725
 5313SOL     OW16618   3.320   3.364   5.083
 5313SOL    HW116619   3.375   3.442   5.093
 5313SOL    HW216620   3.253   3.372   5.151
 5314SOL     OW16621   2.286   2.229   5.191
 5314SOL    HW116622   2.374   2.196   5.210
 5314SOL    HW216623   2.229   2.153   5.204
 5315SOL     OW16624   3.470   2.306   4.469
 5315SOL    HW116625   3.399   2.327   4.409
 5315SOL    HW216626   3.479   2.384   4.524
 5316SOL     OW16627   2.084   3.578   4.203
 5316SOL    HW116628   2.113   3.637   4.272
 5316SOL    HW216629   2.156   3.575   4.140
 5317SOL     OW16630   2.999   3.204   5.418
 5317SOL    HW116631   3.041   3.197   5.504
 5317SOL    HW216632   2.947   3.124   5.410
 5318SOL     OW16633   2.092   3.304   4.260
 5318SOL    HW116634   2.074   3.398   4.264
 5318SOL    HW216635   2.034   3.265   4.325
 5319SOL     OW16636   2.126   2.955   4.616
 5319SOL    HW116637   2.121   2.867   4.655
 5319SOL    HW216638   2.068   3.008   4.669
 5320SOL     OW16639   2.468   3.647   5.152
 5320SOL    HW116640   2.387   3.633   5.200
 5320SOL    HW216641   2.495   3.736   5.176
 5321SOL     OW16642   2.443   2.846   3.861
 5321SOL    HW116643   2.491   2.892   3.792
 5321SOL    HW216644   2.481   2.878   3.943
 5322SOL     OW16645   3.457   1.988   5.189
 5322SOL    HW116646   3.474   2.070   5.142
 5322SOL    HW216647   3.440   2.015   5.279
 5323SOL     OW16648   1.988   2.529   4.284
 5323SOL    HW116649   1.951   2.443   4.304
 5323SOL    HW216650   1.977   2.579   4.365
 5324SOL     OW16651   3.700   3.612   4.066
 5324SOL    HW116652   3.772   3.587   4.124
 5324SOL    HW216653   3.718   3.703   4.043
 5325SOL     OW16654   1.893   3.451   3.845
 5325SOL    HW116655   1.878   3.359   3.866
 5325SOL    HW216656   1.872   3.498   3.926
 5326SOL     OW16657   3.551   2.782   4.372
 5326SOL    HW116658   3.634   2.738   4.353
 5326SOL    HW216659   3.531   2.831   4.292
 5327SOL     OW16660   3.504   2.965   4.156
 5327SOL    HW116661   3.589   2.969   4.112
 5327SOL    HW216662   3.510   3.029   4.227
 5328SOL     OW16663   1.984   2.611   5.303
 5328SOL    HW116664   2.075   2.641   5.311
 5328SOL    HW216665   1.932   2.691   5.311
 5329SOL     OW16666   2.478   3.253   4.458
 5329SOL    HW116667   2.433   3.169   4.468
 5329SOL    HW216668   2.461   3.279   4.368
 5330SOL     OW16669   3.148   3.098   5.146
 5330SOL    HW116670   3.180   3.031   5.085
 5330SOL    HW216671   3.208   3.093   5.221
 5331SOL     OW16672   2.705   1.865   4.242
 5331SOL    HW116673   2.746   1.947   4.217
 5331SOL    HW216674   2.611   1.881   4.236
 5332SOL     OW16675   2.051   2.826   5.000
 5332SOL    HW116676   2.136   2.785   4.985
 5332SOL    HW216677   1.989   2.774   4.949
 5333SOL     OW16678   3.389   2.859   3.925
 5333SOL    HW116679   3.320   2.802   3.958
 5333SOL    HW216680   3.432   2.894   4.003
 5334SOL     OW16681   3.083   3.667   5.352
 5334SOL    HW116682   3.057   3.728   5.283
 5334SOL    HW216683   3.083   3.581   5.310
 5335SOL     OW16684   3.327   3.282   4.672
 5335SOL    HW116685   3.261   3.297   4.739
 5335SOL    HW216686   3.316   3.190   4.647
 5336SOL     OW16687   3.508   3.608   4.304
 5336SOL    HW116688   3.500   3.572   4.216
 5336SOL    HW216689   3.492   3.532   4.361
 5337SOL     OW16690   2.459   2.585   3.995
 5337SOL    HW116691   2.461   2.667   3.947
 5337SOL    HW216692   2.393   2.598   4.063
 5338SOL     OW16693   3.139   2.223   4.658
 5338SOL    HW116694   3.051   2.188   4.666
 5338SOL    HW216695   3.192   2.169   4.716
 5339SOL     OW16696   3.435   3.539   4.032
 5339SOL    HW116697   3.528   3.562   4.028
 5339SOL    HW216698   3.410   3.520   3.942
 5340SOL     OW16699   2.654   2.481   5.169
 5340SOL    HW116700   2.632   2.456   5.259
 5340SOL    HW216701   2.618   2.411   5.115
 5341SOL     OW16702   3.256   2.336   5.401
 5341SOL    HW116703   3.260   2.381   5.485
 5341SOL    HW216704   3.313   2.260   5.412
 5342SOL     OW16705   2.814   2.748   5.308
 5342SOL    HW116706   2.869   2.679   5.271
 5342SOL    HW216707   2.765   2.783   5.234
 5343SOL     OW16708   2.856   2.274   4.959
 5343SOL    HW116709   2.768   2.292   4.994
 5343SOL    HW216710   2.841   2.229   4.876
 5344SOL     OW16711   2.915   2.560   4.149
 5344SOL    HW116712   2.933   2.554   4.243
 5344SOL    HW216713   2.832   2.515   4.137
 5345SOL     OW16714   1.951   2.687   4.503
 5345SOL    HW116715   2.031   2.681   4.554
 5345SOL    HW216716   1.906   2.764   4.538
 5346SOL     OW16717   1.981   3.714   5.301
 5346SOL    HW116718   1.986   3.692   5.395
 5346SOL    HW216719   1.889   3.701   5.279
 5347SOL     OW16720   2.760   2.214   3.920
 5347SOL    HW116721   2.801   2.275   3.859
 5347SOL    HW216722   2.765   2.129   3.876
 5348SOL     OW16723   3.572   2.435   5.553
 5348SOL    HW116724   3.534   2.508   5.505
 5348SOL    HW216725   3.596   2.371   5.486
 5349SOL     OW16726   3.239   3.003   4.264
 5349SOL    HW116727   3.319   2.991   4.213
 5349SOL    HW216728   3.187   3.066   4.213
 5350SOL     OW16729   2.410   2.050   4.622
 5350SOL    HW116730   2.410   2.074   4.714
 5350SOL    HW216731   2.429   2.132   4.576
 5351SOL     OW16732   2.864   3.307   4.194
 5351SOL    HW116733   2.829   3.381   4.145
 5351SOL    HW216734   2.842   3.326   4.285
 5352SOL     OW16735   2.213   3.674   4.562
 5352SOL    HW116736   2.263   3.595   4.581
 5352SOL    HW216737   2.272   3.746   4.586
 5353SOL     OW16738   3.668   2.923   4.592
 5353SOL    HW116739   3.616   2.895   4.517
 5353SOL    HW216740   3.606   2.926   4.665
 5354SOL     OW16741   3.089   3.400   5.236
 5354SOL    HW116742   3.076   3.327   5.297
 5354SOL    HW216743   3.021   3.386   5.170
 5355SOL     OW16744   2.177   2.820   3.977
 5355SOL    HW116745   2.258   2.838   3.930
 5355SOL    HW216746   2.146   2.737   3.940
 5356SOL     OW16747   3.343   2.610   4.448
 5356SOL    HW116748   3.337   2.568   4.534
 5356SOL    HW216749   3.421   2.665   4.452
 5357SOL     OW16750   2.331   3.129   5.461
 5357SOL    HW116751   2.305   3.134   5.369
 5357SOL    HW216752   2.249   3.125   5.510
 5358SOL     OW16753   2.977   3.644   3.945
 5358SOL    HW116754   2.911   3.599   3.998
 5358SOL    HW216755   3.007   3.577   3.883
 5359SOL     OW16756   3.486   3.248   3.813
 5359SOL    HW116757   3.443   3.331   3.795
 5359SOL    HW216758   3.419   3.182   3.793
 5360SOL     OW16759   2.328   3.598   4.049
 5360SOL    HW116760   2.367   3.662   4.109
 5360SOL    HW216761   2.400   3.572   3.992
 5361SOL     OW16762   3.263   1.969   4.162
 5361SOL    HW116763   3.256   1.944   4.070
 5361SOL    HW216764   3.357   1.975   4.179
 5362SOL     OW16765   2.123   3.653   4.945
 5362SOL    HW116766   2.169   3.582   4.989
 5362SOL    HW216767   2.106   3.619   4.857
 5363SOL     OW16768   2.800   3.564   4.622
 5363SOL    HW116769   2.877   3.512   4.645
 5363SOL    HW216770   2.757   3.514   4.553
 5364SOL     OW16771   2.259   2.556   4.198
 5364SOL    HW116772   2.275   2.462   4.209
 5364SOL    HW216773   2.166   2.566   4.215
 5365SOL     OW16774   3.393   2.086   5.449
 5365SOL    HW116775   3.403   2.106   5.542
 5365SOL    HW216776   3.324   2.020   5.446
 5366SOL     OW16777   2.514   1.983   3.828
 5366SOL    HW116778   2.571   1.913   3.859
 5366SOL    HW216779   2.464   1.943   3.757
 5367SOL     OW16780   2.621   2.133   5.477
 5367SOL    HW116781   2.701   2.081   5.472
 5367SOL    HW216782   2.609   2.149   5.570
 5368SOL     OW16783   2.738   3.383   4.919
 5368SOL    HW116784   2.721   3.346   4.832
 5368SOL    HW216785   2.808   3.328   4.955
 5369SOL     OW16786   3.202   2.451   5.157
 5369SOL    HW116787   3.233   2.420   5.242
 5369SOL    HW216788   3.238   2.539   5.149
 5370SOL     OW16789   2.680   3.253   4.668
 5370SOL    HW116790   2.764   3.241   4.625
 5370SOL    HW216791   2.616   3.258   4.597
 5371SOL     OW16792   2.790   2.370   4.625
 5371SOL    HW116793   2.765   2.362   4.533
 5371SOL    HW216794   2.822   2.283   4.649
 5372SOL     OW16795   2.449   1.924   4.195
 5372SOL    HW116796   2.374   1.913   4.254
 5372SOL    HW216797   2.430   2.005   4.147
 5373SOL     OW16798   3.290   3.062   3.764
 5373SOL    HW116799   3.320   2.987   3.814
 5373SOL    HW216800   3.204   3.083   3.801
 5374SOL     OW16801   2.809   2.114   4.180
 5374SOL    HW116802   2.782   2.152   4.096
 5374SOL    HW216803   2.903   2.130   4.185
 5375SOL     OW16804   2.944   2.546   5.182
 5375SOL    HW116805   2.878   2.477   5.188
 5375SOL    HW216806   3.027   2.499   5.177
 5376SOL     OW16807   3.082   3.433   4.518
 5376SOL    HW116808   3.097   3.500   4.451
 5376SOL    HW216809   3.152   3.446   4.582
 5377SOL     OW16810   2.334   3.015   4.452
 5377SOL    HW116811   2.266   2.995   4.517
 5377SOL    HW216812   2.291   3.000   4.368
 5378SOL     OW16813   3.126   3.655   4.333
 5378SOL    HW116814   3.174   3.720   4.281
 5378SOL    HW216815   3.053   3.704   4.371
 5379SOL     OW16816   2.885   2.399   3.749
 5379SOL    HW116817   2.841   2.482   3.730
 5379SOL    HW216818   2.950   2.421   3.816
 5380SOL     OW16819   1.940   2.424   5.109
 5380SOL    HW116820   2.034   2.420   5.089
 5380SOL    HW216821   1.934   2.491   5.178
 5381SOL     OW16822   2.415   2.081   4.898
 5381SOL    HW116823   2.468   2.007   4.925
 5381SOL    HW216824   2.333   2.071   4.947
 5382SOL     OW16825   2.725   2.318   4.363
 5382SOL    HW116826   2.685   2.375   4.297
 5382SOL    HW216827   2.751   2.240   4.315
 5383SOL     OW16828   2.876   1.916   4.474
 5383SOL    HW116829   2.820   1.905   4.396
 5383SOL    HW216830   2.854   1.841   4.529
 5384SOL     OW16831   3.302   3.023   4.581
 5384SOL    HW116832   3.231   2.959   4.581
 5384SOL    HW216833   3.327   3.031   4.489
 5385SOL     OW16834   3.327   2.471   4.695
 5385SOL    HW116835   3.273   2.392   4.697
 5385SOL    HW216836   3.385   2.463   4.770
 5386SOL     OW16837   3.723   2.678   4.099
 5386SOL    HW116838   3.767   2.622   4.163
 5386SOL    HW216839   3.687   2.616   4.035
 5387SOL     OW16840   2.352   3.281   3.876
 5387SOL    HW116841   2.276   3.254   3.928
 5387SOL    HW216842   2.342   3.235   3.793
 5388SOL     OW16843   3.530   3.128   4.366
 5388SOL    HW116844   3.625   3.129   4.376
 5388SOL    HW216845   3.502   3.217   4.388
 5389SOL     OW16846   3.256   2.434   3.795
 5389SOL    HW116847   3.194   2.414   3.865
 5389SOL    HW216848   3.340   2.403   3.829
 5390SOL     OW16849   2.385   2.130   4.030
 5390SOL    HW116850   2.431   2.082   3.962
 5390SOL    HW216851   2.360   2.213   3.990
 5391SOL     OW16852   3.612   3.096   5.287
 5391SOL    HW116853   3.700   3.061   5.270
 5391SOL    HW216854   3.628   3.186   5.316
 5392SOL     OW16855   2.918   3.215   5.056
 5392SOL    HW116856   2.843   3.183   5.107
 5392SOL    HW216857   2.993   3.173   5.097
 5393SOL     OW16858   3.469   3.492   5.382
 5393SOL    HW116859   3.459   3.525   5.293
 5393SOL    HW216860   3.549   3.439   5.379
 5394SOL     OW16861   2.995   3.070   4.826
 5394SOL    HW116862   2.935   3.107   4.891
 5394SOL    HW216863   2.964   3.104   4.743
 5395SOL     OW16864   3.489   2.957   4.798
 5395SOL    HW116865   3.480   3.019   4.871
 5395SOL    HW216866   3.413   2.973   4.743
 5396SOL     OW16867   2.779   1.957   5.115
 5396SOL    HW116868   2.804   1.938   5.025
 5396SOL    HW216869   2.857   1.996   5.155
 5397SOL     OW16870   2.846   2.977   5.447
 5397SOL    HW116871   2.755   2.993   5.470
 5397SOL    HW216872   2.844   2.898   5.392
 5398SOL     OW16873   2.572   2.924   4.095
 5398SOL    HW116874   2.557   2.904   4.187
 5398SOL    HW216875   2.647   2.870   4.070
 5399SOL     OW16876   2.281   2.677   4.976
 5399SOL    HW116877   2.349   2.688   5.042
 5399SOL    HW216878   2.248   2.588   4.991
 5400SOL     OW16879   3.126   2.238   5.003
 5400SOL    HW116880   3.159   2.315   5.049
 5400SOL    HW216881   3.036   2.259   4.981
 5401SOL     OW16882   1.935   3.435   5.079
 5401SOL    HW116883   1.908   3.510   5.025
 5401SOL    HW216884   2.031   3.436   5.073
 5402SOL     OW16885   2.204   2.977   4.213
 5402SOL    HW116886   2.208   3.050   4.151
 5402SOL    HW216887   2.201   2.899   4.157
 5403SOL     OW16888   2.404   2.395   4.586
 5403SOL    HW116889   2.418   2.453   4.511
 5403SOL    HW216890   2.472   2.421   4.649
 5404SOL     OW16891   3.109   3.212   4.114
 5404SOL    HW116892   3.165   3.282   4.145
 5404SOL    HW216893   3.022   3.233   4.147
 5405SOL     OW16894   3.148   3.322   4.872
 5405SOL    HW116895   3.204   3.326   4.950
 5405SOL    HW216896   3.093   3.245   4.886
 5406SOL     OW16897   3.439   2.481   4.207
 5406SOL    HW116898   3.391   2.532   4.273
 5406SOL    HW216899   3.481   2.546   4.152
 5407SOL     OW16900   2.207   3.392   5.034
 5407SOL    HW116901   2.196   3.347   4.951
 5407SOL    HW216902   2.302   3.403   5.043
 5408SOL     OW16903   2.279   2.609   5.329
 5408SOL    HW116904   2.342   2.650   5.269
 5408SOL    HW216905   2.323   2.530   5.359
 5409SOL     OW16906   3.468   2.641   5.409
 5409SOL    HW116907   3.382   2.684   5.403
 5409SOL    HW216908   3.520   2.684   5.341
 5410SOL     OW16909   2.857   1.989   5.469
 5410SOL    HW116910   2.916   2.064   5.454
 5410SOL    HW216911   2.910   1.912   5.447
 5411SOL     OW16912   2.377   1.889   5.466
 5411SOL    HW116913   2.321   1.838   5.407
 5411SOL    HW216914   2.321   1.961   5.494
 5412SOL     OW16915   2.447   2.735   4.757
 5412SOL    HW116916   2.480   2.825   4.757
 5412SOL    HW216917   2.390   2.730   4.834
 5413SOL     OW16918   3.213   2.721   4.747
 5413SOL    HW116919   3.128   2.707   4.706
 5413SOL    HW216920   3.258   2.637   4.740
 5414SOL     OW16921   3.062   2.390   3.987
 5414SOL    HW116922   3.072   2.312   4.041
 5414SOL    HW216923   3.020   2.454   4.043
 5415SOL     OW16924   1.907   3.173   4.999
 5415SOL    HW116925   1.940   3.118   5.070
 5415SOL    HW216926   1.914   3.263   5.033
 5416SOL     OW16927   2.580   2.488   4.776
 5416SOL    HW116928   2.658   2.475   4.723
 5416SOL    HW216929   2.555   2.579   4.760
 5417SOL     OW16930   3.592   2.822   5.587
 5417SOL    HW116931   3.553   2.755   5.531
 5417SOL    HW216932   3.528   2.836   5.657
 5418SOL     OW16933   2.224   1.896   4.328
 5418SOL    HW116934   2.149   1.951   4.308
 5418SOL    HW216935   2.211   1.871   4.420
 5419SOL     OW16936   3.483   2.240   4.086
 5419SOL    HW116937   3.509   2.174   4.151
 5419SOL    HW216938   3.459   2.316   4.139
 5420SOL     OW16939   2.890   2.620   4.683
 5420SOL    HW116940   2.883   2.637   4.777
 5420SOL    HW216941   2.864   2.528   4.673
 5421SOL     OW16942   2.848   3.430   5.446
 5421SOL    HW116943   2.828   3.471   5.361
 5421SOL    HW216944   2.889   3.347   5.423
 5422SOL     OW16945   3.704   3.359   5.321
 5422SOL    HW116946   3.728   3.389   5.234
 5422SOL    HW216947   3.784   3.367   5.373
 5423SOL     OW16948   2.215   2.783   5.532
 5423SOL    HW116949   2.297   2.801   5.578
 5423SOL    HW216950   2.238   2.718   5.466
 5424SOL     OW16951   3.390   2.134   3.851
 5424SOL    HW116952   3.326   2.069   3.878
 5424SOL    HW216953   3.424   2.170   3.933
 5425SOL     OW16954   3.150   2.686   3.753
 5425SOL    HW116955   3.193   2.601   3.757
 5425SOL    HW216956   3.183   2.726   3.672
 5426SOL     OW16957   2.929   3.200   4.580
 5426SOL    HW116958   2.934   3.127   4.517
 5426SOL    HW216959   2.988   3.266   4.544
 5427SOL     OW16960   2.172   2.673   4.670
 5427SOL    HW116961   2.264   2.694   4.661
 5427SOL    HW216962   2.171   2.585   4.708
 5428SOL     OW16963   2.182   2.362   4.735
 5428SOL    HW116964   2.141   2.290   4.688
 5428SOL    HW216965   2.263   2.380   4.687
 5429SOL     OW16966   2.997   2.235   5.407
 5429SOL    HW116967   2.948   2.289   5.469
 5429SOL    HW216968   3.084   2.275   5.403
 5430SOL     OW16969   3.022   2.061   5.194
 5430SOL    HW116970   3.010   2.123   5.266
 5430SOL    HW216971   3.064   2.112   5.125
 5431SOL     OW16972   1.868   3.180   3.919
 5431SOL    HW116973   1.781   3.195   3.882
 5431SOL    HW216974   1.864   3.091   3.953
 5432SOL     OW16975   1.960   3.638   4.663
 5432SOL    HW116976   1.928   3.560   4.617
 5432SOL    HW216977   2.044   3.658   4.622
 5433SOL     OW16978   2.354   3.438   4.629
 5433SOL    HW116979   2.422   3.501   4.653
 5433SOL    HW216980   2.399   3.376   4.572
 5434SOL     OW16981   2.837   2.650   4.949
 5434SOL    HW116982   2.899   2.630   5.020
 5434SOL    HW216983   2.754   2.613   4.978
 5435SOL     OW16984   1.900   2.400   4.841
 5435SOL    HW116985   1.985   2.403   4.796
 5435SOL    HW216986   1.922   2.413   4.933
 5436SOL     OW16987   2.061   2.394   5.447
 5436SOL    HW116988   2.125   2.359   5.385
 5436SOL    HW216989   2.018   2.465   5.399
 5437SOL     OW16990   3.242   2.797   5.382
 5437SOL    HW116991   3.263   2.891   5.378
 5437SOL    HW216992   3.237   2.770   5.290
 5438SOL     OW16993   2.679   2.432   4.091
 5438SOL    HW116994   2.684   2.358   4.030
 5438SOL    HW216995   2.605   2.484   4.059
 5439SOL     OW16996   3.501   2.464   4.906
 5439SOL    HW116997   3.490   2.403   4.979
 5439SOL    HW216998   3.588   2.443   4.871
 5440SOL     OW16999   2.103   3.410   5.447
 5440SOL    HW117000   2.080   3.477   5.512
 5440SOL    HW217001   2.108   3.329   5.497
 5441SOL     OW17002   2.567   2.308   4.980
 5441SOL    HW117003   2.512   2.235   4.952
 5441SOL    HW217004   2.561   2.371   4.908
 5442SOL     OW17005   2.787   3.533   5.194
 5442SOL    HW117006   2.762   3.494   5.111
 5442SOL    HW217007   2.779   3.627   5.180
 5443SOL     OW17008   2.324   2.361   3.912
 5443SOL    HW117009   2.382   2.434   3.935
 5443SOL    HW217010   2.240   2.403   3.894
 5444SOL     OW17011   2.006   3.005   5.198
 5444SOL    HW117012   2.007   2.956   5.280
 5444SOL    HW217013   2.023   2.939   5.130
 5445SOL     OW17014   3.183   2.906   4.945
 5445SOL    HW117015   3.206   2.843   4.876
 5445SOL    HW217016   3.116   2.962   4.905
 5446SOL     OW17017   3.175   2.718   4.029
 5446SOL    HW117018   3.101   2.687   4.080
 5446SOL    HW217019   3.149   2.704   3.938
 5447SOL     OW17020   3.641   3.601   4.881
 5447SOL    HW117021   3.699   3.627   4.809
 5447SOL    HW217022   3.612   3.512   4.857
 5448SOL     OW17023   3.106   3.595   4.832
 5448SOL    HW117024   3.189   3.617   4.790
 5448SOL    HW217025   3.113   3.501   4.852
 5449SOL     OW17026   1.948   3.128   4.735
 5449SOL    HW117027   1.931   3.142   4.828
 5449SOL    HW217028   1.875   3.073   4.706
 5450SOL     OW17029   2.541   3.528   5.459
 5450SOL    HW117030   2.484   3.604   5.463
 5450SOL    HW217031   2.602   3.547   5.388
 5451SOL     OW17032   3.570   2.014   4.235
 5451SOL    HW117033   3.638   2.002   4.169
 5451SOL    HW217034   3.560   1.928   4.275
 5452SOL     OW17035   3.252   3.430   4.213
 5452SOL    HW117036   3.311   3.464   4.145
 5452SOL    HW217037   3.204   3.507   4.243
 5453SOL     OW17038   1.998   3.652   5.562
 5453SOL    HW117039   1.946   3.588   5.611
 5453SOL    HW217040   2.046   3.700   5.629
 5454SOL     OW17041   3.139   2.789   4.395
 5454SOL    HW117042   3.213   2.729   4.405
 5454SOL    HW217043   3.173   2.861   4.342
 5455SOL     OW17044   2.670   3.137   5.150
 5455SOL    HW117045   2.642   3.178   5.232
 5455SOL    HW217046   2.600   3.159   5.088
 5456SOL     OW17047   2.536   3.481   3.882
 5456SOL    HW117048   2.546   3.499   3.789
 5456SOL    HW217049   2.477   3.405   3.886
 5457SOL     OW17050   3.480   3.589   5.114
 5457SOL    HW117051   3.536   3.592   5.037
 5457SOL    HW217052   3.467   3.681   5.138
 5458SOL     OW17053   3.700   2.043   4.690
 5458SOL    HW117054   3.731   1.956   4.666
 5458SOL    HW217055   3.614   2.050   4.650
 5459SOL     OW17056   3.070   3.465   3.760
 5459SOL    HW117057   3.059   3.373   3.785
 5459SOL    HW217058   3.008   3.477   3.688
 5460SOL     OW17059   2.685   2.868   5.098
 5460SOL    HW117060   2.729   2.863   5.013
 5460SOL    HW217061   2.683   2.962   5.117
 5461SOL     OW17062   2.779   2.773   4.015
 5461SOL    HW117063   2.839   2.805   3.948
 5461SOL    HW217064   2.828   2.705   4.060
 5462SOL     OW17065   3.349   3.496   3.767
 5462SOL    HW117066   3.255   3.482   3.750
 5462SOL    HW217067   3.388   3.500   3.680
 5463SOL     OW17068   2.231   3.167   5.215
 5463SOL    HW117069   2.217   3.243   5.160
 5463SOL    HW217070   2.154   3.112   5.201
 5464SOL     OW17071   3.461   3.142   5.001
 5464SOL    HW117072   3.530   3.132   5.067
 5464SOL    HW217073   3.405   3.211   5.035
 5465SOL     OW17074   2.920   2.971   4.433
 5465SOL    HW117075   2.848   2.921   4.471
 5465SOL    HW217076   2.984   2.905   4.405
 5466SOL     OW17077   2.884   2.103   4.689
 5466SOL    HW117078   2.880   2.056   4.606
 5466SOL    HW217079   2.880   2.034   4.756
 5467SOL     OW17080   2.468   3.353   4.203
 5467SOL    HW117081   2.514   3.302   4.137
 5467SOL    HW217082   2.397   3.395   4.155
 5468SOL     OW17083   3.587   2.251   5.102
 5468SOL    HW117084   3.659   2.314   5.099
 5468SOL    HW217085   3.616   2.179   5.046
 5469SOL     OW17086   2.123   3.205   4.015
 5469SOL    HW117087   2.030   3.201   3.991
 5469SOL    HW217088   2.124   3.244   4.102
 5470SOL     OW17089   1.975   2.893   5.447
 5470SOL    HW117090   1.899   2.865   5.498
 5470SOL    HW217091   2.050   2.851   5.490
 5471SOL     OW17092   2.535   2.059   5.222
 5471SOL    HW117093   2.620   2.038   5.183
 5471SOL    HW217094   2.555   2.084   5.312
 5472SOL     OW17095   1.897   2.285   3.786
 5472SOL    HW117096   1.862   2.200   3.760
 5472SOL    HW217097   1.946   2.315   3.709
 5473SOL     OW17098   3.287   2.720   5.123
 5473SOL    HW117099   3.237   2.781   5.069
 5473SOL    HW217100   3.375   2.722   5.085
 5474SOL     OW17101   3.039   3.198   3.842
 5474SOL    HW117102   2.948   3.168   3.843
 5474SOL    HW217103   3.066   3.198   3.933
 5475SOL     OW17104   2.481   2.692   5.158
 5475SOL    HW117105   2.538   2.768   5.144
 5475SOL    HW217106   2.542   2.619   5.165
 5476SOL     OW17107   3.348   3.644   4.707
 5476SOL    HW117108   3.371   3.700   4.633
 5476SOL    HW217109   3.431   3.611   4.740
 5477SOL     OW17110   2.581   2.422   5.422
 5477SOL    HW117111   2.620   2.481   5.486
 5477SOL    HW217112   2.594   2.334   5.458
 5478SOL     OW17113   3.335   3.058   5.353
 5478SOL    HW117114   3.325   3.073   5.447
 5478SOL    HW217115   3.428   3.074   5.337
 5479SOL     OW17116   2.235   3.604   5.291
 5479SOL    HW117117   2.151   3.646   5.274
 5479SOL    HW217118   2.212   3.520   5.331
 5480SOL     OW17119   3.526   2.742   4.983
 5480SOL    HW117120   3.524   2.656   4.940
 5480SOL    HW217121   3.519   2.805   4.911
 5481SOL     OW17122   3.080   2.182   4.180
 5481SOL    HW117123   3.142   2.109   4.174
 5481SOL    HW217124   3.109   2.231   4.257
 5482SOL     OW17125   2.446   2.596   4.399
 5482SOL    HW117126   2.488   2.681   4.384
 5482SOL    HW217127   2.383   2.588   4.328
 5483SOL     OW17128   3.619   2.228   5.374
 5483SOL    HW117129   3.603   2.241   5.281
 5483SOL    HW217130   3.548   2.170   5.403
 5484SOL     OW17131   3.620   2.789   5.237
 5484SOL    HW117132   3.609   2.883   5.255
 5484SOL    HW217133   3.594   2.780   5.145
 5485SOL     OW17134   2.726   3.229   3.765
 5485SOL    HW117135   2.685   3.256   3.847
 5485SOL    HW217136   2.740   3.310   3.717
 5486SOL     OW17137   2.523   3.650   4.662
 5486SOL    HW117138   2.503   3.741   4.641
 5486SOL    HW217139   2.618   3.645   4.657
 5487SOL     OW17140   2.731   2.832   4.578
 5487SOL    HW117141   2.781   2.759   4.616
 5487SOL    HW217142   2.694   2.877   4.654
 5488SOL     OW17143   2.940   2.851   3.813
 5488SOL    HW117144   2.919   2.902   3.735
 5488SOL    HW217145   3.014   2.796   3.786
 5489SOL     OW17146   3.711   3.416   4.564
 5489SOL    HW117147   3.631   3.397   4.515
 5489SOL    HW217148   3.715   3.348   4.631
 5490SOL     OW17149   2.088   3.161   5.578
 5490SOL    HW117150   2.025   3.098   5.544
 5490SOL    HW217151   2.063   3.174   5.669
 5491SOL     OW17152   1.949   3.093   4.389
 5491SOL    HW117153   1.958   3.046   4.473
 5491SOL    HW217154   2.015   3.053   4.333
 5492SOL     OW17155   2.546   3.268   5.354
 5492SOL    HW117156   2.466   3.226   5.386
 5492SOL    HW217157   2.544   3.356   5.392
 5493SOL     OW17158   3.674   2.039   4.962
 5493SOL    HW117159   3.665   1.944   4.964
 5493SOL    HW217160   3.689   2.060   4.869
 5494SOL     OW17161   2.292   2.291   4.244
 5494SOL    HW117162   2.327   2.233   4.177
 5494SOL    HW217163   2.252   2.232   4.309
 5495SOL     OW17164   3.556   3.351   4.820
 5495SOL    HW117165   3.478   3.328   4.769
 5495SOL    HW217166   3.567   3.280   4.883
 5496SOL     OW17167   2.195   2.417   5.013
 5496SOL    HW117168   2.239   2.355   5.071
 5496SOL    HW217169   2.210   2.382   4.925
 5497SOL     OW17170   2.691   3.441   4.400
 5497SOL    HW117171   2.671   3.494   4.324
 5497SOL    HW217172   2.618   3.380   4.407
 5498SOL     OW17173   3.292   2.091   4.841
 5498SOL    HW117174   3.311   2.007   4.883
 5498SOL    HW217175   3.241   2.139   4.906
 5499SOL     OW17176   2.871   1.879   4.861
 5499SOL    HW117177   2.817   1.812   4.820
 5499SOL    HW217178   2.959   1.841   4.864
 5500SOL     OW17179   2.635   3.195   4.044
 5500SOL    HW117180   2.606   3.104   4.051
 5500SOL    HW217181   2.718   3.197   4.093
 5501SOL     OW17182   2.482   3.415   5.009
 5501SOL    HW117183   2.482   3.496   5.059
 5501SOL    HW217184   2.570   3.409   4.972
 5502SOL     OW17185   3.218   1.915   3.892
 5502SOL    HW117186   3.250   1.845   3.836
 5502SOL    HW217187   3.129   1.888   3.916
 5503SOL     OW17188   3.157   2.325   4.403
 5503SOL    HW117189   3.105   2.405   4.408
 5503SOL    HW217190   3.153   2.287   4.491
 5504SOL     OW17191   3.443   2.059   4.603
 5504SOL    HW117192   3.388   2.084   4.677
 5504SOL    HW217193   3.444   2.136   4.547
 5505SOL     OW17194   1.906   2.930   4.031
 5505SOL    HW117195   1.999   2.921   4.012
 5505SOL    HW217196   1.877   2.842   4.054
 5506SOL     OW17197   2.749   3.523   4.066
 5506SOL    HW117198   2.678   3.504   4.005
 5506SOL    HW217199   2.718   3.597   4.117
 5507SOL     OW17200   2.089   2.494   5.702
 5507SOL    HW117201   2.010   2.452   5.736
 5507SOL    HW217202   2.090   2.471   5.609
 5508SOL     OW17203   1.881   2.275   6.212
 5508SOL    HW117204   1.786   2.281   6.226
 5508SOL    HW217205   1.889   2.234   6.126
 5509SOL     OW17206   2.441   3.153   6.761
 5509SOL    HW117207   2.354   3.154   6.719
 5509SOL    HW217208   2.451   3.242   6.796
 5510SOL     OW17209   3.427   3.374   6.295
 5510SOL    HW117210   3.385   3.351   6.378
 5510SOL    HW217211   3.355   3.378   6.232
 5511SOL     OW17212   2.988   2.562   6.287
 5511SOL    HW117213   3.040   2.642   6.272
 5511SOL    HW217214   2.947   2.576   6.372
 5512SOL     OW17215   3.627   2.467   5.816
 5512SOL    HW117216   3.608   2.460   5.722
 5512SOL    HW217217   3.595   2.385   5.853
 5513SOL     OW17218   2.675   3.034   6.665
 5513SOL    HW117219   2.590   3.049   6.706
 5513SOL    HW217220   2.689   3.111   6.610
 5514SOL     OW17221   2.559   2.876   6.230
 5514SOL    HW117222   2.617   2.858   6.303
 5514SOL    HW217223   2.482   2.918   6.269
 5515SOL     OW17224   2.591   3.018   7.375
 5515SOL    HW117225   2.629   3.094   7.418
 5515SOL    HW217226   2.498   3.040   7.365
 5516SOL     OW17227   2.199   3.282   6.655
 5516SOL    HW117228   2.121   3.246   6.613
 5516SOL    HW217229   2.241   3.335   6.587
 5517SOL     OW17230   3.320   3.363   6.944
 5517SOL    HW117231   3.374   3.442   6.955
 5517SOL    HW217232   3.253   3.371   7.012
 5518SOL     OW17233   3.471   2.306   6.332
 5518SOL    HW117234   3.402   2.328   6.269
 5518SOL    HW217235   3.486   2.387   6.381
 5519SOL     OW17236   2.084   3.577   6.065
 5519SOL    HW117237   2.113   3.637   6.134
 5519SOL    HW217238   2.157   3.576   6.002
 5520SOL     OW17239   2.997   3.203   7.281
 5520SOL    HW117240   3.039   3.196   7.367
 5520SOL    HW217241   2.946   3.122   7.273
 5521SOL     OW17242   2.092   3.304   6.122
 5521SOL    HW117243   2.075   3.398   6.125
 5521SOL    HW217244   2.031   3.267   6.186
 5522SOL     OW17245   2.117   2.963   6.463
 5522SOL    HW117246   2.112   2.871   6.491
 5522SOL    HW217247   2.071   3.011   6.532
 5523SOL     OW17248   2.468   3.648   7.014
 5523SOL    HW117249   2.387   3.633   7.062
 5523SOL    HW217250   2.495   3.737   7.038
 5524SOL     OW17251   2.444   2.856   5.722
 5524SOL    HW117252   2.493   2.902   5.653
 5524SOL    HW217253   2.485   2.885   5.803
 5525SOL     OW17254   3.461   1.986   7.053
 5525SOL    HW117255   3.470   2.067   7.004
 5525SOL    HW217256   3.441   2.013   7.143
 5526SOL     OW17257   3.700   3.612   5.928
 5526SOL    HW117258   3.772   3.587   5.986
 5526SOL    HW217259   3.718   3.703   5.905
 5527SOL     OW17260   1.893   3.454   5.707
 5527SOL    HW117261   1.879   3.362   5.727
 5527SOL    HW217262   1.872   3.500   5.788
 5528SOL     OW17263   3.550   2.780   6.234
 5528SOL    HW117264   3.633   2.737   6.216
 5528SOL    HW217265   3.531   2.830   6.154
 5529SOL     OW17266   3.504   2.965   6.018
 5529SOL    HW117267   3.589   2.969   5.974
 5529SOL    HW217268   3.510   3.029   6.089
 5530SOL     OW17269   2.479   3.253   6.319
 5530SOL    HW117270   2.434   3.169   6.328
 5530SOL    HW217271   2.461   3.280   6.229
 5531SOL     OW17272   3.149   3.100   7.007
 5531SOL    HW117273   3.180   3.032   6.948
 5531SOL    HW217274   3.207   3.094   7.083
 5532SOL     OW17275   2.057   2.825   6.851
 5532SOL    HW117276   2.146   2.790   6.844
 5532SOL    HW217277   2.001   2.749   6.835
 5533SOL     OW17278   3.390   2.860   5.787
 5533SOL    HW117279   3.321   2.802   5.820
 5533SOL    HW217280   3.432   2.894   5.865
 5534SOL     OW17281   3.085   3.667   7.213
 5534SOL    HW117282   3.056   3.727   7.144
 5534SOL    HW217283   3.083   3.581   7.173
 5535SOL     OW17284   2.242   2.157   7.441
 5535SOL    HW117285   2.307   2.228   7.440
 5535SOL    HW217286   2.160   2.200   7.466
 5536SOL     OW17287   3.327   3.283   6.534
 5536SOL    HW117288   3.261   3.297   6.602
 5536SOL    HW217289   3.316   3.191   6.509
 5537SOL     OW17290   3.507   3.608   6.166
 5537SOL    HW117291   3.500   3.572   6.078
 5537SOL    HW217292   3.492   3.532   6.223
 5538SOL     OW17293   2.426   2.591   5.813
 5538SOL    HW117294   2.442   2.679   5.779
 5538SOL    HW217295   2.386   2.606   5.899
 5539SOL     OW17296   3.139   2.221   6.527
 5539SOL    HW117297   3.058   2.169   6.524
 5539SOL    HW217298   3.197   2.171   6.585
 5540SOL     OW17299   3.435   3.539   5.894
 5540SOL    HW117300   3.528   3.562   5.890
 5540SOL    HW217301   3.410   3.520   5.804
 5541SOL     OW17302   3.273   2.340   7.258
 5541SOL    HW117303   3.268   2.383   7.343
 5541SOL    HW217304   3.326   2.262   7.274
 5542SOL     OW17305   2.852   2.762   7.141
 5542SOL    HW117306   2.887   2.677   7.113
 5542SOL    HW217307   2.800   2.792   7.066
 5543SOL     OW17308   2.923   2.557   6.014
 5543SOL    HW117309   2.947   2.558   6.107
 5543SOL    HW217310   2.847   2.499   6.009
 5544SOL     OW17311   1.981   3.714   7.163
 5544SOL    HW117312   1.986   3.693   7.256
 5544SOL    HW217313   1.888   3.701   7.141
 5545SOL     OW17314   2.731   2.199   5.729
 5545SOL    HW117315   2.785   2.271   5.696
 5545SOL    HW217316   2.794   2.141   5.773
 5546SOL     OW17317   3.573   2.434   7.415
 5546SOL    HW117318   3.534   2.507   7.367
 5546SOL    HW217319   3.596   2.371   7.348
 5547SOL     OW17320   3.239   3.002   6.126
 5547SOL    HW117321   3.319   2.991   6.075
 5547SOL    HW217322   3.187   3.065   6.076
 5548SOL     OW17323   2.864   3.307   6.055
 5548SOL    HW117324   2.829   3.381   6.006
 5548SOL    HW217325   2.842   3.326   6.147
 5549SOL     OW17326   2.213   3.675   6.424
 5549SOL    HW117327   2.263   3.595   6.442
 5549SOL    HW217328   2.272   3.746   6.448
 5550SOL     OW17329   3.668   2.922   6.454
 5550SOL    HW117330   3.615   2.896   6.379
 5550SOL    HW217331   3.606   2.926   6.527
 5551SOL     OW17332   3.088   3.399   7.098
 5551SOL    HW117333   3.076   3.327   7.160
 5551SOL    HW217334   3.021   3.385   7.032
 5552SOL     OW17335   2.186   2.819   5.835
 5552SOL    HW117336   2.266   2.844   5.790
 5552SOL    HW217337   2.158   2.739   5.791
 5553SOL     OW17338   3.341   2.611   6.313
 5553SOL    HW117339   3.340   2.569   6.399
 5553SOL    HW217340   3.420   2.665   6.314
 5554SOL     OW17341   2.331   3.133   7.330
 5554SOL    HW117342   2.308   3.138   7.237
 5554SOL    HW217343   2.247   3.132   7.375
 5555SOL     OW17344   2.977   3.644   5.807
 5555SOL    HW117345   2.911   3.599   5.860
 5555SOL    HW217346   3.007   3.577   5.745
 5556SOL     OW17347   3.486   3.248   5.675
 5556SOL    HW117348   3.443   3.332   5.657
 5556SOL    HW217349   3.420   3.182   5.655
 5557SOL     OW17350   2.328   3.598   5.911
 5557SOL    HW117351   2.367   3.662   5.971
 5557SOL    HW217352   2.401   3.572   5.854
 5558SOL     OW17353   3.265   1.966   6.026
 5558SOL    HW117354   3.256   1.943   5.933
 5558SOL    HW217355   3.360   1.973   6.039
 5559SOL     OW17356   2.122   3.652   6.807
 5559SOL    HW117357   2.170   3.582   6.852
 5559SOL    HW217358   2.107   3.619   6.719
 5560SOL     OW17359   2.800   3.566   6.484
 5560SOL    HW117360   2.875   3.513   6.510
 5560SOL    HW217361   2.757   3.515   6.416
 5561SOL     OW17362   3.393   2.086   7.310
 5561SOL    HW117363   3.402   2.104   7.404
 5561SOL    HW217364   3.319   2.026   7.304
 5562SOL     OW17365   2.498   1.955   5.704
 5562SOL    HW117366   2.591   1.933   5.704
 5562SOL    HW217367   2.467   1.930   5.617
 5563SOL     OW17368   2.739   3.385   6.782
 5563SOL    HW117369   2.723   3.352   6.694
 5563SOL    HW217370   2.807   3.328   6.817
 5564SOL     OW17371   3.201   2.459   7.020
 5564SOL    HW117372   3.237   2.426   7.102
 5564SOL    HW217373   3.240   2.546   7.010
 5565SOL     OW17374   2.682   3.268   6.525
 5565SOL    HW117375   2.764   3.253   6.479
 5565SOL    HW217376   2.615   3.264   6.456
 5566SOL     OW17377   2.377   1.932   6.093
 5566SOL    HW117378   2.303   1.965   6.143
 5566SOL    HW217379   2.393   1.999   6.027
 5567SOL     OW17380   3.290   3.062   5.626
 5567SOL    HW117381   3.320   2.987   5.676
 5567SOL    HW217382   3.204   3.083   5.663
 5568SOL     OW17383   2.933   2.513   7.041
 5568SOL    HW117384   2.905   2.439   7.095
 5568SOL    HW217385   3.028   2.502   7.033
 5569SOL     OW17386   3.083   3.432   6.379
 5569SOL    HW117387   3.098   3.500   6.313
 5569SOL    HW217388   3.152   3.446   6.444
 5570SOL     OW17389   2.334   3.015   6.311
 5570SOL    HW117390   2.267   2.996   6.376
 5570SOL    HW217391   2.291   2.998   6.227
 5571SOL     OW17392   3.127   3.655   6.195
 5571SOL    HW117393   3.174   3.720   6.143
 5571SOL    HW217394   3.053   3.704   6.233
 5572SOL     OW17395   2.890   2.402   5.606
 5572SOL    HW117396   2.844   2.484   5.590
 5572SOL    HW217397   2.953   2.422   5.675
 5573SOL     OW17398   3.303   3.024   6.443
 5573SOL    HW117399   3.230   2.962   6.441
 5573SOL    HW217400   3.329   3.032   6.351
 5574SOL     OW17401   3.326   2.473   6.560
 5574SOL    HW117402   3.277   2.391   6.560
 5574SOL    HW217403   3.387   2.465   6.634
 5575SOL     OW17404   3.724   2.677   5.960
 5575SOL    HW117405   3.767   2.622   6.025
 5575SOL    HW217406   3.686   2.616   5.897
 5576SOL     OW17407   2.351   3.281   5.738
 5576SOL    HW117408   2.276   3.253   5.790
 5576SOL    HW217409   2.342   3.235   5.655
 5577SOL     OW17410   3.530   3.127   6.229
 5577SOL    HW117411   3.625   3.129   6.239
 5577SOL    HW217412   3.502   3.216   6.250
 5578SOL     OW17413   3.259   2.435   5.655
 5578SOL    HW117414   3.194   2.414   5.723
 5578SOL    HW217415   3.341   2.401   5.689
 5579SOL     OW17416   2.391   2.115   5.893
 5579SOL    HW117417   2.432   2.061   5.826
 5579SOL    HW217418   2.376   2.199   5.850
 5580SOL     OW17419   3.612   3.096   7.149
 5580SOL    HW117420   3.700   3.061   7.132
 5580SOL    HW217421   3.628   3.186   7.178
 5581SOL     OW17422   2.916   3.216   6.922
 5581SOL    HW117423   2.842   3.182   6.971
 5581SOL    HW217424   2.993   3.174   6.961
 5582SOL     OW17425   3.470   3.492   7.244
 5582SOL    HW117426   3.459   3.525   7.155
 5582SOL    HW217427   3.549   3.440   7.241
 5583SOL     OW17428   2.998   3.072   6.688
 5583SOL    HW117429   2.930   3.097   6.751
 5583SOL    HW217430   2.964   3.102   6.604
 5584SOL     OW17431   3.489   2.957   6.660
 5584SOL    HW117432   3.480   3.019   6.733
 5584SOL    HW217433   3.413   2.974   6.604
 5585SOL     OW17434   2.853   2.970   7.312
 5585SOL    HW117435   2.760   2.982   7.330
 5585SOL    HW217436   2.857   2.896   7.252
 5586SOL     OW17437   2.573   2.923   5.957
 5586SOL    HW117438   2.561   2.909   6.050
 5586SOL    HW217439   2.649   2.869   5.934
 5587SOL     OW17440   3.131   2.241   6.866
 5587SOL    HW117441   3.161   2.314   6.921
 5587SOL    HW217442   3.058   2.277   6.815
 5588SOL     OW17443   1.936   3.434   6.940
 5588SOL    HW117444   1.910   3.510   6.887
 5588SOL    HW217445   2.032   3.435   6.935
 5589SOL     OW17446   2.198   2.972   6.072
 5589SOL    HW117447   2.207   3.052   6.019
 5589SOL    HW217448   2.202   2.901   6.008
 5590SOL     OW17449   3.109   3.211   5.976
 5590SOL    HW117450   3.165   3.282   6.008
 5590SOL    HW217451   3.022   3.232   6.010
 5591SOL     OW17452   3.147   3.322   6.734
 5591SOL    HW117453   3.202   3.325   6.812
 5591SOL    HW217454   3.091   3.245   6.746
 5592SOL     OW17455   3.440   2.480   6.072
 5592SOL    HW117456   3.392   2.535   6.133
 5592SOL    HW217457   3.482   2.541   6.012
 5593SOL     OW17458   2.209   3.393   6.898
 5593SOL    HW117459   2.198   3.348   6.814
 5593SOL    HW217460   2.303   3.404   6.908
 5594SOL     OW17461   3.469   2.641   7.271
 5594SOL    HW117462   3.383   2.684   7.267
 5594SOL    HW217463   3.521   2.685   7.203
 5595SOL     OW17464   2.303   1.904   7.458
 5595SOL    HW117465   2.304   1.870   7.368
 5595SOL    HW217466   2.280   1.996   7.448
 5596SOL     OW17467   3.215   2.722   6.610
 5596SOL    HW117468   3.133   2.709   6.562
 5596SOL    HW217469   3.260   2.638   6.604
 5597SOL     OW17470   3.064   2.391   5.842
 5597SOL    HW117471   3.080   2.315   5.897
 5597SOL    HW217472   3.026   2.456   5.902
 5598SOL     OW17473   2.236   2.076   6.880
 5598SOL    HW117474   2.156   2.071   6.932
 5598SOL    HW217475   2.253   1.986   6.853
 5599SOL     OW17476   1.897   3.173   6.865
 5599SOL    HW117477   1.939   3.119   6.932
 5599SOL    HW217478   1.909   3.263   6.896
 5600SOL     OW17479   3.593   2.821   7.449
 5600SOL    HW117480   3.553   2.755   7.393
 5600SOL    HW217481   3.528   2.836   7.518
 5601SOL     OW17482   3.484   2.240   5.948
 5601SOL    HW117483   3.510   2.173   6.012
 5601SOL    HW217484   3.459   2.315   6.001
 5602SOL     OW17485   2.879   2.609   6.542
 5602SOL    HW117486   2.887   2.636   6.634
 5602SOL    HW217487   2.833   2.526   6.545
 5603SOL     OW17488   2.848   3.431   7.307
 5603SOL    HW117489   2.828   3.471   7.222
 5603SOL    HW217490   2.888   3.347   7.286
 5604SOL     OW17491   3.704   3.359   7.183
 5604SOL    HW117492   3.728   3.389   7.096
 5604SOL    HW217493   3.784   3.367   7.235
 5605SOL     OW17494   3.390   2.134   5.713
 5605SOL    HW117495   3.325   2.070   5.740
 5605SOL    HW217496   3.423   2.170   5.795
 5606SOL     OW17497   3.150   2.687   5.616
 5606SOL    HW117498   3.193   2.602   5.619
 5606SOL    HW217499   3.182   2.727   5.534
 5607SOL     OW17500   2.928   3.201   6.438
 5607SOL    HW117501   2.934   3.129   6.375
 5607SOL    HW217502   2.989   3.267   6.405
 5608SOL     OW17503   3.007   2.284   7.221
 5608SOL    HW117504   2.978   2.332   7.298
 5608SOL    HW217505   3.102   2.294   7.220
 5609SOL     OW17506   3.049   2.044   7.081
 5609SOL    HW117507   3.017   2.118   7.132
 5609SOL    HW217508   3.065   2.080   6.994
 5610SOL     OW17509   1.867   3.186   5.778
 5610SOL    HW117510   1.780   3.202   5.742
 5610SOL    HW217511   1.863   3.097   5.812
 5611SOL     OW17512   1.960   3.639   6.524
 5611SOL    HW117513   1.928   3.561   6.479
 5611SOL    HW217514   2.044   3.658   6.484
 5612SOL     OW17515   2.354   3.439   6.488
 5612SOL    HW117516   2.422   3.501   6.514
 5612SOL    HW217517   2.399   3.376   6.432
 5613SOL     OW17518   2.851   2.644   6.808
 5613SOL    HW117519   2.896   2.605   6.883
 5613SOL    HW217520   2.762   2.660   6.839
 5614SOL     OW17521   3.244   2.797   7.244
 5614SOL    HW117522   3.263   2.891   7.241
 5614SOL    HW217523   3.238   2.771   7.152
 5615SOL     OW17524   3.502   2.463   6.768
 5615SOL    HW117525   3.492   2.403   6.842
 5615SOL    HW217526   3.589   2.443   6.733
 5616SOL     OW17527   2.102   3.410   7.308
 5616SOL    HW117528   2.081   3.477   7.374
 5616SOL    HW217529   2.108   3.329   7.358
 5617SOL     OW17530   2.787   3.534   7.057
 5617SOL    HW117531   2.762   3.493   6.974
 5617SOL    HW217532   2.778   3.628   7.041
 5618SOL     OW17533   2.331   2.349   5.727
 5618SOL    HW117534   2.388   2.422   5.750
 5618SOL    HW217535   2.243   2.388   5.723
 5619SOL     OW17536   2.019   3.008   7.051
 5619SOL    HW117537   2.007   2.958   7.132
 5619SOL    HW217538   2.026   2.942   6.982
 5620SOL     OW17539   3.184   2.907   6.807
 5620SOL    HW117540   3.206   2.844   6.739
 5620SOL    HW217541   3.118   2.964   6.767
 5621SOL     OW17542   3.177   2.717   5.890
 5621SOL    HW117543   3.101   2.687   5.940
 5621SOL    HW217544   3.152   2.704   5.799
 5622SOL     OW17545   3.641   3.601   6.742
 5622SOL    HW117546   3.698   3.627   6.671
 5622SOL    HW217547   3.612   3.512   6.719
 5623SOL     OW17548   3.106   3.595   6.694
 5623SOL    HW117549   3.189   3.616   6.652
 5623SOL    HW217550   3.113   3.502   6.714
 5624SOL     OW17551   1.959   3.152   6.601
 5624SOL    HW117552   1.934   3.155   6.693
 5624SOL    HW217553   1.895   3.094   6.561
 5625SOL     OW17554   2.542   3.529   7.324
 5625SOL    HW117555   2.484   3.606   7.326
 5625SOL    HW217556   2.603   3.546   7.252
 5626SOL     OW17557   3.570   2.014   6.097
 5626SOL    HW117558   3.639   2.001   6.031
 5626SOL    HW217559   3.560   1.927   6.137
 5627SOL     OW17560   3.252   3.430   6.075
 5627SOL    HW117561   3.311   3.464   6.007
 5627SOL    HW217562   3.204   3.507   6.105
 5628SOL     OW17563   1.999   3.654   7.423
 5628SOL    HW117564   1.947   3.590   7.472
 5628SOL    HW217565   2.047   3.702   7.491
 5629SOL     OW17566   3.138   2.786   6.255
 5629SOL    HW117567   3.213   2.728   6.266
 5629SOL    HW217568   3.172   2.859   6.203
 5630SOL     OW17569   2.670   3.132   7.016
 5630SOL    HW117570   2.642   3.173   7.098
 5630SOL    HW217571   2.602   3.156   6.953
 5631SOL     OW17572   2.536   3.480   5.744
 5631SOL    HW117573   2.546   3.499   5.651
 5631SOL    HW217574   2.477   3.405   5.748
 5632SOL     OW17575   3.480   3.589   6.976
 5632SOL    HW117576   3.536   3.591   6.899
 5632SOL    HW217577   3.467   3.681   7.000
 5633SOL     OW17578   3.700   2.043   6.552
 5633SOL    HW117579   3.732   1.956   6.528
 5633SOL    HW217580   3.614   2.049   6.511
 5634SOL     OW17581   3.070   3.465   5.622
 5634SOL    HW117582   3.059   3.373   5.647
 5634SOL    HW217583   3.008   3.477   5.550
 5635SOL     OW17584   2.691   2.868   6.942
 5635SOL    HW117585   2.720   2.888   6.853
 5635SOL    HW217586   2.682   2.953   6.985
 5636SOL     OW17587   2.783   2.771   5.881
 5636SOL    HW117588   2.840   2.805   5.812
 5636SOL    HW217589   2.836   2.703   5.924
 5637SOL     OW17590   3.349   3.496   5.629
 5637SOL    HW117591   3.255   3.482   5.612
 5637SOL    HW217592   3.388   3.500   5.542
 5638SOL     OW17593   2.235   3.170   7.081
 5638SOL    HW117594   2.222   3.246   7.025
 5638SOL    HW217595   2.160   3.113   7.064
 5639SOL     OW17596   3.462   3.142   6.863
 5639SOL    HW117597   3.529   3.132   6.930
 5639SOL    HW217598   3.404   3.210   6.896
 5640SOL     OW17599   2.924   2.974   6.291
 5640SOL    HW117600   2.851   2.925   6.328
 5640SOL    HW217601   2.986   2.907   6.262
 5641SOL     OW17602   2.467   3.353   6.064
 5641SOL    HW117603   2.514   3.302   5.999
 5641SOL    HW217604   2.397   3.397   6.015
 5642SOL     OW17605   3.587   2.253   6.964
 5642SOL    HW117606   3.660   2.315   6.961
 5642SOL    HW217607   3.614   2.180   6.908
 5643SOL     OW17608   2.122   3.204   5.877
 5643SOL    HW117609   2.030   3.205   5.852
 5643SOL    HW217610   2.124   3.243   5.964
 5644SOL     OW17611   1.983   2.917   7.320
 5644SOL    HW117612   1.907   2.861   7.336
 5644SOL    HW217613   2.058   2.864   7.344
 5645SOL     OW17614   1.897   2.285   5.647
 5645SOL    HW117615   1.863   2.200   5.620
 5645SOL    HW217616   1.947   2.316   5.571
 5646SOL     OW17617   3.287   2.721   6.983
 5646SOL    HW117618   3.238   2.784   6.930
 5646SOL    HW217619   3.376   2.723   6.947
 5647SOL     OW17620   3.040   3.198   5.704
 5647SOL    HW117621   2.949   3.168   5.705
 5647SOL    HW217622   3.066   3.198   5.796
 5648SOL     OW17623   2.473   2.696   6.993
 5648SOL    HW117624   2.531   2.770   6.984
 5648SOL    HW217625   2.526   2.628   7.035
 5649SOL     OW17626   3.348   3.645   6.569
 5649SOL    HW117627   3.371   3.700   6.495
 5649SOL    HW217628   3.431   3.611   6.602
 5650SOL     OW17629   3.335   3.059   7.215
 5650SOL    HW117630   3.325   3.073   7.309
 5650SOL    HW217631   3.428   3.074   7.199
 5651SOL     OW17632   2.235   3.604   7.153
 5651SOL    HW117633   2.151   3.646   7.136
 5651SOL    HW217634   2.212   3.520   7.192
 5652SOL     OW17635   3.526   2.742   6.845
 5652SOL    HW117636   3.526   2.657   6.801
 5652SOL    HW217637   3.519   2.806   6.773
 5653SOL     OW17638   3.107   2.198   6.031
 5653SOL    HW117639   3.156   2.115   6.032
 5653SOL    HW217640   3.126   2.238   6.116
 5654SOL     OW17641   3.619   2.227   7.236
 5654SOL    HW117642   3.602   2.242   7.143
 5654SOL    HW217643   3.549   2.168   7.264
 5655SOL     OW17644   3.620   2.790   7.099
 5655SOL    HW117645   3.609   2.883   7.117
 5655SOL    HW217646   3.594   2.781   7.007
 5656SOL     OW17647   2.726   3.230   5.627
 5656SOL    HW117648   2.686   3.258   5.709
 5656SOL    HW217649   2.741   3.311   5.579
 5657SOL     OW17650   2.523   3.650   6.524
 5657SOL    HW117651   2.503   3.741   6.504
 5657SOL    HW217652   2.619   3.645   6.519
 5658SOL     OW17653   2.739   2.838   6.446
 5658SOL    HW117654   2.783   2.760   6.480
 5658SOL    HW217655   2.722   2.892   6.523
 5659SOL     OW17656   2.940   2.852   5.676
 5659SOL    HW117657   2.918   2.902   5.598
 5659SOL    HW217658   3.013   2.797   5.649
 5660SOL     OW17659   3.710   3.416   6.426
 5660SOL    HW117660   3.631   3.397   6.377
 5660SOL    HW217661   3.714   3.348   6.493
 5661SOL     OW17662   2.082   3.159   7.437
 5661SOL    HW117663   2.032   3.090   7.393
 5661SOL    HW217664   2.033   3.176   7.518
 5662SOL     OW17665   1.946   3.091   6.248
 5662SOL    HW117666   1.961   3.058   6.336
 5662SOL    HW217667   2.017   3.053   6.196
 5663SOL     OW17668   2.544   3.273   7.211
 5663SOL    HW117669   2.471   3.224   7.250
 5663SOL    HW217670   2.539   3.360   7.253
 5664SOL     OW17671   3.673   2.041   6.823
 5664SOL    HW117672   3.665   1.945   6.827
 5664SOL    HW217673   3.689   2.060   6.731
 5665SOL     OW17674   3.557   3.351   6.682
 5665SOL    HW117675   3.478   3.328   6.632
 5665SOL    HW217676   3.567   3.280   6.745
 5666SOL     OW17677   2.692   3.442   6.260
 5666SOL    HW117678   2.671   3.496   6.183
 5666SOL    HW217679   2.618   3.382   6.267
 5667SOL     OW17680   3.295   2.089   6.704
 5667SOL    HW117681   3.309   2.001   6.739
 5667SOL    HW217682   3.246   2.134   6.773
 5668SOL     OW17683   2.912   1.916   6.754
 5668SOL    HW117684   2.831   1.867   6.767
 5668SOL    HW217685   2.979   1.849   6.738
 5669SOL     OW17686   2.635   3.194   5.907
 5669SOL    HW117687   2.607   3.103   5.914
 5669SOL    HW217688   2.718   3.198   5.956
 5670SOL     OW17689   2.482   3.415   6.871
 5670SOL    HW117690   2.483   3.497   6.921
 5670SOL    HW217691   2.571   3.409   6.835
 5671SOL     OW17692   3.217   1.915   5.756
 5671SOL    HW117693   3.248   1.847   5.696
 5671SOL    HW217694   3.129   1.887   5.781
 5672SOL     OW17695   3.158   2.324   6.271
 5672SOL    HW117696   3.105   2.404   6.275
 5672SOL    HW217697   3.155   2.289   6.360
 5673SOL     OW17698   3.442   2.059   6.464
 5673SOL    HW117699   3.391   2.084   6.541
 5673SOL    HW217700   3.445   2.137   6.410
 5674SOL     OW17701   1.895   2.936   5.881
 5674SOL    HW117702   1.991   2.928   5.880
 5674SOL    HW217703   1.864   2.848   5.859
 5675SOL     OW17704   2.749   3.523   5.927
 5675SOL    HW117705   2.677   3.504   5.867
 5675SOL    HW217706   2.718   3.597   5.979
 5676SOL     OW17707   1.853   2.271   8.118
 5676SOL    HW117708   1.764   2.284   8.152
 5676SOL    HW217709   1.840   2.224   8.036
 5677SOL     OW17710   2.429   3.156   8.627
 5677SOL    HW117711   2.342   3.162   8.588
 5677SOL    HW217712   2.446   3.244   8.662
 5678SOL     OW17713   3.427   3.375   8.157
 5678SOL    HW117714   3.385   3.351   8.240
 5678SOL    HW217715   3.356   3.378   8.093
 5679SOL     OW17716   2.997   2.563   8.149
 5679SOL    HW117717   3.046   2.645   8.138
 5679SOL    HW217718   2.948   2.575   8.231
 5680SOL     OW17719   3.628   2.468   7.677
 5680SOL    HW117720   3.609   2.461   7.584
 5680SOL    HW217721   3.596   2.385   7.714
 5681SOL     OW17722   2.609   3.000   8.491
 5681SOL    HW117723   2.543   3.037   8.549
 5681SOL    HW217724   2.649   3.076   8.449
 5682SOL     OW17725   2.734   2.627   9.271
 5682SOL    HW117726   2.721   2.697   9.335
 5682SOL    HW217727   2.757   2.672   9.190
 5683SOL     OW17728   2.541   2.850   8.102
 5683SOL    HW117729   2.611   2.846   8.168
 5683SOL    HW217730   2.477   2.911   8.139
 5684SOL     OW17731   2.575   3.012   9.264
 5684SOL    HW117732   2.623   3.090   9.294
 5684SOL    HW217733   2.494   3.046   9.227
 5685SOL     OW17734   2.194   3.281   8.515
 5685SOL    HW117735   2.119   3.244   8.468
 5685SOL    HW217736   2.239   3.334   8.449
 5686SOL     OW17737   3.320   3.364   8.807
 5686SOL    HW117738   3.375   3.442   8.817
 5686SOL    HW217739   3.254   3.372   8.875
 5687SOL     OW17740   2.295   2.258   8.947
 5687SOL    HW117741   2.389   2.239   8.952
 5687SOL    HW217742   2.253   2.172   8.943
 5688SOL     OW17743   3.471   2.306   8.193
 5688SOL    HW117744   3.402   2.330   8.131
 5688SOL    HW217745   3.483   2.384   8.247
 5689SOL     OW17746   2.085   3.575   7.927
 5689SOL    HW117747   2.112   3.637   7.995
 5689SOL    HW217748   2.158   3.576   7.864
 5690SOL     OW17749   2.999   3.204   9.142
 5690SOL    HW117750   3.041   3.197   9.228
 5690SOL    HW217751   2.947   3.124   9.134
 5691SOL     OW17752   2.090   3.303   7.986
 5691SOL    HW117753   2.077   3.398   7.986
 5691SOL    HW217754   2.029   3.272   8.053
 5692SOL     OW17755   2.126   2.953   8.339
 5692SOL    HW117756   2.120   2.866   8.377
 5692SOL    HW217757   2.069   3.007   8.394
 5693SOL     OW17758   2.468   3.647   8.875
 5693SOL    HW117759   2.387   3.633   8.924
 5693SOL    HW217760   2.495   3.736   8.900
 5694SOL     OW17761   3.455   1.989   8.913
 5694SOL    HW117762   3.476   2.070   8.866
 5694SOL    HW217763   3.440   2.016   9.003
 5695SOL     OW17764   3.700   3.612   7.790
 5695SOL    HW117765   3.772   3.587   7.848
 5695SOL    HW217766   3.718   3.703   7.767
 5696SOL     OW17767   1.894   3.457   7.568
 5696SOL    HW117768   1.879   3.364   7.589
 5696SOL    HW217769   1.872   3.503   7.649
 5697SOL     OW17770   3.550   2.781   8.096
 5697SOL    HW117771   3.633   2.737   8.077
 5697SOL    HW217772   3.530   2.830   8.016
 5698SOL     OW17773   3.504   2.965   7.881
 5698SOL    HW117774   3.588   2.969   7.837
 5698SOL    HW217775   3.510   3.029   7.952
 5699SOL     OW17776   1.983   2.604   9.033
 5699SOL    HW117777   2.074   2.631   9.042
 5699SOL    HW217778   1.933   2.685   9.041
 5700SOL     OW17779   2.478   3.253   8.183
 5700SOL    HW117780   2.432   3.169   8.192
 5700SOL    HW217781   2.461   3.280   8.092
 5701SOL     OW17782   3.148   3.098   8.870
 5701SOL    HW117783   3.180   3.031   8.810
 5701SOL    HW217784   3.208   3.094   8.945
 5702SOL     OW17785   2.052   2.826   8.723
 5702SOL    HW117786   2.137   2.783   8.708
 5702SOL    HW217787   1.989   2.772   8.676
 5703SOL     OW17788   3.392   2.860   7.648
 5703SOL    HW117789   3.324   2.801   7.680
 5703SOL    HW217790   3.432   2.894   7.728
 5704SOL     OW17791   3.083   3.667   9.076
 5704SOL    HW117792   3.057   3.728   9.007
 5704SOL    HW217793   3.083   3.581   9.034
 5705SOL     OW17794   2.266   2.162   9.265
 5705SOL    HW117795   2.318   2.227   9.311
 5705SOL    HW217796   2.176   2.195   9.268
 5706SOL     OW17797   3.327   3.282   8.395
 5706SOL    HW117798   3.261   3.297   8.463
 5706SOL    HW217799   3.316   3.191   8.371
 5707SOL     OW17800   3.507   3.608   8.028
 5707SOL    HW117801   3.500   3.573   7.940
 5707SOL    HW217802   3.492   3.532   8.085
 5708SOL     OW17803   3.141   2.223   8.382
 5708SOL    HW117804   3.052   2.190   8.393
 5708SOL    HW217805   3.194   2.170   8.440
 5709SOL     OW17806   3.435   3.539   7.756
 5709SOL    HW117807   3.528   3.562   7.752
 5709SOL    HW217808   3.410   3.520   7.666
 5710SOL     OW17809   2.655   2.483   8.898
 5710SOL    HW117810   2.631   2.456   8.987
 5710SOL    HW217811   2.618   2.415   8.841
 5711SOL     OW17812   3.255   2.335   9.126
 5711SOL    HW117813   3.259   2.380   9.211
 5711SOL    HW217814   3.313   2.260   9.136
 5712SOL     OW17815   2.813   2.748   9.033
 5712SOL    HW117816   2.868   2.679   8.995
 5712SOL    HW217817   2.765   2.783   8.958
 5713SOL     OW17818   2.855   2.274   8.685
 5713SOL    HW117819   2.768   2.293   8.719
 5713SOL    HW217820   2.839   2.231   8.601
 5714SOL     OW17821   2.920   2.558   7.884
 5714SOL    HW117822   2.952   2.562   7.974
 5714SOL    HW217823   2.837   2.510   7.890
 5715SOL     OW17824   1.946   2.712   8.213
 5715SOL    HW117825   2.023   2.683   8.261
 5715SOL    HW217826   1.908   2.782   8.266
 5716SOL     OW17827   1.981   3.713   9.025
 5716SOL    HW117828   1.986   3.691   9.119
 5716SOL    HW217829   1.888   3.702   9.003
 5717SOL     OW17830   3.569   2.434   9.277
 5717SOL    HW117831   3.532   2.508   9.228
 5717SOL    HW217832   3.595   2.371   9.210
 5718SOL     OW17833   3.239   3.003   7.987
 5718SOL    HW117834   3.319   2.991   7.936
 5718SOL    HW217835   3.188   3.066   7.936
 5719SOL     OW17836   2.415   2.042   8.339
 5719SOL    HW117837   2.426   2.069   8.431
 5719SOL    HW217838   2.423   2.123   8.289
 5720SOL     OW17839   2.866   3.308   7.918
 5720SOL    HW117840   2.830   3.381   7.869
 5720SOL    HW217841   2.843   3.327   8.009
 5721SOL     OW17842   2.213   3.674   8.286
 5721SOL    HW117843   2.263   3.595   8.305
 5721SOL    HW217844   2.271   3.746   8.310
 5722SOL     OW17845   3.668   2.922   8.317
 5722SOL    HW117846   3.616   2.896   8.241
 5722SOL    HW217847   3.606   2.926   8.389
 5723SOL     OW17848   3.089   3.400   8.960
 5723SOL    HW117849   3.077   3.327   9.021
 5723SOL    HW217850   3.020   3.387   8.894
 5724SOL     OW17851   3.342   2.610   8.173
 5724SOL    HW117852   3.338   2.569   8.259
 5724SOL    HW217853   3.420   2.665   8.176
 5725SOL     OW17854   2.331   3.128   9.185
 5725SOL    HW117855   2.304   3.133   9.093
 5725SOL    HW217856   2.248   3.126   9.234
 5726SOL     OW17857   2.976   3.643   7.669
 5726SOL    HW117858   2.911   3.598   7.722
 5726SOL    HW217859   3.007   3.577   7.606
 5727SOL     OW17860   3.486   3.248   7.538
 5727SOL    HW117861   3.442   3.332   7.519
 5727SOL    HW217862   3.420   3.182   7.517
 5728SOL     OW17863   2.329   3.597   7.774
 5728SOL    HW117864   2.367   3.662   7.833
 5728SOL    HW217865   2.400   3.572   7.716
 5729SOL     OW17866   3.268   1.967   7.888
 5729SOL    HW117867   3.266   1.940   7.796
 5729SOL    HW217868   3.361   1.974   7.909
 5730SOL     OW17869   2.122   3.653   8.669
 5730SOL    HW117870   2.169   3.582   8.714
 5730SOL    HW217871   2.107   3.619   8.581
 5731SOL     OW17872   2.801   3.564   8.347
 5731SOL    HW117873   2.879   3.513   8.368
 5731SOL    HW217874   2.758   3.514   8.277
 5732SOL     OW17875   3.393   2.087   9.173
 5732SOL    HW117876   3.403   2.107   9.266
 5732SOL    HW217877   3.325   2.019   9.170
 5733SOL     OW17878   2.627   2.141   9.206
 5733SOL    HW117879   2.706   2.087   9.202
 5733SOL    HW217880   2.578   2.106   9.281
 5734SOL     OW17881   2.738   3.383   8.643
 5734SOL    HW117882   2.721   3.347   8.556
 5734SOL    HW217883   2.808   3.328   8.679
 5735SOL     OW17884   3.201   2.451   8.881
 5735SOL    HW117885   3.233   2.420   8.966
 5735SOL    HW217886   3.238   2.539   8.873
 5736SOL     OW17887   2.680   3.252   8.392
 5736SOL    HW117888   2.765   3.241   8.349
 5736SOL    HW217889   2.617   3.259   8.321
 5737SOL     OW17890   2.794   2.371   8.362
 5737SOL    HW117891   2.768   2.367   8.270
 5737SOL    HW217892   2.826   2.283   8.383
 5738SOL     OW17893   2.383   1.933   7.991
 5738SOL    HW117894   2.290   1.926   8.011
 5738SOL    HW217895   2.387   1.990   7.914
 5739SOL     OW17896   3.290   3.063   7.488
 5739SOL    HW117897   3.320   2.987   7.538
 5739SOL    HW217898   3.203   3.082   7.523
 5740SOL     OW17899   2.822   2.178   7.915
 5740SOL    HW117900   2.798   2.143   7.829
 5740SOL    HW217901   2.917   2.177   7.916
 5741SOL     OW17902   2.944   2.546   8.906
 5741SOL    HW117903   2.878   2.477   8.912
 5741SOL    HW217904   3.027   2.499   8.900
 5742SOL     OW17905   3.081   3.434   8.243
 5742SOL    HW117906   3.097   3.500   8.176
 5742SOL    HW217907   3.152   3.446   8.306
 5743SOL     OW17908   2.330   3.016   8.175
 5743SOL    HW117909   2.267   2.996   8.243
 5743SOL    HW217910   2.282   3.006   8.093
 5744SOL     OW17911   3.126   3.656   8.057
 5744SOL    HW117912   3.174   3.720   8.005
 5744SOL    HW217913   3.053   3.704   8.095
 5745SOL     OW17914   2.957   2.431   7.441
 5745SOL    HW117915   2.864   2.442   7.463
 5745SOL    HW217916   3.000   2.423   7.526
 5746SOL     OW17917   1.942   2.422   8.835
 5746SOL    HW117918   2.036   2.419   8.814
 5746SOL    HW217919   1.936   2.486   8.905
 5747SOL     OW17920   2.461   2.085   8.606
 5747SOL    HW117921   2.508   2.009   8.640
 5747SOL    HW217922   2.378   2.086   8.653
 5748SOL     OW17923   2.718   2.344   8.105
 5748SOL    HW117924   2.637   2.374   8.066
 5748SOL    HW217925   2.752   2.280   8.043
 5749SOL     OW17926   2.889   1.922   8.204
 5749SOL    HW117927   2.820   1.931   8.138
 5749SOL    HW217928   2.863   1.845   8.255
 5750SOL     OW17929   3.302   3.023   8.305
 5750SOL    HW117930   3.231   2.959   8.303
 5750SOL    HW217931   3.329   3.032   8.214
 5751SOL     OW17932   3.327   2.472   8.419
 5751SOL    HW117933   3.274   2.392   8.422
 5751SOL    HW217934   3.385   2.464   8.495
 5752SOL     OW17935   3.723   2.678   7.823
 5752SOL    HW117936   3.767   2.622   7.887
 5752SOL    HW217937   3.686   2.617   7.759
 5753SOL     OW17938   2.349   3.283   7.600
 5753SOL    HW117939   2.273   3.251   7.650
 5753SOL    HW217940   2.347   3.232   7.519
 5754SOL     OW17941   3.530   3.127   8.092
 5754SOL    HW117942   3.625   3.129   8.101
 5754SOL    HW217943   3.502   3.216   8.112
 5755SOL     OW17944   3.263   2.433   7.518
 5755SOL    HW117945   3.201   2.413   7.588
 5755SOL    HW217946   3.347   2.401   7.551
 5756SOL     OW17947   2.379   2.097   7.768
 5756SOL    HW117948   2.391   2.037   7.694
 5756SOL    HW217949   2.358   2.181   7.727
 5757SOL     OW17950   3.612   3.096   9.011
 5757SOL    HW117951   3.700   3.061   8.994
 5757SOL    HW217952   3.628   3.186   9.040
 5758SOL     OW17953   2.918   3.213   8.779
 5758SOL    HW117954   2.843   3.183   8.830
 5758SOL    HW217955   2.994   3.173   8.821
 5759SOL     OW17956   3.469   3.492   9.106
 5759SOL    HW117957   3.459   3.525   9.016
 5759SOL    HW217958   3.549   3.439   9.103
 5760SOL     OW17959   2.993   3.068   8.550
 5760SOL    HW117960   2.936   3.108   8.615
 5760SOL    HW217961   2.964   3.105   8.467
 5761SOL     OW17962   3.489   2.957   8.522
 5761SOL    HW117963   3.480   3.018   8.595
 5761SOL    HW217964   3.413   2.974   8.466
 5762SOL     OW17965   2.781   1.957   8.840
 5762SOL    HW117966   2.806   1.937   8.750
 5762SOL    HW217967   2.860   1.996   8.879
 5763SOL     OW17968   2.846   2.977   9.171
 5763SOL    HW117969   2.755   2.993   9.195
 5763SOL    HW217970   2.843   2.898   9.116
 5764SOL     OW17971   2.566   2.931   7.835
 5764SOL    HW117972   2.566   2.903   7.927
 5764SOL    HW217973   2.633   2.876   7.794
 5765SOL     OW17974   2.282   2.675   8.698
 5765SOL    HW117975   2.349   2.687   8.766
 5765SOL    HW217976   2.248   2.586   8.713
 5766SOL     OW17977   3.126   2.237   8.727
 5766SOL    HW117978   3.159   2.315   8.773
 5766SOL    HW217979   3.035   2.259   8.706
 5767SOL     OW17980   1.935   3.435   8.803
 5767SOL    HW117981   1.908   3.510   8.750
 5767SOL    HW217982   2.031   3.436   8.797
 5768SOL     OW17983   2.201   2.976   7.926
 5768SOL    HW117984   2.205   3.055   7.873
 5768SOL    HW217985   2.273   2.922   7.894
 5769SOL     OW17986   2.406   2.395   8.311
 5769SOL    HW117987   2.425   2.451   8.236
 5769SOL    HW217988   2.471   2.420   8.377
 5770SOL     OW17989   3.109   3.211   7.839
 5770SOL    HW117990   3.166   3.282   7.869
 5770SOL    HW217991   3.022   3.233   7.872
 5771SOL     OW17992   3.148   3.322   8.597
 5771SOL    HW117993   3.205   3.327   8.674
 5771SOL    HW217994   3.093   3.246   8.613
 5772SOL     OW17995   3.439   2.480   7.933
 5772SOL    HW117996   3.391   2.534   7.995
 5772SOL    HW217997   3.481   2.542   7.873
 5773SOL     OW17998   2.207   3.393   8.758
 5773SOL    HW117999   2.196   3.347   8.675
 5773SOL    HW218000   2.302   3.403   8.768
 5774SOL     OW18001   2.277   2.610   9.051
 5774SOL    HW118002   2.342   2.651   8.994
 5774SOL    HW218003   2.313   2.524   9.071
 5775SOL     OW18004   3.468   2.641   9.132
 5775SOL    HW118005   3.382   2.684   9.127
 5775SOL    HW218006   3.521   2.684   9.065
 5776SOL     OW18007   2.857   1.992   9.198
 5776SOL    HW118008   2.916   2.064   9.178
 5776SOL    HW218009   2.906   1.913   9.175
 5777SOL     OW18010   2.371   1.906   9.202
 5777SOL    HW118011   2.313   1.857   9.143
 5777SOL    HW218012   2.329   1.992   9.210
 5778SOL     OW18013   2.442   2.738   8.477
 5778SOL    HW118014   2.479   2.826   8.482
 5778SOL    HW218015   2.389   2.729   8.557
 5779SOL     OW18016   3.213   2.721   8.472
 5779SOL    HW118017   3.129   2.707   8.430
 5779SOL    HW218018   3.259   2.637   8.464
 5780SOL     OW18019   3.064   2.389   7.708
 5780SOL    HW118020   3.079   2.313   7.764
 5780SOL    HW218021   3.027   2.455   7.766
 5781SOL     OW18022   2.236   2.049   8.741
 5781SOL    HW118023   2.149   2.067   8.778
 5781SOL    HW218024   2.233   1.956   8.716
 5782SOL     OW18025   1.910   3.173   8.722
 5782SOL    HW118026   1.941   3.118   8.794
 5782SOL    HW218027   1.914   3.263   8.757
 5783SOL     OW18028   2.579   2.491   8.501
 5783SOL    HW118029   2.660   2.476   8.453
 5783SOL    HW218030   2.556   2.582   8.483
 5784SOL     OW18031   3.592   2.821   9.311
 5784SOL    HW118032   3.552   2.755   9.255
 5784SOL    HW218033   3.528   2.836   9.381
 5785SOL     OW18034   3.481   2.239   7.811
 5785SOL    HW118035   3.509   2.174   7.875
 5785SOL    HW218036   3.459   2.316   7.863
 5786SOL     OW18037   2.891   2.622   8.408
 5786SOL    HW118038   2.885   2.640   8.502
 5786SOL    HW218039   2.866   2.529   8.400
 5787SOL     OW18040   2.848   3.430   9.170
 5787SOL    HW118041   2.828   3.471   9.085
 5787SOL    HW218042   2.889   3.347   9.147
 5788SOL     OW18043   3.704   3.359   9.045
 5788SOL    HW118044   3.728   3.389   8.958
 5788SOL    HW218045   3.784   3.367   9.097
 5789SOL     OW18046   2.214   2.779   9.260
 5789SOL    HW118047   2.296   2.798   9.305
 5789SOL    HW218048   2.238   2.717   9.191
 5790SOL     OW18049   3.391   2.133   7.575
 5790SOL    HW118050   3.330   2.064   7.603
 5790SOL    HW218051   3.424   2.171   7.656
 5791SOL     OW18052   3.157   2.691   7.481
 5791SOL    HW118053   3.191   2.602   7.479
 5791SOL    HW218054   3.185   2.730   7.398
 5792SOL     OW18055   2.930   3.200   8.304
 5792SOL    HW118056   2.935   3.128   8.241
 5792SOL    HW218057   2.989   3.267   8.269
 5793SOL     OW18058   2.169   2.670   8.390
 5793SOL    HW118059   2.262   2.693   8.393
 5793SOL    HW218060   2.165   2.581   8.425
 5794SOL     OW18061   2.180   2.365   8.456
 5794SOL    HW118062   2.139   2.292   8.410
 5794SOL    HW218063   2.262   2.380   8.408
 5795SOL     OW18064   2.996   2.236   9.132
 5795SOL    HW118065   2.948   2.290   9.195
 5795SOL    HW218066   3.083   2.275   9.129
 5796SOL     OW18067   3.023   2.062   8.919
 5796SOL    HW118068   3.011   2.124   8.991
 5796SOL    HW218069   3.065   2.112   8.850
 5797SOL     OW18070   1.872   3.188   7.632
 5797SOL    HW118071   1.784   3.205   7.599
 5797SOL    HW218072   1.867   3.102   7.672
 5798SOL     OW18073   1.959   3.637   8.386
 5798SOL    HW118074   1.928   3.559   8.340
 5798SOL    HW218075   2.044   3.657   8.346
 5799SOL     OW18076   2.354   3.438   8.353
 5799SOL    HW118077   2.422   3.502   8.377
 5799SOL    HW218078   2.400   3.376   8.296
 5800SOL     OW18079   2.837   2.651   8.673
 5800SOL    HW118080   2.899   2.632   8.744
 5800SOL    HW218081   2.754   2.615   8.704
 5801SOL     OW18082   1.900   2.397   8.566
 5801SOL    HW118083   1.984   2.400   8.520
 5801SOL    HW218084   1.924   2.411   8.658
 5802SOL     OW18085   2.076   2.382   9.179
 5802SOL    HW118086   2.132   2.354   9.106
 5802SOL    HW218087   2.015   2.444   9.139
 5803SOL     OW18088   3.242   2.797   9.106
 5803SOL    HW118089   3.263   2.891   9.103
 5803SOL    HW218090   3.238   2.770   9.014
 5804SOL     OW18091   3.501   2.463   8.630
 5804SOL    HW118092   3.491   2.403   8.704
 5804SOL    HW218093   3.588   2.443   8.595
 5805SOL     OW18094   2.103   3.410   9.171
 5805SOL    HW118095   2.080   3.477   9.236
 5805SOL    HW218096   2.108   3.329   9.221
 5806SOL     OW18097   2.568   2.316   8.708
 5806SOL    HW118098   2.528   2.235   8.675
 5806SOL    HW218099   2.561   2.378   8.635
 5807SOL     OW18100   2.787   3.533   8.918
 5807SOL    HW118101   2.761   3.494   8.835
 5807SOL    HW218102   2.779   3.627   8.904
 5808SOL     OW18103   2.318   2.337   7.662
 5808SOL    HW118104   2.389   2.399   7.648
 5808SOL    HW218105   2.252   2.386   7.711
 5809SOL     OW18106   2.005   3.004   8.922
 5809SOL    HW118107   2.006   2.955   9.004
 5809SOL    HW218108   2.023   2.939   8.854
 5810SOL     OW18109   3.182   2.906   8.669
 5810SOL    HW118110   3.206   2.843   8.600
 5810SOL    HW218111   3.115   2.961   8.629
 5811SOL     OW18112   3.179   2.715   7.754
 5811SOL    HW118113   3.099   2.693   7.801
 5811SOL    HW218114   3.157   2.706   7.661
 5812SOL     OW18115   3.641   3.601   8.605
 5812SOL    HW118116   3.699   3.627   8.533
 5812SOL    HW218117   3.612   3.512   8.581
 5813SOL     OW18118   3.106   3.595   8.556
 5813SOL    HW118119   3.189   3.617   8.513
 5813SOL    HW218120   3.113   3.501   8.576
 5814SOL     OW18121   1.951   3.128   8.459
 5814SOL    HW118122   1.934   3.143   8.552
 5814SOL    HW218123   1.877   3.075   8.429
 5815SOL     OW18124   2.541   3.527   9.183
 5815SOL    HW118125   2.483   3.604   9.187
 5815SOL    HW218126   2.602   3.547   9.112
 5816SOL     OW18127   3.569   2.013   7.958
 5816SOL    HW118128   3.638   2.002   7.892
 5816SOL    HW218129   3.560   1.927   7.998
 5817SOL     OW18130   3.253   3.430   7.937
 5817SOL    HW118131   3.311   3.464   7.869
 5817SOL    HW218132   3.204   3.507   7.967
 5818SOL     OW18133   1.998   3.651   9.286
 5818SOL    HW118134   1.946   3.587   9.335
 5818SOL    HW218135   2.046   3.699   9.353
 5819SOL     OW18136   3.140   2.790   8.120
 5819SOL    HW118137   3.215   2.731   8.129
 5819SOL    HW218138   3.174   2.862   8.066
 5820SOL     OW18139   2.670   3.137   8.874
 5820SOL    HW118140   2.642   3.177   8.957
 5820SOL    HW218141   2.600   3.159   8.813
 5821SOL     OW18142   2.535   3.481   7.607
 5821SOL    HW118143   2.546   3.500   7.513
 5821SOL    HW218144   2.475   3.406   7.609
 5822SOL     OW18145   3.480   3.589   8.838
 5822SOL    HW118146   3.536   3.592   8.761
 5822SOL    HW218147   3.467   3.681   8.862
 5823SOL     OW18148   3.700   2.043   8.414
 5823SOL    HW118149   3.731   1.956   8.390
 5823SOL    HW218150   3.613   2.050   8.373
 5824SOL     OW18151   3.069   3.464   7.484
 5824SOL    HW118152   3.059   3.372   7.509
 5824SOL    HW218153   3.008   3.477   7.412
 5825SOL     OW18154   2.686   2.869   8.822
 5825SOL    HW118155   2.732   2.864   8.738
 5825SOL    HW218156   2.683   2.962   8.842
 5826SOL     OW18157   2.774   2.771   7.748
 5826SOL    HW118158   2.824   2.805   7.674
 5826SOL    HW218159   2.834   2.711   7.792
 5827SOL     OW18160   3.348   3.497   7.491
 5827SOL    HW118161   3.255   3.482   7.474
 5827SOL    HW218162   3.388   3.501   7.404
 5828SOL     OW18163   2.231   3.166   8.939
 5828SOL    HW118164   2.216   3.243   8.884
 5828SOL    HW218165   2.153   3.112   8.925
 5829SOL     OW18166   3.461   3.141   8.725
 5829SOL    HW118167   3.530   3.132   8.790
 5829SOL    HW218168   3.405   3.211   8.759
 5830SOL     OW18169   2.919   2.971   8.158
 5830SOL    HW118170   2.849   2.919   8.196
 5830SOL    HW218171   2.984   2.907   8.129
 5831SOL     OW18172   2.886   2.105   8.419
 5831SOL    HW118173   2.888   2.057   8.336
 5831SOL    HW218174   2.881   2.037   8.485
 5832SOL     OW18175   2.464   3.351   7.928
 5832SOL    HW118176   2.514   3.301   7.864
 5832SOL    HW218177   2.399   3.398   7.876
 5833SOL     OW18178   3.587   2.251   8.826
 5833SOL    HW118179   3.659   2.314   8.823
 5833SOL    HW218180   3.615   2.179   8.769
 5834SOL     OW18181   2.125   3.193   7.748
 5834SOL    HW118182   2.036   3.204   7.712
 5834SOL    HW218183   2.123   3.239   7.832
 5835SOL     OW18184   1.975   2.890   9.170
 5835SOL    HW118185   1.899   2.865   9.221
 5835SOL    HW218186   2.049   2.849   9.215
 5836SOL     OW18187   2.542   2.057   8.948
 5836SOL    HW118188   2.627   2.034   8.910
 5836SOL    HW218189   2.563   2.089   9.036
 5837SOL     OW18190   3.287   2.720   8.846
 5837SOL    HW118191   3.237   2.781   8.793
 5837SOL    HW218192   3.375   2.722   8.809
 5838SOL     OW18193   3.039   3.198   7.565
 5838SOL    HW118194   2.949   3.167   7.564
 5838SOL    HW218195   3.065   3.196   7.657
 5839SOL     OW18196   2.482   2.692   8.881
 5839SOL    HW118197   2.537   2.769   8.867
 5839SOL    HW218198   2.543   2.619   8.891
 5840SOL     OW18199   3.348   3.644   8.431
 5840SOL    HW118200   3.371   3.700   8.357
 5840SOL    HW218201   3.431   3.611   8.464
 5841SOL     OW18202   2.580   2.420   9.148
 5841SOL    HW118203   2.622   2.481   9.209
 5841SOL    HW218204   2.601   2.333   9.183
 5842SOL     OW18205   3.335   3.058   9.077
 5842SOL    HW118206   3.325   3.073   9.171
 5842SOL    HW218207   3.428   3.074   9.061
 5843SOL     OW18208   2.235   3.604   9.015
 5843SOL    HW118209   2.151   3.646   8.998
 5843SOL    HW218210   2.212   3.520   9.055
 5844SOL     OW18211   3.525   2.742   8.707
 5844SOL    HW118212   3.525   2.657   8.663
 5844SOL    HW218213   3.519   2.805   8.635
 5845SOL     OW18214   3.094   2.185   7.900
 5845SOL    HW118215   3.154   2.110   7.896
 5845SOL    HW218216   3.121   2.233   7.979
 5846SOL     OW18217   2.463   2.581   8.113
 5846SOL    HW118218   2.496   2.671   8.108
 5846SOL    HW218219   2.390   2.580   8.052
 5847SOL     OW18220   3.619   2.228   9.098
 5847SOL    HW118221   3.603   2.242   9.005
 5847SOL    HW218222   3.549   2.170   9.127
 5848SOL     OW18223   3.619   2.789   8.961
 5848SOL    HW118224   3.610   2.883   8.979
 5848SOL    HW218225   3.594   2.780   8.869
 5849SOL     OW18226   2.727   3.234   7.491
 5849SOL    HW118227   2.683   3.262   7.571
 5849SOL    HW218228   2.742   3.314   7.441
 5850SOL     OW18229   2.523   3.649   8.385
 5850SOL    HW118230   2.502   3.741   8.365
 5850SOL    HW218231   2.618   3.645   8.381
 5851SOL     OW18232   2.731   2.830   8.303
 5851SOL    HW118233   2.783   2.759   8.342
 5851SOL    HW218234   2.695   2.877   8.378
 5852SOL     OW18235   2.939   2.848   7.544
 5852SOL    HW118236   2.911   2.895   7.466
 5852SOL    HW218237   3.013   2.794   7.515
 5853SOL     OW18238   3.711   3.416   8.288
 5853SOL    HW118239   3.631   3.397   8.238
 5853SOL    HW218240   3.715   3.347   8.354
 5854SOL     OW18241   2.088   3.162   9.303
 5854SOL    HW118242   2.024   3.099   9.271
 5854SOL    HW218243   2.066   3.174   9.395
 5855SOL     OW18244   1.946   3.088   8.113
 5855SOL    HW118245   1.948   3.045   8.198
 5855SOL    HW218246   2.021   3.053   8.066
 5856SOL     OW18247   2.546   3.267   9.079
 5856SOL    HW118248   2.467   3.225   9.111
 5856SOL    HW218249   2.543   3.356   9.116
 5857SOL     OW18250   3.672   2.039   8.685
 5857SOL    HW118251   3.666   1.943   8.687
 5857SOL    HW218252   3.688   2.060   8.593
 5858SOL     OW18253   2.301   2.299   7.969
 5858SOL    HW118254   2.330   2.223   7.918
 5858SOL    HW218255   2.233   2.264   8.027
 5859SOL     OW18256   3.556   3.351   8.544
 5859SOL    HW118257   3.478   3.328   8.493
 5859SOL    HW218258   3.567   3.280   8.606
 5860SOL     OW18259   2.197   2.415   8.738
 5860SOL    HW118260   2.243   2.357   8.798
 5860SOL    HW218261   2.211   2.376   8.652
 5861SOL     OW18262   2.692   3.441   8.124
 5861SOL    HW118263   2.673   3.496   8.048
 5861SOL    HW218264   2.617   3.381   8.129
 5862SOL     OW18265   3.292   2.091   8.565
 5862SOL    HW118266   3.314   2.008   8.608
 5862SOL    HW218267   3.241   2.139   8.630
 5863SOL     OW18268   2.871   1.879   8.587
 5863SOL    HW118269   2.818   1.812   8.544
 5863SOL    HW218270   2.959   1.842   8.589
 5864SOL     OW18271   2.631   3.197   7.771
 5864SOL    HW118272   2.601   3.106   7.775
 5864SOL    HW218273   2.717   3.195   7.813
 5865SOL     OW18274   2.482   3.414   8.733
 5865SOL    HW118275   2.482   3.496   8.783
 5865SOL    HW218276   2.570   3.409   8.697
 5866SOL     OW18277   3.231   1.906   7.619
 5866SOL    HW118278   3.262   1.847   7.551
 5866SOL    HW218279   3.149   1.866   7.650
 5867SOL     OW18280   3.155   2.324   8.127
 5867SOL    HW118281   3.106   2.406   8.135
 5867SOL    HW218282   3.154   2.287   8.215
 5868SOL     OW18283   3.442   2.058   8.327
 5868SOL    HW118284   3.388   2.084   8.401
 5868SOL    HW218285   3.444   2.136   8.271
 5869SOL     OW18286   1.906   2.953   7.763
 5869SOL    HW118287   1.998   2.965   7.785
 5869SOL    HW218288   1.885   2.864   7.792
 5870SOL     OW18289   2.749   3.522   7.790
 5870SOL    HW118290   2.677   3.503   7.730
 5870SOL    HW218291   2.717   3.597   7.841
 5871SOL     OW18292   2.084   2.475   9.439
 5871SOL    HW118293   1.993   2.481   9.468
 5871SOL    HW218294   2.078   2.449   9.347
 5872SOL     OW18295   1.856   2.292   9.930
 5872SOL    HW118296   1.770   2.290   9.972
 5872SOL    HW218297   1.853   2.220   9.867
 5873SOL     OW18298   2.429   3.156  10.490
 5873SOL    HW118299   2.343   3.162  10.449
 5873SOL    HW218300   2.446   3.244  10.523
 5874SOL     OW18301   3.427   3.375  10.019
 5874SOL    HW118302   3.385   3.351  10.102
 5874SOL    HW218303   3.355   3.378   9.956
 5875SOL     OW18304   2.993   2.561  10.007
 5875SOL    HW118305   3.042   2.642   9.994
 5875SOL    HW218306   2.946   2.574  10.090
 5876SOL     OW18307   3.630   2.467   9.539
 5876SOL    HW118308   3.609   2.459   9.446
 5876SOL    HW218309   3.596   2.387   9.578
 5877SOL     OW18310   2.610   3.001  10.355
 5877SOL    HW118311   2.543   3.038  10.412
 5877SOL    HW218312   2.649   3.077  10.311
 5878SOL     OW18313   2.733   2.627  11.133
 5878SOL    HW118314   2.721   2.697  11.197
 5878SOL    HW218315   2.756   2.672  11.052
 5879SOL     OW18316   2.547   2.859   9.955
 5879SOL    HW118317   2.614   2.851  10.024
 5879SOL    HW218318   2.479   2.914   9.993
 5880SOL     OW18319   2.575   3.012  11.127
 5880SOL    HW118320   2.623   3.090  11.156
 5880SOL    HW218321   2.494   3.047  11.089
 5881SOL     OW18322   2.193   3.282  10.377
 5881SOL    HW118323   2.119   3.244  10.329
 5881SOL    HW218324   2.239   3.334  10.311
 5882SOL     OW18325   3.320   3.364  10.669
 5882SOL    HW118326   3.375   3.442  10.679
 5882SOL    HW218327   3.253   3.372  10.737
 5883SOL     OW18328   2.295   2.233  10.775
 5883SOL    HW118329   2.385   2.205  10.792
 5883SOL    HW218330   2.240   2.161  10.807
 5884SOL     OW18331   3.470   2.306  10.055
 5884SOL    HW118332   3.399   2.328   9.994
 5884SOL    HW218333   3.480   2.384  10.109
 5885SOL     OW18334   2.084   3.578   9.789
 5885SOL    HW118335   2.113   3.637   9.858
 5885SOL    HW218336   2.156   3.576   9.726
 5886SOL     OW18337   2.999   3.204  11.004
 5886SOL    HW118338   3.041   3.197  11.090
 5886SOL    HW218339   2.947   3.124  10.996
 5887SOL     OW18340   2.092   3.304   9.846
 5887SOL    HW118341   2.074   3.398   9.849
 5887SOL    HW218342   2.034   3.266   9.912
 5888SOL     OW18343   2.125   2.954  10.201
 5888SOL    HW118344   2.121   2.867  10.241
 5888SOL    HW218345   2.068   3.008  10.255
 5889SOL     OW18346   2.468   3.647  10.738
 5889SOL    HW118347   2.387   3.633  10.786
 5889SOL    HW218348   2.495   3.736  10.762
 5890SOL     OW18349   2.444   2.846   9.448
 5890SOL    HW118350   2.491   2.892   9.379
 5890SOL    HW218351   2.482   2.877   9.529
 5891SOL     OW18352   3.456   1.989  10.775
 5891SOL    HW118353   3.474   2.070  10.728
 5891SOL    HW218354   3.440   2.016  10.865
 5892SOL     OW18355   1.987   2.526   9.871
 5892SOL    HW118356   1.947   2.441   9.889
 5892SOL    HW218357   1.976   2.576   9.952
 5893SOL     OW18358   3.700   3.612   9.652
 5893SOL    HW118359   3.772   3.587   9.710
 5893SOL    HW218360   3.718   3.703   9.629
 5894SOL     OW18361   1.893   3.451   9.431
 5894SOL    HW118362   1.878   3.359   9.452
 5894SOL    HW218363   1.872   3.498   9.512
 5895SOL     OW18364   3.551   2.782   9.958
 5895SOL    HW118365   3.634   2.738   9.939
 5895SOL    HW218366   3.531   2.831   9.878
 5896SOL     OW18367   3.504   2.965   9.742
 5896SOL    HW118368   3.589   2.969   9.698
 5896SOL    HW218369   3.510   3.029   9.813
 5897SOL     OW18370   1.983   2.605  10.895
 5897SOL    HW118371   2.074   2.631  10.903
 5897SOL    HW218372   1.933   2.686  10.903
 5898SOL     OW18373   2.478   3.253  10.044
 5898SOL    HW118374   2.433   3.169  10.054
 5898SOL    HW218375   2.461   3.279   9.954
 5899SOL     OW18376   3.148   3.098  10.732
 5899SOL    HW118377   3.180   3.031  10.671
 5899SOL    HW218378   3.208   3.093  10.807
 5900SOL     OW18379   2.678   1.866   9.820
 5900SOL    HW118380   2.718   1.950   9.798
 5900SOL    HW218381   2.584   1.885   9.825
 5901SOL     OW18382   2.051   2.826  10.586
 5901SOL    HW118383   2.136   2.785  10.571
 5901SOL    HW218384   1.989   2.774  10.536
 5902SOL     OW18385   3.389   2.859   9.511
 5902SOL    HW118386   3.320   2.802   9.544
 5902SOL    HW218387   3.432   2.894   9.589
 5903SOL     OW18388   3.083   3.667  10.938
 5903SOL    HW118389   3.057   3.728  10.869
 5903SOL    HW218390   3.083   3.581  10.896
 5904SOL     OW18391   2.268   2.168  11.118
 5904SOL    HW118392   2.318   2.229  11.173
 5904SOL    HW218393   2.178   2.200  11.123
 5905SOL     OW18394   3.327   3.282  10.258
 5905SOL    HW118395   3.261   3.297  10.325
 5905SOL    HW218396   3.316   3.190  10.233
 5906SOL     OW18397   3.507   3.608   9.890
 5906SOL    HW118398   3.500   3.572   9.802
 5906SOL    HW218399   3.492   3.532   9.948
 5907SOL     OW18400   2.457   2.580   9.579
 5907SOL    HW118401   2.461   2.663   9.532
 5907SOL    HW218402   2.392   2.595   9.648
 5908SOL     OW18403   3.139   2.223  10.244
 5908SOL    HW118404   3.051   2.188  10.252
 5908SOL    HW218405   3.193   2.169  10.302
 5909SOL     OW18406   3.435   3.539   9.618
 5909SOL    HW118407   3.528   3.562   9.614
 5909SOL    HW218408   3.410   3.520   9.528
 5910SOL     OW18409   2.653   2.480  10.757
 5910SOL    HW118410   2.629   2.454  10.846
 5910SOL    HW218411   2.617   2.410  10.702
 5911SOL     OW18412   3.255   2.336  10.988
 5911SOL    HW118413   3.259   2.380  11.073
 5911SOL    HW218414   3.313   2.260  10.998
 5912SOL     OW18415   2.813   2.748  10.895
 5912SOL    HW118416   2.868   2.679  10.857
 5912SOL    HW218417   2.765   2.784  10.820
 5913SOL     OW18418   2.855   2.274  10.545
 5913SOL    HW118419   2.767   2.291  10.578
 5913SOL    HW218420   2.842   2.229  10.462
 5914SOL     OW18421   2.915   2.561   9.735
 5914SOL    HW118422   2.933   2.554   9.829
 5914SOL    HW218423   2.832   2.515   9.723
 5915SOL     OW18424   1.950   2.687  10.089
 5915SOL    HW118425   2.031   2.681  10.140
 5915SOL    HW218426   1.905   2.764  10.124
 5916SOL     OW18427   1.981   3.713  10.887
 5916SOL    HW118428   1.986   3.692  10.981
 5916SOL    HW218429   1.888   3.702  10.865
 5917SOL     OW18430   2.758   2.215   9.508
 5917SOL    HW118431   2.801   2.274   9.446
 5917SOL    HW218432   2.753   2.132   9.463
 5918SOL     OW18433   3.570   2.434  11.139
 5918SOL    HW118434   3.533   2.508  11.090
 5918SOL    HW218435   3.595   2.371  11.072
 5919SOL     OW18436   3.239   3.003   9.850
 5919SOL    HW118437   3.319   2.991   9.799
 5919SOL    HW218438   3.187   3.066   9.799
 5920SOL     OW18439   2.415   2.053  10.203
 5920SOL    HW118440   2.409   2.072  10.297
 5920SOL    HW218441   2.431   2.138  10.163
 5921SOL     OW18442   2.864   3.307   9.780
 5921SOL    HW118443   2.829   3.381   9.731
 5921SOL    HW218444   2.842   3.326   9.871
 5922SOL     OW18445   2.213   3.674  10.148
 5922SOL    HW118446   2.263   3.595  10.167
 5922SOL    HW218447   2.272   3.746  10.172
 5923SOL     OW18448   3.668   2.922  10.178
 5923SOL    HW118449   3.616   2.895  10.103
 5923SOL    HW218450   3.606   2.926  10.251
 5924SOL     OW18451   3.089   3.400  10.822
 5924SOL    HW118452   3.077   3.327  10.883
 5924SOL    HW218453   3.021   3.387  10.756
 5925SOL     OW18454   2.179   2.822   9.564
 5925SOL    HW118455   2.261   2.841   9.518
 5925SOL    HW218456   2.148   2.740   9.524
 5926SOL     OW18457   3.342   2.610  10.034
 5926SOL    HW118458   3.338   2.569  10.120
 5926SOL    HW218459   3.421   2.665  10.038
 5927SOL     OW18460   2.331   3.128  11.047
 5927SOL    HW118461   2.304   3.133  10.955
 5927SOL    HW218462   2.248   3.126  11.096
 5928SOL     OW18463   2.977   3.644   9.531
 5928SOL    HW118464   2.911   3.599   9.584
 5928SOL    HW218465   3.007   3.577   9.469
 5929SOL     OW18466   3.486   3.248   9.399
 5929SOL    HW118467   3.443   3.331   9.381
 5929SOL    HW218468   3.419   3.182   9.379
 5930SOL     OW18469   2.328   3.598   9.635
 5930SOL    HW118470   2.367   3.662   9.695
 5930SOL    HW218471   2.400   3.572   9.578
 5931SOL     OW18472   3.263   1.969   9.748
 5931SOL    HW118473   3.256   1.944   9.656
 5931SOL    HW218474   3.357   1.975   9.765
 5932SOL     OW18475   2.123   3.653  10.531
 5932SOL    HW118476   2.169   3.582  10.576
 5932SOL    HW218477   2.106   3.619  10.443
 5933SOL     OW18478   2.800   3.564  10.209
 5933SOL    HW118479   2.878   3.512  10.231
 5933SOL    HW218480   2.757   3.514  10.139
 5934SOL     OW18481   2.258   2.556   9.784
 5934SOL    HW118482   2.276   2.463   9.796
 5934SOL    HW218483   2.165   2.565   9.801
 5935SOL     OW18484   3.393   2.087  11.035
 5935SOL    HW118485   3.403   2.107  11.128
 5935SOL    HW218486   3.325   2.019  11.032
 5936SOL     OW18487   2.517   1.981   9.421
 5936SOL    HW118488   2.574   1.906   9.435
 5936SOL    HW218489   2.456   1.953   9.352
 5937SOL     OW18490   2.626   2.140  11.067
 5937SOL    HW118491   2.706   2.087  11.063
 5937SOL    HW218492   2.579   2.106  11.143
 5938SOL     OW18493   2.738   3.383  10.505
 5938SOL    HW118494   2.721   3.346  10.418
 5938SOL    HW218495   2.808   3.328  10.541
 5939SOL     OW18496   3.201   2.451  10.743
 5939SOL    HW118497   3.232   2.420  10.828
 5939SOL    HW218498   3.238   2.539  10.735
 5940SOL     OW18499   2.680   3.253  10.254
 5940SOL    HW118500   2.764   3.241  10.211
 5940SOL    HW218501   2.616   3.258  10.183
 5941SOL     OW18502   2.790   2.370  10.211
 5941SOL    HW118503   2.765   2.362  10.119
 5941SOL    HW218504   2.822   2.283  10.235
 5942SOL     OW18505   2.409   1.928   9.811
 5942SOL    HW118506   2.352   1.942   9.887
 5942SOL    HW218507   2.394   2.004   9.755
 5943SOL     OW18508   3.289   3.062   9.350
 5943SOL    HW118509   3.320   2.987   9.400
 5943SOL    HW218510   3.204   3.083   9.387
 5944SOL     OW18511   2.803   2.112   9.767
 5944SOL    HW118512   2.779   2.150   9.683
 5944SOL    HW218513   2.898   2.125   9.773
 5945SOL     OW18514   2.943   2.545  10.768
 5945SOL    HW118515   2.878   2.475  10.773
 5945SOL    HW218516   3.027   2.499  10.762
 5946SOL     OW18517   3.082   3.433  10.104
 5946SOL    HW118518   3.097   3.500  10.037
 5946SOL    HW218519   3.152   3.446  10.168
 5947SOL     OW18520   2.334   3.014  10.039
 5947SOL    HW118521   2.266   2.995  10.103
 5947SOL    HW218522   2.291   3.000   9.954
 5948SOL     OW18523   3.126   3.655   9.919
 5948SOL    HW118524   3.174   3.720   9.867
 5948SOL    HW218525   3.053   3.704   9.957
 5949SOL     OW18526   2.886   2.398   9.335
 5949SOL    HW118527   2.842   2.481   9.316
 5949SOL    HW218528   2.951   2.420   9.402
 5950SOL     OW18529   1.940   2.424  10.696
 5950SOL    HW118530   2.033   2.420  10.675
 5950SOL    HW218531   1.934   2.488  10.767
 5951SOL     OW18532   2.411   2.081  10.482
 5951SOL    HW118533   2.463   2.005  10.508
 5951SOL    HW218534   2.329   2.073  10.531
 5952SOL     OW18535   2.725   2.318   9.949
 5952SOL    HW118536   2.685   2.375   9.883
 5952SOL    HW218537   2.751   2.240   9.900
 5953SOL     OW18538   2.876   1.918  10.060
 5953SOL    HW118539   2.820   1.910   9.982
 5953SOL    HW218540   2.854   1.841  10.113
 5954SOL     OW18541   3.302   3.023  10.167
 5954SOL    HW118542   3.231   2.959  10.166
 5954SOL    HW218543   3.327   3.031  10.075
 5955SOL     OW18544   3.327   2.472  10.281
 5955SOL    HW118545   3.273   2.392  10.283
 5955SOL    HW218546   3.385   2.463  10.356
 5956SOL     OW18547   3.723   2.678   9.685
 5956SOL    HW118548   3.767   2.622   9.749
 5956SOL    HW218549   3.687   2.616   9.621
 5957SOL     OW18550   2.352   3.281   9.462
 5957SOL    HW118551   2.276   3.254   9.514
 5957SOL    HW218552   2.342   3.235   9.379
 5958SOL     OW18553   3.530   3.128   9.952
 5958SOL    HW118554   3.625   3.129   9.963
 5958SOL    HW218555   3.502   3.217   9.974
 5959SOL     OW18556   3.256   2.434   9.381
 5959SOL    HW118557   3.194   2.414   9.451
 5959SOL    HW218558   3.340   2.403   9.414
 5960SOL     OW18559   2.385   2.127   9.624
 5960SOL    HW118560   2.433   2.076   9.559
 5960SOL    HW218561   2.361   2.208   9.578
 5961SOL     OW18562   3.612   3.096  10.873
 5961SOL    HW118563   3.700   3.061  10.856
 5961SOL    HW218564   3.628   3.186  10.902
 5962SOL     OW18565   2.918   3.214  10.642
 5962SOL    HW118566   2.843   3.183  10.692
 5962SOL    HW218567   2.993   3.173  10.683
 5963SOL     OW18568   3.469   3.492  10.968
 5963SOL    HW118569   3.459   3.525  10.879
 5963SOL    HW218570   3.549   3.439  10.965
 5964SOL     OW18571   2.995   3.070  10.412
 5964SOL    HW118572   2.936   3.108  10.477
 5964SOL    HW218573   2.964   3.104  10.329
 5965SOL     OW18574   3.489   2.957  10.384
 5965SOL    HW118575   3.480   3.019  10.457
 5965SOL    HW218576   3.413   2.973  10.329
 5966SOL     OW18577   2.779   1.957  10.702
 5966SOL    HW118578   2.803   1.938  10.612
 5966SOL    HW218579   2.858   1.996  10.740
 5967SOL     OW18580   2.846   2.977  11.033
 5967SOL    HW118581   2.755   2.993  11.056
 5967SOL    HW218582   2.843   2.898  10.978
 5968SOL     OW18583   2.572   2.924   9.681
 5968SOL    HW118584   2.557   2.904   9.774
 5968SOL    HW218585   2.647   2.870   9.657
 5969SOL     OW18586   2.282   2.677  10.561
 5969SOL    HW118587   2.349   2.688  10.628
 5969SOL    HW218588   2.248   2.588  10.577
 5970SOL     OW18589   3.126   2.237  10.590
 5970SOL    HW118590   3.159   2.315  10.635
 5970SOL    HW218591   3.035   2.259  10.567
 5971SOL     OW18592   1.935   3.435  10.665
 5971SOL    HW118593   1.908   3.510  10.612
 5971SOL    HW218594   2.031   3.436  10.659
 5972SOL     OW18595   2.203   2.977   9.799
 5972SOL    HW118596   2.207   3.051   9.739
 5972SOL    HW218597   2.201   2.900   9.743
 5973SOL     OW18598   2.406   2.394  10.172
 5973SOL    HW118599   2.419   2.452  10.097
 5973SOL    HW218600   2.474   2.421  10.235
 5974SOL     OW18601   3.109   3.212   9.700
 5974SOL    HW118602   3.165   3.282   9.731
 5974SOL    HW218603   3.022   3.233   9.733
 5975SOL     OW18604   3.148   3.322  10.458
 5975SOL    HW118605   3.204   3.327  10.536
 5975SOL    HW218606   3.093   3.245  10.473
 5976SOL     OW18607   3.439   2.481   9.794
 5976SOL    HW118608   3.391   2.532   9.858
 5976SOL    HW218609   3.481   2.546   9.737
 5977SOL     OW18610   2.207   3.392  10.620
 5977SOL    HW118611   2.196   3.347  10.537
 5977SOL    HW218612   2.302   3.403  10.629
 5978SOL     OW18613   2.278   2.610  10.914
 5978SOL    HW118614   2.341   2.652  10.855
 5978SOL    HW218615   2.319   2.528  10.939
 5979SOL     OW18616   3.468   2.641  10.994
 5979SOL    HW118617   3.382   2.684  10.989
 5979SOL    HW218618   3.521   2.684  10.927
 5980SOL     OW18619   2.857   1.992  11.061
 5980SOL    HW118620   2.917   2.064  11.040
 5980SOL    HW218621   2.905   1.913  11.037
 5981SOL     OW18622   2.371   1.907  11.063
 5981SOL    HW118623   2.313   1.856  11.006
 5981SOL    HW218624   2.330   1.993  11.069
 5982SOL     OW18625   2.447   2.735  10.343
 5982SOL    HW118626   2.480   2.825  10.343
 5982SOL    HW218627   2.390   2.730  10.419
 5983SOL     OW18628   3.213   2.721  10.334
 5983SOL    HW118629   3.128   2.707  10.292
 5983SOL    HW218630   3.258   2.637  10.326
 5984SOL     OW18631   3.063   2.389   9.573
 5984SOL    HW118632   3.071   2.311   9.627
 5984SOL    HW218633   3.021   2.454   9.630
 5985SOL     OW18634   1.908   3.173  10.585
 5985SOL    HW118635   1.940   3.118  10.656
 5985SOL    HW218636   1.914   3.263  10.619
 5986SOL     OW18637   2.580   2.488  10.363
 5986SOL    HW118638   2.659   2.475  10.310
 5986SOL    HW218639   2.555   2.579  10.346
 5987SOL     OW18640   3.592   2.821  11.173
 5987SOL    HW118641   3.552   2.755  11.117
 5987SOL    HW218642   3.528   2.836  11.243
 5988SOL     OW18643   3.483   2.240   9.672
 5988SOL    HW118644   3.509   2.174   9.737
 5988SOL    HW218645   3.459   2.316   9.725
 5989SOL     OW18646   2.890   2.620  10.269
 5989SOL    HW118647   2.883   2.637  10.362
 5989SOL    HW218648   2.864   2.528  10.259
 5990SOL     OW18649   2.848   3.430  11.032
 5990SOL    HW118650   2.828   3.471  10.947
 5990SOL    HW218651   2.889   3.347  11.009
 5991SOL     OW18652   3.704   3.359  10.907
 5991SOL    HW118653   3.728   3.389  10.820
 5991SOL    HW218654   3.784   3.367  10.959
 5992SOL     OW18655   2.214   2.779  11.122
 5992SOL    HW118656   2.296   2.798  11.167
 5992SOL    HW218657   2.238   2.718  11.053
 5993SOL     OW18658   3.390   2.134   9.437
 5993SOL    HW118659   3.325   2.069   9.464
 5993SOL    HW218660   3.423   2.170   9.519
 5994SOL     OW18661   3.150   2.686   9.339
 5994SOL    HW118662   3.193   2.601   9.343
 5994SOL    HW218663   3.183   2.726   9.258
 5995SOL     OW18664   2.929   3.200  10.166
 5995SOL    HW118665   2.934   3.127  10.103
 5995SOL    HW218666   2.988   3.266  10.130
 5996SOL     OW18667   2.171   2.673  10.256
 5996SOL    HW118668   2.264   2.694  10.247
 5996SOL    HW218669   2.171   2.584  10.293
 5997SOL     OW18670   2.183   2.366  10.319
 5997SOL    HW118671   2.141   2.295  10.271
 5997SOL    HW218672   2.264   2.382  10.272
 5998SOL     OW18673   2.996   2.236  10.994
 5998SOL    HW118674   2.948   2.290  11.057
 5998SOL    HW218675   3.083   2.275  10.990
 5999SOL     OW18676   3.022   2.062  10.781
 5999SOL    HW118677   3.011   2.124  10.852
 5999SOL    HW218678   3.064   2.112  10.711
 6000SOL     OW18679   1.868   3.180   9.504
 6000SOL    HW118680   1.781   3.195   9.468
 6000SOL    HW218681   1.864   3.090   9.539
 6001SOL     OW18682   1.960   3.638  10.249
 6001SOL    HW118683   1.928   3.560  10.203
 6001SOL    HW218684   2.044   3.658  10.208
 6002SOL     OW18685   2.354   3.438  10.215
 6002SOL    HW118686   2.422   3.501  10.239
 6002SOL    HW218687   2.399   3.376  10.158
 6003SOL     OW18688   2.838   2.650  10.534
 6003SOL    HW118689   2.899   2.631  10.606
 6003SOL    HW218690   2.754   2.614  10.564
 6004SOL     OW18691   1.901   2.397  10.427
 6004SOL    HW118692   1.986   2.403  10.383
 6004SOL    HW218693   1.922   2.410  10.520
 6005SOL     OW18694   2.071   2.384  11.042
 6005SOL    HW118695   2.122   2.354  10.967
 6005SOL    HW218696   2.009   2.447  11.006
 6006SOL     OW18697   3.242   2.797  10.968
 6006SOL    HW118698   3.263   2.891  10.965
 6006SOL    HW218699   3.238   2.770  10.876
 6007SOL     OW18700   2.679   2.432   9.678
 6007SOL    HW118701   2.686   2.359   9.617
 6007SOL    HW218702   2.605   2.483   9.644
 6008SOL     OW18703   3.501   2.463  10.492
 6008SOL    HW118704   3.490   2.403  10.565
 6008SOL    HW218705   3.588   2.443  10.457
 6009SOL     OW18706   2.103   3.410  11.033
 6009SOL    HW118707   2.080   3.477  11.098
 6009SOL    HW218708   2.108   3.329  11.083
 6010SOL     OW18709   2.567   2.307  10.566
 6010SOL    HW118710   2.511   2.235  10.538
 6010SOL    HW218711   2.561   2.370  10.494
 6011SOL     OW18712   2.787   3.533  10.780
 6011SOL    HW118713   2.761   3.494  10.697
 6011SOL    HW218714   2.779   3.627  10.766
 6012SOL     OW18715   2.325   2.355   9.487
 6012SOL    HW118716   2.383   2.427   9.514
 6012SOL    HW218717   2.239   2.395   9.480
 6013SOL     OW18718   2.005   3.005  10.784
 6013SOL    HW118719   2.006   2.955  10.866
 6013SOL    HW218720   2.023   2.939  10.716
 6014SOL     OW18721   3.182   2.906  10.531
 6014SOL    HW118722   3.205   2.843  10.462
 6014SOL    HW218723   3.116   2.961  10.491
 6015SOL     OW18724   3.175   2.718   9.615
 6015SOL    HW118725   3.101   2.687   9.666
 6015SOL    HW218726   3.149   2.704   9.524
 6016SOL     OW18727   3.641   3.601  10.466
 6016SOL    HW118728   3.699   3.627  10.395
 6016SOL    HW218729   3.612   3.512  10.443
 6017SOL     OW18730   3.106   3.595  10.418
 6017SOL    HW118731   3.189   3.617  10.375
 6017SOL    HW218732   3.113   3.501  10.438
 6018SOL     OW18733   1.948   3.128  10.321
 6018SOL    HW118734   1.932   3.142  10.414
 6018SOL    HW218735   1.875   3.073  10.292
 6019SOL     OW18736   2.541   3.527  11.045
 6019SOL    HW118737   2.483   3.604  11.049
 6019SOL    HW218738   2.602   3.547  10.974
 6020SOL     OW18739   3.570   2.014   9.821
 6020SOL    HW118740   3.638   2.002   9.755
 6020SOL    HW218741   3.560   1.928   9.861
 6021SOL     OW18742   3.252   3.430   9.799
 6021SOL    HW118743   3.311   3.464   9.731
 6021SOL    HW218744   3.204   3.507   9.829
 6022SOL     OW18745   1.998   3.651  11.148
 6022SOL    HW118746   1.946   3.587  11.197
 6022SOL    HW218747   2.046   3.699  11.215
 6023SOL     OW18748   3.139   2.789   9.981
 6023SOL    HW118749   3.213   2.729   9.991
 6023SOL    HW218750   3.173   2.861   9.928
 6024SOL     OW18751   2.670   3.137  10.736
 6024SOL    HW118752   2.642   3.177  10.819
 6024SOL    HW218753   2.600   3.159  10.674
 6025SOL     OW18754   2.536   3.481   9.468
 6025SOL    HW118755   2.546   3.499   9.375
 6025SOL    HW218756   2.477   3.405   9.472
 6026SOL     OW18757   3.480   3.589  10.700
 6026SOL    HW118758   3.536   3.592  10.623
 6026SOL    HW218759   3.467   3.681  10.724
 6027SOL     OW18760   3.700   2.043  10.276
 6027SOL    HW118761   3.731   1.956  10.252
 6027SOL    HW218762   3.614   2.050  10.236
 6028SOL     OW18763   3.070   3.465   9.346
 6028SOL    HW118764   3.059   3.373   9.371
 6028SOL    HW218765   3.008   3.477   9.274
 6029SOL     OW18766   2.686   2.868  10.684
 6029SOL    HW118767   2.730   2.864  10.599
 6029SOL    HW218768   2.683   2.962  10.704
 6030SOL     OW18769   2.779   2.772   9.601
 6030SOL    HW118770   2.839   2.805   9.534
 6030SOL    HW218771   2.828   2.704   9.646
 6031SOL     OW18772   3.349   3.496   9.353
 6031SOL    HW118773   3.256   3.482   9.336
 6031SOL    HW218774   3.388   3.500   9.266
 6032SOL     OW18775   2.230   3.166  10.801
 6032SOL    HW118776   2.217   3.243  10.746
 6032SOL    HW218777   2.153   3.112  10.787
 6033SOL     OW18778   3.461   3.142  10.587
 6033SOL    HW118779   3.530   3.132  10.653
 6033SOL    HW218780   3.405   3.211  10.621
 6034SOL     OW18781   2.920   2.971  10.019
 6034SOL    HW118782   2.848   2.920  10.057
 6034SOL    HW218783   2.984   2.906   9.991
 6035SOL     OW18784   2.884   2.103  10.277
 6035SOL    HW118785   2.881   2.056  10.193
 6035SOL    HW218786   2.880   2.034  10.343
 6036SOL     OW18787   2.467   3.353   9.789
 6036SOL    HW118788   2.514   3.302   9.723
 6036SOL    HW218789   2.397   3.396   9.741
 6037SOL     OW18790   3.587   2.251  10.688
 6037SOL    HW118791   3.659   2.314  10.685
 6037SOL    HW218792   3.615   2.179  10.631
 6038SOL     OW18793   2.123   3.205   9.601
 6038SOL    HW118794   2.030   3.201   9.577
 6038SOL    HW218795   2.124   3.244   9.688
 6039SOL     OW18796   1.975   2.889  11.032
 6039SOL    HW118797   1.899   2.864  11.083
 6039SOL    HW218798   2.049   2.849  11.077
 6040SOL     OW18799   2.538   2.060  10.810
 6040SOL    HW118800   2.623   2.037  10.770
 6040SOL    HW218801   2.561   2.090  10.898
 6041SOL     OW18802   3.287   2.720  10.708
 6041SOL    HW118803   3.237   2.781  10.654
 6041SOL    HW218804   3.375   2.722  10.671
 6042SOL     OW18805   3.039   3.198   9.428
 6042SOL    HW118806   2.948   3.168   9.429
 6042SOL    HW218807   3.066   3.198   9.519
 6043SOL     OW18808   2.482   2.693  10.744
 6043SOL    HW118809   2.538   2.769  10.729
 6043SOL    HW218810   2.542   2.619  10.751
 6044SOL     OW18811   3.348   3.644  10.293
 6044SOL    HW118812   3.371   3.700  10.219
 6044SOL    HW218813   3.431   3.611  10.326
 6045SOL     OW18814   2.578   2.421  11.010
 6045SOL    HW118815   2.622   2.482  11.070
 6045SOL    HW218816   2.600   2.334  11.044
 6046SOL     OW18817   3.335   3.058  10.939
 6046SOL    HW118818   3.325   3.073  11.033
 6046SOL    HW218819   3.428   3.074  10.923
 6047SOL     OW18820   2.235   3.604  10.877
 6047SOL    HW118821   2.151   3.646  10.860
 6047SOL    HW218822   2.212   3.520  10.917
 6048SOL     OW18823   3.526   2.742  10.569
 6048SOL    HW118824   3.525   2.656  10.526
 6048SOL    HW218825   3.519   2.805  10.497
 6049SOL     OW18826   3.078   2.181   9.767
 6049SOL    HW118827   3.140   2.109   9.760
 6049SOL    HW218828   3.107   2.231   9.844
 6050SOL     OW18829   2.446   2.597   9.985
 6050SOL    HW118830   2.488   2.681   9.970
 6050SOL    HW218831   2.382   2.589   9.914
 6051SOL     OW18832   3.619   2.228  10.960
 6051SOL    HW118833   3.603   2.241  10.867
 6051SOL    HW218834   3.549   2.170  10.989
 6052SOL     OW18835   3.620   2.789  10.823
 6052SOL    HW118836   3.609   2.883  10.841
 6052SOL    HW218837   3.594   2.780  10.731
 6053SOL     OW18838   2.726   3.229   9.351
 6053SOL    HW118839   2.685   3.256   9.433
 6053SOL    HW218840   2.740   3.310   9.303
 6054SOL     OW18841   2.523   3.650  10.247
 6054SOL    HW118842   2.502   3.741  10.227
 6054SOL    HW218843   2.618   3.645  10.243
 6055SOL     OW18844   2.731   2.832  10.164
 6055SOL    HW118845   2.781   2.759  10.202
 6055SOL    HW218846   2.694   2.877  10.240
 6056SOL     OW18847   2.940   2.851   9.399
 6056SOL    HW118848   2.918   2.902   9.321
 6056SOL    HW218849   3.014   2.796   9.372
 6057SOL     OW18850   3.711   3.416  10.150
 6057SOL    HW118851   3.631   3.397  10.101
 6057SOL    HW218852   3.715   3.348  10.217
 6058SOL     OW18853   2.088   3.162  11.165
 6058SOL    HW118854   2.023   3.099  11.133
 6058SOL    HW218855   2.066   3.174  11.257
 6059SOL     OW18856   1.949   3.092   9.975
 6059SOL    HW118857   1.959   3.046  10.059
 6059SOL    HW218858   2.016   3.053   9.919
 6060SOL     OW18859   2.546   3.267  10.941
 6060SOL    HW118860   2.466   3.225  10.973
 6060SOL    HW218861   2.543   3.356  10.978
 6061SOL     OW18862   3.673   2.039  10.547
 6061SOL    HW118863   3.665   1.943  10.549
 6061SOL    HW218864   3.689   2.060  10.455
 6062SOL     OW18865   2.295   2.293   9.833
 6062SOL    HW118866   2.327   2.233   9.765
 6062SOL    HW218867   2.237   2.238   9.887
 6063SOL     OW18868   3.556   3.351  10.406
 6063SOL    HW118869   3.478   3.328  10.355
 6063SOL    HW218870   3.567   3.280  10.468
 6064SOL     OW18871   2.195   2.417  10.598
 6064SOL    HW118872   2.239   2.354  10.656
 6064SOL    HW218873   2.209   2.382  10.510
 6065SOL     OW18874   2.691   3.441   9.986
 6065SOL    HW118875   2.671   3.494   9.910
 6065SOL    HW218876   2.618   3.380   9.993
 6066SOL     OW18877   3.292   2.091  10.427
 6066SOL    HW118878   3.311   2.007  10.468
 6066SOL    HW218879   3.241   2.139  10.492
 6067SOL     OW18880   2.870   1.878  10.448
 6067SOL    HW118881   2.816   1.811  10.406
 6067SOL    HW218882   2.958   1.841  10.450
 6068SOL     OW18883   2.635   3.195   9.630
 6068SOL    HW118884   2.606   3.104   9.637
 6068SOL    HW218885   2.718   3.197   9.679
 6069SOL     OW18886   2.482   3.415  10.595
 6069SOL    HW118887   2.482   3.496  10.645
 6069SOL    HW218888   2.570   3.409  10.558
 6070SOL     OW18889   3.218   1.914   9.479
 6070SOL    HW118890   3.250   1.845   9.421
 6070SOL    HW218891   3.129   1.888   9.502
 6071SOL     OW18892   3.156   2.325   9.989
 6071SOL    HW118893   3.105   2.405   9.994
 6071SOL    HW218894   3.153   2.287  10.077
 6072SOL     OW18895   3.443   2.059  10.189
 6072SOL    HW118896   3.388   2.084  10.263
 6072SOL    HW218897   3.444   2.136  10.133
 6073SOL     OW18898   1.905   2.929   9.618
 6073SOL    HW118899   1.998   2.921   9.600
 6073SOL    HW218900   1.877   2.840   9.640
 6074SOL     OW18901   2.749   3.523   9.652
 6074SOL    HW118902   2.678   3.504   9.591
 6074SOL    HW218903   2.718   3.597   9.703
 6075SOL     OW18904   2.083   2.476  11.302
 6075SOL    HW118905   1.993   2.481  11.332
 6075SOL    HW218906   2.077   2.449  11.210
 6076SOL     OW18907   1.854   2.292  11.793
 6076SOL    HW118908   1.768   2.292  11.837
 6076SOL    HW218909   1.849   2.220  11.731
 6077SOL     OW18910   2.429   3.156  12.352
 6077SOL    HW118911   2.343   3.162  12.311
 6077SOL    HW218912   2.446   3.244  12.386
 6078SOL     OW18913   3.427   3.375  11.881
 6078SOL    HW118914   3.385   3.351  11.964
 6078SOL    HW218915   3.355   3.378  11.818
 6079SOL     OW18916   2.993   2.561  11.869
 6079SOL    HW118917   3.042   2.642  11.856
 6079SOL    HW218918   2.946   2.574  11.952
 6080SOL     OW18919   3.630   2.467  11.401
 6080SOL    HW118920   3.609   2.459  11.308
 6080SOL    HW218921   3.596   2.387  11.440
 6081SOL     OW18922   2.610   3.001  12.217
 6081SOL    HW118923   2.543   3.038  12.274
 6081SOL    HW218924   2.649   3.077  12.173
 6082SOL     OW18925   2.733   2.627  12.995
 6082SOL    HW118926   2.721   2.698  13.058
 6082SOL    HW218927   2.756   2.672  12.913
 6083SOL     OW18928   2.547   2.859  11.817
 6083SOL    HW118929   2.613   2.851  11.886
 6083SOL    HW218930   2.479   2.914  11.855
 6084SOL     OW18931   2.575   3.012  12.988
 6084SOL    HW118932   2.623   3.090  13.018
 6084SOL    HW218933   2.494   3.047  12.950
 6085SOL     OW18934   2.193   3.282  12.239
 6085SOL    HW118935   2.119   3.244  12.191
 6085SOL    HW218936   2.239   3.334  12.173
 6086SOL     OW18937   3.320   3.364  12.531
 6086SOL    HW118938   3.375   3.442  12.541
 6086SOL    HW218939   3.253   3.372  12.599
 6087SOL     OW18940   2.297   2.234  12.636
 6087SOL    HW118941   2.388   2.206  12.651
 6087SOL    HW218942   2.244   2.165  12.677
 6088SOL     OW18943   3.470   2.306  11.917
 6088SOL    HW118944   3.399   2.328  11.856
 6088SOL    HW218945   3.480   2.384  11.971
 6089SOL     OW18946   2.084   3.578  11.651
 6089SOL    HW118947   2.113   3.637  11.720
 6089SOL    HW218948   2.156   3.576  11.588
 6090SOL     OW18949   2.999   3.204  12.866
 6090SOL    HW118950   3.040   3.197  12.952
 6090SOL    HW218951   2.947   3.124  12.858
 6091SOL     OW18952   2.092   3.304  11.708
 6091SOL    HW118953   2.074   3.398  11.711
 6091SOL    HW218954   2.034   3.266  11.774
 6092SOL     OW18955   2.125   2.954  12.063
 6092SOL    HW118956   2.121   2.867  12.103
 6092SOL    HW218957   2.068   3.008  12.117
 6093SOL     OW18958   2.468   3.648  12.599
 6093SOL    HW118959   2.387   3.633  12.648
 6093SOL    HW218960   2.495   3.736  12.624
 6094SOL     OW18961   2.444   2.846  11.309
 6094SOL    HW118962   2.491   2.892  11.241
 6094SOL    HW218963   2.482   2.877  11.391
 6095SOL     OW18964   3.456   1.989  12.637
 6095SOL    HW118965   3.474   2.070  12.590
 6095SOL    HW218966   3.440   2.016  12.727
 6096SOL     OW18967   1.986   2.526  11.733
 6096SOL    HW118968   1.946   2.441  11.751
 6096SOL    HW218969   1.975   2.575  11.814
 6097SOL     OW18970   3.700   3.612  11.514
 6097SOL    HW118971   3.772   3.587  11.572
 6097SOL    HW218972   3.718   3.703  11.491
 6098SOL     OW18973   1.893   3.451  11.293
 6098SOL    HW118974   1.878   3.359  11.314
 6098SOL    HW218975   1.872   3.498  11.374
 6099SOL     OW18976   3.551   2.782  11.820
 6099SOL    HW118977   3.634   2.738  11.801
 6099SOL    HW218978   3.531   2.831  11.740
 6100SOL     OW18979   3.504   2.965  11.604
 6100SOL    HW118980   3.589   2.969  11.560
 6100SOL    HW218981   3.510   3.029  11.675
 6101SOL     OW18982   1.983   2.605  12.757
 6101SOL    HW118983   2.074   2.631  12.766
 6101SOL    HW218984   1.933   2.686  12.765
 6102SOL     OW18985   2.478   3.252  11.906
 6102SOL    HW118986   2.433   3.169  11.916
 6102SOL    HW218987   2.461   3.279  11.816
 6103SOL     OW18988   3.148   3.098  12.594
 6103SOL    HW118989   3.180   3.031  12.533
 6103SOL    HW218990   3.208   3.093  12.669
 6104SOL     OW18991   2.678   1.866  11.682
 6104SOL    HW118992   2.718   1.950  11.660
 6104SOL    HW218993   2.584   1.885  11.687
 6105SOL     OW18994   2.052   2.827  12.448
 6105SOL    HW118995   2.136   2.785  12.432
 6105SOL    HW218996   1.989   2.774  12.398
 6106SOL     OW18997   3.389   2.859  11.373
 6106SOL    HW118998   3.320   2.802  11.406
 6106SOL    HW218999   3.432   2.894  11.451
 6107SOL     OW19000   3.083   3.667  12.800
 6107SOL    HW119001   3.057   3.728  12.730
 6107SOL    HW219002   3.083   3.581  12.758
 6108SOL     OW19003   2.266   2.168  12.978
 6108SOL    HW119004   2.316   2.226  13.036
 6108SOL    HW219005   2.177   2.202  12.981
 6109SOL     OW19006   3.327   3.282  12.120
 6109SOL    HW119007   3.261   3.297  12.187
 6109SOL    HW219008   3.316   3.190  12.095
 6110SOL     OW19009   3.508   3.608  11.752
 6110SOL    HW119010   3.500   3.572  11.664
 6110SOL    HW219011   3.492   3.532  11.809
 6111SOL     OW19012   2.456   2.579  11.440
 6111SOL    HW119013   2.461   2.662  11.393
 6111SOL    HW219014   2.391   2.594  11.509
 6112SOL     OW19015   3.139   2.223  12.106
 6112SOL    HW119016   3.051   2.188  12.114
 6112SOL    HW219017   3.193   2.169  12.164
 6113SOL     OW19018   3.435   3.539  11.480
 6113SOL    HW119019   3.528   3.562  11.476
 6113SOL    HW219020   3.410   3.520  11.390
 6114SOL     OW19021   2.653   2.480  12.619
 6114SOL    HW119022   2.629   2.454  12.708
 6114SOL    HW219023   2.617   2.411  12.564
 6115SOL     OW19024   3.255   2.336  12.850
 6115SOL    HW119025   3.259   2.380  12.935
 6115SOL    HW219026   3.313   2.260  12.860
 6116SOL     OW19027   2.813   2.748  12.757
 6116SOL    HW119028   2.868   2.679  12.719
 6116SOL    HW219029   2.765   2.784  12.682
 6117SOL     OW19030   2.855   2.274  12.407
 6117SOL    HW119031   2.767   2.291  12.440
 6117SOL    HW219032   2.842   2.229  12.324
 6118SOL     OW19033   2.915   2.561  11.597
 6118SOL    HW119034   2.933   2.554  11.691
 6118SOL    HW219035   2.832   2.515  11.585
 6119SOL     OW19036   1.950   2.687  11.951
 6119SOL    HW119037   2.031   2.681  12.002
 6119SOL    HW219038   1.905   2.764  11.986
 6120SOL     OW19039   1.981   3.713  12.750
 6120SOL    HW119040   1.986   3.692  12.843
 6120SOL    HW219041   1.888   3.702  12.727
 6121SOL     OW19042   2.758   2.215  11.370
 6121SOL    HW119043   2.801   2.274  11.308
 6121SOL    HW219044   2.754   2.131  11.324
 6122SOL     OW19045   3.569   2.435  13.002
 6122SOL    HW119046   3.532   2.508  12.953
 6122SOL    HW219047   3.595   2.371  12.935
 6123SOL     OW19048   3.239   3.003  11.712
 6123SOL    HW119049   3.319   2.991  11.661
 6123SOL    HW219050   3.187   3.066  11.661
 6124SOL     OW19051   2.415   2.053  12.066
 6124SOL    HW119052   2.409   2.072  12.159
 6124SOL    HW219053   2.431   2.139  12.025
 6125SOL     OW19054   2.864   3.307  11.642
 6125SOL    HW119055   2.829   3.381  11.593
 6125SOL    HW219056   2.842   3.326  11.733
 6126SOL     OW19057   2.213   3.674  12.010
 6126SOL    HW119058   2.263   3.595  12.029
 6126SOL    HW219059   2.272   3.746  12.034
 6127SOL     OW19060   3.668   2.923  12.040
 6127SOL    HW119061   3.616   2.895  11.965
 6127SOL    HW219062   3.606   2.926  12.113
 6128SOL     OW19063   3.089   3.400  12.684
 6128SOL    HW119064   3.077   3.327  12.745
 6128SOL    HW219065   3.020   3.387  12.618
 6129SOL     OW19066   2.179   2.822  11.426
 6129SOL    HW119067   2.261   2.841  11.380
 6129SOL    HW219068   2.148   2.740  11.386
 6130SOL     OW19069   3.342   2.610  11.896
 6130SOL    HW119070   3.338   2.569  11.982
 6130SOL    HW219071   3.421   2.665  11.900
 6131SOL     OW19072   2.331   3.128  12.909
 6131SOL    HW119073   2.304   3.133  12.817
 6131SOL    HW219074   2.248   3.126  12.958
 6132SOL     OW19075   2.977   3.644  11.393
 6132SOL    HW119076   2.911   3.599  11.446
 6132SOL    HW219077   3.007   3.577  11.331
 6133SOL     OW19078   3.486   3.248  11.261
 6133SOL    HW119079   3.443   3.331  11.243
 6133SOL    HW219080   3.419   3.182  11.241
 6134SOL     OW19081   2.328   3.598  11.497
 6134SOL    HW119082   2.367   3.662  11.557
 6134SOL    HW219083   2.400   3.572  11.440
 6135SOL     OW19084   3.263   1.969  11.610
 6135SOL    HW119085   3.256   1.944  11.518
 6135SOL    HW219086   3.357   1.975  11.627
 6136SOL     OW19087   2.123   3.653  12.393
 6136SOL    HW119088   2.169   3.582  12.438
 6136SOL    HW219089   2.107   3.619  12.305
 6137SOL     OW19090   2.800   3.564  12.071
 6137SOL    HW119091   2.877   3.512  12.093
 6137SOL    HW219092   2.757   3.514  12.001
 6138SOL     OW19093   2.258   2.556  11.645
 6138SOL    HW119094   2.276   2.463  11.658
 6138SOL    HW219095   2.164   2.566  11.663
 6139SOL     OW19096   3.393   2.086  12.897
 6139SOL    HW119097   3.403   2.107  12.990
 6139SOL    HW219098   3.325   2.019  12.894
 6140SOL     OW19099   2.515   1.982  11.282
 6140SOL    HW119100   2.573   1.907  11.297
 6140SOL    HW219101   2.456   1.952  11.213
 6141SOL     OW19102   2.626   2.140  12.928
 6141SOL    HW119103   2.706   2.087  12.924
 6141SOL    HW219104   2.579   2.107  13.004
 6142SOL     OW19105   2.738   3.383  12.367
 6142SOL    HW119106   2.721   3.346  12.280
 6142SOL    HW219107   2.808   3.328  12.403
 6143SOL     OW19108   3.201   2.451  12.605
 6143SOL    HW119109   3.233   2.420  12.690
 6143SOL    HW219110   3.238   2.539  12.597
 6144SOL     OW19111   2.680   3.253  12.116
 6144SOL    HW119112   2.764   3.241  12.073
 6144SOL    HW219113   2.616   3.258  12.045
 6145SOL     OW19114   2.790   2.370  12.073
 6145SOL    HW119115   2.765   2.362  11.981
 6145SOL    HW219116   2.822   2.283  12.097
 6146SOL     OW19117   2.410   1.928  11.673
 6146SOL    HW119118   2.352   1.941  11.748
 6146SOL    HW219119   2.394   2.004  11.617
 6147SOL     OW19120   3.290   3.062  11.212
 6147SOL    HW119121   3.320   2.987  11.262
 6147SOL    HW219122   3.204   3.083  11.249
 6148SOL     OW19123   2.803   2.112  11.629
 6148SOL    HW119124   2.779   2.150  11.545
 6148SOL    HW219125   2.898   2.125  11.635
 6149SOL     OW19126   2.943   2.545  12.630
 6149SOL    HW119127   2.878   2.475  12.634
 6149SOL    HW219128   3.027   2.499  12.624
 6150SOL     OW19129   3.082   3.433  11.966
 6150SOL    HW119130   3.097   3.500  11.899
 6150SOL    HW219131   3.152   3.446  12.030
 6151SOL     OW19132   2.334   3.014  11.901
 6151SOL    HW119133   2.266   2.995  11.965
 6151SOL    HW219134   2.291   3.000  11.816
 6152SOL     OW19135   3.126   3.655  11.781
 6152SOL    HW119136   3.174   3.720  11.729
 6152SOL    HW219137   3.053   3.704  11.819
 6153SOL     OW19138   2.885   2.398  11.197
 6153SOL    HW119139   2.842   2.481  11.178
 6153SOL    HW219140   2.951   2.420  11.264
 6154SOL     OW19141   1.940   2.424  12.558
 6154SOL    HW119142   2.033   2.420  12.536
 6154SOL    HW219143   1.934   2.488  12.629
 6155SOL     OW19144   2.410   2.082  12.344
 6155SOL    HW119145   2.461   2.005  12.371
 6155SOL    HW219146   2.329   2.075  12.395
 6156SOL     OW19147   2.725   2.318  11.811
 6156SOL    HW119148   2.685   2.375  11.745
 6156SOL    HW219149   2.751   2.240  11.762
 6157SOL     OW19150   2.876   1.918  11.922
 6157SOL    HW119151   2.820   1.909  11.844
 6157SOL    HW219152   2.854   1.841  11.975
 6158SOL     OW19153   3.302   3.023  12.029
 6158SOL    HW119154   3.231   2.959  12.029
 6158SOL    HW219155   3.327   3.031  11.937
 6159SOL     OW19156   3.327   2.472  12.143
 6159SOL    HW119157   3.273   2.392  12.145
 6159SOL    HW219158   3.385   2.463  12.218
 6160SOL     OW19159   3.724   2.677  11.547
 6160SOL    HW119160   3.767   2.622  11.611
 6160SOL    HW219161   3.687   2.616  11.483
 6161SOL     OW19162   2.352   3.281  11.324
 6161SOL    HW119163   2.276   3.254  11.376
 6161SOL    HW219164   2.342   3.235  11.241
 6162SOL     OW19165   3.530   3.128  11.814
 6162SOL    HW119166   3.625   3.129  11.825
 6162SOL    HW219167   3.502   3.217  11.836
 6163SOL     OW19168   3.256   2.434  11.243
 6163SOL    HW119169   3.194   2.414  11.313
 6163SOL    HW219170   3.340   2.402  11.276
 6164SOL     OW19171   2.386   2.127  11.486
 6164SOL    HW119172   2.434   2.076  11.421
 6164SOL    HW219173   2.361   2.208  11.440
 6165SOL     OW19174   3.612   3.096  12.735
 6165SOL    HW119175   3.700   3.061  12.718
 6165SOL    HW219176   3.628   3.186  12.764
 6166SOL     OW19177   2.918   3.214  12.504
 6166SOL    HW119178   2.843   3.183  12.554
 6166SOL    HW219179   2.993   3.173  12.545
 6167SOL     OW19180   3.469   3.492  12.829
 6167SOL    HW119181   3.459   3.525  12.740
 6167SOL    HW219182   3.549   3.439  12.827
 6168SOL     OW19183   2.995   3.070  12.274
 6168SOL    HW119184   2.936   3.108  12.339
 6168SOL    HW219185   2.964   3.104  12.191
 6169SOL     OW19186   3.489   2.957  12.246
 6169SOL    HW119187   3.480   3.019  12.319
 6169SOL    HW219188   3.413   2.974  12.191
 6170SOL     OW19189   2.780   1.957  12.564
 6170SOL    HW119190   2.803   1.938  12.474
 6170SOL    HW219191   2.859   1.996  12.602
 6171SOL     OW19192   2.846   2.977  12.895
 6171SOL    HW119193   2.755   2.993  12.918
 6171SOL    HW219194   2.843   2.898  12.840
 6172SOL     OW19195   2.572   2.924  11.543
 6172SOL    HW119196   2.557   2.904  11.636
 6172SOL    HW219197   2.647   2.870  11.519
 6173SOL     OW19198   2.282   2.676  12.423
 6173SOL    HW119199   2.349   2.688  12.490
 6173SOL    HW219200   2.248   2.588  12.439
 6174SOL     OW19201   3.126   2.237  12.452
 6174SOL    HW119202   3.159   2.315  12.497
 6174SOL    HW219203   3.035   2.259  12.429
 6175SOL     OW19204   1.935   3.435  12.527
 6175SOL    HW119205   1.908   3.510  12.474
 6175SOL    HW219206   2.031   3.436  12.521
 6176SOL     OW19207   2.203   2.977  11.661
 6176SOL    HW119208   2.207   3.051  11.601
 6176SOL    HW219209   2.201   2.900  11.605
 6177SOL     OW19210   2.407   2.394  12.033
 6177SOL    HW119211   2.420   2.452  11.959
 6177SOL    HW219212   2.474   2.420  12.097
 6178SOL     OW19213   3.109   3.211  11.562
 6178SOL    HW119214   3.165   3.282  11.593
 6178SOL    HW219215   3.022   3.233  11.595
 6179SOL     OW19216   3.148   3.322  12.320
 6179SOL    HW119217   3.204   3.327  12.398
 6179SOL    HW219218   3.093   3.245  12.335
 6180SOL     OW19219   3.439   2.481  11.656
 6180SOL    HW119220   3.391   2.532  11.720
 6180SOL    HW219221   3.481   2.546  11.599
 6181SOL     OW19222   2.207   3.392  12.482
 6181SOL    HW119223   2.196   3.347  12.399
 6181SOL    HW219224   2.302   3.403  12.491
 6182SOL     OW19225   2.278   2.610  12.776
 6182SOL    HW119226   2.341   2.652  12.717
 6182SOL    HW219227   2.320   2.528  12.802
 6183SOL     OW19228   3.468   2.641  12.856
 6183SOL    HW119229   3.382   2.684  12.851
 6183SOL    HW219230   3.520   2.684  12.789
 6184SOL     OW19231   2.857   1.992  12.923
 6184SOL    HW119232   2.917   2.064  12.902
 6184SOL    HW219233   2.906   1.913  12.899
 6185SOL     OW19234   2.371   1.907  12.924
 6185SOL    HW119235   2.313   1.856  12.867
 6185SOL    HW219236   2.329   1.993  12.930
 6186SOL     OW19237   2.447   2.735  12.205
 6186SOL    HW119238   2.480   2.825  12.205
 6186SOL    HW219239   2.390   2.730  12.281
 6187SOL     OW19240   3.213   2.721  12.196
 6187SOL    HW119241   3.128   2.707  12.154
 6187SOL    HW219242   3.258   2.637  12.188
 6188SOL     OW19243   3.063   2.389  11.435
 6188SOL    HW119244   3.071   2.311  11.489
 6188SOL    HW219245   3.021   2.454  11.492
 6189SOL     OW19246   1.908   3.173  12.447
 6189SOL    HW119247   1.940   3.118  12.518
 6189SOL    HW219248   1.914   3.263  12.481
 6190SOL     OW19249   2.580   2.488  12.225
 6190SOL    HW119250   2.659   2.475  12.172
 6190SOL    HW219251   2.554   2.579  12.208
 6191SOL     OW19252   3.592   2.820  13.036
 6191SOL    HW119253   3.552   2.755  12.979
 6191SOL    HW219254   3.528   2.835  13.105
 6192SOL     OW19255   3.483   2.240  11.535
 6192SOL    HW119256   3.509   2.174  11.599
 6192SOL    HW219257   3.459   2.316  11.587
 6193SOL     OW19258   2.890   2.620  12.131
 6193SOL    HW119259   2.883   2.637  12.224
 6193SOL    HW219260   2.864   2.528  12.121
 6194SOL     OW19261   2.848   3.430  12.893
 6194SOL    HW119262   2.828   3.471  12.809
 6194SOL    HW219263   2.889   3.347  12.871
 6195SOL     OW19264   3.704   3.359  12.769
 6195SOL    HW119265   3.729   3.389  12.682
 6195SOL    HW219266   3.784   3.368  12.821
 6196SOL     OW19267   2.214   2.779  12.984
 6196SOL    HW119268   2.296   2.798  13.029
 6196SOL    HW219269   2.238   2.718  12.915
 6197SOL     OW19270   3.390   2.134  11.299
 6197SOL    HW119271   3.325   2.069  11.326
 6197SOL    HW219272   3.423   2.170  11.381
 6198SOL     OW19273   3.150   2.686  11.201
 6198SOL    HW119274   3.193   2.601  11.205
 6198SOL    HW219275   3.182   2.726  11.120
 6199SOL     OW19276   2.929   3.200  12.028
 6199SOL    HW119277   2.934   3.127  11.965
 6199SOL    HW219278   2.988   3.266  11.992
 6200SOL     OW19279   2.171   2.673  12.118
 6200SOL    HW119280   2.264   2.694  12.109
 6200SOL    HW219281   2.171   2.584  12.155
 6201SOL     OW19282   2.183   2.367  12.181
 6201SOL    HW119283   2.141   2.296  12.133
 6201SOL    HW219284   2.265   2.383  12.133
 6202SOL     OW19285   2.996   2.236  12.856
 6202SOL    HW119286   2.948   2.290  12.919
 6202SOL    HW219287   3.083   2.275  12.852
 6203SOL     OW19288   3.022   2.062  12.643
 6203SOL    HW119289   3.011   2.124  12.714
 6203SOL    HW219290   3.065   2.112  12.573
 6204SOL     OW19291   1.868   3.180  11.367
 6204SOL    HW119292   1.781   3.195  11.330
 6204SOL    HW219293   1.864   3.090  11.401
 6205SOL     OW19294   1.960   3.638  12.110
 6205SOL    HW119295   1.928   3.560  12.065
 6205SOL    HW219296   2.044   3.658  12.070
 6206SOL     OW19297   2.354   3.438  12.077
 6206SOL    HW119298   2.422   3.501  12.101
 6206SOL    HW219299   2.399   3.376  12.020
 6207SOL     OW19300   2.838   2.650  12.396
 6207SOL    HW119301   2.899   2.631  12.468
 6207SOL    HW219302   2.754   2.614  12.426
 6208SOL     OW19303   1.902   2.396  12.289
 6208SOL    HW119304   1.986   2.403  12.245
 6208SOL    HW219305   1.922   2.409  12.382
 6209SOL     OW19306   2.069   2.382  12.904
 6209SOL    HW119307   2.122   2.357  12.828
 6209SOL    HW219308   2.006   2.445  12.869
 6210SOL     OW19309   3.242   2.797  12.830
 6210SOL    HW119310   3.263   2.891  12.826
 6210SOL    HW219311   3.238   2.771  12.738
 6211SOL     OW19312   2.679   2.432  11.540
 6211SOL    HW119313   2.687   2.359  11.479
 6211SOL    HW219314   2.605   2.483  11.506
 6212SOL     OW19315   3.501   2.463  12.354
 6212SOL    HW119316   3.490   2.403  12.427
 6212SOL    HW219317   3.588   2.443  12.319
 6213SOL     OW19318   2.103   3.410  12.895
 6213SOL    HW119319   2.080   3.477  12.960
 6213SOL    HW219320   2.108   3.329  12.945
 6214SOL     OW19321   2.568   2.307  12.428
 6214SOL    HW119322   2.511   2.235  12.400
 6214SOL    HW219323   2.562   2.370  12.356
 6215SOL     OW19324   2.787   3.533  12.642
 6215SOL    HW119325   2.761   3.494  12.559
 6215SOL    HW219326   2.779   3.627  12.628
 6216SOL     OW19327   2.325   2.354  11.346
 6216SOL    HW119328   2.383   2.425  11.374
 6216SOL    HW219329   2.238   2.394  11.340
 6217SOL     OW19330   2.005   3.004  12.646
 6217SOL    HW119331   2.006   2.955  12.728
 6217SOL    HW219332   2.023   2.939  12.578
 6218SOL     OW19333   3.183   2.906  12.393
 6218SOL    HW119334   3.205   2.843  12.324
 6218SOL    HW219335   3.116   2.961  12.353
 6219SOL     OW19336   3.175   2.718  11.477
 6219SOL    HW119337   3.101   2.687  11.528
 6219SOL    HW219338   3.149   2.704  11.386
 6220SOL     OW19339   3.641   3.601  12.328
 6220SOL    HW119340   3.699   3.627  12.257
 6220SOL    HW219341   3.612   3.512  12.305
 6221SOL     OW19342   3.106   3.595  12.280
 6221SOL    HW119343   3.189   3.617  12.237
 6221SOL    HW219344   3.113   3.501  12.300
 6222SOL     OW19345   1.948   3.128  12.183
 6222SOL    HW119346   1.932   3.143  12.276
 6222SOL    HW219347   1.875   3.073  12.154
 6223SOL     OW19348   2.541   3.527  12.907
 6223SOL    HW119349   2.484   3.604  12.911
 6223SOL    HW219350   2.602   3.547  12.836
 6224SOL     OW19351   3.570   2.014  11.683
 6224SOL    HW119352   3.639   2.002  11.617
 6224SOL    HW219353   3.560   1.928  11.723
 6225SOL     OW19354   3.252   3.430  11.661
 6225SOL    HW119355   3.311   3.464  11.593
 6225SOL    HW219356   3.204   3.507  11.691
 6226SOL     OW19357   1.998   3.651  13.010
 6226SOL    HW119358   1.946   3.587  13.059
 6226SOL    HW219359   2.046   3.699  13.077
 6227SOL     OW19360   3.139   2.789  11.843
 6227SOL    HW119361   3.213   2.729  11.853
 6227SOL    HW219362   3.173   2.861  11.790
 6228SOL     OW19363   2.670   3.137  12.598
 6228SOL    HW119364   2.642   3.177  12.681
 6228SOL    HW219365   2.600   3.159  12.536
 6229SOL     OW19366   2.536   3.481  11.330
 6229SOL    HW119367   2.546   3.499  11.237
 6229SOL    HW219368   2.477   3.405  11.334
 6230SOL     OW19369   3.480   3.589  12.562
 6230SOL    HW119370   3.536   3.592  12.485
 6230SOL    HW219371   3.467   3.681  12.586
 6231SOL     OW19372   3.700   2.043  12.138
 6231SOL    HW119373   3.731   1.956  12.114
 6231SOL    HW219374   3.614   2.050  12.098
 6232SOL     OW19375   3.070   3.465  11.208
 6232SOL    HW119376   3.059   3.373  11.233
 6232SOL    HW219377   3.008   3.477  11.136
 6233SOL     OW19378   2.686   2.868  12.546
 6233SOL    HW119379   2.730   2.864  12.461
 6233SOL    HW219380   2.683   2.962  12.566
 6234SOL     OW19381   2.778   2.772  11.463
 6234SOL    HW119382   2.839   2.805  11.396
 6234SOL    HW219383   2.828   2.704  11.508
 6235SOL     OW19384   3.349   3.496  11.215
 6235SOL    HW119385   3.256   3.482  11.198
 6235SOL    HW219386   3.388   3.500  11.128
 6236SOL     OW19387   2.231   3.166  12.663
 6236SOL    HW119388   2.216   3.243  12.608
 6236SOL    HW219389   2.153   3.112  12.649
 6237SOL     OW19390   3.461   3.142  12.449
 6237SOL    HW119391   3.530   3.132  12.515
 6237SOL    HW219392   3.405   3.211  12.483
 6238SOL     OW19393   2.920   2.971  11.881
 6238SOL    HW119394   2.848   2.920  11.919
 6238SOL    HW219395   2.984   2.905  11.853
 6239SOL     OW19396   2.884   2.103  12.139
 6239SOL    HW119397   2.881   2.056  12.055
 6239SOL    HW219398   2.880   2.034  12.205
 6240SOL     OW19399   2.467   3.353  11.651
 6240SOL    HW119400   2.514   3.302  11.585
 6240SOL    HW219401   2.397   3.396  11.603
 6241SOL     OW19402   3.587   2.251  12.550
 6241SOL    HW119403   3.659   2.314  12.547
 6241SOL    HW219404   3.616   2.179  12.494
 6242SOL     OW19405   2.123   3.205  11.463
 6242SOL    HW119406   2.030   3.201  11.439
 6242SOL    HW219407   2.124   3.244  11.550
 6243SOL     OW19408   1.975   2.889  12.894
 6243SOL    HW119409   1.898   2.864  12.945
 6243SOL    HW219410   2.049   2.849  12.939
 6244SOL     OW19411   2.539   2.060  12.671
 6244SOL    HW119412   2.623   2.037  12.632
 6244SOL    HW219413   2.561   2.090  12.759
 6245SOL     OW19414   3.287   2.720  12.570
 6245SOL    HW119415   3.237   2.781  12.516
 6245SOL    HW219416   3.375   2.722  12.533
 6246SOL     OW19417   3.039   3.198  11.290
 6246SOL    HW119418   2.948   3.168  11.291
 6246SOL    HW219419   3.066   3.198  11.382
 6247SOL     OW19420   2.482   2.693  12.606
 6247SOL    HW119421   2.538   2.769  12.592
 6247SOL    HW219422   2.542   2.619  12.613
 6248SOL     OW19423   3.348   3.644  12.155
 6248SOL    HW119424   3.371   3.700  12.081
 6248SOL    HW219425   3.431   3.611  12.188
 6249SOL     OW19426   2.578   2.421  12.872
 6249SOL    HW119427   2.622   2.481  12.932
 6249SOL    HW219428   2.600   2.334  12.906
 6250SOL     OW19429   3.335   3.058  12.802
 6250SOL    HW119430   3.325   3.073  12.896
 6250SOL    HW219431   3.428   3.074  12.785
 6251SOL     OW19432   2.235   3.603  12.738
 6251SOL    HW119433   2.151   3.646  12.722
 6251SOL    HW219434   2.212   3.520  12.779
 6252SOL     OW19435   3.526   2.742  12.431
 6252SOL    HW119436   3.525   2.657  12.388
 6252SOL    HW219437   3.519   2.805  12.359
 6253SOL     OW19438   3.078   2.181  11.629
 6253SOL    HW119439   3.140   2.109  11.622
 6253SOL    HW219440   3.107   2.230  11.706
 6254SOL     OW19441   2.446   2.596  11.847
 6254SOL    HW119442   2.488   2.681  11.832
 6254SOL    HW219443   2.382   2.589  11.775
 6255SOL     OW19444   3.619   2.228  12.823
 6255SOL    HW119445   3.603   2.242  12.729
 6255SOL    HW219446   3.548   2.170  12.851
 6256SOL     OW19447   3.619   2.789  12.685
 6256SOL    HW119448   3.609   2.883  12.703
 6256SOL    HW219449   3.594   2.780  12.593
 6257SOL     OW19450   2.726   3.229  11.213
 6257SOL    HW119451   2.685   3.256  11.295
 6257SOL    HW219452   2.740   3.310  11.165
 6258SOL     OW19453   2.523   3.650  12.109
 6258SOL    HW119454   2.502   3.741  12.089
 6258SOL    HW219455   2.618   3.645  12.105
 6259SOL     OW19456   2.731   2.832  12.026
 6259SOL    HW119457   2.781   2.759  12.064
 6259SOL    HW219458   2.694   2.877  12.102
 6260SOL     OW19459   2.940   2.850  11.261
 6260SOL    HW119460   2.918   2.902  11.183
 6260SOL    HW219461   3.014   2.796  11.234
 6261SOL     OW19462   3.711   3.416  12.012
 6261SOL    HW119463   3.631   3.397  11.963
 6261SOL    HW219464   3.715   3.348  12.079
 6262SOL     OW19465   2.088   3.162  13.027
 6262SOL    HW119466   2.023   3.100  12.995
 6262SOL    HW219467   2.065   3.175  13.119
 6263SOL     OW19468   1.949   3.092  11.837
 6263SOL    HW119469   1.959   3.047  11.921
 6263SOL    HW219470   2.016   3.053  11.781
 6264SOL     OW19471   2.546   3.267  12.803
 6264SOL    HW119472   2.466   3.225  12.835
 6264SOL    HW219473   2.543   3.356  12.840
 6265SOL     OW19474   3.673   2.039  12.410
 6265SOL    HW119475   3.665   1.943  12.411
 6265SOL    HW219476   3.689   2.060  12.317
 6266SOL     OW19477   2.294   2.294  11.694
 6266SOL    HW119478   2.326   2.233  11.627
 6266SOL    HW219479   2.243   2.239  11.753
 6267SOL     OW19480   3.556   3.351  12.268
 6267SOL    HW119481   3.478   3.328  12.217
 6267SOL    HW219482   3.567   3.280  12.331
 6268SOL     OW19483   2.195   2.417  12.460
 6268SOL    HW119484   2.239   2.354  12.517
 6268SOL    HW219485   2.208   2.383  12.372
 6269SOL     OW19486   2.691   3.441  11.848
 6269SOL    HW119487   2.671   3.494  11.772
 6269SOL    HW219488   2.618   3.380  11.855
 6270SOL     OW19489   3.292   2.091  12.289
 6270SOL    HW119490   3.311   2.007  12.330
 6270SOL    HW219491   3.241   2.139  12.354
 6271SOL     OW19492   2.871   1.878  12.310
 6271SOL    HW119493   2.817   1.811  12.268
 6271SOL    HW219494   2.958   1.841  12.312
 6272SOL     OW19495   2.635   3.195  11.493
 6272SOL    HW119496   2.606   3.104  11.499
 6272SOL    HW219497   2.718   3.197  11.541
 6273SOL     OW19498   2.482   3.415  12.457
 6273SOL    HW119499   2.482   3.496  12.507
 6273SOL    HW219500   2.570   3.409  12.420
 6274SOL     OW19501   3.218   1.914  11.341
 6274SOL    HW119502   3.249   1.845  11.283
 6274SOL    HW219503   3.129   1.888  11.364
 6275SOL     OW19504   3.156   2.325  11.851
 6275SOL    HW119505   3.105   2.405  11.856
 6275SOL    HW219506   3.153   2.287  11.939
 6276SOL     OW19507   3.443   2.059  12.051
 6276SOL    HW119508   3.388   2.084  12.125
 6276SOL    HW219509   3.444   2.136  11.995
 6277SOL     OW19510   1.905   2.929  11.480
 6277SOL    HW119511   1.998   2.922  11.462
 6277SOL    HW219512   1.877   2.840  11.502
 6278SOL     OW19513   2.749   3.523  11.514
 6278SOL    HW119514   2.678   3.504  11.453
 6278SOL    HW219515   2.718   3.597  11.565
 6279SOL     OW19516   2.083   2.475  13.164
 6279SOL    HW119517   1.993   2.479  13.196
 6279SOL    HW219518   2.075   2.449  13.073
 6280SOL     OW19519   1.878   2.281  13.642
 6280SOL    HW119520   1.790   2.288  13.678
 6280SOL    HW219521   1.868   2.224  13.566
 6281SOL     OW19522   3.381   3.357  13.729
 6281SOL    HW119523   3.329   3.285  13.763
 6281SOL    HW219524   3.338   3.382  13.648
 6282SOL     OW19525   2.992   2.559  13.728
 6282SOL    HW119526   3.044   2.638  13.709
 6282SOL    HW219527   2.943   2.581  13.807
 6283SOL     OW19528   3.642   2.465  13.260
 6283SOL    HW119529   3.616   2.459  13.168
 6283SOL    HW219530   3.599   2.391  13.302
 6284SOL     OW19531   2.545   2.872  13.671
 6284SOL    HW119532   2.599   2.854  13.748
 6284SOL    HW219533   2.470   2.922  13.705
 6285SOL     OW19534   3.482   2.322  13.755
 6285SOL    HW119535   3.395   2.310  13.717
 6285SOL    HW219536   3.474   2.399  13.811
 6286SOL     OW19537   2.086   3.579  13.520
 6286SOL    HW119538   2.122   3.627  13.594
 6286SOL    HW219539   2.157   3.578  13.455
 6287SOL     OW19540   2.094   3.303  13.570
 6287SOL    HW119541   2.074   3.397  13.574
 6287SOL    HW219542   2.034   3.263  13.633
 6288SOL     OW19543   2.103   2.973   0.030
 6288SOL    HW119544   2.122   2.909   0.098
 6288SOL    HW219545   2.031   3.026   0.065
 6289SOL     OW19546   2.443   2.845  13.169
 6289SOL    HW119547   2.491   2.892  13.101
 6289SOL    HW219548   2.481   2.877  13.251
 6290SOL     OW19549   1.983   2.530  13.591
 6290SOL    HW119550   1.950   2.442  13.607
 6290SOL    HW219551   1.970   2.577  13.673
 6291SOL     OW19552   3.699   3.612  13.374
 6291SOL    HW119553   3.772   3.586  13.430
 6291SOL    HW219554   3.716   3.704  13.355
 6292SOL     OW19555   1.892   3.452  13.155
 6292SOL    HW119556   1.877   3.360  13.176
 6292SOL    HW219557   1.873   3.499  13.236
 6293SOL     OW19558   3.548   2.780  13.670
 6293SOL    HW119559   3.634   2.743  13.647
 6293SOL    HW219560   3.525   2.835  13.596
 6294SOL     OW19561   3.503   2.965  13.463
 6294SOL    HW119562   3.588   2.968  13.418
 6294SOL    HW219563   3.511   3.030  13.532
 6295SOL     OW19564   2.467   3.245  13.758
 6295SOL    HW119565   2.422   3.160  13.765
 6295SOL    HW219566   2.444   3.277  13.671
 6296SOL     OW19567   2.678   1.865  13.543
 6296SOL    HW119568   2.717   1.950  13.521
 6296SOL    HW219569   2.584   1.883  13.550
 6297SOL     OW19570   3.388   2.858  13.235
 6297SOL    HW119571   3.319   2.801  13.268
 6297SOL    HW219572   3.430   2.895  13.313
 6298SOL     OW19573   3.510   3.599  13.615
 6298SOL    HW119574   3.496   3.570  13.525
 6298SOL    HW219575   3.505   3.519  13.667
 6299SOL     OW19576   2.453   2.579  13.300
 6299SOL    HW119577   2.458   2.662  13.252
 6299SOL    HW219578   2.388   2.594  13.368
 6300SOL     OW19579   3.118   2.189   0.043
 6300SOL    HW119580   3.038   2.142   0.069
 6300SOL    HW219581   3.189   2.138   0.082
 6301SOL     OW19582   3.435   3.542  13.340
 6301SOL    HW119583   3.528   3.564  13.337
 6301SOL    HW219584   3.412   3.521  13.250
 6302SOL     OW19585   2.912   2.558  13.458
 6302SOL    HW119586   2.929   2.547  13.551
 6302SOL    HW219587   2.829   2.512  13.443
 6303SOL     OW19588   1.947   2.688  13.809
 6303SOL    HW119589   2.019   2.672  13.870
 6303SOL    HW219590   1.900   2.762  13.847
 6304SOL     OW19591   2.758   2.214  13.231
 6304SOL    HW119592   2.801   2.273  13.169
 6304SOL    HW219593   2.757   2.130  13.186
 6305SOL     OW19594   3.224   2.997  13.550
 6305SOL    HW119595   3.314   2.995  13.517
 6305SOL    HW219596   3.182   3.068  13.503
 6306SOL     OW19597   2.860   3.303  13.501
 6306SOL    HW119598   2.829   3.380  13.454
 6306SOL    HW219599   2.828   3.315  13.591
 6307SOL     OW19600   2.258   3.668  13.795
 6307SOL    HW119601   2.209   3.603  13.846
 6307SOL    HW219602   2.323   3.702  13.857
 6308SOL     OW19603   3.652   2.914  13.899
 6308SOL    HW119604   3.598   2.900  13.822
 6308SOL    HW219605   3.592   2.908   0.073
 6309SOL     OW19606   2.179   2.822  13.289
 6309SOL    HW119607   2.260   2.842  13.241
 6309SOL    HW219608   2.148   2.740  13.250
 6310SOL     OW19609   3.354   2.596  13.745
 6310SOL    HW119610   3.344   2.559  13.833
 6310SOL    HW219611   3.426   2.658  13.753
 6311SOL     OW19612   2.976   3.645  13.254
 6311SOL    HW119613   2.912   3.600  13.309
 6311SOL    HW219614   3.007   3.578  13.193
 6312SOL     OW19615   3.486   3.247  13.123
 6312SOL    HW119616   3.443   3.331  13.105
 6312SOL    HW219617   3.419   3.182  13.102
 6313SOL     OW19618   2.328   3.598  13.357
 6313SOL    HW119619   2.366   3.660  13.419
 6313SOL    HW219620   2.401   3.573  13.300
 6314SOL     OW19621   3.264   1.975  13.468
 6314SOL    HW119622   3.256   1.947  13.377
 6314SOL    HW219623   3.358   1.976  13.485
 6315SOL     OW19624   2.792   3.545   0.007
 6315SOL    HW119625   2.804   3.479   0.075
 6315SOL    HW219626   2.749   3.499  13.835
 6316SOL     OW19627   2.252   2.561  13.503
 6316SOL    HW119628   2.263   2.467  13.512
 6316SOL    HW219629   2.160   2.577  13.522
 6317SOL     OW19630   2.515   1.982  13.143
 6317SOL    HW119631   2.573   1.908  13.158
 6317SOL    HW219632   2.456   1.953  13.074
 6318SOL     OW19633   2.410   1.926  13.535
 6318SOL    HW119634   2.345   1.932  13.605
 6318SOL    HW219635   2.394   2.002  13.480
 6319SOL     OW19636   3.290   3.062  13.074
 6319SOL    HW119637   3.320   2.986  13.125
 6319SOL    HW219638   3.204   3.083  13.111
 6320SOL     OW19639   2.803   2.110  13.491
 6320SOL    HW119640   2.778   2.149  13.408
 6320SOL    HW219641   2.897   2.124  13.497
 6321SOL     OW19642   2.324   3.006  13.768
 6321SOL    HW119643   2.252   2.994  13.830
 6321SOL    HW219644   2.284   2.995  13.682
 6322SOL     OW19645   3.128   3.659  13.628
 6322SOL    HW119646   3.174   3.728  13.579
 6322SOL    HW219647   3.059   3.706  13.676
 6323SOL     OW19648   2.885   2.398  13.059
 6323SOL    HW119649   2.842   2.482  13.040
 6323SOL    HW219650   2.950   2.420  13.126
 6324SOL     OW19651   2.760   2.331  13.672
 6324SOL    HW119652   2.698   2.381  13.619
 6324SOL    HW219653   2.769   2.248  13.626
 6325SOL     OW19654   2.887   1.898  13.773
 6325SOL    HW119655   2.829   1.906  13.697
 6325SOL    HW219656   2.857   1.819  13.817
 6326SOL     OW19657   3.729   2.676  13.410
 6326SOL    HW119658   3.777   2.621  13.472
 6326SOL    HW219659   3.693   2.614  13.346
 6327SOL     OW19660   2.352   3.281  13.186
 6327SOL    HW119661   2.276   3.254  13.238
 6327SOL    HW219662   2.342   3.235  13.103
 6328SOL     OW19663   3.540   3.134  13.663
 6328SOL    HW119664   3.635   3.134  13.680
 6328SOL    HW219665   3.509   3.216  13.700
 6329SOL     OW19666   3.256   2.434  13.105
 6329SOL    HW119667   3.194   2.414  13.175
 6329SOL    HW219668   3.340   2.402  13.138
 6330SOL     OW19669   2.390   2.128  13.352
 6330SOL    HW119670   2.436   2.077  13.285
 6330SOL    HW219671   2.361   2.207  13.306
 6331SOL     OW19672   2.572   2.926  13.400
 6331SOL    HW119673   2.557   2.909  13.493
 6331SOL    HW219674   2.648   2.872  13.377
 6332SOL     OW19675   2.207   2.977  13.524
 6332SOL    HW119676   2.208   3.052  13.464
 6332SOL    HW219677   2.203   2.901  13.466
 6333SOL     OW19678   2.443   2.388  13.845
 6333SOL    HW119679   2.449   2.466  13.791
 6333SOL    HW219680   2.480   2.414   0.029
 6334SOL     OW19681   3.106   3.215  13.418
 6334SOL    HW119682   3.161   3.288  13.446
 6334SOL    HW219683   3.020   3.235  13.454
 6335SOL     OW19684   3.442   2.486  13.500
 6335SOL    HW119685   3.400   2.523  13.578
 6335SOL    HW219686   3.473   2.562  13.451
 6336SOL     OW19687   3.062   2.389  13.296
 6336SOL    HW119688   3.070   2.311  13.351
 6336SOL    HW219689   3.019   2.453  13.353
 6337SOL     OW19690   3.483   2.238  13.395
 6337SOL    HW119691   3.507   2.175  13.463
 6337SOL    HW219692   3.460   2.318  13.444
 6338SOL     OW19693   3.390   2.134  13.160
 6338SOL    HW119694   3.325   2.069  13.188
 6338SOL    HW219695   3.424   2.170  13.242
 6339SOL     OW19696   3.149   2.686  13.062
 6339SOL    HW119697   3.193   2.601  13.066
 6339SOL    HW219698   3.182   2.726  12.981
 6340SOL     OW19699   1.869   3.180  13.228
 6340SOL    HW119700   1.781   3.195  13.192
 6340SOL    HW219701   1.865   3.091  13.263
 6341SOL     OW19702   2.677   2.433  13.395
 6341SOL    HW119703   2.684   2.358  13.336
 6341SOL    HW219704   2.602   2.483  13.362
 6342SOL     OW19705   2.325   2.351  13.206
 6342SOL    HW119706   2.382   2.423  13.232
 6342SOL    HW219707   2.238   2.391  13.201
 6343SOL     OW19708   3.177   2.713  13.337
 6343SOL    HW119709   3.101   2.687  13.388
 6343SOL    HW219710   3.150   2.701  13.246
 6344SOL     OW19711   3.574   2.013  13.546
 6344SOL    HW119712   3.640   2.001  13.478
 6344SOL    HW219713   3.563   1.925  13.584
 6345SOL     OW19714   3.244   3.437  13.508
 6345SOL    HW119715   3.304   3.475  13.444
 6345SOL    HW219716   3.198   3.512  13.546
 6346SOL     OW19717   3.151   2.775  13.684
 6346SOL    HW119718   3.227   2.719  13.671
 6346SOL    HW219719   3.173   2.858  13.641
 6347SOL     OW19720   2.536   3.481  13.192
 6347SOL    HW119721   2.546   3.499  13.098
 6347SOL    HW219722   2.477   3.405  13.195
 6348SOL     OW19723   3.680   2.024   0.088
 6348SOL    HW119724   3.690   1.938   0.047
 6348SOL    HW219725   3.586   2.041   0.084
 6349SOL     OW19726   2.100   2.296  13.818
 6349SOL    HW119727   2.064   2.287  13.730
 6349SOL    HW219728   2.160   2.223  13.828
 6350SOL     OW19729   3.070   3.465  13.070
 6350SOL    HW119730   3.059   3.373  13.094
 6350SOL    HW219731   3.008   3.478  12.998
 6351SOL     OW19732   2.782   2.775  13.330
 6351SOL    HW119733   2.840   2.805  13.260
 6351SOL    HW219734   2.829   2.702  13.370
 6352SOL     OW19735   3.349   3.495  13.076
 6352SOL    HW119736   3.256   3.482  13.060
 6352SOL    HW219737   3.388   3.500  12.989
 6353SOL     OW19738   2.912   2.953  13.755
 6353SOL    HW119739   2.826   2.915  13.736
 6353SOL    HW219740   2.970   2.917  13.688
 6354SOL     OW19741   2.461   3.354  13.505
 6354SOL    HW119742   2.509   3.303  13.439
 6354SOL    HW219743   2.393   3.400  13.455
 6355SOL     OW19744   2.124   3.204  13.325
 6355SOL    HW119745   2.031   3.201  13.302
 6355SOL    HW219746   2.125   3.244  13.412
 6356SOL     OW19747   3.039   3.197  13.149
 6356SOL    HW119748   2.948   3.169  13.150
 6356SOL    HW219749   3.065   3.199  13.241
 6357SOL     OW19750   3.078   2.181  13.490
 6357SOL    HW119751   3.140   2.109  13.481
 6357SOL    HW219752   3.109   2.230  13.566
 6358SOL     OW19753   2.450   2.610  13.690
 6358SOL    HW119754   2.487   2.697  13.673
 6358SOL    HW219755   2.380   2.601  13.626
 6359SOL     OW19756   2.727   3.228  13.074
 6359SOL    HW119757   2.685   3.255  13.157
 6359SOL    HW219758   2.740   3.310  13.027
 6360SOL     OW19759   2.512   3.717   0.065
 6360SOL    HW119760   2.507   3.811   0.085
 6360SOL    HW219761   2.605   3.695   0.077
 6361SOL     OW19762   2.685   2.828  13.898
 6361SOL    HW119763   2.710   2.743   0.034
 6361SOL    HW219764   2.726   2.892   0.057
 6362SOL     OW19765   2.938   2.849  13.123
 6362SOL    HW119766   2.918   2.901  13.046
 6362SOL    HW219767   3.013   2.795  13.096
 6363SOL     OW19768   1.954   3.091  13.699
 6363SOL    HW119769   1.950   3.035  13.776
 6363SOL    HW219770   2.021   3.051  13.643
 6364SOL     OW19771   2.276   2.295  13.557
 6364SOL    HW119772   2.320   2.232  13.500
 6364SOL    HW219773   2.323   2.290  13.640
 6365SOL     OW19774   3.542   3.320   0.350
 6365SOL    HW119775   3.511   3.293   0.264
 6365SOL    HW219776   3.631   3.285   0.356
 6366SOL     OW19777   2.679   3.410  13.706
 6366SOL    HW119778   2.649   3.461  13.630
 6366SOL    HW219779   2.604   3.353  13.726
 6367SOL     OW19780   2.635   3.196  13.350
 6367SOL    HW119781   2.606   3.105  13.357
 6367SOL    HW219782   2.716   3.200  13.400
 6368SOL     OW19783   3.217   1.914  13.202
 6368SOL    HW119784   3.249   1.845  13.144
 6368SOL    HW219785   3.129   1.887  13.225
 6369SOL     OW19786   3.166   2.322  13.710
 6369SOL    HW119787   3.112   2.402  13.716
 6369SOL    HW219788   3.150   2.276  13.793
 6370SOL     OW19789   1.906   2.930  13.340
 6370SOL    HW119790   2.000   2.921  13.322
 6370SOL    HW219791   1.878   2.841  13.361
 6371SOL     OW19792   2.750   3.522  13.376
 6371SOL    HW119793   2.677   3.505  13.316
 6371SOL    HW219794   2.719   3.596  13.430
 6372SOL     OW19795   2.094   3.982   0.983
 6372SOL    HW119796   2.117   3.962   1.073
 6372SOL    HW219797   2.003   3.953   0.974
 6373SOL     OW19798   1.876   0.063   0.713
 6373SOL    HW119799   1.798   0.102   0.674
 6373SOL    HW219800   1.917   0.015   0.642
 6374SOL     OW19801   3.660   0.360   0.257
 6374SOL    HW119802   3.638   0.303   0.183
 6374SOL    HW219803   3.579   0.365   0.307
 6375SOL     OW19804   2.303   0.094   1.505
 6375SOL    HW119805   2.373   0.049   1.459
 6375SOL    HW219806   2.225   0.042   1.486
 6376SOL     OW19807   3.457   3.851   1.459
 6376SOL    HW119808   3.462   3.938   1.419
 6376SOL    HW219809   3.442   3.868   1.552
 6377SOL     OW19810   2.669   3.727   0.508
 6377SOL    HW119811   2.697   3.819   0.498
 6377SOL    HW219812   2.574   3.732   0.517
 6378SOL     OW19813   3.130   0.062   0.934
 6378SOL    HW119814   3.055   0.009   0.905
 6378SOL    HW219815   3.184   0.001   0.985
 6379SOL     OW19816   2.416   3.903   0.892
 6379SOL    HW119817   2.410   3.923   0.986
 6379SOL    HW219818   2.411   3.989   0.849
 6380SOL     OW19819   2.054   3.982   1.489
 6380SOL    HW119820   2.000   0.060   1.503
 6380SOL    HW219821   2.014   3.915   1.544
 6381SOL     OW19822   3.270   3.837   0.432
 6381SOL    HW119823   3.264   3.798   0.345
 6381SOL    HW219824   3.360   3.821   0.459
 6382SOL     OW19825   3.398   3.937   1.723
 6382SOL    HW119826   3.423   3.940   1.816
 6382SOL    HW219827   3.328   3.873   1.719
 6383SOL     OW19828   2.634   3.956   1.742
 6383SOL    HW119829   2.686   3.927   1.818
 6383SOL    HW219830   2.548   3.974   1.778
 6384SOL     OW19831   2.398   3.781   0.517
 6384SOL    HW119832   2.349   3.780   0.599
 6384SOL    HW219833   2.406   3.874   0.496
 6385SOL     OW19834   2.133   3.745   0.209
 6385SOL    HW119835   2.166   3.832   0.188
 6385SOL    HW219836   2.211   3.696   0.235
 6386SOL     OW19837   2.419   3.944   1.170
 6386SOL    HW119838   2.462   3.874   1.219
 6386SOL    HW219839   2.327   3.939   1.196
 6387SOL     OW19840   2.883   3.766   0.731
 6387SOL    HW119841   2.817   3.755   0.662
 6387SOL    HW219842   2.860   3.702   0.798
 6388SOL     OW19843   2.785   3.802   1.396
 6388SOL    HW119844   2.814   3.781   1.308
 6388SOL    HW219845   2.859   3.849   1.435
 6389SOL     OW19846   3.129   0.073   1.266
 6389SOL    HW119847   3.137   0.143   1.331
 6389SOL    HW219848   3.060   0.104   1.207
 6390SOL     OW19849   2.372   3.750   1.757
 6390SOL    HW119850   2.314   3.705   1.695
 6390SOL    HW219851   2.343   3.841   1.754
 6391SOL     OW19852   2.156   3.919   1.250
 6391SOL    HW119853   2.112   3.938   1.333
 6391SOL    HW219854   2.144   3.825   1.237
 6392SOL     OW19855   3.462   3.933   0.158
 6392SOL    HW119856   3.381   3.882   0.156
 6392SOL    HW219857   3.436   0.018   0.194
 6393SOL     OW19858   3.025   3.920   1.473
 6393SOL    HW119859   3.027   3.995   1.533
 6393SOL    HW219860   3.068   3.952   1.394
 6394SOL     OW19861   2.784   3.824   0.149
 6394SOL    HW119862   2.814   3.816   0.058
 6394SOL    HW219863   2.844   3.769   0.199
 6395SOL     OW19864   3.590   3.863   0.535
 6395SOL    HW119865   3.657   3.849   0.468
 6395SOL    HW219866   3.568   3.775   0.566
 6396SOL     OW19867   3.698   3.895   0.962
 6396SOL    HW119868   3.730   3.808   0.939
 6396SOL    HW219869   3.612   3.900   0.921
 6397SOL     OW19870   2.540   3.909   1.488
 6397SOL    HW119871   2.623   3.898   1.442
 6397SOL    HW219872   2.564   3.931   1.578
 6398SOL     OW19873   1.924   3.856   0.342
 6398SOL    HW119874   1.909   3.939   0.296
 6398SOL    HW219875   2.003   3.820   0.302
 6399SOL     OW19876   3.052   0.009   0.466
 6399SOL    HW119877   3.115   3.937   0.469
 6399SOL    HW219878   3.074   0.063   0.542
 6400SOL     OW19879   3.646   0.047   1.627
 6400SOL    HW119880   3.602   0.082   1.550
 6400SOL    HW219881   3.578   0.000   1.675
 6401SOL     OW19882   3.677   3.909   1.235
 6401SOL    HW119883   3.664   3.817   1.258
 6401SOL    HW219884   3.687   3.909   1.139
 6402SOL     OW19885   3.301   3.931   1.116
 6402SOL    HW119886   3.327   3.849   1.157
 6402SOL    HW219887   3.243   3.972   1.181
 6403SOL     OW19888   2.879   3.737   1.147
 6403SOL    HW119889   2.821   3.682   1.093
 6403SOL    HW219890   2.964   3.693   1.142
 6404SOL     OW19891   3.216   3.783   0.151
 6404SOL    HW119892   3.257   3.711   0.103
 6404SOL    HW219893   3.133   3.748   0.181
 6405SOL     OW19894   3.146   0.163   0.678
 6405SOL    HW119895   3.144   0.258   0.686
 6405SOL    HW219896   3.149   0.132   0.769
 6406SOL     OW19897   3.441   3.929   0.881
 6406SOL    HW119898   3.390   3.931   0.962
 6406SOL    HW219899   3.437   0.019   0.848
 6407SOL     OW19900   2.094   3.980   2.843
 6407SOL    HW119901   2.118   3.962   2.934
 6407SOL    HW219902   2.003   3.953   2.836
 6408SOL     OW19903   1.874   0.061   2.578
 6408SOL    HW119904   1.801   0.107   2.536
 6408SOL    HW219905   1.916   0.012   2.507
 6409SOL     OW19906   3.632   0.318   2.043
 6409SOL    HW119907   3.556   0.301   1.987
 6409SOL    HW219908   3.595   0.342   2.128
 6410SOL     OW19909   2.303   0.094   3.367
 6410SOL    HW119910   2.374   0.049   3.321
 6410SOL    HW219911   2.225   0.042   3.348
 6411SOL     OW19912   3.457   3.851   3.320
 6411SOL    HW119913   3.462   3.938   3.281
 6411SOL    HW219914   3.442   3.868   3.414
 6412SOL     OW19915   2.669   3.730   2.369
 6412SOL    HW119916   2.695   3.822   2.362
 6412SOL    HW219917   2.574   3.732   2.377
 6413SOL     OW19918   3.129   0.062   2.800
 6413SOL    HW119919   3.056   0.009   2.767
 6413SOL    HW219920   3.184   0.001   2.848
 6414SOL     OW19921   2.416   3.904   2.754
 6414SOL    HW119922   2.411   3.923   2.848
 6414SOL    HW219923   2.412   3.990   2.712
 6415SOL     OW19924   2.054   3.982   3.350
 6415SOL    HW119925   2.000   0.060   3.365
 6415SOL    HW219926   2.014   3.915   3.406
 6416SOL     OW19927   3.268   3.831   2.294
 6416SOL    HW119928   3.260   3.799   2.204
 6416SOL    HW219929   3.360   3.817   2.316
 6417SOL     OW19930   3.398   3.937   3.585
 6417SOL    HW119931   3.423   3.939   3.678
 6417SOL    HW219932   3.328   3.873   3.581
 6418SOL     OW19933   2.491   3.848   1.991
 6418SOL    HW119934   2.582   3.819   1.989
 6418SOL    HW219935   2.449   3.800   1.920
 6419SOL     OW19936   2.634   3.956   3.604
 6419SOL    HW119937   2.686   3.926   3.679
 6419SOL    HW219938   2.548   3.975   3.640
 6420SOL     OW19939   2.398   3.784   2.378
 6420SOL    HW119940   2.351   3.786   2.462
 6420SOL    HW219941   2.405   3.876   2.353
 6421SOL     OW19942   2.146   3.761   2.042
 6421SOL    HW119943   2.186   3.848   2.036
 6421SOL    HW219944   2.214   3.706   2.080
 6422SOL     OW19945   2.419   3.943   3.032
 6422SOL    HW119946   2.462   3.874   3.081
 6422SOL    HW219947   2.327   3.938   3.058
 6423SOL     OW19948   2.883   3.766   2.593
 6423SOL    HW119949   2.817   3.753   2.524
 6423SOL    HW219950   2.859   3.702   2.660
 6424SOL     OW19951   2.785   3.802   3.258
 6424SOL    HW119952   2.814   3.781   3.170
 6424SOL    HW219953   2.859   3.849   3.297
 6425SOL     OW19954   3.129   0.073   3.128
 6425SOL    HW119955   3.137   0.143   3.193
 6425SOL    HW219956   3.061   0.104   3.068
 6426SOL     OW19957   2.372   3.750   3.619
 6426SOL    HW119958   2.314   3.705   3.557
 6426SOL    HW219959   2.343   3.841   3.616
 6427SOL     OW19960   2.156   3.919   3.112
 6427SOL    HW119961   2.112   3.938   3.194
 6427SOL    HW219962   2.144   3.825   3.099
 6428SOL     OW19963   3.444   3.953   1.985
 6428SOL    HW119964   3.379   3.896   2.026
 6428SOL    HW219965   3.458   0.024   2.048
 6429SOL     OW19966   3.025   3.920   3.335
 6429SOL    HW119967   3.027   3.994   3.395
 6429SOL    HW219968   3.068   3.952   3.256
 6430SOL     OW19969   2.763   3.811   1.962
 6430SOL    HW119970   2.822   3.768   1.899
 6430SOL    HW219971   2.805   3.797   2.047
 6431SOL     OW19972   3.592   3.859   2.389
 6431SOL    HW119973   3.660   3.845   2.323
 6431SOL    HW219974   3.570   3.771   2.420
 6432SOL     OW19975   3.698   3.895   2.825
 6432SOL    HW119976   3.730   3.808   2.802
 6432SOL    HW219977   3.611   3.900   2.783
 6433SOL     OW19978   2.539   3.909   3.350
 6433SOL    HW119979   2.623   3.898   3.304
 6433SOL    HW219980   2.564   3.931   3.440
 6434SOL     OW19981   1.905   0.053   1.896
 6434SOL    HW119982   1.869   0.027   1.811
 6434SOL    HW219983   1.935   0.143   1.884
 6435SOL     OW19984   1.922   3.863   2.169
 6435SOL    HW119985   1.911   3.953   2.138
 6435SOL    HW219986   2.003   3.833   2.129
 6436SOL     OW19987   3.058   0.013   2.325
 6436SOL    HW119988   3.124   3.943   2.327
 6436SOL    HW219989   3.077   0.065   2.403
 6437SOL     OW19990   3.647   0.047   3.489
 6437SOL    HW119991   3.602   0.082   3.412
 6437SOL    HW219992   3.578   0.000   3.537
 6438SOL     OW19993   3.677   3.909   3.097
 6438SOL    HW119994   3.664   3.817   3.120
 6438SOL    HW219995   3.687   3.909   3.002
 6439SOL     OW19996   3.301   3.931   2.979
 6439SOL    HW119997   3.328   3.849   3.020
 6439SOL    HW219998   3.244   3.972   3.043
 6440SOL     OW19999   2.879   3.736   3.009
 6440SOL    HW120000   2.821   3.682   2.956
 6440SOL    HW220001   2.964   3.693   3.004
 6441SOL     OW20002   3.218   3.770   2.022
 6441SOL    HW120003   3.253   3.699   1.969
 6441SOL    HW220004   3.130   3.741   2.047
 6442SOL     OW20005   3.144   0.162   2.543
 6442SOL    HW120006   3.147   0.257   2.548
 6442SOL    HW220007   3.147   0.133   2.635
 6443SOL     OW20008   3.440   3.929   2.743
 6443SOL    HW120009   3.390   3.931   2.824
 6443SOL    HW220010   3.437   0.019   2.710
 6444SOL     OW20011   2.094   3.980   4.705
 6444SOL    HW120012   2.118   3.961   4.796
 6444SOL    HW220013   2.003   3.953   4.698
 6445SOL     OW20014   1.874   0.061   4.440
 6445SOL    HW120015   1.801   0.107   4.398
 6445SOL    HW220016   1.916   0.012   4.369
 6446SOL     OW20017   3.632   0.318   3.905
 6446SOL    HW120018   3.556   0.301   3.849
 6446SOL    HW220019   3.595   0.342   3.990
 6447SOL     OW20020   2.303   0.094   5.229
 6447SOL    HW120021   2.374   0.050   5.183
 6447SOL    HW220022   2.225   0.042   5.210
 6448SOL     OW20023   3.457   3.851   5.182
 6448SOL    HW120024   3.462   3.938   5.143
 6448SOL    HW220025   3.442   3.868   5.275
 6449SOL     OW20026   2.669   3.730   4.231
 6449SOL    HW120027   2.695   3.822   4.224
 6449SOL    HW220028   2.574   3.732   4.239
 6450SOL     OW20029   3.128   0.062   4.662
 6450SOL    HW120030   3.056   0.009   4.629
 6450SOL    HW220031   3.184   0.001   4.710
 6451SOL     OW20032   2.416   3.904   4.616
 6451SOL    HW120033   2.411   3.923   4.710
 6451SOL    HW220034   2.412   3.990   4.574
 6452SOL     OW20035   2.054   3.982   5.212
 6452SOL    HW120036   2.001   0.060   5.226
 6452SOL    HW220037   2.013   3.915   5.268
 6453SOL     OW20038   3.268   3.831   4.156
 6453SOL    HW120039   3.260   3.799   4.066
 6453SOL    HW220040   3.360   3.817   4.178
 6454SOL     OW20041   3.398   3.937   5.447
 6454SOL    HW120042   3.423   3.939   5.540
 6454SOL    HW220043   3.328   3.872   5.443
 6455SOL     OW20044   2.491   3.848   3.853
 6455SOL    HW120045   2.582   3.819   3.851
 6455SOL    HW220046   2.449   3.800   3.782
 6456SOL     OW20047   2.634   3.956   5.466
 6456SOL    HW120048   2.686   3.927   5.542
 6456SOL    HW220049   2.547   3.974   5.502
 6457SOL     OW20050   2.398   3.784   4.240
 6457SOL    HW120051   2.351   3.786   4.324
 6457SOL    HW220052   2.405   3.876   4.215
 6458SOL     OW20053   2.146   3.761   3.904
 6458SOL    HW120054   2.186   3.848   3.898
 6458SOL    HW220055   2.214   3.706   3.942
 6459SOL     OW20056   2.419   3.943   4.894
 6459SOL    HW120057   2.462   3.874   4.943
 6459SOL    HW220058   2.327   3.938   4.920
 6460SOL     OW20059   2.883   3.766   4.455
 6460SOL    HW120060   2.817   3.753   4.386
 6460SOL    HW220061   2.859   3.702   4.522
 6461SOL     OW20062   2.785   3.802   5.120
 6461SOL    HW120063   2.814   3.781   5.032
 6461SOL    HW220064   2.859   3.849   5.159
 6462SOL     OW20065   3.129   0.073   4.990
 6462SOL    HW120066   3.137   0.143   5.055
 6462SOL    HW220067   3.061   0.104   4.930
 6463SOL     OW20068   2.371   3.750   5.481
 6463SOL    HW120069   2.314   3.705   5.419
 6463SOL    HW220070   2.343   3.841   5.477
 6464SOL     OW20071   2.156   3.919   4.974
 6464SOL    HW120072   2.112   3.938   5.056
 6464SOL    HW220073   2.144   3.825   4.961
 6465SOL     OW20074   3.444   3.953   3.846
 6465SOL    HW120075   3.379   3.896   3.888
 6465SOL    HW220076   3.458   0.024   3.909
 6466SOL     OW20077   3.025   3.920   5.197
 6466SOL    HW120078   3.027   3.995   5.257
 6466SOL    HW220079   3.068   3.952   5.118
 6467SOL     OW20080   2.763   3.810   3.824
 6467SOL    HW120081   2.822   3.768   3.761
 6467SOL    HW220082   2.805   3.797   3.909
 6468SOL     OW20083   3.592   3.859   4.251
 6468SOL    HW120084   3.660   3.845   4.185
 6468SOL    HW220085   3.570   3.771   4.282
 6469SOL     OW20086   3.697   3.895   4.687
 6469SOL    HW120087   3.730   3.808   4.664
 6469SOL    HW220088   3.612   3.900   4.645
 6470SOL     OW20089   2.540   3.909   5.212
 6470SOL    HW120090   2.623   3.898   5.166
 6470SOL    HW220091   2.565   3.931   5.302
 6471SOL     OW20092   1.905   0.053   3.758
 6471SOL    HW120093   1.869   0.027   3.673
 6471SOL    HW220094   1.935   0.143   3.746
 6472SOL     OW20095   1.922   3.863   4.031
 6472SOL    HW120096   1.911   3.953   4.000
 6472SOL    HW220097   2.003   3.833   3.991
 6473SOL     OW20098   3.058   0.013   4.187
 6473SOL    HW120099   3.124   3.943   4.189
 6473SOL    HW220100   3.078   0.065   4.265
 6474SOL     OW20101   3.647   0.047   5.351
 6474SOL    HW120102   3.602   0.082   5.274
 6474SOL    HW220103   3.578   0.000   5.399
 6475SOL     OW20104   3.677   3.909   4.959
 6475SOL    HW120105   3.664   3.817   4.982
 6475SOL    HW220106   3.687   3.909   4.864
 6476SOL     OW20107   3.301   3.931   4.841
 6476SOL    HW120108   3.327   3.848   4.882
 6476SOL    HW220109   3.244   3.972   4.905
 6477SOL     OW20110   2.879   3.736   4.871
 6477SOL    HW120111   2.821   3.682   4.818
 6477SOL    HW220112   2.964   3.693   4.866
 6478SOL     OW20113   3.218   3.770   3.884
 6478SOL    HW120114   3.253   3.699   3.831
 6478SOL    HW220115   3.130   3.741   3.909
 6479SOL     OW20116   3.144   0.162   4.406
 6479SOL    HW120117   3.147   0.257   4.410
 6479SOL    HW220118   3.147   0.133   4.497
 6480SOL     OW20119   3.440   3.929   4.604
 6480SOL    HW120120   3.390   3.931   4.686
 6480SOL    HW220121   3.437   0.019   4.572
 6481SOL     OW20122   2.095   3.980   6.567
 6481SOL    HW120123   2.118   3.961   6.658
 6481SOL    HW220124   2.003   3.953   6.560
 6482SOL     OW20125   1.874   0.061   6.302
 6482SOL    HW120126   1.801   0.107   6.260
 6482SOL    HW220127   1.916   0.013   6.231
 6483SOL     OW20128   3.632   0.318   5.767
 6483SOL    HW120129   3.556   0.302   5.711
 6483SOL    HW220130   3.595   0.342   5.852
 6484SOL     OW20131   2.303   0.093   7.091
 6484SOL    HW120132   2.373   0.047   7.045
 6484SOL    HW220133   2.225   0.043   7.072
 6485SOL     OW20134   3.457   3.851   7.044
 6485SOL    HW120135   3.462   3.938   7.005
 6485SOL    HW220136   3.442   3.868   7.137
 6486SOL     OW20137   2.669   3.730   6.092
 6486SOL    HW120138   2.695   3.822   6.086
 6486SOL    HW220139   2.574   3.733   6.101
 6487SOL     OW20140   3.128   0.062   6.524
 6487SOL    HW120141   3.056   0.008   6.491
 6487SOL    HW220142   3.184   0.001   6.572
 6488SOL     OW20143   2.416   3.904   6.478
 6488SOL    HW120144   2.410   3.923   6.572
 6488SOL    HW220145   2.412   3.990   6.436
 6489SOL     OW20146   2.054   3.982   7.075
 6489SOL    HW120147   1.998   0.058   7.089
 6489SOL    HW220148   2.015   3.913   7.129
 6490SOL     OW20149   3.268   3.831   6.018
 6490SOL    HW120150   3.259   3.799   5.928
 6490SOL    HW220151   3.360   3.817   6.040
 6491SOL     OW20152   3.398   3.937   7.309
 6491SOL    HW120153   3.423   3.939   7.402
 6491SOL    HW220154   3.328   3.872   7.304
 6492SOL     OW20155   2.491   3.847   5.716
 6492SOL    HW120156   2.582   3.819   5.713
 6492SOL    HW220157   2.449   3.800   5.643
 6493SOL     OW20158   2.634   3.957   7.329
 6493SOL    HW120159   2.686   3.927   7.404
 6493SOL    HW220160   2.547   3.974   7.364
 6494SOL     OW20161   2.397   3.784   6.102
 6494SOL    HW120162   2.351   3.786   6.186
 6494SOL    HW220163   2.405   3.876   6.077
 6495SOL     OW20164   2.147   3.761   5.766
 6495SOL    HW120165   2.187   3.848   5.760
 6495SOL    HW220166   2.215   3.706   5.804
 6496SOL     OW20167   2.419   3.943   6.755
 6496SOL    HW120168   2.462   3.873   6.804
 6496SOL    HW220169   2.327   3.938   6.782
 6497SOL     OW20170   2.883   3.766   6.317
 6497SOL    HW120171   2.818   3.753   6.248
 6497SOL    HW220172   2.860   3.703   6.384
 6498SOL     OW20173   2.785   3.803   6.982
 6498SOL    HW120174   2.814   3.781   6.893
 6498SOL    HW220175   2.859   3.849   7.021
 6499SOL     OW20176   3.130   0.073   6.852
 6499SOL    HW120177   3.137   0.142   6.917
 6499SOL    HW220178   3.061   0.103   6.792
 6500SOL     OW20179   2.371   3.751   7.343
 6500SOL    HW120180   2.314   3.705   7.281
 6500SOL    HW220181   2.343   3.842   7.339
 6501SOL     OW20182   2.156   3.919   6.836
 6501SOL    HW120183   2.112   3.938   6.919
 6501SOL    HW220184   2.144   3.825   6.823
 6502SOL     OW20185   3.444   3.953   5.709
 6502SOL    HW120186   3.379   3.896   5.750
 6502SOL    HW220187   3.458   0.023   5.771
 6503SOL     OW20188   3.024   3.920   7.059
 6503SOL    HW120189   3.028   3.994   7.119
 6503SOL    HW220190   3.068   3.952   6.980
 6504SOL     OW20191   2.763   3.810   5.686
 6504SOL    HW120192   2.821   3.768   5.623
 6504SOL    HW220193   2.805   3.797   5.771
 6505SOL     OW20194   3.592   3.859   6.113
 6505SOL    HW120195   3.660   3.845   6.047
 6505SOL    HW220196   3.570   3.771   6.144
 6506SOL     OW20197   3.698   3.895   6.549
 6506SOL    HW120198   3.730   3.808   6.526
 6506SOL    HW220199   3.612   3.900   6.507
 6507SOL     OW20200   2.540   3.909   7.074
 6507SOL    HW120201   2.623   3.897   7.028
 6507SOL    HW220202   2.565   3.932   7.164
 6508SOL     OW20203   1.905   0.053   5.621
 6508SOL    HW120204   1.869   0.028   5.536
 6508SOL    HW220205   1.935   0.143   5.608
 6509SOL     OW20206   1.922   3.863   5.893
 6509SOL    HW120207   1.911   3.953   5.861
 6509SOL    HW220208   2.003   3.833   5.853
 6510SOL     OW20209   3.058   0.013   6.049
 6510SOL    HW120210   3.123   3.943   6.051
 6510SOL    HW220211   3.078   0.065   6.127
 6511SOL     OW20212   3.646   0.047   7.214
 6511SOL    HW120213   3.602   0.081   7.136
 6511SOL    HW220214   3.578   0.000   7.261
 6512SOL     OW20215   3.677   3.909   6.821
 6512SOL    HW120216   3.664   3.818   6.844
 6512SOL    HW220217   3.687   3.909   6.726
 6513SOL     OW20218   3.301   3.931   6.703
 6513SOL    HW120219   3.327   3.848   6.743
 6513SOL    HW220220   3.244   3.972   6.767
 6514SOL     OW20221   2.879   3.737   6.733
 6514SOL    HW120222   2.820   3.682   6.680
 6514SOL    HW220223   2.964   3.693   6.728
 6515SOL     OW20224   3.218   3.770   5.746
 6515SOL    HW120225   3.253   3.699   5.693
 6515SOL    HW220226   3.130   3.741   5.771
 6516SOL     OW20227   3.144   0.162   6.268
 6516SOL    HW120228   3.147   0.257   6.272
 6516SOL    HW220229   3.147   0.133   6.359
 6517SOL     OW20230   3.441   3.929   6.466
 6517SOL    HW120231   3.391   3.931   6.548
 6517SOL    HW220232   3.437   0.019   6.434
 6518SOL     OW20233   2.095   3.979   8.429
 6518SOL    HW120234   2.118   3.961   8.520
 6518SOL    HW220235   2.003   3.953   8.422
 6519SOL     OW20236   1.874   0.060   8.164
 6519SOL    HW120237   1.802   0.108   8.123
 6519SOL    HW220238   1.916   0.013   8.092
 6520SOL     OW20239   3.632   0.319   7.629
 6520SOL    HW120240   3.556   0.302   7.573
 6520SOL    HW220241   3.595   0.342   7.714
 6521SOL     OW20242   2.303   0.094   8.953
 6521SOL    HW120243   2.374   0.049   8.907
 6521SOL    HW220244   2.225   0.042   8.934
 6522SOL     OW20245   3.457   3.851   8.907
 6522SOL    HW120246   3.462   3.938   8.867
 6522SOL    HW220247   3.442   3.868   9.000
 6523SOL     OW20248   2.669   3.730   7.955
 6523SOL    HW120249   2.695   3.822   7.949
 6523SOL    HW220250   2.573   3.733   7.963
 6524SOL     OW20251   3.128   0.062   8.386
 6524SOL    HW120252   3.056   0.008   8.353
 6524SOL    HW220253   3.184   0.001   8.434
 6525SOL     OW20254   2.416   3.904   8.340
 6525SOL    HW120255   2.410   3.923   8.434
 6525SOL    HW220256   2.412   3.989   8.298
 6526SOL     OW20257   2.054   3.982   8.936
 6526SOL    HW120258   2.000   0.060   8.950
 6526SOL    HW220259   2.014   3.916   8.993
 6527SOL     OW20260   3.267   3.831   7.880
 6527SOL    HW120261   3.259   3.799   7.790
 6527SOL    HW220262   3.359   3.817   7.902
 6528SOL     OW20263   3.398   3.937   9.171
 6528SOL    HW120264   3.423   3.940   9.264
 6528SOL    HW220265   3.328   3.873   9.167
 6529SOL     OW20266   2.491   3.847   7.578
 6529SOL    HW120267   2.582   3.819   7.575
 6529SOL    HW220268   2.449   3.801   7.505
 6530SOL     OW20269   2.634   3.956   9.190
 6530SOL    HW120270   2.686   3.927   9.265
 6530SOL    HW220271   2.548   3.975   9.226
 6531SOL     OW20272   2.397   3.784   7.964
 6531SOL    HW120273   2.351   3.786   8.047
 6531SOL    HW220274   2.405   3.876   7.938
 6532SOL     OW20275   2.147   3.761   7.629
 6532SOL    HW120276   2.186   3.848   7.623
 6532SOL    HW220277   2.216   3.706   7.666
 6533SOL     OW20278   2.419   3.943   8.618
 6533SOL    HW120279   2.462   3.874   8.668
 6533SOL    HW220280   2.327   3.938   8.644
 6534SOL     OW20281   2.883   3.766   8.179
 6534SOL    HW120282   2.817   3.753   8.110
 6534SOL    HW220283   2.859   3.702   8.247
 6535SOL     OW20284   2.785   3.802   8.844
 6535SOL    HW120285   2.814   3.781   8.756
 6535SOL    HW220286   2.859   3.849   8.883
 6536SOL     OW20287   3.129   0.073   8.714
 6536SOL    HW120288   3.137   0.142   8.779
 6536SOL    HW220289   3.062   0.104   8.654
 6537SOL     OW20290   2.372   3.750   9.205
 6537SOL    HW120291   2.314   3.705   9.143
 6537SOL    HW220292   2.343   3.841   9.202
 6538SOL     OW20293   2.156   3.919   8.698
 6538SOL    HW120294   2.112   3.938   8.781
 6538SOL    HW220295   2.144   3.825   8.685
 6539SOL     OW20296   3.444   3.953   7.570
 6539SOL    HW120297   3.379   3.895   7.612
 6539SOL    HW220298   3.459   0.022   7.634
 6540SOL     OW20299   3.025   3.920   8.921
 6540SOL    HW120300   3.027   3.994   8.981
 6540SOL    HW220301   3.068   3.952   8.842
 6541SOL     OW20302   2.763   3.810   7.547
 6541SOL    HW120303   2.820   3.767   7.484
 6541SOL    HW220304   2.806   3.796   7.632
 6542SOL     OW20305   3.593   3.859   7.975
 6542SOL    HW120306   3.660   3.845   7.908
 6542SOL    HW220307   3.570   3.772   8.006
 6543SOL     OW20308   3.697   3.895   8.411
 6543SOL    HW120309   3.730   3.808   8.388
 6543SOL    HW220310   3.612   3.900   8.369
 6544SOL     OW20311   2.540   3.908   8.936
 6544SOL    HW120312   2.623   3.898   8.890
 6544SOL    HW220313   2.564   3.931   9.026
 6545SOL     OW20314   1.907   0.053   7.482
 6545SOL    HW120315   1.870   0.027   7.397
 6545SOL    HW220316   1.935   0.143   7.470
 6546SOL     OW20317   1.922   3.863   7.756
 6546SOL    HW120318   1.911   3.953   7.725
 6546SOL    HW220319   2.003   3.833   7.715
 6547SOL     OW20320   3.058   0.012   7.912
 6547SOL    HW120321   3.123   3.943   7.913
 6547SOL    HW220322   3.078   0.065   7.989
 6548SOL     OW20323   3.647   0.047   9.075
 6548SOL    HW120324   3.602   0.082   8.998
 6548SOL    HW220325   3.578   0.000   9.123
 6549SOL     OW20326   3.676   3.909   8.683
 6549SOL    HW120327   3.665   3.817   8.706
 6549SOL    HW220328   3.686   3.909   8.588
 6550SOL     OW20329   3.301   3.931   8.565
 6550SOL    HW120330   3.328   3.849   8.606
 6550SOL    HW220331   3.244   3.972   8.629
 6551SOL     OW20332   2.879   3.736   8.595
 6551SOL    HW120333   2.821   3.682   8.541
 6551SOL    HW220334   2.964   3.693   8.590
 6552SOL     OW20335   3.218   3.770   7.608
 6552SOL    HW120336   3.253   3.699   7.555
 6552SOL    HW220337   3.130   3.741   7.632
 6553SOL     OW20338   3.143   0.162   8.130
 6553SOL    HW120339   3.147   0.258   8.135
 6553SOL    HW220340   3.147   0.133   8.221
 6554SOL     OW20341   3.440   3.929   8.328
 6554SOL    HW120342   3.390   3.931   8.410
 6554SOL    HW220343   3.437   0.019   8.296
 6555SOL     OW20344   2.094   3.980  10.291
 6555SOL    HW120345   2.118   3.961  10.382
 6555SOL    HW220346   2.003   3.953  10.284
 6556SOL     OW20347   1.874   0.061  10.026
 6556SOL    HW120348   1.801   0.107   9.985
 6556SOL    HW220349   1.916   0.012   9.955
 6557SOL     OW20350   3.632   0.318   9.491
 6557SOL    HW120351   3.556   0.301   9.435
 6557SOL    HW220352   3.595   0.342   9.576
 6558SOL     OW20353   2.303   0.094  10.815
 6558SOL    HW120354   2.374   0.050  10.769
 6558SOL    HW220355   2.225   0.042  10.796
 6559SOL     OW20356   3.457   3.851  10.769
 6559SOL    HW120357   3.462   3.938  10.729
 6559SOL    HW220358   3.442   3.868  10.862
 6560SOL     OW20359   2.669   3.730   9.817
 6560SOL    HW120360   2.695   3.822   9.810
 6560SOL    HW220361   2.574   3.732   9.825
 6561SOL     OW20362   3.128   0.062  10.248
 6561SOL    HW120363   3.056   0.009  10.215
 6561SOL    HW220364   3.184   0.001  10.296
 6562SOL     OW20365   2.416   3.904  10.202
 6562SOL    HW120366   2.411   3.923  10.296
 6562SOL    HW220367   2.412   3.990  10.160
 6563SOL     OW20368   2.054   3.982  10.798
 6563SOL    HW120369   2.001   0.061  10.812
 6563SOL    HW220370   2.013   3.916  10.854
 6564SOL     OW20371   3.268   3.831   9.742
 6564SOL    HW120372   3.260   3.799   9.653
 6564SOL    HW220373   3.360   3.817   9.765
 6565SOL     OW20374   3.398   3.937  11.033
 6565SOL    HW120375   3.423   3.939  11.126
 6565SOL    HW220376   3.328   3.873  11.029
 6566SOL     OW20377   2.491   3.848   9.439
 6566SOL    HW120378   2.582   3.819   9.437
 6566SOL    HW220379   2.449   3.800   9.368
 6567SOL     OW20380   2.634   3.956  11.052
 6567SOL    HW120381   2.686   3.927  11.128
 6567SOL    HW220382   2.548   3.975  11.088
 6568SOL     OW20383   2.398   3.784   9.826
 6568SOL    HW120384   2.351   3.786   9.910
 6568SOL    HW220385   2.405   3.876   9.801
 6569SOL     OW20386   2.146   3.761   9.490
 6569SOL    HW120387   2.186   3.848   9.484
 6569SOL    HW220388   2.215   3.706   9.528
 6570SOL     OW20389   2.419   3.943  10.480
 6570SOL    HW120390   2.462   3.874  10.530
 6570SOL    HW220391   2.327   3.938  10.506
 6571SOL     OW20392   2.883   3.766  10.041
 6571SOL    HW120393   2.817   3.753   9.972
 6571SOL    HW220394   2.859   3.702  10.108
 6572SOL     OW20395   2.785   3.802  10.706
 6572SOL    HW120396   2.814   3.781  10.618
 6572SOL    HW220397   2.859   3.849  10.745
 6573SOL     OW20398   3.129   0.073  10.576
 6573SOL    HW120399   3.137   0.143  10.641
 6573SOL    HW220400   3.061   0.104  10.516
 6574SOL     OW20401   2.371   3.750  11.067
 6574SOL    HW120402   2.314   3.705  11.005
 6574SOL    HW220403   2.344   3.841  11.064
 6575SOL     OW20404   2.156   3.919  10.560
 6575SOL    HW120405   2.112   3.938  10.642
 6575SOL    HW220406   2.144   3.825  10.547
 6576SOL     OW20407   3.444   3.953   9.432
 6576SOL    HW120408   3.379   3.896   9.474
 6576SOL    HW220409   3.458   0.024   9.495
 6577SOL     OW20410   3.025   3.920  10.783
 6577SOL    HW120411   3.027   3.995  10.843
 6577SOL    HW220412   3.068   3.952  10.704
 6578SOL     OW20413   2.763   3.811   9.410
 6578SOL    HW120414   2.822   3.768   9.347
 6578SOL    HW220415   2.805   3.797   9.495
 6579SOL     OW20416   3.592   3.859   9.837
 6579SOL    HW120417   3.660   3.845   9.771
 6579SOL    HW220418   3.570   3.771   9.868
 6580SOL     OW20419   3.697   3.895  10.273
 6580SOL    HW120420   3.730   3.808  10.250
 6580SOL    HW220421   3.611   3.900  10.231
 6581SOL     OW20422   2.540   3.909  10.798
 6581SOL    HW120423   2.623   3.898  10.752
 6581SOL    HW220424   2.564   3.931  10.888
 6582SOL     OW20425   1.906   0.053   9.344
 6582SOL    HW120426   1.870   0.027   9.259
 6582SOL    HW220427   1.935   0.143   9.332
 6583SOL     OW20428   1.922   3.863   9.617
 6583SOL    HW120429   1.911   3.953   9.586
 6583SOL    HW220430   2.003   3.833   9.577
 6584SOL     OW20431   3.058   0.013   9.773
 6584SOL    HW120432   3.124   3.943   9.775
 6584SOL    HW220433   3.077   0.065   9.851
 6585SOL     OW20434   3.647   0.047  10.937
 6585SOL    HW120435   3.602   0.082  10.860
 6585SOL    HW220436   3.578   0.000  10.985
 6586SOL     OW20437   3.677   3.909  10.545
 6586SOL    HW120438   3.664   3.817  10.568
 6586SOL    HW220439   3.687   3.909  10.450
 6587SOL     OW20440   3.301   3.931  10.427
 6587SOL    HW120441   3.328   3.849  10.468
 6587SOL    HW220442   3.244   3.972  10.491
 6588SOL     OW20443   2.879   3.736  10.457
 6588SOL    HW120444   2.821   3.682  10.404
 6588SOL    HW220445   2.964   3.693  10.452
 6589SOL     OW20446   3.218   3.770   9.470
 6589SOL    HW120447   3.253   3.699   9.417
 6589SOL    HW220448   3.130   3.741   9.495
 6590SOL     OW20449   3.144   0.162   9.992
 6590SOL    HW120450   3.147   0.257   9.996
 6590SOL    HW220451   3.147   0.133  10.083
 6591SOL     OW20452   3.440   3.929  10.190
 6591SOL    HW120453   3.390   3.931  10.272
 6591SOL    HW220454   3.437   0.019  10.158
 6592SOL     OW20455   2.094   3.980  12.153
 6592SOL    HW120456   2.118   3.961  12.244
 6592SOL    HW220457   2.003   3.953  12.146
 6593SOL     OW20458   1.874   0.061  11.888
 6593SOL    HW120459   1.801   0.107  11.846
 6593SOL    HW220460   1.916   0.013  11.817
 6594SOL     OW20461   3.632   0.318  11.353
 6594SOL    HW120462   3.556   0.301  11.297
 6594SOL    HW220463   3.595   0.342  11.438
 6595SOL     OW20464   2.303   0.094  12.677
 6595SOL    HW120465   2.373   0.049  12.631
 6595SOL    HW220466   2.225   0.042  12.658
 6596SOL     OW20467   3.457   3.851  12.631
 6596SOL    HW120468   3.462   3.938  12.591
 6596SOL    HW220469   3.442   3.868  12.724
 6597SOL     OW20470   2.669   3.730  11.679
 6597SOL    HW120471   2.695   3.822  11.672
 6597SOL    HW220472   2.574   3.732  11.687
 6598SOL     OW20473   3.128   0.062  12.110
 6598SOL    HW120474   3.056   0.009  12.077
 6598SOL    HW220475   3.184   0.001  12.158
 6599SOL     OW20476   2.416   3.904  12.064
 6599SOL    HW120477   2.411   3.923  12.158
 6599SOL    HW220478   2.412   3.990  12.022
 6600SOL     OW20479   2.054   3.982  12.660
 6600SOL    HW120480   2.000   0.060  12.674
 6600SOL    HW220481   2.014   3.915  12.716
 6601SOL     OW20482   3.268   3.831  11.604
 6601SOL    HW120483   3.260   3.799  11.514
 6601SOL    HW220484   3.360   3.817  11.626
 6602SOL     OW20485   3.398   3.938  12.896
 6602SOL    HW120486   3.421   3.942  12.989
 6602SOL    HW220487   3.328   3.873  12.892
 6603SOL     OW20488   2.491   3.848  11.302
 6603SOL    HW120489   2.582   3.819  11.299
 6603SOL    HW220490   2.449   3.800  11.230
 6604SOL     OW20491   2.635   3.956  12.914
 6604SOL    HW120492   2.686   3.926  12.990
 6604SOL    HW220493   2.547   3.973  12.950
 6605SOL     OW20494   2.398   3.784  11.688
 6605SOL    HW120495   2.351   3.786  11.772
 6605SOL    HW220496   2.405   3.876  11.663
 6606SOL     OW20497   2.146   3.761  11.352
 6606SOL    HW120498   2.186   3.848  11.346
 6606SOL    HW220499   2.215   3.706  11.390
 6607SOL     OW20500   2.419   3.943  12.342
 6607SOL    HW120501   2.462   3.874  12.392
 6607SOL    HW220502   2.327   3.938  12.368
 6608SOL     OW20503   2.883   3.766  11.903
 6608SOL    HW120504   2.817   3.753  11.834
 6608SOL    HW220505   2.859   3.702  11.970
 6609SOL     OW20506   2.785   3.802  12.568
 6609SOL    HW120507   2.814   3.781  12.480
 6609SOL    HW220508   2.859   3.849  12.607
 6610SOL     OW20509   3.129   0.073  12.438
 6610SOL    HW120510   3.137   0.143  12.503
 6610SOL    HW220511   3.061   0.104  12.378
 6611SOL     OW20512   2.372   3.750  12.929
 6611SOL    HW120513   2.314   3.704  12.867
 6611SOL    HW220514   2.343   3.841  12.926
 6612SOL     OW20515   2.156   3.919  12.422
 6612SOL    HW120516   2.112   3.938  12.504
 6612SOL    HW220517   2.144   3.825  12.409
 6613SOL     OW20518   3.444   3.953  11.295
 6613SOL    HW120519   3.379   3.896  11.336
 6613SOL    HW220520   3.458   0.024  11.357
 6614SOL     OW20521   3.025   3.920  12.645
 6614SOL    HW120522   3.027   3.994  12.705
 6614SOL    HW220523   3.068   3.952  12.566
 6615SOL     OW20524   2.763   3.810  11.272
 6615SOL    HW120525   2.822   3.768  11.209
 6615SOL    HW220526   2.805   3.797  11.357
 6616SOL     OW20527   3.592   3.859  11.699
 6616SOL    HW120528   3.660   3.845  11.633
 6616SOL    HW220529   3.570   3.771  11.730
 6617SOL     OW20530   3.698   3.895  12.135
 6617SOL    HW120531   3.730   3.808  12.112
 6617SOL    HW220532   3.612   3.900  12.093
 6618SOL     OW20533   2.540   3.909  12.660
 6618SOL    HW120534   2.623   3.898  12.614
 6618SOL    HW220535   2.564   3.931  12.750
 6619SOL     OW20536   1.906   0.053  11.206
 6619SOL    HW120537   1.869   0.028  11.121
 6619SOL    HW220538   1.935   0.143  11.194
 6620SOL     OW20539   1.922   3.863  11.479
 6620SOL    HW120540   1.912   3.953  11.448
 6620SOL    HW220541   2.003   3.833  11.439
 6621SOL     OW20542   3.058   0.013  11.635
 6621SOL    HW120543   3.124   3.943  11.637
 6621SOL    HW220544   3.077   0.065  11.713
 6622SOL     OW20545   3.646   0.047  12.799
 6622SOL    HW120546   3.601   0.082  12.721
 6622SOL    HW220547   3.578   0.000  12.847
 6623SOL     OW20548   3.677   3.909  12.407
 6623SOL    HW120549   3.664   3.818  12.430
 6623SOL    HW220550   3.687   3.909  12.312
 6624SOL     OW20551   3.301   3.931  12.289
 6624SOL    HW120552   3.328   3.848  12.330
 6624SOL    HW220553   3.244   3.972  12.353
 6625SOL     OW20554   2.879   3.736  12.319
 6625SOL    HW120555   2.821   3.682  12.266
 6625SOL    HW220556   2.964   3.693  12.314
 6626SOL     OW20557   3.218   3.770  11.332
 6626SOL    HW120558   3.253   3.699  11.279
 6626SOL    HW220559   3.130   3.741  11.357
 6627SOL     OW20560   3.144   0.162  11.854
 6627SOL    HW120561   3.147   0.257  11.858
 6627SOL    HW220562   3.147   0.133  11.945
 6628SOL     OW20563   3.440   3.929  12.052
 6628SOL    HW120564   3.390   3.931  12.134
 6628SOL    HW220565   3.437   0.019  12.020
 6629SOL     OW20566   1.878   0.090  13.687
 6629SOL    HW120567   1.796   0.112  13.730
 6629SOL    HW220568   1.867   3.999  13.658
 6630SOL     OW20569   3.632   0.315  13.215
 6630SOL    HW120570   3.556   0.299  13.159
 6630SOL    HW220571   3.595   0.337  13.300
 6631SOL     OW20572   3.466   0.174  13.768
 6631SOL    HW120573   3.377   0.149  13.741
 6631SOL    HW220574   3.456   0.264  13.799
 6632SOL     OW20575   2.671   3.731  13.541
 6632SOL    HW120576   2.694   3.824  13.534
 6632SOL    HW220577   2.576   3.731  13.550
 6633SOL     OW20578   3.269   3.836  13.463
 6633SOL    HW120579   3.264   3.800  13.374
 6633SOL    HW220580   3.361   3.827  13.487
 6634SOL     OW20581   2.491   3.849  13.162
 6634SOL    HW120582   2.582   3.819  13.161
 6634SOL    HW220583   2.449   3.800  13.091
 6635SOL     OW20584   2.399   3.778  13.550
 6635SOL    HW120585   2.346   3.766  13.629
 6635SOL    HW220586   2.400   3.873  13.536
 6636SOL     OW20587   2.146   3.761  13.214
 6636SOL    HW120588   2.187   3.847  13.208
 6636SOL    HW220589   2.213   3.705  13.253
 6637SOL     OW20590   2.874   3.761  13.769
 6637SOL    HW120591   2.816   3.756  13.692
 6637SOL    HW220592   2.854   3.683  13.820
 6638SOL     OW20593   3.444   3.957  13.158
 6638SOL    HW120594   3.386   3.895  13.201
 6638SOL    HW220595   3.481   0.009  13.230
 6639SOL     OW20596   2.763   3.811  13.134
 6639SOL    HW120597   2.822   3.768  13.071
 6639SOL    HW220598   2.805   3.795  13.219
 6640SOL     OW20599   3.591   3.858  13.567
 6640SOL    HW120600   3.660   3.846  13.501
 6640SOL    HW220601   3.573   3.769  13.599
 6641SOL     OW20602   3.713   3.897   0.045
 6641SOL    HW120603   3.749   3.809   0.056
 6641SOL    HW220604   3.625   3.892   0.083
 6642SOL     OW20605   1.906   0.052  13.065
 6642SOL    HW120606   1.870   0.029  12.979
 6642SOL    HW220607   1.934   0.143  13.055
 6643SOL     OW20608   1.919   3.865  13.342
 6643SOL    HW120609   1.914   3.958  13.321
 6643SOL    HW220610   2.000   3.835  13.299
 6644SOL     OW20611   3.052   0.002  13.518
 6644SOL    HW120612   3.124   3.942  13.498
 6644SOL    HW220613   3.085   0.059  13.587
 6645SOL     OW20614   3.219   3.770  13.193
 6645SOL    HW120615   3.252   3.698  13.140
 6645SOL    HW220616   3.131   3.742  13.219
 6646SOL     OW20617   3.176   0.154  13.735
 6646SOL    HW120618   3.142   0.242  13.720
 6646SOL    HW220619   3.155   0.136  13.827
 6647SOL     OW20620   3.953   0.628   0.128
 6647SOL    HW120621   3.893   0.632   0.203
 6647SOL    HW220622   3.908   0.574   0.064
 6648SOL     OW20623   3.954   0.300   0.995
 6648SOL    HW120624   3.963   0.274   1.087
 6648SOL    HW220625   3.869   0.265   0.969
 6649SOL     OW20626   3.732   0.395   0.637
 6649SOL    HW120627   3.644   0.408   0.673
 6649SOL    HW220628   3.723   0.318   0.581
 6650SOL     OW20629   0.012   1.526   1.052
 6650SOL    HW120630   3.957   1.449   1.037
 6650SOL    HW220631   0.078   1.522   0.982
 6651SOL     OW20632   3.947   1.717   0.475
 6651SOL    HW120633   3.943   1.791   0.535
 6651SOL    HW220634   0.040   1.706   0.456
 6652SOL     OW20635   3.936   1.437   0.506
 6652SOL    HW120636   3.927   1.532   0.508
 6652SOL    HW220637   3.883   1.406   0.579
 6653SOL     OW20638   3.806   0.650   0.557
 6653SOL    HW120639   3.789   0.559   0.582
 6653SOL    HW220640   3.810   0.697   0.641
 6654SOL     OW20641   3.694   1.616   0.098
 6654SOL    HW120642   3.729   1.529   0.117
 6654SOL    HW220643   3.699   1.663   0.182
 6655SOL     OW20644   3.823   0.752   1.575
 6655SOL    HW120645   3.903   0.800   1.596
 6655SOL    HW220646   3.756   0.820   1.568
 6656SOL     OW20647   3.805   0.819   0.771
 6656SOL    HW120648   3.899   0.816   0.789
 6656SOL    HW220649   3.773   0.891   0.826
 6657SOL     OW20650   3.847   1.878   1.570
 6657SOL    HW120651   3.847   1.848   1.661
 6657SOL    HW220652   3.770   1.837   1.531
 6658SOL     OW20653   3.924   0.310   1.520
 6658SOL    HW120654   3.851   0.360   1.484
 6658SOL    HW220655   3.883   0.247   1.580
 6659SOL     OW20656   3.810   0.547   1.392
 6659SOL    HW120657   3.905   0.546   1.379
 6659SOL    HW220658   3.794   0.623   1.448
 6660SOL     OW20659   3.792   1.574   1.351
 6660SOL    HW120660   3.765   1.636   1.283
 6660SOL    HW220661   3.887   1.581   1.353
 6661SOL     OW20662   0.070   1.098   0.539
 6661SOL    HW120663   0.079   1.151   0.460
 6661SOL    HW220664   0.146   1.039   0.537
 6662SOL     OW20665   0.003   0.214   1.248
 6662SOL    HW120666   3.975   0.238   1.337
 6662SOL    HW220667   0.002   0.118   1.248
 6663SOL     OW20668   3.751   1.313   1.277
 6663SOL    HW120669   3.793   1.262   1.346
 6663SOL    HW220670   3.764   1.404   1.302
 6664SOL     OW20671   3.744   1.319   0.171
 6664SOL    HW120672   3.660   1.334   0.128
 6664SOL    HW220673   3.732   1.236   0.218
 6665SOL     OW20674   3.801   1.793   0.939
 6665SOL    HW120675   3.778   1.713   0.892
 6665SOL    HW220676   3.895   1.803   0.925
 6666SOL     OW20677   0.211   1.549   0.864
 6666SOL    HW120678   0.294   1.596   0.863
 6666SOL    HW220679   0.218   1.485   0.794
 6667SOL     OW20680   3.752   0.536   1.117
 6667SOL    HW120681   3.831   0.530   1.063
 6667SOL    HW220682   3.785   0.545   1.207
 6668SOL     OW20683   3.903   0.532   1.713
 6668SOL    HW120684   3.940   0.478   1.643
 6668SOL    HW220685   3.862   0.606   1.668
 6669SOL     OW20686   3.940   1.531   1.726
 6669SOL    HW120687   3.929   1.616   1.768
 6669SOL    HW220688   3.990   1.480   1.790
 6670SOL     OW20689   3.860   1.136   1.472
 6670SOL    HW120690   3.935   1.136   1.531
 6670SOL    HW220691   3.891   1.091   1.394
 6671SOL     OW20692   3.811   1.269   1.012
 6671SOL    HW120693   3.782   1.280   1.102
 6671SOL    HW220694   3.752   1.203   0.976
 6672SOL     OW20695   3.845   1.789   1.824
 6672SOL    HW120696   3.793   1.725   1.872
 6672SOL    HW220697   3.895   1.835   1.891
 6673SOL     OW20698   3.801   0.407   0.003
 6673SOL    HW120699   3.763   0.327   0.039
 6673SOL    HW220700   3.776   0.407  13.811
 6674SOL     OW20701   3.793   0.145   0.352
 6674SOL    HW120702   3.756   0.222   0.309
 6674SOL    HW220703   3.888   0.160   0.350
 6675SOL     OW20704   3.801   1.234   0.665
 6675SOL    HW120705   3.792   1.186   0.748
 6675SOL    HW220706   3.884   1.203   0.629
 6676SOL     OW20707   3.753   1.081   0.307
 6676SOL    HW120708   3.849   1.088   0.315
 6676SOL    HW220709   3.734   0.990   0.327
 6677SOL     OW20710   3.956   0.632   1.969
 6677SOL    HW120711   3.875   0.635   2.020
 6677SOL    HW220712   3.929   0.599   1.883
 6678SOL     OW20713   3.954   0.298   2.856
 6678SOL    HW120714   3.963   0.273   2.948
 6678SOL    HW220715   3.868   0.264   2.831
 6679SOL     OW20716   3.731   0.393   2.499
 6679SOL    HW120717   3.644   0.408   2.535
 6679SOL    HW220718   3.721   0.317   2.442
 6680SOL     OW20719   0.012   1.527   2.913
 6680SOL    HW120720   3.958   1.449   2.900
 6680SOL    HW220721   0.078   1.522   2.844
 6681SOL     OW20722   3.942   1.720   2.338
 6681SOL    HW120723   3.944   1.792   2.401
 6681SOL    HW220724   0.033   1.706   2.314
 6682SOL     OW20725   3.945   1.438   2.369
 6682SOL    HW120726   3.924   1.532   2.369
 6682SOL    HW220727   3.887   1.401   2.436
 6683SOL     OW20728   3.804   0.650   2.421
 6683SOL    HW120729   3.789   0.558   2.446
 6683SOL    HW220730   3.809   0.697   2.504
 6684SOL     OW20731   3.759   1.596   1.991
 6684SOL    HW120732   3.737   1.504   2.008
 6684SOL    HW220733   3.727   1.643   2.068
 6685SOL     OW20734   3.823   0.752   3.437
 6685SOL    HW120735   3.903   0.800   3.458
 6685SOL    HW220736   3.756   0.820   3.429
 6686SOL     OW20737   3.805   0.819   2.635
 6686SOL    HW120738   3.899   0.816   2.652
 6686SOL    HW220739   3.773   0.891   2.689
 6687SOL     OW20740   3.847   1.878   3.432
 6687SOL    HW120741   3.847   1.848   3.523
 6687SOL    HW220742   3.769   1.837   3.393
 6688SOL     OW20743   3.924   0.310   3.382
 6688SOL    HW120744   3.851   0.360   3.346
 6688SOL    HW220745   3.883   0.248   3.442
 6689SOL     OW20746   3.810   0.547   3.254
 6689SOL    HW120747   3.905   0.546   3.241
 6689SOL    HW220748   3.794   0.623   3.310
 6690SOL     OW20749   0.266   0.293   2.194
 6690SOL    HW120750   0.320   0.226   2.150
 6690SOL    HW220751   0.307   0.376   2.169
 6691SOL     OW20752   3.792   1.574   3.212
 6691SOL    HW120753   3.765   1.636   3.145
 6691SOL    HW220754   3.887   1.581   3.215
 6692SOL     OW20755   0.064   1.097   2.395
 6692SOL    HW120756   0.058   1.134   2.307
 6692SOL    HW220757   0.130   1.028   2.388
 6693SOL     OW20758   0.003   0.215   3.110
 6693SOL    HW120759   3.975   0.239   3.199
 6693SOL    HW220760   0.002   0.119   3.110
 6694SOL     OW20761   3.751   1.312   3.139
 6694SOL    HW120762   3.793   1.262   3.209
 6694SOL    HW220763   3.764   1.404   3.164
 6695SOL     OW20764   3.728   1.327   2.048
 6695SOL    HW120765   3.642   1.340   2.008
 6695SOL    HW220766   3.720   1.244   2.095
 6696SOL     OW20767   3.801   1.794   2.801
 6696SOL    HW120768   3.778   1.714   2.754
 6696SOL    HW220769   3.896   1.803   2.788
 6697SOL     OW20770   0.211   1.549   2.726
 6697SOL    HW120771   0.295   1.595   2.726
 6697SOL    HW220772   0.218   1.484   2.656
 6698SOL     OW20773   3.752   0.536   2.979
 6698SOL    HW120774   3.831   0.531   2.926
 6698SOL    HW220775   3.784   0.544   3.069
 6699SOL     OW20776   3.903   0.532   3.575
 6699SOL    HW120777   3.940   0.478   3.505
 6699SOL    HW220778   3.862   0.606   3.530
 6700SOL     OW20779   3.940   1.531   3.588
 6700SOL    HW120780   3.929   1.616   3.630
 6700SOL    HW220781   3.990   1.480   3.652
 6701SOL     OW20782   3.860   1.136   3.334
 6701SOL    HW120783   3.935   1.136   3.393
 6701SOL    HW220784   3.891   1.091   3.256
 6702SOL     OW20785   3.811   1.270   2.874
 6702SOL    HW120786   3.782   1.280   2.964
 6702SOL    HW220787   3.752   1.203   2.838
 6703SOL     OW20788   3.845   1.789   3.686
 6703SOL    HW120789   3.793   1.725   3.734
 6703SOL    HW220790   3.895   1.835   3.753
 6704SOL     OW20791   3.823   0.316   1.858
 6704SOL    HW120792   3.755   0.332   1.923
 6704SOL    HW220793   3.820   0.393   1.801
 6705SOL     OW20794   3.775   0.151   2.206
 6705SOL    HW120795   3.742   0.206   2.136
 6705SOL    HW220796   3.871   0.156   2.198
 6706SOL     OW20797   3.802   1.237   2.527
 6706SOL    HW120798   3.794   1.188   2.609
 6706SOL    HW220799   3.879   1.199   2.484
 6707SOL     OW20800   3.753   1.082   2.174
 6707SOL    HW120801   3.843   1.084   2.142
 6707SOL    HW220802   3.735   0.990   2.193
 6708SOL     OW20803   3.956   0.632   3.831
 6708SOL    HW120804   3.875   0.635   3.882
 6708SOL    HW220805   3.929   0.599   3.745
 6709SOL     OW20806   3.954   0.298   4.718
 6709SOL    HW120807   3.963   0.273   4.811
 6709SOL    HW220808   3.868   0.264   4.693
 6710SOL     OW20809   3.731   0.393   4.361
 6710SOL    HW120810   3.644   0.408   4.397
 6710SOL    HW220811   3.721   0.317   4.303
 6711SOL     OW20812   0.012   1.527   4.775
 6711SOL    HW120813   3.958   1.449   4.762
 6711SOL    HW220814   0.078   1.522   4.707
 6712SOL     OW20815   3.942   1.720   4.200
 6712SOL    HW120816   3.944   1.792   4.263
 6712SOL    HW220817   0.033   1.706   4.176
 6713SOL     OW20818   3.945   1.438   4.232
 6713SOL    HW120819   3.924   1.532   4.231
 6713SOL    HW220820   3.887   1.401   4.298
 6714SOL     OW20821   3.804   0.649   4.283
 6714SOL    HW120822   3.789   0.558   4.308
 6714SOL    HW220823   3.809   0.697   4.366
 6715SOL     OW20824   3.759   1.596   3.853
 6715SOL    HW120825   3.737   1.504   3.870
 6715SOL    HW220826   3.727   1.643   3.930
 6716SOL     OW20827   3.823   0.752   5.299
 6716SOL    HW120828   3.903   0.800   5.320
 6716SOL    HW220829   3.756   0.820   5.291
 6717SOL     OW20830   3.805   0.819   4.497
 6717SOL    HW120831   3.899   0.816   4.514
 6717SOL    HW220832   3.773   0.891   4.551
 6718SOL     OW20833   3.847   1.878   5.293
 6718SOL    HW120834   3.847   1.848   5.384
 6718SOL    HW220835   3.769   1.838   5.255
 6719SOL     OW20836   3.924   0.310   5.244
 6719SOL    HW120837   3.852   0.360   5.207
 6719SOL    HW220838   3.882   0.247   5.304
 6720SOL     OW20839   3.810   0.547   5.116
 6720SOL    HW120840   3.905   0.546   5.103
 6720SOL    HW220841   3.794   0.623   5.172
 6721SOL     OW20842   0.266   0.293   4.056
 6721SOL    HW120843   0.320   0.226   4.012
 6721SOL    HW220844   0.307   0.376   4.031
 6722SOL     OW20845   3.792   1.574   5.074
 6722SOL    HW120846   3.765   1.636   5.007
 6722SOL    HW220847   3.887   1.581   5.077
 6723SOL     OW20848   0.064   1.097   4.257
 6723SOL    HW120849   0.058   1.134   4.169
 6723SOL    HW220850   0.131   1.029   4.250
 6724SOL     OW20851   0.004   0.214   4.973
 6724SOL    HW120852   3.975   0.239   5.061
 6724SOL    HW220853   0.002   0.119   4.972
 6725SOL     OW20854   3.751   1.312   5.001
 6725SOL    HW120855   3.793   1.262   5.071
 6725SOL    HW220856   3.764   1.404   5.025
 6726SOL     OW20857   3.728   1.327   3.910
 6726SOL    HW120858   3.642   1.340   3.870
 6726SOL    HW220859   3.720   1.244   3.957
 6727SOL     OW20860   3.801   1.794   4.663
 6727SOL    HW120861   3.778   1.713   4.616
 6727SOL    HW220862   3.896   1.803   4.650
 6728SOL     OW20863   0.211   1.549   4.588
 6728SOL    HW120864   0.295   1.595   4.588
 6728SOL    HW220865   0.218   1.484   4.518
 6729SOL     OW20866   3.752   0.536   4.841
 6729SOL    HW120867   3.831   0.531   4.788
 6729SOL    HW220868   3.784   0.544   4.931
 6730SOL     OW20869   3.903   0.532   5.437
 6730SOL    HW120870   3.940   0.478   5.367
 6730SOL    HW220871   3.862   0.606   5.392
 6731SOL     OW20872   3.941   1.531   5.450
 6731SOL    HW120873   3.928   1.617   5.491
 6731SOL    HW220874   3.989   1.480   5.515
 6732SOL     OW20875   3.860   1.136   5.196
 6732SOL    HW120876   3.935   1.137   5.255
 6732SOL    HW220877   3.891   1.091   5.118
 6733SOL     OW20878   3.811   1.270   4.736
 6733SOL    HW120879   3.782   1.280   4.826
 6733SOL    HW220880   3.752   1.203   4.700
 6734SOL     OW20881   3.845   1.789   5.548
 6734SOL    HW120882   3.793   1.725   5.596
 6734SOL    HW220883   3.895   1.835   5.615
 6735SOL     OW20884   3.823   0.316   3.720
 6735SOL    HW120885   3.755   0.332   3.785
 6735SOL    HW220886   3.820   0.393   3.663
 6736SOL     OW20887   3.775   0.151   4.068
 6736SOL    HW120888   3.742   0.206   3.998
 6736SOL    HW220889   3.871   0.156   4.060
 6737SOL     OW20890   3.802   1.237   4.389
 6737SOL    HW120891   3.794   1.188   4.471
 6737SOL    HW220892   3.879   1.199   4.346
 6738SOL     OW20893   3.753   1.082   4.036
 6738SOL    HW120894   3.843   1.083   4.003
 6738SOL    HW220895   3.735   0.990   4.055
 6739SOL     OW20896   3.956   0.632   5.693
 6739SOL    HW120897   3.875   0.635   5.744
 6739SOL    HW220898   3.930   0.599   5.607
 6740SOL     OW20899   3.954   0.298   6.580
 6740SOL    HW120900   3.963   0.273   6.672
 6740SOL    HW220901   3.868   0.264   6.555
 6741SOL     OW20902   3.731   0.393   6.223
 6741SOL    HW120903   3.644   0.407   6.259
 6741SOL    HW220904   3.722   0.317   6.166
 6742SOL     OW20905   0.011   1.526   6.637
 6742SOL    HW120906   3.958   1.448   6.622
 6742SOL    HW220907   0.078   1.522   6.568
 6743SOL     OW20908   3.942   1.720   6.062
 6743SOL    HW120909   3.944   1.792   6.125
 6743SOL    HW220910   0.033   1.706   6.038
 6744SOL     OW20911   3.945   1.438   6.093
 6744SOL    HW120912   3.924   1.532   6.093
 6744SOL    HW220913   3.886   1.402   6.160
 6745SOL     OW20914   3.804   0.649   6.145
 6745SOL    HW120915   3.789   0.558   6.170
 6745SOL    HW220916   3.809   0.697   6.228
 6746SOL     OW20917   3.759   1.596   5.715
 6746SOL    HW120918   3.737   1.504   5.732
 6746SOL    HW220919   3.727   1.643   5.792
 6747SOL     OW20920   3.824   0.752   7.161
 6747SOL    HW120921   3.904   0.800   7.180
 6747SOL    HW220922   3.757   0.820   7.154
 6748SOL     OW20923   3.805   0.819   6.359
 6748SOL    HW120924   3.899   0.816   6.376
 6748SOL    HW220925   3.773   0.892   6.412
 6749SOL     OW20926   3.847   1.878   7.156
 6749SOL    HW120927   3.846   1.847   7.247
 6749SOL    HW220928   3.768   1.840   7.117
 6750SOL     OW20929   3.924   0.310   7.106
 6750SOL    HW120930   3.852   0.360   7.070
 6750SOL    HW220931   3.883   0.247   7.166
 6751SOL     OW20932   3.810   0.547   6.978
 6751SOL    HW120933   3.905   0.546   6.965
 6751SOL    HW220934   3.794   0.623   7.034
 6752SOL     OW20935   0.267   0.293   5.918
 6752SOL    HW120936   0.319   0.226   5.874
 6752SOL    HW220937   0.307   0.376   5.893
 6753SOL     OW20938   3.793   1.574   6.936
 6753SOL    HW120939   3.765   1.636   6.869
 6753SOL    HW220940   3.888   1.581   6.939
 6754SOL     OW20941   0.064   1.097   6.119
 6754SOL    HW120942   0.058   1.134   6.031
 6754SOL    HW220943   0.131   1.029   6.112
 6755SOL     OW20944   0.003   0.215   6.834
 6755SOL    HW120945   3.976   0.239   6.923
 6755SOL    HW220946   0.002   0.119   6.834
 6756SOL     OW20947   3.748   1.313   6.864
 6756SOL    HW120948   3.794   1.263   6.931
 6756SOL    HW220949   3.764   1.404   6.887
 6757SOL     OW20950   3.728   1.326   5.772
 6757SOL    HW120951   3.642   1.340   5.732
 6757SOL    HW220952   3.720   1.243   5.819
 6758SOL     OW20953   3.802   1.794   6.525
 6758SOL    HW120954   3.778   1.714   6.479
 6758SOL    HW220955   3.896   1.803   6.512
 6759SOL     OW20956   0.211   1.549   6.451
 6759SOL    HW120957   0.295   1.595   6.451
 6759SOL    HW220958   0.219   1.485   6.380
 6760SOL     OW20959   3.752   0.536   6.703
 6760SOL    HW120960   3.831   0.531   6.650
 6760SOL    HW220961   3.785   0.544   6.793
 6761SOL     OW20962   3.902   0.532   7.299
 6761SOL    HW120963   3.941   0.479   7.229
 6761SOL    HW220964   3.862   0.606   7.254
 6762SOL     OW20965   3.939   1.530   7.312
 6762SOL    HW120966   3.929   1.615   7.355
 6762SOL    HW220967   3.994   1.480   7.373
 6763SOL     OW20968   3.859   1.135   7.058
 6763SOL    HW120969   3.935   1.137   7.117
 6763SOL    HW220970   3.891   1.091   6.980
 6764SOL     OW20971   3.810   1.269   6.598
 6764SOL    HW120972   3.781   1.280   6.689
 6764SOL    HW220973   3.752   1.203   6.562
 6765SOL     OW20974   3.844   1.789   7.410
 6765SOL    HW120975   3.793   1.725   7.459
 6765SOL    HW220976   3.894   1.835   7.478
 6766SOL     OW20977   3.823   0.316   5.582
 6766SOL    HW120978   3.755   0.333   5.647
 6766SOL    HW220979   3.820   0.393   5.524
 6767SOL     OW20980   3.775   0.151   5.930
 6767SOL    HW120981   3.743   0.206   5.860
 6767SOL    HW220982   3.871   0.156   5.923
 6768SOL     OW20983   3.801   1.237   6.251
 6768SOL    HW120984   3.794   1.189   6.333
 6768SOL    HW220985   3.878   1.200   6.208
 6769SOL     OW20986   3.752   1.082   5.898
 6769SOL    HW120987   3.842   1.084   5.865
 6769SOL    HW220988   3.735   0.990   5.917
 6770SOL     OW20989   3.956   0.632   7.555
 6770SOL    HW120990   3.875   0.635   7.606
 6770SOL    HW220991   3.929   0.599   7.469
 6771SOL     OW20992   3.954   0.298   8.442
 6771SOL    HW120993   3.963   0.273   8.534
 6771SOL    HW220994   3.868   0.264   8.417
 6772SOL     OW20995   3.731   0.393   8.085
 6772SOL    HW120996   3.644   0.407   8.121
 6772SOL    HW220997   3.722   0.317   8.028
 6773SOL     OW20998   0.012   1.526   8.499
 6773SOL    HW120999   3.958   1.448   8.485
 6773SOL    HW221000   0.078   1.522   8.430
 6774SOL     OW21001   3.941   1.720   7.924
 6774SOL    HW121002   3.944   1.792   7.987
 6774SOL    HW221003   0.033   1.706   7.900
 6775SOL     OW21004   3.944   1.438   7.956
 6775SOL    HW121005   3.924   1.532   7.955
 6775SOL    HW221006   3.887   1.402   8.023
 6776SOL     OW21007   3.803   0.650   8.007
 6776SOL    HW121008   3.789   0.558   8.032
 6776SOL    HW221009   3.809   0.697   8.091
 6777SOL     OW21010   3.758   1.596   7.578
 6777SOL    HW121011   3.738   1.504   7.595
 6777SOL    HW221012   3.727   1.643   7.655
 6778SOL     OW21013   3.823   0.752   9.023
 6778SOL    HW121014   3.904   0.800   9.043
 6778SOL    HW221015   3.756   0.820   9.016
 6779SOL     OW21016   3.805   0.819   8.221
 6779SOL    HW121017   3.899   0.815   8.238
 6779SOL    HW221018   3.774   0.892   8.275
 6780SOL     OW21019   3.847   1.878   9.018
 6780SOL    HW121020   3.847   1.848   9.109
 6780SOL    HW221021   3.769   1.837   8.979
 6781SOL     OW21022   3.924   0.310   8.968
 6781SOL    HW121023   3.852   0.360   8.932
 6781SOL    HW221024   3.882   0.248   9.028
 6782SOL     OW21025   3.810   0.547   8.840
 6782SOL    HW121026   3.905   0.546   8.827
 6782SOL    HW221027   3.794   0.623   8.896
 6783SOL     OW21028   0.266   0.293   7.779
 6783SOL    HW121029   0.320   0.227   7.737
 6783SOL    HW221030   0.307   0.376   7.756
 6784SOL     OW21031   3.792   1.574   8.798
 6784SOL    HW121032   3.766   1.636   8.730
 6784SOL    HW221033   3.888   1.581   8.801
 6785SOL     OW21034   0.064   1.096   7.980
 6785SOL    HW121035   0.060   1.136   7.893
 6785SOL    HW221036   0.135   1.032   7.974
 6786SOL     OW21037   0.003   0.214   8.696
 6786SOL    HW121038   3.975   0.239   8.785
 6786SOL    HW221039   0.002   0.119   8.696
 6787SOL     OW21040   3.750   1.313   8.725
 6787SOL    HW121041   3.793   1.262   8.794
 6787SOL    HW221042   3.764   1.404   8.749
 6788SOL     OW21043   3.728   1.327   7.636
 6788SOL    HW121044   3.642   1.340   7.596
 6788SOL    HW221045   3.720   1.244   7.682
 6789SOL     OW21046   3.801   1.794   8.387
 6789SOL    HW121047   3.778   1.714   8.341
 6789SOL    HW221048   3.896   1.803   8.374
 6790SOL     OW21049   0.211   1.549   8.312
 6790SOL    HW121050   0.295   1.595   8.312
 6790SOL    HW221051   0.218   1.485   8.242
 6791SOL     OW21052   3.752   0.536   8.565
 6791SOL    HW121053   3.831   0.531   8.512
 6791SOL    HW221054   3.784   0.544   8.655
 6792SOL     OW21055   3.903   0.532   9.161
 6792SOL    HW121056   3.940   0.479   9.091
 6792SOL    HW221057   3.862   0.606   9.116
 6793SOL     OW21058   3.940   1.531   9.174
 6793SOL    HW121059   3.929   1.616   9.216
 6793SOL    HW221060   3.990   1.480   9.238
 6794SOL     OW21061   3.860   1.136   8.920
 6794SOL    HW121062   3.934   1.136   8.979
 6794SOL    HW221063   3.892   1.091   8.842
 6795SOL     OW21064   3.810   1.270   8.459
 6795SOL    HW121065   3.782   1.281   8.550
 6795SOL    HW221066   3.753   1.202   8.424
 6796SOL     OW21067   3.845   1.789   9.272
 6796SOL    HW121068   3.793   1.725   9.320
 6796SOL    HW221069   3.895   1.835   9.339
 6797SOL     OW21070   3.823   0.316   7.444
 6797SOL    HW121071   3.755   0.333   7.509
 6797SOL    HW221072   3.820   0.392   7.386
 6798SOL     OW21073   3.775   0.151   7.793
 6798SOL    HW121074   3.743   0.207   7.721
 6798SOL    HW221075   3.870   0.156   7.785
 6799SOL     OW21076   3.801   1.236   8.113
 6799SOL    HW121077   3.795   1.188   8.195
 6799SOL    HW221078   3.878   1.200   8.069
 6800SOL     OW21079   3.752   1.082   7.759
 6800SOL    HW121080   3.843   1.083   7.727
 6800SOL    HW221081   3.735   0.990   7.779
 6801SOL     OW21082   3.956   0.632   9.417
 6801SOL    HW121083   3.875   0.635   9.468
 6801SOL    HW221084   3.929   0.599   9.331
 6802SOL     OW21085   3.954   0.298  10.304
 6802SOL    HW121086   3.963   0.273  10.396
 6802SOL    HW221087   3.868   0.264  10.279
 6803SOL     OW21088   3.731   0.393   9.947
 6803SOL    HW121089   3.644   0.408   9.983
 6803SOL    HW221090   3.721   0.317   9.889
 6804SOL     OW21091   0.012   1.527  10.361
 6804SOL    HW121092   3.958   1.449  10.348
 6804SOL    HW221093   0.078   1.522  10.293
 6805SOL     OW21094   3.942   1.720   9.786
 6805SOL    HW121095   3.944   1.792   9.849
 6805SOL    HW221096   0.033   1.706   9.762
 6806SOL     OW21097   3.945   1.438   9.818
 6806SOL    HW121098   3.924   1.532   9.817
 6806SOL    HW221099   3.887   1.401   9.884
 6807SOL     OW21100   3.804   0.650   9.869
 6807SOL    HW121101   3.789   0.558   9.894
 6807SOL    HW221102   3.809   0.697   9.952
 6808SOL     OW21103   3.759   1.596   9.439
 6808SOL    HW121104   3.737   1.504   9.456
 6808SOL    HW221105   3.727   1.643   9.516
 6809SOL     OW21106   3.823   0.752  10.885
 6809SOL    HW121107   3.903   0.800  10.906
 6809SOL    HW221108   3.756   0.820  10.877
 6810SOL     OW21109   3.805   0.819  10.083
 6810SOL    HW121110   3.899   0.816  10.100
 6810SOL    HW221111   3.773   0.891  10.137
 6811SOL     OW21112   3.847   1.878  10.880
 6811SOL    HW121113   3.847   1.848  10.971
 6811SOL    HW221114   3.769   1.837  10.841
 6812SOL     OW21115   3.924   0.310  10.830
 6812SOL    HW121116   3.851   0.360  10.794
 6812SOL    HW221117   3.882   0.248  10.890
 6813SOL     OW21118   3.810   0.547  10.702
 6813SOL    HW121119   3.905   0.546  10.689
 6813SOL    HW221120   3.794   0.623  10.758
 6814SOL     OW21121   0.266   0.293   9.642
 6814SOL    HW121122   0.320   0.226   9.598
 6814SOL    HW221123   0.307   0.376   9.617
 6815SOL     OW21124   3.792   1.574  10.661
 6815SOL    HW121125   3.765   1.636  10.593
 6815SOL    HW221126   3.887   1.581  10.663
 6816SOL     OW21127   0.064   1.097   9.843
 6816SOL    HW121128   0.058   1.134   9.755
 6816SOL    HW221129   0.131   1.029   9.836
 6817SOL     OW21130   0.003   0.215  10.558
 6817SOL    HW121131   3.975   0.239  10.647
 6817SOL    HW221132   0.002   0.119  10.558
 6818SOL     OW21133   3.751   1.312  10.587
 6818SOL    HW121134   3.793   1.262  10.657
 6818SOL    HW221135   3.764   1.404  10.612
 6819SOL     OW21136   3.728   1.327   9.496
 6819SOL    HW121137   3.642   1.340   9.456
 6819SOL    HW221138   3.720   1.244   9.543
 6820SOL     OW21139   3.801   1.794  10.249
 6820SOL    HW121140   3.778   1.714  10.202
 6820SOL    HW221141   3.896   1.803  10.236
 6821SOL     OW21142   0.211   1.549  10.174
 6821SOL    HW121143   0.295   1.595  10.174
 6821SOL    HW221144   0.218   1.484  10.104
 6822SOL     OW21145   3.752   0.536  10.427
 6822SOL    HW121146   3.831   0.531  10.374
 6822SOL    HW221147   3.784   0.544  10.517
 6823SOL     OW21148   3.903   0.532  11.023
 6823SOL    HW121149   3.940   0.478  10.953
 6823SOL    HW221150   3.862   0.606  10.978
 6824SOL     OW21151   3.940   1.531  11.036
 6824SOL    HW121152   3.929   1.616  11.078
 6824SOL    HW221153   3.990   1.480  11.100
 6825SOL     OW21154   3.860   1.136  10.782
 6825SOL    HW121155   3.935   1.136  10.841
 6825SOL    HW221156   3.891   1.091  10.704
 6826SOL     OW21157   3.811   1.270  10.322
 6826SOL    HW121158   3.782   1.280  10.412
 6826SOL    HW221159   3.752   1.203  10.286
 6827SOL     OW21160   3.845   1.789  11.134
 6827SOL    HW121161   3.793   1.725  11.182
 6827SOL    HW221162   3.895   1.835  11.201
 6828SOL     OW21163   3.823   0.316   9.306
 6828SOL    HW121164   3.755   0.332   9.371
 6828SOL    HW221165   3.820   0.393   9.249
 6829SOL     OW21166   3.775   0.151   9.654
 6829SOL    HW121167   3.742   0.206   9.584
 6829SOL    HW221168   3.871   0.156   9.646
 6830SOL     OW21169   3.802   1.237   9.975
 6830SOL    HW121170   3.794   1.188  10.057
 6830SOL    HW221171   3.879   1.199   9.932
 6831SOL     OW21172   3.753   1.082   9.622
 6831SOL    HW121173   3.843   1.083   9.589
 6831SOL    HW221174   3.735   0.990   9.641
 6832SOL     OW21175   3.956   0.632  11.279
 6832SOL    HW121176   3.875   0.635  11.330
 6832SOL    HW221177   3.929   0.599  11.193
 6833SOL     OW21178   3.954   0.298  12.167
 6833SOL    HW121179   3.963   0.273  12.259
 6833SOL    HW221180   3.868   0.264  12.141
 6834SOL     OW21181   3.731   0.393  11.809
 6834SOL    HW121182   3.644   0.408  11.845
 6834SOL    HW221183   3.721   0.318  11.751
 6835SOL     OW21184   0.012   1.527  12.223
 6835SOL    HW121185   3.958   1.449  12.209
 6835SOL    HW221186   0.078   1.522  12.155
 6836SOL     OW21187   3.941   1.720  11.648
 6836SOL    HW121188   3.944   1.792  11.711
 6836SOL    HW221189   0.033   1.706  11.624
 6837SOL     OW21190   3.945   1.438  11.680
 6837SOL    HW121191   3.924   1.532  11.679
 6837SOL    HW221192   3.887   1.401  11.746
 6838SOL     OW21193   3.804   0.649  11.731
 6838SOL    HW121194   3.789   0.558  11.756
 6838SOL    HW221195   3.809   0.697  11.814
 6839SOL     OW21196   3.759   1.596  11.301
 6839SOL    HW121197   3.737   1.504  11.318
 6839SOL    HW221198   3.727   1.643  11.378
 6840SOL     OW21199   3.823   0.752  12.747
 6840SOL    HW121200   3.903   0.800  12.767
 6840SOL    HW221201   3.756   0.820  12.739
 6841SOL     OW21202   3.805   0.818  11.945
 6841SOL    HW121203   3.899   0.816  11.962
 6841SOL    HW221204   3.773   0.891  11.999
 6842SOL     OW21205   3.847   1.878  12.742
 6842SOL    HW121206   3.847   1.848  12.833
 6842SOL    HW221207   3.769   1.837  12.704
 6843SOL     OW21208   3.924   0.310  12.693
 6843SOL    HW121209   3.852   0.360  12.655
 6843SOL    HW221210   3.882   0.247  12.751
 6844SOL     OW21211   3.810   0.547  12.564
 6844SOL    HW121212   3.905   0.546  12.551
 6844SOL    HW221213   3.794   0.623  12.620
 6845SOL     OW21214   0.266   0.293  11.504
 6845SOL    HW121215   0.320   0.226  11.460
 6845SOL    HW221216   0.307   0.376  11.479
 6846SOL     OW21217   3.792   1.574  12.522
 6846SOL    HW121218   3.765   1.636  12.455
 6846SOL    HW221219   3.887   1.581  12.525
 6847SOL     OW21220   0.064   1.097  11.705
 6847SOL    HW121221   0.058   1.134  11.617
 6847SOL    HW221222   0.131   1.029  11.698
 6848SOL     OW21223   0.004   0.214  12.421
 6848SOL    HW121224   3.975   0.239  12.509
 6848SOL    HW221225   0.002   0.119  12.420
 6849SOL     OW21226   3.751   1.312  12.449
 6849SOL    HW121227   3.793   1.262  12.519
 6849SOL    HW221228   3.764   1.404  12.473
 6850SOL     OW21229   3.728   1.327  11.358
 6850SOL    HW121230   3.642   1.340  11.318
 6850SOL    HW221231   3.720   1.244  11.405
 6851SOL     OW21232   3.801   1.794  12.111
 6851SOL    HW121233   3.778   1.714  12.064
 6851SOL    HW221234   3.896   1.803  12.098
 6852SOL     OW21235   0.211   1.549  12.036
 6852SOL    HW121236   0.295   1.595  12.036
 6852SOL    HW221237   0.218   1.484  11.966
 6853SOL     OW21238   3.752   0.536  12.290
 6853SOL    HW121239   3.831   0.531  12.236
 6853SOL    HW221240   3.784   0.544  12.379
 6854SOL     OW21241   3.904   0.533  12.885
 6854SOL    HW121242   3.940   0.478  12.815
 6854SOL    HW221243   3.863   0.606  12.840
 6855SOL     OW21244   3.940   1.531  12.899
 6855SOL    HW121245   3.929   1.617  12.940
 6855SOL    HW221246   3.988   1.480  12.964
 6856SOL     OW21247   3.860   1.136  12.644
 6856SOL    HW121248   3.936   1.137  12.702
 6856SOL    HW221249   3.890   1.091  12.565
 6857SOL     OW21250   3.811   1.270  12.184
 6857SOL    HW121251   3.782   1.280  12.274
 6857SOL    HW221252   3.752   1.203  12.148
 6858SOL     OW21253   3.845   1.790  12.997
 6858SOL    HW121254   3.794   1.725  13.045
 6858SOL    HW221255   3.895   1.836  13.065
 6859SOL     OW21256   3.823   0.316  11.168
 6859SOL    HW121257   3.755   0.332  11.233
 6859SOL    HW221258   3.820   0.393  11.111
 6860SOL     OW21259   3.775   0.151  11.516
 6860SOL    HW121260   3.742   0.206  11.446
 6860SOL    HW221261   3.871   0.156  11.508
 6861SOL     OW21262   3.802   1.237  11.837
 6861SOL    HW121263   3.794   1.188  11.919
 6861SOL    HW221264   3.879   1.199  11.794
 6862SOL     OW21265   3.753   1.082  11.484
 6862SOL    HW121266   3.843   1.083  11.451
 6862SOL    HW221267   3.735   0.990  11.503
 6863SOL     OW21268   3.953   0.630  13.143
 6863SOL    HW121269   3.870   0.634  13.190
 6863SOL    HW221270   3.930   0.598  13.056
 6864SOL     OW21271   3.720   0.387  13.645
 6864SOL    HW121272   3.629   0.404  13.669
 6864SOL    HW221273   3.721   0.296  13.615
 6865SOL     OW21274   3.941   1.715  13.504
 6865SOL    HW121275   3.940   1.789  13.564
 6865SOL    HW221276   0.033   1.701  13.484
 6866SOL     OW21277   3.944   1.435  13.537
 6866SOL    HW121278   3.926   1.529  13.537
 6866SOL    HW221279   3.885   1.399  13.603
 6867SOL     OW21280   3.943   1.098   0.007
 6867SOL    HW121281   3.982   1.054   0.083
 6867SOL    HW221282   3.853   1.116   0.034
 6868SOL     OW21283   3.823   0.646  13.594
 6868SOL    HW121284   3.780   0.562  13.610
 6868SOL    HW221285   3.813   0.694  13.676
 6869SOL     OW21286   3.757   1.596  13.162
 6869SOL    HW121287   3.736   1.504  13.180
 6869SOL    HW221288   3.726   1.643  13.240
 6870SOL     OW21289   3.797   0.809  13.812
 6870SOL    HW121290   3.891   0.817  13.826
 6870SOL    HW221291   3.760   0.887  13.852
 6871SOL     OW21292   0.098   1.811  13.886
 6871SOL    HW121293   0.058   1.735   0.029
 6871SOL    HW221294   0.167   1.839   0.046
 6872SOL     OW21295   0.267   0.295  13.368
 6872SOL    HW121296   0.318   0.223  13.329
 6872SOL    HW221297   0.313   0.374  13.341
 6873SOL     OW21298   0.068   1.098  13.559
 6873SOL    HW121299   0.063   1.137  13.472
 6873SOL    HW221300   0.137   1.033  13.552
 6874SOL     OW21301   3.728   1.327  13.220
 6874SOL    HW121302   3.642   1.340  13.180
 6874SOL    HW221303   3.719   1.244  13.268
 6875SOL     OW21304   0.312   1.535   0.012
 6875SOL    HW121305   0.251   1.600   0.048
 6875SOL    HW221306   0.258   1.479  13.857
 6876SOL     OW21307   3.823   0.317  13.029
 6876SOL    HW121308   3.754   0.332  13.095
 6876SOL    HW221309   3.819   0.393  12.972
 6877SOL     OW21310   3.786   0.151  13.371
 6877SOL    HW121311   3.750   0.207  13.302
 6877SOL    HW221312   3.881   0.155  13.357
 6878SOL     OW21313   3.809   1.231  13.687
 6878SOL    HW121314   3.801   1.171  13.762
 6878SOL    HW221315   3.886   1.200  13.639
 6879SOL     OW21316   3.752   1.081  13.344
 6879SOL    HW121317   3.842   1.083  13.310
 6879SOL    HW221318   3.737   0.989  13.364
 6880SOL     OW21319   3.954   2.496   0.132
 6880SOL    HW121320   3.886   2.500   0.199
 6880SOL    HW221321   3.914   2.447   0.060
 6881SOL     OW21322   3.962   2.126   0.987
 6881SOL    HW121323   3.966   2.120   1.082
 6881SOL    HW221324   3.869   2.112   0.967
 6882SOL     OW21325   3.723   2.245   0.636
 6882SOL    HW121326   3.643   2.268   0.683
 6882SOL    HW221327   3.704   2.162   0.594
 6883SOL     OW21328   0.013   3.385   1.053
 6883SOL    HW121329   3.959   3.308   1.034
 6883SOL    HW221330   0.078   3.387   0.983
 6884SOL     OW21331   3.939   3.574   0.480
 6884SOL    HW121332   3.949   3.648   0.539
 6884SOL    HW221333   0.025   3.561   0.442
 6885SOL     OW21334   3.934   3.296   0.507
 6885SOL    HW121335   3.926   3.392   0.505
 6885SOL    HW221336   3.882   3.269   0.583
 6886SOL     OW21337   3.812   2.502   0.559
 6886SOL    HW121338   3.782   2.415   0.584
 6886SOL    HW221339   3.810   2.552   0.641
 6887SOL     OW21340   3.752   3.466   0.118
 6887SOL    HW121341   3.728   3.376   0.135
 6887SOL    HW221342   3.718   3.515   0.193
 6888SOL     OW21343   3.824   2.604   1.582
 6888SOL    HW121344   3.905   2.650   1.604
 6888SOL    HW221345   3.759   2.674   1.574
 6889SOL     OW21346   3.805   2.680   0.768
 6889SOL    HW121347   3.898   2.677   0.788
 6889SOL    HW221348   3.771   2.751   0.823
 6890SOL     OW21349   3.849   3.726   1.569
 6890SOL    HW121350   3.847   3.697   1.660
 6890SOL    HW221351   3.764   3.698   1.534
 6891SOL     OW21352   3.922   2.152   1.516
 6891SOL    HW121353   3.840   2.195   1.490
 6891SOL    HW221354   3.894   2.067   1.550
 6892SOL     OW21355   3.810   2.408   1.391
 6892SOL    HW121356   3.905   2.405   1.381
 6892SOL    HW221357   3.795   2.482   1.450
 6893SOL     OW21358   3.792   3.435   1.350
 6893SOL    HW121359   3.766   3.499   1.283
 6893SOL    HW221360   3.888   3.443   1.354
 6894SOL     OW21361   0.074   2.956   0.538
 6894SOL    HW121362   0.077   3.014   0.462
 6894SOL    HW221363   0.156   2.907   0.534
 6895SOL     OW21364   0.004   2.074   1.252
 6895SOL    HW121365   3.974   2.105   1.338
 6895SOL    HW221366   0.012   1.979   1.263
 6896SOL     OW21367   3.750   3.175   1.276
 6896SOL    HW121368   3.793   3.124   1.346
 6896SOL    HW221369   3.765   3.266   1.300
 6897SOL     OW21370   3.991   1.921   0.655
 6897SOL    HW121371   0.010   2.014   0.667
 6897SOL    HW221372   0.016   1.881   0.738
 6898SOL     OW21373   3.740   3.176   0.174
 6898SOL    HW121374   3.657   3.188   0.127
 6898SOL    HW221375   3.730   3.093   0.220
 6899SOL     OW21376   3.803   3.650   0.939
 6899SOL    HW121377   3.780   3.570   0.892
 6899SOL    HW221378   3.897   3.659   0.927
 6900SOL     OW21379   0.210   3.419   0.866
 6900SOL    HW121380   0.280   3.485   0.861
 6900SOL    HW221381   0.231   3.358   0.795
 6901SOL     OW21382   3.756   2.402   1.119
 6901SOL    HW121383   3.839   2.399   1.072
 6901SOL    HW221384   3.782   2.406   1.211
 6902SOL     OW21385   3.899   2.377   1.723
 6902SOL    HW121386   3.924   2.316   1.655
 6902SOL    HW221387   3.859   2.451   1.676
 6903SOL     OW21388   3.940   3.391   1.727
 6903SOL    HW121389   3.928   3.479   1.765
 6903SOL    HW221390   3.990   3.344   1.793
 6904SOL     OW21391   3.859   2.999   1.472
 6904SOL    HW121392   3.933   2.998   1.533
 6904SOL    HW221393   3.892   2.955   1.393
 6905SOL     OW21394   3.810   3.131   1.011
 6905SOL    HW121395   3.782   3.143   1.102
 6905SOL    HW221396   3.751   3.064   0.977
 6906SOL     OW21397   3.841   3.646   1.824
 6906SOL    HW121398   3.791   3.582   1.873
 6906SOL    HW221399   3.888   3.697   1.890
 6907SOL     OW21400   3.777   2.272   0.030
 6907SOL    HW121401   3.742   2.189   0.062
 6907SOL    HW221402   3.757   2.272  13.837
 6908SOL     OW21403   3.783   2.019   0.347
 6908SOL    HW121404   3.758   2.041   0.257
 6908SOL    HW221405   3.879   2.023   0.346
 6909SOL     OW21406   3.798   3.095   0.667
 6909SOL    HW121407   3.793   3.048   0.750
 6909SOL    HW221408   3.884   3.071   0.632
 6910SOL     OW21409   3.751   2.937   0.308
 6910SOL    HW121410   3.847   2.944   0.314
 6910SOL    HW221411   3.734   2.844   0.326
 6911SOL     OW21412   3.954   2.495   1.972
 6911SOL    HW121413   3.873   2.491   2.024
 6911SOL    HW221414   3.930   2.458   1.887
 6912SOL     OW21415   3.962   2.125   2.849
 6912SOL    HW121416   3.966   2.120   2.945
 6912SOL    HW221417   3.869   2.113   2.829
 6913SOL     OW21418   3.722   2.242   2.498
 6913SOL    HW121419   3.643   2.268   2.546
 6913SOL    HW221420   3.700   2.159   2.457
 6914SOL     OW21421   0.011   3.386   2.914
 6914SOL    HW121422   3.959   3.308   2.897
 6914SOL    HW221423   0.078   3.386   2.845
 6915SOL     OW21424   3.941   3.581   2.338
 6915SOL    HW121425   3.949   3.655   2.399
 6915SOL    HW221426   0.031   3.562   2.311
 6916SOL     OW21427   3.942   3.300   2.368
 6916SOL    HW121428   3.925   3.394   2.371
 6916SOL    HW221429   3.887   3.264   2.437
 6917SOL     OW21430   3.814   2.501   2.423
 6917SOL    HW121431   3.783   2.414   2.447
 6917SOL    HW221432   3.810   2.551   2.505
 6918SOL     OW21433   3.755   3.457   1.993
 6918SOL    HW121434   3.736   3.364   2.009
 6918SOL    HW221435   3.724   3.502   2.072
 6919SOL     OW21436   3.824   2.604   3.444
 6919SOL    HW121437   3.905   2.650   3.466
 6919SOL    HW221438   3.759   2.674   3.436
 6920SOL     OW21439   3.805   2.678   2.633
 6920SOL    HW121440   3.899   2.677   2.650
 6920SOL    HW221441   3.771   2.750   2.686
 6921SOL     OW21442   3.849   3.726   3.431
 6921SOL    HW121443   3.847   3.697   3.522
 6921SOL    HW221444   3.764   3.698   3.396
 6922SOL     OW21445   3.922   2.152   3.378
 6922SOL    HW121446   3.840   2.195   3.352
 6922SOL    HW221447   3.894   2.067   3.412
 6923SOL     OW21448   0.000   1.890   2.024
 6923SOL    HW121449   0.036   1.978   2.009
 6923SOL    HW221450   0.060   1.850   2.086
 6924SOL     OW21451   3.810   2.408   3.253
 6924SOL    HW121452   3.905   2.404   3.243
 6924SOL    HW221453   3.795   2.482   3.312
 6925SOL     OW21454   0.279   2.151   2.182
 6925SOL    HW121455   0.297   2.075   2.126
 6925SOL    HW221456   0.324   2.224   2.138
 6926SOL     OW21457   3.792   3.435   3.212
 6926SOL    HW121458   3.766   3.499   3.145
 6926SOL    HW221459   3.888   3.443   3.216
 6927SOL     OW21460   0.065   2.956   2.394
 6927SOL    HW121461   0.058   2.997   2.308
 6927SOL    HW221462   0.137   2.894   2.385
 6928SOL     OW21463   0.004   2.074   3.115
 6928SOL    HW121464   3.974   2.105   3.200
 6928SOL    HW221465   0.012   1.979   3.125
 6929SOL     OW21466   3.750   3.174   3.138
 6929SOL    HW121467   3.793   3.124   3.208
 6929SOL    HW221468   3.765   3.266   3.163
 6930SOL     OW21469   3.996   1.921   2.516
 6930SOL    HW121470   0.006   2.016   2.530
 6930SOL    HW221471   0.018   1.882   2.600
 6931SOL     OW21472   3.727   3.187   2.050
 6931SOL    HW121473   3.641   3.201   2.010
 6931SOL    HW221474   3.719   3.104   2.096
 6932SOL     OW21475   3.803   3.651   2.801
 6932SOL    HW121476   3.780   3.570   2.754
 6932SOL    HW221477   3.897   3.659   2.790
 6933SOL     OW21478   0.210   3.418   2.728
 6933SOL    HW121479   0.281   3.482   2.723
 6933SOL    HW221480   0.230   3.355   2.659
 6934SOL     OW21481   3.756   2.402   2.981
 6934SOL    HW121482   3.839   2.399   2.933
 6934SOL    HW221483   3.782   2.406   3.073
 6935SOL     OW21484   3.899   2.377   3.585
 6935SOL    HW121485   3.924   2.316   3.517
 6935SOL    HW221486   3.859   2.450   3.538
 6936SOL     OW21487   3.940   3.391   3.589
 6936SOL    HW121488   3.929   3.479   3.627
 6936SOL    HW221489   3.990   3.343   3.655
 6937SOL     OW21490   3.859   2.999   3.334
 6937SOL    HW121491   3.933   2.998   3.394
 6937SOL    HW221492   3.892   2.954   3.256
 6938SOL     OW21493   3.810   3.132   2.873
 6938SOL    HW121494   3.782   3.143   2.964
 6938SOL    HW221495   3.752   3.064   2.838
 6939SOL     OW21496   3.841   3.646   3.686
 6939SOL    HW121497   3.791   3.582   3.735
 6939SOL    HW221498   3.888   3.697   3.752
 6940SOL     OW21499   3.801   2.194   1.905
 6940SOL    HW121500   3.717   2.159   1.875
 6940SOL    HW221501   3.820   2.266   1.846
 6941SOL     OW21502   3.762   2.024   2.175
 6941SOL    HW121503   3.754   2.085   2.101
 6941SOL    HW221504   3.853   2.033   2.203
 6942SOL     OW21505   3.801   3.099   2.528
 6942SOL    HW121506   3.794   3.051   2.610
 6942SOL    HW221507   3.879   3.064   2.486
 6943SOL     OW21508   3.751   2.940   2.174
 6943SOL    HW121509   3.841   2.942   2.141
 6943SOL    HW221510   3.735   2.847   2.193
 6944SOL     OW21511   3.954   2.495   3.834
 6944SOL    HW121512   3.873   2.491   3.886
 6944SOL    HW221513   3.930   2.458   3.749
 6945SOL     OW21514   3.962   2.125   4.711
 6945SOL    HW121515   3.966   2.120   4.807
 6945SOL    HW221516   3.869   2.113   4.691
 6946SOL     OW21517   3.722   2.242   4.360
 6946SOL    HW121518   3.643   2.268   4.407
 6946SOL    HW221519   3.700   2.159   4.319
 6947SOL     OW21520   0.012   3.386   4.776
 6947SOL    HW121521   3.959   3.308   4.759
 6947SOL    HW221522   0.078   3.386   4.707
 6948SOL     OW21523   3.941   3.581   4.200
 6948SOL    HW121524   3.949   3.655   4.261
 6948SOL    HW221525   0.031   3.562   4.173
 6949SOL     OW21526   3.942   3.300   4.230
 6949SOL    HW121527   3.925   3.394   4.233
 6949SOL    HW221528   3.887   3.263   4.299
 6950SOL     OW21529   3.814   2.501   4.285
 6950SOL    HW121530   3.783   2.414   4.308
 6950SOL    HW221531   3.810   2.551   4.367
 6951SOL     OW21532   3.755   3.457   3.855
 6951SOL    HW121533   3.736   3.364   3.871
 6951SOL    HW221534   3.724   3.502   3.934
 6952SOL     OW21535   3.824   2.604   5.306
 6952SOL    HW121536   3.905   2.650   5.328
 6952SOL    HW221537   3.758   2.673   5.298
 6953SOL     OW21538   3.805   2.678   4.495
 6953SOL    HW121539   3.899   2.677   4.512
 6953SOL    HW221540   3.771   2.750   4.548
 6954SOL     OW21541   3.849   3.726   5.293
 6954SOL    HW121542   3.847   3.698   5.384
 6954SOL    HW221543   3.764   3.698   5.257
 6955SOL     OW21544   3.921   2.152   5.240
 6955SOL    HW121545   3.840   2.195   5.214
 6955SOL    HW221546   3.893   2.067   5.274
 6956SOL     OW21547   0.000   1.890   3.886
 6956SOL    HW121548   0.036   1.978   3.871
 6956SOL    HW221549   0.061   1.850   3.948
 6957SOL     OW21550   3.810   2.408   5.115
 6957SOL    HW121551   3.905   2.405   5.105
 6957SOL    HW221552   3.795   2.482   5.174
 6958SOL     OW21553   0.279   2.151   4.044
 6958SOL    HW121554   0.297   2.075   3.988
 6958SOL    HW221555   0.324   2.224   4.000
 6959SOL     OW21556   3.792   3.435   5.074
 6959SOL    HW121557   3.766   3.499   5.007
 6959SOL    HW221558   3.888   3.443   5.078
 6960SOL     OW21559   0.065   2.956   4.256
 6960SOL    HW121560   0.058   2.997   4.170
 6960SOL    HW221561   0.137   2.894   4.247
 6961SOL     OW21562   0.005   2.074   4.977
 6961SOL    HW121563   3.974   2.105   5.062
 6961SOL    HW221564   0.011   1.979   4.986
 6962SOL     OW21565   3.751   3.175   5.000
 6962SOL    HW121566   3.793   3.124   5.070
 6962SOL    HW221567   3.765   3.266   5.025
 6963SOL     OW21568   3.996   1.921   4.378
 6963SOL    HW121569   0.006   2.016   4.391
 6963SOL    HW221570   0.018   1.882   4.462
 6964SOL     OW21571   3.727   3.187   3.912
 6964SOL    HW121572   3.641   3.201   3.872
 6964SOL    HW221573   3.719   3.104   3.958
 6965SOL     OW21574   3.803   3.651   4.663
 6965SOL    HW121575   3.780   3.570   4.617
 6965SOL    HW221576   3.897   3.659   4.652
 6966SOL     OW21577   0.210   3.418   4.590
 6966SOL    HW121578   0.281   3.482   4.585
 6966SOL    HW221579   0.229   3.355   4.521
 6967SOL     OW21580   3.756   2.402   4.843
 6967SOL    HW121581   3.839   2.399   4.795
 6967SOL    HW221582   3.782   2.406   4.935
 6968SOL     OW21583   3.899   2.377   5.447
 6968SOL    HW121584   3.924   2.315   5.378
 6968SOL    HW221585   3.859   2.450   5.400
 6969SOL     OW21586   3.940   3.391   5.451
 6969SOL    HW121587   3.929   3.479   5.489
 6969SOL    HW221588   3.990   3.343   5.517
 6970SOL     OW21589   3.859   2.999   5.196
 6970SOL    HW121590   3.933   2.998   5.256
 6970SOL    HW221591   3.891   2.954   5.118
 6971SOL     OW21592   3.810   3.132   4.735
 6971SOL    HW121593   3.782   3.143   4.826
 6971SOL    HW221594   3.752   3.064   4.700
 6972SOL     OW21595   3.841   3.647   5.548
 6972SOL    HW121596   3.791   3.582   5.597
 6972SOL    HW221597   3.888   3.698   5.614
 6973SOL     OW21598   3.801   2.194   3.767
 6973SOL    HW121599   3.717   2.160   3.737
 6973SOL    HW221600   3.820   2.266   3.707
 6974SOL     OW21601   3.762   2.024   4.037
 6974SOL    HW121602   3.754   2.085   3.963
 6974SOL    HW221603   3.853   2.033   4.065
 6975SOL     OW21604   3.801   3.099   4.390
 6975SOL    HW121605   3.794   3.050   4.472
 6975SOL    HW221606   3.879   3.064   4.348
 6976SOL     OW21607   3.751   2.940   4.036
 6976SOL    HW121608   3.841   2.942   4.003
 6976SOL    HW221609   3.735   2.847   4.055
 6977SOL     OW21610   3.954   2.495   5.696
 6977SOL    HW121611   3.873   2.491   5.747
 6977SOL    HW221612   3.930   2.458   5.611
 6978SOL     OW21613   3.962   2.125   6.573
 6978SOL    HW121614   3.966   2.119   6.669
 6978SOL    HW221615   3.869   2.113   6.553
 6979SOL     OW21616   3.723   2.242   6.222
 6979SOL    HW121617   3.644   2.266   6.270
 6979SOL    HW221618   3.701   2.159   6.180
 6980SOL     OW21619   0.011   3.386   6.638
 6980SOL    HW121620   3.959   3.308   6.621
 6980SOL    HW221621   0.078   3.386   6.569
 6981SOL     OW21622   3.941   3.581   6.062
 6981SOL    HW121623   3.949   3.655   6.123
 6981SOL    HW221624   0.031   3.563   6.035
 6982SOL     OW21625   3.941   3.300   6.092
 6982SOL    HW121626   3.925   3.394   6.095
 6982SOL    HW221627   3.887   3.264   6.161
 6983SOL     OW21628   3.814   2.501   6.147
 6983SOL    HW121629   3.784   2.414   6.171
 6983SOL    HW221630   3.810   2.551   6.229
 6984SOL     OW21631   3.755   3.457   5.717
 6984SOL    HW121632   3.736   3.364   5.733
 6984SOL    HW221633   3.725   3.502   5.796
 6985SOL     OW21634   3.824   2.604   7.168
 6985SOL    HW121635   3.905   2.650   7.190
 6985SOL    HW221636   3.758   2.673   7.160
 6986SOL     OW21637   3.804   2.678   6.357
 6986SOL    HW121638   3.898   2.677   6.374
 6986SOL    HW221639   3.771   2.751   6.410
 6987SOL     OW21640   3.849   3.726   7.155
 6987SOL    HW121641   3.847   3.698   7.247
 6987SOL    HW221642   3.765   3.697   7.119
 6988SOL     OW21643   3.921   2.152   7.102
 6988SOL    HW121644   3.840   2.195   7.076
 6988SOL    HW221645   3.893   2.067   7.136
 6989SOL     OW21646   4.000   1.890   5.748
 6989SOL    HW121647   0.036   1.978   5.732
 6989SOL    HW221648   0.060   1.850   5.810
 6990SOL     OW21649   3.810   2.409   6.977
 6990SOL    HW121650   3.906   2.405   6.967
 6990SOL    HW221651   3.796   2.482   7.036
 6991SOL     OW21652   0.281   2.151   5.907
 6991SOL    HW121653   0.297   2.075   5.851
 6991SOL    HW221654   0.322   2.224   5.861
 6992SOL     OW21655   3.792   3.435   6.936
 6992SOL    HW121656   3.766   3.498   6.869
 6992SOL    HW221657   3.888   3.443   6.940
 6993SOL     OW21658   0.065   2.956   6.118
 6993SOL    HW121659   0.058   2.997   6.032
 6993SOL    HW221660   0.137   2.893   6.109
 6994SOL     OW21661   0.003   2.074   6.838
 6994SOL    HW121662   3.974   2.104   6.924
 6994SOL    HW221663   0.013   1.979   6.849
 6995SOL     OW21664   3.751   3.174   6.862
 6995SOL    HW121665   3.793   3.124   6.932
 6995SOL    HW221666   3.765   3.266   6.887
 6996SOL     OW21667   3.994   1.921   6.240
 6996SOL    HW121668   0.006   2.015   6.253
 6996SOL    HW221669   0.018   1.882   6.324
 6997SOL     OW21670   3.727   3.187   5.774
 6997SOL    HW121671   3.641   3.201   5.734
 6997SOL    HW221672   3.719   3.104   5.820
 6998SOL     OW21673   3.803   3.651   6.525
 6998SOL    HW121674   3.780   3.570   6.478
 6998SOL    HW221675   3.897   3.659   6.514
 6999SOL     OW21676   0.210   3.418   6.452
 6999SOL    HW121677   0.281   3.482   6.447
 6999SOL    HW221678   0.229   3.355   6.383
 7000SOL     OW21679   3.756   2.403   6.705
 7000SOL    HW121680   3.839   2.400   6.657
 7000SOL    HW221681   3.782   2.407   6.797
 7001SOL     OW21682   3.899   2.377   7.309
 7001SOL    HW121683   3.924   2.315   7.241
 7001SOL    HW221684   3.858   2.450   7.262
 7002SOL     OW21685   3.940   3.391   7.313
 7002SOL    HW121686   3.929   3.479   7.351
 7002SOL    HW221687   3.991   3.343   7.378
 7003SOL     OW21688   3.859   2.999   7.058
 7003SOL    HW121689   3.933   2.998   7.119
 7003SOL    HW221690   3.892   2.954   6.980
 7004SOL     OW21691   3.810   3.132   6.597
 7004SOL    HW121692   3.782   3.143   6.688
 7004SOL    HW221693   3.752   3.064   6.562
 7005SOL     OW21694   3.841   3.647   7.410
 7005SOL    HW121695   3.791   3.583   7.460
 7005SOL    HW221696   3.888   3.698   7.476
 7006SOL     OW21697   3.801   2.194   5.630
 7006SOL    HW121698   3.717   2.159   5.599
 7006SOL    HW221699   3.820   2.266   5.569
 7007SOL     OW21700   3.762   2.024   5.899
 7007SOL    HW121701   3.754   2.085   5.825
 7007SOL    HW221702   3.853   2.033   5.927
 7008SOL     OW21703   3.800   3.099   6.252
 7008SOL    HW121704   3.795   3.051   6.335
 7008SOL    HW221705   3.879   3.065   6.210
 7009SOL     OW21706   3.751   2.940   5.898
 7009SOL    HW121707   3.841   2.943   5.865
 7009SOL    HW221708   3.735   2.847   5.917
 7010SOL     OW21709   3.954   2.495   7.558
 7010SOL    HW121710   3.873   2.492   7.609
 7010SOL    HW221711   3.930   2.458   7.473
 7011SOL     OW21712   3.962   2.125   8.435
 7011SOL    HW121713   3.966   2.119   8.531
 7011SOL    HW221714   3.869   2.113   8.415
 7012SOL     OW21715   3.723   2.242   8.084
 7012SOL    HW121716   3.643   2.267   8.132
 7012SOL    HW221717   3.701   2.159   8.043
 7013SOL     OW21718   0.012   3.386   8.500
 7013SOL    HW121719   3.959   3.307   8.483
 7013SOL    HW221720   0.078   3.386   8.431
 7014SOL     OW21721   3.941   3.581   7.924
 7014SOL    HW121722   3.949   3.655   7.985
 7014SOL    HW221723   0.031   3.563   7.897
 7015SOL     OW21724   3.942   3.300   7.955
 7015SOL    HW121725   3.925   3.394   7.957
 7015SOL    HW221726   3.887   3.264   8.024
 7016SOL     OW21727   3.814   2.502   8.009
 7016SOL    HW121728   3.784   2.414   8.033
 7016SOL    HW221729   3.810   2.551   8.091
 7017SOL     OW21730   3.756   3.457   7.579
 7017SOL    HW121731   3.736   3.365   7.595
 7017SOL    HW221732   3.725   3.502   7.658
 7018SOL     OW21733   3.824   2.604   9.030
 7018SOL    HW121734   3.906   2.650   9.051
 7018SOL    HW221735   3.759   2.674   9.022
 7019SOL     OW21736   3.804   2.678   8.219
 7019SOL    HW121737   3.899   2.677   8.236
 7019SOL    HW221738   3.771   2.751   8.272
 7020SOL     OW21739   3.849   3.726   9.017
 7020SOL    HW121740   3.847   3.697   9.108
 7020SOL    HW221741   3.764   3.698   8.982
 7021SOL     OW21742   3.922   2.152   8.964
 7021SOL    HW121743   3.841   2.196   8.938
 7021SOL    HW221744   3.894   2.067   8.998
 7022SOL     OW21745   4.000   1.891   7.610
 7022SOL    HW121746   0.036   1.977   7.593
 7022SOL    HW221747   0.062   1.850   7.671
 7023SOL     OW21748   3.810   2.408   8.839
 7023SOL    HW121749   3.905   2.404   8.829
 7023SOL    HW221750   3.795   2.482   8.898
 7024SOL     OW21751   0.279   2.152   7.768
 7024SOL    HW121752   0.296   2.076   7.712
 7024SOL    HW221753   0.324   2.224   7.725
 7025SOL     OW21754   3.792   3.435   8.798
 7025SOL    HW121755   3.767   3.499   8.731
 7025SOL    HW221756   3.888   3.443   8.802
 7026SOL     OW21757   0.065   2.956   7.980
 7026SOL    HW121758   0.058   2.997   7.894
 7026SOL    HW221759   0.138   2.895   7.971
 7027SOL     OW21760   0.003   2.073   8.701
 7027SOL    HW121761   3.974   2.104   8.787
 7027SOL    HW221762   0.013   1.979   8.711
 7028SOL     OW21763   3.750   3.175   8.725
 7028SOL    HW121764   3.793   3.124   8.793
 7028SOL    HW221765   3.765   3.266   8.748
 7029SOL     OW21766   3.994   1.921   8.102
 7029SOL    HW121767   0.006   2.015   8.115
 7029SOL    HW221768   0.018   1.882   8.186
 7030SOL     OW21769   3.727   3.187   7.636
 7030SOL    HW121770   3.641   3.202   7.596
 7030SOL    HW221771   3.718   3.104   7.682
 7031SOL     OW21772   3.803   3.651   8.387
 7031SOL    HW121773   3.780   3.570   8.341
 7031SOL    HW221774   3.898   3.659   8.376
 7032SOL     OW21775   0.210   3.418   8.314
 7032SOL    HW121776   0.281   3.482   8.309
 7032SOL    HW221777   0.229   3.355   8.244
 7033SOL     OW21778   3.756   2.402   8.567
 7033SOL    HW121779   3.838   2.399   8.519
 7033SOL    HW221780   3.782   2.406   8.659
 7034SOL     OW21781   3.899   2.377   9.171
 7034SOL    HW121782   3.925   2.316   9.103
 7034SOL    HW221783   3.859   2.450   9.124
 7035SOL     OW21784   3.940   3.391   9.176
 7035SOL    HW121785   3.929   3.479   9.213
 7035SOL    HW221786   3.991   3.343   9.241
 7036SOL     OW21787   3.859   2.998   8.920
 7036SOL    HW121788   3.933   2.998   8.980
 7036SOL    HW221789   3.892   2.954   8.841
 7037SOL     OW21790   3.810   3.132   8.459
 7037SOL    HW121791   3.782   3.143   8.550
 7037SOL    HW221792   3.752   3.064   8.424
 7038SOL     OW21793   3.841   3.646   9.272
 7038SOL    HW121794   3.791   3.582   9.321
 7038SOL    HW221795   3.888   3.697   9.338
 7039SOL     OW21796   3.800   2.194   7.491
 7039SOL    HW121797   3.717   2.159   7.459
 7039SOL    HW221798   3.820   2.267   7.432
 7040SOL     OW21799   3.762   2.024   7.761
 7040SOL    HW121800   3.754   2.084   7.686
 7040SOL    HW221801   3.853   2.033   7.789
 7041SOL     OW21802   3.800   3.099   8.114
 7041SOL    HW121803   3.795   3.051   8.196
 7041SOL    HW221804   3.878   3.064   8.071
 7042SOL     OW21805   3.751   2.940   7.761
 7042SOL    HW121806   3.840   2.942   7.727
 7042SOL    HW221807   3.735   2.847   7.779
 7043SOL     OW21808   3.954   2.495   9.420
 7043SOL    HW121809   3.873   2.491   9.472
 7043SOL    HW221810   3.930   2.458   9.335
 7044SOL     OW21811   3.962   2.125  10.297
 7044SOL    HW121812   3.966   2.120  10.393
 7044SOL    HW221813   3.869   2.113  10.277
 7045SOL     OW21814   3.722   2.242   9.946
 7045SOL    HW121815   3.643   2.268   9.994
 7045SOL    HW221816   3.700   2.159   9.905
 7046SOL     OW21817   0.011   3.386  10.362
 7046SOL    HW121818   3.959   3.308  10.345
 7046SOL    HW221819   0.078   3.386  10.293
 7047SOL     OW21820   3.941   3.581   9.786
 7047SOL    HW121821   3.949   3.655   9.847
 7047SOL    HW221822   0.031   3.562   9.759
 7048SOL     OW21823   3.942   3.300   9.816
 7048SOL    HW121824   3.925   3.394   9.819
 7048SOL    HW221825   3.887   3.264   9.885
 7049SOL     OW21826   3.814   2.501   9.871
 7049SOL    HW121827   3.784   2.414   9.894
 7049SOL    HW221828   3.810   2.551   9.953
 7050SOL     OW21829   3.755   3.457   9.441
 7050SOL    HW121830   3.736   3.364   9.457
 7050SOL    HW221831   3.724   3.502   9.520
 7051SOL     OW21832   3.824   2.604  10.892
 7051SOL    HW121833   3.905   2.650  10.913
 7051SOL    HW221834   3.759   2.674  10.884
 7052SOL     OW21835   3.805   2.678  10.081
 7052SOL    HW121836   3.899   2.677  10.098
 7052SOL    HW221837   3.771   2.750  10.134
 7053SOL     OW21838   3.849   3.726  10.879
 7053SOL    HW121839   3.847   3.697  10.970
 7053SOL    HW221840   3.764   3.698  10.844
 7054SOL     OW21841   3.922   2.152  10.826
 7054SOL    HW121842   3.840   2.195  10.800
 7054SOL    HW221843   3.893   2.067  10.860
 7055SOL     OW21844   0.000   1.890   9.472
 7055SOL    HW121845   0.036   1.978   9.456
 7055SOL    HW221846   0.061   1.850   9.534
 7056SOL     OW21847   3.810   2.408  10.701
 7056SOL    HW121848   3.905   2.404  10.691
 7056SOL    HW221849   3.795   2.482  10.760
 7057SOL     OW21850   0.280   2.151   9.630
 7057SOL    HW121851   0.297   2.075   9.575
 7057SOL    HW221852   0.324   2.224   9.586
 7058SOL     OW21853   3.792   3.435  10.660
 7058SOL    HW121854   3.766   3.499  10.593
 7058SOL    HW221855   3.888   3.443  10.664
 7059SOL     OW21856   0.066   2.956   9.842
 7059SOL    HW121857   0.058   2.997   9.756
 7059SOL    HW221858   0.137   2.894   9.833
 7060SOL     OW21859   0.004   2.074  10.563
 7060SOL    HW121860   3.974   2.105  10.648
 7060SOL    HW221861   0.011   1.979  10.573
 7061SOL     OW21862   3.750   3.175  10.586
 7061SOL    HW121863   3.793   3.124  10.656
 7061SOL    HW221864   3.765   3.266  10.611
 7062SOL     OW21865   3.996   1.921   9.964
 7062SOL    HW121866   0.006   2.016   9.977
 7062SOL    HW221867   0.018   1.882  10.048
 7063SOL     OW21868   3.727   3.187   9.498
 7063SOL    HW121869   3.641   3.201   9.458
 7063SOL    HW221870   3.719   3.104   9.544
 7064SOL     OW21871   3.803   3.651  10.249
 7064SOL    HW121872   3.780   3.570  10.202
 7064SOL    HW221873   3.897   3.659  10.238
 7065SOL     OW21874   0.210   3.418  10.176
 7065SOL    HW121875   0.281   3.482  10.171
 7065SOL    HW221876   0.229   3.355  10.107
 7066SOL     OW21877   3.756   2.402  10.429
 7066SOL    HW121878   3.839   2.399  10.381
 7066SOL    HW221879   3.782   2.406  10.521
 7067SOL     OW21880   3.899   2.377  11.033
 7067SOL    HW121881   3.924   2.315  10.965
 7067SOL    HW221882   3.859   2.450  10.986
 7068SOL     OW21883   3.940   3.391  11.038
 7068SOL    HW121884   3.929   3.479  11.075
 7068SOL    HW221885   3.990   3.343  11.103
 7069SOL     OW21886   3.859   2.999  10.782
 7069SOL    HW121887   3.933   2.998  10.842
 7069SOL    HW221888   3.892   2.954  10.704
 7070SOL     OW21889   3.810   3.132  10.321
 7070SOL    HW121890   3.782   3.143  10.412
 7070SOL    HW221891   3.752   3.064  10.286
 7071SOL     OW21892   3.841   3.646  11.134
 7071SOL    HW121893   3.791   3.582  11.183
 7071SOL    HW221894   3.888   3.697  11.200
 7072SOL     OW21895   3.801   2.194   9.353
 7072SOL    HW121896   3.717   2.160   9.323
 7072SOL    HW221897   3.820   2.266   9.293
 7073SOL     OW21898   3.762   2.024   9.623
 7073SOL    HW121899   3.754   2.085   9.549
 7073SOL    HW221900   3.853   2.033   9.651
 7074SOL     OW21901   3.800   3.099   9.976
 7074SOL    HW121902   3.794   3.051  10.058
 7074SOL    HW221903   3.879   3.064   9.934
 7075SOL     OW21904   3.751   2.940   9.622
 7075SOL    HW121905   3.841   2.942   9.589
 7075SOL    HW221906   3.735   2.847   9.641
 7076SOL     OW21907   3.954   2.495  11.282
 7076SOL    HW121908   3.873   2.491  11.333
 7076SOL    HW221909   3.930   2.458  11.197
 7077SOL     OW21910   3.962   2.125  12.159
 7077SOL    HW121911   3.966   2.120  12.255
 7077SOL    HW221912   3.869   2.113  12.139
 7078SOL     OW21913   3.722   2.242  11.808
 7078SOL    HW121914   3.643   2.268  11.856
 7078SOL    HW221915   3.700   2.159  11.767
 7079SOL     OW21916   0.012   3.386  12.224
 7079SOL    HW121917   3.959   3.308  12.207
 7079SOL    HW221918   0.078   3.386  12.155
 7080SOL     OW21919   3.941   3.581  11.648
 7080SOL    HW121920   3.949   3.655  11.709
 7080SOL    HW221921   0.031   3.562  11.621
 7081SOL     OW21922   3.942   3.300  11.678
 7081SOL    HW121923   3.925   3.394  11.681
 7081SOL    HW221924   3.887   3.264  11.747
 7082SOL     OW21925   3.814   2.501  11.733
 7082SOL    HW121926   3.784   2.414  11.756
 7082SOL    HW221927   3.810   2.551  11.815
 7083SOL     OW21928   3.755   3.457  11.303
 7083SOL    HW121929   3.736   3.364  11.319
 7083SOL    HW221930   3.724   3.502  11.382
 7084SOL     OW21931   3.824   2.604  12.754
 7084SOL    HW121932   3.905   2.650  12.775
 7084SOL    HW221933   3.759   2.674  12.746
 7085SOL     OW21934   3.805   2.678  11.943
 7085SOL    HW121935   3.899   2.677  11.960
 7085SOL    HW221936   3.771   2.751  11.996
 7086SOL     OW21937   3.849   3.726  12.742
 7086SOL    HW121938   3.847   3.698  12.834
 7086SOL    HW221939   3.764   3.697  12.707
 7087SOL     OW21940   3.922   2.152  12.688
 7087SOL    HW121941   3.840   2.195  12.662
 7087SOL    HW221942   3.893   2.067  12.722
 7088SOL     OW21943   0.000   1.890  11.334
 7088SOL    HW121944   0.036   1.978  11.319
 7088SOL    HW221945   0.061   1.850  11.396
 7089SOL     OW21946   3.810   2.408  12.563
 7089SOL    HW121947   3.905   2.404  12.553
 7089SOL    HW221948   3.795   2.482  12.623
 7090SOL     OW21949   0.280   2.151  11.492
 7090SOL    HW121950   0.297   2.075  11.437
 7090SOL    HW221951   0.324   2.223  11.448
 7091SOL     OW21952   3.792   3.435  12.522
 7091SOL    HW121953   3.766   3.499  12.455
 7091SOL    HW221954   3.888   3.443  12.526
 7092SOL     OW21955   0.065   2.956  11.704
 7092SOL    HW121956   0.058   2.997  11.618
 7092SOL    HW221957   0.137   2.894  11.695
 7093SOL     OW21958   0.004   2.074  12.425
 7093SOL    HW121959   3.974   2.105  12.510
 7093SOL    HW221960   0.011   1.979  12.435
 7094SOL     OW21961   3.750   3.174  12.448
 7094SOL    HW121962   3.793   3.124  12.518
 7094SOL    HW221963   3.765   3.266  12.473
 7095SOL     OW21964   3.996   1.921  11.826
 7095SOL    HW121965   0.006   2.016  11.839
 7095SOL    HW221966   0.018   1.882  11.910
 7096SOL     OW21967   3.727   3.187  11.360
 7096SOL    HW121968   3.641   3.201  11.320
 7096SOL    HW221969   3.719   3.104  11.406
 7097SOL     OW21970   3.803   3.651  12.111
 7097SOL    HW121971   3.780   3.570  12.064
 7097SOL    HW221972   3.898   3.659  12.100
 7098SOL     OW21973   0.210   3.418  12.038
 7098SOL    HW121974   0.281   3.482  12.033
 7098SOL    HW221975   0.229   3.355  11.969
 7099SOL     OW21976   3.756   2.402  12.291
 7099SOL    HW121977   3.839   2.399  12.243
 7099SOL    HW221978   3.782   2.406  12.383
 7100SOL     OW21979   3.899   2.378  12.896
 7100SOL    HW121980   3.924   2.316  12.827
 7100SOL    HW221981   3.859   2.450  12.848
 7101SOL     OW21982   3.939   3.392  12.900
 7101SOL    HW121983   3.928   3.479  12.939
 7101SOL    HW221984   3.988   3.343  12.966
 7102SOL     OW21985   3.859   2.999  12.644
 7102SOL    HW121986   3.933   2.998  12.704
 7102SOL    HW221987   3.892   2.954  12.566
 7103SOL     OW21988   3.810   3.132  12.183
 7103SOL    HW121989   3.782   3.143  12.274
 7103SOL    HW221990   3.752   3.064  12.148
 7104SOL     OW21991   3.843   3.649  12.998
 7104SOL    HW121992   3.792   3.584  13.047
 7104SOL    HW221993   3.888   3.700  13.065
 7105SOL     OW21994   3.801   2.194  11.215
 7105SOL    HW121995   3.717   2.159  11.185
 7105SOL    HW221996   3.820   2.266  11.155
 7106SOL     OW21997   3.762   2.024  11.485
 7106SOL    HW121998   3.754   2.085  11.411
 7106SOL    HW221999   3.853   2.033  11.513
 7107SOL     OW22000   3.801   3.099  11.838
 7107SOL    HW122001   3.794   3.051  11.920
 7107SOL    HW222002   3.879   3.064  11.796
 7108SOL     OW22003   3.751   2.940  11.484
 7108SOL    HW122004   3.841   2.942  11.451
 7108SOL    HW222005   3.735   2.847  11.503
 7109SOL     OW22006   3.951   2.494  13.146
 7109SOL    HW122007   3.869   2.489  13.194
 7109SOL    HW222008   3.930   2.458  13.060
 7110SOL     OW22009   3.720   2.244  13.661
 7110SOL    HW122010   3.633   2.274  13.688
 7110SOL    HW222011   3.705   2.159  13.619
 7111SOL     OW22012   3.942   3.578  13.502
 7111SOL    HW122013   3.938   3.655  13.558
 7111SOL    HW222014   0.036   3.565  13.485
 7112SOL     OW22015   3.942   3.297  13.536
 7112SOL    HW122016   3.928   3.392  13.538
 7112SOL    HW222017   3.885   3.263  13.605
 7113SOL     OW22018   3.944   2.957   0.006
 7113SOL    HW122019   3.982   2.916   0.084
 7113SOL    HW222020   3.854   2.979   0.033
 7114SOL     OW22021   3.832   2.502  13.597
 7114SOL    HW122022   3.782   2.422  13.612
 7114SOL    HW222023   3.816   2.555  13.675
 7115SOL     OW22024   3.752   3.457  13.162
 7115SOL    HW122025   3.735   3.365  13.180
 7115SOL    HW222026   3.723   3.502  13.242
 7116SOL     OW22027   3.801   2.673  13.807
 7116SOL    HW122028   3.895   2.683  13.822
 7116SOL    HW222029   3.761   2.748  13.851
 7117SOL     OW22030   0.117   3.638  13.843
 7117SOL    HW122031   0.074   3.579   0.005
 7117SOL    HW222032   0.188   3.678  13.894
 7118SOL     OW22033   0.001   1.892  13.197
 7118SOL    HW122034   0.043   1.976  13.175
 7118SOL    HW222035   0.062   1.851  13.258
 7119SOL     OW22036   0.278   2.152  13.346
 7119SOL    HW122037   0.299   2.075  13.294
 7119SOL    HW222038   0.329   2.223  13.307
 7120SOL     OW22039   0.068   2.959  13.559
 7120SOL    HW122040   0.063   3.002  13.473
 7120SOL    HW222041   0.141   2.898  13.552
 7121SOL     OW22042   3.980   1.924  13.672
 7121SOL    HW122043   0.003   2.017  13.682
 7121SOL    HW222044   0.022   1.880  13.746
 7122SOL     OW22045   3.727   3.187  13.221
 7122SOL    HW122046   3.641   3.202  13.181
 7122SOL    HW222047   3.718   3.105  13.268
 7123SOL     OW22048   0.321   3.405   0.008
 7123SOL    HW122049   0.258   3.467   0.045
 7123SOL    HW222050   0.269   3.348  13.853
 7124SOL     OW22051   3.801   2.194  13.077
 7124SOL    HW122052   3.717   2.160  13.046
 7124SOL    HW222053   3.820   2.266  13.018
 7125SOL     OW22054   3.763   2.025  13.347
 7125SOL    HW122055   3.756   2.084  13.272
 7125SOL    HW222056   3.854   2.034  13.375
 7126SOL     OW22057   3.808   3.093  13.689
 7126SOL    HW122058   3.800   3.031  13.761
 7126SOL    HW222059   3.885   3.063  13.640
 7127SOL     OW22060   3.751   2.939  13.345
 7127SOL    HW122061   3.840   2.942  13.310
 7127SOL    HW222062   3.737   2.846  13.364
 7128SOL     OW22063   3.964   3.974   0.989
 7128SOL    HW122064   3.966   3.967   1.085
 7128SOL    HW222065   3.875   3.951   0.966
 7129SOL     OW22066   3.749   0.055   0.689
 7129SOL    HW122067   3.673   0.113   0.691
 7129SOL    HW222068   3.717   3.975   0.648
 7130SOL     OW22069   3.911   3.999   1.511
 7130SOL    HW122070   3.821   0.032   1.514
 7130SOL    HW222071   3.907   3.918   1.562
 7131SOL     OW22072   3.977   3.773   0.179
 7131SOL    HW122073   0.012   3.839   0.119
 7131SOL    HW222074   0.047   3.708   0.187
 7132SOL     OW22075   3.997   3.934   1.257
 7132SOL    HW122076   3.958   3.943   1.344
 7132SOL    HW222077   0.029   3.843   1.254
 7133SOL     OW22078   0.023   3.776   0.648
 7133SOL    HW122079   0.044   3.869   0.651
 7133SOL    HW222080   0.032   3.746   0.738
 7134SOL     OW22081   3.785   3.869   0.344
 7134SOL    HW122082   3.788   3.964   0.334
 7134SOL    HW222083   3.859   3.837   0.293
 7135SOL     OW22084   3.965   3.972   2.850
 7135SOL    HW122085   3.967   3.967   2.946
 7135SOL    HW222086   3.875   3.951   2.827
 7136SOL     OW22087   3.747   0.054   2.555
 7136SOL    HW122088   3.671   0.113   2.555
 7136SOL    HW222089   3.715   3.975   2.512
 7137SOL     OW22090   3.911   3.999   3.373
 7137SOL    HW122091   3.821   0.033   3.376
 7137SOL    HW222092   3.907   3.918   3.424
 7138SOL     OW22093   3.987   3.764   2.021
 7138SOL    HW122094   0.028   3.838   1.976
 7138SOL    HW222095   0.056   3.730   2.078
 7139SOL     OW22096   3.997   3.934   3.119
 7139SOL    HW122097   3.958   3.943   3.205
 7139SOL    HW222098   0.028   3.844   3.116
 7140SOL     OW22099   0.016   3.777   2.515
 7140SOL    HW122100   0.047   3.868   2.518
 7140SOL    HW222101   0.028   3.744   2.604
 7141SOL     OW22102   3.805   0.049   1.888
 7141SOL    HW122103   3.741   0.018   1.824
 7141SOL    HW222104   3.806   0.144   1.878
 7142SOL     OW22105   3.781   3.869   2.186
 7142SOL    HW122106   3.777   3.963   2.169
 7142SOL    HW222107   3.866   3.841   2.151
 7143SOL     OW22108   3.965   3.972   4.712
 7143SOL    HW122109   3.967   3.967   4.808
 7143SOL    HW222110   3.875   3.951   4.689
 7144SOL     OW22111   3.747   0.054   4.417
 7144SOL    HW122112   3.672   0.114   4.416
 7144SOL    HW222113   3.715   3.975   4.374
 7145SOL     OW22114   3.911   3.998   5.235
 7145SOL    HW122115   3.821   0.033   5.237
 7145SOL    HW222116   3.907   3.917   5.285
 7146SOL     OW22117   3.987   3.764   3.883
 7146SOL    HW122118   0.028   3.838   3.838
 7146SOL    HW222119   0.056   3.730   3.940
 7147SOL     OW22120   3.997   3.934   4.981
 7147SOL    HW122121   3.958   3.943   5.067
 7147SOL    HW222122   0.028   3.844   4.977
 7148SOL     OW22123   0.016   3.777   4.377
 7148SOL    HW122124   0.047   3.868   4.380
 7148SOL    HW222125   0.028   3.744   4.466
 7149SOL     OW22126   3.805   0.049   3.751
 7149SOL    HW122127   3.741   0.018   3.686
 7149SOL    HW222128   3.806   0.144   3.740
 7150SOL     OW22129   3.781   3.869   4.048
 7150SOL    HW122130   3.777   3.963   4.031
 7150SOL    HW222131   3.866   3.841   4.013
 7151SOL     OW22132   3.965   3.972   6.574
 7151SOL    HW122133   3.967   3.967   6.670
 7151SOL    HW222134   3.875   3.951   6.551
 7152SOL     OW22135   3.747   0.054   6.279
 7152SOL    HW122136   3.671   0.113   6.278
 7152SOL    HW222137   3.715   3.975   6.236
 7153SOL     OW22138   3.911   3.998   7.097
 7153SOL    HW122139   3.821   0.032   7.100
 7153SOL    HW222140   3.907   3.917   7.147
 7154SOL     OW22141   3.987   3.764   5.745
 7154SOL    HW122142   0.028   3.838   5.700
 7154SOL    HW222143   0.056   3.730   5.802
 7155SOL     OW22144   3.997   3.934   6.843
 7155SOL    HW122145   3.958   3.943   6.929
 7155SOL    HW222146   0.028   3.844   6.839
 7156SOL     OW22147   0.016   3.777   6.239
 7156SOL    HW122148   0.047   3.867   6.242
 7156SOL    HW222149   0.028   3.744   6.328
 7157SOL     OW22150   3.805   0.049   5.612
 7157SOL    HW122151   3.741   0.018   5.548
 7157SOL    HW222152   3.806   0.144   5.602
 7158SOL     OW22153   3.781   3.869   5.910
 7158SOL    HW122154   3.777   3.963   5.893
 7158SOL    HW222155   3.866   3.841   5.875
 7159SOL     OW22156   3.965   3.972   8.436
 7159SOL    HW122157   3.967   3.967   8.532
 7159SOL    HW222158   3.875   3.951   8.413
 7160SOL     OW22159   3.746   0.054   8.141
 7160SOL    HW122160   3.671   0.113   8.140
 7160SOL    HW222161   3.716   3.975   8.098
 7161SOL     OW22162   3.911   3.998   8.959
 7161SOL    HW122163   3.822   0.033   8.962
 7161SOL    HW222164   3.907   3.917   9.010
 7162SOL     OW22165   3.987   3.764   7.607
 7162SOL    HW122166   0.028   3.838   7.561
 7162SOL    HW222167   0.057   3.730   7.664
 7163SOL     OW22168   3.997   3.934   8.705
 7163SOL    HW122169   3.958   3.943   8.791
 7163SOL    HW222170   0.029   3.844   8.702
 7164SOL     OW22171   0.015   3.777   8.101
 7164SOL    HW122172   0.048   3.867   8.103
 7164SOL    HW222173   0.028   3.745   8.190
 7165SOL     OW22174   3.805   0.049   7.475
 7165SOL    HW122175   3.742   0.018   7.410
 7165SOL    HW222176   3.806   0.144   7.464
 7166SOL     OW22177   3.781   3.869   7.772
 7166SOL    HW122178   3.777   3.963   7.754
 7166SOL    HW222179   3.866   3.841   7.737
 7167SOL     OW22180   3.965   3.972  10.298
 7167SOL    HW122181   3.967   3.967  10.394
 7167SOL    HW222182   3.875   3.951  10.275
 7168SOL     OW22183   3.746   0.054  10.003
 7168SOL    HW122184   3.671   0.114  10.002
 7168SOL    HW222185   3.715   3.975   9.960
 7169SOL     OW22186   3.911   3.998  10.821
 7169SOL    HW122187   3.822   0.033  10.824
 7169SOL    HW222188   3.907   3.917  10.872
 7170SOL     OW22189   3.987   3.764   9.469
 7170SOL    HW122190   0.028   3.838   9.424
 7170SOL    HW222191   0.057   3.730   9.526
 7171SOL     OW22192   3.997   3.934  10.567
 7171SOL    HW122193   3.958   3.943  10.653
 7171SOL    HW222194   0.028   3.844  10.564
 7172SOL     OW22195   0.016   3.777   9.963
 7172SOL    HW122196   0.047   3.868   9.966
 7172SOL    HW222197   0.028   3.744  10.052
 7173SOL     OW22198   3.805   0.049   9.336
 7173SOL    HW122199   3.741   0.018   9.272
 7173SOL    HW222200   3.806   0.144   9.326
 7174SOL     OW22201   3.781   3.869   9.634
 7174SOL    HW122202   3.777   3.963   9.617
 7174SOL    HW222203   3.866   3.841   9.599
 7175SOL     OW22204   3.965   3.972  12.160
 7175SOL    HW122205   3.967   3.967  12.256
 7175SOL    HW222206   3.875   3.951  12.137
 7176SOL     OW22207   3.747   0.054  11.865
 7176SOL    HW122208   3.672   0.114  11.864
 7176SOL    HW222209   3.715   3.975  11.822
 7177SOL     OW22210   3.910   3.998  12.683
 7177SOL    HW122211   3.821   0.032  12.686
 7177SOL    HW222212   3.907   3.917  12.733
 7178SOL     OW22213   3.987   3.764  11.331
 7178SOL    HW122214   0.028   3.838  11.286
 7178SOL    HW222215   0.056   3.730  11.388
 7179SOL     OW22216   3.997   3.934  12.429
 7179SOL    HW122217   3.957   3.943  12.515
 7179SOL    HW222218   0.028   3.844  12.425
 7180SOL     OW22219   0.016   3.777  11.825
 7180SOL    HW122220   0.047   3.868  11.828
 7180SOL    HW222221   0.028   3.744  11.914
 7181SOL     OW22222   3.805   0.049  11.198
 7181SOL    HW122223   3.741   0.018  11.134
 7181SOL    HW222224   3.806   0.144  11.188
 7182SOL     OW22225   3.781   3.869  11.496
 7182SOL    HW122226   3.777   3.963  11.479
 7182SOL    HW222227   3.866   3.841  11.461
 7183SOL     OW22228   3.740   0.080  13.685
 7183SOL    HW122229   3.669   0.110  13.741
 7183SOL    HW222230   3.719   3.989  13.666
 7184SOL     OW22231   3.988   3.768  13.198
 7184SOL    HW122232   0.033   3.837  13.149
 7184SOL    HW222233   0.057   3.730  13.254
 7185SOL     OW22234   3.976   3.789  13.672
 7185SOL    HW122235   0.024   3.872  13.674
 7185SOL    HW222236   0.022   3.734  13.735
 7186SOL     OW22237   3.806   0.049  13.059
 7186SOL    HW122238   3.741   0.018  12.995
 7186SOL    HW222239   3.807   0.144  13.048
 7187SOL     OW22240   3.778   3.870  13.357
 7187SOL    HW122241   3.777   3.965  13.346
 7187SOL    HW222242   3.860   3.841  13.318
   4.00000   4.00000  13.90000
