2gCDOC_1PEG_l11
21975
    1LIG      O    1   2.214   2.280   0.025
    1LIG      C    2   2.295   2.293   0.150
    1LIG     C1    3   2.223   2.236   0.281
    1LIG     O1    4   2.283   2.287   0.407
    1LIG     C2    5   2.222   2.233   0.530
    1LIG     C3    6   2.296   2.280   0.662
    1LIG     O2    7   2.234   2.222   0.782
    1LIG     C4    8   2.289   2.274   0.908
    1LIG     C5    9   2.209   2.222   1.033
    1LIG     O3   10   2.267   2.274   1.157
    1LIG     C6   11   2.210   2.221   1.281
    1LIG     C7   12   2.286   2.280   1.406
    1LIG     O4   13   2.218   2.244   1.528
    1LIG     C8   14   2.294   2.277   1.648
    1LIG     C9   15   2.218   2.225   1.774
    1LIG     O5   16   2.282   2.272   1.894
    1LIG    C10   17   2.222   2.221   2.016
    1LIG    C11   18   2.297   2.276   2.141
    1LIG     O6   19   2.242   2.216   2.262
    1LIG    C12   20   2.293   2.280   2.383
    1LIG    C13   21   2.216   2.227   2.509
    1LIG     O7   22   2.284   2.271   2.629
    1LIG    C14   23   2.213   2.245   2.752
    1LIG    C15   24   2.295   2.300   2.876
    1LIG     O8   25   2.244   2.249   3.002
    1LIG    C16   26   2.305   2.301   3.123
    1LIG    C17   27   2.232   2.239   3.246
    1LIG     O9   28   2.281   2.298   3.370
    1LIG    C18   29   2.223   2.238   3.489
    1LIG    C19   30   2.297   2.287   3.617
    1LIG    O10   31   2.231   2.238   3.736
    1LIG    C20   32   2.295   2.285   3.859
    1LIG    C21   33   2.216   2.235   3.984
    1LIG    O11   34   2.275   2.286   4.107
    1LIG    C22   35   2.211   2.232   4.225
    1LIG    C23   36   2.287   2.278   4.354
    1LIG    O12   37   2.229   2.218   4.473
    1LIG    C24   38   2.286   2.275   4.593
    1LIG    C25   39   2.213   2.219   4.720
    1LIG    O13   40   2.281   2.264   4.840
    1LIG    C26   41   2.220   2.214   4.962
    1LIG    C27   42   2.291   2.277   5.088
    1LIG    O14   43   2.217   2.253   5.210
    1LIG    C28   44   2.291   2.290   5.330
    1LIG    C29   45   2.205   2.257   5.456
    1LIG    O15   46   2.278   2.284   5.578
    1LIG    C30   47   2.221   2.230   5.701
    1LIG    C31   48   2.299   2.281   5.826
    1LIG    O16   49   2.233   2.236   5.946
    1LIG    C32   50   2.291   2.286   6.069
    1LIG    C33   51   2.209   2.235   6.193
    1LIG    O17   52   2.253   2.302   6.315
    1LIG    C34   53   2.183   2.256   6.434
    1LIG    C35   54   2.251   2.313   6.564
    1LIG    O18   55   2.199   2.253   6.685
    1LIG    C36   56   2.266   2.299   6.805
    1LIG    C37   57   2.206   2.228   6.930
    1LIG    O19   58   2.261   2.287   7.051
    1LIG    C38   59   2.210   2.225   7.172
    1LIG    C39   60   2.289   2.277   7.296
    1LIG    O20   61   2.227   2.231   7.419
    1LIG    C40   62   2.294   2.281   7.538
    1LIG    C41   63   2.218   2.230   7.665
    1LIG    O21   64   2.284   2.272   7.787
    1LIG    C42   65   2.214   2.228   7.905
    1LIG    C43   66   2.287   2.280   8.033
    1LIG    O22   67   2.231   2.218   8.152
    1LIG    C44   68   2.286   2.276   8.274
    1LIG    C45   69   2.211   2.221   8.399
    1LIG    O23   70   2.270   2.276   8.520
    1LIG    C46   71   2.216   2.220   8.643
    1LIG    C47   72   2.292   2.281   8.766
    1LIG    O24   73   2.221   2.248   8.890
    1LIG    C48   74   2.296   2.282   9.010
    1LIG    C49   75   2.224   2.226   9.137
    1LIG    O25   76   2.292   2.271   9.257
    1LIG    C50   77   2.230   2.226   9.380
    1LIG    C51   78   2.306   2.278   9.506
    1LIG    O26   79   2.245   2.225   9.627
    1LIG    C52   80   2.293   2.286   9.751
    1LIG    C53   81   2.211   2.231   9.873
    1LIG    O27   82   2.271   2.268  10.001
    1LIG    C54   83   2.205   2.217  10.121
    1LIG    C55   84   2.278   2.273  10.251
    1LIG    O28   85   2.213   2.235  10.377
    1LIG    C56   86   2.277   2.291  10.498
    1LIG    C57   87   2.214   2.226  10.628
    1LIG    O29   88   2.264   2.280  10.757
    1LIG    C58   89   2.198   2.216  10.873
    1LIG    C59   90   2.282   2.214  11.010
    1LIG      H   91   2.316   2.399   0.166
    1LIG     H1   92   2.391   2.242   0.138
    1LIG     H2   93   2.231   2.127   0.282
    1LIG     H3   94   2.116   2.262   0.280
    1LIG     H4   95   2.227   2.124   0.525
    1LIG     H5   96   2.117   2.262   0.535
    1LIG     H6   97   2.291   2.389   0.670
    1LIG     H7   98   2.401   2.251   0.659
    1LIG     H8   99   2.284   2.384   0.907
    1LIG     H9  100   2.394   2.245   0.917
    1LIG    H10  101   2.212   2.112   1.036
    1LIG    H11  102   2.104   2.253   1.027
    1LIG    H12  103   2.218   2.112   1.282
    1LIG    H13  104   2.104   2.248   1.286
    1LIG    H14  105   2.291   2.390   1.398
    1LIG    H15  106   2.388   2.241   1.408
    1LIG    H16  107   2.306   2.385   1.656
    1LIG    H17  108   2.394   2.231   1.644
    1LIG    H18  109   2.216   2.115   1.773
    1LIG    H19  110   2.115   2.262   1.770
    1LIG    H20  111   2.224   2.112   2.016
    1LIG    H21  112   2.118   2.255   2.022
    1LIG    H22  113   2.285   2.385   2.145
    1LIG    H23  114   2.404   2.252   2.135
    1LIG    H24  115   2.281   2.389   2.376
    1LIG    H25  116   2.400   2.257   2.392
    1LIG    H26  117   2.213   2.117   2.506
    1LIG    H27  118   2.114   2.265   2.507
    1LIG    H28  119   2.198   2.137   2.762
    1LIG    H29  120   2.114   2.294   2.748
    1LIG    H30  121   2.291   2.410   2.876
    1LIG    H31  122   2.400   2.269   2.866
    1LIG    H32  123   2.294   2.410   3.125
    1LIG    H33  124   2.412   2.276   3.125
    1LIG    H34  125   2.247   2.130   3.247
    1LIG    H35  126   2.125   2.260   3.237
    1LIG    H36  127   2.229   2.129   3.483
    1LIG    H37  128   2.117   2.267   3.496
    1LIG    H38  129   2.298   2.397   3.619
    1LIG    H39  130   2.400   2.250   3.615
    1LIG    H40  131   2.298   2.395   3.859
    1LIG    H41  132   2.398   2.248   3.863
    1LIG    H42  133   2.219   2.126   3.987
    1LIG    H43  134   2.111   2.267   3.978
    1LIG    H44  135   2.213   2.122   4.220
    1LIG    H45  136   2.107   2.264   4.229
    1LIG    H46  137   2.282   2.387   4.362
    1LIG    H47  138   2.393   2.248   4.346
    1LIG    H48  139   2.275   2.384   4.591
    1LIG    H49  140   2.393   2.251   4.599
    1LIG    H50  141   2.213   2.110   4.717
    1LIG    H51  142   2.109   2.254   4.720
    1LIG    H52  143   2.228   2.105   4.965
    1LIG    H53  144   2.114   2.239   4.960
    1LIG    H54  145   2.303   2.385   5.073
    1LIG    H55  146   2.390   2.231   5.098
    1LIG    H56  147   2.314   2.397   5.328
    1LIG    H57  148   2.385   2.234   5.333
    1LIG    H58  149   2.175   2.152   5.451
    1LIG    H59  150   2.112   2.316   5.455
    1LIG    H60  151   2.221   2.120   5.698
    1LIG    H61  152   2.118   2.264   5.709
    1LIG    H62  153   2.300   2.391   5.825
    1LIG    H63  154   2.403   2.245   5.824
    1LIG    H64  155   2.290   2.395   6.067
    1LIG    H65  156   2.395   2.252   6.077
    1LIG    H66  157   2.221   2.126   6.203
    1LIG    H67  158   2.102   2.256   6.177
    1LIG    H68  159   2.184   2.147   6.436
    1LIG    H69  160   2.079   2.288   6.430
    1LIG    H70  161   2.238   2.422   6.568
    1LIG    H71  162   2.359   2.296   6.563
    1LIG    H72  163   2.252   2.407   6.814
    1LIG    H73  164   2.374   2.280   6.799
    1LIG    H74  165   2.228   2.121   6.927
    1LIG    H75  166   2.097   2.241   6.930
    1LIG    H76  167   2.219   2.116   7.166
    1LIG    H77  168   2.103   2.250   7.182
    1LIG    H78  169   2.289   2.387   7.296
    1LIG    H79  170   2.392   2.242   7.291
    1LIG    H80  171   2.295   2.391   7.537
    1LIG    H81  172   2.398   2.246   7.540
    1LIG    H82  173   2.216   2.121   7.663
    1LIG    H83  174   2.115   2.267   7.665
    1LIG    H84  175   2.212   2.119   7.906
    1LIG    H85  176   2.110   2.265   7.904
    1LIG    H86  177   2.276   2.389   8.039
    1LIG    H87  178   2.394   2.255   8.026
    1LIG    H88  179   2.277   2.385   8.271
    1LIG    H89  180   2.393   2.250   8.281
    1LIG    H90  181   2.218   2.112   8.401
    1LIG    H91  182   2.105   2.250   8.394
    1LIG    H92  183   2.226   2.111   8.643
    1LIG    H93  184   2.109   2.245   8.650
    1LIG    H94  185   2.296   2.390   8.757
    1LIG    H95  186   2.394   2.242   8.769
    1LIG    H96  187   2.304   2.390   9.017
    1LIG    H97  188   2.398   2.242   9.005
    1LIG    H98  189   2.223   2.117   9.133
    1LIG    H99  190   2.120   2.262   9.138
    1LIG   H100  191   2.227   2.117   9.381
    1LIG   H101  192   2.127   2.264   9.384
    1LIG   H102  193   2.301   2.388   9.508
    1LIG   H103  194   2.412   2.248   9.502
    1LIG   H104  195   2.283   2.396   9.745
    1LIG   H105  196   2.399   2.262   9.763
    1LIG   H106  197   2.211   2.123   9.864
    1LIG   H107  198   2.108   2.266   9.867
    1LIG   H108  199   2.208   2.108  10.121
    1LIG   H109  200   2.099   2.249  10.121
    1LIG   H110  201   2.280   2.383  10.244
    1LIG   H111  202   2.380   2.235  10.252
    1LIG   H112  203   2.262   2.400  10.499
    1LIG   H113  204   2.385   2.272  10.495
    1LIG   H114  205   2.234   2.118  10.625
    1LIG   H115  206   2.106   2.240  10.624
    1LIG   H116  207   2.180   2.111  10.847
    1LIG   H117  208   2.100   2.262  10.889
    1LIG   H118  209   2.382   2.256  10.995
    1LIG   H119  210   2.296   2.109  11.037
    2MOL     C1  211   1.725   1.796   4.945
    2MOL     H1  212   1.705   1.690   4.926
    2MOL     O1  213   1.683   1.830   5.079
    2MOL     C2  214   1.702   1.969   5.116
    2MOL     H2  215   1.807   1.997   5.100
    2MOL     C3  216   1.673   1.981   5.267
    2MOL     H3  217   1.702   2.080   5.302
    2MOL     H4  218   1.731   1.907   5.322
    2MOL     O2  219   1.532   1.959   5.287
    2MOL     C4  220   1.488   1.981   5.422
    2MOL     C5  221   1.642   1.881   4.844
    2MOL     H5  222   1.538   1.846   4.848
    2MOL     O3  223   1.692   1.868   4.710
    2MOL     C6  224   1.662   1.744   4.645
    2MOL     C7  225   1.642   2.031   4.878
    2MOL     H6  226   1.743   2.071   4.857
    2MOL     O4  227   1.541   2.096   4.799
    2MOL     C8  228   1.595   2.184   4.699
    2MOL     C9  229   1.611   2.056   5.026
    2MOL     H7  230   1.505   2.030   5.044
    2MOL     O5  231   1.634   2.197   5.051
    2MOL    C10  232   1.540   2.265   5.137
    2MOL     H8  233   1.456   2.197   5.162
    2MOL     O6  234   1.607   2.306   5.258
    2MOL    C11  235   1.723   2.389   5.234
    2MOL     H9  236   1.785   2.334   5.165
    2MOL    C12  237   1.800   2.405   5.365
    2MOL    H10  238   1.895   2.457   5.346
    2MOL    H11  239   1.824   2.305   5.405
    2MOL     O7  240   1.719   2.478   5.459
    2MOL    C13  241   1.790   2.518   5.577
    2MOL    C14  242   1.485   2.392   5.067
    2MOL    H12  243   1.411   2.438   5.132
    2MOL     O8  244   1.425   2.358   4.940
    2MOL    C15  245   1.298   2.293   4.950
    2MOL    C16  246   1.595   2.496   5.040
    2MOL    H13  247   1.661   2.460   4.962
    2MOL     O9  248   1.530   2.620   5.002
    2MOL    C17  249   1.549   2.656   4.865
    2MOL    C18  250   1.679   2.523   5.168
    2MOL    H14  251   1.618   2.580   5.237
    2MOL    O10  252   1.796   2.599   5.126
    2MOL    C19  253   1.834   2.712   5.210
    2MOL    H15  254   1.763   2.724   5.292
    2MOL    O11  255   1.964   2.684   5.264
    2MOL    C20  256   2.070   2.675   5.167
    2MOL    H16  257   2.042   2.607   5.086
    2MOL    C21  258   2.193   2.619   5.237
    2MOL    H17  259   2.263   2.580   5.163
    2MOL    H18  260   2.161   2.539   5.304
    2MOL    O12  261   2.255   2.724   5.312
    2MOL    C22  262   2.360   2.672   5.392
    2MOL    C23  263   1.842   2.844   5.128
    2MOL    H19  264   1.856   2.927   5.198
    2MOL    O13  265   1.720   2.863   5.055
    2MOL    C24  266   1.607   2.895   5.136
    2MOL    C25  267   1.959   2.847   5.028
    2MOL    H20  268   1.938   2.775   4.947
    2MOL    O14  269   1.976   2.980   4.976
    2MOL    C26  270   1.933   2.994   4.840
    2MOL    C27  271   2.091   2.806   5.094
    2MOL    H21  272   2.127   2.883   5.165
    2MOL    O15  273   2.187   2.780   4.990
    2MOL    C28  274   2.259   2.894   4.942
    2MOL    H22  275   2.194   2.981   4.930
    2MOL    O16  276   2.362   2.925   5.037
    2MOL    C29  277   2.462   2.824   5.063
    2MOL    H23  278   2.416   2.735   5.107
    2MOL    C30  279   2.558   2.887   5.166
    2MOL    H24  280   2.623   2.811   5.210
    2MOL    H25  281   2.499   2.931   5.248
    2MOL    O17  282   2.636   2.990   5.100
    2MOL    C31  283   2.728   3.060   5.185
    2MOL    C32  284   2.322   2.862   4.805
    2MOL    H26  285   2.372   2.952   4.769
    2MOL    O18  286   2.216   2.823   4.714
    2MOL    C33  287   2.228   2.879   4.582
    2MOL    C34  288   2.425   2.749   4.818
    2MOL    H27  289   2.373   2.657   4.846
    2MOL    O19  290   2.494   2.735   4.692
    2MOL    C35  291   2.516   2.599   4.652
    2MOL    C36  292   2.529   2.785   4.927
    2MOL    H28  293   2.586   2.871   4.890
    2MOL    O20  294   2.617   2.672   4.942
    2MOL    C37  295   2.753   2.705   4.975
    2MOL    H29  296   2.767   2.814   4.973
    2MOL    O21  297   2.779   2.657   5.107
    2MOL    C38  298   2.768   2.513   5.124
    2MOL    H30  299   2.668   2.480   5.094
    2MOL    C39  300   2.784   2.486   5.271
    2MOL    H31  301   2.759   2.382   5.293
    2MOL    H32  302   2.712   2.548   5.322
    2MOL    O22  303   2.920   2.517   5.309
    2MOL    C40  304   2.954   2.477   5.442
    2MOL    C41  305   2.854   2.640   4.878
    2MOL    H33  306   2.954   2.680   4.900
    2MOL    O23  307   2.819   2.667   4.741
    2MOL    C42  308   2.856   2.796   4.693
    2MOL    C43  309   2.859   2.488   4.893
    2MOL    H34  310   2.765   2.446   4.856
    2MOL    O24  311   2.972   2.443   4.817
    2MOL    C44  312   2.929   2.372   4.701
    2MOL    C45  313   2.876   2.443   5.038
    2MOL    H35  314   2.976   2.472   5.072
    2MOL    O25  315   2.857   2.299   5.043
    2MOL    C46  316   2.940   2.228   5.138
    2MOL    H36  317   3.019   2.294   5.175
    2MOL    O26  318   2.858   2.183   5.248
    2MOL    C47  319   2.747   2.095   5.216
    2MOL    H37  320   2.679   2.144   5.146
    2MOL    C48  321   2.669   2.064   5.346
    2MOL    H38  322   2.575   2.015   5.323
    2MOL    H39  323   2.646   2.157   5.399
    2MOL    O27  324   2.751   1.980   5.430
    2MOL    C49  325   2.688   1.934   5.550
    2MOL    C50  326   3.002   2.104   5.069
    2MOL    H40  327   3.072   2.059   5.141
    2MOL    O28  328   3.073   2.139   4.948
    2MOL    C51  329   3.191   2.218   4.968
    2MOL    C52  330   2.897   1.999   5.033
    2MOL    H41  331   2.834   2.037   4.950
    2MOL    O29  332   2.968   1.879   4.998
    2MOL    C53  333   2.971   1.846   4.858
    2MOL    C54  334   2.804   1.967   5.152
    2MOL    H42  335   2.866   1.915   5.227
    2MOL    O30  336   2.696   1.882   5.106
    2MOL    C55  337   2.677   1.760   5.182
    2MOL    H43  338   2.763   1.744   5.250
    2MOL    O31  339   2.558   1.771   5.261
    2MOL    C56  340   2.436   1.789   5.185
    2MOL    H44  341   2.439   1.882   5.129
    2MOL    C57  342   2.323   1.792   5.286
    2MOL    H45  343   2.330   1.703   5.349
    2MOL    H46  344   2.226   1.792   5.236
    2MOL    O32  345   2.338   1.910   5.364
    2MOL    C58  346   2.243   1.911   5.468
    2MOL    C59  347   2.663   1.637   5.089
    2MOL    H47  348   2.659   1.547   5.151
    2MOL    O33  349   2.776   1.631   5.001
    2MOL    C60  350   2.897   1.595   5.068
    2MOL    C61  351   2.536   1.643   5.003
    2MOL    H48  352   2.545   1.725   4.931
    2MOL    O34  353   2.517   1.516   4.939
    2MOL    C62  354   2.561   1.515   4.803
    2MOL    C63  355   2.413   1.670   5.090
    2MOL    H49  356   2.390   1.580   5.150
    2MOL    O35  357   2.303   1.704   5.003
    2MOL    C64  358   2.223   1.591   4.959
    2MOL    H50  359   2.285   1.501   4.952
    2MOL    O36  360   2.117   1.571   5.054
    2MOL    C65  361   2.022   1.680   5.066
    2MOL    H51  362   2.073   1.773   5.095
    2MOL    C66  363   1.926   1.639   5.179
    2MOL    H52  364   1.889   1.537   5.162
    2MOL    H53  365   1.841   1.707   5.185
    2MOL    O37  366   1.999   1.645   5.302
    2MOL    C67  367   1.923   1.597   5.414
    2MOL    C68  368   2.162   1.618   4.818
    2MOL    H54  369   2.111   1.526   4.786
    2MOL    O38  370   2.268   1.651   4.727
    2MOL    C69  371   2.262   1.582   4.601
    2MOL    C70  372   2.060   1.733   4.822
    2MOL    H55  373   2.115   1.825   4.848
    2MOL    O39  374   1.997   1.744   4.693
    2MOL    C71  375   2.004   1.873   4.632
    2MOL    C72  376   1.953   1.705   4.929
    2MOL    H56  377   1.897   1.616   4.898
    2MOL    O40  378   1.867   1.822   4.934
    2MOL    H57  379   1.379   1.968   5.429
    2MOL    H58  380   1.537   1.911   5.490
    2MOL    H59  381   1.512   2.084   5.453
    2MOL    H60  382   1.981   1.607   5.506
    2MOL    H61  383   1.832   1.656   5.425
    2MOL    H62  384   1.899   1.491   5.401
    2MOL    H63  385   2.263   1.994   5.536
    2MOL    H64  386   2.142   1.920   5.427
    2MOL    H65  387   2.250   1.819   5.526
    2MOL    H66  388   2.754   1.865   5.603
    2MOL    H67  389   2.666   2.019   5.615
    2MOL    H68  390   2.595   1.881   5.525
    2MOL    H69  391   3.061   2.493   5.459
    2MOL    H70  392   2.898   2.536   5.515
    2MOL    H71  393   2.932   2.371   5.455
    2MOL    H72  394   2.767   3.148   5.134
    2MOL    H73  395   2.678   3.092   5.277
    2MOL    H74  396   2.812   2.995   5.210
    2MOL    H75  397   2.418   2.752   5.439
    2MOL    H76  398   2.317   2.608   5.470
    2MOL    H77  399   2.429   2.612   5.331
    2MOL    H78  400   1.726   2.577   5.642
    2MOL    H79  401   1.824   2.430   5.633
    2MOL    H80  402   1.877   2.579   5.550
    2MOL    H81  403   1.493   2.748   4.844
    2MOL    H82  404   1.654   2.675   4.844
    2MOL    H83  405   1.511   2.577   4.799
    2MOL    H84  406   1.245   2.299   4.854
    2MOL    H85  407   1.311   2.187   4.977
    2MOL    H86  408   1.235   2.342   5.025
    2MOL    H87  409   1.514   2.228   4.640
    2MOL    H88  410   1.651   2.266   4.747
    2MOL    H89  411   1.662   2.129   4.632
    2MOL    H90  412   1.688   1.752   4.539
    2MOL    H91  413   1.722   1.664   4.688
    2MOL    H92  414   1.556   1.719   4.654
    2MOL    H93  415   1.957   1.870   4.533
    2MOL    H94  416   1.952   1.947   4.694
    2MOL    H95  417   2.109   1.904   4.622
    2MOL    H96  418   2.346   1.613   4.538
    2MOL    H97  419   2.269   1.474   4.616
    2MOL    H98  420   2.168   1.605   4.548
    2MOL    H99  421   2.526   1.423   4.755
    2MOL   H100  422   2.519   1.599   4.748
    2MOL   H101  423   2.671   1.520   4.798
    2MOL   H102  424   2.970   1.561   4.993
    2MOL   H103  425   2.938   1.680   5.122
    2MOL   H104  426   2.878   1.515   5.140
    2MOL   H105  427   3.022   1.750   4.843
    2MOL   H106  428   2.868   1.837   4.820
    2MOL   H107  429   3.025   1.923   4.803
    2MOL   H108  430   3.251   2.223   4.877
    2MOL   H109  431   3.162   2.320   4.993
    2MOL   H110  432   3.253   2.176   5.048
    2MOL   H111  433   3.014   2.338   4.643
    2MOL   H112  434   2.869   2.287   4.734
    2MOL   H113  435   2.866   2.435   4.637
    2MOL   H114  436   2.831   2.802   4.587
    2MOL   H115  437   2.800   2.873   4.747
    2MOL   H116  438   2.963   2.813   4.707
    2MOL   H117  439   2.580   2.596   4.563
    2MOL   H118  440   2.565   2.542   4.732
    2MOL   H119  441   2.420   2.551   4.628
    2MOL   H120  442   2.143   2.848   4.520
    2MOL   H121  443   2.229   2.989   4.587
    2MOL   H122  444   2.320   2.844   4.534
    2MOL   H123  445   1.947   3.097   4.804
    2MOL   H124  446   1.989   2.926   4.774
    2MOL   H125  447   1.827   2.969   4.834
    2MOL   H126  448   1.522   2.922   5.072
    2MOL   H127  449   1.577   2.811   5.199
    2MOL   H128  450   1.629   2.982   5.199
    3MOL     C1  451   1.723   1.792   5.944
    3MOL     H1  452   1.702   1.686   5.928
    3MOL     O1  453   1.681   1.829   6.077
    3MOL     C2  454   1.703   1.967   6.112
    3MOL     H2  455   1.809   1.994   6.097
    3MOL     C3  456   1.673   1.980   6.263
    3MOL     H3  457   1.706   2.078   6.298
    3MOL     H4  458   1.730   1.903   6.316
    3MOL     O2  459   1.532   1.962   6.284
    3MOL     C4  460   1.492   1.981   6.420
    3MOL     C5  461   1.641   1.877   5.842
    3MOL     H5  462   1.536   1.844   5.849
    3MOL     O3  463   1.688   1.858   5.707
    3MOL     C6  464   1.660   1.731   5.648
    3MOL     C7  465   1.645   2.028   5.873
    3MOL     H6  466   1.744   2.066   5.850
    3MOL     O4  467   1.544   2.095   5.794
    3MOL     C8  468   1.593   2.182   5.692
    3MOL     C9  469   1.614   2.056   6.021
    3MOL     H7  470   1.508   2.033   6.038
    3MOL     O5  471   1.641   2.195   6.041
    3MOL    C10  472   1.552   2.265   6.131
    3MOL     H8  473   1.469   2.200   6.162
    3MOL     O6  474   1.629   2.304   6.247
    3MOL    C11  475   1.744   2.387   6.219
    3MOL     H9  476   1.812   2.336   6.149
    3MOL    C12  477   1.819   2.407   6.353
    3MOL    H10  478   1.918   2.449   6.333
    3MOL    H11  479   1.832   2.310   6.402
    3MOL     O7  480   1.742   2.496   6.437
    3MOL    C13  481   1.810   2.532   6.558
    3MOL    C14  482   1.495   2.391   6.060
    3MOL    H12  483   1.422   2.440   6.126
    3MOL     O8  484   1.432   2.356   5.934
    3MOL    C15  485   1.306   2.287   5.945
    3MOL    C16  486   1.605   2.493   6.031
    3MOL    H13  487   1.669   2.456   5.949
    3MOL     O9  488   1.543   2.619   5.997
    3MOL    C17  489   1.566   2.666   5.864
    3MOL    C18  490   1.693   2.518   6.154
    3MOL    H14  491   1.630   2.571   6.227
    3MOL    O10  492   1.801   2.601   6.113
    3MOL    C19  493   1.833   2.708   6.204
    3MOL    H15  494   1.759   2.715   6.284
    3MOL    O11  495   1.961   2.680   6.261
    3MOL    C20  496   2.067   2.666   6.164
    3MOL    H16  497   2.041   2.590   6.090
    3MOL    C21  498   2.192   2.618   6.239
    3MOL    H17  499   2.269   2.588   6.167
    3MOL    H18  500   2.165   2.531   6.301
    3MOL    O12  501   2.238   2.725   6.321
    3MOL    C22  502   2.348   2.692   6.405
    3MOL    C23  503   1.838   2.842   6.127
    3MOL    H19  504   1.857   2.921   6.199
    3MOL    O13  505   1.714   2.866   6.059
    3MOL    C24  506   1.607   2.916   6.142
    3MOL    C25  507   1.953   2.842   6.023
    3MOL    H20  508   1.932   2.768   5.945
    3MOL    O14  509   1.963   2.976   5.968
    3MOL    C26  510   1.903   2.987   5.836
    3MOL    C27  511   2.086   2.803   6.094
    3MOL    H21  512   2.114   2.878   6.167
    3MOL    O15  513   2.189   2.784   5.997
    3MOL    C28  514   2.259   2.902   5.953
    3MOL    H22  515   2.191   2.987   5.942
    3MOL    O16  516   2.364   2.932   6.047
    3MOL    C29  517   2.465   2.830   6.068
    3MOL    H23  518   2.419   2.739   6.109
    3MOL    C30  519   2.563   2.884   6.173
    3MOL    H24  520   2.629   2.805   6.209
    3MOL    H25  521   2.509   2.920   6.261
    3MOL    O17  522   2.640   2.991   6.115
    3MOL    C31  523   2.733   3.047   6.208
    3MOL    C32  524   2.321   2.869   5.816
    3MOL    H26  525   2.371   2.958   5.776
    3MOL    O18  526   2.215   2.823   5.730
    3MOL    C33  527   2.215   2.885   5.601
    3MOL    C34  528   2.422   2.755   5.833
    3MOL    H27  529   2.368   2.667   5.872
    3MOL    O19  530   2.481   2.726   5.707
    3MOL    C35  531   2.478   2.586   5.678
    3MOL    C36  532   2.532   2.793   5.933
    3MOL    H28  533   2.586   2.880   5.891
    3MOL    O20  534   2.621   2.679   5.947
    3MOL    C37  535   2.758   2.709   5.983
    3MOL    H29  536   2.775   2.817   5.981
    3MOL    O21  537   2.782   2.660   6.116
    3MOL    C38  538   2.763   2.518   6.136
    3MOL    H30  539   2.661   2.489   6.106
    3MOL    C39  540   2.779   2.491   6.287
    3MOL    H31  541   2.744   2.390   6.310
    3MOL    H32  542   2.715   2.563   6.341
    3MOL    O22  543   2.917   2.507   6.327
    3MOL    C40  544   2.939   2.478   6.465
    3MOL    C41  545   2.858   2.639   5.888
    3MOL    H33  546   2.960   2.671   5.915
    3MOL    O23  547   2.831   2.675   5.751
    3MOL    C42  548   2.872   2.807   5.715
    3MOL    C43  549   2.853   2.486   5.900
    3MOL    H34  550   2.757   2.451   5.859
    3MOL    O24  551   2.965   2.432   5.826
    3MOL    C44  552   2.928   2.336   5.727
    3MOL    C45  553   2.865   2.442   6.046
    3MOL    H35  554   2.967   2.468   6.080
    3MOL    O25  555   2.842   2.300   6.051
    3MOL    C46  556   2.933   2.228   6.138
    3MOL    H36  557   3.012   2.295   6.172
    3MOL    O26  558   2.860   2.180   6.251
    3MOL    C47  559   2.751   2.089   6.219
    3MOL    H37  560   2.681   2.137   6.150
    3MOL    C48  561   2.677   2.059   6.348
    3MOL    H38  562   2.588   2.001   6.322
    3MOL    H39  563   2.646   2.155   6.393
    3MOL    O27  564   2.762   1.987   6.439
    3MOL    C49  565   2.692   1.942   6.556
    3MOL    C50  566   2.997   2.107   6.065
    3MOL    H40  567   3.070   2.063   6.133
    3MOL    O28  568   3.062   2.150   5.944
    3MOL    C51  569   3.179   2.232   5.966
    3MOL    C52  570   2.892   1.999   6.029
    3MOL    H41  571   2.825   2.039   5.952
    3MOL    O29  572   2.963   1.882   5.985
    3MOL    C53  573   2.947   1.851   5.846
    3MOL    C54  574   2.808   1.961   6.153
    3MOL    H42  575   2.873   1.909   6.224
    3MOL    O30  576   2.699   1.877   6.108
    3MOL    C55  577   2.678   1.756   6.185
    3MOL    H43  578   2.762   1.739   6.253
    3MOL    O31  579   2.555   1.767   6.262
    3MOL    C56  580   2.432   1.788   6.187
    3MOL    H44  581   2.434   1.886   6.135
    3MOL    C57  582   2.311   1.779   6.281
    3MOL    H45  583   2.327   1.696   6.350
    3MOL    H46  584   2.220   1.758   6.226
    3MOL    O32  585   2.292   1.900   6.354
    3MOL    C58  586   2.204   1.884   6.467
    3MOL    C59  587   2.664   1.635   6.089
    3MOL    H47  588   2.651   1.543   6.149
    3MOL    O33  589   2.780   1.623   6.005
    3MOL    C60  590   2.899   1.575   6.070
    3MOL    C61  591   2.541   1.652   5.999
    3MOL    H48  592   2.554   1.740   5.934
    3MOL    O34  593   2.521   1.532   5.922
    3MOL    C62  594   2.563   1.542   5.785
    3MOL    C63  595   2.415   1.675   6.084
    3MOL    H49  596   2.392   1.583   6.140
    3MOL    O35  597   2.306   1.708   5.996
    3MOL    C64  598   2.227   1.596   5.955
    3MOL    H50  599   2.290   1.506   5.948
    3MOL    O36  600   2.122   1.574   6.053
    3MOL    C65  601   2.022   1.679   6.067
    3MOL    H51  602   2.068   1.774   6.095
    3MOL    C66  603   1.927   1.635   6.181
    3MOL    H52  604   1.900   1.529   6.168
    3MOL    H53  605   1.836   1.694   6.182
    3MOL    O37  606   1.995   1.654   6.307
    3MOL    C67  607   1.922   1.605   6.420
    3MOL    C68  608   2.163   1.620   5.816
    3MOL    H54  609   2.113   1.529   5.783
    3MOL    O38  610   2.267   1.658   5.724
    3MOL    C69  611   2.272   1.578   5.605
    3MOL    C70  612   2.059   1.733   5.824
    3MOL    H55  613   2.112   1.824   5.851
    3MOL    O39  614   1.995   1.744   5.695
    3MOL    C71  615   1.988   1.877   5.645
    3MOL    C72  616   1.952   1.700   5.930
    3MOL    H56  617   1.897   1.610   5.901
    3MOL    O40  618   1.865   1.817   5.934
    3MOL    H57  619   1.383   1.969   6.429
    3MOL    H58  620   1.541   1.908   6.486
    3MOL    H59  621   1.518   2.082   6.454
    3MOL    H60  622   1.978   1.624   6.513
    3MOL    H61  623   1.824   1.653   6.427
    3MOL    H62  624   1.906   1.496   6.411
    3MOL    H63  625   2.214   1.970   6.535
    3MOL    H64  626   2.100   1.878   6.434
    3MOL    H65  627   2.230   1.795   6.524
    3MOL    H66  628   2.757   1.879   6.619
    3MOL    H67  629   2.659   2.028   6.616
    3MOL    H68  630   2.604   1.883   6.528
    3MOL    H69  631   3.044   2.493   6.491
    3MOL    H70  632   2.878   2.545   6.528
    3MOL    H71  633   2.912   2.374   6.487
    3MOL    H72  634   2.794   3.123   6.158
    3MOL    H73  635   2.679   3.094   6.291
    3MOL    H74  636   2.799   2.969   6.248
    3MOL    H75  637   2.384   2.783   6.454
    3MOL    H76  638   2.316   2.620   6.482
    3MOL    H77  639   2.430   2.649   6.346
    3MOL    H78  640   1.746   2.600   6.616
    3MOL    H79  641   1.831   2.443   6.618
    3MOL    H80  642   1.904   2.584   6.536
    3MOL    H81  643   1.516   2.763   5.850
    3MOL    H82  644   1.673   2.679   5.846
    3MOL    H83  645   1.525   2.595   5.792
    3MOL    H84  646   1.261   2.273   5.847
    3MOL    H85  647   1.321   2.188   5.990
    3MOL    H86  648   1.236   2.344   6.009
    3MOL    H87  649   1.509   2.218   5.633
    3MOL    H88  650   1.646   2.267   5.736
    3MOL    H89  651   1.660   2.127   5.625
    3MOL    H90  652   1.681   1.737   5.541
    3MOL    H91  653   1.723   1.653   5.693
    3MOL    H92  654   1.554   1.705   5.661
    3MOL    H93  655   1.959   1.876   5.540
    3MOL    H94  656   1.916   1.937   5.702
    3MOL    H95  657   2.086   1.926   5.656
    3MOL    H96  658   2.360   1.606   5.545
    3MOL    H97  659   2.280   1.472   5.629
    3MOL    H98  660   2.183   1.594   5.544
    3MOL    H99  661   2.527   1.454   5.730
    3MOL   H100  662   2.521   1.632   5.738
    3MOL   H101  663   2.672   1.546   5.779
    3MOL   H102  664   2.977   1.559   5.994
    3MOL   H103  665   2.936   1.650   6.141
    3MOL   H104  666   2.880   1.481   6.123
    3MOL   H105  667   3.008   1.763   5.820
    3MOL   H106  668   2.842   1.828   5.824
    3MOL   H107  669   2.978   1.936   5.784
    3MOL   H108  670   3.233   2.245   5.872
    3MOL   H109  671   3.151   2.331   6.003
    3MOL   H110  672   3.245   2.185   6.040
    3MOL   H111  673   3.015   2.308   5.667
    3MOL   H112  674   2.886   2.246   5.773
    3MOL   H113  675   2.852   2.379   5.661
    3MOL   H114  676   2.883   2.813   5.607
    3MOL   H115  677   2.799   2.881   5.749
    3MOL   H116  678   2.971   2.831   5.758
    3MOL   H117  679   2.499   2.572   5.573
    3MOL   H118  680   2.553   2.532   5.737
    3MOL   H119  681   2.378   2.544   5.696
    3MOL   H120  682   2.142   2.838   5.535
    3MOL   H121  683   2.190   2.990   5.614
    3MOL   H122  684   2.315   2.880   5.556
    3MOL   H123  685   1.907   3.091   5.801
    3MOL   H124  686   1.957   2.924   5.765
    3MOL   H125  687   1.798   2.957   5.839
    3MOL   H126  688   1.524   2.949   6.078
    3MOL   H127  689   1.569   2.836   6.207
    3MOL   H128  690   1.640   3.001   6.202
    4SOL     OW  691   0.244   0.600   0.110
    4SOL    HW1  692   0.169   0.603   0.170
    4SOL    HW2  693   0.209   0.630   0.026
    5SOL     OW  694   0.197   0.292   0.989
    5SOL    HW1  695   0.235   0.270   1.075
    5SOL    HW2  696   0.131   0.225   0.974
    6SOL     OW  697   0.006   0.377   0.642
    6SOL    HW1  698   4.428   0.415   0.683
    6SOL    HW2  699   4.473   0.305   0.588
    7SOL     OW  700   0.567   1.282   1.172
    7SOL    HW1  701   0.479   1.287   1.134
    7SOL    HW2  702   0.583   1.370   1.208
    8SOL     OW  703   1.557   1.511   0.705
    8SOL    HW1  704   1.513   1.494   0.789
    8SOL    HW2  705   1.486   1.516   0.641
    9SOL     OW  706   1.132   0.700   0.702
    9SOL    HW1  707   1.180   0.782   0.690
    9SOL    HW2  708   1.082   0.713   0.783
   10SOL     OW  709   1.773   0.604   0.221
   10SOL    HW1  710   1.726   0.601   0.137
   10SOL    HW2  711   1.734   0.533   0.272
   11SOL     OW  712   0.759   1.144   1.038
   11SOL    HW1  713   0.688   1.178   1.094
   11SOL    HW2  714   0.793   1.222   0.993
   12SOL     OW  715   0.862   0.779   1.820
   12SOL    HW1  716   0.849   0.851   1.883
   12SOL    HW2  717   0.886   0.823   1.739
   13SOL     OW  718   0.686   1.007   0.649
   13SOL    HW1  719   0.751   0.992   0.718
   13SOL    HW2  720   0.616   1.056   0.692
   14SOL     OW  721   0.708   1.151   1.810
   14SOL    HW1  722   0.755   1.231   1.834
   14SOL    HW2  723   0.624   1.183   1.775
   15SOL     OW  724   0.337   1.423   1.070
   15SOL    HW1  725   0.255   1.405   1.023
   15SOL    HW2  726   0.387   1.478   1.009
   16SOL     OW  727   1.462   1.498   1.350
   16SOL    HW1  728   1.507   1.582   1.360
   16SOL    HW2  729   1.407   1.491   1.429
   17SOL     OW  730   0.436   0.396   1.494
   17SOL    HW1  731   0.524   0.359   1.495
   17SOL    HW2  732   0.378   0.321   1.508
   18SOL     OW  733   1.613   0.449   0.738
   18SOL    HW1  734   1.532   0.471   0.693
   18SOL    HW2  735   1.633   0.526   0.790
   19SOL     OW  736   0.245   1.692   0.483
   19SOL    HW1  737   0.234   1.778   0.523
   19SOL    HW2  738   0.301   1.707   0.407
   20SOL     OW  739   1.136   1.341   1.691
   20SOL    HW1  740   1.175   1.337   1.778
   20SOL    HW2  741   1.083   1.261   1.686
   21SOL     OW  742   0.242   1.428   0.529
   21SOL    HW1  743   0.237   1.523   0.531
   21SOL    HW2  744   0.175   1.399   0.592
   22SOL     OW  745   0.243   1.081   0.881
   22SOL    HW1  746   0.263   0.994   0.916
   22SOL    HW2  747   0.187   1.121   0.948
   23SOL     OW  748   0.616   1.790   1.433
   23SOL    HW1  749   0.532   1.773   1.475
   23SOL    HW2  750   0.637   1.881   1.456
   24SOL     OW  751   0.577   0.991   0.143
   24SOL    HW1  752   0.621   1.037   0.072
   24SOL    HW2  753   0.628   1.014   0.221
   25SOL     OW  754   1.585   0.114   1.474
   25SOL    HW1  755   1.597   0.183   1.408
   25SOL    HW2  756   1.575   0.162   1.557
   26SOL     OW  757   0.137   0.643   0.576
   26SOL    HW1  758   0.083   0.565   0.588
   26SOL    HW2  759   0.108   0.703   0.644
   27SOL     OW  760   1.840   1.763   0.335
   27SOL    HW1  761   1.899   1.731   0.404
   27SOL    HW2  762   1.871   1.852   0.318
   28SOL     OW  763   0.069   1.593   0.150
   28SOL    HW1  764   0.034   1.504   0.152
   28SOL    HW2  765   0.014   1.642   0.211
   29SOL     OW  766   1.690   0.919   0.638
   29SOL    HW1  767   1.776   0.880   0.618
   29SOL    HW2  768   1.669   0.970   0.560
   30SOL     OW  769   1.645   1.106   0.432
   30SOL    HW1  770   1.727   1.120   0.384
   30SOL    HW2  771   1.650   1.168   0.505
   31SOL     OW  772   0.107   0.760   1.588
   31SOL    HW1  773   0.201   0.760   1.572
   31SOL    HW2  774   0.084   0.853   1.594
   32SOL     OW  775   0.613   1.382   0.735
   32SOL    HW1  776   0.566   1.299   0.744
   32SOL    HW2  777   0.596   1.410   0.645
   33SOL     OW  778   1.290   1.238   1.424
   33SOL    HW1  779   1.323   1.171   1.365
   33SOL    HW2  780   1.346   1.231   1.502
   34SOL     OW  781   0.818   0.009   0.548
   34SOL    HW1  782   0.855   0.088   0.510
   34SOL    HW2  783   0.723   0.020   0.539
   35SOL     OW  784   0.183   0.944   1.280
   35SOL    HW1  785   0.274   0.927   1.256
   35SOL    HW2  786   0.133   0.921   1.201
   36SOL     OW  787   1.521   0.997   0.200
   36SOL    HW1  788   1.456   0.935   0.233
   36SOL    HW2  789   1.568   1.028   0.278
   37SOL     OW  790   1.185   1.804   1.620
   37SOL    HW1  791   1.201   1.861   1.545
   37SOL    HW2  792   1.200   1.715   1.586
   38SOL     OW  793   0.318   0.260   1.772
   38SOL    HW1  794   0.386   0.312   1.814
   38SOL    HW2  795   0.242   0.269   1.830
   39SOL     OW  796   1.466   1.419   0.953
   39SOL    HW1  797   1.397   1.434   1.018
   39SOL    HW2  798   1.454   1.328   0.926
   40SOL     OW  799   1.662   1.733   0.578
   40SOL    HW1  800   1.638   1.705   0.489
   40SOL    HW2  801   1.635   1.660   0.634
   41SOL     OW  802   0.595   0.721   0.263
   41SOL    HW1  803   0.602   0.801   0.211
   41SOL    HW2  804   0.532   0.742   0.331
   42SOL     OW  805   1.288   0.357   0.935
   42SOL    HW1  806   1.199   0.325   0.923
   42SOL    HW2  807   1.328   0.296   0.996
   43SOL     OW  808   1.582   1.668   0.311
   43SOL    HW1  809   1.671   1.703   0.304
   43SOL    HW2  810   1.557   1.650   0.221
   44SOL     OW  811   0.797   0.616   1.454
   44SOL    HW1  812   0.769   0.594   1.543
   44SOL    HW2  813   0.752   0.554   1.398
   45SOL     OW  814   1.389   0.478   1.676
   45SOL    HW1  815   1.391   0.522   1.761
   45SOL    HW2  816   1.456   0.410   1.683
   46SOL     OW  817   0.958   0.889   1.581
   46SOL    HW1  818   1.012   0.817   1.547
   46SOL    HW2  819   0.911   0.922   1.504
   47SOL     OW  820   0.996   0.417   1.238
   47SOL    HW1  821   0.912   0.431   1.281
   47SOL    HW2  822   0.975   0.367   1.159
   48SOL     OW  823   1.048   0.701   0.428
   48SOL    HW1  824   1.064   0.692   0.522
   48SOL    HW2  825   0.967   0.652   0.413
   49SOL     OW  826   0.098   0.822   0.783
   49SOL    HW1  827   0.185   0.804   0.821
   49SOL    HW2  828   0.053   0.871   0.851
   50SOL     OW  829   0.124   1.853   1.576
   50SOL    HW1  830   0.119   1.829   1.668
   50SOL    HW2  831   0.045   1.817   1.536
   51SOL     OW  832   0.877   0.358   0.201
   51SOL    HW1  833   0.932   0.411   0.144
   51SOL    HW2  834   0.905   0.268   0.185
   52SOL     OW  835   1.706   0.576   1.828
   52SOL    HW1  836   1.671   0.653   1.783
   52SOL    HW2  837   1.739   0.520   1.758
   53SOL     OW  838   1.375   1.142   0.542
   53SOL    HW1  839   1.453   1.128   0.488
   53SOL    HW2  840   1.323   1.205   0.492
   54SOL     OW  841   0.543   0.202   0.900
   54SOL    HW1  842   0.562   0.221   0.992
   54SOL    HW2  843   0.536   0.288   0.859
   55SOL     OW  844   1.008   1.446   0.474
   55SOL    HW1  845   0.967   1.517   0.425
   55SOL    HW2  846   0.993   1.468   0.566
   56SOL     OW  847   0.354   1.808   0.857
   56SOL    HW1  848   0.398   1.723   0.866
   56SOL    HW2  849   0.424   1.872   0.869
   57SOL     OW  850   1.798   1.059   0.867
   57SOL    HW1  851   1.741   1.044   0.792
   57SOL    HW2  852   1.739   1.065   0.942
   58SOL     OW  853   1.228   1.540   1.513
   58SOL    HW1  854   1.214   1.466   1.572
   58SOL    HW2  855   1.167   1.523   1.440
   59SOL     OW  856   0.315   0.956   0.276
   59SOL    HW1  857   0.398   0.983   0.237
   59SOL    HW2  858   0.304   0.865   0.247
   60SOL     OW  859   1.477   0.738   0.725
   60SOL    HW1  860   1.463   0.693   0.808
   60SOL    HW2  861   1.552   0.795   0.741
   61SOL     OW  862   0.465   1.261   1.735
   61SOL    HW1  863   0.437   1.268   1.644
   61SOL    HW2  864   0.384   1.267   1.786
   62SOL     OW  865   1.107   1.779   0.226
   62SOL    HW1  866   1.049   1.726   0.282
   62SOL    HW2  867   1.147   1.715   0.166
   63SOL     OW  868   0.167   0.263   1.508
   63SOL    HW1  869   0.135   0.349   1.482
   63SOL    HW2  870   0.199   0.275   1.598
   64SOL     OW  871   1.628   1.375   0.089
   64SOL    HW1  872   1.586   1.460   0.076
   64SOL    HW2  873   1.563   1.311   0.061
   65SOL     OW  874   0.470   1.742   0.317
   65SOL    HW1  875   0.506   1.797   0.386
   65SOL    HW2  876   0.545   1.717   0.264
   66SOL     OW  877   1.416   0.129   0.425
   66SOL    HW1  878   1.393   0.095   0.338
   66SOL    HW2  879   1.512   0.132   0.424
   67SOL     OW  880   0.256   1.791   1.236
   67SOL    HW1  881   0.306   1.718   1.274
   67SOL    HW2  882   0.229   1.759   1.150
   68SOL     OW  883   0.938   1.698   0.900
   68SOL    HW1  884   1.015   1.645   0.921
   68SOL    HW2  885   0.892   1.649   0.832
   69SOL     OW  886   0.392   0.694   0.472
   69SOL    HW1  887   0.418   0.603   0.484
   69SOL    HW2  888   0.300   0.696   0.502
   70SOL     OW  889   1.526   0.232   1.722
   70SOL    HW1  890   1.525   0.256   1.815
   70SOL    HW2  891   1.451   0.174   1.711
   71SOL     OW  892   0.602   0.106   0.117
   71SOL    HW1  893   0.695   0.083   0.119
   71SOL    HW2  894   0.571   0.076   0.031
   72SOL     OW  895   0.769   0.269   1.752
   72SOL    HW1  896   0.835   0.201   1.769
   72SOL    HW2  897   0.724   0.279   1.837
   73SOL     OW  898   0.877   1.521   1.193
   73SOL    HW1  899   0.862   1.485   1.106
   73SOL    HW2  900   0.946   1.466   1.230
   74SOL     OW  901   1.342   0.589   1.430
   74SOL    HW1  902   1.370   0.559   1.516
   74SOL    HW2  903   1.376   0.678   1.423
   75SOL     OW  904   0.813   1.398   0.936
   75SOL    HW1  905   0.897   1.388   0.891
   75SOL    HW2  906   0.748   1.396   0.866
   76SOL     OW  907   0.922   0.514   0.902
   76SOL    HW1  908   0.906   0.514   0.808
   76SOL    HW2  909   0.964   0.429   0.919
   77SOL     OW  910   0.558   0.067   0.512
   77SOL    HW1  911   0.470   0.055   0.547
   77SOL    HW2  912   0.550   0.139   0.449
   78SOL     OW  913   1.427   1.196   0.032
   78SOL    HW1  914   1.460   1.123   0.085
   78SOL    HW2  915   1.343   1.219   0.072
   79SOL     OW  916   0.295   0.057   0.190
   79SOL    HW1  917   0.370   0.098   0.147
   79SOL    HW2  918   0.333   0.002   0.258
   80SOL     OW  919   0.949   0.227   0.446
   80SOL    HW1  920   0.902   0.291   0.393
   80SOL    HW2  921   1.038   0.261   0.453
   81SOL     OW  922   1.080   0.679   1.461
   81SOL    HW1  923   1.008   0.616   1.463
   81SOL    HW2  924   1.159   0.626   1.450
   82SOL     OW  925   1.225   1.569   0.794
   82SOL    HW1  926   1.243   1.637   0.728
   82SOL    HW2  927   1.292   1.581   0.860
   83SOL     OW  928   0.466   1.147   0.740
   83SOL    HW1  929   0.393   1.129   0.800
   83SOL    HW2  930   0.430   1.133   0.653
   84SOL     OW  931   1.270   1.795   0.604
   84SOL    HW1  932   1.315   1.857   0.546
   84SOL    HW2  933   1.207   1.848   0.652
   85SOL     OW  934   1.022   0.535   0.032
   85SOL    HW1  935   0.985   0.620   0.006
   85SOL    HW2  936   1.094   0.557   0.090
   86SOL     OW  937   0.090   0.525   1.411
   86SOL    HW1  938   0.153   0.535   1.339
   86SOL    HW2  939   0.062   0.614   1.431
   87SOL     OW  940   0.564   0.242   1.164
   87SOL    HW1  941   0.594   0.157   1.197
   87SOL    HW2  942   0.470   0.243   1.185
   88SOL     OW  943   0.863   0.506   0.627
   88SOL    HW1  944   0.815   0.542   0.553
   88SOL    HW2  945   0.849   0.411   0.621
   89SOL     OW  946   0.968   0.036   0.775
   89SOL    HW1  947   0.920   0.028   0.693
   89SOL    HW2  948   0.984   4.445   0.802
   90SOL     OW  949   1.436   1.163   0.858
   90SOL    HW1  950   1.368   1.096   0.856
   90SOL    HW2  951   1.459   1.177   0.766
   91SOL     OW  952   1.468   0.602   0.979
   91SOL    HW1  953   1.417   0.521   0.983
   91SOL    HW2  954   1.527   0.597   1.054
   92SOL     OW  955   1.850   0.817   0.379
   92SOL    HW1  956   1.903   0.765   0.439
   92SOL    HW2  957   1.820   0.754   0.313
   93SOL     OW  958   0.494   1.422   0.175
   93SOL    HW1  959   0.415   1.395   0.223
   93SOL    HW2  960   0.487   1.377   0.091
   94SOL     OW  961   1.668   1.265   0.650
   94SOL    HW1  962   1.763   1.272   0.661
   94SOL    HW2  963   1.636   1.353   0.670
   95SOL     OW  964   1.390   0.576   0.076
   95SOL    HW1  965   1.330   0.556   0.148
   95SOL    HW2  966   1.465   0.518   0.091
   96SOL     OW  967   0.525   0.262   0.325
   96SOL    HW1  968   0.558   0.205   0.256
   96SOL    HW2  969   0.513   0.347   0.283
   97SOL     OW  970   1.754   1.236   1.577
   97SOL    HW1  971   1.842   1.197   1.573
   97SOL    HW2  972   1.768   1.326   1.605
   98SOL     OW  973   1.061   1.353   1.335
   98SOL    HW1  974   0.986   1.322   1.386
   98SOL    HW2  975   1.136   1.312   1.376
   99SOL     OW  976   1.606   1.624   1.651
   99SOL    HW1  977   1.603   1.660   1.562
   99SOL    HW2  978   1.690   1.579   1.655
  100SOL     OW  979   1.125   1.201   1.107
  100SOL    HW1  980   1.067   1.240   1.173
  100SOL    HW2  981   1.091   1.232   1.023
  101SOL     OW  982   1.631   1.100   1.078
  101SOL    HW1  983   1.627   1.162   1.151
  101SOL    HW2  984   1.551   1.115   1.029
  102SOL     OW  985   0.904   0.131   1.390
  102SOL    HW1  986   0.926   0.086   1.308
  102SOL    HW2  987   0.988   0.143   1.434
  103SOL     OW  988   0.984   1.114   1.722
  103SOL    HW1  989   0.891   1.129   1.742
  103SOL    HW2  990   0.984   1.037   1.666
  104SOL     OW  991   0.709   1.059   0.373
  104SOL    HW1  992   0.696   1.046   0.467
  104SOL    HW2  993   0.786   1.005   0.353
  105SOL     OW  994   0.429   0.823   1.239
  105SOL    HW1  995   0.497   0.834   1.305
  105SOL    HW2  996   0.369   0.758   1.276
  106SOL     OW  997   1.270   0.377   1.272
  106SOL    HW1  998   1.301   0.455   1.317
  106SOL    HW2  999   1.181   0.400   1.243
  107SOL     OW 1000   0.061   1.576   1.340
  107SOL    HW1 1001   0.033   1.663   1.314
  107SOL    HW2 1002   0.156   1.581   1.346
  108SOL     OW 1003   0.352   1.112   0.499
  108SOL    HW1 1004   0.356   1.186   0.438
  108SOL    HW2 1005   0.347   1.035   0.442
  109SOL     OW 1006   0.564   0.530   0.855
  109SOL    HW1 1007   0.577   0.590   0.782
  109SOL    HW2 1008   0.622   0.563   0.924
  110SOL     OW 1009   1.247   1.346   0.393
  110SOL    HW1 1010   1.303   1.419   0.421
  110SOL    HW2 1011   1.160   1.369   0.425
  111SOL     OW 1012   1.277   1.455   1.146
  111SOL    HW1 1013   1.332   1.458   1.224
  111SOL    HW2 1014   1.222   1.378   1.158
  112SOL     OW 1015   1.586   0.628   0.474
  112SOL    HW1 1016   1.538   0.675   0.542
  112SOL    HW2 1017   1.623   0.697   0.419
  113SOL     OW 1018   0.348   1.528   1.318
  113SOL    HW1 1019   0.333   1.482   1.235
  113SOL    HW2 1020   0.443   1.539   1.323
  114SOL     OW 1021   0.476   0.760   1.663
  114SOL    HW1 1022   0.502   0.800   1.580
  114SOL    HW2 1023   0.510   0.670   1.658
  115SOL     OW 1024   1.597   0.777   1.678
  115SOL    HW1 1025   1.511   0.818   1.671
  115SOL    HW2 1026   1.650   0.819   1.611
  116SOL     OW 1027   1.007   0.087   1.727
  116SOL    HW1 1028   1.029   0.171   1.687
  116SOL    HW2 1029   1.033   0.022   1.661
  117SOL     OW 1030   0.496   0.046   1.749
  117SOL    HW1 1031   0.478   4.497   1.669
  117SOL    HW2 1032   0.429   0.114   1.752
  118SOL     OW 1033   0.588   0.873   1.023
  118SOL    HW1 1034   0.617   0.965   1.025
  118SOL    HW2 1035   0.531   0.865   1.100
  119SOL     OW 1036   1.361   0.859   1.034
  119SOL    HW1 1037   1.279   0.853   0.983
  119SOL    HW2 1038   1.398   0.770   1.029
  120SOL     OW 1039   1.204   0.531   0.268
  120SOL    HW1 1040   1.212   0.452   0.322
  120SOL    HW2 1041   1.162   0.596   0.326
  121SOL     OW 1042   0.284   0.219   1.234
  121SOL    HW1 1043   0.250   0.237   1.322
  121SOL    HW2 1044   0.321   0.131   1.240
  122SOL     OW 1045   0.047   1.313   1.284
  122SOL    HW1 1046   0.078   1.266   1.361
  122SOL    HW2 1047   0.049   1.405   1.309
  123SOL     OW 1048   0.725   0.632   1.060
  123SOL    HW1 1049   0.798   0.611   1.001
  123SOL    HW2 1050   0.700   0.721   1.036
  124SOL     OW 1051   1.733   0.958   1.851
  124SOL    HW1 1052   1.684   0.904   1.789
  124SOL    HW2 1053   1.674   0.970   1.925
  125SOL     OW 1054   0.315   0.075   0.630
  125SOL    HW1 1055   0.300   0.163   0.664
  125SOL    HW2 1056   0.305   0.018   0.705
  126SOL     OW 1057   1.613   0.374   0.367
  126SOL    HW1 1058   1.643   0.311   0.432
  126SOL    HW2 1059   1.589   0.451   0.418
  127SOL     OW 1060   1.027   0.761   0.962
  127SOL    HW1 1061   1.027   0.777   1.056
  127SOL    HW2 1062   0.999   0.670   0.954
  128SOL     OW 1063   0.983   1.566   1.714
  128SOL    HW1 1064   0.967   1.611   1.631
  128SOL    HW2 1065   1.025   1.484   1.690
  129SOL     OW 1066   1.857   1.507   1.605
  129SOL    HW1 1067   1.870   1.536   1.515
  129SOL    HW2 1068   1.938   1.532   1.650
  130SOL     OW 1069   0.347   0.930   1.818
  130SOL    HW1 1070   0.421   0.958   1.872
  130SOL    HW2 1071   0.384   0.864   1.759
  131SOL     OW 1072   1.537   0.291   0.114
  131SOL    HW1 1073   1.477   0.217   0.127
  131SOL    HW2 1074   1.566   0.314   0.202
  132SOL     OW 1075   1.290   0.825   0.033
  132SOL    HW1 1076   1.333   0.740   0.043
  132SOL    HW2 1077   1.322   0.858  11.049
  133SOL     OW 1078   1.065   1.334   0.852
  133SOL    HW1 1079   1.068   1.262   0.790
  133SOL    HW2 1080   1.128   1.398   0.818
  134SOL     OW 1081   0.317   0.813   0.950
  134SOL    HW1 1082   0.411   0.831   0.945
  134SOL    HW2 1083   0.311   0.723   0.981
  135SOL     OW 1084   0.337   0.527   0.994
  135SOL    HW1 1085   0.292   0.445   0.974
  135SOL    HW2 1086   0.414   0.527   0.937
  136SOL     OW 1087   1.135   0.375   1.692
  136SOL    HW1 1088   1.088   0.440   1.745
  136SOL    HW2 1089   1.222   0.414   1.679
  137SOL     OW 1090   1.160   0.211   1.474
  137SOL    HW1 1091   1.152   0.275   1.544
  137SOL    HW2 1092   1.195   0.261   1.400
  138SOL     OW 1093   4.495   1.324   0.197
  138SOL    HW1 1094   4.401   1.341   0.188
  138SOL    HW2 1095   0.001   1.233   0.225
  139SOL     OW 1096   0.094   1.781   0.939
  139SOL    HW1 1097   0.057   1.722   0.875
  139SOL    HW2 1098   0.182   1.801   0.906
  140SOL     OW 1099   0.499   1.573   0.907
  140SOL    HW1 1100   0.567   1.636   0.930
  140SOL    HW2 1101   0.544   1.508   0.852
  141SOL     OW 1102   0.988   0.795   1.229
  141SOL    HW1 1103   1.041   0.769   1.305
  141SOL    HW2 1104   0.902   0.758   1.246
  142SOL     OW 1105   0.039   0.564   1.109
  142SOL    HW1 1106   0.115   0.522   1.071
  142SOL    HW2 1107   0.026   0.520   1.193
  143SOL     OW 1108   0.180   0.518   1.710
  143SOL    HW1 1109   0.266   0.502   1.671
  143SOL    HW2 1110   0.150   0.599   1.669
  144SOL     OW 1111   1.376   0.941   1.659
  144SOL    HW1 1112   1.396   1.035   1.660
  144SOL    HW2 1113   1.374   0.917   1.567
  145SOL     OW 1114   0.812   0.575   0.356
  145SOL    HW1 1115   0.819   0.499   0.299
  145SOL    HW2 1116   0.737   0.624   0.322
  146SOL     OW 1117   1.642   0.601   1.189
  146SOL    HW1 1118   1.631   0.541   1.263
  146SOL    HW2 1119   1.729   0.581   1.155
  147SOL     OW 1120   0.271   1.562   1.742
  147SOL    HW1 1121   0.217   1.614   1.801
  147SOL    HW2 1122   0.250   1.471   1.764
  148SOL     OW 1123   0.682   0.464   1.268
  148SOL    HW1 1124   0.646   0.383   1.231
  148SOL    HW2 1125   0.691   0.522   1.193
  149SOL     OW 1126   0.930   1.678   1.466
  149SOL    HW1 1127   0.903   1.648   1.379
  149SOL    HW2 1128   0.930   1.774   1.459
  150SOL     OW 1129   0.476   0.486   0.185
  150SOL    HW1 1130   0.532   0.560   0.205
  150SOL    HW2 1131   0.390   0.524   0.168
  151SOL     OW 1132   0.161   1.141   1.463
  151SOL    HW1 1133   0.148   1.093   1.545
  151SOL    HW2 1134   0.170   1.073   1.397
  152SOL     OW 1135   1.329   1.049   1.225
  152SOL    HW1 1136   1.353   0.986   1.157
  152SOL    HW2 1137   1.256   1.098   1.187
  153SOL     OW 1138   1.308   0.852   0.310
  153SOL    HW1 1139   1.230   0.823   0.357
  153SOL    HW2 1140   1.285   0.840   0.217
  154SOL     OW 1141   1.763   1.746   1.146
  154SOL    HW1 1142   1.826   1.774   1.079
  154SOL    HW2 1143   1.745   1.654   1.125
  155SOL     OW 1144   1.241   1.732   1.116
  155SOL    HW1 1145   1.323   1.751   1.070
  155SOL    HW2 1146   1.245   1.638   1.134
  156SOL     OW 1147   0.068   1.188   1.048
  156SOL    HW1 1148   0.072   1.223   1.137
  156SOL    HW2 1149   0.013   1.250   1.001
  157SOL     OW 1150   0.679   1.664   1.725
  157SOL    HW1 1151   0.626   1.743   1.722
  157SOL    HW2 1152   0.741   1.673   1.652
  158SOL     OW 1153   0.880   0.063   0.124
  158SOL    HW1 1154   0.964   0.092   0.088
  158SOL    HW2 1155   0.903   0.018   0.206
  159SOL     OW 1156   1.720   0.134   0.501
  159SOL    HW1 1157   1.794   0.135   0.440
  159SOL    HW2 1158   1.733   0.054   0.553
  160SOL     OW 1159   1.389   1.568   0.483
  160SOL    HW1 1160   1.451   1.598   0.416
  160SOL    HW2 1161   1.343   1.647   0.511
  161SOL     OW 1162   0.120   1.808   1.848
  161SOL    HW1 1163   0.081   1.734   1.894
  161SOL    HW2 1164   0.184   1.844   1.909
  162SOL     OW 1165   1.278   0.926   0.672
  162SOL    HW1 1166   1.351   0.863   0.675
  162SOL    HW2 1167   1.311   0.999   0.620
  163SOL     OW 1168   0.818   1.272   1.431
  163SOL    HW1 1169   0.792   1.311   1.515
  163SOL    HW2 1170   0.747   1.294   1.371
  164SOL     OW 1171   0.676   1.617   0.165
  164SOL    HW1 1172   0.682   1.628   0.070
  164SOL    HW2 1173   0.618   1.542   0.178
  165SOL     OW 1174   1.631   1.726   1.391
  165SOL    HW1 1175   1.680   1.735   1.309
  165SOL    HW2 1176   1.618   1.816   1.421
  166SOL     OW 1177   1.839   0.156   0.967
  166SOL    HW1 1178   1.867   0.079   0.917
  166SOL    HW2 1179   1.752   0.176   0.932
  167SOL     OW 1180   0.267   0.325   0.724
  167SOL    HW1 1181   0.185   0.362   0.691
  167SOL    HW2 1182   0.252   0.317   0.819
  168SOL     OW 1183   1.222   1.604   0.050
  168SOL    HW1 1184   1.209   1.511   0.071
  168SOL    HW2 1185   1.155   1.623  11.084
  169SOL     OW 1186   0.825   1.006   1.371
  169SOL    HW1 1187   0.867   1.004   1.286
  169SOL    HW2 1188   0.825   1.099   1.396
  170SOL     OW 1189   0.914   0.907   0.283
  170SOL    HW1 1190   0.982   0.946   0.227
  170SOL    HW2 1191   0.960   0.841   0.334
  171SOL     OW 1192   1.500   1.622   0.046
  171SOL    HW1 1193   1.404   1.619   0.041
  171SOL    HW2 1194   1.528   1.636  11.055
  172SOL     OW 1195   0.373   1.305   1.491
  172SOL    HW1 1196   0.356   1.383   1.439
  172SOL    HW2 1197   0.296   1.249   1.475
  173SOL     OW 1198   1.612   1.283   1.281
  173SOL    HW1 1199   1.672   1.277   1.355
  173SOL    HW2 1200   1.551   1.353   1.305
  174SOL     OW 1201   1.048   1.105   0.704
  174SOL    HW1 1202   0.978   1.054   0.745
  174SOL    HW2 1203   1.110   1.040   0.671
  175SOL     OW 1204   1.012   0.239   0.990
  175SOL    HW1 1205   1.014   0.204   0.902
  175SOL    HW2 1206   1.003   0.163   1.047
  176SOL     OW 1207   0.602   1.490   0.484
  176SOL    HW1 1208   0.639   1.440   0.411
  176SOL    HW2 1209   0.532   1.542   0.443
  177SOL     OW 1210   1.719   0.393   1.378
  177SOL    HW1 1211   1.791   0.456   1.377
  177SOL    HW2 1212   1.749   0.321   1.322
  178SOL     OW 1213   0.261   1.332   0.284
  178SOL    HW1 1214   0.173   1.346   0.249
  178SOL    HW2 1215   0.258   1.372   0.371
  179SOL     OW 1216   0.117   1.007   1.696
  179SOL    HW1 1217   0.052   1.046   1.755
  179SOL    HW2 1218   0.195   0.996   1.751
  180SOL     OW 1219   0.659   0.207   1.495
  180SOL    HW1 1220   0.739   0.181   1.450
  180SOL    HW2 1221   0.687   0.222   1.586
  181SOL     OW 1222   0.053   0.339   0.012
  181SOL    HW1 1223   4.462   0.334   0.038
  181SOL    HW2 1224   0.074   0.432   0.014
  182SOL     OW 1225   1.432   0.858   1.401
  182SOL    HW1 1226   1.383   0.918   1.344
  182SOL    HW2 1227   1.522   0.862   1.368
  183SOL     OW 1228   0.080   0.186   0.299
  183SOL    HW1 1229   0.085   0.262   0.241
  183SOL    HW2 1230   0.156   0.133   0.275
  184SOL     OW 1231   1.181   1.342   0.121
  184SOL    HW1 1232   1.088   1.320   0.117
  184SOL    HW2 1233   1.204   1.336   0.214
  185SOL     OW 1234   0.621   0.831   1.428
  185SOL    HW1 1235   0.675   0.909   1.416
  185SOL    HW2 1236   0.684   0.759   1.438
  186SOL     OW 1237   1.486   1.773   0.974
  186SOL    HW1 1238   1.513   1.833   0.904
  186SOL    HW2 1239   1.566   1.761   1.026
  187SOL     OW 1240   0.715   0.562   1.705
  187SOL    HW1 1241   0.747   0.629   1.765
  187SOL    HW2 1242   0.755   0.481   1.737
  188SOL     OW 1243   1.469   1.203   1.633
  188SOL    HW1 1244   1.457   1.216   1.727
  188SOL    HW2 1245   1.562   1.216   1.619
  189SOL     OW 1246   0.382   1.743   1.563
  189SOL    HW1 1247   0.297   1.782   1.548
  189SOL    HW2 1248   0.363   1.661   1.610
  190SOL     OW 1249   1.672   0.882   1.255
  190SOL    HW1 1250   1.662   0.797   1.212
  190SOL    HW2 1251   1.663   0.946   1.185
  191SOL     OW 1252   1.219   0.326   0.447
  191SOL    HW1 1253   1.284   0.256   0.439
  191SOL    HW2 1254   1.243   0.372   0.528
  192SOL     OW 1255   0.587   0.740   0.668
  192SOL    HW1 1256   0.629   0.824   0.652
  192SOL    HW2 1257   0.519   0.734   0.602
  193SOL     OW 1258   1.766   0.361   1.643
  193SOL    HW1 1259   1.749   0.375   1.550
  193SOL    HW2 1260   1.687   0.317   1.675
  194SOL     OW 1261   1.743   0.933   1.513
  194SOL    HW1 1262   1.746   1.028   1.526
  194SOL    HW2 1263   1.729   0.923   1.419
  195SOL     OW 1264   0.896   1.358   0.060
  195SOL    HW1 1265   0.826   1.362   0.126
  195SOL    HW2 1266   0.890   1.442   0.014
  196SOL     OW 1267   0.659   1.794   0.949
  196SOL    HW1 1268   0.637   1.884   0.923
  196SOL    HW2 1269   0.754   1.789   0.939
  197SOL     OW 1270   0.866   0.965   0.856
  197SOL    HW1 1271   0.916   0.894   0.896
  197SOL    HW2 1272   0.833   1.016   0.929
  198SOL     OW 1273   1.081   0.990   0.086
  198SOL    HW1 1274   1.056   1.026   0.001
  198SOL    HW2 1275   1.156   0.935   0.069
  199SOL     OW 1276   1.858   1.555   0.844
  199SOL    HW1 1277   1.780   1.546   0.790
  199SOL    HW2 1278   1.846   1.491   0.914
  200SOL     OW 1279   0.228   1.307   1.856
  200SOL    HW1 1280   0.159   1.245   1.832
  200SOL    HW2 1281   0.219   1.317   1.951
  201SOL     OW 1282   0.099   1.236   0.666
  201SOL    HW1 1283   0.109   1.188   0.748
  201SOL    HW2 1284   0.165   1.198   0.608
  202SOL     OW 1285   0.680   1.400   1.626
  202SOL    HW1 1286   0.600   1.357   1.655
  202SOL    HW2 1287   0.674   1.488   1.663
  203SOL     OW 1288   1.812   0.184   1.239
  203SOL    HW1 1289   1.809   0.091   1.260
  203SOL    HW2 1290   1.826   0.186   1.144
  204SOL     OW 1291   0.437   0.432   0.528
  204SOL    HW1 1292   0.459   0.360   0.468
  204SOL    HW2 1293   0.381   0.391   0.594
  205SOL     OW 1294   1.704   1.488   1.096
  205SOL    HW1 1295   1.620   1.464   1.056
  205SOL    HW2 1296   1.717   1.423   1.165
  206SOL     OW 1297   0.312   0.503   1.257
  206SOL    HW1 1298   0.384   0.457   1.300
  206SOL    HW2 1299   0.340   0.513   1.166
  207SOL     OW 1300   0.825   1.577   0.679
  207SOL    HW1 1301   0.818   1.623   0.596
  207SOL    HW2 1302   0.746   1.523   0.684
  208SOL     OW 1303   1.432   0.216   1.118
  208SOL    HW1 1304   1.469   0.145   1.171
  208SOL    HW2 1305   1.381   0.269   1.179
  209SOL     OW 1306   0.997   0.014   1.148
  209SOL    HW1 1307   0.951   4.431   1.137
  209SOL    HW2 1308   1.089   4.489   1.161
  210SOL     OW 1309   0.767   1.329   0.312
  210SOL    HW1 1310   0.737   1.239   0.325
  210SOL    HW2 1311   0.852   1.332   0.357
  211SOL     OW 1312   0.621   1.558   1.284
  211SOL    HW1 1313   0.623   1.639   1.335
  211SOL    HW2 1314   0.708   1.551   1.245
  212SOL     OW 1315   1.347   0.059   0.168
  212SOL    HW1 1316   1.384   0.005   0.098
  212SOL    HW2 1317   1.269   0.012   0.196
  213SOL     OW 1318   1.315   0.463   0.682
  213SOL    HW1 1319   1.251   0.534   0.681
  213SOL    HW2 1320   1.302   0.419   0.766
  214SOL     OW 1321   1.587   0.203   0.868
  214SOL    HW1 1322   1.524   0.217   0.940
  214SOL    HW2 1323   1.589   0.286   0.821
  215SOL     OW 1324   0.039   1.049   0.282
  215SOL    HW1 1325   0.135   1.050   0.285
  215SOL    HW2 1326   0.013   1.012   0.366
  216SOL     OW 1327   0.883   1.650   0.347
  216SOL    HW1 1328   0.812   1.630   0.286
  216SOL    HW2 1329   0.850   1.725   0.397
  217SOL     OW 1330   0.247   0.626   1.981
  217SOL    HW1 1331   0.171   0.611   2.037
  217SOL    HW2 1332   0.215   0.609   1.892
  218SOL     OW 1333   0.197   0.292   2.851
  218SOL    HW1 1334   0.234   0.269   2.937
  218SOL    HW2 1335   0.132   0.224   2.834
  219SOL     OW 1336   0.007   0.377   2.504
  219SOL    HW1 1337   4.427   0.414   2.543
  219SOL    HW2 1338   4.475   0.306   2.449
  220SOL     OW 1339   0.567   1.282   3.034
  220SOL    HW1 1340   0.479   1.287   2.996
  220SOL    HW2 1341   0.582   1.370   3.070
  221SOL     OW 1342   1.558   1.512   2.568
  221SOL    HW1 1343   1.514   1.494   2.651
  221SOL    HW2 1344   1.487   1.517   2.504
  222SOL     OW 1345   1.132   0.700   2.564
  222SOL    HW1 1346   1.180   0.781   2.552
  222SOL    HW2 1347   1.083   0.712   2.645
  223SOL     OW 1348   1.764   0.609   2.092
  223SOL    HW1 1349   1.745   0.598   1.998
  223SOL    HW2 1350   1.733   0.528   2.132
  224SOL     OW 1351   0.759   1.144   2.900
  224SOL    HW1 1352   0.689   1.178   2.956
  224SOL    HW2 1353   0.793   1.222   2.855
  225SOL     OW 1354   0.862   0.779   3.682
  225SOL    HW1 1355   0.849   0.851   3.745
  225SOL    HW2 1356   0.886   0.823   3.601
  226SOL     OW 1357   0.686   1.007   2.511
  226SOL    HW1 1358   0.750   0.992   2.580
  226SOL    HW2 1359   0.616   1.056   2.554
  227SOL     OW 1360   0.708   1.151   3.672
  227SOL    HW1 1361   0.755   1.231   3.696
  227SOL    HW2 1362   0.624   1.183   3.637
  228SOL     OW 1363   0.337   1.424   2.932
  228SOL    HW1 1364   0.256   1.404   2.885
  228SOL    HW2 1365   0.387   1.478   2.871
  229SOL     OW 1366   1.462   1.498   3.212
  229SOL    HW1 1367   1.507   1.582   3.222
  229SOL    HW2 1368   1.408   1.491   3.291
  230SOL     OW 1369   0.436   0.396   3.356
  230SOL    HW1 1370   0.524   0.359   3.357
  230SOL    HW2 1371   0.378   0.321   3.370
  231SOL     OW 1372   1.613   0.448   2.600
  231SOL    HW1 1373   1.532   0.472   2.553
  231SOL    HW2 1374   1.634   0.525   2.652
  232SOL     OW 1375   0.245   1.692   2.341
  232SOL    HW1 1376   0.233   1.777   2.384
  232SOL    HW2 1377   0.308   1.710   2.271
  233SOL     OW 1378   1.136   1.341   3.553
  233SOL    HW1 1379   1.175   1.337   3.640
  233SOL    HW2 1380   1.083   1.261   3.548
  234SOL     OW 1381   0.244   1.428   2.390
  234SOL    HW1 1382   0.236   1.523   2.395
  234SOL    HW2 1383   0.179   1.395   2.453
  235SOL     OW 1384   0.244   1.081   2.744
  235SOL    HW1 1385   0.263   0.994   2.779
  235SOL    HW2 1386   0.187   1.121   2.810
  236SOL     OW 1387   0.616   1.790   3.295
  236SOL    HW1 1388   0.532   1.773   3.337
  236SOL    HW2 1389   0.637   1.881   3.318
  237SOL     OW 1390   0.584   0.983   1.997
  237SOL    HW1 1391   0.629   1.031   1.927
  237SOL    HW2 1392   0.630   1.010   2.077
  238SOL     OW 1393   1.585   0.114   3.336
  238SOL    HW1 1394   1.597   0.183   3.270
  238SOL    HW2 1395   1.575   0.162   3.418
  239SOL     OW 1396   0.136   0.642   2.437
  239SOL    HW1 1397   0.083   0.564   2.450
  239SOL    HW2 1398   0.107   0.703   2.505
  240SOL     OW 1399   1.841   1.762   2.197
  240SOL    HW1 1400   1.899   1.733   2.267
  240SOL    HW2 1401   1.867   1.852   2.179
  241SOL     OW 1402   0.033   1.601   1.998
  241SOL    HW1 1403   0.021   1.506   1.999
  241SOL    HW2 1404   0.011   1.629   2.086
  242SOL     OW 1405   1.691   0.920   2.500
  242SOL    HW1 1406   1.775   0.880   2.480
  242SOL    HW2 1407   1.669   0.969   2.420
  243SOL     OW 1408   1.645   1.108   2.291
  243SOL    HW1 1409   1.730   1.117   2.249
  243SOL    HW2 1410   1.650   1.168   2.366
  244SOL     OW 1411   0.107   0.760   3.450
  244SOL    HW1 1412   0.201   0.760   3.434
  244SOL    HW2 1413   0.084   0.853   3.456
  245SOL     OW 1414   0.612   1.382   2.598
  245SOL    HW1 1415   0.566   1.299   2.606
  245SOL    HW2 1416   0.596   1.409   2.507
  246SOL     OW 1417   1.290   1.238   3.287
  246SOL    HW1 1418   1.323   1.171   3.227
  246SOL    HW2 1419   1.346   1.231   3.364
  247SOL     OW 1420   0.817   0.011   2.408
  247SOL    HW1 1421   0.850   0.098   2.385
  247SOL    HW2 1422   0.722   0.019   2.398
  248SOL     OW 1423   0.183   0.944   3.141
  248SOL    HW1 1424   0.274   0.927   3.118
  248SOL    HW2 1425   0.133   0.921   3.063
  249SOL     OW 1426   1.532   0.991   2.058
  249SOL    HW1 1427   1.462   0.934   2.089
  249SOL    HW2 1428   1.571   1.025   2.139
  250SOL     OW 1429   1.184   1.804   3.482
  250SOL    HW1 1430   1.202   1.861   3.407
  250SOL    HW2 1431   1.200   1.715   3.449
  251SOL     OW 1432   0.318   0.260   3.634
  251SOL    HW1 1433   0.386   0.313   3.676
  251SOL    HW2 1434   0.242   0.269   3.692
  252SOL     OW 1435   1.465   1.419   2.815
  252SOL    HW1 1436   1.397   1.434   2.880
  252SOL    HW2 1437   1.454   1.328   2.788
  253SOL     OW 1438   1.663   1.732   2.439
  253SOL    HW1 1439   1.637   1.704   2.351
  253SOL    HW2 1440   1.636   1.660   2.496
  254SOL     OW 1441   0.596   0.723   2.126
  254SOL    HW1 1442   0.602   0.803   2.074
  254SOL    HW2 1443   0.530   0.743   2.193
  255SOL     OW 1444   1.290   0.358   2.796
  255SOL    HW1 1445   1.201   0.326   2.781
  255SOL    HW2 1446   1.327   0.296   2.859
  256SOL     OW 1447   1.581   1.668   2.171
  256SOL    HW1 1448   1.670   1.703   2.164
  256SOL    HW2 1449   1.555   1.651   2.080
  257SOL     OW 1450   0.797   0.617   3.316
  257SOL    HW1 1451   0.769   0.594   3.405
  257SOL    HW2 1452   0.752   0.554   3.260
  258SOL     OW 1453   1.389   0.478   3.538
  258SOL    HW1 1454   1.391   0.522   3.623
  258SOL    HW2 1455   1.456   0.410   3.545
  259SOL     OW 1456   0.958   0.889   3.443
  259SOL    HW1 1457   1.012   0.817   3.409
  259SOL    HW2 1458   0.911   0.922   3.366
  260SOL     OW 1459   0.996   0.417   3.100
  260SOL    HW1 1460   0.911   0.430   3.142
  260SOL    HW2 1461   0.976   0.365   3.022
  261SOL     OW 1462   1.049   0.698   2.290
  261SOL    HW1 1463   1.064   0.691   2.384
  261SOL    HW2 1464   0.967   0.651   2.275
  262SOL     OW 1465   0.099   0.823   2.645
  262SOL    HW1 1466   0.185   0.804   2.682
  262SOL    HW2 1467   0.053   0.870   2.714
  263SOL     OW 1468   0.124   1.854   3.438
  263SOL    HW1 1469   0.119   1.829   3.530
  263SOL    HW2 1470   0.045   1.817   3.398
  264SOL     OW 1471   0.853   0.367   2.039
  264SOL    HW1 1472   0.929   0.404   1.994
  264SOL    HW2 1473   0.872   0.274   2.046
  265SOL     OW 1474   1.706   0.575   3.690
  265SOL    HW1 1475   1.671   0.653   3.645
  265SOL    HW2 1476   1.739   0.520   3.620
  266SOL     OW 1477   1.375   1.143   2.404
  266SOL    HW1 1478   1.453   1.129   2.351
  266SOL    HW2 1479   1.323   1.205   2.353
  267SOL     OW 1480   0.544   0.202   2.763
  267SOL    HW1 1481   0.562   0.221   2.855
  267SOL    HW2 1482   0.534   0.288   2.722
  268SOL     OW 1483   1.009   1.446   2.336
  268SOL    HW1 1484   0.968   1.517   2.287
  268SOL    HW2 1485   0.994   1.468   2.428
  269SOL     OW 1486   0.355   1.808   2.718
  269SOL    HW1 1487   0.398   1.723   2.729
  269SOL    HW2 1488   0.424   1.872   2.732
  270SOL     OW 1489   1.798   1.060   2.729
  270SOL    HW1 1490   1.741   1.043   2.653
  270SOL    HW2 1491   1.738   1.065   2.803
  271SOL     OW 1492   1.228   1.540   3.375
  271SOL    HW1 1493   1.214   1.466   3.434
  271SOL    HW2 1494   1.168   1.523   3.302
  272SOL     OW 1495   0.317   0.954   2.111
  272SOL    HW1 1496   0.402   0.976   2.072
  272SOL    HW2 1497   0.300   0.865   2.081
  273SOL     OW 1498   1.477   0.739   2.588
  273SOL    HW1 1499   1.463   0.693   2.670
  273SOL    HW2 1500   1.552   0.795   2.604
  274SOL     OW 1501   0.465   1.261   3.597
  274SOL    HW1 1502   0.437   1.268   3.506
  274SOL    HW2 1503   0.384   1.267   3.648
  275SOL     OW 1504   1.121   1.777   2.094
  275SOL    HW1 1505   1.049   1.734   2.141
  275SOL    HW2 1506   1.142   1.718   2.022
  276SOL     OW 1507   0.167   0.262   3.370
  276SOL    HW1 1508   0.135   0.349   3.344
  276SOL    HW2 1509   0.199   0.275   3.460
  277SOL     OW 1510   1.629   1.379   1.949
  277SOL    HW1 1511   1.588   1.464   1.933
  277SOL    HW2 1512   1.560   1.316   1.930
  278SOL     OW 1513   0.469   1.744   2.177
  278SOL    HW1 1514   0.508   1.796   2.246
  278SOL    HW2 1515   0.543   1.713   2.125
  279SOL     OW 1516   1.416   0.131   2.281
  279SOL    HW1 1517   1.399   0.085   2.199
  279SOL    HW2 1518   1.511   0.130   2.289
  280SOL     OW 1519   0.257   1.791   3.098
  280SOL    HW1 1520   0.306   1.718   3.137
  280SOL    HW2 1521   0.229   1.758   3.012
  281SOL     OW 1522   0.938   1.698   2.762
  281SOL    HW1 1523   1.015   1.645   2.783
  281SOL    HW2 1524   0.892   1.649   2.694
  282SOL     OW 1525   0.392   0.694   2.336
  282SOL    HW1 1526   0.418   0.603   2.347
  282SOL    HW2 1527   0.300   0.696   2.363
  283SOL     OW 1528   1.527   0.232   3.584
  283SOL    HW1 1529   1.525   0.256   3.677
  283SOL    HW2 1530   1.451   0.174   3.573
  284SOL     OW 1531   0.622   0.123   1.978
  284SOL    HW1 1532   0.710   0.088   1.991
  284SOL    HW2 1533   0.593   0.086   1.895
  285SOL     OW 1534   0.769   0.269   3.614
  285SOL    HW1 1535   0.835   0.201   3.631
  285SOL    HW2 1536   0.724   0.279   3.698
  286SOL     OW 1537   0.877   1.521   3.055
  286SOL    HW1 1538   0.862   1.485   2.968
  286SOL    HW2 1539   0.946   1.466   3.092
  287SOL     OW 1540   1.342   0.589   3.292
  287SOL    HW1 1541   1.370   0.559   3.378
  287SOL    HW2 1542   1.376   0.678   3.285
  288SOL     OW 1543   0.813   1.398   2.798
  288SOL    HW1 1544   0.897   1.388   2.753
  288SOL    HW2 1545   0.748   1.396   2.728
  289SOL     OW 1546   0.922   0.515   2.764
  289SOL    HW1 1547   0.905   0.513   2.670
  289SOL    HW2 1548   0.963   0.431   2.783
  290SOL     OW 1549   0.558   0.067   2.371
  290SOL    HW1 1550   0.470   0.054   2.407
  290SOL    HW2 1551   0.548   0.140   2.310
  291SOL     OW 1552   1.429   1.197   1.903
  291SOL    HW1 1553   1.459   1.122   1.953
  291SOL    HW2 1554   1.343   1.218   1.940
  292SOL     OW 1555   0.303   0.076   2.046
  292SOL    HW1 1556   0.386   0.123   2.041
  292SOL    HW2 1557   0.321   4.500   2.100
  293SOL     OW 1558   0.950   0.241   2.335
  293SOL    HW1 1559   0.898   0.288   2.270
  293SOL    HW2 1560   1.038   0.275   2.325
  294SOL     OW 1561   1.080   0.679   3.323
  294SOL    HW1 1562   1.008   0.616   3.325
  294SOL    HW2 1563   1.159   0.626   3.311
  295SOL     OW 1564   1.225   1.569   2.655
  295SOL    HW1 1565   1.243   1.637   2.591
  295SOL    HW2 1566   1.292   1.581   2.722
  296SOL     OW 1567   0.465   1.148   2.600
  296SOL    HW1 1568   0.393   1.129   2.660
  296SOL    HW2 1569   0.428   1.131   2.513
  297SOL     OW 1570   1.271   1.795   2.467
  297SOL    HW1 1571   1.315   1.856   2.408
  297SOL    HW2 1572   1.207   1.848   2.514
  298SOL     OW 1573   1.031   0.549   1.877
  298SOL    HW1 1574   0.983   0.631   1.861
  298SOL    HW2 1575   1.089   0.569   1.950
  299SOL     OW 1576   0.091   0.524   3.273
  299SOL    HW1 1577   0.152   0.535   3.201
  299SOL    HW2 1578   0.062   0.613   3.293
  300SOL     OW 1579   0.563   0.242   3.027
  300SOL    HW1 1580   0.594   0.157   3.059
  300SOL    HW2 1581   0.470   0.243   3.047
  301SOL     OW 1582   0.866   0.501   2.488
  301SOL    HW1 1583   0.815   0.543   2.419
  301SOL    HW2 1584   0.850   0.407   2.476
  302SOL     OW 1585   0.970   0.031   2.637
  302SOL    HW1 1586   0.921   0.027   2.555
  302SOL    HW2 1587   0.980   4.440   2.664
  303SOL     OW 1588   1.436   1.163   2.720
  303SOL    HW1 1589   1.368   1.095   2.718
  303SOL    HW2 1590   1.458   1.177   2.628
  304SOL     OW 1591   1.468   0.602   2.841
  304SOL    HW1 1592   1.417   0.521   2.845
  304SOL    HW2 1593   1.527   0.597   2.916
  305SOL     OW 1594   1.847   0.819   2.244
  305SOL    HW1 1595   1.903   0.766   2.301
  305SOL    HW2 1596   1.818   0.758   2.176
  306SOL     OW 1597   0.492   1.413   2.024
  306SOL    HW1 1598   0.416   1.384   2.074
  306SOL    HW2 1599   0.471   1.394   1.933
  307SOL     OW 1600   1.669   1.266   2.510
  307SOL    HW1 1601   1.763   1.272   2.523
  307SOL    HW2 1602   1.636   1.353   2.532
  308SOL     OW 1603   1.394   0.570   1.932
  308SOL    HW1 1604   1.333   0.554   2.004
  308SOL    HW2 1605   1.480   0.549   1.967
  309SOL     OW 1606   0.523   0.264   2.185
  309SOL    HW1 1607   0.568   0.213   2.117
  309SOL    HW2 1608   0.509   0.350   2.144
  310SOL     OW 1609   1.754   1.236   3.439
  310SOL    HW1 1610   1.841   1.198   3.435
  310SOL    HW2 1611   1.768   1.326   3.467
  311SOL     OW 1612   1.061   1.353   3.197
  311SOL    HW1 1613   0.986   1.322   3.248
  311SOL    HW2 1614   1.137   1.312   3.238
  312SOL     OW 1615   1.606   1.624   3.513
  312SOL    HW1 1616   1.603   1.660   3.424
  312SOL    HW2 1617   1.690   1.579   3.518
  313SOL     OW 1618   1.125   1.201   2.969
  313SOL    HW1 1619   1.067   1.240   3.035
  313SOL    HW2 1620   1.091   1.232   2.885
  314SOL     OW 1621   1.631   1.100   2.940
  314SOL    HW1 1622   1.627   1.162   3.013
  314SOL    HW2 1623   1.551   1.115   2.891
  315SOL     OW 1624   0.904   0.130   3.252
  315SOL    HW1 1625   0.926   0.086   3.170
  315SOL    HW2 1626   0.988   0.143   3.296
  316SOL     OW 1627   0.984   1.114   3.584
  316SOL    HW1 1628   0.891   1.129   3.603
  316SOL    HW2 1629   0.984   1.037   3.528
  317SOL     OW 1630   0.708   1.060   2.235
  317SOL    HW1 1631   0.696   1.046   2.329
  317SOL    HW2 1632   0.784   1.007   2.212
  318SOL     OW 1633   0.429   0.823   3.101
  318SOL    HW1 1634   0.497   0.834   3.167
  318SOL    HW2 1635   0.369   0.757   3.138
  319SOL     OW 1636   1.270   0.377   3.134
  319SOL    HW1 1637   1.301   0.455   3.179
  319SOL    HW2 1638   1.181   0.399   3.105
  320SOL     OW 1639   0.061   1.576   3.202
  320SOL    HW1 1640   0.033   1.663   3.176
  320SOL    HW2 1641   0.156   1.581   3.208
  321SOL     OW 1642   0.351   1.106   2.356
  321SOL    HW1 1643   0.360   1.180   2.295
  321SOL    HW2 1644   0.353   1.029   2.300
  322SOL     OW 1645   0.564   0.530   2.717
  322SOL    HW1 1646   0.577   0.590   2.644
  322SOL    HW2 1647   0.622   0.563   2.786
  323SOL     OW 1648   1.248   1.348   2.251
  323SOL    HW1 1649   1.303   1.420   2.282
  323SOL    HW2 1650   1.161   1.368   2.285
  324SOL     OW 1651   1.277   1.455   3.008
  324SOL    HW1 1652   1.332   1.458   3.086
  324SOL    HW2 1653   1.222   1.378   3.020
  325SOL     OW 1654   1.583   0.625   2.337
  325SOL    HW1 1655   1.539   0.679   2.403
  325SOL    HW2 1656   1.628   0.688   2.281
  326SOL     OW 1657   0.348   1.528   3.180
  326SOL    HW1 1658   0.333   1.482   3.097
  326SOL    HW2 1659   0.443   1.539   3.185
  327SOL     OW 1660   0.477   0.760   3.525
  327SOL    HW1 1661   0.502   0.800   3.442
  327SOL    HW2 1662   0.509   0.670   3.520
  328SOL     OW 1663   1.597   0.777   3.540
  328SOL    HW1 1664   1.511   0.818   3.533
  328SOL    HW2 1665   1.650   0.819   3.473
  329SOL     OW 1666   1.007   0.087   3.589
  329SOL    HW1 1667   1.029   0.171   3.549
  329SOL    HW2 1668   1.033   0.022   3.523
  330SOL     OW 1669   0.496   0.046   3.612
  330SOL    HW1 1670   0.478   4.497   3.531
  330SOL    HW2 1671   0.429   0.114   3.614
  331SOL     OW 1672   0.588   0.874   2.885
  331SOL    HW1 1673   0.617   0.965   2.888
  331SOL    HW2 1674   0.531   0.865   2.962
  332SOL     OW 1675   1.361   0.859   2.895
  332SOL    HW1 1676   1.279   0.852   2.845
  332SOL    HW2 1677   1.398   0.771   2.892
  333SOL     OW 1678   1.207   0.534   2.128
  333SOL    HW1 1679   1.212   0.454   2.180
  333SOL    HW2 1680   1.164   0.597   2.187
  334SOL     OW 1681   0.285   0.220   3.096
  334SOL    HW1 1682   0.250   0.237   3.184
  334SOL    HW2 1683   0.321   0.131   3.102
  335SOL     OW 1684   0.047   1.313   3.146
  335SOL    HW1 1685   0.078   1.266   3.223
  335SOL    HW2 1686   0.049   1.405   3.171
  336SOL     OW 1687   0.725   0.632   2.923
  336SOL    HW1 1688   0.798   0.611   2.864
  336SOL    HW2 1689   0.700   0.721   2.898
  337SOL     OW 1690   1.733   0.958   3.713
  337SOL    HW1 1691   1.684   0.904   3.651
  337SOL    HW2 1692   1.674   0.970   3.787
  338SOL     OW 1693   0.317   0.076   2.493
  338SOL    HW1 1694   0.300   0.164   2.527
  338SOL    HW2 1695   0.305   0.018   2.569
  339SOL     OW 1696   1.610   0.374   2.229
  339SOL    HW1 1697   1.642   0.312   2.294
  339SOL    HW2 1698   1.589   0.453   2.279
  340SOL     OW 1699   1.027   0.761   2.824
  340SOL    HW1 1700   1.027   0.777   2.919
  340SOL    HW2 1701   0.999   0.670   2.816
  341SOL     OW 1702   0.983   1.566   3.576
  341SOL    HW1 1703   0.967   1.610   3.493
  341SOL    HW2 1704   1.025   1.484   3.552
  342SOL     OW 1705   1.857   1.507   3.467
  342SOL    HW1 1706   1.871   1.536   3.377
  342SOL    HW2 1707   1.937   1.532   3.513
  343SOL     OW 1708   0.347   0.930   3.680
  343SOL    HW1 1709   0.422   0.958   3.734
  343SOL    HW2 1710   0.384   0.864   3.621
  344SOL     OW 1711   1.532   0.267   1.990
  344SOL    HW1 1712   1.460   0.211   2.017
  344SOL    HW2 1713   1.560   0.312   2.070
  345SOL     OW 1714   1.295   0.827   1.895
  345SOL    HW1 1715   1.336   0.741   1.897
  345SOL    HW2 1716   1.325   0.866   1.813
  346SOL     OW 1717   1.065   1.335   2.714
  346SOL    HW1 1718   1.068   1.262   2.652
  346SOL    HW2 1719   1.128   1.398   2.680
  347SOL     OW 1720   0.317   0.813   2.812
  347SOL    HW1 1721   0.411   0.831   2.807
  347SOL    HW2 1722   0.311   0.723   2.843
  348SOL     OW 1723   0.337   0.527   2.856
  348SOL    HW1 1724   0.292   0.445   2.836
  348SOL    HW2 1725   0.414   0.527   2.799
  349SOL     OW 1726   1.135   0.375   3.554
  349SOL    HW1 1727   1.088   0.440   3.607
  349SOL    HW2 1728   1.221   0.414   3.541
  350SOL     OW 1729   1.160   0.211   3.336
  350SOL    HW1 1730   1.152   0.275   3.406
  350SOL    HW2 1731   1.195   0.261   3.262
  351SOL     OW 1732   4.492   1.323   2.063
  351SOL    HW1 1733   4.399   1.338   2.046
  351SOL    HW2 1734   4.498   1.231   2.087
  352SOL     OW 1735   0.095   1.781   2.801
  352SOL    HW1 1736   0.057   1.721   2.738
  352SOL    HW2 1737   0.182   1.801   2.768
  353SOL     OW 1738   0.499   1.573   2.768
  353SOL    HW1 1739   0.567   1.636   2.792
  353SOL    HW2 1740   0.544   1.508   2.714
  354SOL     OW 1741   0.988   0.795   3.091
  354SOL    HW1 1742   1.041   0.769   3.167
  354SOL    HW2 1743   0.902   0.758   3.108
  355SOL     OW 1744   0.040   0.566   2.972
  355SOL    HW1 1745   0.115   0.521   2.932
  355SOL    HW2 1746   0.025   0.519   3.054
  356SOL     OW 1747   0.180   0.518   3.572
  356SOL    HW1 1748   0.266   0.501   3.533
  356SOL    HW2 1749   0.150   0.599   3.531
  357SOL     OW 1750   1.376   0.941   3.521
  357SOL    HW1 1751   1.397   1.035   3.522
  357SOL    HW2 1752   1.374   0.917   3.429
  358SOL     OW 1753   0.812   0.572   2.214
  358SOL    HW1 1754   0.814   0.500   2.151
  358SOL    HW2 1755   0.738   0.626   2.187
  359SOL     OW 1756   1.642   0.601   3.051
  359SOL    HW1 1757   1.631   0.541   3.125
  359SOL    HW2 1758   1.729   0.580   3.017
  360SOL     OW 1759   0.271   1.562   3.604
  360SOL    HW1 1760   0.217   1.614   3.663
  360SOL    HW2 1761   0.250   1.471   3.626
  361SOL     OW 1762   0.682   0.464   3.130
  361SOL    HW1 1763   0.646   0.383   3.093
  361SOL    HW2 1764   0.691   0.522   3.055
  362SOL     OW 1765   0.930   1.679   3.328
  362SOL    HW1 1766   0.903   1.648   3.242
  362SOL    HW2 1767   0.930   1.774   3.321
  363SOL     OW 1768   0.473   0.491   2.048
  363SOL    HW1 1769   0.532   0.563   2.069
  363SOL    HW2 1770   0.388   0.533   2.034
  364SOL     OW 1771   0.161   1.141   3.325
  364SOL    HW1 1772   0.148   1.093   3.407
  364SOL    HW2 1773   0.170   1.073   3.259
  365SOL     OW 1774   1.329   1.049   3.087
  365SOL    HW1 1775   1.353   0.986   3.019
  365SOL    HW2 1776   1.256   1.098   3.049
  366SOL     OW 1777   1.309   0.856   2.169
  366SOL    HW1 1778   1.232   0.827   2.218
  366SOL    HW2 1779   1.285   0.843   2.077
  367SOL     OW 1780   1.764   1.744   3.010
  367SOL    HW1 1781   1.826   1.774   2.944
  367SOL    HW2 1782   1.746   1.653   2.987
  368SOL     OW 1783   1.241   1.733   2.978
  368SOL    HW1 1784   1.323   1.751   2.933
  368SOL    HW2 1785   1.245   1.639   2.996
  369SOL     OW 1786   0.068   1.188   2.910
  369SOL    HW1 1787   0.073   1.223   2.999
  369SOL    HW2 1788   0.011   1.250   2.863
  370SOL     OW 1789   0.679   1.664   3.587
  370SOL    HW1 1790   0.626   1.743   3.583
  370SOL    HW2 1791   0.741   1.673   3.514
  371SOL     OW 1792   1.718   0.130   2.360
  371SOL    HW1 1793   1.792   0.135   2.299
  371SOL    HW2 1794   1.738   0.055   2.416
  372SOL     OW 1795   1.390   1.568   2.345
  372SOL    HW1 1796   1.450   1.599   2.277
  372SOL    HW2 1797   1.342   1.646   2.372
  373SOL     OW 1798   0.120   1.808   3.710
  373SOL    HW1 1799   0.081   1.734   3.756
  373SOL    HW2 1800   0.184   1.844   3.771
  374SOL     OW 1801   1.278   0.926   2.534
  374SOL    HW1 1802   1.351   0.863   2.537
  374SOL    HW2 1803   1.311   0.998   2.482
  375SOL     OW 1804   0.818   1.272   3.293
  375SOL    HW1 1805   0.792   1.311   3.377
  375SOL    HW2 1806   0.747   1.294   3.233
  376SOL     OW 1807   0.673   1.616   2.017
  376SOL    HW1 1808   0.681   1.627   1.922
  376SOL    HW2 1809   0.619   1.538   2.028
  377SOL     OW 1810   1.630   1.726   3.253
  377SOL    HW1 1811   1.679   1.734   3.172
  377SOL    HW2 1812   1.617   1.816   3.283
  378SOL     OW 1813   1.839   0.156   2.829
  378SOL    HW1 1814   1.868   0.079   2.779
  378SOL    HW2 1815   1.752   0.176   2.794
  379SOL     OW 1816   0.266   0.326   2.587
  379SOL    HW1 1817   0.184   0.361   2.552
  379SOL    HW2 1818   0.251   0.317   2.681
  380SOL     OW 1819   1.206   1.608   1.893
  380SOL    HW1 1820   1.197   1.517   1.920
  380SOL    HW2 1821   1.141   1.618   1.823
  381SOL     OW 1822   0.825   1.006   3.233
  381SOL    HW1 1823   0.867   1.004   3.148
  381SOL    HW2 1824   0.826   1.099   3.258
  382SOL     OW 1825   0.915   0.910   2.151
  382SOL    HW1 1826   0.977   0.942   2.086
  382SOL    HW2 1827   0.961   0.839   2.196
  383SOL     OW 1828   1.495   1.624   1.904
  383SOL    HW1 1829   1.400   1.621   1.892
  383SOL    HW2 1830   1.530   1.630   1.815
  384SOL     OW 1831   0.373   1.305   3.353
  384SOL    HW1 1832   0.356   1.383   3.301
  384SOL    HW2 1833   0.297   1.249   3.337
  385SOL     OW 1834   1.611   1.283   3.143
  385SOL    HW1 1835   1.672   1.277   3.217
  385SOL    HW2 1836   1.551   1.354   3.167
  386SOL     OW 1837   1.048   1.105   2.567
  386SOL    HW1 1838   0.978   1.054   2.607
  386SOL    HW2 1839   1.109   1.040   2.533
  387SOL     OW 1840   1.006   0.241   2.859
  387SOL    HW1 1841   1.014   0.212   2.768
  387SOL    HW2 1842   1.001   0.160   2.909
  388SOL     OW 1843   0.602   1.489   2.345
  388SOL    HW1 1844   0.641   1.439   2.274
  388SOL    HW2 1845   0.533   1.540   2.304
  389SOL     OW 1846   1.719   0.393   3.240
  389SOL    HW1 1847   1.791   0.456   3.239
  389SOL    HW2 1848   1.749   0.321   3.184
  390SOL     OW 1849   0.252   1.345   2.140
  390SOL    HW1 1850   0.157   1.346   2.125
  390SOL    HW2 1851   0.263   1.378   2.229
  391SOL     OW 1852   0.117   1.007   3.558
  391SOL    HW1 1853   0.052   1.046   3.617
  391SOL    HW2 1854   0.195   0.996   3.613
  392SOL     OW 1855   0.659   0.207   3.358
  392SOL    HW1 1856   0.739   0.181   3.312
  392SOL    HW2 1857   0.687   0.222   3.448
  393SOL     OW 1858   0.070   0.321   1.888
  393SOL    HW1 1859   4.475   0.330   1.898
  393SOL    HW2 1860   0.099   0.407   1.857
  394SOL     OW 1861   1.432   0.858   3.263
  394SOL    HW1 1862   1.383   0.918   3.206
  394SOL    HW2 1863   1.522   0.862   3.230
  395SOL     OW 1864   0.083   0.188   2.165
  395SOL    HW1 1865   0.080   0.260   2.102
  395SOL    HW2 1866   0.161   0.138   2.141
  396SOL     OW 1867   1.180   1.341   1.979
  396SOL    HW1 1868   1.089   1.312   1.982
  396SOL    HW2 1869   1.209   1.341   2.070
  397SOL     OW 1870   0.621   0.831   3.290
  397SOL    HW1 1871   0.675   0.909   3.278
  397SOL    HW2 1872   0.684   0.759   3.300
  398SOL     OW 1873   1.486   1.773   2.837
  398SOL    HW1 1874   1.510   1.834   2.767
  398SOL    HW2 1875   1.566   1.762   2.888
  399SOL     OW 1876   0.715   0.561   3.567
  399SOL    HW1 1877   0.747   0.629   3.627
  399SOL    HW2 1878   0.756   0.481   3.599
  400SOL     OW 1879   1.469   1.203   3.495
  400SOL    HW1 1880   1.457   1.216   3.589
  400SOL    HW2 1881   1.562   1.216   3.481
  401SOL     OW 1882   0.382   1.743   3.426
  401SOL    HW1 1883   0.297   1.782   3.410
  401SOL    HW2 1884   0.363   1.661   3.472
  402SOL     OW 1885   1.672   0.882   3.117
  402SOL    HW1 1886   1.662   0.797   3.074
  402SOL    HW2 1887   1.663   0.946   3.047
  403SOL     OW 1888   1.218   0.327   2.310
  403SOL    HW1 1889   1.283   0.258   2.301
  403SOL    HW2 1890   1.245   0.375   2.389
  404SOL     OW 1891   0.588   0.740   2.530
  404SOL    HW1 1892   0.630   0.825   2.513
  404SOL    HW2 1893   0.519   0.733   2.464
  405SOL     OW 1894   1.766   0.360   3.505
  405SOL    HW1 1895   1.750   0.375   3.412
  405SOL    HW2 1896   1.686   0.317   3.537
  406SOL     OW 1897   1.743   0.933   3.375
  406SOL    HW1 1898   1.746   1.028   3.388
  406SOL    HW2 1899   1.729   0.923   3.281
  407SOL     OW 1900   0.863   1.368   1.892
  407SOL    HW1 1901   0.823   1.394   1.975
  407SOL    HW2 1902   0.882   1.451   1.848
  408SOL     OW 1903   0.659   1.794   2.811
  408SOL    HW1 1904   0.637   1.884   2.785
  408SOL    HW2 1905   0.754   1.789   2.801
  409SOL     OW 1906   0.866   0.965   2.718
  409SOL    HW1 1907   0.916   0.894   2.758
  409SOL    HW2 1908   0.833   1.016   2.792
  410SOL     OW 1909   1.080   0.988   1.951
  410SOL    HW1 1910   1.058   1.038   1.872
  410SOL    HW2 1911   1.155   0.935   1.925
  411SOL     OW 1912   1.857   1.553   2.705
  411SOL    HW1 1913   1.777   1.545   2.653
  411SOL    HW2 1914   1.847   1.491   2.776
  412SOL     OW 1915   0.228   1.307   3.718
  412SOL    HW1 1916   0.159   1.245   3.694
  412SOL    HW2 1917   0.219   1.317   3.813
  413SOL     OW 1918   0.102   1.239   2.528
  413SOL    HW1 1919   0.106   1.188   2.609
  413SOL    HW2 1920   0.163   1.196   2.469
  414SOL     OW 1921   0.680   1.400   3.488
  414SOL    HW1 1922   0.600   1.357   3.517
  414SOL    HW2 1923   0.674   1.488   3.525
  415SOL     OW 1924   1.811   0.184   3.101
  415SOL    HW1 1925   1.809   0.090   3.122
  415SOL    HW2 1926   1.826   0.186   3.006
  416SOL     OW 1927   0.438   0.431   2.391
  416SOL    HW1 1928   0.458   0.360   2.330
  416SOL    HW2 1929   0.381   0.391   2.456
  417SOL     OW 1930   1.704   1.488   2.957
  417SOL    HW1 1931   1.620   1.464   2.918
  417SOL    HW2 1932   1.718   1.423   3.026
  418SOL     OW 1933   0.313   0.504   3.119
  418SOL    HW1 1934   0.385   0.457   3.161
  418SOL    HW2 1935   0.340   0.512   3.028
  419SOL     OW 1936   0.825   1.578   2.541
  419SOL    HW1 1937   0.819   1.623   2.458
  419SOL    HW2 1938   0.747   1.523   2.545
  420SOL     OW 1939   1.432   0.215   2.980
  420SOL    HW1 1940   1.469   0.145   3.034
  420SOL    HW2 1941   1.381   0.268   3.041
  421SOL     OW 1942   0.997   0.012   3.011
  421SOL    HW1 1943   0.951   4.429   2.999
  421SOL    HW2 1944   1.089   4.488   3.023
  422SOL     OW 1945   0.771   1.332   2.172
  422SOL    HW1 1946   0.738   1.242   2.179
  422SOL    HW2 1947   0.854   1.331   2.221
  423SOL     OW 1948   0.621   1.558   3.146
  423SOL    HW1 1949   0.624   1.639   3.197
  423SOL    HW2 1950   0.708   1.551   3.107
  424SOL     OW 1951   1.342   0.054   2.014
  424SOL    HW1 1952   1.382   4.479   1.969
  424SOL    HW2 1953   1.267   0.016   2.060
  425SOL     OW 1954   1.314   0.462   2.542
  425SOL    HW1 1955   1.252   0.535   2.543
  425SOL    HW2 1956   1.302   0.420   2.627
  426SOL     OW 1957   1.586   0.203   2.730
  426SOL    HW1 1958   1.525   0.217   2.802
  426SOL    HW2 1959   1.589   0.287   2.684
  427SOL     OW 1960   0.041   1.053   2.149
  427SOL    HW1 1961   0.136   1.042   2.142
  427SOL    HW2 1962   0.018   1.013   2.232
  428SOL     OW 1963   0.881   1.649   2.206
  428SOL    HW1 1964   0.810   1.631   2.145
  428SOL    HW2 1965   0.852   1.726   2.256
  429SOL     OW 1966   0.247   0.626   3.843
  429SOL    HW1 1967   0.171   0.611   3.899
  429SOL    HW2 1968   0.215   0.609   3.754
  430SOL     OW 1969   0.197   0.293   4.714
  430SOL    HW1 1970   0.234   0.269   4.799
  430SOL    HW2 1971   0.132   0.224   4.696
  431SOL     OW 1972   0.006   0.377   4.367
  431SOL    HW1 1973   4.427   0.414   4.405
  431SOL    HW2 1974   4.475   0.306   4.311
  432SOL     OW 1975   0.567   1.282   4.896
  432SOL    HW1 1976   0.479   1.286   4.858
  432SOL    HW2 1977   0.582   1.370   4.932
  433SOL     OW 1978   1.555   1.515   4.428
  433SOL    HW1 1979   1.511   1.488   4.509
  433SOL    HW2 1980   1.485   1.516   4.363
  434SOL     OW 1981   1.132   0.700   4.426
  434SOL    HW1 1982   1.180   0.781   4.414
  434SOL    HW2 1983   1.083   0.713   4.507
  435SOL     OW 1984   1.764   0.608   3.954
  435SOL    HW1 1985   1.745   0.598   3.860
  435SOL    HW2 1986   1.733   0.528   3.994
  436SOL     OW 1987   0.760   1.145   4.762
  436SOL    HW1 1988   0.689   1.178   4.818
  436SOL    HW2 1989   0.792   1.222   4.717
  437SOL     OW 1990   0.863   0.779   5.545
  437SOL    HW1 1991   0.849   0.850   5.607
  437SOL    HW2 1992   0.886   0.823   5.463
  438SOL     OW 1993   0.686   1.007   4.373
  438SOL    HW1 1994   0.750   0.992   4.442
  438SOL    HW2 1995   0.616   1.056   4.416
  439SOL     OW 1996   0.708   1.151   5.534
  439SOL    HW1 1997   0.755   1.231   5.558
  439SOL    HW2 1998   0.624   1.182   5.499
  440SOL     OW 1999   0.337   1.424   4.794
  440SOL    HW1 2000   0.255   1.404   4.747
  440SOL    HW2 2001   0.387   1.478   4.733
  441SOL     OW 2002   1.461   1.500   5.074
  441SOL    HW1 2003   1.480   1.592   5.088
  441SOL    HW2 2004   1.412   1.474   5.153
  442SOL     OW 2005   0.436   0.396   5.218
  442SOL    HW1 2006   0.524   0.359   5.219
  442SOL    HW2 2007   0.378   0.321   5.232
  443SOL     OW 2008   1.613   0.448   4.462
  443SOL    HW1 2009   1.532   0.472   4.415
  443SOL    HW2 2010   1.635   0.525   4.513
  444SOL     OW 2011   0.245   1.692   4.203
  444SOL    HW1 2012   0.233   1.777   4.246
  444SOL    HW2 2013   0.307   1.710   4.133
  445SOL     OW 2014   1.136   1.341   5.415
  445SOL    HW1 2015   1.174   1.338   5.502
  445SOL    HW2 2016   1.083   1.262   5.409
  446SOL     OW 2017   0.244   1.428   4.252
  446SOL    HW1 2018   0.236   1.523   4.257
  446SOL    HW2 2019   0.180   1.395   4.315
  447SOL     OW 2020   0.245   1.081   4.607
  447SOL    HW1 2021   0.263   0.994   4.641
  447SOL    HW2 2022   0.188   1.121   4.672
  448SOL     OW 2023   0.616   1.790   5.157
  448SOL    HW1 2024   0.533   1.773   5.199
  448SOL    HW2 2025   0.637   1.881   5.180
  449SOL     OW 2026   0.584   0.983   3.859
  449SOL    HW1 2027   0.629   1.031   3.789
  449SOL    HW2 2028   0.630   1.010   3.939
  450SOL     OW 2029   1.585   0.114   5.198
  450SOL    HW1 2030   1.597   0.183   5.132
  450SOL    HW2 2031   1.575   0.162   5.280
  451SOL     OW 2032   0.136   0.642   4.299
  451SOL    HW1 2033   0.083   0.564   4.312
  451SOL    HW2 2034   0.107   0.703   4.367
  452SOL     OW 2035   1.841   1.762   4.059
  452SOL    HW1 2036   1.899   1.730   4.129
  452SOL    HW2 2037   1.870   1.852   4.043
  453SOL     OW 2038   0.033   1.601   3.860
  453SOL    HW1 2039   0.021   1.506   3.861
  453SOL    HW2 2040   0.011   1.629   3.948
  454SOL     OW 2041   1.689   0.918   4.361
  454SOL    HW1 2042   1.775   0.881   4.344
  454SOL    HW2 2043   1.669   0.970   4.282
  455SOL     OW 2044   1.645   1.110   4.155
  455SOL    HW1 2045   1.731   1.117   4.112
  455SOL    HW2 2046   1.651   1.170   4.229
  456SOL     OW 2047   0.107   0.760   5.312
  456SOL    HW1 2048   0.201   0.760   5.296
  456SOL    HW2 2049   0.084   0.853   5.318
  457SOL     OW 2050   0.613   1.382   4.460
  457SOL    HW1 2051   0.566   1.299   4.468
  457SOL    HW2 2052   0.596   1.409   4.369
  458SOL     OW 2053   1.293   1.242   5.146
  458SOL    HW1 2054   1.323   1.172   5.088
  458SOL    HW2 2055   1.345   1.231   5.226
  459SOL     OW 2056   0.817   0.011   4.270
  459SOL    HW1 2057   0.851   0.098   4.247
  459SOL    HW2 2058   0.722   0.019   4.260
  460SOL     OW 2059   0.183   0.944   5.003
  460SOL    HW1 2060   0.274   0.927   4.980
  460SOL    HW2 2061   0.133   0.921   4.925
  461SOL     OW 2062   1.532   0.991   3.921
  461SOL    HW1 2063   1.462   0.934   3.951
  461SOL    HW2 2064   1.572   1.025   4.001
  462SOL     OW 2065   1.178   1.803   5.342
  462SOL    HW1 2066   1.206   1.861   5.272
  462SOL    HW2 2067   1.198   1.715   5.310
  463SOL     OW 2068   0.318   0.260   5.496
  463SOL    HW1 2069   0.386   0.313   5.538
  463SOL    HW2 2070   0.242   0.269   5.554
  464SOL     OW 2071   1.457   1.425   4.672
  464SOL    HW1 2072   1.393   1.433   4.743
  464SOL    HW2 2073   1.453   1.333   4.647
  465SOL     OW 2074   1.660   1.732   4.294
  465SOL    HW1 2075   1.636   1.704   4.206
  465SOL    HW2 2076   1.637   1.657   4.350
  466SOL     OW 2077   0.596   0.723   3.988
  466SOL    HW1 2078   0.602   0.803   3.936
  466SOL    HW2 2079   0.530   0.743   4.055
  467SOL     OW 2080   1.290   0.358   4.659
  467SOL    HW1 2081   1.201   0.326   4.642
  467SOL    HW2 2082   1.327   0.296   4.721
  468SOL     OW 2083   1.581   1.668   4.031
  468SOL    HW1 2084   1.670   1.702   4.025
  468SOL    HW2 2085   1.555   1.650   3.941
  469SOL     OW 2086   0.797   0.617   5.178
  469SOL    HW1 2087   0.769   0.594   5.267
  469SOL    HW2 2088   0.752   0.554   5.122
  470SOL     OW 2089   1.389   0.478   5.400
  470SOL    HW1 2090   1.391   0.521   5.486
  470SOL    HW2 2091   1.456   0.410   5.407
  471SOL     OW 2092   0.958   0.889   5.305
  471SOL    HW1 2093   1.012   0.817   5.271
  471SOL    HW2 2094   0.911   0.922   5.228
  472SOL     OW 2095   0.996   0.417   4.962
  472SOL    HW1 2096   0.911   0.430   5.004
  472SOL    HW2 2097   0.976   0.365   4.884
  473SOL     OW 2098   1.049   0.698   4.152
  473SOL    HW1 2099   1.064   0.691   4.246
  473SOL    HW2 2100   0.967   0.651   4.137
  474SOL     OW 2101   0.099   0.823   4.507
  474SOL    HW1 2102   0.185   0.804   4.544
  474SOL    HW2 2103   0.053   0.870   4.577
  475SOL     OW 2104   0.124   1.854   5.300
  475SOL    HW1 2105   0.119   1.829   5.392
  475SOL    HW2 2106   0.045   1.818   5.260
  476SOL     OW 2107   0.853   0.367   3.901
  476SOL    HW1 2108   0.929   0.404   3.855
  476SOL    HW2 2109   0.872   0.274   3.908
  477SOL     OW 2110   1.706   0.575   5.552
  477SOL    HW1 2111   1.671   0.652   5.507
  477SOL    HW2 2112   1.739   0.519   5.482
  478SOL     OW 2113   1.375   1.143   4.266
  478SOL    HW1 2114   1.454   1.129   4.214
  478SOL    HW2 2115   1.323   1.205   4.214
  479SOL     OW 2116   0.544   0.202   4.625
  479SOL    HW1 2117   0.562   0.221   4.717
  479SOL    HW2 2118   0.534   0.287   4.584
  480SOL     OW 2119   1.009   1.446   4.198
  480SOL    HW1 2120   0.968   1.517   4.149
  480SOL    HW2 2121   0.992   1.469   4.290
  481SOL     OW 2122   0.354   1.808   4.580
  481SOL    HW1 2123   0.397   1.723   4.591
  481SOL    HW2 2124   0.424   1.872   4.593
  482SOL     OW 2125   1.798   1.056   4.591
  482SOL    HW1 2126   1.741   1.045   4.515
  482SOL    HW2 2127   1.738   1.064   4.666
  483SOL     OW 2128   1.226   1.541   5.234
  483SOL    HW1 2129   1.216   1.469   5.296
  483SOL    HW2 2130   1.162   1.522   5.165
  484SOL     OW 2131   0.318   0.954   3.973
  484SOL    HW1 2132   0.402   0.976   3.934
  484SOL    HW2 2133   0.300   0.865   3.943
  485SOL     OW 2134   1.476   0.739   4.450
  485SOL    HW1 2135   1.464   0.693   4.533
  485SOL    HW2 2136   1.553   0.795   4.465
  486SOL     OW 2137   0.466   1.261   5.459
  486SOL    HW1 2138   0.437   1.267   5.368
  486SOL    HW2 2139   0.384   1.266   5.510
  487SOL     OW 2140   1.121   1.777   3.956
  487SOL    HW1 2141   1.049   1.734   4.002
  487SOL    HW2 2142   1.142   1.718   3.884
  488SOL     OW 2143   0.167   0.263   5.232
  488SOL    HW1 2144   0.135   0.349   5.206
  488SOL    HW2 2145   0.199   0.275   5.322
  489SOL     OW 2146   1.629   1.379   3.811
  489SOL    HW1 2147   1.588   1.464   3.795
  489SOL    HW2 2148   1.560   1.315   3.792
  490SOL     OW 2149   0.469   1.744   4.038
  490SOL    HW1 2150   0.508   1.796   4.108
  490SOL    HW2 2151   0.543   1.713   3.987
  491SOL     OW 2152   1.416   0.131   4.143
  491SOL    HW1 2153   1.399   0.085   4.061
  491SOL    HW2 2154   1.511   0.130   4.151
  492SOL     OW 2155   0.257   1.791   4.960
  492SOL    HW1 2156   0.306   1.718   4.998
  492SOL    HW2 2157   0.228   1.759   4.874
  493SOL     OW 2158   0.938   1.698   4.624
  493SOL    HW1 2159   1.015   1.644   4.643
  493SOL    HW2 2160   0.891   1.650   4.556
  494SOL     OW 2161   0.392   0.694   4.198
  494SOL    HW1 2162   0.418   0.603   4.209
  494SOL    HW2 2163   0.300   0.696   4.225
  495SOL     OW 2164   1.526   0.232   5.446
  495SOL    HW1 2165   1.525   0.256   5.539
  495SOL    HW2 2166   1.451   0.174   5.435
  496SOL     OW 2167   0.622   0.123   3.840
  496SOL    HW1 2168   0.710   0.088   3.853
  496SOL    HW2 2169   0.593   0.086   3.757
  497SOL     OW 2170   0.769   0.269   5.477
  497SOL    HW1 2171   0.835   0.201   5.493
  497SOL    HW2 2172   0.724   0.279   5.561
  498SOL     OW 2173   0.878   1.522   4.916
  498SOL    HW1 2174   0.862   1.485   4.830
  498SOL    HW2 2175   0.945   1.466   4.954
  499SOL     OW 2176   1.342   0.589   5.154
  499SOL    HW1 2177   1.370   0.559   5.240
  499SOL    HW2 2178   1.377   0.678   5.147
  500SOL     OW 2179   0.813   1.398   4.660
  500SOL    HW1 2180   0.897   1.388   4.615
  500SOL    HW2 2181   0.747   1.396   4.590
  501SOL     OW 2182   0.922   0.515   4.626
  501SOL    HW1 2183   0.905   0.513   4.532
  501SOL    HW2 2184   0.963   0.431   4.645
  502SOL     OW 2185   0.558   0.067   4.233
  502SOL    HW1 2186   0.470   0.054   4.269
  502SOL    HW2 2187   0.548   0.140   4.172
  503SOL     OW 2188   1.428   1.197   3.765
  503SOL    HW1 2189   1.459   1.122   3.815
  503SOL    HW2 2190   1.342   1.217   3.802
  504SOL     OW 2191   0.303   0.076   3.908
  504SOL    HW1 2192   0.386   0.122   3.903
  504SOL    HW2 2193   0.321   4.500   3.962
  505SOL     OW 2194   0.950   0.241   4.197
  505SOL    HW1 2195   0.898   0.288   4.132
  505SOL    HW2 2196   1.039   0.275   4.187
  506SOL     OW 2197   1.080   0.679   5.185
  506SOL    HW1 2198   1.008   0.616   5.187
  506SOL    HW2 2199   1.159   0.626   5.173
  507SOL     OW 2200   1.219   1.571   4.518
  507SOL    HW1 2201   1.241   1.637   4.452
  507SOL    HW2 2202   1.295   1.568   4.575
  508SOL     OW 2203   0.465   1.148   4.462
  508SOL    HW1 2204   0.393   1.129   4.522
  508SOL    HW2 2205   0.428   1.131   4.375
  509SOL     OW 2206   1.271   1.795   4.331
  509SOL    HW1 2207   1.316   1.856   4.272
  509SOL    HW2 2208   1.205   1.849   4.375
  510SOL     OW 2209   1.030   0.549   3.739
  510SOL    HW1 2210   0.983   0.631   3.723
  510SOL    HW2 2211   1.089   0.569   3.811
  511SOL     OW 2212   0.091   0.524   5.136
  511SOL    HW1 2213   0.152   0.535   5.063
  511SOL    HW2 2214   0.062   0.613   5.155
  512SOL     OW 2215   0.563   0.242   4.889
  512SOL    HW1 2216   0.594   0.157   4.921
  512SOL    HW2 2217   0.470   0.243   4.909
  513SOL     OW 2218   0.866   0.501   4.350
  513SOL    HW1 2219   0.815   0.543   4.281
  513SOL    HW2 2220   0.850   0.407   4.338
  514SOL     OW 2221   0.970   0.031   4.499
  514SOL    HW1 2222   0.921   0.027   4.417
  514SOL    HW2 2223   0.980   4.440   4.526
  515SOL     OW 2224   1.436   1.166   4.582
  515SOL    HW1 2225   1.369   1.097   4.580
  515SOL    HW2 2226   1.462   1.177   4.491
  516SOL     OW 2227   1.468   0.603   4.704
  516SOL    HW1 2228   1.417   0.522   4.707
  516SOL    HW2 2229   1.527   0.597   4.779
  517SOL     OW 2230   1.847   0.819   4.105
  517SOL    HW1 2231   1.903   0.767   4.163
  517SOL    HW2 2232   1.818   0.757   4.038
  518SOL     OW 2233   0.492   1.413   3.886
  518SOL    HW1 2234   0.416   1.384   3.936
  518SOL    HW2 2235   0.471   1.394   3.795
  519SOL     OW 2236   1.669   1.268   4.375
  519SOL    HW1 2237   1.764   1.270   4.385
  519SOL    HW2 2238   1.640   1.357   4.395
  520SOL     OW 2239   1.394   0.570   3.794
  520SOL    HW1 2240   1.333   0.554   3.866
  520SOL    HW2 2241   1.480   0.549   3.829
  521SOL     OW 2242   0.523   0.264   4.047
  521SOL    HW1 2243   0.568   0.213   3.979
  521SOL    HW2 2244   0.509   0.350   4.006
  522SOL     OW 2245   1.752   1.227   5.298
  522SOL    HW1 2246   1.842   1.192   5.294
  522SOL    HW2 2247   1.760   1.306   5.352
  523SOL     OW 2248   1.060   1.355   5.060
  523SOL    HW1 2249   0.985   1.323   5.111
  523SOL    HW2 2250   1.136   1.313   5.100
  524SOL     OW 2251   1.595   1.606   5.321
  524SOL    HW1 2252   1.613   1.685   5.271
  524SOL    HW2 2253   1.669   1.599   5.382
  525SOL     OW 2254   1.127   1.204   4.831
  525SOL    HW1 2255   1.066   1.239   4.896
  525SOL    HW2 2256   1.091   1.231   4.747
  526SOL     OW 2257   1.630   1.100   4.803
  526SOL    HW1 2258   1.623   1.160   4.876
  526SOL    HW2 2259   1.550   1.114   4.752
  527SOL     OW 2260   0.904   0.131   5.114
  527SOL    HW1 2261   0.926   0.086   5.032
  527SOL    HW2 2262   0.988   0.143   5.158
  528SOL     OW 2263   0.984   1.115   5.446
  528SOL    HW1 2264   0.892   1.130   5.466
  528SOL    HW2 2265   0.984   1.037   5.390
  529SOL     OW 2266   0.708   1.060   4.097
  529SOL    HW1 2267   0.696   1.046   4.191
  529SOL    HW2 2268   0.784   1.007   4.074
  530SOL     OW 2269   0.429   0.823   4.963
  530SOL    HW1 2270   0.497   0.834   5.029
  530SOL    HW2 2271   0.370   0.757   4.999
  531SOL     OW 2272   1.270   0.377   4.996
  531SOL    HW1 2273   1.301   0.455   5.041
  531SOL    HW2 2274   1.181   0.399   4.967
  532SOL     OW 2275   0.061   1.576   5.064
  532SOL    HW1 2276   0.033   1.663   5.038
  532SOL    HW2 2277   0.156   1.582   5.070
  533SOL     OW 2278   0.351   1.106   4.218
  533SOL    HW1 2279   0.359   1.180   4.157
  533SOL    HW2 2280   0.353   1.029   4.162
  534SOL     OW 2281   0.564   0.530   4.579
  534SOL    HW1 2282   0.577   0.590   4.506
  534SOL    HW2 2283   0.622   0.563   4.648
  535SOL     OW 2284   1.248   1.348   4.113
  535SOL    HW1 2285   1.303   1.420   4.143
  535SOL    HW2 2286   1.161   1.368   4.147
  536SOL     OW 2287   1.276   1.455   4.872
  536SOL    HW1 2288   1.329   1.454   4.952
  536SOL    HW2 2289   1.220   1.378   4.878
  537SOL     OW 2290   1.583   0.625   4.199
  537SOL    HW1 2291   1.539   0.679   4.265
  537SOL    HW2 2292   1.629   0.688   4.143
  538SOL     OW 2293   0.348   1.529   5.042
  538SOL    HW1 2294   0.333   1.482   4.960
  538SOL    HW2 2295   0.443   1.539   5.046
  539SOL     OW 2296   0.477   0.760   5.388
  539SOL    HW1 2297   0.502   0.800   5.304
  539SOL    HW2 2298   0.508   0.670   5.382
  540SOL     OW 2299   1.598   0.777   5.404
  540SOL    HW1 2300   1.511   0.817   5.396
  540SOL    HW2 2301   1.650   0.819   5.335
  541SOL     OW 2302   1.007   0.087   5.451
  541SOL    HW1 2303   1.029   0.171   5.411
  541SOL    HW2 2304   1.033   0.022   5.385
  542SOL     OW 2305   0.496   0.046   5.473
  542SOL    HW1 2306   0.478   4.497   5.393
  542SOL    HW2 2307   0.429   0.114   5.476
  543SOL     OW 2308   0.588   0.873   4.748
  543SOL    HW1 2309   0.616   0.965   4.750
  543SOL    HW2 2310   0.531   0.864   4.824
  544SOL     OW 2311   1.360   0.859   4.758
  544SOL    HW1 2312   1.280   0.852   4.707
  544SOL    HW2 2313   1.398   0.771   4.754
  545SOL     OW 2314   1.207   0.534   3.990
  545SOL    HW1 2315   1.212   0.454   4.042
  545SOL    HW2 2316   1.164   0.597   4.049
  546SOL     OW 2317   0.285   0.220   4.958
  546SOL    HW1 2318   0.250   0.237   5.046
  546SOL    HW2 2319   0.321   0.131   4.964
  547SOL     OW 2320   0.048   1.313   5.008
  547SOL    HW1 2321   0.078   1.266   5.086
  547SOL    HW2 2322   0.049   1.405   5.033
  548SOL     OW 2323   0.726   0.632   4.785
  548SOL    HW1 2324   0.798   0.611   4.726
  548SOL    HW2 2325   0.700   0.721   4.760
  549SOL     OW 2326   1.731   0.962   5.573
  549SOL    HW1 2327   1.684   0.902   5.514
  549SOL    HW2 2328   1.673   0.970   5.649
  550SOL     OW 2329   0.318   0.076   4.355
  550SOL    HW1 2330   0.300   0.164   4.389
  550SOL    HW2 2331   0.305   0.018   4.431
  551SOL     OW 2332   1.610   0.374   4.091
  551SOL    HW1 2333   1.642   0.312   4.156
  551SOL    HW2 2334   1.589   0.453   4.141
  552SOL     OW 2335   1.027   0.761   4.686
  552SOL    HW1 2336   1.027   0.777   4.781
  552SOL    HW2 2337   0.999   0.670   4.678
  553SOL     OW 2338   0.980   1.565   5.436
  553SOL    HW1 2339   0.967   1.610   5.353
  553SOL    HW2 2340   1.024   1.483   5.412
  554SOL     OW 2341   0.347   0.930   5.542
  554SOL    HW1 2342   0.422   0.958   5.596
  554SOL    HW2 2343   0.384   0.865   5.483
  555SOL     OW 2344   1.532   0.267   3.852
  555SOL    HW1 2345   1.460   0.211   3.879
  555SOL    HW2 2346   1.560   0.312   3.932
  556SOL     OW 2347   1.294   0.827   3.757
  556SOL    HW1 2348   1.336   0.741   3.759
  556SOL    HW2 2349   1.325   0.866   3.675
  557SOL     OW 2350   1.065   1.334   4.577
  557SOL    HW1 2351   1.067   1.261   4.515
  557SOL    HW2 2352   1.125   1.398   4.540
  558SOL     OW 2353   0.317   0.813   4.674
  558SOL    HW1 2354   0.411   0.830   4.669
  558SOL    HW2 2355   0.311   0.722   4.705
  559SOL     OW 2356   0.337   0.527   4.718
  559SOL    HW1 2357   0.292   0.445   4.698
  559SOL    HW2 2358   0.414   0.527   4.661
  560SOL     OW 2359   1.135   0.375   5.416
  560SOL    HW1 2360   1.088   0.440   5.469
  560SOL    HW2 2361   1.222   0.414   5.403
  561SOL     OW 2362   1.160   0.211   5.198
  561SOL    HW1 2363   1.152   0.275   5.268
  561SOL    HW2 2364   1.195   0.261   5.124
  562SOL     OW 2365   4.492   1.323   3.925
  562SOL    HW1 2366   4.399   1.338   3.908
  562SOL    HW2 2367   4.498   1.231   3.949
  563SOL     OW 2368   0.095   1.781   4.664
  563SOL    HW1 2369   0.057   1.721   4.600
  563SOL    HW2 2370   0.182   1.800   4.630
  564SOL     OW 2371   0.499   1.573   4.630
  564SOL    HW1 2372   0.567   1.636   4.654
  564SOL    HW2 2373   0.543   1.508   4.576
  565SOL     OW 2374   0.988   0.796   4.953
  565SOL    HW1 2375   1.040   0.769   5.029
  565SOL    HW2 2376   0.902   0.758   4.969
  566SOL     OW 2377   0.040   0.566   4.835
  566SOL    HW1 2378   0.115   0.521   4.794
  566SOL    HW2 2379   0.025   0.519   4.916
  567SOL     OW 2380   0.180   0.518   5.434
  567SOL    HW1 2381   0.266   0.501   5.395
  567SOL    HW2 2382   0.150   0.599   5.393
  568SOL     OW 2383   1.376   0.941   5.383
  568SOL    HW1 2384   1.395   1.035   5.383
  568SOL    HW2 2385   1.374   0.916   5.291
  569SOL     OW 2386   0.812   0.572   4.077
  569SOL    HW1 2387   0.815   0.500   4.013
  569SOL    HW2 2388   0.738   0.626   4.049
  570SOL     OW 2389   1.642   0.601   4.914
  570SOL    HW1 2390   1.631   0.541   4.987
  570SOL    HW2 2391   1.729   0.581   4.879
  571SOL     OW 2392   0.271   1.562   5.466
  571SOL    HW1 2393   0.217   1.614   5.525
  571SOL    HW2 2394   0.251   1.471   5.488
  572SOL     OW 2395   0.682   0.464   4.992
  572SOL    HW1 2396   0.646   0.383   4.955
  572SOL    HW2 2397   0.691   0.522   4.917
  573SOL     OW 2398   0.931   1.677   5.188
  573SOL    HW1 2399   0.902   1.649   5.102
  573SOL    HW2 2400   0.931   1.772   5.184
  574SOL     OW 2401   0.473   0.491   3.910
  574SOL    HW1 2402   0.532   0.563   3.931
  574SOL    HW2 2403   0.388   0.533   3.896
  575SOL     OW 2404   0.162   1.141   5.187
  575SOL    HW1 2405   0.148   1.093   5.269
  575SOL    HW2 2406   0.170   1.073   5.121
  576SOL     OW 2407   1.329   1.049   4.949
  576SOL    HW1 2408   1.353   0.986   4.881
  576SOL    HW2 2409   1.257   1.099   4.911
  577SOL     OW 2410   1.309   0.856   4.031
  577SOL    HW1 2411   1.232   0.827   4.080
  577SOL    HW2 2412   1.285   0.843   3.939
  578SOL     OW 2413   1.237   1.730   4.847
  578SOL    HW1 2414   1.323   1.745   4.807
  578SOL    HW2 2415   1.235   1.636   4.863
  579SOL     OW 2416   0.068   1.188   4.772
  579SOL    HW1 2417   0.073   1.223   4.861
  579SOL    HW2 2418   0.011   1.249   4.725
  580SOL     OW 2419   0.679   1.664   5.449
  580SOL    HW1 2420   0.626   1.743   5.445
  580SOL    HW2 2421   0.741   1.673   5.377
  581SOL     OW 2422   1.718   0.130   4.222
  581SOL    HW1 2423   1.792   0.135   4.161
  581SOL    HW2 2424   1.738   0.055   4.278
  582SOL     OW 2425   1.389   1.568   4.206
  582SOL    HW1 2426   1.450   1.597   4.139
  582SOL    HW2 2427   1.342   1.647   4.233
  583SOL     OW 2428   0.121   1.808   5.572
  583SOL    HW1 2429   0.081   1.734   5.618
  583SOL    HW2 2430   0.184   1.844   5.633
  584SOL     OW 2431   1.278   0.926   4.396
  584SOL    HW1 2432   1.351   0.863   4.400
  584SOL    HW2 2433   1.312   0.999   4.344
  585SOL     OW 2434   0.818   1.272   5.155
  585SOL    HW1 2435   0.792   1.311   5.239
  585SOL    HW2 2436   0.746   1.294   5.095
  586SOL     OW 2437   0.673   1.616   3.879
  586SOL    HW1 2438   0.681   1.627   3.784
  586SOL    HW2 2439   0.619   1.538   3.890
  587SOL     OW 2440   1.839   0.155   4.691
  587SOL    HW1 2441   1.868   0.080   4.640
  587SOL    HW2 2442   1.752   0.176   4.656
  588SOL     OW 2443   0.266   0.326   4.449
  588SOL    HW1 2444   0.184   0.361   4.414
  588SOL    HW2 2445   0.251   0.317   4.543
  589SOL     OW 2446   1.205   1.608   3.755
  589SOL    HW1 2447   1.197   1.517   3.782
  589SOL    HW2 2448   1.141   1.618   3.685
  590SOL     OW 2449   0.825   1.006   5.096
  590SOL    HW1 2450   0.867   1.003   5.010
  590SOL    HW2 2451   0.825   1.099   5.120
  591SOL     OW 2452   0.915   0.910   4.013
  591SOL    HW1 2453   0.977   0.942   3.948
  591SOL    HW2 2454   0.961   0.839   4.058
  592SOL     OW 2455   1.495   1.624   3.766
  592SOL    HW1 2456   1.400   1.621   3.754
  592SOL    HW2 2457   1.530   1.630   3.677
  593SOL     OW 2458   0.373   1.305   5.215
  593SOL    HW1 2459   0.356   1.384   5.163
  593SOL    HW2 2460   0.297   1.249   5.199
  594SOL     OW 2461   1.608   1.279   5.010
  594SOL    HW1 2462   1.671   1.273   5.082
  594SOL    HW2 2463   1.551   1.352   5.034
  595SOL     OW 2464   1.048   1.105   4.429
  595SOL    HW1 2465   0.978   1.054   4.469
  595SOL    HW2 2466   1.109   1.040   4.395
  596SOL     OW 2467   1.006   0.241   4.721
  596SOL    HW1 2468   1.014   0.213   4.630
  596SOL    HW2 2469   1.001   0.160   4.771
  597SOL     OW 2470   0.603   1.490   4.207
  597SOL    HW1 2471   0.641   1.439   4.136
  597SOL    HW2 2472   0.532   1.539   4.166
  598SOL     OW 2473   1.719   0.393   5.102
  598SOL    HW1 2474   1.791   0.456   5.101
  598SOL    HW2 2475   1.749   0.321   5.046
  599SOL     OW 2476   0.252   1.345   4.002
  599SOL    HW1 2477   0.157   1.346   3.987
  599SOL    HW2 2478   0.263   1.378   4.091
  600SOL     OW 2479   0.117   1.007   5.420
  600SOL    HW1 2480   0.052   1.046   5.479
  600SOL    HW2 2481   0.195   0.996   5.475
  601SOL     OW 2482   0.659   0.207   5.220
  601SOL    HW1 2483   0.739   0.181   5.174
  601SOL    HW2 2484   0.687   0.222   5.310
  602SOL     OW 2485   0.070   0.321   3.750
  602SOL    HW1 2486   4.475   0.330   3.760
  602SOL    HW2 2487   0.099   0.407   3.719
  603SOL     OW 2488   1.432   0.859   5.126
  603SOL    HW1 2489   1.383   0.917   5.068
  603SOL    HW2 2490   1.522   0.861   5.092
  604SOL     OW 2491   0.083   0.188   4.027
  604SOL    HW1 2492   0.080   0.260   3.964
  604SOL    HW2 2493   0.161   0.138   4.003
  605SOL     OW 2494   1.180   1.342   3.841
  605SOL    HW1 2495   1.089   1.312   3.844
  605SOL    HW2 2496   1.208   1.341   3.932
  606SOL     OW 2497   0.621   0.831   5.152
  606SOL    HW1 2498   0.675   0.909   5.140
  606SOL    HW2 2499   0.683   0.759   5.162
  607SOL     OW 2500   0.715   0.561   5.429
  607SOL    HW1 2501   0.747   0.629   5.489
  607SOL    HW2 2502   0.756   0.480   5.461
  608SOL     OW 2503   1.465   1.203   5.358
  608SOL    HW1 2504   1.456   1.216   5.452
  608SOL    HW2 2505   1.560   1.210   5.342
  609SOL     OW 2506   0.382   1.743   5.288
  609SOL    HW1 2507   0.297   1.782   5.272
  609SOL    HW2 2508   0.363   1.661   5.334
  610SOL     OW 2509   1.671   0.882   4.979
  610SOL    HW1 2510   1.663   0.796   4.937
  610SOL    HW2 2511   1.663   0.945   4.908
  611SOL     OW 2512   1.218   0.327   4.172
  611SOL    HW1 2513   1.283   0.258   4.163
  611SOL    HW2 2514   1.245   0.375   4.251
  612SOL     OW 2515   0.588   0.740   4.392
  612SOL    HW1 2516   0.630   0.825   4.375
  612SOL    HW2 2517   0.519   0.733   4.327
  613SOL     OW 2518   1.766   0.361   5.367
  613SOL    HW1 2519   1.749   0.375   5.274
  613SOL    HW2 2520   1.687   0.317   5.399
  614SOL     OW 2521   1.743   0.933   5.236
  614SOL    HW1 2522   1.745   1.028   5.248
  614SOL    HW2 2523   1.728   0.921   5.142
  615SOL     OW 2524   0.863   1.368   3.754
  615SOL    HW1 2525   0.823   1.395   3.837
  615SOL    HW2 2526   0.882   1.451   3.709
  616SOL     OW 2527   0.659   1.794   4.673
  616SOL    HW1 2528   0.637   1.884   4.647
  616SOL    HW2 2529   0.754   1.790   4.663
  617SOL     OW 2530   0.866   0.965   4.580
  617SOL    HW1 2531   0.916   0.894   4.620
  617SOL    HW2 2532   0.833   1.016   4.654
  618SOL     OW 2533   1.080   0.988   3.813
  618SOL    HW1 2534   1.058   1.038   3.734
  618SOL    HW2 2535   1.155   0.935   3.787
  619SOL     OW 2536   1.868   1.508   4.531
  619SOL    HW1 2537   1.783   1.549   4.513
  619SOL    HW2 2538   1.870   1.497   4.626
  620SOL     OW 2539   0.228   1.307   5.580
  620SOL    HW1 2540   0.159   1.246   5.555
  620SOL    HW2 2541   0.219   1.317   5.675
  621SOL     OW 2542   0.102   1.240   4.390
  621SOL    HW1 2543   0.105   1.188   4.471
  621SOL    HW2 2544   0.163   1.195   4.331
  622SOL     OW 2545   0.680   1.400   5.350
  622SOL    HW1 2546   0.600   1.356   5.378
  622SOL    HW2 2547   0.674   1.488   5.387
  623SOL     OW 2548   1.811   0.184   4.963
  623SOL    HW1 2549   1.810   0.090   4.984
  623SOL    HW2 2550   1.826   0.187   4.868
  624SOL     OW 2551   0.438   0.431   4.253
  624SOL    HW1 2552   0.458   0.360   4.192
  624SOL    HW2 2553   0.381   0.391   4.318
  625SOL     OW 2554   1.708   1.465   4.825
  625SOL    HW1 2555   1.623   1.451   4.783
  625SOL    HW2 2556   1.711   1.399   4.895
  626SOL     OW 2557   0.313   0.504   4.981
  626SOL    HW1 2558   0.385   0.456   5.023
  626SOL    HW2 2559   0.340   0.513   4.890
  627SOL     OW 2560   0.825   1.578   4.403
  627SOL    HW1 2561   0.819   1.624   4.320
  627SOL    HW2 2562   0.747   1.523   4.407
  628SOL     OW 2563   1.432   0.215   4.842
  628SOL    HW1 2564   1.469   0.145   4.896
  628SOL    HW2 2565   1.381   0.268   4.903
  629SOL     OW 2566   0.997   0.012   4.873
  629SOL    HW1 2567   0.951   4.429   4.861
  629SOL    HW2 2568   1.089   4.488   4.885
  630SOL     OW 2569   0.771   1.332   4.034
  630SOL    HW1 2570   0.737   1.243   4.041
  630SOL    HW2 2571   0.854   1.330   4.083
  631SOL     OW 2572   0.621   1.558   5.008
  631SOL    HW1 2573   0.624   1.639   5.059
  631SOL    HW2 2574   0.708   1.552   4.969
  632SOL     OW 2575   1.342   0.054   3.876
  632SOL    HW1 2576   1.382   4.479   3.831
  632SOL    HW2 2577   1.267   0.016   3.922
  633SOL     OW 2578   1.314   0.462   4.404
  633SOL    HW1 2579   1.252   0.535   4.405
  633SOL    HW2 2580   1.302   0.420   4.489
  634SOL     OW 2581   1.586   0.203   4.592
  634SOL    HW1 2582   1.525   0.217   4.664
  634SOL    HW2 2583   1.589   0.287   4.546
  635SOL     OW 2584   0.041   1.054   4.011
  635SOL    HW1 2585   0.136   1.042   4.004
  635SOL    HW2 2586   0.018   1.013   4.094
  636SOL     OW 2587   0.881   1.650   4.069
  636SOL    HW1 2588   0.810   1.631   4.007
  636SOL    HW2 2589   0.851   1.726   4.118
  637SOL     OW 2590   0.247   0.626   5.705
  637SOL    HW1 2591   0.171   0.611   5.761
  637SOL    HW2 2592   0.215   0.609   5.616
  638SOL     OW 2593   0.197   0.292   6.576
  638SOL    HW1 2594   0.234   0.269   6.661
  638SOL    HW2 2595   0.132   0.224   6.558
  639SOL     OW 2596   0.007   0.377   6.228
  639SOL    HW1 2597   4.427   0.414   6.267
  639SOL    HW2 2598   4.475   0.306   6.173
  640SOL     OW 2599   0.567   1.282   6.758
  640SOL    HW1 2600   0.479   1.287   6.720
  640SOL    HW2 2601   0.582   1.370   6.794
  641SOL     OW 2602   1.559   1.510   6.286
  641SOL    HW1 2603   1.513   1.495   6.369
  641SOL    HW2 2604   1.489   1.527   6.223
  642SOL     OW 2605   1.131   0.700   6.288
  642SOL    HW1 2606   1.180   0.781   6.276
  642SOL    HW2 2607   1.083   0.712   6.369
  643SOL     OW 2608   1.764   0.609   5.815
  643SOL    HW1 2609   1.745   0.597   5.722
  643SOL    HW2 2610   1.733   0.528   5.856
  644SOL     OW 2611   0.759   1.144   6.624
  644SOL    HW1 2612   0.689   1.178   6.680
  644SOL    HW2 2613   0.793   1.222   6.579
  645SOL     OW 2614   0.862   0.779   7.407
  645SOL    HW1 2615   0.850   0.851   7.469
  645SOL    HW2 2616   0.886   0.823   7.325
  646SOL     OW 2617   0.686   1.007   6.235
  646SOL    HW1 2618   0.750   0.992   6.304
  646SOL    HW2 2619   0.616   1.056   6.278
  647SOL     OW 2620   0.708   1.151   7.395
  647SOL    HW1 2621   0.755   1.231   7.420
  647SOL    HW2 2622   0.624   1.183   7.361
  648SOL     OW 2623   0.337   1.424   6.656
  648SOL    HW1 2624   0.255   1.404   6.609
  648SOL    HW2 2625   0.387   1.478   6.595
  649SOL     OW 2626   1.461   1.499   6.936
  649SOL    HW1 2627   1.508   1.581   6.948
  649SOL    HW2 2628   1.408   1.490   7.015
  650SOL     OW 2629   0.436   0.396   7.080
  650SOL    HW1 2630   0.524   0.359   7.081
  650SOL    HW2 2631   0.378   0.321   7.094
  651SOL     OW 2632   1.613   0.448   6.324
  651SOL    HW1 2633   1.532   0.472   6.278
  651SOL    HW2 2634   1.634   0.525   6.376
  652SOL     OW 2635   0.245   1.692   6.065
  652SOL    HW1 2636   0.233   1.777   6.108
  652SOL    HW2 2637   0.307   1.710   5.994
  653SOL     OW 2638   1.136   1.341   7.277
  653SOL    HW1 2639   1.175   1.337   7.364
  653SOL    HW2 2640   1.083   1.261   7.272
  654SOL     OW 2641   0.244   1.428   6.114
  654SOL    HW1 2642   0.237   1.523   6.119
  654SOL    HW2 2643   0.180   1.395   6.177
  655SOL     OW 2644   0.244   1.081   6.468
  655SOL    HW1 2645   0.263   0.994   6.503
  655SOL    HW2 2646   0.188   1.121   6.534
  656SOL     OW 2647   0.616   1.790   7.018
  656SOL    HW1 2648   0.533   1.773   7.061
  656SOL    HW2 2649   0.637   1.881   7.042
  657SOL     OW 2650   0.584   0.983   5.721
  657SOL    HW1 2651   0.629   1.031   5.651
  657SOL    HW2 2652   0.630   1.010   5.801
  658SOL     OW 2653   1.585   0.114   7.060
  658SOL    HW1 2654   1.597   0.183   6.994
  658SOL    HW2 2655   1.575   0.162   7.143
  659SOL     OW 2656   0.136   0.642   6.161
  659SOL    HW1 2657   0.083   0.564   6.174
  659SOL    HW2 2658   0.107   0.703   6.229
  660SOL     OW 2659   0.033   1.601   5.722
  660SOL    HW1 2660   0.021   1.506   5.723
  660SOL    HW2 2661   0.010   1.629   5.810
  661SOL     OW 2662   1.689   0.919   6.222
  661SOL    HW1 2663   1.775   0.881   6.206
  661SOL    HW2 2664   1.669   0.969   6.143
  662SOL     OW 2665   1.645   1.111   6.016
  662SOL    HW1 2666   1.731   1.116   5.975
  662SOL    HW2 2667   1.651   1.170   6.091
  663SOL     OW 2668   0.107   0.760   7.174
  663SOL    HW1 2669   0.201   0.760   7.158
  663SOL    HW2 2670   0.084   0.853   7.180
  664SOL     OW 2671   0.613   1.382   6.322
  664SOL    HW1 2672   0.566   1.299   6.330
  664SOL    HW2 2673   0.596   1.409   6.231
  665SOL     OW 2674   1.290   1.239   7.010
  665SOL    HW1 2675   1.323   1.172   6.950
  665SOL    HW2 2676   1.346   1.231   7.088
  666SOL     OW 2677   0.817   0.011   6.132
  666SOL    HW1 2678   0.850   0.098   6.109
  666SOL    HW2 2679   0.722   0.019   6.122
  667SOL     OW 2680   0.183   0.944   6.865
  667SOL    HW1 2681   0.274   0.927   6.842
  667SOL    HW2 2682   0.133   0.920   6.787
  668SOL     OW 2683   1.532   0.991   5.783
  668SOL    HW1 2684   1.462   0.934   5.813
  668SOL    HW2 2685   1.572   1.025   5.863
  669SOL     OW 2686   1.185   1.804   7.206
  669SOL    HW1 2687   1.201   1.861   7.131
  669SOL    HW2 2688   1.200   1.715   7.173
  670SOL     OW 2689   0.318   0.260   7.358
  670SOL    HW1 2690   0.386   0.312   7.400
  670SOL    HW2 2691   0.242   0.269   7.416
  671SOL     OW 2692   1.456   1.426   6.534
  671SOL    HW1 2693   1.393   1.433   6.606
  671SOL    HW2 2694   1.453   1.334   6.508
  672SOL     OW 2695   0.596   0.723   5.850
  672SOL    HW1 2696   0.601   0.803   5.798
  672SOL    HW2 2697   0.530   0.743   5.917
  673SOL     OW 2698   1.290   0.358   6.520
  673SOL    HW1 2699   1.201   0.326   6.505
  673SOL    HW2 2700   1.327   0.296   6.583
  674SOL     OW 2701   0.797   0.617   7.040
  674SOL    HW1 2702   0.769   0.594   7.129
  674SOL    HW2 2703   0.752   0.554   6.984
  675SOL     OW 2704   1.389   0.478   7.262
  675SOL    HW1 2705   1.391   0.522   7.347
  675SOL    HW2 2706   1.456   0.410   7.269
  676SOL     OW 2707   0.958   0.889   7.167
  676SOL    HW1 2708   1.012   0.817   7.133
  676SOL    HW2 2709   0.911   0.922   7.090
  677SOL     OW 2710   0.996   0.417   6.824
  677SOL    HW1 2711   0.911   0.430   6.866
  677SOL    HW2 2712   0.976   0.365   6.746
  678SOL     OW 2713   1.049   0.698   6.014
  678SOL    HW1 2714   1.064   0.691   6.108
  678SOL    HW2 2715   0.967   0.651   5.999
  679SOL     OW 2716   0.099   0.823   6.369
  679SOL    HW1 2717   0.185   0.804   6.405
  679SOL    HW2 2718   0.053   0.870   6.438
  680SOL     OW 2719   0.125   1.853   7.162
  680SOL    HW1 2720   0.119   1.829   7.254
  680SOL    HW2 2721   0.045   1.818   7.123
  681SOL     OW 2722   0.853   0.367   5.763
  681SOL    HW1 2723   0.929   0.403   5.718
  681SOL    HW2 2724   0.871   0.274   5.771
  682SOL     OW 2725   1.706   0.576   7.414
  682SOL    HW1 2726   1.671   0.653   7.369
  682SOL    HW2 2727   1.739   0.520   7.344
  683SOL     OW 2728   1.374   1.142   6.127
  683SOL    HW1 2729   1.454   1.129   6.076
  683SOL    HW2 2730   1.323   1.204   6.076
  684SOL     OW 2731   0.543   0.202   6.487
  684SOL    HW1 2732   0.562   0.221   6.579
  684SOL    HW2 2733   0.534   0.288   6.446
  685SOL     OW 2734   1.009   1.446   6.060
  685SOL    HW1 2735   0.967   1.517   6.011
  685SOL    HW2 2736   0.993   1.468   6.152
  686SOL     OW 2737   0.354   1.807   6.442
  686SOL    HW1 2738   0.397   1.723   6.453
  686SOL    HW2 2739   0.424   1.872   6.456
  687SOL     OW 2740   1.799   1.055   6.453
  687SOL    HW1 2741   1.741   1.045   6.378
  687SOL    HW2 2742   1.740   1.063   6.528
  688SOL     OW 2743   1.227   1.540   7.098
  688SOL    HW1 2744   1.214   1.467   7.159
  688SOL    HW2 2745   1.166   1.522   7.027
  689SOL     OW 2746   0.317   0.954   5.835
  689SOL    HW1 2747   0.402   0.976   5.796
  689SOL    HW2 2748   0.300   0.865   5.805
  690SOL     OW 2749   1.476   0.739   6.312
  690SOL    HW1 2750   1.463   0.693   6.395
  690SOL    HW2 2751   1.552   0.795   6.327
  691SOL     OW 2752   0.465   1.261   7.321
  691SOL    HW1 2753   0.437   1.268   7.230
  691SOL    HW2 2754   0.384   1.267   7.372
  692SOL     OW 2755   1.110   1.770   5.825
  692SOL    HW1 2756   1.037   1.724   5.867
  692SOL    HW2 2757   1.134   1.715   5.751
  693SOL     OW 2758   0.167   0.262   7.094
  693SOL    HW1 2759   0.135   0.349   7.068
  693SOL    HW2 2760   0.199   0.275   7.184
  694SOL     OW 2761   1.631   1.384   5.663
  694SOL    HW1 2762   1.579   1.464   5.653
  694SOL    HW2 2763   1.568   1.313   5.654
  695SOL     OW 2764   0.469   1.744   5.900
  695SOL    HW1 2765   0.508   1.796   5.970
  695SOL    HW2 2766   0.544   1.712   5.849
  696SOL     OW 2767   1.416   0.132   6.004
  696SOL    HW1 2768   1.399   0.084   5.923
  696SOL    HW2 2769   1.511   0.130   6.014
  697SOL     OW 2770   0.257   1.791   6.822
  697SOL    HW1 2771   0.306   1.718   6.861
  697SOL    HW2 2772   0.229   1.758   6.737
  698SOL     OW 2773   0.938   1.698   6.486
  698SOL    HW1 2774   1.015   1.645   6.506
  698SOL    HW2 2775   0.892   1.650   6.418
  699SOL     OW 2776   0.392   0.694   6.060
  699SOL    HW1 2777   0.418   0.603   6.071
  699SOL    HW2 2778   0.300   0.696   6.086
  700SOL     OW 2779   1.526   0.232   7.308
  700SOL    HW1 2780   1.525   0.256   7.401
  700SOL    HW2 2781   1.451   0.174   7.297
  701SOL     OW 2782   0.622   0.123   5.702
  701SOL    HW1 2783   0.710   0.088   5.715
  701SOL    HW2 2784   0.593   0.087   5.619
  702SOL     OW 2785   0.769   0.269   7.338
  702SOL    HW1 2786   0.835   0.201   7.355
  702SOL    HW2 2787   0.724   0.279   7.423
  703SOL     OW 2788   0.878   1.522   6.779
  703SOL    HW1 2789   0.862   1.485   6.692
  703SOL    HW2 2790   0.946   1.466   6.817
  704SOL     OW 2791   1.342   0.589   7.016
  704SOL    HW1 2792   1.370   0.559   7.102
  704SOL    HW2 2793   1.376   0.678   7.009
  705SOL     OW 2794   0.813   1.398   6.522
  705SOL    HW1 2795   0.897   1.388   6.477
  705SOL    HW2 2796   0.747   1.396   6.452
  706SOL     OW 2797   0.922   0.515   6.488
  706SOL    HW1 2798   0.905   0.513   6.394
  706SOL    HW2 2799   0.963   0.431   6.507
  707SOL     OW 2800   0.558   0.067   6.095
  707SOL    HW1 2801   0.470   0.054   6.131
  707SOL    HW2 2802   0.548   0.140   6.034
  708SOL     OW 2803   1.432   1.199   5.630
  708SOL    HW1 2804   1.460   1.122   5.678
  708SOL    HW2 2805   1.344   1.218   5.662
  709SOL     OW 2806   0.303   0.076   5.770
  709SOL    HW1 2807   0.386   0.123   5.765
  709SOL    HW2 2808   0.321   4.500   5.824
  710SOL     OW 2809   0.950   0.241   6.059
  710SOL    HW1 2810   0.898   0.288   5.994
  710SOL    HW2 2811   1.038   0.275   6.049
  711SOL     OW 2812   1.080   0.679   7.047
  711SOL    HW1 2813   1.008   0.616   7.049
  711SOL    HW2 2814   1.159   0.627   7.036
  712SOL     OW 2815   1.219   1.570   6.380
  712SOL    HW1 2816   1.244   1.636   6.315
  712SOL    HW2 2817   1.294   1.565   6.439
  713SOL     OW 2818   0.465   1.148   6.324
  713SOL    HW1 2819   0.393   1.129   6.384
  713SOL    HW2 2820   0.428   1.131   6.237
  714SOL     OW 2821   1.270   1.795   6.188
  714SOL    HW1 2822   1.314   1.861   6.134
  714SOL    HW2 2823   1.204   1.844   6.237
  715SOL     OW 2824   1.031   0.549   5.600
  715SOL    HW1 2825   0.983   0.631   5.585
  715SOL    HW2 2826   1.089   0.569   5.674
  716SOL     OW 2827   0.091   0.524   6.997
  716SOL    HW1 2828   0.152   0.535   6.925
  716SOL    HW2 2829   0.062   0.614   7.017
  717SOL     OW 2830   0.564   0.242   6.751
  717SOL    HW1 2831   0.594   0.157   6.783
  717SOL    HW2 2832   0.470   0.243   6.771
  718SOL     OW 2833   0.866   0.501   6.212
  718SOL    HW1 2834   0.815   0.543   6.143
  718SOL    HW2 2835   0.850   0.407   6.200
  719SOL     OW 2836   0.970   0.032   6.361
  719SOL    HW1 2837   0.921   0.027   6.279
  719SOL    HW2 2838   0.981   4.440   6.388
  720SOL     OW 2839   1.437   1.165   6.445
  720SOL    HW1 2840   1.370   1.097   6.441
  720SOL    HW2 2841   1.462   1.179   6.354
  721SOL     OW 2842   1.468   0.602   6.565
  721SOL    HW1 2843   1.417   0.521   6.569
  721SOL    HW2 2844   1.527   0.597   6.640
  722SOL     OW 2845   1.847   0.819   5.967
  722SOL    HW1 2846   1.903   0.767   6.025
  722SOL    HW2 2847   1.818   0.757   5.900
  723SOL     OW 2848   0.492   1.413   5.748
  723SOL    HW1 2849   0.416   1.384   5.798
  723SOL    HW2 2850   0.471   1.394   5.657
  724SOL     OW 2851   1.669   1.268   6.235
  724SOL    HW1 2852   1.764   1.271   6.246
  724SOL    HW2 2853   1.639   1.356   6.256
  725SOL     OW 2854   1.394   0.570   5.656
  725SOL    HW1 2855   1.333   0.554   5.728
  725SOL    HW2 2856   1.480   0.548   5.691
  726SOL     OW 2857   0.523   0.264   5.909
  726SOL    HW1 2858   0.568   0.213   5.841
  726SOL    HW2 2859   0.509   0.350   5.868
  727SOL     OW 2860   1.754   1.236   7.164
  727SOL    HW1 2861   1.842   1.198   7.159
  727SOL    HW2 2862   1.768   1.326   7.192
  728SOL     OW 2863   1.060   1.354   6.921
  728SOL    HW1 2864   0.986   1.322   6.972
  728SOL    HW2 2865   1.136   1.312   6.962
  729SOL     OW 2866   1.605   1.624   7.237
  729SOL    HW1 2867   1.602   1.659   7.148
  729SOL    HW2 2868   1.689   1.579   7.243
  730SOL     OW 2869   1.126   1.202   6.693
  730SOL    HW1 2870   1.067   1.239   6.759
  730SOL    HW2 2871   1.091   1.232   6.609
  731SOL     OW 2872   1.631   1.100   6.664
  731SOL    HW1 2873   1.626   1.161   6.737
  731SOL    HW2 2874   1.551   1.115   6.615
  732SOL     OW 2875   0.904   0.131   6.976
  732SOL    HW1 2876   0.926   0.086   6.894
  732SOL    HW2 2877   0.988   0.143   7.020
  733SOL     OW 2878   0.984   1.114   7.308
  733SOL    HW1 2879   0.891   1.129   7.328
  733SOL    HW2 2880   0.984   1.037   7.252
  734SOL     OW 2881   0.708   1.060   5.959
  734SOL    HW1 2882   0.696   1.046   6.053
  734SOL    HW2 2883   0.784   1.007   5.936
  735SOL     OW 2884   0.429   0.823   6.825
  735SOL    HW1 2885   0.497   0.834   6.891
  735SOL    HW2 2886   0.370   0.757   6.862
  736SOL     OW 2887   1.270   0.377   6.858
  736SOL    HW1 2888   1.301   0.455   6.903
  736SOL    HW2 2889   1.181   0.399   6.829
  737SOL     OW 2890   0.061   1.575   6.925
  737SOL    HW1 2891   0.033   1.664   6.900
  737SOL    HW2 2892   0.156   1.582   6.932
  738SOL     OW 2893   0.351   1.106   6.080
  738SOL    HW1 2894   0.359   1.180   6.019
  738SOL    HW2 2895   0.353   1.029   6.024
  739SOL     OW 2896   0.564   0.530   6.441
  739SOL    HW1 2897   0.577   0.590   6.368
  739SOL    HW2 2898   0.622   0.563   6.510
  740SOL     OW 2899   1.248   1.348   5.975
  740SOL    HW1 2900   1.302   1.420   6.008
  740SOL    HW2 2901   1.160   1.367   6.008
  741SOL     OW 2902   1.276   1.455   6.734
  741SOL    HW1 2903   1.331   1.457   6.812
  741SOL    HW2 2904   1.221   1.377   6.744
  742SOL     OW 2905   1.583   0.625   6.061
  742SOL    HW1 2906   1.539   0.679   6.127
  742SOL    HW2 2907   1.629   0.688   6.006
  743SOL     OW 2908   0.348   1.528   6.904
  743SOL    HW1 2909   0.333   1.482   6.822
  743SOL    HW2 2910   0.443   1.539   6.909
  744SOL     OW 2911   0.477   0.760   7.249
  744SOL    HW1 2912   0.502   0.800   7.166
  744SOL    HW2 2913   0.509   0.670   7.244
  745SOL     OW 2914   1.597   0.777   7.264
  745SOL    HW1 2915   1.511   0.818   7.257
  745SOL    HW2 2916   1.650   0.819   7.197
  746SOL     OW 2917   1.007   0.087   7.313
  746SOL    HW1 2918   1.029   0.171   7.273
  746SOL    HW2 2919   1.033   0.022   7.247
  747SOL     OW 2920   0.496   0.046   7.335
  747SOL    HW1 2921   0.478   4.497   7.255
  747SOL    HW2 2922   0.429   0.114   7.338
  748SOL     OW 2923   0.588   0.874   6.609
  748SOL    HW1 2924   0.617   0.965   6.612
  748SOL    HW2 2925   0.531   0.864   6.686
  749SOL     OW 2926   1.360   0.859   6.619
  749SOL    HW1 2927   1.279   0.852   6.569
  749SOL    HW2 2928   1.398   0.771   6.616
  750SOL     OW 2929   1.207   0.534   5.852
  750SOL    HW1 2930   1.213   0.454   5.904
  750SOL    HW2 2931   1.164   0.597   5.911
  751SOL     OW 2932   0.285   0.220   6.820
  751SOL    HW1 2933   0.250   0.237   6.908
  751SOL    HW2 2934   0.321   0.131   6.826
  752SOL     OW 2935   0.047   1.313   6.870
  752SOL    HW1 2936   0.078   1.266   6.947
  752SOL    HW2 2937   0.049   1.405   6.895
  753SOL     OW 2938   0.725   0.632   6.647
  753SOL    HW1 2939   0.798   0.611   6.588
  753SOL    HW2 2940   0.700   0.721   6.621
  754SOL     OW 2941   1.733   0.958   7.437
  754SOL    HW1 2942   1.685   0.904   7.375
  754SOL    HW2 2943   1.673   0.970   7.511
  755SOL     OW 2944   0.317   0.076   6.217
  755SOL    HW1 2945   0.300   0.164   6.251
  755SOL    HW2 2946   0.305   0.018   6.293
  756SOL     OW 2947   1.610   0.374   5.952
  756SOL    HW1 2948   1.642   0.312   6.018
  756SOL    HW2 2949   1.589   0.453   6.003
  757SOL     OW 2950   1.027   0.761   6.548
  757SOL    HW1 2951   1.027   0.777   6.643
  757SOL    HW2 2952   0.999   0.670   6.540
  758SOL     OW 2953   0.983   1.566   7.300
  758SOL    HW1 2954   0.967   1.610   7.217
  758SOL    HW2 2955   1.025   1.484   7.276
  759SOL     OW 2956   1.856   1.509   7.192
  759SOL    HW1 2957   1.872   1.534   7.101
  759SOL    HW2 2958   1.938   1.531   7.238
  760SOL     OW 2959   0.347   0.930   7.404
  760SOL    HW1 2960   0.421   0.958   7.458
  760SOL    HW2 2961   0.384   0.864   7.345
  761SOL     OW 2962   1.532   0.267   5.714
  761SOL    HW1 2963   1.460   0.211   5.742
  761SOL    HW2 2964   1.560   0.312   5.794
  762SOL     OW 2965   1.294   0.827   5.619
  762SOL    HW1 2966   1.336   0.741   5.621
  762SOL    HW2 2967   1.325   0.865   5.536
  763SOL     OW 2968   1.064   1.334   6.438
  763SOL    HW1 2969   1.067   1.261   6.377
  763SOL    HW2 2970   1.125   1.398   6.403
  764SOL     OW 2971   0.317   0.813   6.536
  764SOL    HW1 2972   0.411   0.831   6.531
  764SOL    HW2 2973   0.311   0.722   6.567
  765SOL     OW 2974   0.337   0.527   6.580
  765SOL    HW1 2975   0.292   0.445   6.560
  765SOL    HW2 2976   0.414   0.527   6.523
  766SOL     OW 2977   1.135   0.375   7.278
  766SOL    HW1 2978   1.088   0.440   7.331
  766SOL    HW2 2979   1.222   0.414   7.265
  767SOL     OW 2980   1.160   0.211   7.060
  767SOL    HW1 2981   1.152   0.275   7.130
  767SOL    HW2 2982   1.195   0.261   6.986
  768SOL     OW 2983   4.492   1.323   5.787
  768SOL    HW1 2984   4.399   1.338   5.770
  768SOL    HW2 2985   4.498   1.231   5.811
  769SOL     OW 2986   0.095   1.781   6.525
  769SOL    HW1 2987   0.057   1.721   6.462
  769SOL    HW2 2988   0.182   1.801   6.492
  770SOL     OW 2989   0.499   1.573   6.492
  770SOL    HW1 2990   0.567   1.636   6.516
  770SOL    HW2 2991   0.543   1.508   6.438
  771SOL     OW 2992   0.988   0.795   6.815
  771SOL    HW1 2993   1.041   0.770   6.891
  771SOL    HW2 2994   0.902   0.758   6.832
  772SOL     OW 2995   0.040   0.566   6.696
  772SOL    HW1 2996   0.115   0.521   6.656
  772SOL    HW2 2997   0.025   0.519   6.778
  773SOL     OW 2998   0.180   0.518   7.296
  773SOL    HW1 2999   0.266   0.501   7.257
  773SOL    HW2 3000   0.150   0.599   7.255
  774SOL     OW 3001   1.376   0.941   7.245
  774SOL    HW1 3002   1.396   1.035   7.246
  774SOL    HW2 3003   1.374   0.917   7.153
  775SOL     OW 3004   0.812   0.572   5.938
  775SOL    HW1 3005   0.815   0.500   5.875
  775SOL    HW2 3006   0.738   0.626   5.910
  776SOL     OW 3007   1.642   0.601   6.775
  776SOL    HW1 3008   1.631   0.541   6.849
  776SOL    HW2 3009   1.729   0.580   6.741
  777SOL     OW 3010   0.271   1.562   7.327
  777SOL    HW1 3011   0.217   1.614   7.387
  777SOL    HW2 3012   0.250   1.471   7.350
  778SOL     OW 3013   0.682   0.464   6.854
  778SOL    HW1 3014   0.646   0.383   6.817
  778SOL    HW2 3015   0.691   0.522   6.779
  779SOL     OW 3016   0.931   1.679   7.052
  779SOL    HW1 3017   0.903   1.648   6.965
  779SOL    HW2 3018   0.929   1.774   7.045
  780SOL     OW 3019   0.473   0.491   5.772
  780SOL    HW1 3020   0.532   0.563   5.793
  780SOL    HW2 3021   0.388   0.533   5.758
  781SOL     OW 3022   0.161   1.141   7.049
  781SOL    HW1 3023   0.148   1.093   7.131
  781SOL    HW2 3024   0.170   1.073   6.983
  782SOL     OW 3025   1.329   1.049   6.811
  782SOL    HW1 3026   1.353   0.986   6.743
  782SOL    HW2 3027   1.256   1.098   6.773
  783SOL     OW 3028   1.309   0.856   5.893
  783SOL    HW1 3029   1.233   0.827   5.943
  783SOL    HW2 3030   1.285   0.843   5.801
  784SOL     OW 3031   1.773   1.746   6.748
  784SOL    HW1 3032   1.815   1.781   6.669
  784SOL    HW2 3033   1.742   1.659   6.722
  785SOL     OW 3034   1.236   1.729   6.705
  785SOL    HW1 3035   1.326   1.746   6.676
  785SOL    HW2 3036   1.234   1.635   6.723
  786SOL     OW 3037   0.068   1.188   6.634
  786SOL    HW1 3038   0.073   1.223   6.723
  786SOL    HW2 3039   0.011   1.250   6.587
  787SOL     OW 3040   0.679   1.664   7.311
  787SOL    HW1 3041   0.626   1.743   7.308
  787SOL    HW2 3042   0.741   1.673   7.239
  788SOL     OW 3043   1.718   0.130   6.084
  788SOL    HW1 3044   1.792   0.135   6.023
  788SOL    HW2 3045   1.738   0.055   6.140
  789SOL     OW 3046   1.388   1.570   6.067
  789SOL    HW1 3047   1.449   1.604   6.002
  789SOL    HW2 3048   1.340   1.647   6.098
  790SOL     OW 3049   0.120   1.808   7.434
  790SOL    HW1 3050   0.081   1.734   7.480
  790SOL    HW2 3051   0.184   1.844   7.495
  791SOL     OW 3052   1.278   0.926   6.258
  791SOL    HW1 3053   1.351   0.863   6.262
  791SOL    HW2 3054   1.312   0.998   6.206
  792SOL     OW 3055   0.818   1.272   7.017
  792SOL    HW1 3056   0.792   1.311   7.101
  792SOL    HW2 3057   0.746   1.294   6.958
  793SOL     OW 3058   0.673   1.617   5.741
  793SOL    HW1 3059   0.681   1.627   5.646
  793SOL    HW2 3060   0.619   1.538   5.752
  794SOL     OW 3061   1.628   1.726   6.980
  794SOL    HW1 3062   1.681   1.732   6.900
  794SOL    HW2 3063   1.616   1.817   7.008
  795SOL     OW 3064   1.839   0.156   6.553
  795SOL    HW1 3065   1.868   0.079   6.503
  795SOL    HW2 3066   1.752   0.176   6.518
  796SOL     OW 3067   0.266   0.326   6.311
  796SOL    HW1 3068   0.184   0.361   6.276
  796SOL    HW2 3069   0.251   0.317   6.405
  797SOL     OW 3070   1.191   1.611   5.623
  797SOL    HW1 3071   1.195   1.517   5.643
  797SOL    HW2 3072   1.131   1.617   5.548
  798SOL     OW 3073   0.825   1.006   6.958
  798SOL    HW1 3074   0.867   1.003   6.872
  798SOL    HW2 3075   0.826   1.099   6.982
  799SOL     OW 3076   0.915   0.910   5.875
  799SOL    HW1 3077   0.977   0.942   5.810
  799SOL    HW2 3078   0.961   0.839   5.920
  800SOL     OW 3079   0.373   1.305   7.077
  800SOL    HW1 3080   0.356   1.384   7.025
  800SOL    HW2 3081   0.297   1.249   7.061
  801SOL     OW 3082   1.609   1.281   6.867
  801SOL    HW1 3083   1.672   1.277   6.939
  801SOL    HW2 3084   1.551   1.354   6.891
  802SOL     OW 3085   1.048   1.105   6.290
  802SOL    HW1 3086   0.978   1.054   6.331
  802SOL    HW2 3087   1.110   1.040   6.257
  803SOL     OW 3088   1.006   0.241   6.583
  803SOL    HW1 3089   1.014   0.212   6.492
  803SOL    HW2 3090   1.001   0.160   6.634
  804SOL     OW 3091   0.603   1.490   6.069
  804SOL    HW1 3092   0.641   1.439   5.998
  804SOL    HW2 3093   0.532   1.539   6.028
  805SOL     OW 3094   1.719   0.393   6.964
  805SOL    HW1 3095   1.791   0.456   6.963
  805SOL    HW2 3096   1.749   0.321   6.908
  806SOL     OW 3097   0.252   1.345   5.864
  806SOL    HW1 3098   0.157   1.346   5.849
  806SOL    HW2 3099   0.262   1.378   5.953
  807SOL     OW 3100   0.117   1.007   7.282
  807SOL    HW1 3101   0.052   1.046   7.341
  807SOL    HW2 3102   0.195   0.996   7.337
  808SOL     OW 3103   0.659   0.207   7.082
  808SOL    HW1 3104   0.739   0.181   7.036
  808SOL    HW2 3105   0.687   0.222   7.172
  809SOL     OW 3106   0.070   0.321   5.612
  809SOL    HW1 3107   4.475   0.330   5.622
  809SOL    HW2 3108   0.099   0.407   5.581
  810SOL     OW 3109   1.432   0.858   6.987
  810SOL    HW1 3110   1.383   0.918   6.930
  810SOL    HW2 3111   1.522   0.862   6.954
  811SOL     OW 3112   0.083   0.188   5.889
  811SOL    HW1 3113   0.080   0.260   5.826
  811SOL    HW2 3114   0.161   0.138   5.865
  812SOL     OW 3115   1.181   1.339   5.702
  812SOL    HW1 3116   1.089   1.312   5.704
  812SOL    HW2 3117   1.209   1.340   5.793
  813SOL     OW 3118   0.621   0.831   7.014
  813SOL    HW1 3119   0.675   0.909   7.002
  813SOL    HW2 3120   0.683   0.759   7.024
  814SOL     OW 3121   0.715   0.561   7.291
  814SOL    HW1 3122   0.747   0.629   7.351
  814SOL    HW2 3123   0.756   0.481   7.323
  815SOL     OW 3124   1.468   1.203   7.219
  815SOL    HW1 3125   1.457   1.216   7.313
  815SOL    HW2 3126   1.562   1.215   7.205
  816SOL     OW 3127   0.382   1.743   7.149
  816SOL    HW1 3128   0.297   1.782   7.134
  816SOL    HW2 3129   0.363   1.661   7.196
  817SOL     OW 3130   1.672   0.882   6.841
  817SOL    HW1 3131   1.662   0.797   6.798
  817SOL    HW2 3132   1.663   0.946   6.771
  818SOL     OW 3133   1.218   0.327   6.034
  818SOL    HW1 3134   1.283   0.258   6.025
  818SOL    HW2 3135   1.245   0.375   6.113
  819SOL     OW 3136   0.588   0.740   6.254
  819SOL    HW1 3137   0.630   0.825   6.237
  819SOL    HW2 3138   0.519   0.733   6.189
  820SOL     OW 3139   1.766   0.361   7.229
  820SOL    HW1 3140   1.749   0.375   7.136
  820SOL    HW2 3141   1.687   0.317   7.261
  821SOL     OW 3142   1.743   0.933   7.099
  821SOL    HW1 3143   1.746   1.028   7.112
  821SOL    HW2 3144   1.729   0.923   7.005
  822SOL     OW 3145   0.864   1.368   5.616
  822SOL    HW1 3146   0.823   1.394   5.699
  822SOL    HW2 3147   0.882   1.451   5.572
  823SOL     OW 3148   0.659   1.794   6.534
  823SOL    HW1 3149   0.637   1.884   6.509
  823SOL    HW2 3150   0.754   1.790   6.526
  824SOL     OW 3151   0.866   0.965   6.442
  824SOL    HW1 3152   0.916   0.894   6.482
  824SOL    HW2 3153   0.833   1.016   6.516
  825SOL     OW 3154   1.080   0.988   5.675
  825SOL    HW1 3155   1.058   1.038   5.596
  825SOL    HW2 3156   1.155   0.935   5.649
  826SOL     OW 3157   0.228   1.307   7.442
  826SOL    HW1 3158   0.159   1.245   7.418
  826SOL    HW2 3159   0.219   1.317   7.537
  827SOL     OW 3160   0.102   1.239   6.252
  827SOL    HW1 3161   0.105   1.188   6.333
  827SOL    HW2 3162   0.163   1.195   6.193
  828SOL     OW 3163   0.680   1.400   7.212
  828SOL    HW1 3164   0.600   1.356   7.241
  828SOL    HW2 3165   0.674   1.488   7.249
  829SOL     OW 3166   1.811   0.184   6.825
  829SOL    HW1 3167   1.809   0.090   6.846
  829SOL    HW2 3168   1.826   0.186   6.730
  830SOL     OW 3169   0.438   0.431   6.115
  830SOL    HW1 3170   0.458   0.360   6.054
  830SOL    HW2 3171   0.381   0.391   6.180
  831SOL     OW 3172   1.696   1.497   6.691
  831SOL    HW1 3173   1.622   1.465   6.640
  831SOL    HW2 3174   1.718   1.425   6.750
  832SOL     OW 3175   0.313   0.504   6.843
  832SOL    HW1 3176   0.385   0.456   6.885
  832SOL    HW2 3177   0.340   0.512   6.752
  833SOL     OW 3178   0.825   1.578   6.265
  833SOL    HW1 3179   0.818   1.623   6.181
  833SOL    HW2 3180   0.747   1.523   6.270
  834SOL     OW 3181   1.432   0.215   6.704
  834SOL    HW1 3182   1.469   0.145   6.758
  834SOL    HW2 3183   1.381   0.268   6.765
  835SOL     OW 3184   0.997   0.012   6.735
  835SOL    HW1 3185   0.951   4.429   6.723
  835SOL    HW2 3186   1.089   4.488   6.747
  836SOL     OW 3187   0.771   1.332   5.896
  836SOL    HW1 3188   0.738   1.242   5.903
  836SOL    HW2 3189   0.854   1.330   5.945
  837SOL     OW 3190   0.621   1.558   6.870
  837SOL    HW1 3191   0.623   1.639   6.921
  837SOL    HW2 3192   0.708   1.552   6.831
  838SOL     OW 3193   1.342   0.054   5.738
  838SOL    HW1 3194   1.382   4.479   5.693
  838SOL    HW2 3195   1.267   0.016   5.784
  839SOL     OW 3196   1.314   0.462   6.266
  839SOL    HW1 3197   1.252   0.535   6.267
  839SOL    HW2 3198   1.302   0.419   6.351
  840SOL     OW 3199   1.586   0.203   6.454
  840SOL    HW1 3200   1.525   0.217   6.526
  840SOL    HW2 3201   1.589   0.287   6.408
  841SOL     OW 3202   0.041   1.054   5.873
  841SOL    HW1 3203   0.136   1.042   5.866
  841SOL    HW2 3204   0.018   1.013   5.956
  842SOL     OW 3205   0.879   1.648   5.932
  842SOL    HW1 3206   0.809   1.631   5.870
  842SOL    HW2 3207   0.850   1.725   5.981
  843SOL     OW 3208   0.247   0.626   7.567
  843SOL    HW1 3209   0.171   0.611   7.623
  843SOL    HW2 3210   0.215   0.609   7.478
  844SOL     OW 3211   0.197   0.292   8.437
  844SOL    HW1 3212   0.234   0.269   8.523
  844SOL    HW2 3213   0.132   0.224   8.420
  845SOL     OW 3214   0.007   0.377   8.090
  845SOL    HW1 3215   4.427   0.414   8.129
  845SOL    HW2 3216   4.475   0.306   8.035
  846SOL     OW 3217   0.567   1.282   8.620
  846SOL    HW1 3218   0.479   1.287   8.582
  846SOL    HW2 3219   0.583   1.370   8.656
  847SOL     OW 3220   1.557   1.511   8.153
  847SOL    HW1 3221   1.514   1.494   8.237
  847SOL    HW2 3222   1.486   1.517   8.090
  848SOL     OW 3223   1.132   0.700   8.150
  848SOL    HW1 3224   1.180   0.781   8.138
  848SOL    HW2 3225   1.083   0.712   8.231
  849SOL     OW 3226   1.764   0.609   7.678
  849SOL    HW1 3227   1.745   0.598   7.584
  849SOL    HW2 3228   1.733   0.528   7.718
  850SOL     OW 3229   0.758   1.144   8.486
  850SOL    HW1 3230   0.689   1.178   8.542
  850SOL    HW2 3231   0.793   1.222   8.441
  851SOL     OW 3232   0.862   0.779   9.269
  851SOL    HW1 3233   0.849   0.851   9.331
  851SOL    HW2 3234   0.886   0.823   9.187
  852SOL     OW 3235   0.686   1.007   8.097
  852SOL    HW1 3236   0.750   0.992   8.166
  852SOL    HW2 3237   0.616   1.056   8.140
  853SOL     OW 3238   0.708   1.151   9.258
  853SOL    HW1 3239   0.755   1.231   9.282
  853SOL    HW2 3240   0.624   1.183   9.223
  854SOL     OW 3241   0.337   1.424   8.518
  854SOL    HW1 3242   0.256   1.404   8.471
  854SOL    HW2 3243   0.387   1.478   8.457
  855SOL     OW 3244   1.462   1.499   8.798
  855SOL    HW1 3245   1.507   1.582   8.808
  855SOL    HW2 3246   1.408   1.491   8.877
  856SOL     OW 3247   0.436   0.396   8.942
  856SOL    HW1 3248   0.524   0.359   8.943
  856SOL    HW2 3249   0.378   0.321   8.956
  857SOL     OW 3250   1.613   0.448   8.186
  857SOL    HW1 3251   1.532   0.472   8.139
  857SOL    HW2 3252   1.634   0.525   8.238
  858SOL     OW 3253   0.245   1.692   7.927
  858SOL    HW1 3254   0.233   1.776   7.970
  858SOL    HW2 3255   0.308   1.709   7.857
  859SOL     OW 3256   1.136   1.341   9.139
  859SOL    HW1 3257   1.175   1.337   9.226
  859SOL    HW2 3258   1.083   1.261   9.134
  860SOL     OW 3259   0.244   1.428   7.976
  860SOL    HW1 3260   0.236   1.523   7.981
  860SOL    HW2 3261   0.179   1.395   8.039
  861SOL     OW 3262   0.244   1.081   8.330
  861SOL    HW1 3263   0.263   0.994   8.365
  861SOL    HW2 3264   0.187   1.121   8.396
  862SOL     OW 3265   0.616   1.790   8.880
  862SOL    HW1 3266   0.532   1.773   8.923
  862SOL    HW2 3267   0.637   1.881   8.904
  863SOL     OW 3268   0.584   0.983   7.583
  863SOL    HW1 3269   0.629   1.031   7.513
  863SOL    HW2 3270   0.630   1.010   7.663
  864SOL     OW 3271   1.585   0.114   8.922
  864SOL    HW1 3272   1.597   0.183   8.856
  864SOL    HW2 3273   1.575   0.162   9.005
  865SOL     OW 3274   0.136   0.642   8.023
  865SOL    HW1 3275   0.083   0.564   8.036
  865SOL    HW2 3276   0.107   0.703   8.091
  866SOL     OW 3277   1.841   1.761   7.784
  866SOL    HW1 3278   1.898   1.732   7.855
  866SOL    HW2 3279   1.869   1.851   7.767
  867SOL     OW 3280   0.033   1.601   7.584
  867SOL    HW1 3281   0.021   1.506   7.585
  867SOL    HW2 3282   0.011   1.629   7.672
  868SOL     OW 3283   1.691   0.920   8.086
  868SOL    HW1 3284   1.775   0.880   8.066
  868SOL    HW2 3285   1.669   0.969   8.006
  869SOL     OW 3286   1.645   1.108   7.877
  869SOL    HW1 3287   1.730   1.117   7.835
  869SOL    HW2 3288   1.649   1.168   7.952
  870SOL     OW 3289   0.107   0.760   9.036
  870SOL    HW1 3290   0.201   0.760   9.020
  870SOL    HW2 3291   0.084   0.853   9.042
  871SOL     OW 3292   0.612   1.382   8.184
  871SOL    HW1 3293   0.566   1.299   8.192
  871SOL    HW2 3294   0.596   1.409   8.093
  872SOL     OW 3295   1.290   1.238   8.873
  872SOL    HW1 3296   1.323   1.171   8.813
  872SOL    HW2 3297   1.346   1.231   8.950
  873SOL     OW 3298   0.817   0.011   7.994
  873SOL    HW1 3299   0.850   0.098   7.971
  873SOL    HW2 3300   0.722   0.019   7.984
  874SOL     OW 3301   0.183   0.944   8.727
  874SOL    HW1 3302   0.274   0.927   8.704
  874SOL    HW2 3303   0.133   0.920   8.649
  875SOL     OW 3304   1.532   0.991   7.644
  875SOL    HW1 3305   1.462   0.934   7.675
  875SOL    HW2 3306   1.571   1.025   7.725
  876SOL     OW 3307   1.184   1.803   9.068
  876SOL    HW1 3308   1.202   1.861   8.993
  876SOL    HW2 3309   1.200   1.715   9.034
  877SOL     OW 3310   0.318   0.260   9.220
  877SOL    HW1 3311   0.386   0.312   9.262
  877SOL    HW2 3312   0.242   0.269   9.278
  878SOL     OW 3313   1.465   1.419   8.401
  878SOL    HW1 3314   1.397   1.434   8.466
  878SOL    HW2 3315   1.454   1.328   8.374
  879SOL     OW 3316   1.663   1.732   8.025
  879SOL    HW1 3317   1.637   1.704   7.937
  879SOL    HW2 3318   1.636   1.660   8.082
  880SOL     OW 3319   0.596   0.723   7.712
  880SOL    HW1 3320   0.602   0.803   7.660
  880SOL    HW2 3321   0.530   0.743   7.779
  881SOL     OW 3322   1.290   0.358   8.383
  881SOL    HW1 3323   1.201   0.326   8.367
  881SOL    HW2 3324   1.327   0.296   8.445
  882SOL     OW 3325   1.581   1.668   7.757
  882SOL    HW1 3326   1.670   1.703   7.751
  882SOL    HW2 3327   1.556   1.651   7.666
  883SOL     OW 3328   0.797   0.617   8.902
  883SOL    HW1 3329   0.769   0.594   8.991
  883SOL    HW2 3330   0.752   0.554   8.846
  884SOL     OW 3331   1.389   0.478   9.124
  884SOL    HW1 3332   1.391   0.522   9.209
  884SOL    HW2 3333   1.456   0.410   9.131
  885SOL     OW 3334   0.958   0.889   9.029
  885SOL    HW1 3335   1.012   0.817   8.995
  885SOL    HW2 3336   0.911   0.922   8.952
  886SOL     OW 3337   0.996   0.417   8.686
  886SOL    HW1 3338   0.911   0.430   8.728
  886SOL    HW2 3339   0.976   0.365   8.608
  887SOL     OW 3340   1.049   0.698   7.876
  887SOL    HW1 3341   1.064   0.691   7.970
  887SOL    HW2 3342   0.967   0.651   7.861
  888SOL     OW 3343   0.099   0.823   8.231
  888SOL    HW1 3344   0.185   0.803   8.268
  888SOL    HW2 3345   0.053   0.870   8.300
  889SOL     OW 3346   0.124   1.853   9.024
  889SOL    HW1 3347   0.119   1.829   9.116
  889SOL    HW2 3348   0.045   1.817   8.985
  890SOL     OW 3349   0.853   0.367   7.625
  890SOL    HW1 3350   0.929   0.404   7.580
  890SOL    HW2 3351   0.872   0.274   7.632
  891SOL     OW 3352   1.706   0.576   9.276
  891SOL    HW1 3353   1.671   0.653   9.231
  891SOL    HW2 3354   1.739   0.520   9.206
  892SOL     OW 3355   1.375   1.143   7.990
  892SOL    HW1 3356   1.453   1.129   7.937
  892SOL    HW2 3357   1.323   1.205   7.939
  893SOL     OW 3358   0.543   0.202   8.349
  893SOL    HW1 3359   0.562   0.221   8.441
  893SOL    HW2 3360   0.534   0.288   8.308
  894SOL     OW 3361   1.008   1.446   7.922
  894SOL    HW1 3362   0.968   1.517   7.873
  894SOL    HW2 3363   0.994   1.468   8.014
  895SOL     OW 3364   0.355   1.808   8.304
  895SOL    HW1 3365   0.398   1.723   8.315
  895SOL    HW2 3366   0.424   1.872   8.318
  896SOL     OW 3367   1.798   1.060   8.315
  896SOL    HW1 3368   1.741   1.043   8.240
  896SOL    HW2 3369   1.738   1.065   8.389
  897SOL     OW 3370   1.228   1.540   8.961
  897SOL    HW1 3371   1.214   1.466   9.020
  897SOL    HW2 3372   1.168   1.523   8.888
  898SOL     OW 3373   0.317   0.954   7.697
  898SOL    HW1 3374   0.402   0.976   7.658
  898SOL    HW2 3375   0.300   0.865   7.667
  899SOL     OW 3376   1.477   0.739   8.174
  899SOL    HW1 3377   1.463   0.693   8.256
  899SOL    HW2 3378   1.552   0.795   8.190
  900SOL     OW 3379   0.465   1.261   9.184
  900SOL    HW1 3380   0.437   1.268   9.092
  900SOL    HW2 3381   0.384   1.267   9.234
  901SOL     OW 3382   1.120   1.777   7.680
  901SOL    HW1 3383   1.049   1.734   7.727
  901SOL    HW2 3384   1.142   1.718   7.608
  902SOL     OW 3385   0.167   0.262   8.956
  902SOL    HW1 3386   0.135   0.349   8.930
  902SOL    HW2 3387   0.199   0.275   9.046
  903SOL     OW 3388   1.629   1.379   7.535
  903SOL    HW1 3389   1.588   1.464   7.520
  903SOL    HW2 3390   1.560   1.315   7.516
  904SOL     OW 3391   0.469   1.744   7.763
  904SOL    HW1 3392   0.508   1.796   7.832
  904SOL    HW2 3393   0.543   1.713   7.711
  905SOL     OW 3394   1.416   0.132   7.867
  905SOL    HW1 3395   1.399   0.085   7.785
  905SOL    HW2 3396   1.511   0.130   7.875
  906SOL     OW 3397   0.256   1.791   8.684
  906SOL    HW1 3398   0.306   1.718   8.723
  906SOL    HW2 3399   0.229   1.758   8.598
  907SOL     OW 3400   0.938   1.698   8.348
  907SOL    HW1 3401   1.015   1.645   8.369
  907SOL    HW2 3402   0.893   1.649   8.280
  908SOL     OW 3403   0.392   0.694   7.922
  908SOL    HW1 3404   0.418   0.603   7.933
  908SOL    HW2 3405   0.300   0.696   7.948
  909SOL     OW 3406   1.526   0.232   9.170
  909SOL    HW1 3407   1.525   0.256   9.263
  909SOL    HW2 3408   1.451   0.174   9.159
  910SOL     OW 3409   0.622   0.123   7.564
  910SOL    HW1 3410   0.710   0.088   7.577
  910SOL    HW2 3411   0.593   0.086   7.481
  911SOL     OW 3412   0.769   0.269   9.200
  911SOL    HW1 3413   0.835   0.201   9.217
  911SOL    HW2 3414   0.724   0.279   9.285
  912SOL     OW 3415   0.877   1.521   8.641
  912SOL    HW1 3416   0.862   1.485   8.554
  912SOL    HW2 3417   0.946   1.466   8.678
  913SOL     OW 3418   1.342   0.589   8.878
  913SOL    HW1 3419   1.370   0.559   8.964
  913SOL    HW2 3420   1.376   0.678   8.871
  914SOL     OW 3421   0.813   1.398   8.384
  914SOL    HW1 3422   0.897   1.388   8.339
  914SOL    HW2 3423   0.748   1.396   8.314
  915SOL     OW 3424   0.922   0.515   8.350
  915SOL    HW1 3425   0.905   0.513   8.256
  915SOL    HW2 3426   0.963   0.431   8.369
  916SOL     OW 3427   0.558   0.067   7.957
  916SOL    HW1 3428   0.470   0.054   7.993
  916SOL    HW2 3429   0.548   0.140   7.896
  917SOL     OW 3430   1.428   1.197   7.489
  917SOL    HW1 3431   1.459   1.122   7.539
  917SOL    HW2 3432   1.343   1.218   7.526
  918SOL     OW 3433   0.303   0.076   7.632
  918SOL    HW1 3434   0.386   0.123   7.627
  918SOL    HW2 3435   0.321   4.500   7.686
  919SOL     OW 3436   0.950   0.241   7.921
  919SOL    HW1 3437   0.898   0.288   7.856
  919SOL    HW2 3438   1.038   0.275   7.911
  920SOL     OW 3439   1.080   0.679   8.909
  920SOL    HW1 3440   1.008   0.616   8.911
  920SOL    HW2 3441   1.159   0.626   8.897
  921SOL     OW 3442   1.225   1.569   8.241
  921SOL    HW1 3443   1.243   1.637   8.177
  921SOL    HW2 3444   1.292   1.581   8.308
  922SOL     OW 3445   0.465   1.148   8.186
  922SOL    HW1 3446   0.393   1.129   8.246
  922SOL    HW2 3447   0.428   1.131   8.099
  923SOL     OW 3448   1.271   1.795   8.053
  923SOL    HW1 3449   1.315   1.856   7.994
  923SOL    HW2 3450   1.207   1.848   8.100
  924SOL     OW 3451   1.031   0.549   7.463
  924SOL    HW1 3452   0.983   0.631   7.447
  924SOL    HW2 3453   1.089   0.569   7.536
  925SOL     OW 3454   0.091   0.524   8.859
  925SOL    HW1 3455   0.152   0.535   8.787
  925SOL    HW2 3456   0.062   0.614   8.879
  926SOL     OW 3457   0.564   0.242   8.613
  926SOL    HW1 3458   0.594   0.157   8.645
  926SOL    HW2 3459   0.470   0.243   8.633
  927SOL     OW 3460   0.866   0.501   8.074
  927SOL    HW1 3461   0.815   0.543   8.005
  927SOL    HW2 3462   0.850   0.407   8.062
  928SOL     OW 3463   0.970   0.031   8.223
  928SOL    HW1 3464   0.921   0.027   8.141
  928SOL    HW2 3465   0.980   4.440   8.250
  929SOL     OW 3466   1.436   1.163   8.306
  929SOL    HW1 3467   1.368   1.095   8.304
  929SOL    HW2 3468   1.458   1.177   8.214
  930SOL     OW 3469   1.468   0.602   8.427
  930SOL    HW1 3470   1.417   0.521   8.431
  930SOL    HW2 3471   1.527   0.597   8.502
  931SOL     OW 3472   1.847   0.819   7.830
  931SOL    HW1 3473   1.903   0.766   7.887
  931SOL    HW2 3474   1.818   0.758   7.762
  932SOL     OW 3475   0.492   1.413   7.610
  932SOL    HW1 3476   0.416   1.384   7.660
  932SOL    HW2 3477   0.471   1.394   7.519
  933SOL     OW 3478   1.668   1.266   8.096
  933SOL    HW1 3479   1.763   1.271   8.109
  933SOL    HW2 3480   1.636   1.353   8.118
  934SOL     OW 3481   1.394   0.570   7.518
  934SOL    HW1 3482   1.333   0.554   7.590
  934SOL    HW2 3483   1.480   0.549   7.553
  935SOL     OW 3484   0.523   0.264   7.771
  935SOL    HW1 3485   0.568   0.213   7.703
  935SOL    HW2 3486   0.509   0.350   7.730
  936SOL     OW 3487   1.754   1.236   9.025
  936SOL    HW1 3488   1.842   1.198   9.021
  936SOL    HW2 3489   1.768   1.326   9.053
  937SOL     OW 3490   1.061   1.353   8.783
  937SOL    HW1 3491   0.986   1.322   8.834
  937SOL    HW2 3492   1.136   1.312   8.824
  938SOL     OW 3493   1.606   1.624   9.099
  938SOL    HW1 3494   1.603   1.660   9.010
  938SOL    HW2 3495   1.690   1.579   9.104
  939SOL     OW 3496   1.125   1.201   8.555
  939SOL    HW1 3497   1.067   1.240   8.621
  939SOL    HW2 3498   1.091   1.232   8.471
  940SOL     OW 3499   1.631   1.100   8.527
  940SOL    HW1 3500   1.627   1.162   8.599
  940SOL    HW2 3501   1.551   1.115   8.477
  941SOL     OW 3502   0.904   0.131   8.838
  941SOL    HW1 3503   0.926   0.086   8.756
  941SOL    HW2 3504   0.988   0.143   8.882
  942SOL     OW 3505   0.984   1.114   9.170
  942SOL    HW1 3506   0.891   1.129   9.189
  942SOL    HW2 3507   0.984   1.037   9.114
  943SOL     OW 3508   0.708   1.060   7.821
  943SOL    HW1 3509   0.696   1.046   7.915
  943SOL    HW2 3510   0.784   1.007   7.798
  944SOL     OW 3511   0.429   0.823   8.687
  944SOL    HW1 3512   0.497   0.834   8.753
  944SOL    HW2 3513   0.370   0.757   8.724
  945SOL     OW 3514   1.270   0.377   8.720
  945SOL    HW1 3515   1.301   0.455   8.765
  945SOL    HW2 3516   1.181   0.399   8.691
  946SOL     OW 3517   0.061   1.576   8.787
  946SOL    HW1 3518   0.033   1.664   8.762
  946SOL    HW2 3519   0.156   1.581   8.794
  947SOL     OW 3520   0.351   1.106   7.942
  947SOL    HW1 3521   0.360   1.180   7.881
  947SOL    HW2 3522   0.353   1.029   7.886
  948SOL     OW 3523   0.564   0.530   8.303
  948SOL    HW1 3524   0.577   0.590   8.230
  948SOL    HW2 3525   0.622   0.563   8.372
  949SOL     OW 3526   1.248   1.348   7.837
  949SOL    HW1 3527   1.303   1.420   7.868
  949SOL    HW2 3528   1.161   1.368   7.871
  950SOL     OW 3529   1.277   1.455   8.594
  950SOL    HW1 3530   1.332   1.458   8.672
  950SOL    HW2 3531   1.222   1.378   8.606
  951SOL     OW 3532   1.583   0.625   7.923
  951SOL    HW1 3533   1.539   0.679   7.989
  951SOL    HW2 3534   1.628   0.688   7.867
  952SOL     OW 3535   0.348   1.528   8.766
  952SOL    HW1 3536   0.333   1.482   8.683
  952SOL    HW2 3537   0.443   1.539   8.771
  953SOL     OW 3538   0.477   0.760   9.111
  953SOL    HW1 3539   0.502   0.800   9.028
  953SOL    HW2 3540   0.509   0.670   9.106
  954SOL     OW 3541   1.597   0.777   9.126
  954SOL    HW1 3542   1.511   0.818   9.119
  954SOL    HW2 3543   1.650   0.819   9.059
  955SOL     OW 3544   1.007   0.087   9.175
  955SOL    HW1 3545   1.029   0.171   9.135
  955SOL    HW2 3546   1.033   0.022   9.109
  956SOL     OW 3547   0.496   0.046   9.197
  956SOL    HW1 3548   0.478   4.497   9.117
  956SOL    HW2 3549   0.429   0.114   9.200
  957SOL     OW 3550   0.588   0.874   8.471
  957SOL    HW1 3551   0.617   0.965   8.474
  957SOL    HW2 3552   0.531   0.865   8.548
  958SOL     OW 3553   1.361   0.859   8.481
  958SOL    HW1 3554   1.279   0.853   8.431
  958SOL    HW2 3555   1.398   0.770   8.478
  959SOL     OW 3556   1.207   0.534   7.714
  959SOL    HW1 3557   1.212   0.454   7.766
  959SOL    HW2 3558   1.164   0.597   7.773
  960SOL     OW 3559   0.285   0.220   8.682
  960SOL    HW1 3560   0.250   0.237   8.770
  960SOL    HW2 3561   0.321   0.131   8.688
  961SOL     OW 3562   0.047   1.313   8.732
  961SOL    HW1 3563   0.078   1.266   8.809
  961SOL    HW2 3564   0.049   1.405   8.757
  962SOL     OW 3565   0.725   0.632   8.509
  962SOL    HW1 3566   0.798   0.611   8.450
  962SOL    HW2 3567   0.700   0.721   8.484
  963SOL     OW 3568   1.733   0.958   9.299
  963SOL    HW1 3569   1.685   0.905   9.237
  963SOL    HW2 3570   1.673   0.970   9.373
  964SOL     OW 3571   0.317   0.076   8.079
  964SOL    HW1 3572   0.300   0.164   8.113
  964SOL    HW2 3573   0.305   0.018   8.155
  965SOL     OW 3574   1.610   0.374   7.814
  965SOL    HW1 3575   1.642   0.312   7.880
  965SOL    HW2 3576   1.589   0.453   7.865
  966SOL     OW 3577   1.027   0.761   8.410
  966SOL    HW1 3578   1.027   0.777   8.505
  966SOL    HW2 3579   0.999   0.670   8.402
  967SOL     OW 3580   0.982   1.566   9.162
  967SOL    HW1 3581   0.967   1.611   9.079
  967SOL    HW2 3582   1.025   1.484   9.138
  968SOL     OW 3583   1.857   1.507   9.053
  968SOL    HW1 3584   1.870   1.536   8.963
  968SOL    HW2 3585   1.937   1.533   9.099
  969SOL     OW 3586   0.347   0.930   9.266
  969SOL    HW1 3587   0.421   0.958   9.320
  969SOL    HW2 3588   0.384   0.864   9.207
  970SOL     OW 3589   1.532   0.267   7.576
  970SOL    HW1 3590   1.460   0.211   7.603
  970SOL    HW2 3591   1.560   0.312   7.656
  971SOL     OW 3592   1.294   0.827   7.481
  971SOL    HW1 3593   1.336   0.741   7.483
  971SOL    HW2 3594   1.325   0.866   7.399
  972SOL     OW 3595   1.065   1.335   8.300
  972SOL    HW1 3596   1.068   1.262   8.238
  972SOL    HW2 3597   1.128   1.398   8.266
  973SOL     OW 3598   0.317   0.813   8.398
  973SOL    HW1 3599   0.411   0.831   8.393
  973SOL    HW2 3600   0.311   0.723   8.429
  974SOL     OW 3601   0.337   0.527   8.442
  974SOL    HW1 3602   0.292   0.445   8.422
  974SOL    HW2 3603   0.414   0.527   8.385
  975SOL     OW 3604   1.135   0.375   9.140
  975SOL    HW1 3605   1.088   0.440   9.193
  975SOL    HW2 3606   1.222   0.414   9.127
  976SOL     OW 3607   1.160   0.211   8.922
  976SOL    HW1 3608   1.152   0.275   8.992
  976SOL    HW2 3609   1.195   0.261   8.848
  977SOL     OW 3610   4.492   1.323   7.649
  977SOL    HW1 3611   4.399   1.338   7.632
  977SOL    HW2 3612   4.498   1.231   7.673
  978SOL     OW 3613   0.095   1.782   8.387
  978SOL    HW1 3614   0.057   1.721   8.323
  978SOL    HW2 3615   0.182   1.801   8.354
  979SOL     OW 3616   0.499   1.573   8.354
  979SOL    HW1 3617   0.567   1.636   8.378
  979SOL    HW2 3618   0.544   1.508   8.300
  980SOL     OW 3619   0.988   0.795   8.677
  980SOL    HW1 3620   1.041   0.769   8.753
  980SOL    HW2 3621   0.902   0.758   8.694
  981SOL     OW 3622   0.040   0.566   8.558
  981SOL    HW1 3623   0.115   0.521   8.518
  981SOL    HW2 3624   0.025   0.519   8.641
  982SOL     OW 3625   0.180   0.518   9.158
  982SOL    HW1 3626   0.266   0.501   9.119
  982SOL    HW2 3627   0.150   0.599   9.117
  983SOL     OW 3628   1.376   0.941   9.107
  983SOL    HW1 3629   1.397   1.035   9.108
  983SOL    HW2 3630   1.374   0.917   9.015
  984SOL     OW 3631   0.812   0.572   7.800
  984SOL    HW1 3632   0.814   0.500   7.737
  984SOL    HW2 3633   0.738   0.626   7.772
  985SOL     OW 3634   1.642   0.601   8.637
  985SOL    HW1 3635   1.631   0.541   8.711
  985SOL    HW2 3636   1.729   0.581   8.603
  986SOL     OW 3637   0.271   1.562   9.189
  986SOL    HW1 3638   0.217   1.614   9.250
  986SOL    HW2 3639   0.250   1.471   9.212
  987SOL     OW 3640   0.682   0.464   8.716
  987SOL    HW1 3641   0.646   0.383   8.679
  987SOL    HW2 3642   0.691   0.522   8.641
  988SOL     OW 3643   0.930   1.678   8.914
  988SOL    HW1 3644   0.903   1.648   8.827
  988SOL    HW2 3645   0.930   1.774   8.907
  989SOL     OW 3646   0.473   0.491   7.634
  989SOL    HW1 3647   0.532   0.563   7.655
  989SOL    HW2 3648   0.388   0.533   7.620
  990SOL     OW 3649   0.161   1.141   8.911
  990SOL    HW1 3650   0.148   1.093   8.993
  990SOL    HW2 3651   0.170   1.073   8.844
  991SOL     OW 3652   1.329   1.049   8.673
  991SOL    HW1 3653   1.353   0.986   8.605
  991SOL    HW2 3654   1.256   1.098   8.635
  992SOL     OW 3655   1.309   0.856   7.755
  992SOL    HW1 3656   1.232   0.827   7.805
  992SOL    HW2 3657   1.285   0.843   7.663
  993SOL     OW 3658   1.761   1.746   8.593
  993SOL    HW1 3659   1.826   1.774   8.528
  993SOL    HW2 3660   1.744   1.654   8.572
  994SOL     OW 3661   1.241   1.732   8.564
  994SOL    HW1 3662   1.323   1.751   8.519
  994SOL    HW2 3663   1.245   1.638   8.582
  995SOL     OW 3664   0.068   1.188   8.496
  995SOL    HW1 3665   0.073   1.223   8.585
  995SOL    HW2 3666   0.012   1.250   8.449
  996SOL     OW 3667   0.679   1.664   9.173
  996SOL    HW1 3668   0.626   1.743   9.170
  996SOL    HW2 3669   0.741   1.673   9.101
  997SOL     OW 3670   1.718   0.130   7.946
  997SOL    HW1 3671   1.792   0.135   7.885
  997SOL    HW2 3672   1.738   0.055   8.002
  998SOL     OW 3673   1.390   1.568   7.931
  998SOL    HW1 3674   1.450   1.599   7.863
  998SOL    HW2 3675   1.342   1.646   7.958
  999SOL     OW 3676   0.120   1.808   9.296
  999SOL    HW1 3677   0.081   1.734   9.342
  999SOL    HW2 3678   0.184   1.844   9.357
 1000SOL     OW 3679   1.278   0.926   8.120
 1000SOL    HW1 3680   1.351   0.863   8.123
 1000SOL    HW2 3681   1.311   0.999   8.068
 1001SOL     OW 3682   0.818   1.272   8.879
 1001SOL    HW1 3683   0.792   1.311   8.963
 1001SOL    HW2 3684   0.747   1.294   8.819
 1002SOL     OW 3685   0.673   1.616   7.603
 1002SOL    HW1 3686   0.681   1.627   7.508
 1002SOL    HW2 3687   0.619   1.538   7.614
 1003SOL     OW 3688   1.631   1.726   8.839
 1003SOL    HW1 3689   1.679   1.735   8.757
 1003SOL    HW2 3690   1.617   1.816   8.869
 1004SOL     OW 3691   1.839   0.156   8.415
 1004SOL    HW1 3692   1.868   0.079   8.365
 1004SOL    HW2 3693   1.752   0.176   8.380
 1005SOL     OW 3694   0.266   0.326   8.173
 1005SOL    HW1 3695   0.184   0.361   8.138
 1005SOL    HW2 3696   0.251   0.317   8.267
 1006SOL     OW 3697   1.206   1.608   7.479
 1006SOL    HW1 3698   1.198   1.517   7.506
 1006SOL    HW2 3699   1.141   1.618   7.409
 1007SOL     OW 3700   0.825   1.006   8.819
 1007SOL    HW1 3701   0.867   1.004   8.734
 1007SOL    HW2 3702   0.826   1.099   8.844
 1008SOL     OW 3703   0.915   0.910   7.737
 1008SOL    HW1 3704   0.977   0.942   7.672
 1008SOL    HW2 3705   0.961   0.839   7.782
 1009SOL     OW 3706   1.495   1.624   7.490
 1009SOL    HW1 3707   1.400   1.621   7.479
 1009SOL    HW2 3708   1.530   1.630   7.401
 1010SOL     OW 3709   0.372   1.305   8.939
 1010SOL    HW1 3710   0.356   1.383   8.887
 1010SOL    HW2 3711   0.296   1.249   8.923
 1011SOL     OW 3712   1.611   1.283   8.729
 1011SOL    HW1 3713   1.672   1.277   8.803
 1011SOL    HW2 3714   1.551   1.354   8.753
 1012SOL     OW 3715   1.048   1.105   8.152
 1012SOL    HW1 3716   0.978   1.054   8.193
 1012SOL    HW2 3717   1.109   1.040   8.119
 1013SOL     OW 3718   1.006   0.241   8.445
 1013SOL    HW1 3719   1.014   0.212   8.354
 1013SOL    HW2 3720   1.001   0.160   8.495
 1014SOL     OW 3721   0.602   1.489   7.931
 1014SOL    HW1 3722   0.641   1.439   7.859
 1014SOL    HW2 3723   0.533   1.540   7.890
 1015SOL     OW 3724   1.719   0.393   8.826
 1015SOL    HW1 3725   1.791   0.456   8.825
 1015SOL    HW2 3726   1.749   0.321   8.770
 1016SOL     OW 3727   0.252   1.345   7.726
 1016SOL    HW1 3728   0.157   1.346   7.711
 1016SOL    HW2 3729   0.263   1.378   7.815
 1017SOL     OW 3730   0.117   1.008   9.144
 1017SOL    HW1 3731   0.052   1.046   9.203
 1017SOL    HW2 3732   0.195   0.996   9.199
 1018SOL     OW 3733   0.659   0.207   8.944
 1018SOL    HW1 3734   0.739   0.181   8.898
 1018SOL    HW2 3735   0.687   0.222   9.034
 1019SOL     OW 3736   0.070   0.321   7.474
 1019SOL    HW1 3737   4.475   0.330   7.484
 1019SOL    HW2 3738   0.099   0.407   7.443
 1020SOL     OW 3739   1.432   0.858   8.849
 1020SOL    HW1 3740   1.383   0.918   8.792
 1020SOL    HW2 3741   1.522   0.862   8.816
 1021SOL     OW 3742   0.083   0.188   7.751
 1021SOL    HW1 3743   0.080   0.260   7.688
 1021SOL    HW2 3744   0.161   0.138   7.727
 1022SOL     OW 3745   1.180   1.342   7.565
 1022SOL    HW1 3746   1.089   1.312   7.568
 1022SOL    HW2 3747   1.209   1.341   7.656
 1023SOL     OW 3748   0.621   0.831   8.876
 1023SOL    HW1 3749   0.675   0.909   8.864
 1023SOL    HW2 3750   0.684   0.759   8.886
 1024SOL     OW 3751   1.487   1.773   8.423
 1024SOL    HW1 3752   1.513   1.833   8.353
 1024SOL    HW2 3753   1.566   1.761   8.475
 1025SOL     OW 3754   0.715   0.562   9.153
 1025SOL    HW1 3755   0.747   0.629   9.213
 1025SOL    HW2 3756   0.756   0.481   9.185
 1026SOL     OW 3757   1.469   1.203   9.081
 1026SOL    HW1 3758   1.457   1.216   9.175
 1026SOL    HW2 3759   1.562   1.216   9.067
 1027SOL     OW 3760   0.382   1.743   9.011
 1027SOL    HW1 3761   0.296   1.782   8.996
 1027SOL    HW2 3762   0.363   1.661   9.058
 1028SOL     OW 3763   1.672   0.882   8.703
 1028SOL    HW1 3764   1.662   0.797   8.660
 1028SOL    HW2 3765   1.663   0.946   8.633
 1029SOL     OW 3766   1.218   0.327   7.896
 1029SOL    HW1 3767   1.283   0.258   7.887
 1029SOL    HW2 3768   1.245   0.375   7.975
 1030SOL     OW 3769   0.588   0.740   8.116
 1030SOL    HW1 3770   0.630   0.825   8.099
 1030SOL    HW2 3771   0.519   0.733   8.050
 1031SOL     OW 3772   1.766   0.361   9.091
 1031SOL    HW1 3773   1.749   0.375   8.998
 1031SOL    HW2 3774   1.687   0.317   9.123
 1032SOL     OW 3775   1.743   0.933   8.961
 1032SOL    HW1 3776   1.746   1.028   8.974
 1032SOL    HW2 3777   1.729   0.923   8.867
 1033SOL     OW 3778   0.863   1.368   7.478
 1033SOL    HW1 3779   0.823   1.394   7.561
 1033SOL    HW2 3780   0.882   1.451   7.434
 1034SOL     OW 3781   0.659   1.794   8.396
 1034SOL    HW1 3782   0.637   1.884   8.371
 1034SOL    HW2 3783   0.754   1.789   8.387
 1035SOL     OW 3784   0.866   0.965   8.304
 1035SOL    HW1 3785   0.916   0.894   8.344
 1035SOL    HW2 3786   0.833   1.016   8.378
 1036SOL     OW 3787   1.080   0.988   7.537
 1036SOL    HW1 3788   1.058   1.038   7.458
 1036SOL    HW2 3789   1.155   0.935   7.511
 1037SOL     OW 3790   1.858   1.555   8.292
 1037SOL    HW1 3791   1.779   1.546   8.239
 1037SOL    HW2 3792   1.846   1.492   8.363
 1038SOL     OW 3793   0.228   1.307   9.304
 1038SOL    HW1 3794   0.159   1.245   9.280
 1038SOL    HW2 3795   0.219   1.317   9.399
 1039SOL     OW 3796   0.102   1.239   8.114
 1039SOL    HW1 3797   0.106   1.188   8.195
 1039SOL    HW2 3798   0.163   1.196   8.055
 1040SOL     OW 3799   0.680   1.400   9.074
 1040SOL    HW1 3800   0.600   1.357   9.103
 1040SOL    HW2 3801   0.674   1.488   9.111
 1041SOL     OW 3802   1.811   0.184   8.687
 1041SOL    HW1 3803   1.809   0.090   8.708
 1041SOL    HW2 3804   1.826   0.186   8.592
 1042SOL     OW 3805   0.438   0.431   7.977
 1042SOL    HW1 3806   0.458   0.360   7.916
 1042SOL    HW2 3807   0.381   0.391   8.042
 1043SOL     OW 3808   1.704   1.488   8.544
 1043SOL    HW1 3809   1.620   1.464   8.504
 1043SOL    HW2 3810   1.718   1.423   8.613
 1044SOL     OW 3811   0.313   0.504   8.705
 1044SOL    HW1 3812   0.385   0.457   8.747
 1044SOL    HW2 3813   0.340   0.512   8.614
 1045SOL     OW 3814   0.825   1.578   8.127
 1045SOL    HW1 3815   0.819   1.623   8.044
 1045SOL    HW2 3816   0.747   1.523   8.131
 1046SOL     OW 3817   1.432   0.215   8.566
 1046SOL    HW1 3818   1.469   0.145   8.620
 1046SOL    HW2 3819   1.381   0.268   8.627
 1047SOL     OW 3820   0.997   0.012   8.597
 1047SOL    HW1 3821   0.951   4.429   8.585
 1047SOL    HW2 3822   1.089   4.488   8.609
 1048SOL     OW 3823   0.772   1.332   7.758
 1048SOL    HW1 3824   0.738   1.242   7.765
 1048SOL    HW2 3825   0.854   1.331   7.807
 1049SOL     OW 3826   0.621   1.558   8.732
 1049SOL    HW1 3827   0.623   1.639   8.783
 1049SOL    HW2 3828   0.708   1.551   8.693
 1050SOL     OW 3829   1.342   0.054   7.600
 1050SOL    HW1 3830   1.382   4.479   7.555
 1050SOL    HW2 3831   1.267   0.016   7.646
 1051SOL     OW 3832   1.314   0.462   8.128
 1051SOL    HW1 3833   1.252   0.535   8.129
 1051SOL    HW2 3834   1.302   0.420   8.213
 1052SOL     OW 3835   1.586   0.203   8.316
 1052SOL    HW1 3836   1.525   0.217   8.388
 1052SOL    HW2 3837   1.589   0.287   8.270
 1053SOL     OW 3838   0.041   1.054   7.735
 1053SOL    HW1 3839   0.136   1.042   7.728
 1053SOL    HW2 3840   0.018   1.013   7.818
 1054SOL     OW 3841   0.881   1.649   7.792
 1054SOL    HW1 3842   0.810   1.631   7.731
 1054SOL    HW2 3843   0.852   1.726   7.842
 1055SOL     OW 3844   0.247   0.626   9.429
 1055SOL    HW1 3845   0.171   0.611   9.485
 1055SOL    HW2 3846   0.215   0.609   9.340
 1056SOL     OW 3847   0.198   0.292  10.300
 1056SOL    HW1 3848   0.236   0.270  10.386
 1056SOL    HW2 3849   0.134   0.224  10.284
 1057SOL     OW 3850   0.007   0.377   9.952
 1057SOL    HW1 3851   4.427   0.414   9.991
 1057SOL    HW2 3852   4.475   0.306   9.897
 1058SOL     OW 3853   0.567   1.282  10.483
 1058SOL    HW1 3854   0.480   1.286  10.444
 1058SOL    HW2 3855   0.582   1.370  10.518
 1059SOL     OW 3856   1.558   1.512  10.015
 1059SOL    HW1 3857   1.514   1.494  10.099
 1059SOL    HW2 3858   1.487   1.517   9.951
 1060SOL     OW 3859   1.132   0.700  10.011
 1060SOL    HW1 3860   1.180   0.782  10.000
 1060SOL    HW2 3861   1.083   0.712  10.093
 1061SOL     OW 3862   1.764   0.609   9.540
 1061SOL    HW1 3863   1.745   0.598   9.446
 1061SOL    HW2 3864   1.733   0.528   9.580
 1062SOL     OW 3865   0.760   1.145  10.349
 1062SOL    HW1 3866   0.689   1.178  10.404
 1062SOL    HW2 3867   0.792   1.222  10.303
 1063SOL     OW 3868   0.850   0.782   0.020
 1063SOL    HW1 3869   0.859   0.839   0.097
 1063SOL    HW2 3870   0.883   0.833  11.047
 1064SOL     OW 3871   0.686   1.007   9.959
 1064SOL    HW1 3872   0.750   0.992  10.028
 1064SOL    HW2 3873   0.616   1.056  10.002
 1065SOL     OW 3874   0.337   1.423  10.379
 1065SOL    HW1 3875   0.256   1.404  10.332
 1065SOL    HW2 3876   0.387   1.478  10.318
 1066SOL     OW 3877   1.463   1.500  10.656
 1066SOL    HW1 3878   1.514   1.580  10.667
 1066SOL    HW2 3879   1.418   1.489  10.740
 1067SOL     OW 3880   0.440   0.393  10.788
 1067SOL    HW1 3881   0.527   0.354  10.797
 1067SOL    HW2 3882   0.382   0.336  10.839
 1068SOL     OW 3883   1.613   0.448  10.048
 1068SOL    HW1 3884   1.532   0.472  10.002
 1068SOL    HW2 3885   1.634   0.525  10.100
 1069SOL     OW 3886   0.245   1.692   9.789
 1069SOL    HW1 3887   0.233   1.777   9.832
 1069SOL    HW2 3888   0.308   1.709   9.719
 1070SOL     OW 3889   0.244   1.428   9.838
 1070SOL    HW1 3890   0.236   1.523   9.843
 1070SOL    HW2 3891   0.179   1.395   9.901
 1071SOL     OW 3892   0.244   1.081  10.192
 1071SOL    HW1 3893   0.263   0.994  10.227
 1071SOL    HW2 3894   0.188   1.121  10.258
 1072SOL     OW 3895   0.615   1.790  10.741
 1072SOL    HW1 3896   0.534   1.771  10.787
 1072SOL    HW2 3897   0.636   1.880  10.765
 1073SOL     OW 3898   0.584   0.983   9.445
 1073SOL    HW1 3899   0.629   1.031   9.375
 1073SOL    HW2 3900   0.630   1.010   9.525
 1074SOL     OW 3901   1.557   0.132  10.781
 1074SOL    HW1 3902   1.603   0.191  10.722
 1074SOL    HW2 3903   1.610   0.131  10.861
 1075SOL     OW 3904   0.136   0.642   9.885
 1075SOL    HW1 3905   0.083   0.564   9.899
 1075SOL    HW2 3906   0.107   0.703   9.953
 1076SOL     OW 3907   1.840   1.762   9.645
 1076SOL    HW1 3908   1.899   1.731   9.713
 1076SOL    HW2 3909   1.868   1.852   9.628
 1077SOL     OW 3910   0.033   1.601   9.446
 1077SOL    HW1 3911   0.021   1.506   9.447
 1077SOL    HW2 3912   0.011   1.629   9.534
 1078SOL     OW 3913   1.691   0.920   9.948
 1078SOL    HW1 3914   1.775   0.880   9.928
 1078SOL    HW2 3915   1.669   0.969   9.868
 1079SOL     OW 3916   1.645   1.108   9.739
 1079SOL    HW1 3917   1.730   1.117   9.697
 1079SOL    HW2 3918   1.650   1.168   9.814
 1080SOL     OW 3919   0.097   0.757  10.911
 1080SOL    HW1 3920   0.190   0.741  10.896
 1080SOL    HW2 3921   0.086   0.851  10.898
 1081SOL     OW 3922   0.612   1.382  10.046
 1081SOL    HW1 3923   0.566   1.299  10.054
 1081SOL    HW2 3924   0.596   1.409   9.955
 1082SOL     OW 3925   1.297   1.238  10.750
 1082SOL    HW1 3926   1.321   1.176  10.681
 1082SOL    HW2 3927   1.352   1.213  10.825
 1083SOL     OW 3928   0.817   0.011   9.856
 1083SOL    HW1 3929   0.850   0.098   9.833
 1083SOL    HW2 3930   0.722   0.019   9.846
 1084SOL     OW 3931   0.182   0.944  10.589
 1084SOL    HW1 3932   0.274   0.926  10.567
 1084SOL    HW2 3933   0.133   0.919  10.511
 1085SOL     OW 3934   1.532   0.991   9.506
 1085SOL    HW1 3935   1.462   0.934   9.537
 1085SOL    HW2 3936   1.571   1.025   9.587
 1086SOL     OW 3937   1.194   1.805  10.926
 1086SOL    HW1 3938   1.198   1.866  10.853
 1086SOL    HW2 3939   1.202   1.719  10.885
 1087SOL     OW 3940   0.327   0.287  11.068
 1087SOL    HW1 3941   0.390   0.331   0.025
 1087SOL    HW2 3942   0.247   0.282   0.020
 1088SOL     OW 3943   1.466   1.419  10.263
 1088SOL    HW1 3944   1.397   1.434  10.327
 1088SOL    HW2 3945   1.454   1.328  10.235
 1089SOL     OW 3946   1.663   1.732   9.887
 1089SOL    HW1 3947   1.638   1.705   9.799
 1089SOL    HW2 3948   1.636   1.660   9.944
 1090SOL     OW 3949   0.596   0.723   9.574
 1090SOL    HW1 3950   0.602   0.803   9.522
 1090SOL    HW2 3951   0.530   0.743   9.641
 1091SOL     OW 3952   1.290   0.358  10.245
 1091SOL    HW1 3953   1.201   0.326  10.229
 1091SOL    HW2 3954   1.327   0.295  10.307
 1092SOL     OW 3955   1.581   1.668   9.619
 1092SOL    HW1 3956   1.670   1.703   9.613
 1092SOL    HW2 3957   1.556   1.651   9.528
 1093SOL     OW 3958   0.797   0.617  10.765
 1093SOL    HW1 3959   0.768   0.593  10.853
 1093SOL    HW2 3960   0.754   0.554  10.708
 1094SOL     OW 3961   0.966   0.897  10.899
 1094SOL    HW1 3962   1.014   0.824  10.860
 1094SOL    HW2 3963   0.916   0.934  10.826
 1095SOL     OW 3964   0.996   0.418  10.547
 1095SOL    HW1 3965   0.911   0.430  10.590
 1095SOL    HW2 3966   0.977   0.365  10.470
 1096SOL     OW 3967   1.049   0.698   9.738
 1096SOL    HW1 3968   1.064   0.691   9.832
 1096SOL    HW2 3969   0.967   0.651   9.723
 1097SOL     OW 3970   0.099   0.823  10.093
 1097SOL    HW1 3971   0.185   0.803  10.129
 1097SOL    HW2 3972   0.053   0.870  10.163
 1098SOL     OW 3973   0.118   1.852  10.899
 1098SOL    HW1 3974   0.117   1.791  10.973
 1098SOL    HW2 3975   0.051   1.818  10.839
 1099SOL     OW 3976   0.853   0.367   9.487
 1099SOL    HW1 3977   0.929   0.404   9.442
 1099SOL    HW2 3978   0.872   0.274   9.494
 1100SOL     OW 3979   1.375   1.143   9.852
 1100SOL    HW1 3980   1.453   1.128   9.799
 1100SOL    HW2 3981   1.323   1.205   9.801
 1101SOL     OW 3982   0.544   0.202  10.211
 1101SOL    HW1 3983   0.561   0.221  10.303
 1101SOL    HW2 3984   0.534   0.288  10.170
 1102SOL     OW 3985   1.009   1.446   9.784
 1102SOL    HW1 3986   0.968   1.517   9.735
 1102SOL    HW2 3987   0.994   1.468   9.876
 1103SOL     OW 3988   0.354   1.808  10.166
 1103SOL    HW1 3989   0.398   1.723  10.176
 1103SOL    HW2 3990   0.424   1.872  10.180
 1104SOL     OW 3991   1.798   1.060  10.177
 1104SOL    HW1 3992   1.742   1.043  10.101
 1104SOL    HW2 3993   1.739   1.065  10.251
 1105SOL     OW 3994   1.226   1.540  10.825
 1105SOL    HW1 3995   1.235   1.454  10.864
 1105SOL    HW2 3996   1.168   1.527  10.750
 1106SOL     OW 3997   0.317   0.954   9.559
 1106SOL    HW1 3998   0.402   0.976   9.520
 1106SOL    HW2 3999   0.300   0.865   9.529
 1107SOL     OW 4000   1.476   0.739  10.036
 1107SOL    HW1 4001   1.463   0.693  10.118
 1107SOL    HW2 4002   1.553   0.795  10.052
 1108SOL     OW 4003   0.455   1.269  11.052
 1108SOL    HW1 4004   0.427   1.277  10.961
 1108SOL    HW2 4005   0.386   1.217  11.094
 1109SOL     OW 4006   1.121   1.777   9.542
 1109SOL    HW1 4007   1.049   1.734   9.588
 1109SOL    HW2 4008   1.142   1.718   9.470
 1110SOL     OW 4009   0.168   0.261  10.818
 1110SOL    HW1 4010   0.141   0.350  10.797
 1110SOL    HW2 4011   0.205   0.268  10.906
 1111SOL     OW 4012   1.629   1.379   9.397
 1111SOL    HW1 4013   1.589   1.464   9.381
 1111SOL    HW2 4014   1.560   1.316   9.378
 1112SOL     OW 4015   0.469   1.744   9.625
 1112SOL    HW1 4016   0.508   1.796   9.694
 1112SOL    HW2 4017   0.543   1.713   9.573
 1113SOL     OW 4018   1.416   0.132   9.729
 1113SOL    HW1 4019   1.399   0.085   9.647
 1113SOL    HW2 4020   1.511   0.130   9.738
 1114SOL     OW 4021   0.254   1.791  10.547
 1114SOL    HW1 4022   0.306   1.721  10.587
 1114SOL    HW2 4023   0.231   1.757  10.461
 1115SOL     OW 4024   0.938   1.698  10.211
 1115SOL    HW1 4025   1.016   1.645  10.230
 1115SOL    HW2 4026   0.892   1.649  10.142
 1116SOL     OW 4027   0.392   0.694   9.784
 1116SOL    HW1 4028   0.418   0.603   9.795
 1116SOL    HW2 4029   0.300   0.696   9.810
 1117SOL     OW 4030   0.622   0.123   9.426
 1117SOL    HW1 4031   0.710   0.088   9.439
 1117SOL    HW2 4032   0.593   0.086   9.343
 1118SOL     OW 4033   0.769   0.271  11.043
 1118SOL    HW1 4034   0.830   0.205  11.076
 1118SOL    HW2 4035   0.712   0.290   0.017
 1119SOL     OW 4036   0.876   1.521  10.503
 1119SOL    HW1 4037   0.862   1.486  10.415
 1119SOL    HW2 4038   0.947   1.468  10.539
 1120SOL     OW 4039   1.344   0.589  10.752
 1120SOL    HW1 4040   1.392   0.571  10.833
 1120SOL    HW2 4041   1.371   0.678  10.728
 1121SOL     OW 4042   0.813   1.398  10.246
 1121SOL    HW1 4043   0.897   1.388  10.200
 1121SOL    HW2 4044   0.748   1.396  10.176
 1122SOL     OW 4045   0.922   0.515  10.212
 1122SOL    HW1 4046   0.905   0.513  10.118
 1122SOL    HW2 4047   0.963   0.431  10.231
 1123SOL     OW 4048   0.558   0.067   9.819
 1123SOL    HW1 4049   0.470   0.054   9.855
 1123SOL    HW2 4050   0.548   0.140   9.758
 1124SOL     OW 4051   1.429   1.197   9.351
 1124SOL    HW1 4052   1.459   1.122   9.401
 1124SOL    HW2 4053   1.343   1.218   9.388
 1125SOL     OW 4054   0.303   0.076   9.494
 1125SOL    HW1 4055   0.386   0.123   9.489
 1125SOL    HW2 4056   0.321   4.500   9.548
 1126SOL     OW 4057   0.950   0.241   9.783
 1126SOL    HW1 4058   0.898   0.288   9.718
 1126SOL    HW2 4059   1.038   0.275   9.773
 1127SOL     OW 4060   1.079   0.682  10.772
 1127SOL    HW1 4061   1.006   0.620  10.773
 1127SOL    HW2 4062   1.157   0.628  10.764
 1128SOL     OW 4063   1.225   1.569  10.104
 1128SOL    HW1 4064   1.243   1.637  10.038
 1128SOL    HW2 4065   1.292   1.582  10.170
 1129SOL     OW 4066   0.465   1.148  10.048
 1129SOL    HW1 4067   0.393   1.129  10.108
 1129SOL    HW2 4068   0.428   1.131   9.961
 1130SOL     OW 4069   1.271   1.795   9.915
 1130SOL    HW1 4070   1.315   1.856   9.856
 1130SOL    HW2 4071   1.207   1.848   9.962
 1131SOL     OW 4072   1.031   0.549   9.325
 1131SOL    HW1 4073   0.983   0.631   9.309
 1131SOL    HW2 4074   1.089   0.569   9.398
 1132SOL     OW 4075   0.084   0.525  10.720
 1132SOL    HW1 4076   0.151   0.536  10.653
 1132SOL    HW2 4077   0.065   0.615  10.749
 1133SOL     OW 4078   0.563   0.243  10.475
 1133SOL    HW1 4079   0.592   0.156  10.502
 1133SOL    HW2 4080   0.470   0.246  10.498
 1134SOL     OW 4081   0.866   0.501   9.936
 1134SOL    HW1 4082   0.815   0.543   9.867
 1134SOL    HW2 4083   0.850   0.407   9.925
 1135SOL     OW 4084   0.971   0.032  10.085
 1135SOL    HW1 4085   0.921   0.027  10.003
 1135SOL    HW2 4086   0.980   4.441  10.113
 1136SOL     OW 4087   1.435   1.164  10.168
 1136SOL    HW1 4088   1.368   1.095  10.166
 1136SOL    HW2 4089   1.458   1.177  10.076
 1137SOL     OW 4090   1.467   0.603  10.289
 1137SOL    HW1 4091   1.417   0.522  10.292
 1137SOL    HW2 4092   1.527   0.597  10.364
 1138SOL     OW 4093   1.847   0.819   9.692
 1138SOL    HW1 4094   1.903   0.766   9.749
 1138SOL    HW2 4095   1.818   0.758   9.624
 1139SOL     OW 4096   0.492   1.413   9.472
 1139SOL    HW1 4097   0.416   1.384   9.522
 1139SOL    HW2 4098   0.471   1.394   9.381
 1140SOL     OW 4099   1.668   1.265   9.958
 1140SOL    HW1 4100   1.763   1.271   9.971
 1140SOL    HW2 4101   1.636   1.353   9.980
 1141SOL     OW 4102   1.394   0.570   9.380
 1141SOL    HW1 4103   1.333   0.554   9.452
 1141SOL    HW2 4104   1.480   0.549   9.415
 1142SOL     OW 4105   0.523   0.264   9.633
 1142SOL    HW1 4106   0.568   0.213   9.565
 1142SOL    HW2 4107   0.509   0.350   9.592
 1143SOL     OW 4108   1.760   1.228  10.874
 1143SOL    HW1 4109   1.851   1.199  10.878
 1143SOL    HW2 4110   1.762   1.316  10.914
 1144SOL     OW 4111   1.065   1.354  10.650
 1144SOL    HW1 4112   0.987   1.321  10.695
 1144SOL    HW2 4113   1.138   1.306  10.690
 1145SOL     OW 4114   1.126   1.204  10.417
 1145SOL    HW1 4115   1.063   1.240  10.480
 1145SOL    HW2 4116   1.093   1.231  10.332
 1146SOL     OW 4117   1.631   1.100  10.388
 1146SOL    HW1 4118   1.628   1.162  10.461
 1146SOL    HW2 4119   1.551   1.116  10.340
 1147SOL     OW 4120   0.901   0.128  10.699
 1147SOL    HW1 4121   0.928   0.086  10.617
 1147SOL    HW2 4122   0.982   0.140  10.747
 1148SOL     OW 4123   0.708   1.060   9.683
 1148SOL    HW1 4124   0.696   1.046   9.777
 1148SOL    HW2 4125   0.784   1.007   9.660
 1149SOL     OW 4126   0.428   0.822  10.549
 1149SOL    HW1 4127   0.496   0.832  10.616
 1149SOL    HW2 4128   0.368   0.756  10.585
 1150SOL     OW 4129   1.270   0.381  10.581
 1150SOL    HW1 4130   1.300   0.459  10.628
 1150SOL    HW2 4131   1.182   0.403  10.551
 1151SOL     OW 4132   0.062   1.577  10.653
 1151SOL    HW1 4133   0.036   1.663  10.618
 1151SOL    HW2 4134   0.158   1.580  10.655
 1152SOL     OW 4135   0.351   1.106   9.804
 1152SOL    HW1 4136   0.360   1.180   9.743
 1152SOL    HW2 4137   0.353   1.029   9.748
 1153SOL     OW 4138   0.564   0.529  10.165
 1153SOL    HW1 4139   0.577   0.590  10.092
 1153SOL    HW2 4140   0.622   0.562  10.234
 1154SOL     OW 4141   1.248   1.348   9.699
 1154SOL    HW1 4142   1.303   1.420   9.730
 1154SOL    HW2 4143   1.161   1.368   9.733
 1155SOL     OW 4144   1.276   1.457  10.454
 1155SOL    HW1 4145   1.332   1.460  10.532
 1155SOL    HW2 4146   1.223   1.378  10.466
 1156SOL     OW 4147   1.583   0.625   9.785
 1156SOL    HW1 4148   1.539   0.679   9.851
 1156SOL    HW2 4149   1.628   0.688   9.729
 1157SOL     OW 4150   0.347   1.525  10.627
 1157SOL    HW1 4151   0.334   1.480  10.544
 1157SOL    HW2 4152   0.442   1.539  10.632
 1158SOL     OW 4153   0.482   0.749  10.967
 1158SOL    HW1 4154   0.512   0.787  10.885
 1158SOL    HW2 4155   0.510   0.657  10.963
 1159SOL     OW 4156   1.591   0.762  10.971
 1159SOL    HW1 4157   1.514   0.819  10.966
 1159SOL    HW2 4158   1.660   0.812  10.927
 1160SOL     OW 4159   0.587   0.874  10.334
 1160SOL    HW1 4160   0.616   0.965  10.336
 1160SOL    HW2 4161   0.531   0.864  10.411
 1161SOL     OW 4162   1.360   0.860  10.346
 1161SOL    HW1 4163   1.280   0.854  10.294
 1161SOL    HW2 4164   1.398   0.772  10.342
 1162SOL     OW 4165   1.207   0.534   9.576
 1162SOL    HW1 4166   1.212   0.454   9.628
 1162SOL    HW2 4167   1.164   0.597   9.635
 1163SOL     OW 4168   0.287   0.219  10.545
 1163SOL    HW1 4169   0.255   0.237  10.634
 1163SOL    HW2 4170   0.315   0.127  10.548
 1164SOL     OW 4171   0.048   1.315  10.593
 1164SOL    HW1 4172   0.077   1.266  10.671
 1164SOL    HW2 4173   0.048   1.406  10.621
 1165SOL     OW 4174   0.725   0.633  10.370
 1165SOL    HW1 4175   0.798   0.611  10.311
 1165SOL    HW2 4176   0.699   0.721  10.345
 1166SOL     OW 4177   0.317   0.076   9.941
 1166SOL    HW1 4178   0.301   0.164   9.975
 1166SOL    HW2 4179   0.305   0.018  10.017
 1167SOL     OW 4180   1.610   0.374   9.676
 1167SOL    HW1 4181   1.642   0.312   9.742
 1167SOL    HW2 4182   1.589   0.453   9.727
 1168SOL     OW 4183   1.027   0.761  10.272
 1168SOL    HW1 4184   1.027   0.777  10.367
 1168SOL    HW2 4185   0.999   0.670  10.264
 1169SOL     OW 4186   0.974   1.572  11.004
 1169SOL    HW1 4187   0.960   1.621  10.924
 1169SOL    HW2 4188   1.007   1.487  10.975
 1170SOL     OW 4189   1.860   1.496  10.912
 1170SOL    HW1 4190   1.872   1.531  10.823
 1170SOL    HW2 4191   1.926   1.541  10.964
 1171SOL     OW 4192   0.348   0.932  11.097
 1171SOL    HW1 4193   0.424   0.960   0.049
 1171SOL    HW2 4194   0.382   0.860  11.043
 1172SOL     OW 4195   1.532   0.267   9.438
 1172SOL    HW1 4196   1.460   0.211   9.465
 1172SOL    HW2 4197   1.560   0.312   9.518
 1173SOL     OW 4198   1.295   0.827   9.343
 1173SOL    HW1 4199   1.336   0.741   9.345
 1173SOL    HW2 4200   1.325   0.866   9.261
 1174SOL     OW 4201   1.065   1.334  10.163
 1174SOL    HW1 4202   1.068   1.262  10.101
 1174SOL    HW2 4203   1.128   1.398  10.128
 1175SOL     OW 4204   0.317   0.813  10.260
 1175SOL    HW1 4205   0.411   0.830  10.255
 1175SOL    HW2 4206   0.311   0.722  10.291
 1176SOL     OW 4207   0.337   0.528  10.304
 1176SOL    HW1 4208   0.292   0.445  10.286
 1176SOL    HW2 4209   0.414   0.527  10.247
 1177SOL     OW 4210   1.155   0.216  10.772
 1177SOL    HW1 4211   1.166   0.271  10.850
 1177SOL    HW2 4212   1.191   0.269  10.701
 1178SOL     OW 4213   4.492   1.323   9.511
 1178SOL    HW1 4214   4.399   1.338   9.494
 1178SOL    HW2 4215   4.498   1.231   9.535
 1179SOL     OW 4216   0.094   1.781  10.249
 1179SOL    HW1 4217   0.057   1.721  10.185
 1179SOL    HW2 4218   0.182   1.801  10.216
 1180SOL     OW 4219   0.499   1.573  10.216
 1180SOL    HW1 4220   0.567   1.636  10.240
 1180SOL    HW2 4221   0.543   1.508  10.161
 1181SOL     OW 4222   0.988   0.796  10.539
 1181SOL    HW1 4223   1.040   0.771  10.615
 1181SOL    HW2 4224   0.902   0.758  10.555
 1182SOL     OW 4225   0.037   0.563  10.418
 1182SOL    HW1 4226   0.115   0.522  10.381
 1182SOL    HW2 4227   0.028   0.525  10.505
 1183SOL     OW 4228   0.812   0.572   9.662
 1183SOL    HW1 4229   0.814   0.500   9.599
 1183SOL    HW2 4230   0.738   0.626   9.634
 1184SOL     OW 4231   1.642   0.601  10.498
 1184SOL    HW1 4232   1.632   0.542  10.573
 1184SOL    HW2 4233   1.729   0.581  10.464
 1185SOL     OW 4234   0.264   1.571  11.057
 1185SOL    HW1 4235   0.211   1.602   0.032
 1185SOL    HW2 4236   0.243   1.478  11.051
 1186SOL     OW 4237   0.688   0.462  10.577
 1186SOL    HW1 4238   0.647   0.383  10.543
 1186SOL    HW2 4239   0.693   0.521  10.502
 1187SOL     OW 4240   0.941   1.682  10.760
 1187SOL    HW1 4241   0.902   1.652  10.678
 1187SOL    HW2 4242   0.929   1.777  10.759
 1188SOL     OW 4243   0.473   0.491   9.495
 1188SOL    HW1 4244   0.532   0.563   9.517
 1188SOL    HW2 4245   0.388   0.533   9.482
 1189SOL     OW 4246   0.162   1.141  10.771
 1189SOL    HW1 4247   0.141   1.097  10.854
 1189SOL    HW2 4248   0.170   1.071  10.707
 1190SOL     OW 4249   1.327   1.053  10.539
 1190SOL    HW1 4250   1.355   0.989  10.473
 1190SOL    HW2 4251   1.255   1.100  10.497
 1191SOL     OW 4252   1.309   0.856   9.617
 1191SOL    HW1 4253   1.232   0.827   9.666
 1191SOL    HW2 4254   1.285   0.843   9.525
 1192SOL     OW 4255   1.764   1.748  10.458
 1192SOL    HW1 4256   1.827   1.775  10.391
 1192SOL    HW2 4257   1.744   1.657  10.438
 1193SOL     OW 4258   1.242   1.733  10.426
 1193SOL    HW1 4259   1.323   1.752  10.381
 1193SOL    HW2 4260   1.245   1.639  10.443
 1194SOL     OW 4261   0.068   1.189  10.358
 1194SOL    HW1 4262   0.074   1.224  10.447
 1194SOL    HW2 4263   0.011   1.250  10.312
 1195SOL     OW 4264   1.718   0.130   9.808
 1195SOL    HW1 4265   1.792   0.135   9.747
 1195SOL    HW2 4266   1.738   0.055   9.864
 1196SOL     OW 4267   1.390   1.568   9.793
 1196SOL    HW1 4268   1.450   1.599   9.725
 1196SOL    HW2 4269   1.342   1.646   9.820
 1197SOL     OW 4270   1.278   0.926   9.982
 1197SOL    HW1 4271   1.351   0.863   9.986
 1197SOL    HW2 4272   1.312   0.998   9.930
 1198SOL     OW 4273   0.822   1.272  10.739
 1198SOL    HW1 4274   0.792   1.307  10.824
 1198SOL    HW2 4275   0.751   1.294  10.679
 1199SOL     OW 4276   0.673   1.616   9.465
 1199SOL    HW1 4277   0.681   1.627   9.370
 1199SOL    HW2 4278   0.619   1.538   9.476
 1200SOL     OW 4279   1.627   1.720  10.700
 1200SOL    HW1 4280   1.679   1.734  10.621
 1200SOL    HW2 4281   1.612   1.807  10.735
 1201SOL     OW 4282   1.839   0.156  10.277
 1201SOL    HW1 4283   1.868   0.079  10.228
 1201SOL    HW2 4284   1.752   0.176  10.242
 1202SOL     OW 4285   0.266   0.326  10.035
 1202SOL    HW1 4286   0.184   0.361  10.001
 1202SOL    HW2 4287   0.252   0.317  10.129
 1203SOL     OW 4288   1.205   1.608   9.341
 1203SOL    HW1 4289   1.197   1.517   9.368
 1203SOL    HW2 4290   1.141   1.618   9.271
 1204SOL     OW 4291   0.825   1.006  10.684
 1204SOL    HW1 4292   0.867   1.001  10.598
 1204SOL    HW2 4293   0.827   1.099  10.706
 1205SOL     OW 4294   0.915   0.910   9.599
 1205SOL    HW1 4295   0.977   0.942   9.534
 1205SOL    HW2 4296   0.961   0.839   9.644
 1206SOL     OW 4297   1.495   1.624   9.352
 1206SOL    HW1 4298   1.400   1.621   9.340
 1206SOL    HW2 4299   1.530   1.630   9.263
 1207SOL     OW 4300   0.369   1.307  10.805
 1207SOL    HW1 4301   0.356   1.383  10.748
 1207SOL    HW2 4302   0.295   1.249  10.785
 1208SOL     OW 4303   1.613   1.283  10.593
 1208SOL    HW1 4304   1.670   1.273  10.669
 1208SOL    HW2 4305   1.555   1.356  10.615
 1209SOL     OW 4306   1.048   1.105  10.015
 1209SOL    HW1 4307   0.978   1.054  10.055
 1209SOL    HW2 4308   1.109   1.040   9.981
 1210SOL     OW 4309   1.007   0.241  10.307
 1210SOL    HW1 4310   1.014   0.213  10.216
 1210SOL    HW2 4311   1.001   0.160  10.357
 1211SOL     OW 4312   0.602   1.489   9.793
 1211SOL    HW1 4313   0.641   1.439   9.722
 1211SOL    HW2 4314   0.533   1.540   9.752
 1212SOL     OW 4315   1.717   0.393  10.688
 1212SOL    HW1 4316   1.789   0.457  10.689
 1212SOL    HW2 4317   1.747   0.323  10.630
 1213SOL     OW 4318   0.252   1.345   9.588
 1213SOL    HW1 4319   0.157   1.346   9.573
 1213SOL    HW2 4320   0.263   1.378   9.677
 1214SOL     OW 4321   0.110   1.017  11.006
 1214SOL    HW1 4322   0.049   1.018  11.080
 1214SOL    HW2 4323   0.196   1.000  11.046
 1215SOL     OW 4324   0.657   0.198  10.803
 1215SOL    HW1 4325   0.736   0.173  10.755
 1215SOL    HW2 4326   0.689   0.224  10.890
 1216SOL     OW 4327   0.070   0.321   9.336
 1216SOL    HW1 4328   4.475   0.330   9.346
 1216SOL    HW2 4329   0.099   0.407   9.305
 1217SOL     OW 4330   1.431   0.849  10.709
 1217SOL    HW1 4331   1.383   0.916  10.661
 1217SOL    HW2 4332   1.522   0.859  10.681
 1218SOL     OW 4333   0.083   0.189   9.613
 1218SOL    HW1 4334   0.080   0.260   9.550
 1218SOL    HW2 4335   0.161   0.138   9.589
 1219SOL     OW 4336   1.180   1.341   9.427
 1219SOL    HW1 4337   1.089   1.312   9.430
 1219SOL    HW2 4338   1.209   1.341   9.518
 1220SOL     OW 4339   0.621   0.830  10.737
 1220SOL    HW1 4340   0.675   0.908  10.725
 1220SOL    HW2 4341   0.684   0.758  10.747
 1221SOL     OW 4342   1.486   1.774  10.285
 1221SOL    HW1 4343   1.512   1.833  10.214
 1221SOL    HW2 4344   1.566   1.760  10.336
 1222SOL     OW 4345   0.715   0.561  11.015
 1222SOL    HW1 4346   0.745   0.634  11.070
 1222SOL    HW2 4347   0.767   0.486  11.044
 1223SOL     OW 4348   0.384   1.736  10.870
 1223SOL    HW1 4349   0.306   1.792  10.865
 1223SOL    HW2 4350   0.358   1.663  10.927
 1224SOL     OW 4351   1.673   0.883  10.566
 1224SOL    HW1 4352   1.662   0.798  10.524
 1224SOL    HW2 4353   1.664   0.946  10.496
 1225SOL     OW 4354   1.218   0.327   9.758
 1225SOL    HW1 4355   1.283   0.258   9.749
 1225SOL    HW2 4356   1.245   0.375   9.837
 1226SOL     OW 4357   0.588   0.740   9.978
 1226SOL    HW1 4358   0.630   0.825   9.961
 1226SOL    HW2 4359   0.519   0.733   9.913
 1227SOL     OW 4360   1.756   0.316  10.949
 1227SOL    HW1 4361   1.737   0.356  10.864
 1227SOL    HW2 4362   1.676   0.330  11.000
 1228SOL     OW 4363   1.748   0.935  10.825
 1228SOL    HW1 4364   1.743   1.030  10.839
 1228SOL    HW2 4365   1.731   0.924  10.732
 1229SOL     OW 4366   0.863   1.368   9.340
 1229SOL    HW1 4367   0.823   1.395   9.423
 1229SOL    HW2 4368   0.882   1.451   9.295
 1230SOL     OW 4369   0.659   1.794  10.259
 1230SOL    HW1 4370   0.637   1.884  10.233
 1230SOL    HW2 4371   0.754   1.789  10.249
 1231SOL     OW 4372   0.866   0.965  10.166
 1231SOL    HW1 4373   0.916   0.894  10.205
 1231SOL    HW2 4374   0.833   1.016  10.240
 1232SOL     OW 4375   1.080   0.988   9.399
 1232SOL    HW1 4376   1.058   1.038   9.320
 1232SOL    HW2 4377   1.155   0.935   9.373
 1233SOL     OW 4378   1.858   1.555  10.154
 1233SOL    HW1 4379   1.779   1.546  10.101
 1233SOL    HW2 4380   1.848   1.491  10.224
 1234SOL     OW 4381   0.102   1.239   9.977
 1234SOL    HW1 4382   0.106   1.188  10.057
 1234SOL    HW2 4383   0.162   1.196   9.917
 1235SOL     OW 4384   0.678   1.394  10.935
 1235SOL    HW1 4385   0.605   1.344  10.971
 1235SOL    HW2 4386   0.651   1.485  10.941
 1236SOL     OW 4387   1.807   0.182  10.549
 1236SOL    HW1 4388   1.816   0.089  10.570
 1236SOL    HW2 4389   1.823   0.187  10.455
 1237SOL     OW 4390   0.438   0.431   9.839
 1237SOL    HW1 4391   0.458   0.360   9.778
 1237SOL    HW2 4392   0.381   0.391   9.904
 1238SOL     OW 4393   1.703   1.490  10.408
 1238SOL    HW1 4394   1.621   1.464  10.367
 1238SOL    HW2 4395   1.719   1.424  10.475
 1239SOL     OW 4396   0.308   0.505  10.568
 1239SOL    HW1 4397   0.376   0.456  10.615
 1239SOL    HW2 4398   0.341   0.511  10.479
 1240SOL     OW 4399   0.825   1.578   9.990
 1240SOL    HW1 4400   0.819   1.624   9.906
 1240SOL    HW2 4401   0.747   1.523   9.993
 1241SOL     OW 4402   1.431   0.214  10.429
 1241SOL    HW1 4403   1.471   0.147  10.483
 1241SOL    HW2 4404   1.382   0.268  10.490
 1242SOL     OW 4405   0.997   0.013  10.457
 1242SOL    HW1 4406   0.951   4.429  10.447
 1242SOL    HW2 4407   1.088   4.488  10.473
 1243SOL     OW 4408   0.771   1.332   9.620
 1243SOL    HW1 4409   0.738   1.243   9.627
 1243SOL    HW2 4410   0.854   1.330   9.669
 1244SOL     OW 4411   0.620   1.558  10.595
 1244SOL    HW1 4412   0.622   1.640  10.644
 1244SOL    HW2 4413   0.707   1.552  10.555
 1245SOL     OW 4414   1.342   0.054   9.462
 1245SOL    HW1 4415   1.382   4.479   9.417
 1245SOL    HW2 4416   1.267   0.017   9.508
 1246SOL     OW 4417   1.314   0.462   9.991
 1246SOL    HW1 4418   1.252   0.535   9.991
 1246SOL    HW2 4419   1.302   0.419  10.075
 1247SOL     OW 4420   1.586   0.203  10.178
 1247SOL    HW1 4421   1.525   0.216  10.250
 1247SOL    HW2 4422   1.589   0.287  10.132
 1248SOL     OW 4423   0.041   1.054   9.597
 1248SOL    HW1 4424   0.136   1.042   9.590
 1248SOL    HW2 4425   0.018   1.013   9.680
 1249SOL     OW 4426   0.881   1.649   9.655
 1249SOL    HW1 4427   0.810   1.631   9.593
 1249SOL    HW2 4428   0.852   1.726   9.704
 1250SOL     OW 4429   0.244   2.460   0.108
 1250SOL    HW1 4430   0.170   2.463   0.170
 1250SOL    HW2 4431   0.208   2.494   0.026
 1251SOL     OW 4432   0.213   2.138   0.992
 1251SOL    HW1 4433   0.250   2.111   1.076
 1251SOL    HW2 4434   0.137   2.081   0.980
 1252SOL     OW 4435   0.009   2.249   0.638
 1252SOL    HW1 4436   4.430   2.278   0.682
 1252SOL    HW2 4437   4.485   2.167   0.595
 1253SOL     OW 4438   0.567   3.144   1.172
 1253SOL    HW1 4439   0.479   3.148   1.134
 1253SOL    HW2 4440   0.582   3.232   1.208
 1254SOL     OW 4441   1.557   3.373   0.705
 1254SOL    HW1 4442   1.513   3.355   0.788
 1254SOL    HW2 4443   1.487   3.378   0.641
 1255SOL     OW 4444   1.129   2.561   0.704
 1255SOL    HW1 4445   1.180   2.641   0.689
 1255SOL    HW2 4446   1.083   2.577   0.786
 1256SOL     OW 4447   1.768   2.467   0.226
 1256SOL    HW1 4448   1.736   2.459   0.137
 1256SOL    HW2 4449   1.732   2.391   0.272
 1257SOL     OW 4450   0.759   3.006   1.037
 1257SOL    HW1 4451   0.689   3.039   1.093
 1257SOL    HW2 4452   0.793   3.084   0.993
 1258SOL     OW 4453   0.862   2.642   1.821
 1258SOL    HW1 4454   0.849   2.713   1.883
 1258SOL    HW2 4455   0.886   2.685   1.739
 1259SOL     OW 4456   0.686   2.869   0.649
 1259SOL    HW1 4457   0.750   2.854   0.718
 1259SOL    HW2 4458   0.616   2.918   0.691
 1260SOL     OW 4459   0.708   3.013   1.810
 1260SOL    HW1 4460   0.755   3.093   1.833
 1260SOL    HW2 4461   0.624   3.044   1.775
 1261SOL     OW 4462   0.337   3.286   1.070
 1261SOL    HW1 4463   0.255   3.266   1.023
 1261SOL    HW2 4464   0.387   3.340   1.009
 1262SOL     OW 4465   1.462   3.360   1.350
 1262SOL    HW1 4466   1.505   3.444   1.361
 1262SOL    HW2 4467   1.406   3.351   1.428
 1263SOL     OW 4468   0.442   2.266   1.496
 1263SOL    HW1 4469   0.522   2.213   1.498
 1263SOL    HW2 4470   0.371   2.202   1.499
 1264SOL     OW 4471   1.612   2.311   0.741
 1264SOL    HW1 4472   1.537   2.336   0.687
 1264SOL    HW2 4473   1.633   2.389   0.791
 1265SOL     OW 4474   0.245   3.553   0.483
 1265SOL    HW1 4475   0.234   3.640   0.523
 1265SOL    HW2 4476   0.300   3.569   0.406
 1266SOL     OW 4477   1.136   3.203   1.691
 1266SOL    HW1 4478   1.175   3.199   1.778
 1266SOL    HW2 4479   1.083   3.123   1.685
 1267SOL     OW 4480   0.242   3.290   0.529
 1267SOL    HW1 4481   0.237   3.385   0.532
 1267SOL    HW2 4482   0.176   3.260   0.592
 1268SOL     OW 4483   0.244   2.943   0.882
 1268SOL    HW1 4484   0.263   2.856   0.916
 1268SOL    HW2 4485   0.187   2.983   0.948
 1269SOL     OW 4486   0.617   3.652   1.433
 1269SOL    HW1 4487   0.533   3.635   1.475
 1269SOL    HW2 4488   0.637   3.743   1.456
 1270SOL     OW 4489   0.577   2.853   0.143
 1270SOL    HW1 4490   0.621   2.899   0.072
 1270SOL    HW2 4491   0.628   2.875   0.221
 1271SOL     OW 4492   1.591   1.982   1.469
 1271SOL    HW1 4493   1.598   2.061   1.415
 1271SOL    HW2 4494   1.585   2.015   1.559
 1272SOL     OW 4495   0.137   2.506   0.575
 1272SOL    HW1 4496   0.087   2.426   0.588
 1272SOL    HW2 4497   0.106   2.565   0.644
 1273SOL     OW 4498   1.841   3.624   0.336
 1273SOL    HW1 4499   1.901   3.593   0.404
 1273SOL    HW2 4500   1.870   3.713   0.317
 1274SOL     OW 4501   0.070   3.455   0.150
 1274SOL    HW1 4502   0.034   3.366   0.152
 1274SOL    HW2 4503   0.013   3.505   0.210
 1275SOL     OW 4504   1.690   2.781   0.638
 1275SOL    HW1 4505   1.774   2.741   0.617
 1275SOL    HW2 4506   1.668   2.832   0.560
 1276SOL     OW 4507   1.645   2.969   0.432
 1276SOL    HW1 4508   1.727   2.981   0.384
 1276SOL    HW2 4509   1.650   3.030   0.505
 1277SOL     OW 4510   0.111   2.621   1.589
 1277SOL    HW1 4511   0.205   2.622   1.575
 1277SOL    HW2 4512   0.086   2.713   1.593
 1278SOL     OW 4513   0.613   3.244   0.735
 1278SOL    HW1 4514   0.566   3.161   0.744
 1278SOL    HW2 4515   0.596   3.272   0.645
 1279SOL     OW 4516   1.291   3.101   1.424
 1279SOL    HW1 4517   1.323   3.033   1.365
 1279SOL    HW2 4518   1.346   3.093   1.502
 1280SOL     OW 4519   0.813   1.861   0.505
 1280SOL    HW1 4520   0.852   1.947   0.491
 1280SOL    HW2 4521   0.719   1.879   0.516
 1281SOL     OW 4522   0.183   2.806   1.279
 1281SOL    HW1 4523   0.275   2.789   1.256
 1281SOL    HW2 4524   0.133   2.782   1.202
 1282SOL     OW 4525   1.521   2.861   0.200
 1282SOL    HW1 4526   1.457   2.797   0.232
 1282SOL    HW2 4527   1.568   2.889   0.278
 1283SOL     OW 4528   1.186   3.666   1.620
 1283SOL    HW1 4529   1.200   3.723   1.544
 1283SOL    HW2 4530   1.200   3.577   1.587
 1284SOL     OW 4531   0.328   2.117   1.795
 1284SOL    HW1 4532   0.381   2.190   1.828
 1284SOL    HW2 4533   0.243   2.128   1.838
 1285SOL     OW 4534   1.466   3.282   0.953
 1285SOL    HW1 4535   1.397   3.296   1.019
 1285SOL    HW2 4536   1.454   3.191   0.925
 1286SOL     OW 4537   1.661   3.596   0.579
 1286SOL    HW1 4538   1.639   3.568   0.490
 1286SOL    HW2 4539   1.634   3.522   0.633
 1287SOL     OW 4540   0.596   2.582   0.263
 1287SOL    HW1 4541   0.602   2.662   0.211
 1287SOL    HW2 4542   0.532   2.604   0.332
 1288SOL     OW 4543   1.280   2.210   0.932
 1288SOL    HW1 4544   1.190   2.177   0.940
 1288SOL    HW2 4545   1.330   2.158   0.994
 1289SOL     OW 4546   1.582   3.531   0.311
 1289SOL    HW1 4547   1.672   3.564   0.305
 1289SOL    HW2 4548   1.557   3.512   0.221
 1290SOL     OW 4549   0.794   2.478   1.453
 1290SOL    HW1 4550   0.768   2.456   1.542
 1290SOL    HW2 4551   0.750   2.414   1.398
 1291SOL     OW 4552   1.393   2.336   1.678
 1291SOL    HW1 4553   1.394   2.379   1.763
 1291SOL    HW2 4554   1.458   2.266   1.686
 1292SOL     OW 4555   0.958   2.751   1.581
 1292SOL    HW1 4556   1.012   2.679   1.546
 1292SOL    HW2 4557   0.911   2.784   1.504
 1293SOL     OW 4558   0.993   2.276   1.239
 1293SOL    HW1 4559   0.910   2.299   1.281
 1293SOL    HW2 4560   0.968   2.227   1.161
 1294SOL     OW 4561   1.049   2.563   0.427
 1294SOL    HW1 4562   1.064   2.555   0.522
 1294SOL    HW2 4563   0.967   2.516   0.412
 1295SOL     OW 4564   0.098   2.686   0.783
 1295SOL    HW1 4565   0.184   2.665   0.820
 1295SOL    HW2 4566   0.053   2.733   0.853
 1296SOL     OW 4567   0.126   3.712   1.575
 1296SOL    HW1 4568   0.119   3.690   1.668
 1296SOL    HW2 4569   0.044   3.681   1.537
 1297SOL     OW 4570   0.885   2.216   0.207
 1297SOL    HW1 4571   0.934   2.270   0.145
 1297SOL    HW2 4572   0.899   2.126   0.177
 1298SOL     OW 4573   1.713   2.443   1.829
 1298SOL    HW1 4574   1.675   2.518   1.783
 1298SOL    HW2 4575   1.730   2.378   1.760
 1299SOL     OW 4576   1.375   3.004   0.542
 1299SOL    HW1 4577   1.453   2.989   0.489
 1299SOL    HW2 4578   1.323   3.066   0.492
 1300SOL     OW 4579   0.551   2.046   0.892
 1300SOL    HW1 4580   0.553   2.074   0.984
 1300SOL    HW2 4581   0.552   2.128   0.842
 1301SOL     OW 4582   1.009   3.308   0.475
 1301SOL    HW1 4583   0.967   3.379   0.425
 1301SOL    HW2 4584   0.992   3.330   0.566
 1302SOL     OW 4585   0.354   3.670   0.857
 1302SOL    HW1 4586   0.397   3.585   0.867
 1302SOL    HW2 4587   0.425   3.733   0.868
 1303SOL     OW 4588   1.799   2.920   0.867
 1303SOL    HW1 4589   1.742   2.906   0.791
 1303SOL    HW2 4590   1.738   2.926   0.941
 1304SOL     OW 4591   1.228   3.402   1.512
 1304SOL    HW1 4592   1.214   3.329   1.573
 1304SOL    HW2 4593   1.167   3.385   1.440
 1305SOL     OW 4594   0.315   2.818   0.276
 1305SOL    HW1 4595   0.398   2.845   0.237
 1305SOL    HW2 4596   0.304   2.727   0.248
 1306SOL     OW 4597   1.475   2.600   0.727
 1306SOL    HW1 4598   1.464   2.555   0.811
 1306SOL    HW2 4599   1.552   2.656   0.741
 1307SOL     OW 4600   0.465   3.123   1.735
 1307SOL    HW1 4601   0.437   3.130   1.644
 1307SOL    HW2 4602   0.384   3.128   1.786
 1308SOL     OW 4603   1.107   3.640   0.227
 1308SOL    HW1 4604   1.049   3.588   0.282
 1308SOL    HW2 4605   1.147   3.577   0.167
 1309SOL     OW 4606   0.195   2.140   1.487
 1309SOL    HW1 4607   0.132   2.212   1.492
 1309SOL    HW2 4608   0.185   2.094   1.571
 1310SOL     OW 4609   1.628   3.237   0.088
 1310SOL    HW1 4610   1.586   3.322   0.076
 1310SOL    HW2 4611   1.562   3.173   0.061
 1311SOL     OW 4612   0.470   3.604   0.316
 1311SOL    HW1 4613   0.506   3.659   0.386
 1311SOL    HW2 4614   0.546   3.578   0.265
 1312SOL     OW 4615   1.401   1.970   0.430
 1312SOL    HW1 4616   1.391   1.946   0.337
 1312SOL    HW2 4617   1.496   1.978   0.442
 1313SOL     OW 4618   0.260   3.656   1.234
 1313SOL    HW1 4619   0.306   3.583   1.274
 1313SOL    HW2 4620   0.229   3.622   1.150
 1314SOL     OW 4621   0.939   3.560   0.900
 1314SOL    HW1 4622   1.015   3.506   0.921
 1314SOL    HW2 4623   0.892   3.511   0.832
 1315SOL     OW 4624   0.392   2.557   0.473
 1315SOL    HW1 4625   0.417   2.465   0.484
 1315SOL    HW2 4626   0.300   2.560   0.501
 1316SOL     OW 4627   1.537   2.086   1.726
 1316SOL    HW1 4628   1.544   2.107   1.820
 1316SOL    HW2 4629   1.470   2.019   1.721
 1317SOL     OW 4630   0.613   1.969   0.122
 1317SOL    HW1 4631   0.704   1.941   0.123
 1317SOL    HW2 4632   0.584   1.954   0.032
 1318SOL     OW 4633   0.768   2.137   1.752
 1318SOL    HW1 4634   0.841   2.076   1.759
 1318SOL    HW2 4635   0.718   2.124   1.833
 1319SOL     OW 4636   0.878   3.384   1.193
 1319SOL    HW1 4637   0.862   3.347   1.106
 1319SOL    HW2 4638   0.946   3.328   1.230
 1320SOL     OW 4639   1.341   2.451   1.432
 1320SOL    HW1 4640   1.372   2.418   1.517
 1320SOL    HW2 4641   1.378   2.539   1.426
 1321SOL     OW 4642   0.813   3.260   0.936
 1321SOL    HW1 4643   0.897   3.250   0.891
 1321SOL    HW2 4644   0.748   3.258   0.866
 1322SOL     OW 4645   0.926   2.371   0.904
 1322SOL    HW1 4646   0.904   2.363   0.811
 1322SOL    HW2 4647   0.960   2.285   0.928
 1323SOL     OW 4648   0.551   1.923   0.506
 1323SOL    HW1 4649   0.469   1.922   0.556
 1323SOL    HW2 4650   0.545   2.002   0.452
 1324SOL     OW 4651   1.426   3.058   0.032
 1324SOL    HW1 4652   1.460   2.986   0.084
 1324SOL    HW2 4653   1.343   3.081   0.072
 1325SOL     OW 4654   0.287   1.911   0.192
 1325SOL    HW1 4655   0.337   1.962   0.129
 1325SOL    HW2 4656   0.348   1.844   0.223
 1326SOL     OW 4657   0.938   2.105   0.464
 1326SOL    HW1 4658   0.908   2.152   0.386
 1326SOL    HW2 4659   1.032   2.120   0.466
 1327SOL     OW 4660   1.080   2.541   1.460
 1327SOL    HW1 4661   1.010   2.476   1.466
 1327SOL    HW2 4662   1.160   2.490   1.453
 1328SOL     OW 4663   1.225   3.431   0.794
 1328SOL    HW1 4664   1.243   3.499   0.728
 1328SOL    HW2 4665   1.293   3.443   0.860
 1329SOL     OW 4666   0.466   3.009   0.740
 1329SOL    HW1 4667   0.394   2.991   0.800
 1329SOL    HW2 4668   0.430   2.995   0.653
 1330SOL     OW 4669   1.271   3.657   0.604
 1330SOL    HW1 4670   1.316   3.719   0.547
 1330SOL    HW2 4671   1.207   3.711   0.651
 1331SOL     OW 4672   1.015   2.401   0.034
 1331SOL    HW1 4673   0.983   2.488   0.009
 1331SOL    HW2 4674   1.093   2.418   0.086
 1332SOL     OW 4675   0.080   2.395   1.407
 1332SOL    HW1 4676   0.149   2.396   1.341
 1332SOL    HW2 4677   0.068   2.487   1.430
 1333SOL     OW 4678   0.562   2.089   1.164
 1333SOL    HW1 4679   0.602   2.008   1.196
 1333SOL    HW2 4680   0.470   2.083   1.191
 1334SOL     OW 4681   0.870   2.322   0.640
 1334SOL    HW1 4682   0.823   2.376   0.576
 1334SOL    HW2 4683   0.888   2.240   0.594
 1335SOL     OW 4684   1.014   1.915   0.753
 1335SOL    HW1 4685   0.955   1.907   0.679
 1335SOL    HW2 4686   0.994   1.839   0.808
 1336SOL     OW 4687   1.436   3.026   0.858
 1336SOL    HW1 4688   1.368   2.958   0.856
 1336SOL    HW2 4689   1.459   3.039   0.766
 1337SOL     OW 4690   1.467   2.464   0.981
 1337SOL    HW1 4691   1.420   2.381   0.984
 1337SOL    HW2 4692   1.527   2.461   1.056
 1338SOL     OW 4693   1.850   2.678   0.382
 1338SOL    HW1 4694   1.905   2.625   0.439
 1338SOL    HW2 4695   1.820   2.618   0.314
 1339SOL     OW 4696   0.494   3.284   0.175
 1339SOL    HW1 4697   0.415   3.257   0.223
 1339SOL    HW2 4698   0.487   3.239   0.091
 1340SOL     OW 4699   1.668   3.127   0.650
 1340SOL    HW1 4700   1.763   3.133   0.661
 1340SOL    HW2 4701   1.636   3.215   0.670
 1341SOL     OW 4702   1.390   2.441   0.079
 1341SOL    HW1 4703   1.332   2.417   0.151
 1341SOL    HW2 4704   1.463   2.380   0.085
 1342SOL     OW 4705   0.529   2.124   0.328
 1342SOL    HW1 4706   0.555   2.066   0.257
 1342SOL    HW2 4707   0.513   2.209   0.285
 1343SOL     OW 4708   1.753   3.098   1.576
 1343SOL    HW1 4709   1.841   3.059   1.574
 1343SOL    HW2 4710   1.768   3.188   1.606
 1344SOL     OW 4711   1.061   3.216   1.335
 1344SOL    HW1 4712   0.986   3.185   1.386
 1344SOL    HW2 4713   1.136   3.174   1.376
 1345SOL     OW 4714   1.606   3.487   1.651
 1345SOL    HW1 4715   1.603   3.521   1.562
 1345SOL    HW2 4716   1.689   3.441   1.657
 1346SOL     OW 4717   1.126   3.064   1.107
 1346SOL    HW1 4718   1.067   3.101   1.173
 1346SOL    HW2 4719   1.091   3.094   1.023
 1347SOL     OW 4720   1.631   2.962   1.078
 1347SOL    HW1 4721   1.627   3.024   1.151
 1347SOL    HW2 4722   1.551   2.977   1.029
 1348SOL     OW 4723   0.917   1.961   1.399
 1348SOL    HW1 4724   0.940   1.941   1.308
 1348SOL    HW2 4725   0.997   2.000   1.435
 1349SOL     OW 4726   0.984   2.976   1.722
 1349SOL    HW1 4727   0.891   2.991   1.741
 1349SOL    HW2 4728   0.984   2.899   1.666
 1350SOL     OW 4729   0.709   2.921   0.373
 1350SOL    HW1 4730   0.696   2.908   0.467
 1350SOL    HW2 4731   0.786   2.868   0.352
 1351SOL     OW 4732   0.429   2.684   1.239
 1351SOL    HW1 4733   0.498   2.696   1.304
 1351SOL    HW2 4734   0.370   2.620   1.278
 1352SOL     OW 4735   1.267   2.240   1.273
 1352SOL    HW1 4736   1.299   2.317   1.319
 1352SOL    HW2 4737   1.178   2.263   1.247
 1353SOL     OW 4738   0.061   3.437   1.339
 1353SOL    HW1 4739   0.033   3.526   1.315
 1353SOL    HW2 4740   0.156   3.444   1.346
 1354SOL     OW 4741   0.353   2.974   0.499
 1354SOL    HW1 4742   0.355   3.048   0.438
 1354SOL    HW2 4743   0.347   2.897   0.443
 1355SOL     OW 4744   0.562   2.397   0.857
 1355SOL    HW1 4745   0.576   2.457   0.784
 1355SOL    HW2 4746   0.621   2.429   0.926
 1356SOL     OW 4747   1.247   3.208   0.393
 1356SOL    HW1 4748   1.303   3.281   0.421
 1356SOL    HW2 4749   1.160   3.231   0.425
 1357SOL     OW 4750   1.277   3.318   1.146
 1357SOL    HW1 4751   1.331   3.319   1.224
 1357SOL    HW2 4752   1.221   3.240   1.157
 1358SOL     OW 4753   1.585   2.489   0.477
 1358SOL    HW1 4754   1.538   2.542   0.541
 1358SOL    HW2 4755   1.624   2.553   0.417
 1359SOL     OW 4756   0.348   3.391   1.318
 1359SOL    HW1 4757   0.333   3.344   1.236
 1359SOL    HW2 4758   0.443   3.401   1.322
 1360SOL     OW 4759   0.472   2.621   1.660
 1360SOL    HW1 4760   0.502   2.660   1.578
 1360SOL    HW2 4761   0.506   2.531   1.657
 1361SOL     OW 4762   1.598   2.641   1.681
 1361SOL    HW1 4763   1.511   2.680   1.672
 1361SOL    HW2 4764   1.650   2.682   1.611
 1362SOL     OW 4765   0.997   1.980   1.757
 1362SOL    HW1 4766   1.048   2.053   1.723
 1362SOL    HW2 4767   1.046   1.902   1.730
 1363SOL     OW 4768   0.498   1.906   1.746
 1363SOL    HW1 4769   0.459   1.849   1.680
 1363SOL    HW2 4770   0.437   1.979   1.755
 1364SOL     OW 4771   0.588   2.735   1.024
 1364SOL    HW1 4772   0.616   2.827   1.026
 1364SOL    HW2 4773   0.531   2.726   1.100
 1365SOL     OW 4774   1.361   2.721   1.034
 1365SOL    HW1 4775   1.280   2.715   0.983
 1365SOL    HW2 4776   1.398   2.633   1.031
 1366SOL     OW 4777   1.205   2.389   0.272
 1366SOL    HW1 4778   1.213   2.311   0.327
 1366SOL    HW2 4779   1.163   2.454   0.328
 1367SOL     OW 4780   0.303   2.056   1.241
 1367SOL    HW1 4781   0.265   2.091   1.322
 1367SOL    HW2 4782   0.285   1.962   1.244
 1368SOL     OW 4783   0.047   3.175   1.284
 1368SOL    HW1 4784   0.078   3.128   1.361
 1368SOL    HW2 4785   0.049   3.267   1.309
 1369SOL     OW 4786   0.727   2.494   1.061
 1369SOL    HW1 4787   0.799   2.475   1.001
 1369SOL    HW2 4788   0.699   2.583   1.037
 1370SOL     OW 4789   1.732   2.823   1.850
 1370SOL    HW1 4790   1.686   2.764   1.790
 1370SOL    HW2 4791   1.673   2.833   1.924
 1371SOL     OW 4792   0.308   1.933   0.620
 1371SOL    HW1 4793   0.287   2.021   0.649
 1371SOL    HW2 4794   0.303   1.879   0.699
 1372SOL     OW 4795   1.613   2.234   0.369
 1372SOL    HW1 4796   1.642   2.171   0.435
 1372SOL    HW2 4797   1.591   2.312   0.419
 1373SOL     OW 4798   1.027   2.622   0.962
 1373SOL    HW1 4799   1.027   2.639   1.056
 1373SOL    HW2 4800   1.000   2.530   0.955
 1374SOL     OW 4801   0.983   3.429   1.714
 1374SOL    HW1 4802   0.967   3.472   1.631
 1374SOL    HW2 4803   1.025   3.346   1.690
 1375SOL     OW 4804   1.856   3.371   1.606
 1375SOL    HW1 4805   1.873   3.396   1.515
 1375SOL    HW2 4806   1.937   3.392   1.652
 1376SOL     OW 4807   0.348   2.792   1.818
 1376SOL    HW1 4808   0.422   2.819   1.871
 1376SOL    HW2 4809   0.383   2.726   1.758
 1377SOL     OW 4810   1.536   2.147   0.118
 1377SOL    HW1 4811   1.475   2.075   0.136
 1377SOL    HW2 4812   1.567   2.174   0.205
 1378SOL     OW 4813   1.290   2.688   0.033
 1378SOL    HW1 4814   1.333   2.603   0.045
 1378SOL    HW2 4815   1.323   2.720  11.050
 1379SOL     OW 4816   1.065   3.197   0.852
 1379SOL    HW1 4817   1.068   3.124   0.790
 1379SOL    HW2 4818   1.128   3.260   0.818
 1380SOL     OW 4819   0.317   2.674   0.950
 1380SOL    HW1 4820   0.411   2.692   0.946
 1380SOL    HW2 4821   0.310   2.584   0.980
 1381SOL     OW 4822   0.333   2.385   0.993
 1381SOL    HW1 4823   0.295   2.299   0.978
 1381SOL    HW2 4824   0.411   2.387   0.937
 1382SOL     OW 4825   1.134   2.240   1.679
 1382SOL    HW1 4826   1.089   2.295   1.743
 1382SOL    HW2 4827   1.223   2.277   1.675
 1383SOL     OW 4828   1.159   2.067   1.470
 1383SOL    HW1 4829   1.151   2.129   1.541
 1383SOL    HW2 4830   1.198   2.117   1.398
 1384SOL     OW 4831   4.495   3.186   0.197
 1384SOL    HW1 4832   4.401   3.203   0.188
 1384SOL    HW2 4833   0.001   3.095   0.225
 1385SOL     OW 4834   0.095   3.644   0.940
 1385SOL    HW1 4835   0.056   3.584   0.876
 1385SOL    HW2 4836   0.182   3.662   0.906
 1386SOL     OW 4837   0.499   3.435   0.906
 1386SOL    HW1 4838   0.567   3.498   0.930
 1386SOL    HW2 4839   0.543   3.370   0.852
 1387SOL     OW 4840   0.988   2.657   1.228
 1387SOL    HW1 4841   1.041   2.631   1.304
 1387SOL    HW2 4842   0.901   2.621   1.246
 1388SOL     OW 4843   0.037   2.423   1.106
 1388SOL    HW1 4844   0.119   2.387   1.074
 1388SOL    HW2 4845   0.027   2.386   1.194
 1389SOL     OW 4846   0.179   2.377   1.713
 1389SOL    HW1 4847   0.258   2.349   1.667
 1389SOL    HW2 4848   0.154   2.458   1.670
 1390SOL     OW 4849   1.375   2.804   1.659
 1390SOL    HW1 4850   1.396   2.897   1.659
 1390SOL    HW2 4851   1.374   2.779   1.567
 1391SOL     OW 4852   0.815   2.435   0.360
 1391SOL    HW1 4853   0.823   2.360   0.302
 1391SOL    HW2 4854   0.739   2.484   0.327
 1392SOL     OW 4855   1.641   2.464   1.190
 1392SOL    HW1 4856   1.632   2.401   1.262
 1392SOL    HW2 4857   1.729   2.448   1.155
 1393SOL     OW 4858   0.272   3.423   1.742
 1393SOL    HW1 4859   0.217   3.476   1.800
 1393SOL    HW2 4860   0.251   3.333   1.765
 1394SOL     OW 4861   0.686   2.318   1.265
 1394SOL    HW1 4862   0.644   2.240   1.229
 1394SOL    HW2 4863   0.690   2.379   1.191
 1395SOL     OW 4864   0.931   3.541   1.466
 1395SOL    HW1 4865   0.903   3.510   1.380
 1395SOL    HW2 4866   0.929   3.636   1.459
 1396SOL     OW 4867   0.476   2.347   0.185
 1396SOL    HW1 4868   0.532   2.422   0.207
 1396SOL    HW2 4869   0.389   2.385   0.170
 1397SOL     OW 4870   0.162   3.003   1.463
 1397SOL    HW1 4871   0.148   2.955   1.545
 1397SOL    HW2 4872   0.170   2.935   1.396
 1398SOL     OW 4873   1.330   2.911   1.225
 1398SOL    HW1 4874   1.353   2.848   1.157
 1398SOL    HW2 4875   1.257   2.961   1.187
 1399SOL     OW 4876   1.306   2.715   0.310
 1399SOL    HW1 4877   1.229   2.684   0.356
 1399SOL    HW2 4878   1.286   2.702   0.218
 1400SOL     OW 4879   1.768   3.609   1.148
 1400SOL    HW1 4880   1.828   3.634   1.078
 1400SOL    HW2 4881   1.745   3.518   1.128
 1401SOL     OW 4882   1.242   3.595   1.117
 1401SOL    HW1 4883   1.323   3.613   1.070
 1401SOL    HW2 4884   1.244   3.501   1.134
 1402SOL     OW 4885   0.068   3.050   1.048
 1402SOL    HW1 4886   0.073   3.085   1.137
 1402SOL    HW2 4887   0.012   3.112   1.001
 1403SOL     OW 4888   0.679   3.526   1.725
 1403SOL    HW1 4889   0.625   3.605   1.722
 1403SOL    HW2 4890   0.740   3.535   1.652
 1404SOL     OW 4891   0.916   1.954   0.112
 1404SOL    HW1 4892   0.968   1.920   0.040
 1404SOL    HW2 4893   0.952   1.911   0.190
 1405SOL     OW 4894   1.719   2.004   0.513
 1405SOL    HW1 4895   1.791   1.989   0.452
 1405SOL    HW2 4896   1.703   1.918   0.552
 1406SOL     OW 4897   1.390   3.430   0.483
 1406SOL    HW1 4898   1.451   3.460   0.416
 1406SOL    HW2 4899   1.344   3.509   0.511
 1407SOL     OW 4900   0.121   3.669   1.847
 1407SOL    HW1 4901   0.081   3.595   1.894
 1407SOL    HW2 4902   0.184   3.706   1.909
 1408SOL     OW 4903   1.277   2.787   0.671
 1408SOL    HW1 4904   1.350   2.725   0.675
 1408SOL    HW2 4905   1.310   2.860   0.619
 1409SOL     OW 4906   0.818   3.134   1.431
 1409SOL    HW1 4907   0.792   3.173   1.515
 1409SOL    HW2 4908   0.747   3.156   1.371
 1410SOL     OW 4909   0.675   3.479   0.165
 1410SOL    HW1 4910   0.681   3.489   0.070
 1410SOL    HW2 4911   0.618   3.404   0.178
 1411SOL     OW 4912   1.633   3.588   1.392
 1411SOL    HW1 4913   1.680   3.596   1.309
 1411SOL    HW2 4914   1.619   3.679   1.421
 1412SOL     OW 4915   1.845   2.044   0.966
 1412SOL    HW1 4916   1.879   1.958   0.940
 1412SOL    HW2 4917   1.759   2.049   0.926
 1413SOL     OW 4918   0.267   2.183   0.720
 1413SOL    HW1 4919   0.184   2.222   0.691
 1413SOL    HW2 4920   0.255   2.170   0.814
 1414SOL     OW 4921   1.221   3.466   0.050
 1414SOL    HW1 4922   1.209   3.373   0.071
 1414SOL    HW2 4923   1.154   3.484  11.084
 1415SOL     OW 4924   0.825   2.868   1.372
 1415SOL    HW1 4925   0.867   2.866   1.286
 1415SOL    HW2 4926   0.826   2.961   1.396
 1416SOL     OW 4927   0.914   2.770   0.283
 1416SOL    HW1 4928   0.982   2.808   0.227
 1416SOL    HW2 4929   0.960   2.703   0.333
 1417SOL     OW 4930   1.500   3.484   0.046
 1417SOL    HW1 4931   1.404   3.481   0.041
 1417SOL    HW2 4932   1.528   3.497  11.055
 1418SOL     OW 4933   0.373   3.167   1.491
 1418SOL    HW1 4934   0.356   3.246   1.439
 1418SOL    HW2 4935   0.297   3.111   1.475
 1419SOL     OW 4936   1.613   3.145   1.281
 1419SOL    HW1 4937   1.670   3.137   1.357
 1419SOL    HW2 4938   1.551   3.215   1.305
 1420SOL     OW 4939   1.048   2.967   0.704
 1420SOL    HW1 4940   0.978   2.916   0.745
 1420SOL    HW2 4941   1.110   2.902   0.671
 1421SOL     OW 4942   1.019   2.102   0.966
 1421SOL    HW1 4943   1.014   2.054   0.883
 1421SOL    HW2 4944   1.015   2.034   1.033
 1422SOL     OW 4945   0.602   3.353   0.483
 1422SOL    HW1 4946   0.639   3.302   0.412
 1422SOL    HW2 4947   0.531   3.403   0.443
 1423SOL     OW 4948   1.717   2.256   1.379
 1423SOL    HW1 4949   1.791   2.315   1.381
 1423SOL    HW2 4950   1.746   2.182   1.327
 1424SOL     OW 4951   0.261   3.195   0.284
 1424SOL    HW1 4952   0.173   3.208   0.249
 1424SOL    HW2 4953   0.258   3.234   0.371
 1425SOL     OW 4954   0.118   2.870   1.696
 1425SOL    HW1 4955   0.052   2.906   1.755
 1425SOL    HW2 4956   0.195   2.857   1.751
 1426SOL     OW 4957   0.672   2.061   1.498
 1426SOL    HW1 4958   0.756   2.040   1.456
 1426SOL    HW2 4959   0.696   2.087   1.587
 1427SOL     OW 4960   0.060   2.202   0.006
 1427SOL    HW1 4961   4.469   2.195   0.037
 1427SOL    HW2 4962   0.080   2.295   0.012
 1428SOL     OW 4963   1.432   2.721   1.402
 1428SOL    HW1 4964   1.384   2.780   1.344
 1428SOL    HW2 4965   1.522   2.723   1.369
 1429SOL     OW 4966   0.079   2.035   0.307
 1429SOL    HW1 4967   0.083   2.115   0.254
 1429SOL    HW2 4968   0.154   1.984   0.279
 1430SOL     OW 4969   1.181   3.205   0.121
 1430SOL    HW1 4970   1.088   3.182   0.118
 1430SOL    HW2 4971   1.204   3.198   0.214
 1431SOL     OW 4972   0.621   2.693   1.428
 1431SOL    HW1 4973   0.676   2.771   1.416
 1431SOL    HW2 4974   0.683   2.621   1.438
 1432SOL     OW 4975   1.485   3.637   0.975
 1432SOL    HW1 4976   1.511   3.693   0.903
 1432SOL    HW2 4977   1.566   3.620   1.024
 1433SOL     OW 4978   0.716   2.425   1.705
 1433SOL    HW1 4979   0.750   2.490   1.766
 1433SOL    HW2 4980   0.754   2.342   1.735
 1434SOL     OW 4981   1.468   3.065   1.633
 1434SOL    HW1 4982   1.456   3.078   1.727
 1434SOL    HW2 4983   1.562   3.077   1.619
 1435SOL     OW 4984   0.383   3.604   1.564
 1435SOL    HW1 4985   0.297   3.644   1.549
 1435SOL    HW2 4986   0.364   3.523   1.610
 1436SOL     OW 4987   1.673   2.744   1.255
 1436SOL    HW1 4988   1.662   2.659   1.214
 1436SOL    HW2 4989   1.663   2.807   1.184
 1437SOL     OW 4990   1.218   2.180   0.459
 1437SOL    HW1 4991   1.282   2.111   0.448
 1437SOL    HW2 4992   1.247   2.229   0.536
 1438SOL     OW 4993   0.591   2.602   0.667
 1438SOL    HW1 4994   0.629   2.688   0.650
 1438SOL    HW2 4995   0.520   2.594   0.603
 1439SOL     OW 4996   1.754   2.234   1.657
 1439SOL    HW1 4997   1.755   2.233   1.561
 1439SOL    HW2 4998   1.687   2.171   1.681
 1440SOL     OW 4999   1.743   2.796   1.512
 1440SOL    HW1 5000   1.745   2.891   1.525
 1440SOL    HW2 5001   1.728   2.785   1.419
 1441SOL     OW 5002   0.896   3.220   0.060
 1441SOL    HW1 5003   0.826   3.223   0.126
 1441SOL    HW2 5004   0.890   3.304   0.014
 1442SOL     OW 5005   0.660   3.656   0.949
 1442SOL    HW1 5006   0.637   3.745   0.923
 1442SOL    HW2 5007   0.755   3.651   0.939
 1443SOL     OW 5008   0.866   2.827   0.856
 1443SOL    HW1 5009   0.916   2.756   0.897
 1443SOL    HW2 5010   0.833   2.878   0.929
 1444SOL     OW 5011   1.080   2.852   0.086
 1444SOL    HW1 5012   1.057   2.887  11.100
 1444SOL    HW2 5013   1.156   2.797   0.070
 1445SOL     OW 5014   1.856   3.419   0.846
 1445SOL    HW1 5015   1.780   3.407   0.789
 1445SOL    HW2 5016   1.847   3.350   0.912
 1446SOL     OW 5017   0.228   3.169   1.856
 1446SOL    HW1 5018   0.159   3.107   1.831
 1446SOL    HW2 5019   0.218   3.179   1.951
 1447SOL     OW 5020   0.100   3.099   0.666
 1447SOL    HW1 5021   0.108   3.049   0.748
 1447SOL    HW2 5022   0.164   3.060   0.608
 1448SOL     OW 5023   0.681   3.262   1.626
 1448SOL    HW1 5024   0.600   3.218   1.654
 1448SOL    HW2 5025   0.674   3.350   1.663
 1449SOL     OW 5026   1.806   2.054   1.232
 1449SOL    HW1 5027   1.839   1.970   1.261
 1449SOL    HW2 5028   1.821   2.054   1.137
 1450SOL     OW 5029   0.433   2.296   0.525
 1450SOL    HW1 5030   0.461   2.223   0.470
 1450SOL    HW2 5031   0.384   2.255   0.596
 1451SOL     OW 5032   1.701   3.353   1.100
 1451SOL    HW1 5033   1.620   3.328   1.056
 1451SOL    HW2 5034   1.715   3.285   1.166
 1452SOL     OW 5035   0.305   2.351   1.257
 1452SOL    HW1 5036   0.379   2.311   1.303
 1452SOL    HW2 5037   0.337   2.365   1.168
 1453SOL     OW 5038   0.825   3.440   0.679
 1453SOL    HW1 5039   0.818   3.485   0.595
 1453SOL    HW2 5040   0.747   3.385   0.684
 1454SOL     OW 5041   1.432   2.085   1.118
 1454SOL    HW1 5042   1.466   2.010   1.166
 1454SOL    HW2 5043   1.380   2.134   1.182
 1455SOL     OW 5044   1.008   1.883   1.146
 1455SOL    HW1 5045   0.953   1.814   1.107
 1455SOL    HW2 5046   1.096   1.845   1.147
 1456SOL     OW 5047   0.768   3.191   0.312
 1456SOL    HW1 5048   0.737   3.101   0.325
 1456SOL    HW2 5049   0.852   3.193   0.356
 1457SOL     OW 5050   0.621   3.420   1.284
 1457SOL    HW1 5051   0.624   3.501   1.335
 1457SOL    HW2 5052   0.708   3.413   1.245
 1458SOL     OW 5053   1.351   1.915   0.164
 1458SOL    HW1 5054   1.373   1.867   0.085
 1458SOL    HW2 5055   1.265   1.882   0.189
 1459SOL     OW 5056   1.297   2.322   0.683
 1459SOL    HW1 5057   1.243   2.400   0.691
 1459SOL    HW2 5058   1.295   2.281   0.769
 1460SOL     OW 5059   1.588   2.066   0.877
 1460SOL    HW1 5060   1.524   2.083   0.946
 1460SOL    HW2 5061   1.588   2.145   0.823
 1461SOL     OW 5062   0.039   2.911   0.282
 1461SOL    HW1 5063   0.135   2.912   0.285
 1461SOL    HW2 5064   0.012   2.874   0.366
 1462SOL     OW 5065   0.883   3.513   0.347
 1462SOL    HW1 5066   0.812   3.492   0.286
 1462SOL    HW2 5067   0.850   3.587   0.397
 1463SOL     OW 5068   0.248   2.489   1.980
 1463SOL    HW1 5069   0.173   2.475   2.037
 1463SOL    HW2 5070   0.217   2.468   1.892
 1464SOL     OW 5071   0.213   2.138   2.854
 1464SOL    HW1 5072   0.250   2.111   2.938
 1464SOL    HW2 5073   0.137   2.081   2.842
 1465SOL     OW 5074   0.010   2.249   2.501
 1465SOL    HW1 5075   4.429   2.279   2.544
 1465SOL    HW2 5076   4.484   2.169   2.455
 1466SOL     OW 5077   0.567   3.144   3.034
 1466SOL    HW1 5078   0.479   3.148   2.996
 1466SOL    HW2 5079   0.582   3.232   3.070
 1467SOL     OW 5080   1.557   3.373   2.568
 1467SOL    HW1 5081   1.513   3.355   2.651
 1467SOL    HW2 5082   1.487   3.378   2.503
 1468SOL     OW 5083   1.129   2.561   2.566
 1468SOL    HW1 5084   1.180   2.641   2.551
 1468SOL    HW2 5085   1.083   2.577   2.648
 1469SOL     OW 5086   1.767   2.468   2.092
 1469SOL    HW1 5087   1.745   2.460   1.999
 1469SOL    HW2 5088   1.730   2.390   2.132
 1470SOL     OW 5089   0.759   3.006   2.900
 1470SOL    HW1 5090   0.689   3.040   2.955
 1470SOL    HW2 5091   0.793   3.084   2.855
 1471SOL     OW 5092   0.863   2.642   3.683
 1471SOL    HW1 5093   0.849   2.713   3.745
 1471SOL    HW2 5094   0.886   2.685   3.601
 1472SOL     OW 5095   0.686   2.869   2.511
 1472SOL    HW1 5096   0.750   2.854   2.581
 1472SOL    HW2 5097   0.616   2.918   2.554
 1473SOL     OW 5098   0.708   3.013   3.672
 1473SOL    HW1 5099   0.755   3.093   3.695
 1473SOL    HW2 5100   0.624   3.044   3.637
 1474SOL     OW 5101   0.337   3.286   2.932
 1474SOL    HW1 5102   0.255   3.266   2.885
 1474SOL    HW2 5103   0.387   3.340   2.871
 1475SOL     OW 5104   1.462   3.360   3.212
 1475SOL    HW1 5105   1.505   3.444   3.223
 1475SOL    HW2 5106   1.406   3.351   3.290
 1476SOL     OW 5107   0.442   2.266   3.358
 1476SOL    HW1 5108   0.522   2.213   3.360
 1476SOL    HW2 5109   0.371   2.202   3.361
 1477SOL     OW 5110   1.610   2.312   2.603
 1477SOL    HW1 5111   1.536   2.339   2.550
 1477SOL    HW2 5112   1.635   2.391   2.651
 1478SOL     OW 5113   0.246   3.554   2.342
 1478SOL    HW1 5114   0.233   3.638   2.385
 1478SOL    HW2 5115   0.307   3.572   2.270
 1479SOL     OW 5116   1.136   3.203   3.553
 1479SOL    HW1 5117   1.175   3.199   3.640
 1479SOL    HW2 5118   1.083   3.123   3.547
 1480SOL     OW 5119   0.244   3.289   2.390
 1480SOL    HW1 5120   0.237   3.385   2.395
 1480SOL    HW2 5121   0.179   3.257   2.453
 1481SOL     OW 5122   0.245   2.943   2.745
 1481SOL    HW1 5123   0.263   2.856   2.779
 1481SOL    HW2 5124   0.188   2.983   2.810
 1482SOL     OW 5125   0.617   3.652   3.295
 1482SOL    HW1 5126   0.533   3.635   3.337
 1482SOL    HW2 5127   0.637   3.743   3.318
 1483SOL     OW 5128   0.584   2.845   1.997
 1483SOL    HW1 5129   0.629   2.893   1.927
 1483SOL    HW2 5130   0.629   2.872   2.077
 1484SOL     OW 5131   1.589   1.981   3.333
 1484SOL    HW1 5132   1.599   2.057   3.276
 1484SOL    HW2 5133   1.584   2.017   3.421
 1485SOL     OW 5134   0.137   2.506   2.437
 1485SOL    HW1 5135   0.086   2.425   2.450
 1485SOL    HW2 5136   0.106   2.565   2.506
 1486SOL     OW 5137   1.841   3.623   2.199
 1486SOL    HW1 5138   1.901   3.594   2.268
 1486SOL    HW2 5139   1.869   3.713   2.180
 1487SOL     OW 5140   0.033   3.463   1.998
 1487SOL    HW1 5141   0.021   3.368   2.000
 1487SOL    HW2 5142   0.010   3.492   2.086
 1488SOL     OW 5143   1.691   2.782   2.500
 1488SOL    HW1 5144   1.774   2.739   2.480
 1488SOL    HW2 5145   1.669   2.831   2.421
 1489SOL     OW 5146   1.644   2.970   2.292
 1489SOL    HW1 5147   1.729   2.978   2.249
 1489SOL    HW2 5148   1.649   3.030   2.366
 1490SOL     OW 5149   0.111   2.621   3.451
 1490SOL    HW1 5150   0.205   2.622   3.437
 1490SOL    HW2 5151   0.086   2.713   3.455
 1491SOL     OW 5152   0.613   3.244   2.598
 1491SOL    HW1 5153   0.566   3.161   2.606
 1491SOL    HW2 5154   0.596   3.271   2.507
 1492SOL     OW 5155   1.291   3.101   3.286
 1492SOL    HW1 5156   1.323   3.033   3.227
 1492SOL    HW2 5157   1.346   3.093   3.364
 1493SOL     OW 5158   0.813   1.860   2.367
 1493SOL    HW1 5159   0.853   1.946   2.352
 1493SOL    HW2 5160   0.720   1.879   2.378
 1494SOL     OW 5161   0.183   2.806   3.141
 1494SOL    HW1 5162   0.275   2.789   3.118
 1494SOL    HW2 5163   0.133   2.781   3.064
 1495SOL     OW 5164   1.532   2.853   2.058
 1495SOL    HW1 5165   1.462   2.795   2.087
 1495SOL    HW2 5166   1.571   2.887   2.139
 1496SOL     OW 5167   1.186   3.666   3.482
 1496SOL    HW1 5168   1.200   3.723   3.407
 1496SOL    HW2 5169   1.200   3.577   3.449
 1497SOL     OW 5170   0.328   2.117   3.657
 1497SOL    HW1 5171   0.381   2.190   3.690
 1497SOL    HW2 5172   0.243   2.128   3.700
 1498SOL     OW 5173   1.466   3.281   2.816
 1498SOL    HW1 5174   1.397   3.296   2.881
 1498SOL    HW2 5175   1.454   3.191   2.788
 1499SOL     OW 5176   1.662   3.595   2.440
 1499SOL    HW1 5177   1.638   3.567   2.351
 1499SOL    HW2 5178   1.635   3.522   2.495
 1500SOL     OW 5179   0.597   2.584   2.126
 1500SOL    HW1 5180   0.602   2.664   2.074
 1500SOL    HW2 5181   0.531   2.604   2.193
 1501SOL     OW 5182   1.279   2.211   2.795
 1501SOL    HW1 5183   1.190   2.177   2.802
 1501SOL    HW2 5184   1.330   2.159   2.857
 1502SOL     OW 5185   1.582   3.530   2.171
 1502SOL    HW1 5186   1.670   3.565   2.165
 1502SOL    HW2 5187   1.556   3.513   2.080
 1503SOL     OW 5188   0.794   2.478   3.315
 1503SOL    HW1 5189   0.768   2.456   3.404
 1503SOL    HW2 5190   0.750   2.414   3.259
 1504SOL     OW 5191   1.394   2.336   3.539
 1504SOL    HW1 5192   1.394   2.379   3.625
 1504SOL    HW2 5193   1.457   2.265   3.548
 1505SOL     OW 5194   0.958   2.751   3.443
 1505SOL    HW1 5195   1.012   2.679   3.408
 1505SOL    HW2 5196   0.911   2.784   3.366
 1506SOL     OW 5197   0.993   2.276   3.101
 1506SOL    HW1 5198   0.910   2.298   3.143
 1506SOL    HW2 5199   0.968   2.227   3.023
 1507SOL     OW 5200   1.049   2.561   2.289
 1507SOL    HW1 5201   1.064   2.554   2.383
 1507SOL    HW2 5202   0.968   2.513   2.274
 1508SOL     OW 5203   0.098   2.686   2.645
 1508SOL    HW1 5204   0.184   2.665   2.681
 1508SOL    HW2 5205   0.053   2.733   2.716
 1509SOL     OW 5206   0.126   3.711   3.437
 1509SOL    HW1 5207   0.119   3.690   3.530
 1509SOL    HW2 5208   0.044   3.681   3.399
 1510SOL     OW 5209   0.887   2.208   2.056
 1510SOL    HW1 5210   0.931   2.269   1.996
 1510SOL    HW2 5211   0.905   2.122   2.020
 1511SOL     OW 5212   1.711   2.442   3.691
 1511SOL    HW1 5213   1.674   2.517   3.645
 1511SOL    HW2 5214   1.732   2.379   3.622
 1512SOL     OW 5215   1.375   3.005   2.405
 1512SOL    HW1 5216   1.453   2.990   2.351
 1512SOL    HW2 5217   1.322   3.066   2.354
 1513SOL     OW 5218   0.550   2.046   2.754
 1513SOL    HW1 5219   0.553   2.074   2.846
 1513SOL    HW2 5220   0.552   2.128   2.704
 1514SOL     OW 5221   1.009   3.308   2.336
 1514SOL    HW1 5222   0.968   3.379   2.287
 1514SOL    HW2 5223   0.993   3.330   2.428
 1515SOL     OW 5224   0.354   3.669   2.718
 1515SOL    HW1 5225   0.397   3.585   2.729
 1515SOL    HW2 5226   0.424   3.734   2.731
 1516SOL     OW 5227   1.799   2.922   2.729
 1516SOL    HW1 5228   1.743   2.904   2.653
 1516SOL    HW2 5229   1.738   2.927   2.803
 1517SOL     OW 5230   1.228   3.402   3.374
 1517SOL    HW1 5231   1.214   3.329   3.435
 1517SOL    HW2 5232   1.167   3.385   3.302
 1518SOL     OW 5233   0.317   2.816   2.111
 1518SOL    HW1 5234   0.402   2.838   2.072
 1518SOL    HW2 5235   0.299   2.727   2.081
 1519SOL     OW 5236   1.476   2.601   2.590
 1519SOL    HW1 5237   1.464   2.555   2.673
 1519SOL    HW2 5238   1.552   2.656   2.604
 1520SOL     OW 5239   0.466   3.123   3.597
 1520SOL    HW1 5240   0.437   3.129   3.506
 1520SOL    HW2 5241   0.384   3.128   3.648
 1521SOL     OW 5242   1.120   3.639   2.094
 1521SOL    HW1 5243   1.049   3.596   2.141
 1521SOL    HW2 5244   1.142   3.580   2.022
 1522SOL     OW 5245   0.195   2.140   3.349
 1522SOL    HW1 5246   0.132   2.211   3.354
 1522SOL    HW2 5247   0.185   2.094   3.433
 1523SOL     OW 5248   1.629   3.241   1.949
 1523SOL    HW1 5249   1.588   3.326   1.934
 1523SOL    HW2 5250   1.560   3.178   1.930
 1524SOL     OW 5251   0.469   3.607   2.176
 1524SOL    HW1 5252   0.508   3.658   2.247
 1524SOL    HW2 5253   0.544   3.574   2.125
 1525SOL     OW 5254   1.401   1.970   2.292
 1525SOL    HW1 5255   1.389   1.944   2.200
 1525SOL    HW2 5256   1.495   1.978   2.303
 1526SOL     OW 5257   0.260   3.656   3.096
 1526SOL    HW1 5258   0.306   3.582   3.136
 1526SOL    HW2 5259   0.228   3.621   3.012
 1527SOL     OW 5260   0.938   3.560   2.762
 1527SOL    HW1 5261   1.015   3.506   2.783
 1527SOL    HW2 5262   0.892   3.512   2.694
 1528SOL     OW 5263   0.392   2.557   2.337
 1528SOL    HW1 5264   0.417   2.465   2.346
 1528SOL    HW2 5265   0.300   2.560   2.362
 1529SOL     OW 5266   1.538   2.089   3.589
 1529SOL    HW1 5267   1.544   2.108   3.682
 1529SOL    HW2 5268   1.472   2.020   3.583
 1530SOL     OW 5269   0.630   1.989   1.967
 1530SOL    HW1 5270   0.703   1.929   1.981
 1530SOL    HW2 5271   0.585   1.954   1.890
 1531SOL     OW 5272   0.769   2.138   3.615
 1531SOL    HW1 5273   0.841   2.076   3.621
 1531SOL    HW2 5274   0.718   2.123   3.695
 1532SOL     OW 5275   0.878   3.384   3.055
 1532SOL    HW1 5276   0.862   3.347   2.968
 1532SOL    HW2 5277   0.946   3.328   3.092
 1533SOL     OW 5278   1.341   2.451   3.294
 1533SOL    HW1 5279   1.372   2.418   3.379
 1533SOL    HW2 5280   1.377   2.539   3.288
 1534SOL     OW 5281   0.813   3.260   2.798
 1534SOL    HW1 5282   0.897   3.250   2.753
 1534SOL    HW2 5283   0.748   3.258   2.728
 1535SOL     OW 5284   0.926   2.371   2.766
 1535SOL    HW1 5285   0.904   2.363   2.674
 1535SOL    HW2 5286   0.960   2.285   2.790
 1536SOL     OW 5287   0.550   1.924   2.366
 1536SOL    HW1 5288   0.469   1.923   2.418
 1536SOL    HW2 5289   0.544   2.003   2.313
 1537SOL     OW 5290   1.429   3.060   1.903
 1537SOL    HW1 5291   1.459   2.984   1.953
 1537SOL    HW2 5292   1.342   3.079   1.940
 1538SOL     OW 5293   0.295   1.908   2.040
 1538SOL    HW1 5294   0.357   1.976   2.013
 1538SOL    HW2 5295   0.349   1.842   2.084
 1539SOL     OW 5296   0.936   2.106   2.326
 1539SOL    HW1 5297   0.907   2.149   2.245
 1539SOL    HW2 5298   1.031   2.118   2.327
 1540SOL     OW 5299   1.080   2.541   3.322
 1540SOL    HW1 5300   1.010   2.476   3.328
 1540SOL    HW2 5301   1.160   2.489   3.314
 1541SOL     OW 5302   1.225   3.431   2.655
 1541SOL    HW1 5303   1.243   3.499   2.590
 1541SOL    HW2 5304   1.293   3.443   2.722
 1542SOL     OW 5305   0.465   3.010   2.600
 1542SOL    HW1 5306   0.393   2.991   2.660
 1542SOL    HW2 5307   0.428   2.993   2.513
 1543SOL     OW 5308   1.271   3.657   2.468
 1543SOL    HW1 5309   1.315   3.718   2.409
 1543SOL    HW2 5310   1.206   3.710   2.514
 1544SOL     OW 5311   1.025   2.407   1.881
 1544SOL    HW1 5312   0.983   2.491   1.861
 1544SOL    HW2 5313   1.089   2.429   1.949
 1545SOL     OW 5314   0.080   2.395   3.269
 1545SOL    HW1 5315   0.149   2.396   3.203
 1545SOL    HW2 5316   0.068   2.487   3.292
 1546SOL     OW 5317   0.562   2.089   3.026
 1546SOL    HW1 5318   0.602   2.008   3.059
 1546SOL    HW2 5319   0.470   2.083   3.053
 1547SOL     OW 5320   0.870   2.322   2.502
 1547SOL    HW1 5321   0.822   2.375   2.438
 1547SOL    HW2 5322   0.889   2.240   2.455
 1548SOL     OW 5323   1.014   1.915   2.616
 1548SOL    HW1 5324   0.956   1.906   2.540
 1548SOL    HW2 5325   0.994   1.839   2.670
 1549SOL     OW 5326   1.436   3.026   2.720
 1549SOL    HW1 5327   1.368   2.958   2.718
 1549SOL    HW2 5328   1.458   3.039   2.627
 1550SOL     OW 5329   1.467   2.465   2.844
 1550SOL    HW1 5330   1.420   2.382   2.847
 1550SOL    HW2 5331   1.528   2.460   2.917
 1551SOL     OW 5332   1.848   2.680   2.244
 1551SOL    HW1 5333   1.903   2.627   2.302
 1551SOL    HW2 5334   1.819   2.620   2.176
 1552SOL     OW 5335   0.492   3.275   2.024
 1552SOL    HW1 5336   0.416   3.246   2.074
 1552SOL    HW2 5337   0.471   3.256   1.933
 1553SOL     OW 5338   1.668   3.128   2.510
 1553SOL    HW1 5339   1.763   3.134   2.523
 1553SOL    HW2 5340   1.636   3.215   2.532
 1554SOL     OW 5341   1.394   2.434   1.933
 1554SOL    HW1 5342   1.334   2.415   2.006
 1554SOL    HW2 5343   1.478   2.400   1.963
 1555SOL     OW 5344   0.525   2.122   2.182
 1555SOL    HW1 5345   0.567   2.074   2.111
 1555SOL    HW2 5346   0.508   2.209   2.146
 1556SOL     OW 5347   1.753   3.098   3.438
 1556SOL    HW1 5348   1.841   3.059   3.436
 1556SOL    HW2 5349   1.768   3.188   3.468
 1557SOL     OW 5350   1.061   3.216   3.197
 1557SOL    HW1 5351   0.986   3.185   3.248
 1557SOL    HW2 5352   1.136   3.174   3.238
 1558SOL     OW 5353   1.606   3.487   3.513
 1558SOL    HW1 5354   1.603   3.521   3.424
 1558SOL    HW2 5355   1.689   3.441   3.519
 1559SOL     OW 5356   1.126   3.064   2.969
 1559SOL    HW1 5357   1.067   3.101   3.035
 1559SOL    HW2 5358   1.091   3.094   2.885
 1560SOL     OW 5359   1.632   2.962   2.940
 1560SOL    HW1 5360   1.627   3.024   3.013
 1560SOL    HW2 5361   1.551   2.977   2.891
 1561SOL     OW 5362   0.917   1.961   3.261
 1561SOL    HW1 5363   0.940   1.941   3.170
 1561SOL    HW2 5364   0.997   2.000   3.297
 1562SOL     OW 5365   0.984   2.976   3.584
 1562SOL    HW1 5366   0.891   2.991   3.603
 1562SOL    HW2 5367   0.984   2.899   3.528
 1563SOL     OW 5368   0.708   2.922   2.235
 1563SOL    HW1 5369   0.695   2.908   2.328
 1563SOL    HW2 5370   0.784   2.869   2.212
 1564SOL     OW 5371   0.429   2.684   3.101
 1564SOL    HW1 5372   0.498   2.696   3.166
 1564SOL    HW2 5373   0.370   2.620   3.139
 1565SOL     OW 5374   1.268   2.240   3.134
 1565SOL    HW1 5375   1.299   2.317   3.181
 1565SOL    HW2 5376   1.178   2.263   3.109
 1566SOL     OW 5377   0.061   3.437   3.200
 1566SOL    HW1 5378   0.032   3.526   3.178
 1566SOL    HW2 5379   0.156   3.444   3.208
 1567SOL     OW 5380   0.351   2.968   2.356
 1567SOL    HW1 5381   0.359   3.042   2.294
 1567SOL    HW2 5382   0.353   2.890   2.300
 1568SOL     OW 5383   0.562   2.397   2.719
 1568SOL    HW1 5384   0.576   2.457   2.646
 1568SOL    HW2 5385   0.621   2.429   2.788
 1569SOL     OW 5386   1.248   3.210   2.251
 1569SOL    HW1 5387   1.303   3.282   2.282
 1569SOL    HW2 5388   1.161   3.230   2.285
 1570SOL     OW 5389   1.277   3.318   3.008
 1570SOL    HW1 5390   1.331   3.319   3.086
 1570SOL    HW2 5391   1.221   3.240   3.018
 1571SOL     OW 5392   1.581   2.487   2.337
 1571SOL    HW1 5393   1.538   2.543   2.402
 1571SOL    HW2 5394   1.629   2.548   2.281
 1572SOL     OW 5395   0.348   3.391   3.180
 1572SOL    HW1 5396   0.333   3.344   3.098
 1572SOL    HW2 5397   0.443   3.401   3.184
 1573SOL     OW 5398   0.472   2.621   3.522
 1573SOL    HW1 5399   0.502   2.660   3.440
 1573SOL    HW2 5400   0.506   2.531   3.519
 1574SOL     OW 5401   1.598   2.641   3.542
 1574SOL    HW1 5402   1.511   2.680   3.534
 1574SOL    HW2 5403   1.650   2.682   3.473
 1575SOL     OW 5404   0.997   1.980   3.619
 1575SOL    HW1 5405   1.048   2.053   3.585
 1575SOL    HW2 5406   1.046   1.902   3.592
 1576SOL     OW 5407   0.498   1.906   3.608
 1576SOL    HW1 5408   0.459   1.849   3.542
 1576SOL    HW2 5409   0.437   1.979   3.617
 1577SOL     OW 5410   0.589   2.735   2.886
 1577SOL    HW1 5411   0.616   2.827   2.888
 1577SOL    HW2 5412   0.531   2.726   2.962
 1578SOL     OW 5413   1.361   2.721   2.896
 1578SOL    HW1 5414   1.280   2.715   2.846
 1578SOL    HW2 5415   1.398   2.633   2.893
 1579SOL     OW 5416   1.207   2.391   2.131
 1579SOL    HW1 5417   1.215   2.313   2.185
 1579SOL    HW2 5418   1.165   2.455   2.188
 1580SOL     OW 5419   0.303   2.056   3.103
 1580SOL    HW1 5420   0.265   2.091   3.184
 1580SOL    HW2 5421   0.285   1.962   3.106
 1581SOL     OW 5422   0.047   3.174   3.146
 1581SOL    HW1 5423   0.078   3.128   3.223
 1581SOL    HW2 5424   0.049   3.267   3.171
 1582SOL     OW 5425   0.727   2.494   2.923
 1582SOL    HW1 5426   0.799   2.475   2.863
 1582SOL    HW2 5427   0.699   2.583   2.899
 1583SOL     OW 5428   1.732   2.822   3.712
 1583SOL    HW1 5429   1.686   2.764   3.652
 1583SOL    HW2 5430   1.672   2.833   3.786
 1584SOL     OW 5431   0.308   1.932   2.481
 1584SOL    HW1 5432   0.287   2.021   2.510
 1584SOL    HW2 5433   0.304   1.879   2.561
 1585SOL     OW 5434   1.613   2.234   2.232
 1585SOL    HW1 5435   1.641   2.172   2.299
 1585SOL    HW2 5436   1.591   2.313   2.280
 1586SOL     OW 5437   1.027   2.622   2.824
 1586SOL    HW1 5438   1.027   2.639   2.918
 1586SOL    HW2 5439   1.000   2.530   2.817
 1587SOL     OW 5440   0.983   3.429   3.576
 1587SOL    HW1 5441   0.967   3.473   3.493
 1587SOL    HW2 5442   1.025   3.346   3.552
 1588SOL     OW 5443   1.856   3.371   3.468
 1588SOL    HW1 5444   1.872   3.396   3.377
 1588SOL    HW2 5445   1.937   3.392   3.514
 1589SOL     OW 5446   0.348   2.792   3.680
 1589SOL    HW1 5447   0.422   2.819   3.733
 1589SOL    HW2 5448   0.383   2.726   3.620
 1590SOL     OW 5449   1.531   2.135   1.990
 1590SOL    HW1 5450   1.466   2.070   2.016
 1590SOL    HW2 5451   1.563   2.172   2.072
 1591SOL     OW 5452   1.295   2.689   1.895
 1591SOL    HW1 5453   1.337   2.603   1.898
 1591SOL    HW2 5454   1.325   2.728   1.813
 1592SOL     OW 5455   1.065   3.197   2.714
 1592SOL    HW1 5456   1.068   3.124   2.653
 1592SOL    HW2 5457   1.128   3.260   2.679
 1593SOL     OW 5458   0.317   2.674   2.812
 1593SOL    HW1 5459   0.411   2.691   2.807
 1593SOL    HW2 5460   0.310   2.584   2.842
 1594SOL     OW 5461   0.333   2.385   2.855
 1594SOL    HW1 5462   0.295   2.299   2.839
 1594SOL    HW2 5463   0.411   2.387   2.799
 1595SOL     OW 5464   1.135   2.241   3.541
 1595SOL    HW1 5465   1.089   2.295   3.605
 1595SOL    HW2 5466   1.223   2.277   3.537
 1596SOL     OW 5467   1.159   2.067   3.332
 1596SOL    HW1 5468   1.151   2.129   3.403
 1596SOL    HW2 5469   1.198   2.117   3.260
 1597SOL     OW 5470   4.492   3.185   2.063
 1597SOL    HW1 5471   4.399   3.200   2.046
 1597SOL    HW2 5472   4.498   3.093   2.087
 1598SOL     OW 5473   0.095   3.643   2.802
 1598SOL    HW1 5474   0.057   3.583   2.738
 1598SOL    HW2 5475   0.182   3.662   2.768
 1599SOL     OW 5476   0.499   3.435   2.768
 1599SOL    HW1 5477   0.567   3.498   2.792
 1599SOL    HW2 5478   0.543   3.370   2.714
 1600SOL     OW 5479   0.988   2.657   3.090
 1600SOL    HW1 5480   1.040   2.631   3.166
 1600SOL    HW2 5481   0.901   2.621   3.108
 1601SOL     OW 5482   0.037   2.424   2.968
 1601SOL    HW1 5483   0.119   2.387   2.936
 1601SOL    HW2 5484   0.027   2.386   3.056
 1602SOL     OW 5485   0.179   2.377   3.575
 1602SOL    HW1 5486   0.258   2.349   3.529
 1602SOL    HW2 5487   0.153   2.458   3.532
 1603SOL     OW 5488   1.375   2.804   3.521
 1603SOL    HW1 5489   1.396   2.897   3.521
 1603SOL    HW2 5490   1.373   2.779   3.429
 1604SOL     OW 5491   0.816   2.431   2.217
 1604SOL    HW1 5492   0.818   2.355   2.158
 1604SOL    HW2 5493   0.741   2.483   2.187
 1605SOL     OW 5494   1.646   2.464   3.050
 1605SOL    HW1 5495   1.635   2.402   3.122
 1605SOL    HW2 5496   1.733   2.445   3.015
 1606SOL     OW 5497   0.272   3.423   3.604
 1606SOL    HW1 5498   0.218   3.476   3.662
 1606SOL    HW2 5499   0.250   3.333   3.627
 1607SOL     OW 5500   0.686   2.318   3.127
 1607SOL    HW1 5501   0.644   2.240   3.091
 1607SOL    HW2 5502   0.690   2.379   3.052
 1608SOL     OW 5503   0.931   3.541   3.328
 1608SOL    HW1 5504   0.903   3.510   3.242
 1608SOL    HW2 5505   0.928   3.636   3.321
 1609SOL     OW 5506   0.473   2.353   2.050
 1609SOL    HW1 5507   0.531   2.426   2.071
 1609SOL    HW2 5508   0.387   2.393   2.036
 1610SOL     OW 5509   0.162   3.003   3.325
 1610SOL    HW1 5510   0.148   2.955   3.407
 1610SOL    HW2 5511   0.170   2.935   3.258
 1611SOL     OW 5512   1.330   2.911   3.087
 1611SOL    HW1 5513   1.353   2.848   3.019
 1611SOL    HW2 5514   1.257   2.961   3.049
 1612SOL     OW 5515   1.308   2.719   2.170
 1612SOL    HW1 5516   1.231   2.688   2.218
 1612SOL    HW2 5517   1.286   2.705   2.077
 1613SOL     OW 5518   1.768   3.609   3.010
 1613SOL    HW1 5519   1.828   3.634   2.940
 1613SOL    HW2 5520   1.745   3.518   2.990
 1614SOL     OW 5521   1.242   3.595   2.979
 1614SOL    HW1 5522   1.323   3.613   2.932
 1614SOL    HW2 5523   1.244   3.501   2.996
 1615SOL     OW 5524   0.068   3.050   2.910
 1615SOL    HW1 5525   0.073   3.085   2.999
 1615SOL    HW2 5526   0.012   3.112   2.863
 1616SOL     OW 5527   0.679   3.526   3.587
 1616SOL    HW1 5528   0.625   3.605   3.584
 1616SOL    HW2 5529   0.740   3.535   3.514
 1617SOL     OW 5530   1.719   2.003   2.375
 1617SOL    HW1 5531   1.790   1.987   2.314
 1617SOL    HW2 5532   1.701   1.918   2.415
 1618SOL     OW 5533   1.390   3.430   2.345
 1618SOL    HW1 5534   1.451   3.461   2.277
 1618SOL    HW2 5535   1.343   3.508   2.372
 1619SOL     OW 5536   0.121   3.669   3.709
 1619SOL    HW1 5537   0.081   3.595   3.756
 1619SOL    HW2 5538   0.184   3.706   3.771
 1620SOL     OW 5539   1.277   2.786   2.533
 1620SOL    HW1 5540   1.350   2.725   2.538
 1620SOL    HW2 5541   1.311   2.860   2.481
 1621SOL     OW 5542   0.818   3.134   3.293
 1621SOL    HW1 5543   0.792   3.173   3.377
 1621SOL    HW2 5544   0.747   3.156   3.233
 1622SOL     OW 5545   0.673   3.478   2.017
 1622SOL    HW1 5546   0.681   3.489   1.922
 1622SOL    HW2 5547   0.619   3.400   2.028
 1623SOL     OW 5548   1.633   3.588   3.254
 1623SOL    HW1 5549   1.680   3.596   3.171
 1623SOL    HW2 5550   1.619   3.679   3.283
 1624SOL     OW 5551   1.806   2.005   2.831
 1624SOL    HW1 5552   1.845   1.929   2.788
 1624SOL    HW2 5553   1.725   2.022   2.782
 1625SOL     OW 5554   0.267   2.182   2.582
 1625SOL    HW1 5555   0.184   2.221   2.553
 1625SOL    HW2 5556   0.255   2.170   2.676
 1626SOL     OW 5557   1.206   3.470   1.893
 1626SOL    HW1 5558   1.198   3.379   1.921
 1626SOL    HW2 5559   1.141   3.480   1.823
 1627SOL     OW 5560   0.825   2.868   3.234
 1627SOL    HW1 5561   0.867   2.865   3.148
 1627SOL    HW2 5562   0.826   2.961   3.258
 1628SOL     OW 5563   0.915   2.773   2.151
 1628SOL    HW1 5564   0.977   2.804   2.085
 1628SOL    HW2 5565   0.962   2.701   2.195
 1629SOL     OW 5566   1.495   3.486   1.904
 1629SOL    HW1 5567   1.400   3.482   1.893
 1629SOL    HW2 5568   1.529   3.492   1.815
 1630SOL     OW 5569   0.373   3.167   3.353
 1630SOL    HW1 5570   0.356   3.246   3.301
 1630SOL    HW2 5571   0.297   3.111   3.337
 1631SOL     OW 5572   1.613   3.146   3.143
 1631SOL    HW1 5573   1.670   3.137   3.220
 1631SOL    HW2 5574   1.551   3.215   3.167
 1632SOL     OW 5575   1.048   2.967   2.567
 1632SOL    HW1 5576   0.978   2.916   2.607
 1632SOL    HW2 5577   1.109   2.902   2.532
 1633SOL     OW 5578   1.019   2.102   2.828
 1633SOL    HW1 5579   1.014   2.054   2.745
 1633SOL    HW2 5580   1.015   2.034   2.895
 1634SOL     OW 5581   0.603   3.352   2.345
 1634SOL    HW1 5582   0.641   3.301   2.274
 1634SOL    HW2 5583   0.532   3.401   2.304
 1635SOL     OW 5584   1.717   2.257   3.246
 1635SOL    HW1 5585   1.791   2.317   3.241
 1635SOL    HW2 5586   1.744   2.182   3.192
 1636SOL     OW 5587   0.252   3.207   2.140
 1636SOL    HW1 5588   0.158   3.208   2.125
 1636SOL    HW2 5589   0.262   3.240   2.229
 1637SOL     OW 5590   0.118   2.870   3.558
 1637SOL    HW1 5591   0.052   2.906   3.617
 1637SOL    HW2 5592   0.195   2.857   3.613
 1638SOL     OW 5593   0.672   2.061   3.360
 1638SOL    HW1 5594   0.756   2.040   3.318
 1638SOL    HW2 5595   0.696   2.087   3.449
 1639SOL     OW 5596   0.072   2.189   1.895
 1639SOL    HW1 5597   4.477   2.197   1.893
 1639SOL    HW2 5598   0.105   2.270   1.857
 1640SOL     OW 5599   1.432   2.721   3.264
 1640SOL    HW1 5600   1.384   2.780   3.207
 1640SOL    HW2 5601   1.522   2.724   3.231
 1641SOL     OW 5602   0.084   2.040   2.169
 1641SOL    HW1 5603   0.078   2.111   2.105
 1641SOL    HW2 5604   0.160   1.989   2.141
 1642SOL     OW 5605   1.180   3.204   1.979
 1642SOL    HW1 5606   1.089   3.174   1.982
 1642SOL    HW2 5607   1.208   3.203   2.070
 1643SOL     OW 5608   0.621   2.693   3.290
 1643SOL    HW1 5609   0.676   2.771   3.278
 1643SOL    HW2 5610   0.683   2.621   3.300
 1644SOL     OW 5611   1.485   3.636   2.837
 1644SOL    HW1 5612   1.511   3.693   2.765
 1644SOL    HW2 5613   1.566   3.621   2.886
 1645SOL     OW 5614   0.716   2.425   3.567
 1645SOL    HW1 5615   0.750   2.490   3.628
 1645SOL    HW2 5616   0.754   2.342   3.597
 1646SOL     OW 5617   1.468   3.065   3.495
 1646SOL    HW1 5618   1.456   3.078   3.589
 1646SOL    HW2 5619   1.562   3.077   3.481
 1647SOL     OW 5620   0.383   3.604   3.426
 1647SOL    HW1 5621   0.297   3.644   3.411
 1647SOL    HW2 5622   0.364   3.523   3.472
 1648SOL     OW 5623   1.673   2.744   3.117
 1648SOL    HW1 5624   1.663   2.659   3.075
 1648SOL    HW2 5625   1.662   2.807   3.046
 1649SOL     OW 5626   1.219   2.182   2.319
 1649SOL    HW1 5627   1.282   2.111   2.310
 1649SOL    HW2 5628   1.247   2.230   2.397
 1650SOL     OW 5629   0.591   2.602   2.529
 1650SOL    HW1 5630   0.630   2.688   2.512
 1650SOL    HW2 5631   0.521   2.594   2.465
 1651SOL     OW 5632   1.763   2.228   3.517
 1651SOL    HW1 5633   1.748   2.238   3.423
 1651SOL    HW2 5634   1.692   2.170   3.546
 1652SOL     OW 5635   1.743   2.796   3.374
 1652SOL    HW1 5636   1.745   2.891   3.387
 1652SOL    HW2 5637   1.728   2.784   3.281
 1653SOL     OW 5638   0.864   3.231   1.892
 1653SOL    HW1 5639   0.823   3.256   1.975
 1653SOL    HW2 5640   0.882   3.313   1.848
 1654SOL     OW 5641   0.659   3.656   2.811
 1654SOL    HW1 5642   0.637   3.745   2.785
 1654SOL    HW2 5643   0.755   3.651   2.801
 1655SOL     OW 5644   0.866   2.827   2.718
 1655SOL    HW1 5645   0.916   2.756   2.759
 1655SOL    HW2 5646   0.833   2.878   2.792
 1656SOL     OW 5647   1.080   2.850   1.951
 1656SOL    HW1 5648   1.058   2.900   1.872
 1656SOL    HW2 5649   1.155   2.797   1.925
 1657SOL     OW 5650   1.856   3.418   2.707
 1657SOL    HW1 5651   1.780   3.407   2.651
 1657SOL    HW2 5652   1.847   3.351   2.774
 1658SOL     OW 5653   0.228   3.169   3.718
 1658SOL    HW1 5654   0.159   3.107   3.693
 1658SOL    HW2 5655   0.218   3.179   3.813
 1659SOL     OW 5656   0.102   3.101   2.529
 1659SOL    HW1 5657   0.106   3.050   2.609
 1659SOL    HW2 5658   0.162   3.057   2.469
 1660SOL     OW 5659   0.681   3.262   3.488
 1660SOL    HW1 5660   0.600   3.218   3.516
 1660SOL    HW2 5661   0.674   3.350   3.525
 1661SOL     OW 5662   1.787   2.045   3.103
 1661SOL    HW1 5663   1.834   1.968   3.133
 1661SOL    HW2 5664   1.796   2.044   3.008
 1662SOL     OW 5665   0.435   2.295   2.387
 1662SOL    HW1 5666   0.458   2.222   2.330
 1662SOL    HW2 5667   0.384   2.255   2.458
 1663SOL     OW 5668   1.702   3.353   2.962
 1663SOL    HW1 5669   1.620   3.328   2.918
 1663SOL    HW2 5670   1.715   3.285   3.028
 1664SOL     OW 5671   0.305   2.351   3.119
 1664SOL    HW1 5672   0.379   2.311   3.165
 1664SOL    HW2 5673   0.337   2.365   3.030
 1665SOL     OW 5674   0.825   3.440   2.541
 1665SOL    HW1 5675   0.818   3.485   2.457
 1665SOL    HW2 5676   0.747   3.385   2.546
 1666SOL     OW 5677   1.433   2.086   2.979
 1666SOL    HW1 5678   1.467   2.010   3.027
 1666SOL    HW2 5679   1.381   2.134   3.043
 1667SOL     OW 5680   1.008   1.883   3.008
 1667SOL    HW1 5681   0.954   1.814   2.969
 1667SOL    HW2 5682   1.096   1.845   3.009
 1668SOL     OW 5683   0.771   3.194   2.172
 1668SOL    HW1 5684   0.737   3.105   2.179
 1668SOL    HW2 5685   0.854   3.192   2.221
 1669SOL     OW 5686   0.621   3.420   3.146
 1669SOL    HW1 5687   0.623   3.501   3.197
 1669SOL    HW2 5688   0.708   3.413   3.107
 1670SOL     OW 5689   1.352   1.915   2.026
 1670SOL    HW1 5690   1.377   1.857   1.954
 1670SOL    HW2 5691   1.266   1.884   2.053
 1671SOL     OW 5692   1.297   2.322   2.545
 1671SOL    HW1 5693   1.243   2.400   2.553
 1671SOL    HW2 5694   1.295   2.281   2.632
 1672SOL     OW 5695   1.569   2.065   2.726
 1672SOL    HW1 5696   1.515   2.086   2.802
 1672SOL    HW2 5697   1.576   2.148   2.679
 1673SOL     OW 5698   0.041   2.916   2.149
 1673SOL    HW1 5699   0.136   2.904   2.142
 1673SOL    HW2 5700   0.019   2.875   2.232
 1674SOL     OW 5701   0.882   3.512   2.206
 1674SOL    HW1 5702   0.810   3.493   2.145
 1674SOL    HW2 5703   0.851   3.588   2.256
 1675SOL     OW 5704   0.248   2.489   3.842
 1675SOL    HW1 5705   0.173   2.475   3.899
 1675SOL    HW2 5706   0.217   2.468   3.754
 1676SOL     OW 5707   0.213   2.138   4.716
 1676SOL    HW1 5708   0.250   2.111   4.800
 1676SOL    HW2 5709   0.137   2.081   4.704
 1677SOL     OW 5710   0.010   2.249   4.363
 1677SOL    HW1 5711   4.429   2.279   4.406
 1677SOL    HW2 5712   4.484   2.169   4.317
 1678SOL     OW 5713   0.567   3.144   4.896
 1678SOL    HW1 5714   0.479   3.148   4.858
 1678SOL    HW2 5715   0.582   3.232   4.932
 1679SOL     OW 5716   1.557   3.374   4.429
 1679SOL    HW1 5717   1.512   3.356   4.512
 1679SOL    HW2 5718   1.486   3.379   4.365
 1680SOL     OW 5719   1.130   2.561   4.430
 1680SOL    HW1 5720   1.179   2.642   4.414
 1680SOL    HW2 5721   1.083   2.578   4.512
 1681SOL     OW 5722   1.771   2.467   3.954
 1681SOL    HW1 5723   1.747   2.459   3.861
 1681SOL    HW2 5724   1.730   2.391   3.995
 1682SOL     OW 5725   0.759   3.007   4.762
 1682SOL    HW1 5726   0.689   3.040   4.818
 1682SOL    HW2 5727   0.793   3.084   4.717
 1683SOL     OW 5728   0.863   2.640   5.544
 1683SOL    HW1 5729   0.851   2.710   5.608
 1683SOL    HW2 5730   0.885   2.686   5.463
 1684SOL     OW 5731   0.686   2.869   4.373
 1684SOL    HW1 5732   0.750   2.854   4.443
 1684SOL    HW2 5733   0.616   2.918   4.415
 1685SOL     OW 5734   0.708   3.013   5.533
 1685SOL    HW1 5735   0.755   3.093   5.558
 1685SOL    HW2 5736   0.624   3.044   5.499
 1686SOL     OW 5737   0.337   3.285   4.794
 1686SOL    HW1 5738   0.255   3.266   4.747
 1686SOL    HW2 5739   0.386   3.340   4.733
 1687SOL     OW 5740   1.459   3.366   5.076
 1687SOL    HW1 5741   1.504   3.449   5.089
 1687SOL    HW2 5742   1.404   3.355   5.153
 1688SOL     OW 5743   0.443   2.266   5.219
 1688SOL    HW1 5744   0.522   2.212   5.222
 1688SOL    HW2 5745   0.371   2.203   5.223
 1689SOL     OW 5746   1.628   2.328   4.433
 1689SOL    HW1 5747   1.539   2.342   4.399
 1689SOL    HW2 5748   1.634   2.387   4.508
 1690SOL     OW 5749   0.246   3.554   4.204
 1690SOL    HW1 5750   0.233   3.638   4.246
 1690SOL    HW2 5751   0.307   3.572   4.132
 1691SOL     OW 5752   1.136   3.203   5.416
 1691SOL    HW1 5753   1.172   3.200   5.504
 1691SOL    HW2 5754   1.082   3.124   5.409
 1692SOL     OW 5755   0.244   3.289   4.252
 1692SOL    HW1 5756   0.237   3.385   4.257
 1692SOL    HW2 5757   0.179   3.257   4.315
 1693SOL     OW 5758   0.245   2.943   4.607
 1693SOL    HW1 5759   0.263   2.856   4.641
 1693SOL    HW2 5760   0.188   2.983   4.672
 1694SOL     OW 5761   0.617   3.652   5.157
 1694SOL    HW1 5762   0.533   3.634   5.199
 1694SOL    HW2 5763   0.637   3.743   5.180
 1695SOL     OW 5764   0.584   2.845   3.859
 1695SOL    HW1 5765   0.629   2.893   3.789
 1695SOL    HW2 5766   0.629   2.872   3.939
 1696SOL     OW 5767   0.137   2.506   4.299
 1696SOL    HW1 5768   0.086   2.426   4.312
 1696SOL    HW2 5769   0.106   2.565   4.368
 1697SOL     OW 5770   1.842   3.623   4.061
 1697SOL    HW1 5771   1.901   3.594   4.130
 1697SOL    HW2 5772   1.869   3.713   4.042
 1698SOL     OW 5773   0.033   3.462   3.860
 1698SOL    HW1 5774   0.021   3.368   3.862
 1698SOL    HW2 5775   0.010   3.492   3.948
 1699SOL     OW 5776   1.689   2.781   4.359
 1699SOL    HW1 5777   1.773   2.740   4.338
 1699SOL    HW2 5778   1.666   2.830   4.280
 1700SOL     OW 5779   1.645   2.970   4.153
 1700SOL    HW1 5780   1.729   2.979   4.110
 1700SOL    HW2 5781   1.649   3.031   4.227
 1701SOL     OW 5782   0.110   2.621   5.312
 1701SOL    HW1 5783   0.205   2.622   5.300
 1701SOL    HW2 5784   0.085   2.713   5.317
 1702SOL     OW 5785   0.613   3.244   4.460
 1702SOL    HW1 5786   0.566   3.161   4.468
 1702SOL    HW2 5787   0.596   3.271   4.369
 1703SOL     OW 5788   1.290   3.106   5.152
 1703SOL    HW1 5789   1.313   3.035   5.091
 1703SOL    HW2 5790   1.348   3.093   5.227
 1704SOL     OW 5791   0.813   1.860   4.230
 1704SOL    HW1 5792   0.853   1.946   4.214
 1704SOL    HW2 5793   0.720   1.879   4.241
 1705SOL     OW 5794   0.183   2.806   5.003
 1705SOL    HW1 5795   0.274   2.788   4.980
 1705SOL    HW2 5796   0.133   2.782   4.926
 1706SOL     OW 5797   1.532   2.853   3.920
 1706SOL    HW1 5798   1.462   2.795   3.949
 1706SOL    HW2 5799   1.570   2.887   4.001
 1707SOL     OW 5800   1.186   3.666   5.344
 1707SOL    HW1 5801   1.200   3.723   5.268
 1707SOL    HW2 5802   1.200   3.577   5.311
 1708SOL     OW 5803   0.329   2.117   5.520
 1708SOL    HW1 5804   0.380   2.191   5.552
 1708SOL    HW2 5805   0.243   2.128   5.561
 1709SOL     OW 5806   1.466   3.283   4.677
 1709SOL    HW1 5807   1.399   3.298   4.744
 1709SOL    HW2 5808   1.450   3.194   4.646
 1710SOL     OW 5809   1.664   3.593   4.302
 1710SOL    HW1 5810   1.639   3.568   4.213
 1710SOL    HW2 5811   1.633   3.521   4.357
 1711SOL     OW 5812   0.598   2.584   3.989
 1711SOL    HW1 5813   0.602   2.664   3.936
 1711SOL    HW2 5814   0.531   2.604   4.055
 1712SOL     OW 5815   1.271   2.185   4.636
 1712SOL    HW1 5816   1.185   2.154   4.662
 1712SOL    HW2 5817   1.331   2.149   4.702
 1713SOL     OW 5818   1.582   3.530   4.033
 1713SOL    HW1 5819   1.671   3.565   4.026
 1713SOL    HW2 5820   1.556   3.513   3.942
 1714SOL     OW 5821   0.799   2.478   5.177
 1714SOL    HW1 5822   0.770   2.457   5.266
 1714SOL    HW2 5823   0.753   2.415   5.121
 1715SOL     OW 5824   1.377   2.325   5.410
 1715SOL    HW1 5825   1.384   2.374   5.491
 1715SOL    HW2 5826   1.467   2.312   5.381
 1716SOL     OW 5827   0.960   2.750   5.304
 1716SOL    HW1 5828   1.014   2.678   5.269
 1716SOL    HW2 5829   0.912   2.783   5.228
 1717SOL     OW 5830   0.984   2.265   4.979
 1717SOL    HW1 5831   0.898   2.294   5.007
 1717SOL    HW2 5832   0.971   2.229   4.892
 1718SOL     OW 5833   1.050   2.561   4.151
 1718SOL    HW1 5834   1.063   2.554   4.246
 1718SOL    HW2 5835   0.968   2.513   4.136
 1719SOL     OW 5836   0.098   2.686   4.507
 1719SOL    HW1 5837   0.184   2.665   4.543
 1719SOL    HW2 5838   0.053   2.732   4.578
 1720SOL     OW 5839   0.126   3.711   5.299
 1720SOL    HW1 5840   0.119   3.690   5.392
 1720SOL    HW2 5841   0.044   3.681   5.261
 1721SOL     OW 5842   0.887   2.208   3.918
 1721SOL    HW1 5843   0.930   2.269   3.858
 1721SOL    HW2 5844   0.905   2.122   3.881
 1722SOL     OW 5845   1.376   3.006   4.266
 1722SOL    HW1 5846   1.453   2.990   4.211
 1722SOL    HW2 5847   1.323   3.067   4.216
 1723SOL     OW 5848   0.551   2.046   4.616
 1723SOL    HW1 5849   0.553   2.074   4.708
 1723SOL    HW2 5850   0.552   2.128   4.566
 1724SOL     OW 5851   1.009   3.308   4.198
 1724SOL    HW1 5852   0.968   3.379   4.149
 1724SOL    HW2 5853   0.993   3.330   4.290
 1725SOL     OW 5854   0.354   3.669   4.580
 1725SOL    HW1 5855   0.397   3.585   4.591
 1725SOL    HW2 5856   0.424   3.734   4.593
 1726SOL     OW 5857   1.798   2.920   4.576
 1726SOL    HW1 5858   1.735   2.900   4.507
 1726SOL    HW2 5859   1.744   2.935   4.654
 1727SOL     OW 5860   1.227   3.402   5.237
 1727SOL    HW1 5861   1.214   3.328   5.297
 1727SOL    HW2 5862   1.167   3.386   5.165
 1728SOL     OW 5863   0.317   2.816   3.973
 1728SOL    HW1 5864   0.402   2.838   3.933
 1728SOL    HW2 5865   0.299   2.727   3.943
 1729SOL     OW 5866   1.475   2.606   4.442
 1729SOL    HW1 5867   1.456   2.559   4.523
 1729SOL    HW2 5868   1.554   2.657   4.461
 1730SOL     OW 5869   0.466   3.123   5.459
 1730SOL    HW1 5870   0.437   3.129   5.368
 1730SOL    HW2 5871   0.385   3.128   5.510
 1731SOL     OW 5872   1.121   3.639   3.956
 1731SOL    HW1 5873   1.049   3.596   4.003
 1731SOL    HW2 5874   1.142   3.580   3.884
 1732SOL     OW 5875   0.196   2.140   5.212
 1732SOL    HW1 5876   0.132   2.211   5.215
 1732SOL    HW2 5877   0.185   2.094   5.295
 1733SOL     OW 5878   1.629   3.241   3.811
 1733SOL    HW1 5879   1.588   3.326   3.796
 1733SOL    HW2 5880   1.560   3.177   3.792
 1734SOL     OW 5881   0.469   3.607   4.038
 1734SOL    HW1 5882   0.508   3.658   4.108
 1734SOL    HW2 5883   0.544   3.575   3.987
 1735SOL     OW 5884   1.400   1.970   4.154
 1735SOL    HW1 5885   1.389   1.944   4.063
 1735SOL    HW2 5886   1.495   1.977   4.165
 1736SOL     OW 5887   0.260   3.656   4.958
 1736SOL    HW1 5888   0.306   3.582   4.998
 1736SOL    HW2 5889   0.228   3.621   4.874
 1737SOL     OW 5890   0.938   3.560   4.624
 1737SOL    HW1 5891   1.014   3.506   4.645
 1737SOL    HW2 5892   0.892   3.512   4.556
 1738SOL     OW 5893   0.392   2.557   4.199
 1738SOL    HW1 5894   0.417   2.465   4.208
 1738SOL    HW2 5895   0.300   2.560   4.224
 1739SOL     OW 5896   0.630   1.989   3.829
 1739SOL    HW1 5897   0.703   1.929   3.843
 1739SOL    HW2 5898   0.585   1.954   3.752
 1740SOL     OW 5899   0.770   2.140   5.479
 1740SOL    HW1 5900   0.841   2.077   5.482
 1740SOL    HW2 5901   0.715   2.119   5.555
 1741SOL     OW 5902   0.878   3.384   4.917
 1741SOL    HW1 5903   0.862   3.347   4.830
 1741SOL    HW2 5904   0.946   3.328   4.954
 1742SOL     OW 5905   0.813   3.260   4.660
 1742SOL    HW1 5906   0.897   3.250   4.614
 1742SOL    HW2 5907   0.747   3.258   4.590
 1743SOL     OW 5908   0.927   2.368   4.629
 1743SOL    HW1 5909   0.904   2.362   4.536
 1743SOL    HW2 5910   0.960   2.282   4.652
 1744SOL     OW 5911   0.550   1.924   4.228
 1744SOL    HW1 5912   0.469   1.923   4.279
 1744SOL    HW2 5913   0.544   2.002   4.174
 1745SOL     OW 5914   1.429   3.060   3.765
 1745SOL    HW1 5915   1.459   2.984   3.815
 1745SOL    HW2 5916   1.342   3.079   3.802
 1746SOL     OW 5917   0.295   1.908   3.902
 1746SOL    HW1 5918   0.357   1.976   3.875
 1746SOL    HW2 5919   0.349   1.842   3.946
 1747SOL     OW 5920   0.936   2.106   4.188
 1747SOL    HW1 5921   0.907   2.149   4.107
 1747SOL    HW2 5922   1.031   2.118   4.189
 1748SOL     OW 5923   1.080   2.535   5.184
 1748SOL    HW1 5924   0.997   2.487   5.189
 1748SOL    HW2 5925   1.146   2.466   5.176
 1749SOL     OW 5926   1.226   3.430   4.517
 1749SOL    HW1 5927   1.243   3.499   4.452
 1749SOL    HW2 5928   1.292   3.444   4.584
 1750SOL     OW 5929   0.465   3.010   4.462
 1750SOL    HW1 5930   0.393   2.991   4.522
 1750SOL    HW2 5931   0.428   2.993   4.375
 1751SOL     OW 5932   1.271   3.657   4.330
 1751SOL    HW1 5933   1.315   3.718   4.271
 1751SOL    HW2 5934   1.206   3.710   4.375
 1752SOL     OW 5935   1.025   2.407   3.743
 1752SOL    HW1 5936   0.983   2.491   3.723
 1752SOL    HW2 5937   1.089   2.429   3.811
 1753SOL     OW 5938   0.081   2.395   5.131
 1753SOL    HW1 5939   0.149   2.396   5.064
 1753SOL    HW2 5940   0.067   2.487   5.154
 1754SOL     OW 5941   0.562   2.090   4.889
 1754SOL    HW1 5942   0.601   2.008   4.920
 1754SOL    HW2 5943   0.470   2.084   4.915
 1755SOL     OW 5944   0.870   2.322   4.364
 1755SOL    HW1 5945   0.822   2.376   4.301
 1755SOL    HW2 5946   0.889   2.240   4.317
 1756SOL     OW 5947   1.014   1.914   4.478
 1756SOL    HW1 5948   0.956   1.907   4.402
 1756SOL    HW2 5949   0.993   1.838   4.531
 1757SOL     OW 5950   1.422   3.031   4.574
 1757SOL    HW1 5951   1.354   2.963   4.568
 1757SOL    HW2 5952   1.452   3.043   4.485
 1758SOL     OW 5953   1.847   2.679   4.108
 1758SOL    HW1 5954   1.904   2.625   4.163
 1758SOL    HW2 5955   1.819   2.621   4.038
 1759SOL     OW 5956   0.492   3.275   3.886
 1759SOL    HW1 5957   0.416   3.246   3.936
 1759SOL    HW2 5958   0.471   3.256   3.795
 1760SOL     OW 5959   1.669   3.129   4.371
 1760SOL    HW1 5960   1.763   3.138   4.387
 1760SOL    HW2 5961   1.633   3.215   4.393
 1761SOL     OW 5962   1.394   2.434   3.796
 1761SOL    HW1 5963   1.334   2.415   3.868
 1761SOL    HW2 5964   1.478   2.399   3.825
 1762SOL     OW 5965   0.525   2.122   4.044
 1762SOL    HW1 5966   0.567   2.074   3.973
 1762SOL    HW2 5967   0.508   2.209   4.008
 1763SOL     OW 5968   1.758   3.120   5.357
 1763SOL    HW1 5969   1.829   3.077   5.309
 1763SOL    HW2 5970   1.781   3.213   5.354
 1764SOL     OW 5971   1.060   3.215   5.057
 1764SOL    HW1 5972   0.986   3.184   5.109
 1764SOL    HW2 5973   1.136   3.175   5.100
 1765SOL     OW 5974   1.605   3.487   5.375
 1765SOL    HW1 5975   1.603   3.521   5.286
 1765SOL    HW2 5976   1.689   3.441   5.381
 1766SOL     OW 5977   1.121   3.064   4.826
 1766SOL    HW1 5978   1.065   3.103   4.893
 1766SOL    HW2 5979   1.086   3.098   4.744
 1767SOL     OW 5980   1.599   2.969   4.777
 1767SOL    HW1 5981   1.600   3.024   4.856
 1767SOL    HW2 5982   1.526   3.003   4.725
 1768SOL     OW 5983   0.916   1.959   5.124
 1768SOL    HW1 5984   0.939   1.942   5.033
 1768SOL    HW2 5985   0.996   1.997   5.162
 1769SOL     OW 5986   0.984   2.977   5.444
 1769SOL    HW1 5987   0.892   2.992   5.466
 1769SOL    HW2 5988   0.983   2.899   5.389
 1770SOL     OW 5989   0.708   2.922   4.097
 1770SOL    HW1 5990   0.695   2.908   4.190
 1770SOL    HW2 5991   0.784   2.869   4.074
 1771SOL     OW 5992   0.429   2.684   4.963
 1771SOL    HW1 5993   0.497   2.696   5.028
 1771SOL    HW2 5994   0.369   2.620   5.001
 1772SOL     OW 5995   0.061   3.437   5.062
 1772SOL    HW1 5996   0.032   3.526   5.040
 1772SOL    HW2 5997   0.156   3.444   5.070
 1773SOL     OW 5998   0.352   2.968   4.218
 1773SOL    HW1 5999   0.359   3.042   4.156
 1773SOL    HW2 6000   0.353   2.890   4.162
 1774SOL     OW 6001   0.562   2.397   4.581
 1774SOL    HW1 6002   0.576   2.457   4.508
 1774SOL    HW2 6003   0.621   2.430   4.650
 1775SOL     OW 6004   1.248   3.210   4.114
 1775SOL    HW1 6005   1.303   3.282   4.144
 1775SOL    HW2 6006   1.161   3.230   4.147
 1776SOL     OW 6007   1.277   3.317   4.870
 1776SOL    HW1 6008   1.331   3.320   4.949
 1776SOL    HW2 6009   1.221   3.241   4.881
 1777SOL     OW 6010   1.577   2.493   4.189
 1777SOL    HW1 6011   1.538   2.545   4.259
 1777SOL    HW2 6012   1.628   2.556   4.138
 1778SOL     OW 6013   0.348   3.391   5.042
 1778SOL    HW1 6014   0.333   3.344   4.960
 1778SOL    HW2 6015   0.443   3.401   5.046
 1779SOL     OW 6016   0.473   2.621   5.385
 1779SOL    HW1 6017   0.501   2.661   5.302
 1779SOL    HW2 6018   0.503   2.531   5.379
 1780SOL     OW 6019   0.994   1.980   5.480
 1780SOL    HW1 6020   1.048   2.053   5.448
 1780SOL    HW2 6021   1.044   1.902   5.455
 1781SOL     OW 6022   0.498   1.907   5.470
 1781SOL    HW1 6023   0.459   1.849   5.404
 1781SOL    HW2 6024   0.436   1.979   5.479
 1782SOL     OW 6025   0.589   2.735   4.748
 1782SOL    HW1 6026   0.616   2.826   4.749
 1782SOL    HW2 6027   0.531   2.726   4.824
 1783SOL     OW 6028   1.207   2.391   3.993
 1783SOL    HW1 6029   1.215   2.313   4.047
 1783SOL    HW2 6030   1.165   2.455   4.050
 1784SOL     OW 6031   0.303   2.056   4.965
 1784SOL    HW1 6032   0.265   2.091   5.046
 1784SOL    HW2 6033   0.285   1.962   4.968
 1785SOL     OW 6034   0.048   3.174   5.008
 1785SOL    HW1 6035   0.078   3.128   5.086
 1785SOL    HW2 6036   0.049   3.267   5.033
 1786SOL     OW 6037   0.727   2.495   4.785
 1786SOL    HW1 6038   0.799   2.476   4.725
 1786SOL    HW2 6039   0.699   2.583   4.762
 1787SOL     OW 6040   1.726   2.823   5.571
 1787SOL    HW1 6041   1.669   2.803   5.497
 1787SOL    HW2 6042   1.668   2.860   5.637
 1788SOL     OW 6043   0.308   1.932   4.343
 1788SOL    HW1 6044   0.286   2.021   4.372
 1788SOL    HW2 6045   0.303   1.879   4.423
 1789SOL     OW 6046   1.614   2.234   4.095
 1789SOL    HW1 6047   1.641   2.172   4.163
 1789SOL    HW2 6048   1.590   2.314   4.143
 1790SOL     OW 6049   1.019   2.622   4.684
 1790SOL    HW1 6050   1.026   2.640   4.778
 1790SOL    HW2 6051   0.997   2.529   4.679
 1791SOL     OW 6052   0.983   3.429   5.438
 1791SOL    HW1 6053   0.967   3.473   5.355
 1791SOL    HW2 6054   1.025   3.346   5.414
 1792SOL     OW 6055   1.858   3.381   5.331
 1792SOL    HW1 6056   1.873   3.400   5.238
 1792SOL    HW2 6057   1.942   3.397   5.374
 1793SOL     OW 6058   0.348   2.792   5.542
 1793SOL    HW1 6059   0.422   2.820   5.595
 1793SOL    HW2 6060   0.384   2.726   5.483
 1794SOL     OW 6061   1.531   2.136   3.852
 1794SOL    HW1 6062   1.467   2.070   3.878
 1794SOL    HW2 6063   1.563   2.172   3.935
 1795SOL     OW 6064   1.295   2.689   3.757
 1795SOL    HW1 6065   1.337   2.603   3.760
 1795SOL    HW2 6066   1.325   2.728   3.675
 1796SOL     OW 6067   1.064   3.197   4.576
 1796SOL    HW1 6068   1.067   3.124   4.514
 1796SOL    HW2 6069   1.128   3.260   4.541
 1797SOL     OW 6070   0.317   2.674   4.674
 1797SOL    HW1 6071   0.411   2.691   4.669
 1797SOL    HW2 6072   0.310   2.584   4.704
 1798SOL     OW 6073   0.334   2.385   4.718
 1798SOL    HW1 6074   0.295   2.299   4.701
 1798SOL    HW2 6075   0.411   2.387   4.661
 1799SOL     OW 6076   1.124   2.239   5.401
 1799SOL    HW1 6077   1.081   2.296   5.465
 1799SOL    HW2 6078   1.216   2.267   5.402
 1800SOL     OW 6079   1.162   2.067   5.193
 1800SOL    HW1 6080   1.150   2.125   5.268
 1800SOL    HW2 6081   1.167   2.125   5.117
 1801SOL     OW 6082   4.492   3.185   3.925
 1801SOL    HW1 6083   4.399   3.200   3.908
 1801SOL    HW2 6084   4.498   3.093   3.949
 1802SOL     OW 6085   0.095   3.643   4.664
 1802SOL    HW1 6086   0.057   3.583   4.600
 1802SOL    HW2 6087   0.182   3.662   4.630
 1803SOL     OW 6088   0.499   3.435   4.630
 1803SOL    HW1 6089   0.567   3.498   4.654
 1803SOL    HW2 6090   0.543   3.370   4.576
 1804SOL     OW 6091   0.990   2.656   4.953
 1804SOL    HW1 6092   1.041   2.630   5.029
 1804SOL    HW2 6093   0.902   2.621   4.970
 1805SOL     OW 6094   0.037   2.424   4.831
 1805SOL    HW1 6095   0.119   2.386   4.798
 1805SOL    HW2 6096   0.027   2.386   4.918
 1806SOL     OW 6097   0.179   2.377   5.437
 1806SOL    HW1 6098   0.257   2.349   5.390
 1806SOL    HW2 6099   0.153   2.458   5.394
 1807SOL     OW 6100   1.385   2.805   5.387
 1807SOL    HW1 6101   1.404   2.899   5.385
 1807SOL    HW2 6102   1.362   2.783   5.297
 1808SOL     OW 6103   0.816   2.431   4.079
 1808SOL    HW1 6104   0.818   2.355   4.020
 1808SOL    HW2 6105   0.741   2.483   4.049
 1809SOL     OW 6106   0.272   3.423   5.466
 1809SOL    HW1 6107   0.218   3.477   5.524
 1809SOL    HW2 6108   0.250   3.333   5.489
 1810SOL     OW 6109   0.688   2.319   4.988
 1810SOL    HW1 6110   0.645   2.241   4.954
 1810SOL    HW2 6111   0.690   2.379   4.914
 1811SOL     OW 6112   0.931   3.541   5.190
 1811SOL    HW1 6113   0.903   3.510   5.104
 1811SOL    HW2 6114   0.928   3.636   5.183
 1812SOL     OW 6115   0.473   2.353   3.912
 1812SOL    HW1 6116   0.531   2.426   3.933
 1812SOL    HW2 6117   0.387   2.393   3.898
 1813SOL     OW 6118   0.162   3.003   5.187
 1813SOL    HW1 6119   0.148   2.955   5.269
 1813SOL    HW2 6120   0.170   2.935   5.121
 1814SOL     OW 6121   1.310   2.919   4.955
 1814SOL    HW1 6122   1.355   2.861   4.893
 1814SOL    HW2 6123   1.241   2.959   4.903
 1815SOL     OW 6124   1.308   2.720   4.032
 1815SOL    HW1 6125   1.232   2.688   4.080
 1815SOL    HW2 6126   1.286   2.705   3.940
 1816SOL     OW 6127   1.767   3.610   4.871
 1816SOL    HW1 6128   1.828   3.636   4.802
 1816SOL    HW2 6129   1.746   3.518   4.852
 1817SOL     OW 6130   1.242   3.595   4.841
 1817SOL    HW1 6131   1.323   3.612   4.794
 1817SOL    HW2 6132   1.244   3.501   4.859
 1818SOL     OW 6133   0.068   3.050   4.772
 1818SOL    HW1 6134   0.073   3.085   4.861
 1818SOL    HW2 6135   0.011   3.112   4.725
 1819SOL     OW 6136   0.679   3.526   5.449
 1819SOL    HW1 6137   0.625   3.605   5.446
 1819SOL    HW2 6138   0.740   3.536   5.376
 1820SOL     OW 6139   1.720   2.003   4.238
 1820SOL    HW1 6140   1.792   1.989   4.177
 1820SOL    HW2 6141   1.702   1.916   4.274
 1821SOL     OW 6142   1.391   3.430   4.207
 1821SOL    HW1 6143   1.450   3.461   4.139
 1821SOL    HW2 6144   1.342   3.508   4.234
 1822SOL     OW 6145   0.121   3.669   5.571
 1822SOL    HW1 6146   0.082   3.595   5.618
 1822SOL    HW2 6147   0.184   3.706   5.633
 1823SOL     OW 6148   1.276   2.789   4.393
 1823SOL    HW1 6149   1.348   2.726   4.396
 1823SOL    HW2 6150   1.310   2.862   4.340
 1824SOL     OW 6151   0.818   3.134   5.155
 1824SOL    HW1 6152   0.792   3.173   5.239
 1824SOL    HW2 6153   0.747   3.156   5.095
 1825SOL     OW 6154   0.673   3.478   3.879
 1825SOL    HW1 6155   0.681   3.489   3.784
 1825SOL    HW2 6156   0.619   3.400   3.890
 1826SOL     OW 6157   1.631   3.589   5.116
 1826SOL    HW1 6158   1.680   3.597   5.034
 1826SOL    HW2 6159   1.618   3.679   5.145
 1827SOL     OW 6160   0.267   2.182   4.444
 1827SOL    HW1 6161   0.184   2.221   4.414
 1827SOL    HW2 6162   0.255   2.170   4.538
 1828SOL     OW 6163   1.206   3.470   3.755
 1828SOL    HW1 6164   1.197   3.379   3.783
 1828SOL    HW2 6165   1.141   3.480   3.685
 1829SOL     OW 6166   0.826   2.868   5.096
 1829SOL    HW1 6167   0.867   2.866   5.009
 1829SOL    HW2 6168   0.826   2.961   5.120
 1830SOL     OW 6169   0.916   2.773   4.013
 1830SOL    HW1 6170   0.977   2.804   3.947
 1830SOL    HW2 6171   0.962   2.701   4.057
 1831SOL     OW 6172   1.495   3.486   3.766
 1831SOL    HW1 6173   1.400   3.482   3.755
 1831SOL    HW2 6174   1.529   3.493   3.677
 1832SOL     OW 6175   0.373   3.167   5.215
 1832SOL    HW1 6176   0.356   3.246   5.163
 1832SOL    HW2 6177   0.297   3.111   5.199
 1833SOL     OW 6178   1.605   3.159   4.984
 1833SOL    HW1 6179   1.680   3.156   5.043
 1833SOL    HW2 6180   1.547   3.225   5.022
 1834SOL     OW 6181   1.049   2.967   4.429
 1834SOL    HW1 6182   0.978   2.917   4.469
 1834SOL    HW2 6183   1.109   2.901   4.395
 1835SOL     OW 6184   1.016   2.099   4.693
 1835SOL    HW1 6185   1.011   2.052   4.609
 1835SOL    HW2 6186   1.008   2.031   4.759
 1836SOL     OW 6187   0.603   3.352   4.207
 1836SOL    HW1 6188   0.641   3.301   4.136
 1836SOL    HW2 6189   0.532   3.401   4.167
 1837SOL     OW 6190   0.252   3.207   4.002
 1837SOL    HW1 6191   0.158   3.208   3.987
 1837SOL    HW2 6192   0.262   3.240   4.091
 1838SOL     OW 6193   0.117   2.869   5.420
 1838SOL    HW1 6194   0.052   2.907   5.478
 1838SOL    HW2 6195   0.195   2.857   5.475
 1839SOL     OW 6196   0.672   2.061   5.222
 1839SOL    HW1 6197   0.755   2.040   5.180
 1839SOL    HW2 6198   0.697   2.088   5.311
 1840SOL     OW 6199   0.072   2.189   3.758
 1840SOL    HW1 6200   4.477   2.197   3.755
 1840SOL    HW2 6201   0.104   2.270   3.719
 1841SOL     OW 6202   0.084   2.040   4.031
 1841SOL    HW1 6203   0.078   2.111   3.967
 1841SOL    HW2 6204   0.160   1.989   4.003
 1842SOL     OW 6205   1.180   3.204   3.841
 1842SOL    HW1 6206   1.089   3.174   3.843
 1842SOL    HW2 6207   1.208   3.203   3.932
 1843SOL     OW 6208   0.621   2.693   5.152
 1843SOL    HW1 6209   0.675   2.771   5.140
 1843SOL    HW2 6210   0.683   2.621   5.162
 1844SOL     OW 6211   1.486   3.635   4.698
 1844SOL    HW1 6212   1.510   3.694   4.627
 1844SOL    HW2 6213   1.566   3.625   4.749
 1845SOL     OW 6214   0.717   2.424   5.427
 1845SOL    HW1 6215   0.747   2.489   5.490
 1845SOL    HW2 6216   0.751   2.341   5.459
 1846SOL     OW 6217   1.468   3.070   5.367
 1846SOL    HW1 6218   1.452   3.082   5.461
 1846SOL    HW2 6219   1.560   3.092   5.356
 1847SOL     OW 6220   0.383   3.604   5.287
 1847SOL    HW1 6221   0.297   3.644   5.273
 1847SOL    HW2 6222   0.364   3.523   5.334
 1848SOL     OW 6223   1.219   2.183   4.183
 1848SOL    HW1 6224   1.282   2.111   4.173
 1848SOL    HW2 6225   1.251   2.231   4.259
 1849SOL     OW 6226   0.591   2.602   4.391
 1849SOL    HW1 6227   0.630   2.688   4.374
 1849SOL    HW2 6228   0.521   2.594   4.327
 1850SOL     OW 6229   0.864   3.231   3.755
 1850SOL    HW1 6230   0.823   3.256   3.837
 1850SOL    HW2 6231   0.882   3.313   3.710
 1851SOL     OW 6232   0.660   3.656   4.673
 1851SOL    HW1 6233   0.637   3.745   4.647
 1851SOL    HW2 6234   0.755   3.652   4.663
 1852SOL     OW 6235   0.866   2.828   4.579
 1852SOL    HW1 6236   0.915   2.756   4.619
 1852SOL    HW2 6237   0.833   2.879   4.654
 1853SOL     OW 6238   1.080   2.851   3.813
 1853SOL    HW1 6239   1.058   2.900   3.734
 1853SOL    HW2 6240   1.156   2.797   3.787
 1854SOL     OW 6241   1.857   3.412   4.571
 1854SOL    HW1 6242   1.785   3.413   4.508
 1854SOL    HW2 6243   1.823   3.363   4.646
 1855SOL     OW 6244   0.228   3.169   5.580
 1855SOL    HW1 6245   0.159   3.108   5.555
 1855SOL    HW2 6246   0.219   3.179   5.675
 1856SOL     OW 6247   0.102   3.101   4.390
 1856SOL    HW1 6248   0.106   3.050   4.471
 1856SOL    HW2 6249   0.162   3.057   4.331
 1857SOL     OW 6250   0.681   3.262   5.350
 1857SOL    HW1 6251   0.600   3.218   5.378
 1857SOL    HW2 6252   0.674   3.350   5.387
 1858SOL     OW 6253   0.435   2.295   4.249
 1858SOL    HW1 6254   0.458   2.222   4.192
 1858SOL    HW2 6255   0.384   2.255   4.320
 1859SOL     OW 6256   1.710   3.351   4.812
 1859SOL    HW1 6257   1.625   3.331   4.773
 1859SOL    HW2 6258   1.716   3.292   4.888
 1860SOL     OW 6259   0.306   2.352   4.981
 1860SOL    HW1 6260   0.379   2.310   5.026
 1860SOL    HW2 6261   0.337   2.365   4.892
 1861SOL     OW 6262   0.826   3.440   4.403
 1861SOL    HW1 6263   0.818   3.485   4.319
 1861SOL    HW2 6264   0.747   3.385   4.408
 1862SOL     OW 6265   1.007   1.882   4.870
 1862SOL    HW1 6266   0.951   1.814   4.833
 1862SOL    HW2 6267   1.094   1.843   4.873
 1863SOL     OW 6268   0.771   3.194   4.034
 1863SOL    HW1 6269   0.737   3.105   4.041
 1863SOL    HW2 6270   0.854   3.192   4.083
 1864SOL     OW 6271   0.621   3.420   5.008
 1864SOL    HW1 6272   0.623   3.501   5.059
 1864SOL    HW2 6273   0.708   3.414   4.969
 1865SOL     OW 6274   1.352   1.916   3.888
 1865SOL    HW1 6275   1.378   1.857   3.817
 1865SOL    HW2 6276   1.266   1.884   3.915
 1866SOL     OW 6277   1.305   2.327   4.408
 1866SOL    HW1 6278   1.243   2.400   4.417
 1866SOL    HW2 6279   1.293   2.276   4.488
 1867SOL     OW 6280   0.041   2.916   4.011
 1867SOL    HW1 6281   0.136   2.904   4.004
 1867SOL    HW2 6282   0.018   2.875   4.094
 1868SOL     OW 6283   0.882   3.512   4.068
 1868SOL    HW1 6284   0.810   3.493   4.007
 1868SOL    HW2 6285   0.851   3.588   4.118
 1869SOL     OW 6286   0.249   2.488   5.704
 1869SOL    HW1 6287   0.173   2.474   5.761
 1869SOL    HW2 6288   0.216   2.469   5.616
 1870SOL     OW 6289   0.213   2.138   6.578
 1870SOL    HW1 6290   0.250   2.111   6.662
 1870SOL    HW2 6291   0.137   2.082   6.566
 1871SOL     OW 6292   0.010   2.249   6.225
 1871SOL    HW1 6293   4.429   2.279   6.268
 1871SOL    HW2 6294   4.484   2.169   6.179
 1872SOL     OW 6295   0.567   3.144   6.758
 1872SOL    HW1 6296   0.479   3.149   6.720
 1872SOL    HW2 6297   0.582   3.232   6.794
 1873SOL     OW 6298   1.561   3.374   6.291
 1873SOL    HW1 6299   1.518   3.350   6.373
 1873SOL    HW2 6300   1.491   3.374   6.226
 1874SOL     OW 6301   1.127   2.566   6.288
 1874SOL    HW1 6302   1.180   2.644   6.276
 1874SOL    HW2 6303   1.082   2.580   6.372
 1875SOL     OW 6304   0.759   3.007   6.624
 1875SOL    HW1 6305   0.689   3.039   6.680
 1875SOL    HW2 6306   0.792   3.084   6.579
 1876SOL     OW 6307   0.862   2.642   7.407
 1876SOL    HW1 6308   0.850   2.713   7.469
 1876SOL    HW2 6309   0.885   2.685   7.325
 1877SOL     OW 6310   0.686   2.869   6.235
 1877SOL    HW1 6311   0.750   2.854   6.305
 1877SOL    HW2 6312   0.616   2.918   6.278
 1878SOL     OW 6313   0.708   3.013   7.395
 1878SOL    HW1 6314   0.755   3.093   7.419
 1878SOL    HW2 6315   0.624   3.044   7.361
 1879SOL     OW 6316   0.337   3.286   6.656
 1879SOL    HW1 6317   0.255   3.266   6.609
 1879SOL    HW2 6318   0.387   3.340   6.595
 1880SOL     OW 6319   1.461   3.360   6.936
 1880SOL    HW1 6320   1.505   3.444   6.947
 1880SOL    HW2 6321   1.407   3.351   7.014
 1881SOL     OW 6322   0.442   2.266   7.081
 1881SOL    HW1 6323   0.522   2.214   7.084
 1881SOL    HW2 6324   0.371   2.202   7.085
 1882SOL     OW 6325   0.246   3.554   6.066
 1882SOL    HW1 6326   0.233   3.638   6.109
 1882SOL    HW2 6327   0.307   3.572   5.994
 1883SOL     OW 6328   1.136   3.203   7.277
 1883SOL    HW1 6329   1.175   3.200   7.364
 1883SOL    HW2 6330   1.083   3.123   7.272
 1884SOL     OW 6331   0.244   3.289   6.114
 1884SOL    HW1 6332   0.237   3.385   6.119
 1884SOL    HW2 6333   0.179   3.257   6.177
 1885SOL     OW 6334   0.245   2.943   6.469
 1885SOL    HW1 6335   0.263   2.856   6.503
 1885SOL    HW2 6336   0.188   2.983   6.534
 1886SOL     OW 6337   0.617   3.652   7.019
 1886SOL    HW1 6338   0.533   3.635   7.061
 1886SOL    HW2 6339   0.637   3.743   7.042
 1887SOL     OW 6340   0.585   2.845   5.721
 1887SOL    HW1 6341   0.629   2.893   5.651
 1887SOL    HW2 6342   0.630   2.872   5.801
 1888SOL     OW 6343   1.594   1.984   7.055
 1888SOL    HW1 6344   1.597   2.065   7.004
 1888SOL    HW2 6345   1.585   2.013   7.146
 1889SOL     OW 6346   0.137   2.506   6.161
 1889SOL    HW1 6347   0.086   2.426   6.174
 1889SOL    HW2 6348   0.106   2.565   6.230
 1890SOL     OW 6349   1.841   3.623   5.920
 1890SOL    HW1 6350   1.899   3.593   5.991
 1890SOL    HW2 6351   1.868   3.713   5.903
 1891SOL     OW 6352   0.033   3.462   5.722
 1891SOL    HW1 6353   0.021   3.368   5.724
 1891SOL    HW2 6354   0.010   3.492   5.810
 1892SOL     OW 6355   0.111   2.621   7.175
 1892SOL    HW1 6356   0.206   2.622   7.162
 1892SOL    HW2 6357   0.086   2.713   7.179
 1893SOL     OW 6358   0.613   3.244   6.322
 1893SOL    HW1 6359   0.566   3.161   6.330
 1893SOL    HW2 6360   0.596   3.271   6.231
 1894SOL     OW 6361   1.291   3.101   7.010
 1894SOL    HW1 6362   1.324   3.033   6.951
 1894SOL    HW2 6363   1.346   3.093   7.088
 1895SOL     OW 6364   0.811   1.860   6.092
 1895SOL    HW1 6365   0.850   1.946   6.077
 1895SOL    HW2 6366   0.718   1.877   6.103
 1896SOL     OW 6367   0.184   2.807   6.865
 1896SOL    HW1 6368   0.275   2.789   6.842
 1896SOL    HW2 6369   0.134   2.781   6.788
 1897SOL     OW 6370   1.186   3.666   7.206
 1897SOL    HW1 6371   1.200   3.723   7.130
 1897SOL    HW2 6372   1.200   3.577   7.173
 1898SOL     OW 6373   0.328   2.118   7.381
 1898SOL    HW1 6374   0.381   2.190   7.414
 1898SOL    HW2 6375   0.243   2.128   7.424
 1899SOL     OW 6376   1.465   3.280   6.540
 1899SOL    HW1 6377   1.397   3.297   6.605
 1899SOL    HW2 6378   1.455   3.188   6.517
 1900SOL     OW 6379   1.662   3.595   6.163
 1900SOL    HW1 6380   1.636   3.566   6.075
 1900SOL    HW2 6381   1.639   3.522   6.220
 1901SOL     OW 6382   0.597   2.584   5.850
 1901SOL    HW1 6383   0.603   2.664   5.798
 1901SOL    HW2 6384   0.532   2.603   5.917
 1902SOL     OW 6385   1.282   2.213   6.530
 1902SOL    HW1 6386   1.194   2.177   6.537
 1902SOL    HW2 6387   1.335   2.156   6.585
 1903SOL     OW 6388   1.581   3.531   5.895
 1903SOL    HW1 6389   1.670   3.566   5.889
 1903SOL    HW2 6390   1.556   3.514   5.804
 1904SOL     OW 6391   0.794   2.478   7.039
 1904SOL    HW1 6392   0.768   2.456   7.128
 1904SOL    HW2 6393   0.750   2.414   6.984
 1905SOL     OW 6394   1.394   2.336   7.264
 1905SOL    HW1 6395   1.394   2.380   7.349
 1905SOL    HW2 6396   1.458   2.265   7.273
 1906SOL     OW 6397   0.958   2.750   7.167
 1906SOL    HW1 6398   1.012   2.679   7.132
 1906SOL    HW2 6399   0.911   2.784   7.090
 1907SOL     OW 6400   0.993   2.275   6.826
 1907SOL    HW1 6401   0.910   2.299   6.867
 1907SOL    HW2 6402   0.967   2.228   6.746
 1908SOL     OW 6403   1.047   2.566   6.010
 1908SOL    HW1 6404   1.066   2.554   6.103
 1908SOL    HW2 6405   0.968   2.514   5.995
 1909SOL     OW 6406   0.098   2.686   6.369
 1909SOL    HW1 6407   0.184   2.665   6.405
 1909SOL    HW2 6408   0.053   2.732   6.440
 1910SOL     OW 6409   0.126   3.711   7.161
 1910SOL    HW1 6410   0.119   3.690   7.254
 1910SOL    HW2 6411   0.044   3.681   7.123
 1911SOL     OW 6412   0.892   2.206   5.782
 1911SOL    HW1 6413   0.927   2.267   5.718
 1911SOL    HW2 6414   0.900   2.120   5.741
 1912SOL     OW 6415   1.709   2.441   7.415
 1912SOL    HW1 6416   1.673   2.515   7.367
 1912SOL    HW2 6417   1.735   2.379   7.347
 1913SOL     OW 6418   0.551   2.046   6.478
 1913SOL    HW1 6419   0.553   2.074   6.570
 1913SOL    HW2 6420   0.552   2.128   6.428
 1914SOL     OW 6421   1.007   3.307   6.062
 1914SOL    HW1 6422   0.968   3.378   6.011
 1914SOL    HW2 6423   0.993   3.332   6.153
 1915SOL     OW 6424   0.354   3.669   6.442
 1915SOL    HW1 6425   0.397   3.585   6.453
 1915SOL    HW2 6426   0.424   3.734   6.455
 1916SOL     OW 6427   1.792   2.937   6.459
 1916SOL    HW1 6428   1.730   2.927   6.387
 1916SOL    HW2 6429   1.738   2.934   6.538
 1917SOL     OW 6430   1.228   3.402   7.098
 1917SOL    HW1 6431   1.214   3.329   7.159
 1917SOL    HW2 6432   1.167   3.385   7.027
 1918SOL     OW 6433   0.317   2.817   5.835
 1918SOL    HW1 6434   0.402   2.838   5.796
 1918SOL    HW2 6435   0.299   2.727   5.806
 1919SOL     OW 6436   1.435   2.614   6.353
 1919SOL    HW1 6437   1.427   2.539   6.411
 1919SOL    HW2 6438   1.530   2.628   6.344
 1920SOL     OW 6439   0.466   3.123   7.321
 1920SOL    HW1 6440   0.437   3.130   7.230
 1920SOL    HW2 6441   0.384   3.128   7.372
 1921SOL     OW 6442   1.120   3.640   5.817
 1921SOL    HW1 6443   1.050   3.596   5.865
 1921SOL    HW2 6444   1.142   3.580   5.746
 1922SOL     OW 6445   0.195   2.140   7.073
 1922SOL    HW1 6446   0.132   2.212   7.078
 1922SOL    HW2 6447   0.186   2.095   7.157
 1923SOL     OW 6448   1.642   3.248   5.676
 1923SOL    HW1 6449   1.594   3.329   5.660
 1923SOL    HW2 6450   1.578   3.179   5.660
 1924SOL     OW 6451   0.469   3.607   5.900
 1924SOL    HW1 6452   0.508   3.658   5.971
 1924SOL    HW2 6453   0.544   3.574   5.849
 1925SOL     OW 6454   0.260   3.656   6.820
 1925SOL    HW1 6455   0.306   3.583   6.861
 1925SOL    HW2 6456   0.228   3.621   6.736
 1926SOL     OW 6457   0.938   3.561   6.486
 1926SOL    HW1 6458   1.015   3.507   6.507
 1926SOL    HW2 6459   0.892   3.512   6.418
 1927SOL     OW 6460   0.392   2.557   6.060
 1927SOL    HW1 6461   0.417   2.465   6.070
 1927SOL    HW2 6462   0.300   2.560   6.086
 1928SOL     OW 6463   1.538   2.087   7.311
 1928SOL    HW1 6464   1.546   2.109   7.404
 1928SOL    HW2 6465   1.469   2.020   7.308
 1929SOL     OW 6466   0.633   1.990   5.689
 1929SOL    HW1 6467   0.702   1.927   5.706
 1929SOL    HW2 6468   0.585   1.954   5.614
 1930SOL     OW 6469   0.768   2.137   7.338
 1930SOL    HW1 6470   0.841   2.076   7.345
 1930SOL    HW2 6471   0.718   2.124   7.419
 1931SOL     OW 6472   0.878   3.384   6.779
 1931SOL    HW1 6473   0.862   3.347   6.692
 1931SOL    HW2 6474   0.946   3.328   6.816
 1932SOL     OW 6475   1.343   2.450   7.018
 1932SOL    HW1 6476   1.372   2.419   7.104
 1932SOL    HW2 6477   1.377   2.539   7.012
 1933SOL     OW 6478   0.813   3.260   6.522
 1933SOL    HW1 6479   0.897   3.250   6.477
 1933SOL    HW2 6480   0.747   3.258   6.452
 1934SOL     OW 6481   0.927   2.371   6.491
 1934SOL    HW1 6482   0.904   2.363   6.398
 1934SOL    HW2 6483   0.962   2.285   6.514
 1935SOL     OW 6484   0.550   1.923   6.090
 1935SOL    HW1 6485   0.469   1.923   6.142
 1935SOL    HW2 6486   0.543   2.002   6.037
 1936SOL     OW 6487   1.427   3.055   5.639
 1936SOL    HW1 6488   1.435   2.980   5.698
 1936SOL    HW2 6489   1.343   3.094   5.661
 1937SOL     OW 6490   0.294   1.908   5.764
 1937SOL    HW1 6491   0.356   1.976   5.737
 1937SOL    HW2 6492   0.349   1.842   5.808
 1938SOL     OW 6493   0.928   2.105   6.050
 1938SOL    HW1 6494   0.903   2.149   5.969
 1938SOL    HW2 6495   1.024   2.105   6.049
 1939SOL     OW 6496   1.080   2.541   7.046
 1939SOL    HW1 6497   1.010   2.477   7.052
 1939SOL    HW2 6498   1.160   2.489   7.038
 1940SOL     OW 6499   1.225   3.430   6.379
 1940SOL    HW1 6500   1.243   3.497   6.313
 1940SOL    HW2 6501   1.294   3.442   6.445
 1941SOL     OW 6502   0.465   3.010   6.324
 1941SOL    HW1 6503   0.393   2.991   6.384
 1941SOL    HW2 6504   0.428   2.993   6.237
 1942SOL     OW 6505   1.270   3.657   6.191
 1942SOL    HW1 6506   1.315   3.718   6.133
 1942SOL    HW2 6507   1.207   3.711   6.238
 1943SOL     OW 6508   1.023   2.413   5.604
 1943SOL    HW1 6509   0.971   2.489   5.576
 1943SOL    HW2 6510   1.084   2.449   5.669
 1944SOL     OW 6511   0.080   2.395   6.993
 1944SOL    HW1 6512   0.149   2.396   6.927
 1944SOL    HW2 6513   0.068   2.487   7.016
 1945SOL     OW 6514   0.562   2.089   6.750
 1945SOL    HW1 6515   0.601   2.009   6.783
 1945SOL    HW2 6516   0.470   2.083   6.777
 1946SOL     OW 6517   0.868   2.322   6.227
 1946SOL    HW1 6518   0.822   2.377   6.164
 1946SOL    HW2 6519   0.885   2.241   6.179
 1947SOL     OW 6520   1.017   1.911   6.337
 1947SOL    HW1 6521   0.954   1.906   6.265
 1947SOL    HW2 6522   0.996   1.838   6.394
 1948SOL     OW 6523   1.439   3.020   6.446
 1948SOL    HW1 6524   1.370   2.954   6.448
 1948SOL    HW2 6525   1.440   3.051   6.355
 1949SOL     OW 6526   1.455   2.459   6.584
 1949SOL    HW1 6527   1.416   2.372   6.577
 1949SOL    HW2 6528   1.520   2.450   6.653
 1950SOL     OW 6529   0.492   3.275   5.748
 1950SOL    HW1 6530   0.416   3.246   5.798
 1950SOL    HW2 6531   0.470   3.256   5.657
 1951SOL     OW 6532   1.389   2.437   5.661
 1951SOL    HW1 6533   1.344   2.419   5.743
 1951SOL    HW2 6534   1.481   2.415   5.678
 1952SOL     OW 6535   0.525   2.122   5.906
 1952SOL    HW1 6536   0.568   2.075   5.834
 1952SOL    HW2 6537   0.508   2.209   5.870
 1953SOL     OW 6538   1.754   3.098   7.162
 1953SOL    HW1 6539   1.841   3.059   7.161
 1953SOL    HW2 6540   1.768   3.188   7.192
 1954SOL     OW 6541   1.061   3.215   6.921
 1954SOL    HW1 6542   0.986   3.185   6.972
 1954SOL    HW2 6543   1.137   3.174   6.962
 1955SOL     OW 6544   1.605   3.487   7.237
 1955SOL    HW1 6545   1.603   3.521   7.148
 1955SOL    HW2 6546   1.689   3.441   7.243
 1956SOL     OW 6547   1.126   3.063   6.693
 1956SOL    HW1 6548   1.068   3.101   6.759
 1956SOL    HW2 6549   1.090   3.095   6.609
 1957SOL     OW 6550   1.628   2.959   6.669
 1957SOL    HW1 6551   1.625   3.023   6.741
 1957SOL    HW2 6552   1.547   2.975   6.621
 1958SOL     OW 6553   0.917   1.961   6.985
 1958SOL    HW1 6554   0.940   1.941   6.894
 1958SOL    HW2 6555   0.997   2.000   7.022
 1959SOL     OW 6556   0.984   2.976   7.308
 1959SOL    HW1 6557   0.891   2.991   7.327
 1959SOL    HW2 6558   0.984   2.899   7.252
 1960SOL     OW 6559   0.708   2.922   5.959
 1960SOL    HW1 6560   0.695   2.908   6.053
 1960SOL    HW2 6561   0.784   2.869   5.936
 1961SOL     OW 6562   0.429   2.684   6.824
 1961SOL    HW1 6563   0.498   2.697   6.890
 1961SOL    HW2 6564   0.370   2.621   6.864
 1962SOL     OW 6565   1.268   2.240   6.860
 1962SOL    HW1 6566   1.300   2.318   6.906
 1962SOL    HW2 6567   1.179   2.263   6.832
 1963SOL     OW 6568   0.061   3.437   6.924
 1963SOL    HW1 6569   0.032   3.526   6.902
 1963SOL    HW2 6570   0.156   3.444   6.932
 1964SOL     OW 6571   0.351   2.968   6.080
 1964SOL    HW1 6572   0.359   3.042   6.019
 1964SOL    HW2 6573   0.353   2.891   6.024
 1965SOL     OW 6574   0.562   2.397   6.443
 1965SOL    HW1 6575   0.576   2.457   6.370
 1965SOL    HW2 6576   0.621   2.429   6.512
 1966SOL     OW 6577   1.246   3.217   5.963
 1966SOL    HW1 6578   1.304   3.282   6.003
 1966SOL    HW2 6579   1.162   3.229   6.006
 1967SOL     OW 6580   1.277   3.317   6.732
 1967SOL    HW1 6581   1.332   3.320   6.811
 1967SOL    HW2 6582   1.221   3.241   6.744
 1968SOL     OW 6583   0.348   3.391   6.904
 1968SOL    HW1 6584   0.333   3.344   6.822
 1968SOL    HW2 6585   0.443   3.401   6.909
 1969SOL     OW 6586   0.471   2.620   7.246
 1969SOL    HW1 6587   0.502   2.660   7.164
 1969SOL    HW2 6588   0.506   2.531   7.243
 1970SOL     OW 6589   1.597   2.640   7.266
 1970SOL    HW1 6590   1.511   2.680   7.258
 1970SOL    HW2 6591   1.650   2.682   7.198
 1971SOL     OW 6592   0.996   1.980   7.342
 1971SOL    HW1 6593   1.048   2.053   7.310
 1971SOL    HW2 6594   1.046   1.902   7.316
 1972SOL     OW 6595   0.498   1.906   7.331
 1972SOL    HW1 6596   0.459   1.849   7.265
 1972SOL    HW2 6597   0.437   1.979   7.341
 1973SOL     OW 6598   0.588   2.735   6.610
 1973SOL    HW1 6599   0.616   2.827   6.612
 1973SOL    HW2 6600   0.531   2.726   6.686
 1974SOL     OW 6601   1.361   2.719   6.625
 1974SOL    HW1 6602   1.283   2.716   6.569
 1974SOL    HW2 6603   1.399   2.632   6.620
 1975SOL     OW 6604   0.303   2.056   6.827
 1975SOL    HW1 6605   0.265   2.091   6.908
 1975SOL    HW2 6606   0.285   1.962   6.830
 1976SOL     OW 6607   0.047   3.174   6.870
 1976SOL    HW1 6608   0.078   3.128   6.947
 1976SOL    HW2 6609   0.049   3.267   6.895
 1977SOL     OW 6610   0.727   2.494   6.647
 1977SOL    HW1 6611   0.799   2.475   6.587
 1977SOL    HW2 6612   0.699   2.583   6.623
 1978SOL     OW 6613   1.732   2.823   7.435
 1978SOL    HW1 6614   1.686   2.764   7.376
 1978SOL    HW2 6615   1.673   2.833   7.510
 1979SOL     OW 6616   0.308   1.932   6.205
 1979SOL    HW1 6617   0.286   2.021   6.234
 1979SOL    HW2 6618   0.304   1.879   6.285
 1980SOL     OW 6619   1.026   2.622   6.548
 1980SOL    HW1 6620   1.028   2.640   6.642
 1980SOL    HW2 6621   1.001   2.530   6.541
 1981SOL     OW 6622   0.983   3.429   7.300
 1981SOL    HW1 6623   0.967   3.472   7.217
 1981SOL    HW2 6624   1.025   3.346   7.276
 1982SOL     OW 6625   1.856   3.372   7.192
 1982SOL    HW1 6626   1.873   3.396   7.101
 1982SOL    HW2 6627   1.937   3.392   7.238
 1983SOL     OW 6628   0.348   2.792   7.404
 1983SOL    HW1 6629   0.422   2.819   7.457
 1983SOL    HW2 6630   0.383   2.726   7.344
 1984SOL     OW 6631   1.303   2.696   5.624
 1984SOL    HW1 6632   1.336   2.606   5.625
 1984SOL    HW2 6633   1.331   2.731   5.539
 1985SOL     OW 6634   1.065   3.197   6.439
 1985SOL    HW1 6635   1.066   3.125   6.377
 1985SOL    HW2 6636   1.126   3.261   6.403
 1986SOL     OW 6637   0.317   2.674   6.536
 1986SOL    HW1 6638   0.411   2.692   6.532
 1986SOL    HW2 6639   0.310   2.584   6.566
 1987SOL     OW 6640   0.334   2.385   6.579
 1987SOL    HW1 6641   0.295   2.299   6.563
 1987SOL    HW2 6642   0.411   2.387   6.523
 1988SOL     OW 6643   1.134   2.240   7.265
 1988SOL    HW1 6644   1.089   2.295   7.329
 1988SOL    HW2 6645   1.223   2.276   7.262
 1989SOL     OW 6646   1.160   2.066   7.055
 1989SOL    HW1 6647   1.151   2.128   7.128
 1989SOL    HW2 6648   1.198   2.118   6.984
 1990SOL     OW 6649   4.492   3.185   5.787
 1990SOL    HW1 6650   4.399   3.200   5.770
 1990SOL    HW2 6651   4.498   3.093   5.811
 1991SOL     OW 6652   0.095   3.644   6.526
 1991SOL    HW1 6653   0.057   3.583   6.462
 1991SOL    HW2 6654   0.182   3.662   6.492
 1992SOL     OW 6655   0.499   3.435   6.492
 1992SOL    HW1 6656   0.567   3.498   6.516
 1992SOL    HW2 6657   0.543   3.370   6.438
 1993SOL     OW 6658   0.988   2.657   6.814
 1993SOL    HW1 6659   1.041   2.631   6.890
 1993SOL    HW2 6660   0.901   2.621   6.832
 1994SOL     OW 6661   0.037   2.423   6.692
 1994SOL    HW1 6662   0.119   2.387   6.660
 1994SOL    HW2 6663   0.027   2.386   6.780
 1995SOL     OW 6664   0.179   2.377   7.299
 1995SOL    HW1 6665   0.258   2.349   7.253
 1995SOL    HW2 6666   0.153   2.458   7.256
 1996SOL     OW 6667   1.375   2.804   7.246
 1996SOL    HW1 6668   1.396   2.897   7.245
 1996SOL    HW2 6669   1.373   2.779   7.153
 1997SOL     OW 6670   0.816   2.430   5.940
 1997SOL    HW1 6671   0.816   2.354   5.882
 1997SOL    HW2 6672   0.742   2.483   5.911
 1998SOL     OW 6673   1.633   2.456   6.798
 1998SOL    HW1 6674   1.610   2.400   6.872
 1998SOL    HW2 6675   1.725   2.436   6.780
 1999SOL     OW 6676   0.272   3.423   7.328
 1999SOL    HW1 6677   0.218   3.476   7.386
 1999SOL    HW2 6678   0.250   3.333   7.351
 2000SOL     OW 6679   0.686   2.318   6.850
 2000SOL    HW1 6680   0.644   2.240   6.815
 2000SOL    HW2 6681   0.690   2.379   6.777
 2001SOL     OW 6682   0.931   3.541   7.052
 2001SOL    HW1 6683   0.903   3.510   6.966
 2001SOL    HW2 6684   0.929   3.636   7.045
 2002SOL     OW 6685   0.473   2.353   5.774
 2002SOL    HW1 6686   0.531   2.426   5.796
 2002SOL    HW2 6687   0.387   2.392   5.760
 2003SOL     OW 6688   0.162   3.003   7.049
 2003SOL    HW1 6689   0.148   2.955   7.131
 2003SOL    HW2 6690   0.170   2.935   6.982
 2004SOL     OW 6691   1.330   2.912   6.811
 2004SOL    HW1 6692   1.351   2.846   6.744
 2004SOL    HW2 6693   1.257   2.961   6.774
 2005SOL     OW 6694   1.259   2.736   5.912
 2005SOL    HW1 6695   1.192   2.673   5.941
 2005SOL    HW2 6696   1.268   2.719   5.818
 2006SOL     OW 6697   1.769   3.609   6.735
 2006SOL    HW1 6698   1.828   3.634   6.664
 2006SOL    HW2 6699   1.745   3.519   6.715
 2007SOL     OW 6700   1.242   3.595   6.703
 2007SOL    HW1 6701   1.323   3.614   6.657
 2007SOL    HW2 6702   1.245   3.501   6.720
 2008SOL     OW 6703   0.068   3.050   6.634
 2008SOL    HW1 6704   0.073   3.085   6.723
 2008SOL    HW2 6705   0.011   3.112   6.587
 2009SOL     OW 6706   0.679   3.526   7.311
 2009SOL    HW1 6707   0.625   3.605   7.308
 2009SOL    HW2 6708   0.740   3.535   7.238
 2010SOL     OW 6709   1.390   3.429   6.070
 2010SOL    HW1 6710   1.451   3.460   6.003
 2010SOL    HW2 6711   1.343   3.508   6.098
 2011SOL     OW 6712   0.121   3.669   7.433
 2011SOL    HW1 6713   0.081   3.595   7.480
 2011SOL    HW2 6714   0.184   3.706   7.495
 2012SOL     OW 6715   1.281   2.807   6.249
 2012SOL    HW1 6716   1.340   2.737   6.278
 2012SOL    HW2 6717   1.304   2.822   6.158
 2013SOL     OW 6718   0.818   3.135   7.017
 2013SOL    HW1 6719   0.792   3.173   7.101
 2013SOL    HW2 6720   0.746   3.156   6.958
 2014SOL     OW 6721   0.673   3.478   5.741
 2014SOL    HW1 6722   0.681   3.489   5.646
 2014SOL    HW2 6723   0.619   3.400   5.752
 2015SOL     OW 6724   1.633   3.588   6.978
 2015SOL    HW1 6725   1.680   3.596   6.895
 2015SOL    HW2 6726   1.619   3.679   7.006
 2016SOL     OW 6727   1.832   2.011   6.555
 2016SOL    HW1 6728   1.882   1.971   6.484
 2016SOL    HW2 6729   1.751   2.042   6.512
 2017SOL     OW 6730   0.267   2.182   6.306
 2017SOL    HW1 6731   0.184   2.221   6.276
 2017SOL    HW2 6732   0.255   2.170   6.400
 2018SOL     OW 6733   1.206   3.470   5.617
 2018SOL    HW1 6734   1.197   3.379   5.645
 2018SOL    HW2 6735   1.141   3.480   5.548
 2019SOL     OW 6736   0.825   2.868   6.958
 2019SOL    HW1 6737   0.867   2.865   6.872
 2019SOL    HW2 6738   0.826   2.961   6.982
 2020SOL     OW 6739   0.913   2.772   5.873
 2020SOL    HW1 6740   0.977   2.805   5.810
 2020SOL    HW2 6741   0.960   2.704   5.922
 2021SOL     OW 6742   1.496   3.486   5.628
 2021SOL    HW1 6743   1.401   3.482   5.618
 2021SOL    HW2 6744   1.529   3.492   5.539
 2022SOL     OW 6745   0.373   3.167   7.077
 2022SOL    HW1 6746   0.356   3.246   7.025
 2022SOL    HW2 6747   0.297   3.111   7.061
 2023SOL     OW 6748   1.612   3.145   6.868
 2023SOL    HW1 6749   1.671   3.138   6.943
 2023SOL    HW2 6750   1.551   3.215   6.891
 2024SOL     OW 6751   1.048   2.969   6.292
 2024SOL    HW1 6752   0.978   2.917   6.331
 2024SOL    HW2 6753   1.110   2.905   6.258
 2025SOL     OW 6754   1.020   2.101   6.552
 2025SOL    HW1 6755   1.015   2.054   6.469
 2025SOL    HW2 6756   1.014   2.033   6.619
 2026SOL     OW 6757   0.603   3.352   6.069
 2026SOL    HW1 6758   0.641   3.301   5.998
 2026SOL    HW2 6759   0.532   3.401   6.028
 2027SOL     OW 6760   1.720   2.248   6.972
 2027SOL    HW1 6761   1.789   2.315   6.970
 2027SOL    HW2 6762   1.753   2.178   6.916
 2028SOL     OW 6763   0.252   3.207   5.864
 2028SOL    HW1 6764   0.158   3.208   5.849
 2028SOL    HW2 6765   0.262   3.240   5.953
 2029SOL     OW 6766   0.117   2.869   7.282
 2029SOL    HW1 6767   0.052   2.907   7.341
 2029SOL    HW2 6768   0.195   2.857   7.337
 2030SOL     OW 6769   0.672   2.061   7.084
 2030SOL    HW1 6770   0.756   2.040   7.042
 2030SOL    HW2 6771   0.696   2.087   7.173
 2031SOL     OW 6772   0.072   2.188   5.619
 2031SOL    HW1 6773   4.477   2.197   5.617
 2031SOL    HW2 6774   0.104   2.270   5.581
 2032SOL     OW 6775   1.432   2.721   6.988
 2032SOL    HW1 6776   1.384   2.780   6.930
 2032SOL    HW2 6777   1.523   2.726   6.959
 2033SOL     OW 6778   0.084   2.040   5.893
 2033SOL    HW1 6779   0.077   2.111   5.829
 2033SOL    HW2 6780   0.160   1.989   5.865
 2034SOL     OW 6781   1.182   3.200   5.699
 2034SOL    HW1 6782   1.090   3.173   5.703
 2034SOL    HW2 6783   1.211   3.204   5.790
 2035SOL     OW 6784   0.621   2.693   7.014
 2035SOL    HW1 6785   0.675   2.771   7.002
 2035SOL    HW2 6786   0.683   2.621   7.024
 2036SOL     OW 6787   1.484   3.638   6.563
 2036SOL    HW1 6788   1.511   3.691   6.488
 2036SOL    HW2 6789   1.566   3.618   6.609
 2037SOL     OW 6790   0.716   2.425   7.291
 2037SOL    HW1 6791   0.750   2.490   7.352
 2037SOL    HW2 6792   0.754   2.342   7.321
 2038SOL     OW 6793   1.468   3.065   7.219
 2038SOL    HW1 6794   1.456   3.078   7.313
 2038SOL    HW2 6795   1.562   3.077   7.205
 2039SOL     OW 6796   0.383   3.604   7.150
 2039SOL    HW1 6797   0.297   3.644   7.135
 2039SOL    HW2 6798   0.364   3.523   7.196
 2040SOL     OW 6799   1.676   2.744   6.841
 2040SOL    HW1 6800   1.651   2.660   6.803
 2040SOL    HW2 6801   1.660   2.808   6.772
 2041SOL     OW 6802   0.591   2.602   6.253
 2041SOL    HW1 6803   0.630   2.688   6.236
 2041SOL    HW2 6804   0.521   2.594   6.189
 2042SOL     OW 6805   1.765   2.224   7.244
 2042SOL    HW1 6806   1.758   2.234   7.149
 2042SOL    HW2 6807   1.692   2.167   7.267
 2043SOL     OW 6808   1.741   2.797   7.099
 2043SOL    HW1 6809   1.745   2.892   7.112
 2043SOL    HW2 6810   1.730   2.785   7.005
 2044SOL     OW 6811   0.864   3.230   5.616
 2044SOL    HW1 6812   0.824   3.255   5.699
 2044SOL    HW2 6813   0.881   3.314   5.572
 2045SOL     OW 6814   0.659   3.656   6.535
 2045SOL    HW1 6815   0.637   3.745   6.509
 2045SOL    HW2 6816   0.755   3.651   6.525
 2046SOL     OW 6817   0.866   2.828   6.442
 2046SOL    HW1 6818   0.916   2.756   6.482
 2046SOL    HW2 6819   0.833   2.879   6.516
 2047SOL     OW 6820   1.077   2.848   5.671
 2047SOL    HW1 6821   1.058   2.900   5.593
 2047SOL    HW2 6822   1.157   2.800   5.649
 2048SOL     OW 6823   1.852   3.422   6.432
 2048SOL    HW1 6824   1.784   3.400   6.368
 2048SOL    HW2 6825   1.852   3.348   6.493
 2049SOL     OW 6826   0.228   3.169   7.442
 2049SOL    HW1 6827   0.159   3.107   7.417
 2049SOL    HW2 6828   0.219   3.179   7.537
 2050SOL     OW 6829   0.102   3.101   6.252
 2050SOL    HW1 6830   0.106   3.050   6.333
 2050SOL    HW2 6831   0.162   3.057   6.193
 2051SOL     OW 6832   0.680   3.262   7.212
 2051SOL    HW1 6833   0.600   3.218   7.240
 2051SOL    HW2 6834   0.674   3.350   7.249
 2052SOL     OW 6835   1.815   2.049   6.823
 2052SOL    HW1 6836   1.830   1.958   6.849
 2052SOL    HW2 6837   1.829   2.050   6.728
 2053SOL     OW 6838   0.435   2.295   6.111
 2053SOL    HW1 6839   0.458   2.221   6.055
 2053SOL    HW2 6840   0.384   2.256   6.182
 2054SOL     OW 6841   1.700   3.354   6.690
 2054SOL    HW1 6842   1.621   3.328   6.643
 2054SOL    HW2 6843   1.714   3.284   6.754
 2055SOL     OW 6844   0.305   2.351   6.843
 2055SOL    HW1 6845   0.379   2.311   6.889
 2055SOL    HW2 6846   0.337   2.365   6.754
 2056SOL     OW 6847   0.825   3.440   6.266
 2056SOL    HW1 6848   0.819   3.485   6.182
 2056SOL    HW2 6849   0.747   3.385   6.270
 2057SOL     OW 6850   1.429   2.076   6.714
 2057SOL    HW1 6851   1.470   2.012   6.772
 2057SOL    HW2 6852   1.377   2.132   6.773
 2058SOL     OW 6853   1.006   1.883   6.731
 2058SOL    HW1 6854   0.951   1.814   6.694
 2058SOL    HW2 6855   1.094   1.845   6.734
 2059SOL     OW 6856   0.772   3.194   5.895
 2059SOL    HW1 6857   0.738   3.105   5.903
 2059SOL    HW2 6858   0.854   3.193   5.945
 2060SOL     OW 6859   0.621   3.420   6.870
 2060SOL    HW1 6860   0.623   3.501   6.921
 2060SOL    HW2 6861   0.708   3.413   6.831
 2061SOL     OW 6862   1.322   1.913   5.742
 2061SOL    HW1 6863   1.344   1.861   5.664
 2061SOL    HW2 6864   1.244   1.872   5.777
 2062SOL     OW 6865   1.270   2.313   6.278
 2062SOL    HW1 6866   1.223   2.396   6.287
 2062SOL    HW2 6867   1.282   2.281   6.368
 2063SOL     OW 6868   0.041   2.916   5.873
 2063SOL    HW1 6869   0.136   2.904   5.866
 2063SOL    HW2 6870   0.018   2.875   5.956
 2064SOL     OW 6871   0.882   3.512   5.930
 2064SOL    HW1 6872   0.811   3.493   5.869
 2064SOL    HW2 6873   0.852   3.588   5.980
 2065SOL     OW 6874   0.248   2.489   7.566
 2065SOL    HW1 6875   0.173   2.475   7.623
 2065SOL    HW2 6876   0.217   2.468   7.478
 2066SOL     OW 6877   0.213   2.138   8.440
 2066SOL    HW1 6878   0.250   2.111   8.524
 2066SOL    HW2 6879   0.137   2.081   8.428
 2067SOL     OW 6880   0.010   2.249   8.087
 2067SOL    HW1 6881   4.429   2.279   8.130
 2067SOL    HW2 6882   4.484   2.169   8.041
 2068SOL     OW 6883   0.567   3.144   8.620
 2068SOL    HW1 6884   0.479   3.149   8.582
 2068SOL    HW2 6885   0.582   3.232   8.656
 2069SOL     OW 6886   1.557   3.374   8.154
 2069SOL    HW1 6887   1.513   3.355   8.237
 2069SOL    HW2 6888   1.487   3.378   8.089
 2070SOL     OW 6889   1.129   2.561   8.152
 2070SOL    HW1 6890   1.180   2.641   8.137
 2070SOL    HW2 6891   1.083   2.577   8.234
 2071SOL     OW 6892   1.765   2.469   7.678
 2071SOL    HW1 6893   1.745   2.460   7.585
 2071SOL    HW2 6894   1.732   2.389   7.718
 2072SOL     OW 6895   0.759   3.006   8.485
 2072SOL    HW1 6896   0.689   3.040   8.541
 2072SOL    HW2 6897   0.793   3.084   8.441
 2073SOL     OW 6898   0.862   2.642   9.269
 2073SOL    HW1 6899   0.849   2.714   9.331
 2073SOL    HW2 6900   0.886   2.685   9.187
 2074SOL     OW 6901   0.686   2.869   8.097
 2074SOL    HW1 6902   0.750   2.854   8.167
 2074SOL    HW2 6903   0.616   2.918   8.140
 2075SOL     OW 6904   0.708   3.013   9.258
 2075SOL    HW1 6905   0.755   3.093   9.281
 2075SOL    HW2 6906   0.624   3.044   9.223
 2076SOL     OW 6907   0.337   3.286   8.518
 2076SOL    HW1 6908   0.255   3.266   8.471
 2076SOL    HW2 6909   0.387   3.340   8.457
 2077SOL     OW 6910   1.462   3.360   8.798
 2077SOL    HW1 6911   1.505   3.444   8.809
 2077SOL    HW2 6912   1.406   3.351   8.876
 2078SOL     OW 6913   0.442   2.266   8.944
 2078SOL    HW1 6914   0.522   2.214   8.946
 2078SOL    HW2 6915   0.371   2.202   8.947
 2079SOL     OW 6916   1.612   2.310   8.189
 2079SOL    HW1 6917   1.537   2.336   8.135
 2079SOL    HW2 6918   1.635   2.389   8.238
 2080SOL     OW 6919   0.246   3.554   7.927
 2080SOL    HW1 6920   0.233   3.638   7.970
 2080SOL    HW2 6921   0.307   3.572   7.856
 2081SOL     OW 6922   1.136   3.203   9.139
 2081SOL    HW1 6923   1.175   3.199   9.226
 2081SOL    HW2 6924   1.083   3.123   9.133
 2082SOL     OW 6925   0.244   3.289   7.976
 2082SOL    HW1 6926   0.237   3.385   7.981
 2082SOL    HW2 6927   0.179   3.257   8.039
 2083SOL     OW 6928   0.245   2.943   8.330
 2083SOL    HW1 6929   0.263   2.856   8.365
 2083SOL    HW2 6930   0.188   2.983   8.396
 2084SOL     OW 6931   0.617   3.652   8.881
 2084SOL    HW1 6932   0.533   3.635   8.923
 2084SOL    HW2 6933   0.637   3.743   8.904
 2085SOL     OW 6934   0.584   2.845   7.583
 2085SOL    HW1 6935   0.629   2.893   7.513
 2085SOL    HW2 6936   0.629   2.872   7.663
 2086SOL     OW 6937   1.590   1.982   8.917
 2086SOL    HW1 6938   1.599   2.060   8.863
 2086SOL    HW2 6939   1.584   2.016   9.007
 2087SOL     OW 6940   0.136   2.506   8.023
 2087SOL    HW1 6941   0.086   2.425   8.036
 2087SOL    HW2 6942   0.106   2.565   8.092
 2088SOL     OW 6943   1.841   3.623   7.785
 2088SOL    HW1 6944   1.901   3.594   7.854
 2088SOL    HW2 6945   1.869   3.713   7.766
 2089SOL     OW 6946   0.033   3.463   7.584
 2089SOL    HW1 6947   0.021   3.368   7.586
 2089SOL    HW2 6948   0.010   3.492   7.672
 2090SOL     OW 6949   1.691   2.782   8.086
 2090SOL    HW1 6950   1.774   2.739   8.065
 2090SOL    HW2 6951   1.669   2.831   8.007
 2091SOL     OW 6952   1.644   2.970   7.878
 2091SOL    HW1 6953   1.730   2.978   7.835
 2091SOL    HW2 6954   1.649   3.030   7.952
 2092SOL     OW 6955   0.111   2.621   9.037
 2092SOL    HW1 6956   0.206   2.622   9.023
 2092SOL    HW2 6957   0.086   2.713   9.041
 2093SOL     OW 6958   0.613   3.244   8.184
 2093SOL    HW1 6959   0.566   3.161   8.192
 2093SOL    HW2 6960   0.596   3.271   8.093
 2094SOL     OW 6961   1.291   3.101   8.872
 2094SOL    HW1 6962   1.323   3.033   8.813
 2094SOL    HW2 6963   1.346   3.093   8.950
 2095SOL     OW 6964   0.813   1.860   7.953
 2095SOL    HW1 6965   0.853   1.946   7.938
 2095SOL    HW2 6966   0.720   1.879   7.964
 2096SOL     OW 6967   0.184   2.807   8.727
 2096SOL    HW1 6968   0.275   2.789   8.704
 2096SOL    HW2 6969   0.134   2.781   8.650
 2097SOL     OW 6970   1.532   2.854   7.644
 2097SOL    HW1 6971   1.462   2.795   7.673
 2097SOL    HW2 6972   1.571   2.887   7.725
 2098SOL     OW 6973   1.186   3.666   9.068
 2098SOL    HW1 6974   1.200   3.723   8.992
 2098SOL    HW2 6975   1.200   3.577   9.035
 2099SOL     OW 6976   0.328   2.118   9.243
 2099SOL    HW1 6977   0.381   2.190   9.276
 2099SOL    HW2 6978   0.243   2.128   9.286
 2100SOL     OW 6979   1.466   3.282   8.401
 2100SOL    HW1 6980   1.397   3.296   8.467
 2100SOL    HW2 6981   1.454   3.191   8.374
 2101SOL     OW 6982   1.662   3.595   8.026
 2101SOL    HW1 6983   1.638   3.567   7.937
 2101SOL    HW2 6984   1.635   3.522   8.081
 2102SOL     OW 6985   0.597   2.584   7.712
 2102SOL    HW1 6986   0.603   2.664   7.660
 2102SOL    HW2 6987   0.532   2.604   7.779
 2103SOL     OW 6988   1.280   2.210   8.380
 2103SOL    HW1 6989   1.190   2.177   8.388
 2103SOL    HW2 6990   1.330   2.158   8.442
 2104SOL     OW 6991   1.581   3.530   7.757
 2104SOL    HW1 6992   1.671   3.565   7.751
 2104SOL    HW2 6993   1.556   3.513   7.666
 2105SOL     OW 6994   0.794   2.478   8.901
 2105SOL    HW1 6995   0.768   2.456   8.990
 2105SOL    HW2 6996   0.750   2.414   8.846
 2106SOL     OW 6997   1.393   2.336   9.126
 2106SOL    HW1 6998   1.395   2.379   9.211
 2106SOL    HW2 6999   1.458   2.266   9.134
 2107SOL     OW 7000   0.958   2.751   9.029
 2107SOL    HW1 7001   1.012   2.679   8.994
 2107SOL    HW2 7002   0.911   2.784   8.952
 2108SOL     OW 7003   0.993   2.276   8.687
 2108SOL    HW1 7004   0.910   2.298   8.729
 2108SOL    HW2 7005   0.968   2.227   8.609
 2109SOL     OW 7006   1.049   2.561   7.875
 2109SOL    HW1 7007   1.064   2.554   7.969
 2109SOL    HW2 7008   0.968   2.513   7.860
 2110SOL     OW 7009   0.098   2.686   8.231
 2110SOL    HW1 7010   0.184   2.665   8.267
 2110SOL    HW2 7011   0.053   2.733   8.301
 2111SOL     OW 7012   0.126   3.711   9.023
 2111SOL    HW1 7013   0.119   3.690   9.116
 2111SOL    HW2 7014   0.044   3.681   8.985
 2112SOL     OW 7015   0.886   2.208   7.642
 2112SOL    HW1 7016   0.931   2.269   7.582
 2112SOL    HW2 7017   0.906   2.122   7.606
 2113SOL     OW 7018   1.714   2.444   9.276
 2113SOL    HW1 7019   1.675   2.518   9.230
 2113SOL    HW2 7020   1.729   2.379   9.208
 2114SOL     OW 7021   1.375   3.005   7.991
 2114SOL    HW1 7022   1.453   2.990   7.937
 2114SOL    HW2 7023   1.323   3.066   7.940
 2115SOL     OW 7024   0.550   2.046   8.340
 2115SOL    HW1 7025   0.553   2.074   8.432
 2115SOL    HW2 7026   0.552   2.128   8.290
 2116SOL     OW 7027   1.009   3.308   7.922
 2116SOL    HW1 7028   0.968   3.379   7.873
 2116SOL    HW2 7029   0.993   3.330   8.014
 2117SOL     OW 7030   0.354   3.669   8.304
 2117SOL    HW1 7031   0.397   3.585   8.315
 2117SOL    HW2 7032   0.424   3.734   8.317
 2118SOL     OW 7033   1.799   2.922   8.315
 2118SOL    HW1 7034   1.743   2.904   8.239
 2118SOL    HW2 7035   1.738   2.927   8.389
 2119SOL     OW 7036   1.228   3.402   8.960
 2119SOL    HW1 7037   1.214   3.329   9.021
 2119SOL    HW2 7038   1.167   3.385   8.888
 2120SOL     OW 7039   0.317   2.816   7.697
 2120SOL    HW1 7040   0.402   2.838   7.658
 2120SOL    HW2 7041   0.299   2.727   7.668
 2121SOL     OW 7042   1.475   2.601   8.176
 2121SOL    HW1 7043   1.464   2.554   8.259
 2121SOL    HW2 7044   1.553   2.656   8.190
 2122SOL     OW 7045   0.465   3.123   9.183
 2122SOL    HW1 7046   0.437   3.130   9.092
 2122SOL    HW2 7047   0.384   3.128   9.234
 2123SOL     OW 7048   1.120   3.639   7.680
 2123SOL    HW1 7049   1.049   3.596   7.727
 2123SOL    HW2 7050   1.142   3.580   7.608
 2124SOL     OW 7051   0.195   2.140   8.935
 2124SOL    HW1 7052   0.132   2.212   8.940
 2124SOL    HW2 7053   0.186   2.094   9.019
 2125SOL     OW 7054   1.629   3.241   7.534
 2125SOL    HW1 7055   1.588   3.326   7.520
 2125SOL    HW2 7056   1.560   3.177   7.516
 2126SOL     OW 7057   0.469   3.607   7.762
 2126SOL    HW1 7058   0.508   3.658   7.832
 2126SOL    HW2 7059   0.544   3.574   7.711
 2127SOL     OW 7060   1.401   1.970   7.878
 2127SOL    HW1 7061   1.390   1.945   7.787
 2127SOL    HW2 7062   1.496   1.978   7.889
 2128SOL     OW 7063   0.260   3.656   8.682
 2128SOL    HW1 7064   0.306   3.583   8.723
 2128SOL    HW2 7065   0.228   3.621   8.598
 2129SOL     OW 7066   0.938   3.560   8.348
 2129SOL    HW1 7067   1.015   3.506   8.369
 2129SOL    HW2 7068   0.892   3.512   8.280
 2130SOL     OW 7069   0.392   2.557   7.923
 2130SOL    HW1 7070   0.417   2.466   7.932
 2130SOL    HW2 7071   0.300   2.560   7.948
 2131SOL     OW 7072   1.537   2.086   9.174
 2131SOL    HW1 7073   1.543   2.107   9.268
 2131SOL    HW2 7074   1.470   2.018   9.169
 2132SOL     OW 7075   0.629   1.989   7.553
 2132SOL    HW1 7076   0.703   1.930   7.567
 2132SOL    HW2 7077   0.585   1.953   7.476
 2133SOL     OW 7078   0.768   2.137   9.200
 2133SOL    HW1 7079   0.841   2.076   9.207
 2133SOL    HW2 7080   0.718   2.124   9.281
 2134SOL     OW 7081   0.878   3.384   8.641
 2134SOL    HW1 7082   0.862   3.347   8.554
 2134SOL    HW2 7083   0.946   3.328   8.678
 2135SOL     OW 7084   1.341   2.451   8.880
 2135SOL    HW1 7085   1.372   2.418   8.964
 2135SOL    HW2 7086   1.378   2.539   8.874
 2136SOL     OW 7087   0.813   3.260   8.384
 2136SOL    HW1 7088   0.897   3.250   8.339
 2136SOL    HW2 7089   0.748   3.258   8.314
 2137SOL     OW 7090   0.926   2.371   8.352
 2137SOL    HW1 7091   0.904   2.363   8.260
 2137SOL    HW2 7092   0.960   2.285   8.376
 2138SOL     OW 7093   0.550   1.924   7.952
 2138SOL    HW1 7094   0.469   1.923   8.004
 2138SOL    HW2 7095   0.544   2.003   7.899
 2139SOL     OW 7096   1.429   3.060   7.489
 2139SOL    HW1 7097   1.460   2.984   7.539
 2139SOL    HW2 7098   1.342   3.079   7.526
 2140SOL     OW 7099   0.295   1.908   7.626
 2140SOL    HW1 7100   0.357   1.976   7.600
 2140SOL    HW2 7101   0.349   1.842   7.670
 2141SOL     OW 7102   0.936   2.106   7.912
 2141SOL    HW1 7103   0.907   2.149   7.832
 2141SOL    HW2 7104   1.031   2.118   7.913
 2142SOL     OW 7105   1.080   2.541   8.908
 2142SOL    HW1 7106   1.010   2.476   8.914
 2142SOL    HW2 7107   1.160   2.490   8.901
 2143SOL     OW 7108   1.225   3.431   8.241
 2143SOL    HW1 7109   1.243   3.499   8.176
 2143SOL    HW2 7110   1.293   3.443   8.308
 2144SOL     OW 7111   0.465   3.010   8.186
 2144SOL    HW1 7112   0.393   2.991   8.246
 2144SOL    HW2 7113   0.428   2.993   8.099
 2145SOL     OW 7114   1.271   3.657   8.054
 2145SOL    HW1 7115   1.315   3.718   7.995
 2145SOL    HW2 7116   1.206   3.710   8.100
 2146SOL     OW 7117   1.025   2.407   7.467
 2146SOL    HW1 7118   0.983   2.491   7.447
 2146SOL    HW2 7119   1.090   2.428   7.535
 2147SOL     OW 7120   0.080   2.395   8.855
 2147SOL    HW1 7121   0.149   2.396   8.789
 2147SOL    HW2 7122   0.068   2.487   8.878
 2148SOL     OW 7123   0.562   2.089   8.612
 2148SOL    HW1 7124   0.602   2.009   8.645
 2148SOL    HW2 7125   0.470   2.083   8.639
 2149SOL     OW 7126   0.869   2.322   8.088
 2149SOL    HW1 7127   0.822   2.375   8.024
 2149SOL    HW2 7128   0.889   2.240   8.041
 2150SOL     OW 7129   1.014   1.915   8.202
 2150SOL    HW1 7130   0.956   1.906   8.126
 2150SOL    HW2 7131   0.994   1.839   8.256
 2151SOL     OW 7132   1.436   3.026   8.306
 2151SOL    HW1 7133   1.368   2.958   8.305
 2151SOL    HW2 7134   1.458   3.039   8.213
 2152SOL     OW 7135   1.467   2.465   8.430
 2152SOL    HW1 7136   1.420   2.381   8.432
 2152SOL    HW2 7137   1.527   2.461   8.504
 2153SOL     OW 7138   1.848   2.680   7.831
 2153SOL    HW1 7139   1.903   2.626   7.888
 2153SOL    HW2 7140   1.819   2.620   7.762
 2154SOL     OW 7141   0.492   3.275   7.610
 2154SOL    HW1 7142   0.416   3.246   7.660
 2154SOL    HW2 7143   0.471   3.256   7.519
 2155SOL     OW 7144   1.668   3.128   8.096
 2155SOL    HW1 7145   1.763   3.134   8.109
 2155SOL    HW2 7146   1.636   3.215   8.118
 2156SOL     OW 7147   1.393   2.434   7.519
 2156SOL    HW1 7148   1.334   2.414   7.592
 2156SOL    HW2 7149   1.479   2.401   7.548
 2157SOL     OW 7150   0.525   2.122   7.768
 2157SOL    HW1 7151   0.567   2.074   7.697
 2157SOL    HW2 7152   0.508   2.209   7.732
 2158SOL     OW 7153   1.753   3.098   9.024
 2158SOL    HW1 7154   1.841   3.059   9.022
 2158SOL    HW2 7155   1.768   3.188   9.054
 2159SOL     OW 7156   1.061   3.216   8.783
 2159SOL    HW1 7157   0.986   3.185   8.834
 2159SOL    HW2 7158   1.136   3.174   8.824
 2160SOL     OW 7159   1.606   3.487   9.099
 2160SOL    HW1 7160   1.603   3.521   9.010
 2160SOL    HW2 7161   1.689   3.441   9.105
 2161SOL     OW 7162   1.126   3.064   8.555
 2161SOL    HW1 7163   1.067   3.101   8.621
 2161SOL    HW2 7164   1.091   3.094   8.471
 2162SOL     OW 7165   1.632   2.962   8.526
 2162SOL    HW1 7166   1.627   3.024   8.599
 2162SOL    HW2 7167   1.550   2.977   8.477
 2163SOL     OW 7168   0.917   1.961   8.847
 2163SOL    HW1 7169   0.940   1.941   8.756
 2163SOL    HW2 7170   0.996   2.000   8.883
 2164SOL     OW 7171   0.984   2.976   9.170
 2164SOL    HW1 7172   0.891   2.991   9.189
 2164SOL    HW2 7173   0.984   2.899   9.114
 2165SOL     OW 7174   0.708   2.922   7.821
 2165SOL    HW1 7175   0.695   2.908   7.914
 2165SOL    HW2 7176   0.784   2.869   7.798
 2166SOL     OW 7177   0.429   2.684   8.687
 2166SOL    HW1 7178   0.498   2.697   8.752
 2166SOL    HW2 7179   0.370   2.620   8.726
 2167SOL     OW 7180   1.267   2.240   8.721
 2167SOL    HW1 7181   1.299   2.317   8.767
 2167SOL    HW2 7182   1.178   2.263   8.695
 2168SOL     OW 7183   0.061   3.437   8.786
 2168SOL    HW1 7184   0.032   3.526   8.764
 2168SOL    HW2 7185   0.156   3.444   8.794
 2169SOL     OW 7186   0.351   2.968   7.942
 2169SOL    HW1 7187   0.359   3.042   7.880
 2169SOL    HW2 7188   0.353   2.890   7.886
 2170SOL     OW 7189   0.562   2.397   8.305
 2170SOL    HW1 7190   0.576   2.457   8.232
 2170SOL    HW2 7191   0.621   2.429   8.374
 2171SOL     OW 7192   1.248   3.210   7.837
 2171SOL    HW1 7193   1.303   3.282   7.868
 2171SOL    HW2 7194   1.161   3.230   7.871
 2172SOL     OW 7195   1.277   3.318   8.594
 2172SOL    HW1 7196   1.331   3.319   8.672
 2172SOL    HW2 7197   1.221   3.240   8.604
 2173SOL     OW 7198   1.581   2.487   7.924
 2173SOL    HW1 7199   1.538   2.544   7.987
 2173SOL    HW2 7200   1.629   2.547   7.866
 2174SOL     OW 7201   0.348   3.391   8.766
 2174SOL    HW1 7202   0.333   3.344   8.684
 2174SOL    HW2 7203   0.443   3.401   8.771
 2175SOL     OW 7204   0.472   2.620   9.108
 2175SOL    HW1 7205   0.502   2.660   9.026
 2175SOL    HW2 7206   0.506   2.531   9.105
 2176SOL     OW 7207   1.598   2.641   9.129
 2176SOL    HW1 7208   1.511   2.680   9.120
 2176SOL    HW2 7209   1.650   2.682   9.059
 2177SOL     OW 7210   0.996   1.980   9.205
 2177SOL    HW1 7211   1.048   2.053   9.171
 2177SOL    HW2 7212   1.046   1.902   9.178
 2178SOL     OW 7213   0.498   1.906   9.194
 2178SOL    HW1 7214   0.459   1.849   9.128
 2178SOL    HW2 7215   0.437   1.979   9.203
 2179SOL     OW 7216   0.588   2.735   8.472
 2179SOL    HW1 7217   0.616   2.827   8.474
 2179SOL    HW2 7218   0.531   2.726   8.548
 2180SOL     OW 7219   1.361   2.721   8.482
 2180SOL    HW1 7220   1.280   2.714   8.431
 2180SOL    HW2 7221   1.398   2.633   8.479
 2181SOL     OW 7222   1.207   2.391   7.717
 2181SOL    HW1 7223   1.215   2.313   7.771
 2181SOL    HW2 7224   1.165   2.455   7.774
 2182SOL     OW 7225   0.303   2.056   8.689
 2182SOL    HW1 7226   0.265   2.091   8.770
 2182SOL    HW2 7227   0.285   1.962   8.692
 2183SOL     OW 7228   0.047   3.174   8.732
 2183SOL    HW1 7229   0.078   3.128   8.809
 2183SOL    HW2 7230   0.049   3.267   8.757
 2184SOL     OW 7231   0.727   2.494   8.509
 2184SOL    HW1 7232   0.799   2.475   8.449
 2184SOL    HW2 7233   0.699   2.583   8.485
 2185SOL     OW 7234   1.732   2.823   9.298
 2185SOL    HW1 7235   1.686   2.764   9.238
 2185SOL    HW2 7236   1.673   2.833   9.372
 2186SOL     OW 7237   0.308   1.932   8.067
 2186SOL    HW1 7238   0.287   2.021   8.096
 2186SOL    HW2 7239   0.304   1.879   8.147
 2187SOL     OW 7240   1.612   2.233   7.818
 2187SOL    HW1 7241   1.642   2.171   7.884
 2187SOL    HW2 7242   1.591   2.313   7.867
 2188SOL     OW 7243   1.027   2.622   8.410
 2188SOL    HW1 7244   1.027   2.639   8.504
 2188SOL    HW2 7245   1.000   2.530   8.403
 2189SOL     OW 7246   0.983   3.429   9.162
 2189SOL    HW1 7247   0.967   3.472   9.079
 2189SOL    HW2 7248   1.025   3.346   9.138
 2190SOL     OW 7249   1.856   3.371   9.054
 2190SOL    HW1 7250   1.873   3.396   8.963
 2190SOL    HW2 7251   1.937   3.392   9.100
 2191SOL     OW 7252   0.348   2.792   9.266
 2191SOL    HW1 7253   0.422   2.819   9.319
 2191SOL    HW2 7254   0.383   2.726   9.206
 2192SOL     OW 7255   1.531   2.136   7.575
 2192SOL    HW1 7256   1.466   2.070   7.602
 2192SOL    HW2 7257   1.563   2.172   7.657
 2193SOL     OW 7258   1.294   2.689   7.481
 2193SOL    HW1 7259   1.337   2.603   7.485
 2193SOL    HW2 7260   1.325   2.728   7.399
 2194SOL     OW 7261   1.065   3.197   8.300
 2194SOL    HW1 7262   1.068   3.124   8.239
 2194SOL    HW2 7263   1.128   3.260   8.265
 2195SOL     OW 7264   0.317   2.674   8.398
 2195SOL    HW1 7265   0.411   2.692   8.394
 2195SOL    HW2 7266   0.310   2.584   8.428
 2196SOL     OW 7267   0.333   2.385   8.441
 2196SOL    HW1 7268   0.295   2.299   8.426
 2196SOL    HW2 7269   0.411   2.387   8.385
 2197SOL     OW 7270   1.134   2.241   9.127
 2197SOL    HW1 7271   1.089   2.296   9.191
 2197SOL    HW2 7272   1.223   2.277   9.123
 2198SOL     OW 7273   1.159   2.067   8.918
 2198SOL    HW1 7274   1.151   2.129   8.989
 2198SOL    HW2 7275   1.199   2.117   8.846
 2199SOL     OW 7276   4.492   3.185   7.649
 2199SOL    HW1 7277   4.399   3.200   7.632
 2199SOL    HW2 7278   4.498   3.093   7.673
 2200SOL     OW 7279   0.095   3.644   8.388
 2200SOL    HW1 7280   0.057   3.583   8.324
 2200SOL    HW2 7281   0.182   3.662   8.354
 2201SOL     OW 7282   0.499   3.435   8.354
 2201SOL    HW1 7283   0.567   3.498   8.378
 2201SOL    HW2 7284   0.544   3.370   8.300
 2202SOL     OW 7285   0.988   2.657   8.676
 2202SOL    HW1 7286   1.041   2.631   8.752
 2202SOL    HW2 7287   0.901   2.620   8.694
 2203SOL     OW 7288   0.037   2.423   8.554
 2203SOL    HW1 7289   0.119   2.387   8.522
 2203SOL    HW2 7290   0.027   2.386   8.642
 2204SOL     OW 7291   0.179   2.377   9.161
 2204SOL    HW1 7292   0.258   2.349   9.115
 2204SOL    HW2 7293   0.154   2.458   9.118
 2205SOL     OW 7294   1.375   2.804   9.107
 2205SOL    HW1 7295   1.396   2.897   9.107
 2205SOL    HW2 7296   1.374   2.779   9.015
 2206SOL     OW 7297   0.816   2.431   7.803
 2206SOL    HW1 7298   0.818   2.355   7.744
 2206SOL    HW2 7299   0.741   2.483   7.773
 2207SOL     OW 7300   1.642   2.465   8.638
 2207SOL    HW1 7301   1.633   2.401   8.710
 2207SOL    HW2 7302   1.729   2.448   8.603
 2208SOL     OW 7303   0.272   3.423   9.190
 2208SOL    HW1 7304   0.218   3.476   9.248
 2208SOL    HW2 7305   0.250   3.333   9.213
 2209SOL     OW 7306   0.686   2.318   8.713
 2209SOL    HW1 7307   0.644   2.240   8.677
 2209SOL    HW2 7308   0.690   2.379   8.639
 2210SOL     OW 7309   0.931   3.541   8.914
 2210SOL    HW1 7310   0.903   3.510   8.828
 2210SOL    HW2 7311   0.929   3.636   8.907
 2211SOL     OW 7312   0.473   2.353   7.636
 2211SOL    HW1 7313   0.531   2.426   7.657
 2211SOL    HW2 7314   0.387   2.393   7.622
 2212SOL     OW 7315   0.162   3.003   8.911
 2212SOL    HW1 7316   0.148   2.955   8.993
 2212SOL    HW2 7317   0.170   2.935   8.844
 2213SOL     OW 7318   1.330   2.911   8.673
 2213SOL    HW1 7319   1.353   2.848   8.605
 2213SOL    HW2 7320   1.257   2.961   8.635
 2214SOL     OW 7321   1.308   2.719   7.756
 2214SOL    HW1 7322   1.232   2.688   7.804
 2214SOL    HW2 7323   1.286   2.705   7.664
 2215SOL     OW 7324   1.768   3.609   8.596
 2215SOL    HW1 7325   1.828   3.634   8.526
 2215SOL    HW2 7326   1.745   3.518   8.576
 2216SOL     OW 7327   1.242   3.595   8.565
 2216SOL    HW1 7328   1.323   3.613   8.518
 2216SOL    HW2 7329   1.244   3.501   8.582
 2217SOL     OW 7330   0.068   3.050   8.496
 2217SOL    HW1 7331   0.073   3.085   8.585
 2217SOL    HW2 7332   0.011   3.112   8.449
 2218SOL     OW 7333   0.679   3.526   9.173
 2218SOL    HW1 7334   0.625   3.605   9.170
 2218SOL    HW2 7335   0.740   3.535   9.100
 2219SOL     OW 7336   1.717   2.003   7.960
 2219SOL    HW1 7337   1.792   1.990   7.901
 2219SOL    HW2 7338   1.702   1.918   8.000
 2220SOL     OW 7339   1.390   3.430   7.931
 2220SOL    HW1 7340   1.451   3.461   7.863
 2220SOL    HW2 7341   1.343   3.508   7.958
 2221SOL     OW 7342   0.121   3.669   9.295
 2221SOL    HW1 7343   0.081   3.595   9.342
 2221SOL    HW2 7344   0.184   3.706   9.357
 2222SOL     OW 7345   1.277   2.786   8.119
 2222SOL    HW1 7346   1.350   2.725   8.124
 2222SOL    HW2 7347   1.311   2.860   8.067
 2223SOL     OW 7348   0.818   3.134   8.879
 2223SOL    HW1 7349   0.792   3.173   8.963
 2223SOL    HW2 7350   0.746   3.156   8.820
 2224SOL     OW 7351   0.673   3.478   7.603
 2224SOL    HW1 7352   0.681   3.489   7.508
 2224SOL    HW2 7353   0.619   3.400   7.614
 2225SOL     OW 7354   1.633   3.588   8.840
 2225SOL    HW1 7355   1.680   3.596   8.757
 2225SOL    HW2 7356   1.619   3.679   8.869
 2226SOL     OW 7357   1.846   2.044   8.414
 2226SOL    HW1 7358   1.879   1.958   8.388
 2226SOL    HW2 7359   1.759   2.049   8.374
 2227SOL     OW 7360   0.267   2.182   8.168
 2227SOL    HW1 7361   0.184   2.221   8.139
 2227SOL    HW2 7362   0.255   2.170   8.262
 2228SOL     OW 7363   1.206   3.470   7.479
 2228SOL    HW1 7364   1.198   3.379   7.507
 2228SOL    HW2 7365   1.141   3.480   7.409
 2229SOL     OW 7366   0.825   2.868   8.820
 2229SOL    HW1 7367   0.867   2.865   8.734
 2229SOL    HW2 7368   0.826   2.961   8.844
 2230SOL     OW 7369   0.915   2.772   7.737
 2230SOL    HW1 7370   0.977   2.804   7.671
 2230SOL    HW2 7371   0.962   2.702   7.782
 2231SOL     OW 7372   1.495   3.486   7.490
 2231SOL    HW1 7373   1.400   3.482   7.479
 2231SOL    HW2 7374   1.529   3.492   7.401
 2232SOL     OW 7375   0.373   3.167   8.939
 2232SOL    HW1 7376   0.356   3.246   8.887
 2232SOL    HW2 7377   0.297   3.111   8.923
 2233SOL     OW 7378   1.613   3.146   8.729
 2233SOL    HW1 7379   1.670   3.137   8.806
 2233SOL    HW2 7380   1.551   3.215   8.753
 2234SOL     OW 7381   1.048   2.967   8.153
 2234SOL    HW1 7382   0.978   2.916   8.193
 2234SOL    HW2 7383   1.109   2.902   8.119
 2235SOL     OW 7384   1.019   2.102   8.414
 2235SOL    HW1 7385   1.014   2.054   8.331
 2235SOL    HW2 7386   1.015   2.034   8.481
 2236SOL     OW 7387   0.603   3.352   7.931
 2236SOL    HW1 7388   0.641   3.301   7.860
 2236SOL    HW2 7389   0.532   3.401   7.890
 2237SOL     OW 7390   1.717   2.257   8.826
 2237SOL    HW1 7391   1.793   2.314   8.829
 2237SOL    HW2 7392   1.746   2.181   8.774
 2238SOL     OW 7393   0.252   3.207   7.726
 2238SOL    HW1 7394   0.158   3.208   7.711
 2238SOL    HW2 7395   0.262   3.240   7.815
 2239SOL     OW 7396   0.118   2.870   9.144
 2239SOL    HW1 7397   0.052   2.906   9.203
 2239SOL    HW2 7398   0.195   2.857   9.199
 2240SOL     OW 7399   0.672   2.061   8.946
 2240SOL    HW1 7400   0.756   2.040   8.904
 2240SOL    HW2 7401   0.696   2.087   9.035
 2241SOL     OW 7402   0.072   2.189   7.481
 2241SOL    HW1 7403   4.477   2.197   7.479
 2241SOL    HW2 7404   0.104   2.270   7.443
 2242SOL     OW 7405   1.432   2.721   8.850
 2242SOL    HW1 7406   1.384   2.780   8.792
 2242SOL    HW2 7407   1.522   2.723   8.817
 2243SOL     OW 7408   0.084   2.040   7.755
 2243SOL    HW1 7409   0.078   2.111   7.691
 2243SOL    HW2 7410   0.160   1.989   7.727
 2244SOL     OW 7411   1.180   3.204   7.565
 2244SOL    HW1 7412   1.089   3.174   7.568
 2244SOL    HW2 7413   1.208   3.203   7.656
 2245SOL     OW 7414   0.621   2.693   8.877
 2245SOL    HW1 7415   0.676   2.771   8.864
 2245SOL    HW2 7416   0.683   2.621   8.886
 2246SOL     OW 7417   1.485   3.636   8.423
 2246SOL    HW1 7418   1.511   3.693   8.351
 2246SOL    HW2 7419   1.566   3.621   8.472
 2247SOL     OW 7420   0.716   2.425   9.153
 2247SOL    HW1 7421   0.750   2.490   9.214
 2247SOL    HW2 7422   0.754   2.342   9.183
 2248SOL     OW 7423   1.468   3.065   9.081
 2248SOL    HW1 7424   1.456   3.078   9.175
 2248SOL    HW2 7425   1.562   3.077   9.067
 2249SOL     OW 7426   0.383   3.604   9.012
 2249SOL    HW1 7427   0.297   3.644   8.997
 2249SOL    HW2 7428   0.364   3.523   9.058
 2250SOL     OW 7429   1.673   2.744   8.703
 2250SOL    HW1 7430   1.662   2.659   8.662
 2250SOL    HW2 7431   1.662   2.807   8.632
 2251SOL     OW 7432   1.219   2.182   7.905
 2251SOL    HW1 7433   1.282   2.111   7.896
 2251SOL    HW2 7434   1.247   2.230   7.983
 2252SOL     OW 7435   0.591   2.602   8.115
 2252SOL    HW1 7436   0.630   2.688   8.098
 2252SOL    HW2 7437   0.521   2.594   8.051
 2253SOL     OW 7438   1.752   2.236   9.104
 2253SOL    HW1 7439   1.757   2.233   9.009
 2253SOL    HW2 7440   1.685   2.171   9.127
 2254SOL     OW 7441   1.744   2.795   8.960
 2254SOL    HW1 7442   1.745   2.890   8.973
 2254SOL    HW2 7443   1.728   2.784   8.867
 2255SOL     OW 7444   0.863   3.231   7.478
 2255SOL    HW1 7445   0.823   3.256   7.561
 2255SOL    HW2 7446   0.882   3.313   7.434
 2256SOL     OW 7447   0.659   3.656   8.397
 2256SOL    HW1 7448   0.637   3.745   8.371
 2256SOL    HW2 7449   0.755   3.651   8.387
 2257SOL     OW 7450   0.866   2.827   8.304
 2257SOL    HW1 7451   0.916   2.756   8.344
 2257SOL    HW2 7452   0.833   2.878   8.378
 2258SOL     OW 7453   1.080   2.850   7.537
 2258SOL    HW1 7454   1.058   2.900   7.458
 2258SOL    HW2 7455   1.155   2.797   7.511
 2259SOL     OW 7456   1.856   3.418   8.293
 2259SOL    HW1 7457   1.779   3.407   8.237
 2259SOL    HW2 7458   1.847   3.351   8.360
 2260SOL     OW 7459   0.228   3.169   9.304
 2260SOL    HW1 7460   0.159   3.107   9.279
 2260SOL    HW2 7461   0.219   3.179   9.399
 2261SOL     OW 7462   0.102   3.101   8.115
 2261SOL    HW1 7463   0.106   3.050   8.195
 2261SOL    HW2 7464   0.162   3.057   8.055
 2262SOL     OW 7465   0.681   3.262   9.074
 2262SOL    HW1 7466   0.600   3.218   9.102
 2262SOL    HW2 7467   0.674   3.350   9.111
 2263SOL     OW 7468   1.804   2.053   8.679
 2263SOL    HW1 7469   1.841   1.971   8.710
 2263SOL    HW2 7470   1.821   2.054   8.585
 2264SOL     OW 7471   0.434   2.295   7.973
 2264SOL    HW1 7472   0.458   2.221   7.917
 2264SOL    HW2 7473   0.384   2.255   8.044
 2265SOL     OW 7474   1.702   3.353   8.548
 2265SOL    HW1 7475   1.620   3.328   8.504
 2265SOL    HW2 7476   1.715   3.285   8.614
 2266SOL     OW 7477   0.305   2.351   8.705
 2266SOL    HW1 7478   0.379   2.311   8.751
 2266SOL    HW2 7479   0.337   2.365   8.616
 2267SOL     OW 7480   0.825   3.440   8.127
 2267SOL    HW1 7481   0.818   3.485   8.043
 2267SOL    HW2 7482   0.747   3.385   8.132
 2268SOL     OW 7483   1.432   2.085   8.565
 2268SOL    HW1 7484   1.467   2.011   8.614
 2268SOL    HW2 7485   1.380   2.133   8.630
 2269SOL     OW 7486   1.008   1.883   8.594
 2269SOL    HW1 7487   0.954   1.814   8.555
 2269SOL    HW2 7488   1.096   1.846   8.595
 2270SOL     OW 7489   0.772   3.194   7.758
 2270SOL    HW1 7490   0.738   3.105   7.765
 2270SOL    HW2 7491   0.854   3.192   7.807
 2271SOL     OW 7492   0.621   3.420   8.732
 2271SOL    HW1 7493   0.623   3.501   8.783
 2271SOL    HW2 7494   0.708   3.413   8.693
 2272SOL     OW 7495   1.352   1.915   7.612
 2272SOL    HW1 7496   1.377   1.856   7.541
 2272SOL    HW2 7497   1.265   1.884   7.639
 2273SOL     OW 7498   1.297   2.322   8.131
 2273SOL    HW1 7499   1.243   2.400   8.139
 2273SOL    HW2 7500   1.295   2.281   8.217
 2274SOL     OW 7501   1.588   2.066   8.325
 2274SOL    HW1 7502   1.525   2.083   8.394
 2274SOL    HW2 7503   1.588   2.145   8.271
 2275SOL     OW 7504   0.041   2.916   7.735
 2275SOL    HW1 7505   0.136   2.904   7.728
 2275SOL    HW2 7506   0.019   2.875   7.818
 2276SOL     OW 7507   0.882   3.512   7.792
 2276SOL    HW1 7508   0.810   3.493   7.731
 2276SOL    HW2 7509   0.851   3.588   7.842
 2277SOL     OW 7510   0.248   2.489   9.428
 2277SOL    HW1 7511   0.173   2.475   9.485
 2277SOL    HW2 7512   0.217   2.468   9.340
 2278SOL     OW 7513   0.214   2.138  10.301
 2278SOL    HW1 7514   0.250   2.112  10.386
 2278SOL    HW2 7515   0.137   2.082  10.290
 2279SOL     OW 7516   0.010   2.249   9.949
 2279SOL    HW1 7517   4.429   2.279   9.992
 2279SOL    HW2 7518   4.484   2.169   9.903
 2280SOL     OW 7519   0.567   3.144  10.483
 2280SOL    HW1 7520   0.480   3.148  10.444
 2280SOL    HW2 7521   0.582   3.232  10.518
 2281SOL     OW 7522   1.558   3.374  10.015
 2281SOL    HW1 7523   1.514   3.356  10.099
 2281SOL    HW2 7524   1.487   3.379   9.951
 2282SOL     OW 7525   1.129   2.561  10.014
 2282SOL    HW1 7526   1.180   2.641   9.999
 2282SOL    HW2 7527   1.083   2.577  10.096
 2283SOL     OW 7528   1.766   2.469   9.540
 2283SOL    HW1 7529   1.745   2.460   9.447
 2283SOL    HW2 7530   1.731   2.389   9.580
 2284SOL     OW 7531   0.760   3.007  10.348
 2284SOL    HW1 7532   0.689   3.040  10.404
 2284SOL    HW2 7533   0.792   3.084  10.302
 2285SOL     OW 7534   0.848   2.646   0.020
 2285SOL    HW1 7535   0.858   2.703   0.096
 2285SOL    HW2 7536   0.883   2.697  11.047
 2286SOL     OW 7537   0.686   2.869   9.959
 2286SOL    HW1 7538   0.750   2.854  10.029
 2286SOL    HW2 7539   0.616   2.918  10.001
 2287SOL     OW 7540   0.337   3.285  10.379
 2287SOL    HW1 7541   0.255   3.266  10.333
 2287SOL    HW2 7542   0.387   3.340  10.318
 2288SOL     OW 7543   1.463   3.362  10.656
 2288SOL    HW1 7544   1.514   3.442  10.667
 2288SOL    HW2 7545   1.418   3.350  10.740
 2289SOL     OW 7546   0.446   2.264  10.794
 2289SOL    HW1 7547   0.524   2.209  10.803
 2289SOL    HW2 7548   0.373   2.206  10.814
 2290SOL     OW 7549   1.611   2.310  10.051
 2290SOL    HW1 7550   1.537   2.337   9.997
 2290SOL    HW2 7551   1.635   2.389  10.100
 2291SOL     OW 7552   0.246   3.554   9.790
 2291SOL    HW1 7553   0.233   3.638   9.833
 2291SOL    HW2 7554   0.307   3.572   9.718
 2292SOL     OW 7555   0.244   3.289   9.838
 2292SOL    HW1 7556   0.237   3.385   9.843
 2292SOL    HW2 7557   0.179   3.257   9.901
 2293SOL     OW 7558   0.245   2.943  10.193
 2293SOL    HW1 7559   0.262   2.855  10.227
 2293SOL    HW2 7560   0.188   2.983  10.258
 2294SOL     OW 7561   0.615   3.652  10.741
 2294SOL    HW1 7562   0.534   3.633  10.787
 2294SOL    HW2 7563   0.636   3.742  10.765
 2295SOL     OW 7564   0.584   2.845   9.445
 2295SOL    HW1 7565   0.629   2.893   9.375
 2295SOL    HW2 7566   0.629   2.872   9.525
 2296SOL     OW 7567   1.587   1.978  10.781
 2296SOL    HW1 7568   1.597   2.057  10.727
 2296SOL    HW2 7569   1.596   2.009  10.871
 2297SOL     OW 7570   0.136   2.506   9.885
 2297SOL    HW1 7571   0.086   2.425   9.898
 2297SOL    HW2 7572   0.106   2.565   9.954
 2298SOL     OW 7573   1.842   3.623   9.647
 2298SOL    HW1 7574   1.900   3.594   9.716
 2298SOL    HW2 7575   1.869   3.713   9.628
 2299SOL     OW 7576   0.033   3.462   9.446
 2299SOL    HW1 7577   0.021   3.368   9.448
 2299SOL    HW2 7578   0.010   3.492   9.534
 2300SOL     OW 7579   1.691   2.782   9.948
 2300SOL    HW1 7580   1.774   2.739   9.928
 2300SOL    HW2 7581   1.669   2.831   9.869
 2301SOL     OW 7582   1.644   2.970   9.740
 2301SOL    HW1 7583   1.729   2.978   9.697
 2301SOL    HW2 7584   1.649   3.030   9.814
 2302SOL     OW 7585   0.100   2.618  10.910
 2302SOL    HW1 7586   0.194   2.604  10.897
 2302SOL    HW2 7587   0.088   2.712  10.897
 2303SOL     OW 7588   0.613   3.244  10.046
 2303SOL    HW1 7589   0.566   3.161  10.054
 2303SOL    HW2 7590   0.596   3.271   9.955
 2304SOL     OW 7591   1.297   3.100  10.750
 2304SOL    HW1 7592   1.321   3.038  10.681
 2304SOL    HW2 7593   1.351   3.075  10.825
 2305SOL     OW 7594   0.813   1.860   9.815
 2305SOL    HW1 7595   0.853   1.946   9.800
 2305SOL    HW2 7596   0.720   1.879   9.827
 2306SOL     OW 7597   0.183   2.806  10.589
 2306SOL    HW1 7598   0.274   2.788  10.566
 2306SOL    HW2 7599   0.133   2.780  10.512
 2307SOL     OW 7600   1.532   2.854   9.506
 2307SOL    HW1 7601   1.462   2.795   9.535
 2307SOL    HW2 7602   1.571   2.887   9.587
 2308SOL     OW 7603   1.195   3.667  10.926
 2308SOL    HW1 7604   1.197   3.729  10.853
 2308SOL    HW2 7605   1.203   3.581  10.885
 2309SOL     OW 7606   0.338   2.125   0.003
 2309SOL    HW1 7607   0.387   2.198   0.041
 2309SOL    HW2 7608   0.247   2.145   0.023
 2310SOL     OW 7609   1.466   3.281  10.263
 2310SOL    HW1 7610   1.397   3.296  10.328
 2310SOL    HW2 7611   1.454   3.191  10.235
 2311SOL     OW 7612   1.662   3.595   9.887
 2311SOL    HW1 7613   1.638   3.567   9.799
 2311SOL    HW2 7614   1.635   3.522   9.943
 2312SOL     OW 7615   0.597   2.584   9.574
 2312SOL    HW1 7616   0.602   2.664   9.522
 2312SOL    HW2 7617   0.531   2.604   9.641
 2313SOL     OW 7618   1.280   2.211  10.243
 2313SOL    HW1 7619   1.190   2.177  10.250
 2313SOL    HW2 7620   1.330   2.158  10.304
 2314SOL     OW 7621   1.582   3.530   9.619
 2314SOL    HW1 7622   1.670   3.565   9.613
 2314SOL    HW2 7623   1.556   3.513   9.528
 2315SOL     OW 7624   0.795   2.477  10.764
 2315SOL    HW1 7625   0.767   2.455  10.852
 2315SOL    HW2 7626   0.751   2.413  10.708
 2316SOL     OW 7627   0.966   2.759  10.899
 2316SOL    HW1 7628   1.014   2.686  10.860
 2316SOL    HW2 7629   0.916   2.796  10.826
 2317SOL     OW 7630   0.992   2.275  10.550
 2317SOL    HW1 7631   0.909   2.299  10.590
 2317SOL    HW2 7632   0.968   2.227  10.471
 2318SOL     OW 7633   1.049   2.561   9.737
 2318SOL    HW1 7634   1.064   2.554   9.831
 2318SOL    HW2 7635   0.968   2.513   9.722
 2319SOL     OW 7636   0.098   2.686  10.093
 2319SOL    HW1 7637   0.184   2.665  10.129
 2319SOL    HW2 7638   0.053   2.732  10.164
 2320SOL     OW 7639   0.120   3.712  10.898
 2320SOL    HW1 7640   0.116   3.653  10.973
 2320SOL    HW2 7641   0.051   3.681  10.840
 2321SOL     OW 7642   0.887   2.208   9.504
 2321SOL    HW1 7643   0.931   2.269   9.444
 2321SOL    HW2 7644   0.905   2.122   9.468
 2322SOL     OW 7645   1.375   3.005   9.852
 2322SOL    HW1 7646   1.453   2.990   9.799
 2322SOL    HW2 7647   1.322   3.066   9.802
 2323SOL     OW 7648   0.551   2.046  10.202
 2323SOL    HW1 7649   0.553   2.074  10.294
 2323SOL    HW2 7650   0.552   2.128  10.153
 2324SOL     OW 7651   1.009   3.308   9.784
 2324SOL    HW1 7652   0.968   3.379   9.735
 2324SOL    HW2 7653   0.993   3.330   9.876
 2325SOL     OW 7654   0.354   3.669  10.166
 2325SOL    HW1 7655   0.398   3.585  10.177
 2325SOL    HW2 7656   0.424   3.734  10.179
 2326SOL     OW 7657   1.799   2.921  10.176
 2326SOL    HW1 7658   1.742   2.904  10.101
 2326SOL    HW2 7659   1.739   2.927  10.251
 2327SOL     OW 7660   1.226   3.403  10.824
 2327SOL    HW1 7661   1.235   3.316  10.865
 2327SOL    HW2 7662   1.168   3.389  10.750
 2328SOL     OW 7663   0.317   2.816   9.559
 2328SOL    HW1 7664   0.402   2.838   9.520
 2328SOL    HW2 7665   0.299   2.727   9.529
 2329SOL     OW 7666   1.475   2.601  10.038
 2329SOL    HW1 7667   1.464   2.555  10.121
 2329SOL    HW2 7668   1.552   2.656  10.052
 2330SOL     OW 7669   0.455   3.131  11.052
 2330SOL    HW1 7670   0.427   3.139  10.960
 2330SOL    HW2 7671   0.386   3.080  11.094
 2331SOL     OW 7672   1.120   3.639   9.542
 2331SOL    HW1 7673   1.049   3.596   9.589
 2331SOL    HW2 7674   1.142   3.580   9.470
 2332SOL     OW 7675   0.193   2.139  10.797
 2332SOL    HW1 7676   0.135   2.215  10.804
 2332SOL    HW2 7677   0.191   2.099  10.884
 2333SOL     OW 7678   1.629   3.241   9.396
 2333SOL    HW1 7679   1.588   3.326   9.382
 2333SOL    HW2 7680   1.560   3.177   9.378
 2334SOL     OW 7681   0.469   3.607   9.624
 2334SOL    HW1 7682   0.508   3.658   9.694
 2334SOL    HW2 7683   0.544   3.575   9.573
 2335SOL     OW 7684   1.401   1.970   9.740
 2335SOL    HW1 7685   1.389   1.944   9.649
 2335SOL    HW2 7686   1.496   1.978   9.751
 2336SOL     OW 7687   0.256   3.655  10.546
 2336SOL    HW1 7688   0.306   3.584  10.587
 2336SOL    HW2 7689   0.230   3.620  10.461
 2337SOL     OW 7690   0.939   3.560  10.210
 2337SOL    HW1 7691   1.016   3.507  10.230
 2337SOL    HW2 7692   0.892   3.512  10.142
 2338SOL     OW 7693   0.392   2.557   9.785
 2338SOL    HW1 7694   0.417   2.465   9.794
 2338SOL    HW2 7695   0.300   2.560   9.810
 2339SOL     OW 7696   0.629   1.988   9.415
 2339SOL    HW1 7697   0.704   1.929   9.429
 2339SOL    HW2 7698   0.585   1.954   9.338
 2340SOL     OW 7699   0.771   2.132  11.045
 2340SOL    HW1 7700   0.835   2.076  11.088
 2340SOL    HW2 7701   0.710   2.157   0.016
 2341SOL     OW 7702   0.876   3.383  10.503
 2341SOL    HW1 7703   0.861   3.348  10.415
 2341SOL    HW2 7704   0.947   3.330  10.539
 2342SOL     OW 7705   1.343   2.451  10.752
 2342SOL    HW1 7706   1.392   2.428  10.831
 2342SOL    HW2 7707   1.372   2.540  10.730
 2343SOL     OW 7708   0.813   3.260  10.246
 2343SOL    HW1 7709   0.897   3.250  10.200
 2343SOL    HW2 7710   0.748   3.258  10.176
 2344SOL     OW 7711   0.927   2.371  10.214
 2344SOL    HW1 7712   0.904   2.363  10.122
 2344SOL    HW2 7713   0.960   2.285  10.238
 2345SOL     OW 7714   0.550   1.924   9.814
 2345SOL    HW1 7715   0.469   1.923   9.866
 2345SOL    HW2 7716   0.544   2.003   9.761
 2346SOL     OW 7717   1.429   3.060   9.351
 2346SOL    HW1 7718   1.459   2.984   9.401
 2346SOL    HW2 7719   1.342   3.079   9.388
 2347SOL     OW 7720   0.295   1.908   9.488
 2347SOL    HW1 7721   0.357   1.976   9.461
 2347SOL    HW2 7722   0.349   1.842   9.532
 2348SOL     OW 7723   0.936   2.106   9.774
 2348SOL    HW1 7724   0.907   2.149   9.693
 2348SOL    HW2 7725   1.031   2.118   9.775
 2349SOL     OW 7726   1.079   2.545  10.771
 2349SOL    HW1 7727   1.007   2.481  10.776
 2349SOL    HW2 7728   1.158   2.492  10.766
 2350SOL     OW 7729   1.225   3.431  10.104
 2350SOL    HW1 7730   1.243   3.499  10.038
 2350SOL    HW2 7731   1.293   3.443  10.170
 2351SOL     OW 7732   0.465   3.009  10.048
 2351SOL    HW1 7733   0.393   2.991  10.108
 2351SOL    HW2 7734   0.428   2.993   9.961
 2352SOL     OW 7735   1.271   3.657   9.915
 2352SOL    HW1 7736   1.315   3.718   9.857
 2352SOL    HW2 7737   1.206   3.710   9.962
 2353SOL     OW 7738   1.025   2.407   9.330
 2353SOL    HW1 7739   0.983   2.491   9.309
 2353SOL    HW2 7740   1.089   2.429   9.397
 2354SOL     OW 7741   0.074   2.395  10.713
 2354SOL    HW1 7742   0.148   2.397  10.654
 2354SOL    HW2 7743   0.069   2.484  10.749
 2355SOL     OW 7744   0.562   2.089  10.474
 2355SOL    HW1 7745   0.601   2.008  10.508
 2355SOL    HW2 7746   0.470   2.085  10.502
 2356SOL     OW 7747   0.870   2.322   9.950
 2356SOL    HW1 7748   0.822   2.375   9.887
 2356SOL    HW2 7749   0.889   2.240   9.903
 2357SOL     OW 7750   1.014   1.915  10.064
 2357SOL    HW1 7751   0.956   1.907   9.988
 2357SOL    HW2 7752   0.994   1.839  10.118
 2358SOL     OW 7753   1.435   3.026  10.168
 2358SOL    HW1 7754   1.368   2.957  10.166
 2358SOL    HW2 7755   1.458   3.039  10.076
 2359SOL     OW 7756   1.466   2.465  10.291
 2359SOL    HW1 7757   1.420   2.381  10.294
 2359SOL    HW2 7758   1.528   2.461  10.365
 2360SOL     OW 7759   1.849   2.680   9.692
 2360SOL    HW1 7760   1.902   2.627   9.750
 2360SOL    HW2 7761   1.819   2.620   9.624
 2361SOL     OW 7762   0.492   3.275   9.472
 2361SOL    HW1 7763   0.416   3.246   9.522
 2361SOL    HW2 7764   0.471   3.256   9.381
 2362SOL     OW 7765   1.668   3.128   9.958
 2362SOL    HW1 7766   1.763   3.133   9.971
 2362SOL    HW2 7767   1.636   3.215   9.980
 2363SOL     OW 7768   1.394   2.434   9.382
 2363SOL    HW1 7769   1.334   2.415   9.454
 2363SOL    HW2 7770   1.478   2.399   9.411
 2364SOL     OW 7771   0.525   2.122   9.630
 2364SOL    HW1 7772   0.567   2.074   9.559
 2364SOL    HW2 7773   0.508   2.209   9.594
 2365SOL     OW 7774   1.760   3.092  10.873
 2365SOL    HW1 7775   1.850   3.060  10.880
 2365SOL    HW2 7776   1.761   3.178  10.913
 2366SOL     OW 7777   1.065   3.216  10.650
 2366SOL    HW1 7778   0.987   3.183  10.695
 2366SOL    HW2 7779   1.138   3.168  10.690
 2367SOL     OW 7780   1.126   3.066  10.417
 2367SOL    HW1 7781   1.063   3.101  10.480
 2367SOL    HW2 7782   1.093   3.094  10.332
 2368SOL     OW 7783   1.632   2.963  10.388
 2368SOL    HW1 7784   1.628   3.024  10.461
 2368SOL    HW2 7785   1.551   2.978  10.340
 2369SOL     OW 7786   0.917   1.961  10.709
 2369SOL    HW1 7787   0.940   1.941  10.618
 2369SOL    HW2 7788   0.996   2.001  10.745
 2370SOL     OW 7789   0.708   2.922   9.683
 2370SOL    HW1 7790   0.695   2.908   9.776
 2370SOL    HW2 7791   0.784   2.869   9.660
 2371SOL     OW 7792   0.428   2.683  10.549
 2371SOL    HW1 7793   0.496   2.694  10.615
 2371SOL    HW2 7794   0.368   2.620  10.587
 2372SOL     OW 7795   1.268   2.241  10.585
 2372SOL    HW1 7796   1.299   2.319  10.631
 2372SOL    HW2 7797   1.179   2.263  10.557
 2373SOL     OW 7798   0.062   3.439  10.652
 2373SOL    HW1 7799   0.036   3.525  10.619
 2373SOL    HW2 7800   0.157   3.443  10.655
 2374SOL     OW 7801   0.352   2.968   9.804
 2374SOL    HW1 7802   0.359   3.042   9.742
 2374SOL    HW2 7803   0.353   2.890   9.748
 2375SOL     OW 7804   0.562   2.397  10.167
 2375SOL    HW1 7805   0.576   2.457  10.094
 2375SOL    HW2 7806   0.621   2.429  10.236
 2376SOL     OW 7807   1.248   3.210   9.699
 2376SOL    HW1 7808   1.303   3.282   9.730
 2376SOL    HW2 7809   1.161   3.230   9.733
 2377SOL     OW 7810   1.276   3.319  10.454
 2377SOL    HW1 7811   1.332   3.322  10.532
 2377SOL    HW2 7812   1.223   3.240  10.466
 2378SOL     OW 7813   1.582   2.487   9.786
 2378SOL    HW1 7814   1.538   2.544   9.850
 2378SOL    HW2 7815   1.629   2.547   9.729
 2379SOL     OW 7816   0.347   3.387  10.627
 2379SOL    HW1 7817   0.334   3.342  10.544
 2379SOL    HW2 7818   0.442   3.401  10.632
 2380SOL     OW 7819   0.477   2.609  10.964
 2380SOL    HW1 7820   0.511   2.648  10.883
 2380SOL    HW2 7821   0.509   2.518  10.962
 2381SOL     OW 7822   1.590   2.625  10.970
 2381SOL    HW1 7823   1.513   2.682  10.964
 2381SOL    HW2 7824   1.660   2.675  10.928
 2382SOL     OW 7825   0.589   2.735  10.335
 2382SOL    HW1 7826   0.615   2.827  10.336
 2382SOL    HW2 7827   0.531   2.725  10.411
 2383SOL     OW 7828   1.360   2.723  10.346
 2383SOL    HW1 7829   1.280   2.716  10.294
 2383SOL    HW2 7830   1.398   2.635  10.343
 2384SOL     OW 7831   1.207   2.391   9.579
 2384SOL    HW1 7832   1.215   2.313   9.633
 2384SOL    HW2 7833   1.165   2.455   9.636
 2385SOL     OW 7834   0.303   2.056  10.551
 2385SOL    HW1 7835   0.266   2.091  10.632
 2385SOL    HW2 7836   0.284   1.962  10.555
 2386SOL     OW 7837   0.049   3.176  10.593
 2386SOL    HW1 7838   0.077   3.128  10.671
 2386SOL    HW2 7839   0.048   3.268  10.621
 2387SOL     OW 7840   0.727   2.495  10.371
 2387SOL    HW1 7841   0.799   2.475  10.311
 2387SOL    HW2 7842   0.699   2.583  10.347
 2388SOL     OW 7843   0.308   1.932   9.929
 2388SOL    HW1 7844   0.287   2.021   9.958
 2388SOL    HW2 7845   0.304   1.879  10.009
 2389SOL     OW 7846   1.613   2.234   9.680
 2389SOL    HW1 7847   1.641   2.171   9.746
 2389SOL    HW2 7848   1.591   2.313   9.729
 2390SOL     OW 7849   1.027   2.622  10.272
 2390SOL    HW1 7850   1.027   2.639  10.366
 2390SOL    HW2 7851   1.000   2.530  10.265
 2391SOL     OW 7852   0.974   3.434  11.004
 2391SOL    HW1 7853   0.960   3.483  10.923
 2391SOL    HW2 7854   1.006   3.348  10.976
 2392SOL     OW 7855   1.859   3.359  10.912
 2392SOL    HW1 7856   1.873   3.393  10.823
 2392SOL    HW2 7857   1.926   3.401  10.965
 2393SOL     OW 7858   0.349   2.794  11.097
 2393SOL    HW1 7859   0.424   2.821   0.048
 2393SOL    HW2 7860   0.382   2.722  11.042
 2394SOL     OW 7861   1.530   2.136   9.437
 2394SOL    HW1 7862   1.466   2.070   9.464
 2394SOL    HW2 7863   1.563   2.172   9.520
 2395SOL     OW 7864   1.295   2.689   9.343
 2395SOL    HW1 7865   1.337   2.603   9.346
 2395SOL    HW2 7866   1.325   2.728   9.261
 2396SOL     OW 7867   1.065   3.196  10.163
 2396SOL    HW1 7868   1.068   3.124  10.101
 2396SOL    HW2 7869   1.128   3.260  10.128
 2397SOL     OW 7870   0.317   2.674  10.260
 2397SOL    HW1 7871   0.411   2.691  10.255
 2397SOL    HW2 7872   0.310   2.584  10.290
 2398SOL     OW 7873   0.334   2.385  10.303
 2398SOL    HW1 7874   0.294   2.299  10.288
 2398SOL    HW2 7875   0.411   2.387  10.247
 2399SOL     OW 7876   1.156   2.072  10.781
 2399SOL    HW1 7877   1.168   2.129  10.857
 2399SOL    HW2 7878   1.195   2.120  10.709
 2400SOL     OW 7879   4.492   3.185   9.511
 2400SOL    HW1 7880   4.399   3.200   9.494
 2400SOL    HW2 7881   4.498   3.093   9.535
 2401SOL     OW 7882   0.094   3.643  10.250
 2401SOL    HW1 7883   0.057   3.582  10.185
 2401SOL    HW2 7884   0.182   3.663  10.216
 2402SOL     OW 7885   0.499   3.435  10.216
 2402SOL    HW1 7886   0.567   3.498  10.240
 2402SOL    HW2 7887   0.544   3.370  10.162
 2403SOL     OW 7888   0.988   2.657  10.538
 2403SOL    HW1 7889   1.040   2.633  10.615
 2403SOL    HW2 7890   0.901   2.621  10.556
 2404SOL     OW 7891   0.035   2.421  10.415
 2404SOL    HW1 7892   0.120   2.387  10.385
 2404SOL    HW2 7893   0.029   2.391  10.505
 2405SOL     OW 7894   0.816   2.431   9.665
 2405SOL    HW1 7895   0.818   2.355   9.606
 2405SOL    HW2 7896   0.741   2.483   9.635
 2406SOL     OW 7897   1.644   2.464  10.498
 2406SOL    HW1 7898   1.636   2.403  10.571
 2406SOL    HW2 7899   1.731   2.447  10.463
 2407SOL     OW 7900   0.264   3.433  11.058
 2407SOL    HW1 7901   0.212   3.464   0.032
 2407SOL    HW2 7902   0.243   3.340  11.051
 2408SOL     OW 7903   0.691   2.317  10.574
 2408SOL    HW1 7904   0.644   2.240  10.541
 2408SOL    HW2 7905   0.692   2.378  10.500
 2409SOL     OW 7906   0.941   3.544  10.760
 2409SOL    HW1 7907   0.902   3.513  10.678
 2409SOL    HW2 7908   0.928   3.639  10.759
 2410SOL     OW 7909   0.473   2.353   9.498
 2410SOL    HW1 7910   0.531   2.426   9.519
 2410SOL    HW2 7911   0.387   2.394   9.484
 2411SOL     OW 7912   0.162   3.003  10.772
 2411SOL    HW1 7913   0.141   2.959  10.854
 2411SOL    HW2 7914   0.170   2.933  10.707
 2412SOL     OW 7915   1.328   2.916  10.538
 2412SOL    HW1 7916   1.355   2.851  10.473
 2412SOL    HW2 7917   1.255   2.962  10.497
 2413SOL     OW 7918   1.308   2.719   9.618
 2413SOL    HW1 7919   1.231   2.688   9.666
 2413SOL    HW2 7920   1.286   2.705   9.526
 2414SOL     OW 7921   1.768   3.610  10.459
 2414SOL    HW1 7922   1.828   3.634  10.389
 2414SOL    HW2 7923   1.745   3.519  10.440
 2415SOL     OW 7924   1.242   3.595  10.427
 2415SOL    HW1 7925   1.323   3.614  10.381
 2415SOL    HW2 7926   1.244   3.501  10.444
 2416SOL     OW 7927   0.068   3.051  10.358
 2416SOL    HW1 7928   0.074   3.085  10.447
 2416SOL    HW2 7929   0.011   3.112  10.312
 2417SOL     OW 7930   1.719   2.004   9.823
 2417SOL    HW1 7931   1.791   1.990   9.762
 2417SOL    HW2 7932   1.703   1.918   9.862
 2418SOL     OW 7933   1.390   3.430   9.793
 2418SOL    HW1 7934   1.450   3.461   9.725
 2418SOL    HW2 7935   1.343   3.508   9.820
 2419SOL     OW 7936   1.277   2.787   9.981
 2419SOL    HW1 7937   1.350   2.725   9.986
 2419SOL    HW2 7938   1.311   2.860   9.929
 2420SOL     OW 7939   0.822   3.134  10.739
 2420SOL    HW1 7940   0.792   3.169  10.824
 2420SOL    HW2 7941   0.750   3.156  10.679
 2421SOL     OW 7942   0.673   3.478   9.465
 2421SOL    HW1 7943   0.681   3.489   9.370
 2421SOL    HW2 7944   0.619   3.400   9.476
 2422SOL     OW 7945   1.627   3.581  10.700
 2422SOL    HW1 7946   1.679   3.595  10.621
 2422SOL    HW2 7947   1.613   3.669  10.735
 2423SOL     OW 7948   1.842   2.044  10.279
 2423SOL    HW1 7949   1.878   1.959  10.252
 2423SOL    HW2 7950   1.757   2.048  10.237
 2424SOL     OW 7951   0.267   2.182  10.030
 2424SOL    HW1 7952   0.184   2.221  10.001
 2424SOL    HW2 7953   0.256   2.170  10.124
 2425SOL     OW 7954   1.206   3.470   9.341
 2425SOL    HW1 7955   1.198   3.379   9.369
 2425SOL    HW2 7956   1.141   3.480   9.271
 2426SOL     OW 7957   0.825   2.868  10.684
 2426SOL    HW1 7958   0.867   2.863  10.598
 2426SOL    HW2 7959   0.827   2.961  10.707
 2427SOL     OW 7960   0.915   2.773   9.599
 2427SOL    HW1 7961   0.977   2.804   9.533
 2427SOL    HW2 7962   0.962   2.701   9.643
 2428SOL     OW 7963   1.495   3.486   9.352
 2428SOL    HW1 7964   1.400   3.482   9.341
 2428SOL    HW2 7965   1.529   3.492   9.263
 2429SOL     OW 7966   0.369   3.169  10.805
 2429SOL    HW1 7967   0.356   3.245  10.748
 2429SOL    HW2 7968   0.296   3.111  10.785
 2430SOL     OW 7969   1.614   3.145  10.593
 2430SOL    HW1 7970   1.669   3.134  10.670
 2430SOL    HW2 7971   1.556   3.218  10.615
 2431SOL     OW 7972   1.048   2.967  10.015
 2431SOL    HW1 7973   0.978   2.916  10.055
 2431SOL    HW2 7974   1.109   2.902   9.980
 2432SOL     OW 7975   1.020   2.102  10.276
 2432SOL    HW1 7976   1.014   2.054  10.193
 2432SOL    HW2 7977   1.015   2.034  10.343
 2433SOL     OW 7978   0.603   3.352   9.793
 2433SOL    HW1 7979   0.641   3.301   9.722
 2433SOL    HW2 7980   0.532   3.401   9.753
 2434SOL     OW 7981   1.717   2.257  10.688
 2434SOL    HW1 7982   1.791   2.317  10.692
 2434SOL    HW2 7983   1.747   2.184  10.634
 2435SOL     OW 7984   0.252   3.207   9.588
 2435SOL    HW1 7985   0.158   3.208   9.573
 2435SOL    HW2 7986   0.262   3.240   9.677
 2436SOL     OW 7987   0.111   2.879  11.006
 2436SOL    HW1 7988   0.049   2.880  11.079
 2436SOL    HW2 7989   0.196   2.862  11.046
 2437SOL     OW 7990   0.672   2.059  10.804
 2437SOL    HW1 7991   0.754   2.038  10.758
 2437SOL    HW2 7992   0.700   2.091  10.890
 2438SOL     OW 7993   0.072   2.189   9.343
 2438SOL    HW1 7994   4.477   2.197   9.341
 2438SOL    HW2 7995   0.105   2.270   9.305
 2439SOL     OW 7996   1.431   2.711  10.710
 2439SOL    HW1 7997   1.384   2.778  10.661
 2439SOL    HW2 7998   1.522   2.721  10.682
 2440SOL     OW 7999   0.084   2.040   9.617
 2440SOL    HW1 8000   0.078   2.111   9.553
 2440SOL    HW2 8001   0.160   1.989   9.589
 2441SOL     OW 8002   1.180   3.204   9.427
 2441SOL    HW1 8003   1.089   3.174   9.430
 2441SOL    HW2 8004   1.208   3.203   9.518
 2442SOL     OW 8005   0.621   2.692  10.738
 2442SOL    HW1 8006   0.676   2.770  10.725
 2442SOL    HW2 8007   0.684   2.620  10.747
 2443SOL     OW 8008   1.485   3.636  10.285
 2443SOL    HW1 8009   1.512   3.694  10.213
 2443SOL    HW2 8010   1.565   3.621  10.335
 2444SOL     OW 8011   0.716   2.424  11.016
 2444SOL    HW1 8012   0.745   2.497  11.070
 2444SOL    HW2 8013   0.771   2.350  11.044
 2445SOL     OW 8014   0.384   3.598  10.870
 2445SOL    HW1 8015   0.306   3.653  10.865
 2445SOL    HW2 8016   0.359   3.525  10.927
 2446SOL     OW 8017   1.674   2.745  10.566
 2446SOL    HW1 8018   1.662   2.660  10.525
 2446SOL    HW2 8019   1.664   2.808  10.495
 2447SOL     OW 8020   1.219   2.182   9.767
 2447SOL    HW1 8021   1.282   2.111   9.758
 2447SOL    HW2 8022   1.247   2.230   9.845
 2448SOL     OW 8023   0.591   2.602   9.977
 2448SOL    HW1 8024   0.630   2.688   9.960
 2448SOL    HW2 8025   0.521   2.594   9.913
 2449SOL     OW 8026   1.753   2.180  10.954
 2449SOL    HW1 8027   1.740   2.217  10.867
 2449SOL    HW2 8028   1.671   2.197  11.001
 2450SOL     OW 8029   1.747   2.799  10.825
 2450SOL    HW1 8030   1.742   2.894  10.838
 2450SOL    HW2 8031   1.731   2.786  10.732
 2451SOL     OW 8032   0.864   3.231   9.340
 2451SOL    HW1 8033   0.823   3.256   9.423
 2451SOL    HW2 8034   0.882   3.313   9.296
 2452SOL     OW 8035   0.659   3.656  10.259
 2452SOL    HW1 8036   0.637   3.745  10.233
 2452SOL    HW2 8037   0.755   3.652  10.249
 2453SOL     OW 8038   0.866   2.827  10.166
 2453SOL    HW1 8039   0.916   2.756  10.206
 2453SOL    HW2 8040   0.833   2.878  10.240
 2454SOL     OW 8041   1.080   2.850   9.399
 2454SOL    HW1 8042   1.058   2.900   9.320
 2454SOL    HW2 8043   1.155   2.797   9.373
 2455SOL     OW 8044   1.857   3.418  10.155
 2455SOL    HW1 8045   1.779   3.407  10.100
 2455SOL    HW2 8046   1.847   3.351  10.223
 2456SOL     OW 8047   0.102   3.101   9.977
 2456SOL    HW1 8048   0.106   3.050  10.057
 2456SOL    HW2 8049   0.162   3.057   9.917
 2457SOL     OW 8050   0.679   3.256  10.935
 2457SOL    HW1 8051   0.606   3.206  10.971
 2457SOL    HW2 8052   0.650   3.347  10.941
 2458SOL     OW 8053   1.814   2.051  10.547
 2458SOL    HW1 8054   1.831   1.958  10.565
 2458SOL    HW2 8055   1.827   2.060  10.453
 2459SOL     OW 8056   0.435   2.295   9.835
 2459SOL    HW1 8057   0.458   2.222   9.779
 2459SOL    HW2 8058   0.384   2.255   9.906
 2460SOL     OW 8059   1.702   3.353  10.409
 2460SOL    HW1 8060   1.621   3.327  10.367
 2460SOL    HW2 8061   1.718   3.286  10.476
 2461SOL     OW 8062   0.303   2.353  10.568
 2461SOL    HW1 8063   0.375   2.312  10.618
 2461SOL    HW2 8064   0.339   2.364  10.480
 2462SOL     OW 8065   0.825   3.440   9.989
 2462SOL    HW1 8066   0.819   3.485   9.906
 2462SOL    HW2 8067   0.747   3.385   9.993
 2463SOL     OW 8068   1.432   2.085  10.428
 2463SOL    HW1 8069   1.464   2.009  10.475
 2463SOL    HW2 8070   1.380   2.133  10.493
 2464SOL     OW 8071   1.008   1.883  10.456
 2464SOL    HW1 8072   0.953   1.814  10.417
 2464SOL    HW2 8073   1.096   1.845  10.458
 2465SOL     OW 8074   0.771   3.194   9.620
 2465SOL    HW1 8075   0.738   3.105   9.627
 2465SOL    HW2 8076   0.854   3.192   9.669
 2466SOL     OW 8077   0.620   3.419  10.595
 2466SOL    HW1 8078   0.621   3.502  10.644
 2466SOL    HW2 8079   0.707   3.414  10.555
 2467SOL     OW 8080   1.352   1.915   9.474
 2467SOL    HW1 8081   1.378   1.857   9.403
 2467SOL    HW2 8082   1.266   1.884   9.501
 2468SOL     OW 8083   1.297   2.322   9.993
 2468SOL    HW1 8084   1.243   2.400  10.001
 2468SOL    HW2 8085   1.295   2.282  10.080
 2469SOL     OW 8086   1.587   2.065  10.186
 2469SOL    HW1 8087   1.524   2.084  10.255
 2469SOL    HW2 8088   1.587   2.145  10.132
 2470SOL     OW 8089   0.041   2.916   9.597
 2470SOL    HW1 8090   0.136   2.904   9.590
 2470SOL    HW2 8091   0.019   2.875   9.680
 2471SOL     OW 8092   0.882   3.512   9.654
 2471SOL    HW1 8093   0.810   3.493   9.593
 2471SOL    HW2 8094   0.851   3.588   9.704
 2472SOL     OW 8095   0.209   4.283   0.084
 2472SOL    HW1 8096   0.159   4.316   0.159
 2472SOL    HW2 8097   0.227   4.361   0.031
 2473SOL     OW 8098   0.210   3.998   0.992
 2473SOL    HW1 8099   0.247   3.970   1.076
 2473SOL    HW2 8100   0.135   3.940   0.978
 2474SOL     OW 8101   0.000   4.099   0.629
 2474SOL    HW1 8102   4.422   4.127   0.677
 2474SOL    HW2 8103   4.477   4.014   0.592
 2475SOL     OW 8104   1.734   4.333   0.229
 2475SOL    HW1 8105   1.748   4.306   0.138
 2475SOL    HW2 8106   1.729   4.251   0.277
 2476SOL     OW 8107   0.729   0.266   0.681
 2476SOL    HW1 8108   0.724   0.205   0.754
 2476SOL    HW2 8109   0.638   0.287   0.661
 2477SOL     OW 8110   0.443   4.120   1.489
 2477SOL    HW1 8111   0.524   4.070   1.493
 2477SOL    HW2 8112   0.373   4.055   1.500
 2478SOL     OW 8113   1.615   4.173   0.739
 2478SOL    HW1 8114   1.544   4.199   0.681
 2478SOL    HW2 8115   1.624   4.245   0.801
 2479SOL     OW 8116   1.597   3.845   1.470
 2479SOL    HW1 8117   1.593   3.924   1.416
 2479SOL    HW2 8118   1.584   3.876   1.560
 2480SOL     OW 8119   0.167   4.320   0.631
 2480SOL    HW1 8120   0.104   4.250   0.612
 2480SOL    HW2 8121   0.120   4.401   0.610
 2481SOL     OW 8122   0.116   4.498   1.590
 2481SOL    HW1 8123   0.211   4.483   1.593
 2481SOL    HW2 8124   0.107   0.082   1.545
 2482SOL     OW 8125   0.813   3.724   0.505
 2482SOL    HW1 8126   0.852   3.810   0.491
 2482SOL    HW2 8127   0.720   3.741   0.516
 2483SOL     OW 8128   0.329   3.979   1.796
 2483SOL    HW1 8129   0.377   4.056   1.826
 2483SOL    HW2 8130   0.241   3.989   1.834
 2484SOL     OW 8131   1.278   4.070   0.932
 2484SOL    HW1 8132   1.189   4.036   0.941
 2484SOL    HW2 8133   1.330   4.019   0.995
 2485SOL     OW 8134   0.823   4.309   1.450
 2485SOL    HW1 8135   0.782   4.314   1.537
 2485SOL    HW2 8136   0.757   4.268   1.395
 2486SOL     OW 8137   1.396   4.199   1.676
 2486SOL    HW1 8138   1.396   4.242   1.762
 2486SOL    HW2 8139   1.456   4.125   1.687
 2487SOL     OW 8140   0.996   4.148   1.234
 2487SOL    HW1 8141   0.922   4.167   1.292
 2487SOL    HW2 8142   0.960   4.088   1.168
 2488SOL     OW 8143   1.059   4.403   0.424
 2488SOL    HW1 8144   1.058   4.450   0.507
 2488SOL    HW2 8145   0.967   4.384   0.406
 2489SOL     OW 8146   0.054   0.042   0.835
 2489SOL    HW1 8147   0.147   0.025   0.849
 2489SOL    HW2 8148   0.051   0.116   0.776
 2490SOL     OW 8149   0.883   4.072   0.208
 2490SOL    HW1 8150   0.931   4.129   0.147
 2490SOL    HW2 8151   0.898   3.984   0.175
 2491SOL     OW 8152   1.706   4.298   1.828
 2491SOL    HW1 8153   1.715   4.387   1.795
 2491SOL    HW2 8154   1.729   4.242   1.754
 2492SOL     OW 8155   0.552   3.907   0.892
 2492SOL    HW1 8156   0.553   3.936   0.984
 2492SOL    HW2 8157   0.548   3.988   0.842
 2493SOL     OW 8158   1.486   4.460   0.736
 2493SOL    HW1 8159   1.467   4.407   0.814
 2493SOL    HW2 8160   1.528   0.039   0.771
 2494SOL     OW 8161   0.190   4.000   1.487
 2494SOL    HW1 8162   0.134   4.078   1.494
 2494SOL    HW2 8163   0.185   3.959   1.573
 2495SOL     OW 8164   1.401   3.831   0.429
 2495SOL    HW1 8165   1.392   3.808   0.337
 2495SOL    HW2 8166   1.496   3.840   0.442
 2496SOL     OW 8167   0.351   4.376   0.407
 2496SOL    HW1 8168   0.398   4.305   0.450
 2496SOL    HW2 8169   0.298   4.415   0.476
 2497SOL     OW 8170   1.537   3.950   1.725
 2497SOL    HW1 8171   1.545   3.972   1.818
 2497SOL    HW2 8172   1.470   3.882   1.722
 2498SOL     OW 8173   0.615   3.834   0.122
 2498SOL    HW1 8174   0.705   3.801   0.122
 2498SOL    HW2 8175   0.582   3.815   0.034
 2499SOL     OW 8176   0.768   4.001   1.754
 2499SOL    HW1 8177   0.841   3.939   1.758
 2499SOL    HW2 8178   0.717   3.983   1.832
 2500SOL     OW 8179   1.345   4.311   1.429
 2500SOL    HW1 8180   1.368   4.274   1.514
 2500SOL    HW2 8181   1.382   4.399   1.430
 2501SOL     OW 8182   0.922   4.236   0.900
 2501SOL    HW1 8183   0.900   4.220   0.808
 2501SOL    HW2 8184   0.962   4.154   0.930
 2502SOL     OW 8185   0.551   3.786   0.506
 2502SOL    HW1 8186   0.469   3.784   0.555
 2502SOL    HW2 8187   0.544   3.864   0.451
 2503SOL     OW 8188   0.285   3.772   0.192
 2503SOL    HW1 8189   0.334   3.824   0.129
 2503SOL    HW2 8190   0.348   3.707   0.223
 2504SOL     OW 8191   0.937   3.970   0.465
 2504SOL    HW1 8192   0.908   4.012   0.384
 2504SOL    HW2 8193   1.032   3.982   0.467
 2505SOL     OW 8194   1.077   4.396   1.512
 2505SOL    HW1 8195   0.994   4.364   1.478
 2505SOL    HW2 8196   1.143   4.352   1.458
 2506SOL     OW 8197   1.009   4.265   0.039
 2506SOL    HW1 8198   1.015   4.330  11.069
 2506SOL    HW2 8199   1.090   4.276   0.089
 2507SOL     OW 8200   0.086   4.259   1.410
 2507SOL    HW1 8201   0.158   4.272   1.348
 2507SOL    HW2 8202   0.055   4.348   1.429
 2508SOL     OW 8203   0.562   3.951   1.164
 2508SOL    HW1 8204   0.600   3.869   1.197
 2508SOL    HW2 8205   0.470   3.947   1.192
 2509SOL     OW 8206   0.870   4.188   0.640
 2509SOL    HW1 8207   0.835   4.249   0.574
 2509SOL    HW2 8208   0.887   4.107   0.591
 2510SOL     OW 8209   1.014   3.777   0.753
 2510SOL    HW1 8210   0.955   3.768   0.678
 2510SOL    HW2 8211   0.994   3.701   0.808
 2511SOL     OW 8212   1.477   4.313   0.970
 2511SOL    HW1 8213   1.422   4.237   0.989
 2511SOL    HW2 8214   1.529   4.326   1.050
 2512SOL     OW 8215   1.399   4.295   0.072
 2512SOL    HW1 8216   1.335   4.277   0.141
 2512SOL    HW2 8217   1.470   4.232   0.089
 2513SOL     OW 8218   0.527   3.988   0.326
 2513SOL    HW1 8219   0.553   3.929   0.256
 2513SOL    HW2 8220   0.513   4.072   0.282
 2514SOL     OW 8221   0.917   3.823   1.398
 2514SOL    HW1 8222   0.941   3.802   1.308
 2514SOL    HW2 8223   0.997   3.861   1.435
 2515SOL     OW 8224   0.438   0.004   1.257
 2515SOL    HW1 8225   0.496   0.008   1.334
 2515SOL    HW2 8226   0.399   4.417   1.260
 2516SOL     OW 8227   1.267   4.101   1.273
 2516SOL    HW1 8228   1.300   4.178   1.318
 2516SOL    HW2 8229   1.178   4.125   1.246
 2517SOL     OW 8230   0.557   4.256   0.864
 2517SOL    HW1 8231   0.578   4.302   0.783
 2517SOL    HW2 8232   0.621   4.290   0.927
 2518SOL     OW 8233   1.582   4.343   0.479
 2518SOL    HW1 8234   1.536   4.407   0.534
 2518SOL    HW2 8235   1.624   4.395   0.411
 2519SOL     OW 8236   0.996   3.842   1.757
 2519SOL    HW1 8237   1.049   3.915   1.725
 2519SOL    HW2 8238   1.046   3.764   1.731
 2520SOL     OW 8239   0.498   3.768   1.746
 2520SOL    HW1 8240   0.458   3.711   1.680
 2520SOL    HW2 8241   0.437   3.841   1.756
 2521SOL     OW 8242   1.213   4.252   0.267
 2521SOL    HW1 8243   1.222   4.173   0.320
 2521SOL    HW2 8244   1.163   4.312   0.323
 2522SOL     OW 8245   0.301   3.924   1.244
 2522SOL    HW1 8246   0.262   3.953   1.327
 2522SOL    HW2 8247   0.286   3.830   1.242
 2523SOL     OW 8248   0.732   4.360   1.049
 2523SOL    HW1 8249   0.804   4.324   0.998
 2523SOL    HW2 8250   0.735   4.454   1.034
 2524SOL     OW 8251   1.749   0.135   1.856
 2524SOL    HW1 8252   1.688   0.149   1.784
 2524SOL    HW2 8253   1.702   0.167   1.934
 2525SOL     OW 8254   0.309   3.794   0.620
 2525SOL    HW1 8255   0.286   3.883   0.648
 2525SOL    HW2 8256   0.302   3.741   0.699
 2526SOL     OW 8257   1.612   4.092   0.369
 2526SOL    HW1 8258   1.641   4.029   0.436
 2526SOL    HW2 8259   1.591   4.171   0.418
 2527SOL     OW 8260   1.537   4.009   0.118
 2527SOL    HW1 8261   1.476   3.937   0.135
 2527SOL    HW2 8262   1.567   4.035   0.204
 2528SOL     OW 8263   0.317   0.019   0.923
 2528SOL    HW1 8264   0.400   0.065   0.929
 2528SOL    HW2 8265   0.329   4.440   0.976
 2529SOL     OW 8266   0.336   4.237   1.011
 2529SOL    HW1 8267   0.292   4.156   0.987
 2529SOL    HW2 8268   0.410   4.243   0.950
 2530SOL     OW 8269   1.138   4.096   1.683
 2530SOL    HW1 8270   1.087   4.155   1.739
 2530SOL    HW2 8271   1.223   4.139   1.674
 2531SOL     OW 8272   1.160   3.928   1.469
 2531SOL    HW1 8273   1.151   3.989   1.542
 2531SOL    HW2 8274   1.198   3.980   1.398
 2532SOL     OW 8275   0.029   4.281   1.109
 2532SOL    HW1 8276   0.112   4.253   1.070
 2532SOL    HW2 8277   0.031   4.245   1.198
 2533SOL     OW 8278   0.177   4.235   1.697
 2533SOL    HW1 8279   0.262   4.216   1.657
 2533SOL    HW2 8280   0.148   4.315   1.653
 2534SOL     OW 8281   0.815   4.307   0.327
 2534SOL    HW1 8282   0.823   4.221   0.287
 2534SOL    HW2 8283   0.721   4.318   0.341
 2535SOL     OW 8284   1.638   4.319   1.190
 2535SOL    HW1 8285   1.632   4.260   1.265
 2535SOL    HW2 8286   1.726   4.304   1.154
 2536SOL     OW 8287   0.676   4.186   1.261
 2536SOL    HW1 8288   0.639   4.104   1.227
 2536SOL    HW2 8289   0.685   4.242   1.184
 2537SOL     OW 8290   0.477   4.218   0.185
 2537SOL    HW1 8291   0.521   4.303   0.197
 2537SOL    HW2 8292   0.384   4.239   0.188
 2538SOL     OW 8293   0.917   3.814   0.111
 2538SOL    HW1 8294   0.968   3.780   0.038
 2538SOL    HW2 8295   0.952   3.771   0.188
 2539SOL     OW 8296   1.719   3.867   0.513
 2539SOL    HW1 8297   1.792   3.853   0.452
 2539SOL    HW2 8298   1.704   3.780   0.552
 2540SOL     OW 8299   1.279   0.139   0.682
 2540SOL    HW1 8300   1.336   0.062   0.685
 2540SOL    HW2 8301   1.327   0.201   0.627
 2541SOL     OW 8302   1.839   3.897   0.968
 2541SOL    HW1 8303   1.868   3.811   0.938
 2541SOL    HW2 8304   1.753   3.909   0.927
 2542SOL     OW 8305   0.268   4.042   0.721
 2542SOL    HW1 8306   0.192   4.092   0.691
 2542SOL    HW2 8307   0.254   4.031   0.815
 2543SOL     OW 8308   1.063   0.306   0.723
 2543SOL    HW1 8309   0.977   0.269   0.700
 2543SOL    HW2 8310   1.126   0.238   0.696
 2544SOL     OW 8311   1.019   3.964   0.965
 2544SOL    HW1 8312   1.014   3.915   0.883
 2544SOL    HW2 8313   1.014   3.896   1.033
 2545SOL     OW 8314   1.719   4.114   1.380
 2545SOL    HW1 8315   1.790   4.178   1.377
 2545SOL    HW2 8316   1.749   4.043   1.324
 2546SOL     OW 8317   0.672   3.922   1.498
 2546SOL    HW1 8318   0.756   3.902   1.456
 2546SOL    HW2 8319   0.696   3.949   1.587
 2547SOL     OW 8320   0.060   4.060   0.003
 2547SOL    HW1 8321   4.468   4.069   0.029
 2547SOL    HW2 8322   0.098   4.146   0.021
 2548SOL     OW 8323   0.081   3.899   0.309
 2548SOL    HW1 8324   0.079   3.973   0.249
 2548SOL    HW2 8325   0.155   3.846   0.280
 2549SOL     OW 8326   0.724   4.286   1.703
 2549SOL    HW1 8327   0.731   4.336   1.784
 2549SOL    HW2 8328   0.754   4.198   1.725
 2550SOL     OW 8329   1.218   4.041   0.456
 2550SOL    HW1 8330   1.283   3.971   0.446
 2550SOL    HW2 8331   1.247   4.089   0.533
 2551SOL     OW 8332   1.763   4.088   1.647
 2551SOL    HW1 8333   1.745   4.098   1.554
 2551SOL    HW2 8334   1.694   4.030   1.679
 2552SOL     OW 8335   1.099   0.203   0.051
 2552SOL    HW1 8336   1.097   0.287   0.006
 2552SOL    HW2 8337   1.191   0.177   0.049
 2553SOL     OW 8338   1.815   3.909   1.238
 2553SOL    HW1 8339   1.824   3.815   1.254
 2553SOL    HW2 8340   1.823   3.918   1.143
 2554SOL     OW 8341   0.449   4.152   0.536
 2554SOL    HW1 8342   0.465   4.079   0.477
 2554SOL    HW2 8343   0.390   4.117   0.603
 2555SOL     OW 8344   0.322   4.259   1.276
 2555SOL    HW1 8345   0.374   4.192   1.321
 2555SOL    HW2 8346   0.336   4.241   1.183
 2556SOL     OW 8347   1.432   3.947   1.118
 2556SOL    HW1 8348   1.460   3.869   1.165
 2556SOL    HW2 8349   1.380   3.996   1.181
 2557SOL     OW 8350   1.008   3.745   1.146
 2557SOL    HW1 8351   0.953   3.676   1.108
 2557SOL    HW2 8352   1.096   3.707   1.147
 2558SOL     OW 8353   1.351   3.777   0.164
 2558SOL    HW1 8354   1.374   3.728   0.085
 2558SOL    HW2 8355   1.265   3.744   0.189
 2559SOL     OW 8356   1.300   4.176   0.682
 2559SOL    HW1 8357   1.257   4.260   0.695
 2559SOL    HW2 8358   1.300   4.135   0.769
 2560SOL     OW 8359   1.588   3.930   0.877
 2560SOL    HW1 8360   1.523   3.948   0.946
 2560SOL    HW2 8361   1.588   4.008   0.822
 2561SOL     OW 8362   0.233   4.287   1.973
 2561SOL    HW1 8363   0.166   4.323   2.030
 2561SOL    HW2 8364   0.214   4.325   1.887
 2562SOL     OW 8365   0.210   3.997   2.853
 2562SOL    HW1 8366   0.247   3.970   2.938
 2562SOL    HW2 8367   0.134   3.941   2.840
 2563SOL     OW 8368   0.001   4.097   2.494
 2563SOL    HW1 8369   4.423   4.129   2.538
 2563SOL    HW2 8370   4.474   4.016   2.451
 2564SOL     OW 8371   1.734   4.335   2.099
 2564SOL    HW1 8372   1.734   4.321   2.004
 2564SOL    HW2 8373   1.733   4.247   2.136
 2565SOL     OW 8374   0.724   0.265   2.542
 2565SOL    HW1 8375   0.722   0.209   2.619
 2565SOL    HW2 8376   0.633   0.287   2.526
 2566SOL     OW 8377   0.442   4.120   3.351
 2566SOL    HW1 8378   0.524   4.069   3.355
 2566SOL    HW2 8379   0.373   4.055   3.362
 2567SOL     OW 8380   1.615   4.174   2.600
 2567SOL    HW1 8381   1.543   4.200   2.544
 2567SOL    HW2 8382   1.623   4.245   2.664
 2568SOL     OW 8383   1.597   3.845   3.332
 2568SOL    HW1 8384   1.593   3.924   3.278
 2568SOL    HW2 8385   1.584   3.876   3.422
 2569SOL     OW 8386   0.166   4.323   2.494
 2569SOL    HW1 8387   0.106   4.252   2.470
 2569SOL    HW2 8388   0.120   4.403   2.470
 2570SOL     OW 8389   0.116   4.498   3.452
 2570SOL    HW1 8390   0.211   4.483   3.455
 2570SOL    HW2 8391   0.107   0.082   3.407
 2571SOL     OW 8392   0.813   3.723   2.367
 2571SOL    HW1 8393   0.853   3.809   2.353
 2571SOL    HW2 8394   0.720   3.741   2.379
 2572SOL     OW 8395   0.329   3.979   3.658
 2572SOL    HW1 8396   0.377   4.056   3.688
 2572SOL    HW2 8397   0.241   3.989   3.696
 2573SOL     OW 8398   1.278   4.070   2.794
 2573SOL    HW1 8399   1.189   4.036   2.803
 2573SOL    HW2 8400   1.330   4.019   2.857
 2574SOL     OW 8401   0.823   4.309   3.312
 2574SOL    HW1 8402   0.782   4.314   3.399
 2574SOL    HW2 8403   0.757   4.268   3.257
 2575SOL     OW 8404   1.396   4.199   3.538
 2575SOL    HW1 8405   1.395   4.242   3.624
 2575SOL    HW2 8406   1.456   4.126   3.549
 2576SOL     OW 8407   0.996   4.147   3.096
 2576SOL    HW1 8408   0.922   4.167   3.154
 2576SOL    HW2 8409   0.959   4.088   3.030
 2577SOL     OW 8410   1.057   4.410   2.282
 2577SOL    HW1 8411   1.057   4.444   2.372
 2577SOL    HW2 8412   0.968   4.375   2.270
 2578SOL     OW 8413   0.054   0.048   2.704
 2578SOL    HW1 8414   0.146   0.025   2.711
 2578SOL    HW2 8415   0.049   0.111   2.633
 2579SOL     OW 8416   0.886   4.063   2.054
 2579SOL    HW1 8417   0.930   4.125   1.996
 2579SOL    HW2 8418   0.905   3.977   2.016
 2580SOL     OW 8419   1.705   4.298   3.690
 2580SOL    HW1 8420   1.715   4.388   3.658
 2580SOL    HW2 8421   1.729   4.243   3.616
 2581SOL     OW 8422   0.552   3.907   2.754
 2581SOL    HW1 8423   0.553   3.936   2.845
 2581SOL    HW2 8424   0.548   3.989   2.704
 2582SOL     OW 8425   1.488   4.462   2.598
 2582SOL    HW1 8426   1.467   4.408   2.674
 2582SOL    HW2 8427   1.529   0.040   2.634
 2583SOL     OW 8428   0.190   4.000   3.349
 2583SOL    HW1 8429   0.135   4.078   3.356
 2583SOL    HW2 8430   0.185   3.960   3.436
 2584SOL     OW 8431   1.401   3.831   2.292
 2584SOL    HW1 8432   1.390   3.806   2.200
 2584SOL    HW2 8433   1.495   3.840   2.303
 2585SOL     OW 8434   0.352   4.378   2.270
 2585SOL    HW1 8435   0.399   4.306   2.313
 2585SOL    HW2 8436   0.297   4.415   2.339
 2586SOL     OW 8437   1.538   3.950   3.587
 2586SOL    HW1 8438   1.545   3.972   3.680
 2586SOL    HW2 8439   1.470   3.883   3.584
 2587SOL     OW 8440   0.631   3.851   1.966
 2587SOL    HW1 8441   0.703   3.790   1.981
 2587SOL    HW2 8442   0.585   3.816   1.890
 2588SOL     OW 8443   0.768   4.001   3.615
 2588SOL    HW1 8444   0.841   3.939   3.620
 2588SOL    HW2 8445   0.717   3.983   3.694
 2589SOL     OW 8446   1.346   4.311   3.290
 2589SOL    HW1 8447   1.368   4.274   3.376
 2589SOL    HW2 8448   1.382   4.399   3.292
 2590SOL     OW 8449   0.922   4.236   2.761
 2590SOL    HW1 8450   0.900   4.220   2.670
 2590SOL    HW2 8451   0.961   4.154   2.792
 2591SOL     OW 8452   0.550   3.786   2.366
 2591SOL    HW1 8453   0.469   3.785   2.418
 2591SOL    HW2 8454   0.543   3.865   2.312
 2592SOL     OW 8455   0.294   3.770   2.040
 2592SOL    HW1 8456   0.355   3.838   2.012
 2592SOL    HW2 8457   0.349   3.705   2.084
 2593SOL     OW 8458   0.935   3.970   2.327
 2593SOL    HW1 8459   0.907   4.009   2.244
 2593SOL    HW2 8460   1.031   3.980   2.327
 2594SOL     OW 8461   1.077   4.395   3.374
 2594SOL    HW1 8462   0.994   4.365   3.340
 2594SOL    HW2 8463   1.143   4.352   3.319
 2595SOL     OW 8464   1.026   4.269   1.885
 2595SOL    HW1 8465   1.006   4.357   1.853
 2595SOL    HW2 8466   1.088   4.283   1.956
 2596SOL     OW 8467   0.086   4.259   3.272
 2596SOL    HW1 8468   0.158   4.272   3.211
 2596SOL    HW2 8469   0.054   4.348   3.291
 2597SOL     OW 8470   0.562   3.950   3.026
 2597SOL    HW1 8471   0.600   3.869   3.059
 2597SOL    HW2 8472   0.470   3.947   3.054
 2598SOL     OW 8473   0.872   4.189   2.500
 2598SOL    HW1 8474   0.832   4.246   2.435
 2598SOL    HW2 8475   0.888   4.107   2.453
 2599SOL     OW 8476   1.014   3.777   2.615
 2599SOL    HW1 8477   0.955   3.768   2.540
 2599SOL    HW2 8478   0.994   3.701   2.670
 2600SOL     OW 8479   1.477   4.312   2.831
 2600SOL    HW1 8480   1.422   4.237   2.851
 2600SOL    HW2 8481   1.529   4.326   2.911
 2601SOL     OW 8482   1.400   4.296   1.934
 2601SOL    HW1 8483   1.339   4.270   2.003
 2601SOL    HW2 8484   1.483   4.255   1.960
 2602SOL     OW 8485   0.523   3.984   2.180
 2602SOL    HW1 8486   0.565   3.936   2.110
 2602SOL    HW2 8487   0.511   4.073   2.145
 2603SOL     OW 8488   0.917   3.823   3.260
 2603SOL    HW1 8489   0.941   3.802   3.170
 2603SOL    HW2 8490   0.997   3.861   3.297
 2604SOL     OW 8491   0.439   0.004   3.119
 2604SOL    HW1 8492   0.495   0.008   3.196
 2604SOL    HW2 8493   0.399   4.417   3.122
 2605SOL     OW 8494   1.267   4.101   3.134
 2605SOL    HW1 8495   1.300   4.178   3.180
 2605SOL    HW2 8496   1.178   4.125   3.108
 2606SOL     OW 8497   0.558   4.255   2.726
 2606SOL    HW1 8498   0.576   4.302   2.645
 2606SOL    HW2 8499   0.621   4.290   2.789
 2607SOL     OW 8500   1.573   4.342   2.337
 2607SOL    HW1 8501   1.540   4.408   2.399
 2607SOL    HW2 8502   1.630   4.390   2.278
 2608SOL     OW 8503   0.996   3.842   3.619
 2608SOL    HW1 8504   1.049   3.916   3.587
 2608SOL    HW2 8505   1.046   3.764   3.592
 2609SOL     OW 8506   0.498   3.768   3.608
 2609SOL    HW1 8507   0.458   3.711   3.542
 2609SOL    HW2 8508   0.437   3.841   3.618
 2610SOL     OW 8509   1.212   4.255   2.129
 2610SOL    HW1 8510   1.221   4.176   2.181
 2610SOL    HW2 8511   1.162   4.315   2.185
 2611SOL     OW 8512   0.301   3.924   3.106
 2611SOL    HW1 8513   0.262   3.953   3.189
 2611SOL    HW2 8514   0.286   3.830   3.104
 2612SOL     OW 8515   0.732   4.360   2.911
 2612SOL    HW1 8516   0.804   4.325   2.860
 2612SOL    HW2 8517   0.735   4.454   2.896
 2613SOL     OW 8518   1.749   0.134   3.719
 2613SOL    HW1 8519   1.688   0.149   3.646
 2613SOL    HW2 8520   1.702   0.167   3.796
 2614SOL     OW 8521   0.308   3.794   2.481
 2614SOL    HW1 8522   0.285   3.882   2.509
 2614SOL    HW2 8523   0.303   3.741   2.561
 2615SOL     OW 8524   1.612   4.091   2.232
 2615SOL    HW1 8525   1.641   4.030   2.300
 2615SOL    HW2 8526   1.590   4.171   2.279
 2616SOL     OW 8527   1.529   3.999   1.989
 2616SOL    HW1 8528   1.467   3.932   2.015
 2616SOL    HW2 8529   1.563   4.034   2.071
 2617SOL     OW 8530   0.318   0.018   2.785
 2617SOL    HW1 8531   0.401   0.065   2.791
 2617SOL    HW2 8532   0.331   4.440   2.839
 2618SOL     OW 8533   0.337   4.237   2.873
 2618SOL    HW1 8534   0.292   4.156   2.849
 2618SOL    HW2 8535   0.410   4.243   2.812
 2619SOL     OW 8536   1.138   4.096   3.545
 2619SOL    HW1 8537   1.087   4.155   3.601
 2619SOL    HW2 8538   1.223   4.139   3.536
 2620SOL     OW 8539   1.160   3.928   3.331
 2620SOL    HW1 8540   1.151   3.989   3.404
 2620SOL    HW2 8541   1.198   3.980   3.260
 2621SOL     OW 8542   0.028   4.280   2.971
 2621SOL    HW1 8543   0.112   4.254   2.932
 2621SOL    HW2 8544   0.032   4.245   3.060
 2622SOL     OW 8545   0.177   4.235   3.558
 2622SOL    HW1 8546   0.263   4.217   3.519
 2622SOL    HW2 8547   0.148   4.315   3.515
 2623SOL     OW 8548   0.819   4.288   2.202
 2623SOL    HW1 8549   0.817   4.209   2.147
 2623SOL    HW2 8550   0.730   4.321   2.200
 2624SOL     OW 8551   1.638   4.319   3.051
 2624SOL    HW1 8552   1.632   4.260   3.127
 2624SOL    HW2 8553   1.726   4.304   3.016
 2625SOL     OW 8554   0.676   4.185   3.123
 2625SOL    HW1 8555   0.639   4.104   3.088
 2625SOL    HW2 8556   0.685   4.242   3.046
 2626SOL     OW 8557   0.486   4.222   2.052
 2626SOL    HW1 8558   0.520   4.309   2.074
 2626SOL    HW2 8559   0.392   4.235   2.039
 2627SOL     OW 8560   1.719   3.866   2.375
 2627SOL    HW1 8561   1.792   3.852   2.315
 2627SOL    HW2 8562   1.703   3.780   2.414
 2628SOL     OW 8563   1.280   0.138   2.541
 2628SOL    HW1 8564   1.338   0.062   2.546
 2628SOL    HW2 8565   1.330   0.203   2.491
 2629SOL     OW 8566   1.839   3.897   2.830
 2629SOL    HW1 8567   1.868   3.811   2.800
 2629SOL    HW2 8568   1.753   3.909   2.790
 2630SOL     OW 8569   0.268   4.042   2.583
 2630SOL    HW1 8570   0.191   4.090   2.553
 2630SOL    HW2 8571   0.255   4.031   2.677
 2631SOL     OW 8572   0.910   0.094   2.088
 2631SOL    HW1 8573   0.992   0.135   2.060
 2631SOL    HW2 8574   0.933   0.050   2.170
 2632SOL     OW 8575   1.067   0.305   2.599
 2632SOL    HW1 8576   0.983   0.286   2.557
 2632SOL    HW2 8577   1.127   0.240   2.563
 2633SOL     OW 8578   1.019   3.964   2.827
 2633SOL    HW1 8579   1.014   3.915   2.745
 2633SOL    HW2 8580   1.014   3.896   2.895
 2634SOL     OW 8581   1.719   4.114   3.242
 2634SOL    HW1 8582   1.790   4.178   3.239
 2634SOL    HW2 8583   1.749   4.043   3.186
 2635SOL     OW 8584   0.672   3.922   3.361
 2635SOL    HW1 8585   0.756   3.902   3.318
 2635SOL    HW2 8586   0.696   3.949   3.449
 2636SOL     OW 8587   0.068   4.046   1.894
 2636SOL    HW1 8588   4.474   4.062   1.886
 2636SOL    HW2 8589   0.108   4.131   1.877
 2637SOL     OW 8590   0.085   3.903   2.169
 2637SOL    HW1 8591   0.076   3.971   2.103
 2637SOL    HW2 8592   0.160   3.851   2.140
 2638SOL     OW 8593   0.723   4.286   3.565
 2638SOL    HW1 8594   0.731   4.336   3.646
 2638SOL    HW2 8595   0.754   4.198   3.587
 2639SOL     OW 8596   1.220   4.043   2.317
 2639SOL    HW1 8597   1.282   3.972   2.308
 2639SOL    HW2 8598   1.248   4.090   2.395
 2640SOL     OW 8599   1.763   4.087   3.509
 2640SOL    HW1 8600   1.745   4.097   3.416
 2640SOL    HW2 8601   1.694   4.030   3.541
 2641SOL     OW 8602   1.109   0.230   1.967
 2641SOL    HW1 8603   1.088   0.269   1.882
 2641SOL    HW2 8604   1.188   0.178   1.950
 2642SOL     OW 8605   1.815   3.909   3.100
 2642SOL    HW1 8606   1.824   3.815   3.116
 2642SOL    HW2 8607   1.823   3.918   3.005
 2643SOL     OW 8608   0.451   4.151   2.399
 2643SOL    HW1 8609   0.461   4.079   2.337
 2643SOL    HW2 8610   0.391   4.118   2.465
 2644SOL     OW 8611   0.322   4.258   3.138
 2644SOL    HW1 8612   0.374   4.192   3.183
 2644SOL    HW2 8613   0.336   4.241   3.045
 2645SOL     OW 8614   1.432   3.947   2.980
 2645SOL    HW1 8615   1.460   3.869   3.028
 2645SOL    HW2 8616   1.380   3.996   3.043
 2646SOL     OW 8617   1.008   3.745   3.008
 2646SOL    HW1 8618   0.953   3.676   2.970
 2646SOL    HW2 8619   1.096   3.707   3.009
 2647SOL     OW 8620   1.352   3.777   2.025
 2647SOL    HW1 8621   1.378   3.718   1.955
 2647SOL    HW2 8622   1.266   3.746   2.053
 2648SOL     OW 8623   1.300   4.176   2.545
 2648SOL    HW1 8624   1.256   4.261   2.559
 2648SOL    HW2 8625   1.300   4.135   2.631
 2649SOL     OW 8626   1.587   3.930   2.739
 2649SOL    HW1 8627   1.524   3.948   2.808
 2649SOL    HW2 8628   1.588   4.008   2.684
 2650SOL     OW 8629   0.233   4.287   3.835
 2650SOL    HW1 8630   0.166   4.322   3.892
 2650SOL    HW2 8631   0.214   4.325   3.749
 2651SOL     OW 8632   0.211   3.997   4.715
 2651SOL    HW1 8633   0.247   3.970   4.800
 2651SOL    HW2 8634   0.134   3.941   4.703
 2652SOL     OW 8635   0.001   4.097   4.356
 2652SOL    HW1 8636   4.423   4.129   4.400
 2652SOL    HW2 8637   4.473   4.016   4.313
 2653SOL     OW 8638   1.734   4.335   3.961
 2653SOL    HW1 8639   1.734   4.321   3.866
 2653SOL    HW2 8640   1.733   4.247   3.998
 2654SOL     OW 8641   0.725   0.265   4.404
 2654SOL    HW1 8642   0.722   0.208   4.481
 2654SOL    HW2 8643   0.633   0.287   4.387
 2655SOL     OW 8644   0.442   4.120   5.213
 2655SOL    HW1 8645   0.524   4.069   5.217
 2655SOL    HW2 8646   0.373   4.055   5.224
 2656SOL     OW 8647   1.615   4.173   4.462
 2656SOL    HW1 8648   1.543   4.200   4.406
 2656SOL    HW2 8649   1.623   4.245   4.526
 2657SOL     OW 8650   1.597   3.845   5.194
 2657SOL    HW1 8651   1.593   3.925   5.141
 2657SOL    HW2 8652   1.585   3.876   5.284
 2658SOL     OW 8653   0.166   4.323   4.356
 2658SOL    HW1 8654   0.106   4.252   4.331
 2658SOL    HW2 8655   0.120   4.403   4.332
 2659SOL     OW 8656   0.116   4.498   5.314
 2659SOL    HW1 8657   0.211   4.483   5.317
 2659SOL    HW2 8658   0.107   0.082   5.269
 2660SOL     OW 8659   0.813   3.723   4.229
 2660SOL    HW1 8660   0.853   3.809   4.215
 2660SOL    HW2 8661   0.720   3.741   4.241
 2661SOL     OW 8662   0.329   3.979   5.520
 2661SOL    HW1 8663   0.377   4.056   5.550
 2661SOL    HW2 8664   0.241   3.989   5.557
 2662SOL     OW 8665   1.278   4.069   4.656
 2662SOL    HW1 8666   1.189   4.036   4.665
 2662SOL    HW2 8667   1.330   4.019   4.719
 2663SOL     OW 8668   0.823   4.309   5.174
 2663SOL    HW1 8669   0.782   4.314   5.261
 2663SOL    HW2 8670   0.757   4.268   5.119
 2664SOL     OW 8671   1.396   4.199   5.401
 2664SOL    HW1 8672   1.395   4.242   5.486
 2664SOL    HW2 8673   1.456   4.125   5.411
 2665SOL     OW 8674   0.996   4.147   4.958
 2665SOL    HW1 8675   0.923   4.167   5.016
 2665SOL    HW2 8676   0.959   4.088   4.892
 2666SOL     OW 8677   1.057   4.409   4.144
 2666SOL    HW1 8678   1.057   4.444   4.234
 2666SOL    HW2 8679   0.968   4.375   4.132
 2667SOL     OW 8680   0.054   0.048   4.567
 2667SOL    HW1 8681   0.146   0.025   4.573
 2667SOL    HW2 8682   0.049   0.111   4.495
 2668SOL     OW 8683   0.886   4.063   3.916
 2668SOL    HW1 8684   0.930   4.125   3.858
 2668SOL    HW2 8685   0.905   3.977   3.877
 2669SOL     OW 8686   1.705   4.298   5.552
 2669SOL    HW1 8687   1.716   4.387   5.519
 2669SOL    HW2 8688   1.729   4.243   5.478
 2670SOL     OW 8689   0.552   3.907   4.616
 2670SOL    HW1 8690   0.553   3.936   4.707
 2670SOL    HW2 8691   0.548   3.989   4.566
 2671SOL     OW 8692   1.488   4.461   4.460
 2671SOL    HW1 8693   1.467   4.408   4.536
 2671SOL    HW2 8694   1.529   0.040   4.496
 2672SOL     OW 8695   0.190   4.000   5.211
 2672SOL    HW1 8696   0.135   4.078   5.218
 2672SOL    HW2 8697   0.185   3.960   5.298
 2673SOL     OW 8698   1.401   3.831   4.154
 2673SOL    HW1 8699   1.389   3.806   4.062
 2673SOL    HW2 8700   1.495   3.841   4.164
 2674SOL     OW 8701   0.352   4.378   4.132
 2674SOL    HW1 8702   0.399   4.306   4.176
 2674SOL    HW2 8703   0.297   4.415   4.201
 2675SOL     OW 8704   1.538   3.950   5.449
 2675SOL    HW1 8705   1.546   3.972   5.542
 2675SOL    HW2 8706   1.470   3.883   5.446
 2676SOL     OW 8707   0.631   3.851   3.828
 2676SOL    HW1 8708   0.703   3.790   3.843
 2676SOL    HW2 8709   0.585   3.816   3.752
 2677SOL     OW 8710   0.768   4.001   5.477
 2677SOL    HW1 8711   0.841   3.939   5.482
 2677SOL    HW2 8712   0.717   3.983   5.556
 2678SOL     OW 8713   1.346   4.311   5.152
 2678SOL    HW1 8714   1.368   4.274   5.238
 2678SOL    HW2 8715   1.382   4.399   5.154
 2679SOL     OW 8716   0.922   4.236   4.623
 2679SOL    HW1 8717   0.900   4.220   4.532
 2679SOL    HW2 8718   0.961   4.154   4.653
 2680SOL     OW 8719   0.550   3.786   4.228
 2680SOL    HW1 8720   0.469   3.785   4.280
 2680SOL    HW2 8721   0.543   3.865   4.174
 2681SOL     OW 8722   0.294   3.770   3.902
 2681SOL    HW1 8723   0.355   3.838   3.874
 2681SOL    HW2 8724   0.349   3.705   3.946
 2682SOL     OW 8725   0.935   3.970   4.189
 2682SOL    HW1 8726   0.907   4.009   4.106
 2682SOL    HW2 8727   1.031   3.981   4.189
 2683SOL     OW 8728   1.077   4.396   5.236
 2683SOL    HW1 8729   0.994   4.365   5.202
 2683SOL    HW2 8730   1.143   4.352   5.181
 2684SOL     OW 8731   1.025   4.269   3.747
 2684SOL    HW1 8732   1.006   4.357   3.714
 2684SOL    HW2 8733   1.088   4.283   3.818
 2685SOL     OW 8734   0.086   4.259   5.134
 2685SOL    HW1 8735   0.158   4.272   5.073
 2685SOL    HW2 8736   0.054   4.348   5.153
 2686SOL     OW 8737   0.562   3.950   4.888
 2686SOL    HW1 8738   0.600   3.869   4.921
 2686SOL    HW2 8739   0.470   3.947   4.916
 2687SOL     OW 8740   0.872   4.189   4.362
 2687SOL    HW1 8741   0.832   4.247   4.297
 2687SOL    HW2 8742   0.888   4.107   4.315
 2688SOL     OW 8743   1.014   3.777   4.477
 2688SOL    HW1 8744   0.955   3.768   4.402
 2688SOL    HW2 8745   0.994   3.701   4.532
 2689SOL     OW 8746   1.477   4.312   4.693
 2689SOL    HW1 8747   1.422   4.237   4.714
 2689SOL    HW2 8748   1.529   4.326   4.773
 2690SOL     OW 8749   1.400   4.296   3.796
 2690SOL    HW1 8750   1.339   4.270   3.865
 2690SOL    HW2 8751   1.484   4.256   3.822
 2691SOL     OW 8752   0.523   3.984   4.042
 2691SOL    HW1 8753   0.565   3.936   3.972
 2691SOL    HW2 8754   0.511   4.073   4.007
 2692SOL     OW 8755   0.917   3.823   5.122
 2692SOL    HW1 8756   0.941   3.802   5.032
 2692SOL    HW2 8757   0.997   3.861   5.160
 2693SOL     OW 8758   0.439   0.004   4.981
 2693SOL    HW1 8759   0.495   0.008   5.058
 2693SOL    HW2 8760   0.399   4.417   4.984
 2694SOL     OW 8761   1.267   4.101   4.996
 2694SOL    HW1 8762   1.300   4.178   5.042
 2694SOL    HW2 8763   1.178   4.125   4.970
 2695SOL     OW 8764   0.558   4.255   4.588
 2695SOL    HW1 8765   0.576   4.302   4.507
 2695SOL    HW2 8766   0.621   4.290   4.651
 2696SOL     OW 8767   1.573   4.342   4.200
 2696SOL    HW1 8768   1.540   4.408   4.261
 2696SOL    HW2 8769   1.630   4.390   4.140
 2697SOL     OW 8770   0.996   3.842   5.480
 2697SOL    HW1 8771   1.049   3.916   5.449
 2697SOL    HW2 8772   1.046   3.764   5.455
 2698SOL     OW 8773   0.498   3.768   5.470
 2698SOL    HW1 8774   0.458   3.711   5.404
 2698SOL    HW2 8775   0.437   3.841   5.480
 2699SOL     OW 8776   1.212   4.255   3.991
 2699SOL    HW1 8777   1.221   4.175   4.043
 2699SOL    HW2 8778   1.162   4.315   4.047
 2700SOL     OW 8779   0.301   3.924   4.968
 2700SOL    HW1 8780   0.262   3.953   5.051
 2700SOL    HW2 8781   0.286   3.830   4.966
 2701SOL     OW 8782   0.732   4.360   4.773
 2701SOL    HW1 8783   0.804   4.325   4.722
 2701SOL    HW2 8784   0.735   4.454   4.758
 2702SOL     OW 8785   1.749   0.135   5.580
 2702SOL    HW1 8786   1.688   0.149   5.508
 2702SOL    HW2 8787   1.703   0.167   5.658
 2703SOL     OW 8788   0.308   3.794   4.343
 2703SOL    HW1 8789   0.285   3.882   4.371
 2703SOL    HW2 8790   0.303   3.741   4.423
 2704SOL     OW 8791   1.611   4.091   4.094
 2704SOL    HW1 8792   1.640   4.030   4.163
 2704SOL    HW2 8793   1.590   4.171   4.141
 2705SOL     OW 8794   1.529   3.999   3.851
 2705SOL    HW1 8795   1.466   3.931   3.877
 2705SOL    HW2 8796   1.563   4.034   3.933
 2706SOL     OW 8797   0.318   0.018   4.647
 2706SOL    HW1 8798   0.401   0.065   4.653
 2706SOL    HW2 8799   0.331   4.440   4.701
 2707SOL     OW 8800   0.337   4.237   4.735
 2707SOL    HW1 8801   0.292   4.156   4.711
 2707SOL    HW2 8802   0.410   4.243   4.674
 2708SOL     OW 8803   1.138   4.096   5.407
 2708SOL    HW1 8804   1.087   4.155   5.463
 2708SOL    HW2 8805   1.223   4.139   5.398
 2709SOL     OW 8806   1.160   3.928   5.193
 2709SOL    HW1 8807   1.151   3.989   5.266
 2709SOL    HW2 8808   1.198   3.981   5.122
 2710SOL     OW 8809   0.028   4.280   4.833
 2710SOL    HW1 8810   0.112   4.254   4.794
 2710SOL    HW2 8811   0.032   4.245   4.922
 2711SOL     OW 8812   0.177   4.235   5.421
 2711SOL    HW1 8813   0.262   4.216   5.381
 2711SOL    HW2 8814   0.148   4.315   5.377
 2712SOL     OW 8815   0.819   4.288   4.064
 2712SOL    HW1 8816   0.817   4.209   4.009
 2712SOL    HW2 8817   0.730   4.321   4.062
 2713SOL     OW 8818   1.638   4.319   4.913
 2713SOL    HW1 8819   1.632   4.261   4.989
 2713SOL    HW2 8820   1.726   4.304   4.878
 2714SOL     OW 8821   0.676   4.185   4.985
 2714SOL    HW1 8822   0.639   4.104   4.950
 2714SOL    HW2 8823   0.685   4.242   4.908
 2715SOL     OW 8824   0.486   4.222   3.914
 2715SOL    HW1 8825   0.520   4.309   3.935
 2715SOL    HW2 8826   0.392   4.235   3.901
 2716SOL     OW 8827   1.719   3.866   4.237
 2716SOL    HW1 8828   1.792   3.852   4.177
 2716SOL    HW2 8829   1.704   3.780   4.276
 2717SOL     OW 8830   1.280   0.138   4.403
 2717SOL    HW1 8831   1.338   0.062   4.408
 2717SOL    HW2 8832   1.329   0.203   4.353
 2718SOL     OW 8833   1.839   3.896   4.692
 2718SOL    HW1 8834   1.867   3.810   4.661
 2718SOL    HW2 8835   1.753   3.909   4.652
 2719SOL     OW 8836   0.268   4.042   4.445
 2719SOL    HW1 8837   0.191   4.090   4.415
 2719SOL    HW2 8838   0.255   4.031   4.539
 2720SOL     OW 8839   0.910   0.094   3.950
 2720SOL    HW1 8840   0.992   0.135   3.922
 2720SOL    HW2 8841   0.933   0.050   4.032
 2721SOL     OW 8842   1.067   0.305   4.461
 2721SOL    HW1 8843   0.983   0.286   4.419
 2721SOL    HW2 8844   1.127   0.240   4.425
 2722SOL     OW 8845   1.019   3.964   4.689
 2722SOL    HW1 8846   1.014   3.915   4.607
 2722SOL    HW2 8847   1.014   3.896   4.757
 2723SOL     OW 8848   1.719   4.114   5.104
 2723SOL    HW1 8849   1.790   4.179   5.102
 2723SOL    HW2 8850   1.749   4.043   5.048
 2724SOL     OW 8851   0.672   3.922   5.223
 2724SOL    HW1 8852   0.756   3.902   5.180
 2724SOL    HW2 8853   0.696   3.949   5.311
 2725SOL     OW 8854   0.068   4.046   3.755
 2725SOL    HW1 8855   4.474   4.062   3.748
 2725SOL    HW2 8856   0.109   4.131   3.739
 2726SOL     OW 8857   0.085   3.903   4.031
 2726SOL    HW1 8858   0.076   3.971   3.965
 2726SOL    HW2 8859   0.160   3.851   4.002
 2727SOL     OW 8860   0.724   4.286   5.427
 2727SOL    HW1 8861   0.731   4.336   5.508
 2727SOL    HW2 8862   0.754   4.198   5.449
 2728SOL     OW 8863   1.220   4.043   4.179
 2728SOL    HW1 8864   1.283   3.972   4.170
 2728SOL    HW2 8865   1.248   4.090   4.257
 2729SOL     OW 8866   1.763   4.088   5.371
 2729SOL    HW1 8867   1.745   4.098   5.278
 2729SOL    HW2 8868   1.694   4.030   5.403
 2730SOL     OW 8869   1.109   0.230   3.829
 2730SOL    HW1 8870   1.088   0.270   3.744
 2730SOL    HW2 8871   1.188   0.178   3.812
 2731SOL     OW 8872   1.815   3.910   4.962
 2731SOL    HW1 8873   1.823   3.816   4.978
 2731SOL    HW2 8874   1.823   3.918   4.867
 2732SOL     OW 8875   0.452   4.151   4.261
 2732SOL    HW1 8876   0.461   4.079   4.199
 2732SOL    HW2 8877   0.391   4.118   4.327
 2733SOL     OW 8878   0.322   4.258   5.000
 2733SOL    HW1 8879   0.374   4.192   5.045
 2733SOL    HW2 8880   0.336   4.241   4.907
 2734SOL     OW 8881   1.432   3.947   4.842
 2734SOL    HW1 8882   1.460   3.869   4.891
 2734SOL    HW2 8883   1.380   3.997   4.905
 2735SOL     OW 8884   1.008   3.745   4.870
 2735SOL    HW1 8885   0.953   3.676   4.832
 2735SOL    HW2 8886   1.096   3.707   4.871
 2736SOL     OW 8887   1.352   3.777   3.888
 2736SOL    HW1 8888   1.378   3.718   3.817
 2736SOL    HW2 8889   1.266   3.746   3.915
 2737SOL     OW 8890   1.300   4.176   4.407
 2737SOL    HW1 8891   1.257   4.261   4.421
 2737SOL    HW2 8892   1.300   4.135   4.493
 2738SOL     OW 8893   1.587   3.929   4.601
 2738SOL    HW1 8894   1.524   3.948   4.670
 2738SOL    HW2 8895   1.588   4.008   4.546
 2739SOL     OW 8896   0.233   4.287   5.697
 2739SOL    HW1 8897   0.166   4.322   5.754
 2739SOL    HW2 8898   0.214   4.325   5.611
 2740SOL     OW 8899   0.210   3.997   6.577
 2740SOL    HW1 8900   0.247   3.970   6.662
 2740SOL    HW2 8901   0.134   3.941   6.564
 2741SOL     OW 8902   0.001   4.097   6.218
 2741SOL    HW1 8903   4.423   4.129   6.262
 2741SOL    HW2 8904   4.474   4.016   6.175
 2742SOL     OW 8905   1.735   4.335   5.822
 2742SOL    HW1 8906   1.734   4.320   5.728
 2742SOL    HW2 8907   1.733   4.247   5.860
 2743SOL     OW 8908   0.724   0.265   6.266
 2743SOL    HW1 8909   0.722   0.208   6.343
 2743SOL    HW2 8910   0.633   0.287   6.250
 2744SOL     OW 8911   0.442   4.120   7.075
 2744SOL    HW1 8912   0.524   4.070   7.079
 2744SOL    HW2 8913   0.373   4.055   7.086
 2745SOL     OW 8914   1.616   4.174   6.324
 2745SOL    HW1 8915   1.543   4.200   6.268
 2745SOL    HW2 8916   1.623   4.245   6.388
 2746SOL     OW 8917   1.597   3.845   7.056
 2746SOL    HW1 8918   1.593   3.924   7.002
 2746SOL    HW2 8919   1.585   3.876   7.146
 2747SOL     OW 8920   0.166   4.323   6.218
 2747SOL    HW1 8921   0.106   4.252   6.194
 2747SOL    HW2 8922   0.120   4.403   6.194
 2748SOL     OW 8923   0.116   4.498   7.176
 2748SOL    HW1 8924   0.211   4.483   7.179
 2748SOL    HW2 8925   0.107   0.082   7.131
 2749SOL     OW 8926   0.813   3.723   6.091
 2749SOL    HW1 8927   0.853   3.809   6.077
 2749SOL    HW2 8928   0.720   3.741   6.103
 2750SOL     OW 8929   0.329   3.979   7.382
 2750SOL    HW1 8930   0.377   4.056   7.412
 2750SOL    HW2 8931   0.241   3.989   7.420
 2751SOL     OW 8932   1.278   4.070   6.518
 2751SOL    HW1 8933   1.189   4.036   6.527
 2751SOL    HW2 8934   1.330   4.019   6.581
 2752SOL     OW 8935   0.823   4.309   7.036
 2752SOL    HW1 8936   0.782   4.314   7.123
 2752SOL    HW2 8937   0.757   4.268   6.981
 2753SOL     OW 8938   1.396   4.199   7.262
 2753SOL    HW1 8939   1.396   4.242   7.348
 2753SOL    HW2 8940   1.456   4.125   7.273
 2754SOL     OW 8941   0.996   4.148   6.820
 2754SOL    HW1 8942   0.922   4.167   6.878
 2754SOL    HW2 8943   0.959   4.088   6.754
 2755SOL     OW 8944   1.057   4.410   6.006
 2755SOL    HW1 8945   1.057   4.443   6.096
 2755SOL    HW2 8946   0.968   4.375   5.994
 2756SOL     OW 8947   0.054   0.048   6.428
 2756SOL    HW1 8948   0.146   0.025   6.435
 2756SOL    HW2 8949   0.049   0.111   6.357
 2757SOL     OW 8950   0.885   4.063   5.777
 2757SOL    HW1 8951   0.930   4.125   5.720
 2757SOL    HW2 8952   0.905   3.977   5.740
 2758SOL     OW 8953   1.706   4.298   7.414
 2758SOL    HW1 8954   1.715   4.387   7.381
 2758SOL    HW2 8955   1.729   4.242   7.340
 2759SOL     OW 8956   0.551   3.907   6.478
 2759SOL    HW1 8957   0.553   3.936   6.569
 2759SOL    HW2 8958   0.548   3.989   6.428
 2760SOL     OW 8959   1.488   4.462   6.322
 2760SOL    HW1 8960   1.467   4.408   6.398
 2760SOL    HW2 8961   1.529   0.040   6.358
 2761SOL     OW 8962   0.190   4.000   7.073
 2761SOL    HW1 8963   0.135   4.078   7.080
 2761SOL    HW2 8964   0.185   3.960   7.160
 2762SOL     OW 8965   1.401   3.832   6.016
 2762SOL    HW1 8966   1.390   3.806   5.924
 2762SOL    HW2 8967   1.495   3.839   6.028
 2763SOL     OW 8968   0.352   4.378   5.994
 2763SOL    HW1 8969   0.399   4.306   6.037
 2763SOL    HW2 8970   0.297   4.415   6.063
 2764SOL     OW 8971   1.537   3.950   7.311
 2764SOL    HW1 8972   1.545   3.972   7.404
 2764SOL    HW2 8973   1.470   3.882   7.308
 2765SOL     OW 8974   0.631   3.851   5.690
 2765SOL    HW1 8975   0.703   3.790   5.705
 2765SOL    HW2 8976   0.585   3.816   5.614
 2766SOL     OW 8977   0.768   4.001   7.339
 2766SOL    HW1 8978   0.841   3.939   7.344
 2766SOL    HW2 8979   0.717   3.983   7.418
 2767SOL     OW 8980   1.345   4.311   7.015
 2767SOL    HW1 8981   1.368   4.274   7.100
 2767SOL    HW2 8982   1.382   4.399   7.016
 2768SOL     OW 8983   0.922   4.236   6.485
 2768SOL    HW1 8984   0.900   4.220   6.394
 2768SOL    HW2 8985   0.961   4.155   6.516
 2769SOL     OW 8986   0.550   3.786   6.090
 2769SOL    HW1 8987   0.469   3.785   6.142
 2769SOL    HW2 8988   0.543   3.865   6.036
 2770SOL     OW 8989   0.294   3.770   5.764
 2770SOL    HW1 8990   0.355   3.838   5.737
 2770SOL    HW2 8991   0.349   3.705   5.808
 2771SOL     OW 8992   0.935   3.970   6.051
 2771SOL    HW1 8993   0.908   4.009   5.968
 2771SOL    HW2 8994   1.031   3.980   6.051
 2772SOL     OW 8995   1.077   4.396   7.098
 2772SOL    HW1 8996   0.994   4.365   7.064
 2772SOL    HW2 8997   1.143   4.352   7.044
 2773SOL     OW 8998   1.026   4.269   5.609
 2773SOL    HW1 8999   1.006   4.357   5.577
 2773SOL    HW2 9000   1.088   4.283   5.680
 2774SOL     OW 9001   0.086   4.259   6.996
 2774SOL    HW1 9002   0.158   4.272   6.935
 2774SOL    HW2 9003   0.054   4.348   7.015
 2775SOL     OW 9004   0.562   3.950   6.750
 2775SOL    HW1 9005   0.600   3.869   6.783
 2775SOL    HW2 9006   0.470   3.947   6.778
 2776SOL     OW 9007   0.872   4.189   6.224
 2776SOL    HW1 9008   0.832   4.246   6.159
 2776SOL    HW2 9009   0.888   4.107   6.178
 2777SOL     OW 9010   1.013   3.777   6.339
 2777SOL    HW1 9011   0.955   3.768   6.264
 2777SOL    HW2 9012   0.994   3.701   6.394
 2778SOL     OW 9013   1.477   4.312   6.555
 2778SOL    HW1 9014   1.422   4.237   6.575
 2778SOL    HW2 9015   1.529   4.326   6.635
 2779SOL     OW 9016   1.400   4.296   5.658
 2779SOL    HW1 9017   1.339   4.270   5.727
 2779SOL    HW2 9018   1.483   4.256   5.684
 2780SOL     OW 9019   0.523   3.984   5.904
 2780SOL    HW1 9020   0.565   3.936   5.834
 2780SOL    HW2 9021   0.511   4.073   5.869
 2781SOL     OW 9022   0.917   3.823   6.984
 2781SOL    HW1 9023   0.941   3.802   6.894
 2781SOL    HW2 9024   0.997   3.861   7.022
 2782SOL     OW 9025   0.439   0.004   6.843
 2782SOL    HW1 9026   0.495   0.008   6.920
 2782SOL    HW2 9027   0.399   4.417   6.846
 2783SOL     OW 9028   1.266   4.101   6.859
 2783SOL    HW1 9029   1.300   4.178   6.904
 2783SOL    HW2 9030   1.178   4.125   6.832
 2784SOL     OW 9031   0.558   4.255   6.450
 2784SOL    HW1 9032   0.576   4.302   6.369
 2784SOL    HW2 9033   0.621   4.290   6.513
 2785SOL     OW 9034   1.572   4.342   6.061
 2785SOL    HW1 9035   1.541   4.407   6.123
 2785SOL    HW2 9036   1.630   4.391   6.002
 2786SOL     OW 9037   0.996   3.842   7.343
 2786SOL    HW1 9038   1.049   3.916   7.311
 2786SOL    HW2 9039   1.046   3.764   7.317
 2787SOL     OW 9040   0.498   3.768   7.332
 2787SOL    HW1 9041   0.458   3.711   7.266
 2787SOL    HW2 9042   0.437   3.841   7.342
 2788SOL     OW 9043   1.212   4.255   5.853
 2788SOL    HW1 9044   1.222   4.176   5.905
 2788SOL    HW2 9045   1.162   4.315   5.909
 2789SOL     OW 9046   0.301   3.924   6.830
 2789SOL    HW1 9047   0.262   3.953   6.913
 2789SOL    HW2 9048   0.286   3.830   6.828
 2790SOL     OW 9049   0.732   4.360   6.635
 2790SOL    HW1 9050   0.804   4.325   6.584
 2790SOL    HW2 9051   0.735   4.454   6.620
 2791SOL     OW 9052   1.749   0.135   7.443
 2791SOL    HW1 9053   1.688   0.149   7.370
 2791SOL    HW2 9054   1.702   0.167   7.520
 2792SOL     OW 9055   0.308   3.794   6.205
 2792SOL    HW1 9056   0.285   3.882   6.233
 2792SOL    HW2 9057   0.303   3.741   6.285
 2793SOL     OW 9058   1.612   4.091   5.956
 2793SOL    HW1 9059   1.640   4.030   6.024
 2793SOL    HW2 9060   1.590   4.171   6.003
 2794SOL     OW 9061   1.529   3.999   5.713
 2794SOL    HW1 9062   1.466   3.932   5.739
 2794SOL    HW2 9063   1.563   4.034   5.795
 2795SOL     OW 9064   0.318   0.018   6.509
 2795SOL    HW1 9065   0.401   0.065   6.515
 2795SOL    HW2 9066   0.331   4.440   6.563
 2796SOL     OW 9067   0.336   4.237   6.597
 2796SOL    HW1 9068   0.292   4.156   6.573
 2796SOL    HW2 9069   0.410   4.243   6.536
 2797SOL     OW 9070   1.138   4.096   7.269
 2797SOL    HW1 9071   1.087   4.155   7.325
 2797SOL    HW2 9072   1.223   4.139   7.260
 2798SOL     OW 9073   1.160   3.928   7.055
 2798SOL    HW1 9074   1.151   3.989   7.128
 2798SOL    HW2 9075   1.198   3.980   6.984
 2799SOL     OW 9076   0.028   4.280   6.695
 2799SOL    HW1 9077   0.112   4.254   6.656
 2799SOL    HW2 9078   0.032   4.245   6.784
 2800SOL     OW 9079   0.177   4.235   7.283
 2800SOL    HW1 9080   0.262   4.216   7.243
 2800SOL    HW2 9081   0.148   4.315   7.239
 2801SOL     OW 9082   0.819   4.288   5.926
 2801SOL    HW1 9083   0.817   4.209   5.871
 2801SOL    HW2 9084   0.730   4.321   5.924
 2802SOL     OW 9085   1.638   4.319   6.776
 2802SOL    HW1 9086   1.632   4.260   6.851
 2802SOL    HW2 9087   1.726   4.304   6.740
 2803SOL     OW 9088   0.676   4.186   6.847
 2803SOL    HW1 9089   0.639   4.104   6.812
 2803SOL    HW2 9090   0.685   4.242   6.770
 2804SOL     OW 9091   0.486   4.222   5.776
 2804SOL    HW1 9092   0.520   4.309   5.798
 2804SOL    HW2 9093   0.392   4.235   5.763
 2805SOL     OW 9094   1.719   3.866   6.099
 2805SOL    HW1 9095   1.792   3.852   6.039
 2805SOL    HW2 9096   1.703   3.780   6.138
 2806SOL     OW 9097   1.280   0.138   6.265
 2806SOL    HW1 9098   1.338   0.062   6.270
 2806SOL    HW2 9099   1.330   0.203   6.215
 2807SOL     OW 9100   1.839   3.897   6.553
 2807SOL    HW1 9101   1.868   3.811   6.525
 2807SOL    HW2 9102   1.753   3.909   6.513
 2808SOL     OW 9103   0.268   4.042   6.307
 2808SOL    HW1 9104   0.191   4.090   6.277
 2808SOL    HW2 9105   0.255   4.031   6.401
 2809SOL     OW 9106   0.910   0.094   5.812
 2809SOL    HW1 9107   0.992   0.135   5.784
 2809SOL    HW2 9108   0.932   0.050   5.894
 2810SOL     OW 9109   1.067   0.305   6.323
 2810SOL    HW1 9110   0.983   0.286   6.281
 2810SOL    HW2 9111   1.127   0.240   6.287
 2811SOL     OW 9112   1.019   3.964   6.551
 2811SOL    HW1 9113   1.014   3.915   6.469
 2811SOL    HW2 9114   1.014   3.896   6.619
 2812SOL     OW 9115   1.719   4.114   6.966
 2812SOL    HW1 9116   1.790   4.178   6.963
 2812SOL    HW2 9117   1.749   4.043   6.910
 2813SOL     OW 9118   0.672   3.922   7.084
 2813SOL    HW1 9119   0.756   3.902   7.042
 2813SOL    HW2 9120   0.696   3.949   7.173
 2814SOL     OW 9121   0.068   4.046   5.617
 2814SOL    HW1 9122   4.474   4.062   5.610
 2814SOL    HW2 9123   0.109   4.131   5.601
 2815SOL     OW 9124   0.085   3.903   5.893
 2815SOL    HW1 9125   0.076   3.971   5.827
 2815SOL    HW2 9126   0.160   3.851   5.864
 2816SOL     OW 9127   0.724   4.286   7.289
 2816SOL    HW1 9128   0.731   4.336   7.370
 2816SOL    HW2 9129   0.754   4.198   7.311
 2817SOL     OW 9130   1.220   4.044   6.041
 2817SOL    HW1 9131   1.282   3.972   6.032
 2817SOL    HW2 9132   1.248   4.091   6.119
 2818SOL     OW 9133   1.763   4.088   7.233
 2818SOL    HW1 9134   1.745   4.098   7.140
 2818SOL    HW2 9135   1.694   4.030   7.265
 2819SOL     OW 9136   1.109   0.230   5.691
 2819SOL    HW1 9137   1.088   0.269   5.606
 2819SOL    HW2 9138   1.188   0.178   5.674
 2820SOL     OW 9139   1.815   3.909   6.824
 2820SOL    HW1 9140   1.823   3.815   6.840
 2820SOL    HW2 9141   1.823   3.918   6.729
 2821SOL     OW 9142   0.451   4.151   6.123
 2821SOL    HW1 9143   0.461   4.079   6.061
 2821SOL    HW2 9144   0.391   4.118   6.189
 2822SOL     OW 9145   0.322   4.258   6.862
 2822SOL    HW1 9146   0.374   4.192   6.907
 2822SOL    HW2 9147   0.336   4.241   6.769
 2823SOL     OW 9148   1.432   3.948   6.704
 2823SOL    HW1 9149   1.460   3.869   6.750
 2823SOL    HW2 9150   1.380   3.996   6.768
 2824SOL     OW 9151   1.008   3.745   6.732
 2824SOL    HW1 9152   0.953   3.676   6.694
 2824SOL    HW2 9153   1.096   3.707   6.733
 2825SOL     OW 9154   1.352   3.777   5.749
 2825SOL    HW1 9155   1.377   3.718   5.679
 2825SOL    HW2 9156   1.266   3.746   5.777
 2826SOL     OW 9157   1.300   4.177   6.269
 2826SOL    HW1 9158   1.256   4.261   6.283
 2826SOL    HW2 9159   1.300   4.135   6.355
 2827SOL     OW 9160   1.588   3.930   6.463
 2827SOL    HW1 9161   1.524   3.948   6.531
 2827SOL    HW2 9162   1.588   4.009   6.409
 2828SOL     OW 9163   0.233   4.287   7.559
 2828SOL    HW1 9164   0.166   4.323   7.616
 2828SOL    HW2 9165   0.214   4.325   7.473
 2829SOL     OW 9166   0.210   3.997   8.439
 2829SOL    HW1 9167   0.247   3.970   8.524
 2829SOL    HW2 9168   0.134   3.941   8.426
 2830SOL     OW 9169   0.001   4.097   8.080
 2830SOL    HW1 9170   4.423   4.129   8.124
 2830SOL    HW2 9171   4.474   4.016   8.037
 2831SOL     OW 9172   1.734   4.335   7.685
 2831SOL    HW1 9173   1.734   4.321   7.590
 2831SOL    HW2 9174   1.733   4.247   7.722
 2832SOL     OW 9175   0.724   0.265   8.128
 2832SOL    HW1 9176   0.722   0.209   8.205
 2832SOL    HW2 9177   0.633   0.287   8.112
 2833SOL     OW 9178   0.442   4.120   8.937
 2833SOL    HW1 9179   0.524   4.070   8.941
 2833SOL    HW2 9180   0.373   4.055   8.948
 2834SOL     OW 9181   1.615   4.174   8.186
 2834SOL    HW1 9182   1.543   4.200   8.130
 2834SOL    HW2 9183   1.623   4.245   8.250
 2835SOL     OW 9184   1.597   3.845   8.918
 2835SOL    HW1 9185   1.593   3.924   8.864
 2835SOL    HW2 9186   1.584   3.876   9.008
 2836SOL     OW 9187   0.166   4.323   8.080
 2836SOL    HW1 9188   0.106   4.252   8.056
 2836SOL    HW2 9189   0.120   4.403   8.056
 2837SOL     OW 9190   0.116   4.498   9.038
 2837SOL    HW1 9191   0.211   4.483   9.041
 2837SOL    HW2 9192   0.107   0.082   8.993
 2838SOL     OW 9193   0.813   3.723   7.953
 2838SOL    HW1 9194   0.853   3.809   7.939
 2838SOL    HW2 9195   0.720   3.741   7.965
 2839SOL     OW 9196   0.329   3.979   9.244
 2839SOL    HW1 9197   0.377   4.056   9.274
 2839SOL    HW2 9198   0.241   3.989   9.281
 2840SOL     OW 9199   1.278   4.070   8.380
 2840SOL    HW1 9200   1.189   4.036   8.389
 2840SOL    HW2 9201   1.330   4.019   8.443
 2841SOL     OW 9202   0.823   4.309   8.898
 2841SOL    HW1 9203   0.782   4.314   8.985
 2841SOL    HW2 9204   0.757   4.268   8.843
 2842SOL     OW 9205   1.396   4.199   9.124
 2842SOL    HW1 9206   1.395   4.242   9.210
 2842SOL    HW2 9207   1.456   4.125   9.135
 2843SOL     OW 9208   0.996   4.147   8.682
 2843SOL    HW1 9209   0.923   4.167   8.740
 2843SOL    HW2 9210   0.959   4.088   8.616
 2844SOL     OW 9211   1.057   4.410   7.868
 2844SOL    HW1 9212   1.057   4.444   7.958
 2844SOL    HW2 9213   0.968   4.375   7.856
 2845SOL     OW 9214   0.054   0.048   8.290
 2845SOL    HW1 9215   0.146   0.025   8.297
 2845SOL    HW2 9216   0.049   0.111   8.219
 2846SOL     OW 9217   0.886   4.063   7.639
 2846SOL    HW1 9218   0.930   4.125   7.582
 2846SOL    HW2 9219   0.905   3.977   7.602
 2847SOL     OW 9220   1.706   4.298   9.276
 2847SOL    HW1 9221   1.715   4.387   9.243
 2847SOL    HW2 9222   1.729   4.242   9.202
 2848SOL     OW 9223   0.551   3.907   8.340
 2848SOL    HW1 9224   0.553   3.936   8.431
 2848SOL    HW2 9225   0.548   3.989   8.290
 2849SOL     OW 9226   1.488   4.462   8.184
 2849SOL    HW1 9227   1.467   4.408   8.260
 2849SOL    HW2 9228   1.529   0.040   8.220
 2850SOL     OW 9229   0.190   4.000   8.935
 2850SOL    HW1 9230   0.135   4.078   8.942
 2850SOL    HW2 9231   0.185   3.960   9.022
 2851SOL     OW 9232   1.401   3.831   7.878
 2851SOL    HW1 9233   1.390   3.806   7.786
 2851SOL    HW2 9234   1.495   3.840   7.889
 2852SOL     OW 9235   0.352   4.378   7.856
 2852SOL    HW1 9236   0.399   4.306   7.899
 2852SOL    HW2 9237   0.297   4.415   7.925
 2853SOL     OW 9238   1.538   3.950   9.173
 2853SOL    HW1 9239   1.545   3.972   9.266
 2853SOL    HW2 9240   1.470   3.882   9.170
 2854SOL     OW 9241   0.631   3.851   7.552
 2854SOL    HW1 9242   0.703   3.790   7.567
 2854SOL    HW2 9243   0.585   3.816   7.476
 2855SOL     OW 9244   0.768   4.001   9.201
 2855SOL    HW1 9245   0.841   3.939   9.206
 2855SOL    HW2 9246   0.717   3.983   9.280
 2856SOL     OW 9247   1.346   4.311   8.876
 2856SOL    HW1 9248   1.368   4.274   8.962
 2856SOL    HW2 9249   1.382   4.399   8.878
 2857SOL     OW 9250   0.922   4.236   8.347
 2857SOL    HW1 9251   0.900   4.220   8.256
 2857SOL    HW2 9252   0.961   4.155   8.378
 2858SOL     OW 9253   0.550   3.786   7.952
 2858SOL    HW1 9254   0.469   3.785   8.004
 2858SOL    HW2 9255   0.543   3.865   7.898
 2859SOL     OW 9256   0.294   3.770   7.626
 2859SOL    HW1 9257   0.355   3.838   7.598
 2859SOL    HW2 9258   0.349   3.705   7.670
 2860SOL     OW 9259   0.935   3.970   7.913
 2860SOL    HW1 9260   0.907   4.009   7.830
 2860SOL    HW2 9261   1.031   3.980   7.913
 2861SOL     OW 9262   1.077   4.396   8.960
 2861SOL    HW1 9263   0.994   4.365   8.926
 2861SOL    HW2 9264   1.143   4.352   8.905
 2862SOL     OW 9265   1.026   4.269   7.471
 2862SOL    HW1 9266   1.006   4.357   7.439
 2862SOL    HW2 9267   1.088   4.283   7.542
 2863SOL     OW 9268   0.086   4.259   8.858
 2863SOL    HW1 9269   0.158   4.272   8.797
 2863SOL    HW2 9270   0.054   4.348   8.877
 2864SOL     OW 9271   0.562   3.950   8.612
 2864SOL    HW1 9272   0.600   3.869   8.645
 2864SOL    HW2 9273   0.470   3.947   8.640
 2865SOL     OW 9274   0.872   4.189   8.086
 2865SOL    HW1 9275   0.832   4.246   8.021
 2865SOL    HW2 9276   0.888   4.107   8.040
 2866SOL     OW 9277   1.014   3.777   8.201
 2866SOL    HW1 9278   0.955   3.768   8.126
 2866SOL    HW2 9279   0.994   3.701   8.256
 2867SOL     OW 9280   1.477   4.312   8.417
 2867SOL    HW1 9281   1.422   4.237   8.437
 2867SOL    HW2 9282   1.529   4.326   8.497
 2868SOL     OW 9283   1.400   4.296   7.520
 2868SOL    HW1 9284   1.339   4.270   7.589
 2868SOL    HW2 9285   1.483   4.255   7.546
 2869SOL     OW 9286   0.523   3.984   7.766
 2869SOL    HW1 9287   0.565   3.936   7.696
 2869SOL    HW2 9288   0.511   4.073   7.731
 2870SOL     OW 9289   0.917   3.823   8.846
 2870SOL    HW1 9290   0.941   3.802   8.756
 2870SOL    HW2 9291   0.997   3.861   8.884
 2871SOL     OW 9292   0.439   0.004   8.705
 2871SOL    HW1 9293   0.495   0.008   8.782
 2871SOL    HW2 9294   0.399   4.417   8.708
 2872SOL     OW 9295   1.267   4.101   8.720
 2872SOL    HW1 9296   1.300   4.178   8.766
 2872SOL    HW2 9297   1.178   4.125   8.694
 2873SOL     OW 9298   0.558   4.255   8.312
 2873SOL    HW1 9299   0.576   4.302   8.231
 2873SOL    HW2 9300   0.621   4.290   8.375
 2874SOL     OW 9301   1.573   4.342   7.923
 2874SOL    HW1 9302   1.540   4.408   7.985
 2874SOL    HW2 9303   1.630   4.390   7.864
 2875SOL     OW 9304   0.996   3.842   9.205
 2875SOL    HW1 9305   1.049   3.915   9.173
 2875SOL    HW2 9306   1.046   3.764   9.179
 2876SOL     OW 9307   0.498   3.768   9.194
 2876SOL    HW1 9308   0.458   3.711   9.128
 2876SOL    HW2 9309   0.437   3.841   9.204
 2877SOL     OW 9310   1.212   4.255   7.715
 2877SOL    HW1 9311   1.221   4.176   7.767
 2877SOL    HW2 9312   1.162   4.315   7.771
 2878SOL     OW 9313   0.301   3.924   8.692
 2878SOL    HW1 9314   0.262   3.953   8.775
 2878SOL    HW2 9315   0.286   3.830   8.690
 2879SOL     OW 9316   0.732   4.360   8.497
 2879SOL    HW1 9317   0.804   4.325   8.446
 2879SOL    HW2 9318   0.735   4.454   8.482
 2880SOL     OW 9319   1.749   0.135   9.304
 2880SOL    HW1 9320   1.688   0.149   9.232
 2880SOL    HW2 9321   1.702   0.167   9.382
 2881SOL     OW 9322   0.308   3.794   8.067
 2881SOL    HW1 9323   0.285   3.882   8.095
 2881SOL    HW2 9324   0.303   3.741   8.147
 2882SOL     OW 9325   1.612   4.091   7.818
 2882SOL    HW1 9326   1.641   4.030   7.886
 2882SOL    HW2 9327   1.590   4.171   7.865
 2883SOL     OW 9328   1.529   3.999   7.575
 2883SOL    HW1 9329   1.467   3.932   7.601
 2883SOL    HW2 9330   1.563   4.034   7.657
 2884SOL     OW 9331   0.318   0.018   8.371
 2884SOL    HW1 9332   0.401   0.065   8.377
 2884SOL    HW2 9333   0.331   4.440   8.425
 2885SOL     OW 9334   0.336   4.237   8.459
 2885SOL    HW1 9335   0.292   4.156   8.435
 2885SOL    HW2 9336   0.410   4.243   8.398
 2886SOL     OW 9337   1.138   4.096   9.131
 2886SOL    HW1 9338   1.087   4.155   9.187
 2886SOL    HW2 9339   1.223   4.139   9.122
 2887SOL     OW 9340   1.160   3.928   8.917
 2887SOL    HW1 9341   1.151   3.989   8.990
 2887SOL    HW2 9342   1.198   3.980   8.846
 2888SOL     OW 9343   0.028   4.280   8.557
 2888SOL    HW1 9344   0.112   4.254   8.518
 2888SOL    HW2 9345   0.032   4.245   8.646
 2889SOL     OW 9346   0.177   4.235   9.144
 2889SOL    HW1 9347   0.262   4.216   9.105
 2889SOL    HW2 9348   0.148   4.315   9.101
 2890SOL     OW 9349   0.819   4.288   7.788
 2890SOL    HW1 9350   0.817   4.209   7.733
 2890SOL    HW2 9351   0.730   4.321   7.786
 2891SOL     OW 9352   1.638   4.319   8.638
 2891SOL    HW1 9353   1.632   4.260   8.713
 2891SOL    HW2 9354   1.726   4.304   8.602
 2892SOL     OW 9355   0.676   4.186   8.709
 2892SOL    HW1 9356   0.639   4.104   8.674
 2892SOL    HW2 9357   0.685   4.242   8.632
 2893SOL     OW 9358   0.486   4.222   7.638
 2893SOL    HW1 9359   0.520   4.309   7.660
 2893SOL    HW2 9360   0.392   4.235   7.625
 2894SOL     OW 9361   1.719   3.866   7.961
 2894SOL    HW1 9362   1.792   3.852   7.901
 2894SOL    HW2 9363   1.703   3.780   8.000
 2895SOL     OW 9364   1.280   0.138   8.127
 2895SOL    HW1 9365   1.338   0.062   8.132
 2895SOL    HW2 9366   1.330   0.203   8.077
 2896SOL     OW 9367   1.839   3.897   8.416
 2896SOL    HW1 9368   1.868   3.811   8.386
 2896SOL    HW2 9369   1.753   3.909   8.376
 2897SOL     OW 9370   0.268   4.042   8.169
 2897SOL    HW1 9371   0.191   4.090   8.139
 2897SOL    HW2 9372   0.255   4.031   8.263
 2898SOL     OW 9373   0.910   0.094   7.674
 2898SOL    HW1 9374   0.992   0.135   7.646
 2898SOL    HW2 9375   0.933   0.050   7.756
 2899SOL     OW 9376   1.067   0.305   8.185
 2899SOL    HW1 9377   0.983   0.286   8.143
 2899SOL    HW2 9378   1.127   0.240   8.149
 2900SOL     OW 9379   1.019   3.964   8.413
 2900SOL    HW1 9380   1.014   3.915   8.331
 2900SOL    HW2 9381   1.014   3.896   8.481
 2901SOL     OW 9382   1.719   4.114   8.828
 2901SOL    HW1 9383   1.790   4.178   8.825
 2901SOL    HW2 9384   1.749   4.043   8.772
 2902SOL     OW 9385   0.672   3.922   8.946
 2902SOL    HW1 9386   0.756   3.902   8.904
 2902SOL    HW2 9387   0.696   3.949   9.035
 2903SOL     OW 9388   0.068   4.046   7.479
 2903SOL    HW1 9389   4.474   4.062   7.472
 2903SOL    HW2 9390   0.109   4.131   7.463
 2904SOL     OW 9391   0.085   3.903   7.755
 2904SOL    HW1 9392   0.076   3.971   7.689
 2904SOL    HW2 9393   0.160   3.851   7.726
 2905SOL     OW 9394   0.724   4.286   9.151
 2905SOL    HW1 9395   0.731   4.336   9.232
 2905SOL    HW2 9396   0.754   4.198   9.173
 2906SOL     OW 9397   1.220   4.043   7.903
 2906SOL    HW1 9398   1.282   3.972   7.894
 2906SOL    HW2 9399   1.248   4.090   7.981
 2907SOL     OW 9400   1.763   4.088   9.095
 2907SOL    HW1 9401   1.745   4.097   9.002
 2907SOL    HW2 9402   1.694   4.030   9.127
 2908SOL     OW 9403   1.109   0.230   7.553
 2908SOL    HW1 9404   1.088   0.269   7.468
 2908SOL    HW2 9405   1.188   0.178   7.536
 2909SOL     OW 9406   1.815   3.909   8.686
 2909SOL    HW1 9407   1.824   3.815   8.702
 2909SOL    HW2 9408   1.823   3.918   8.591
 2910SOL     OW 9409   0.451   4.151   7.985
 2910SOL    HW1 9410   0.461   4.079   7.923
 2910SOL    HW2 9411   0.391   4.118   8.051
 2911SOL     OW 9412   0.322   4.258   8.724
 2911SOL    HW1 9413   0.374   4.192   8.769
 2911SOL    HW2 9414   0.336   4.241   8.631
 2912SOL     OW 9415   1.432   3.947   8.566
 2912SOL    HW1 9416   1.460   3.869   8.613
 2912SOL    HW2 9417   1.380   3.996   8.629
 2913SOL     OW 9418   1.008   3.745   8.594
 2913SOL    HW1 9419   0.953   3.676   8.556
 2913SOL    HW2 9420   1.096   3.707   8.595
 2914SOL     OW 9421   1.352   3.777   7.611
 2914SOL    HW1 9422   1.378   3.718   7.542
 2914SOL    HW2 9423   1.265   3.746   7.639
 2915SOL     OW 9424   1.300   4.176   8.131
 2915SOL    HW1 9425   1.256   4.261   8.145
 2915SOL    HW2 9426   1.300   4.135   8.217
 2916SOL     OW 9427   1.587   3.930   8.325
 2916SOL    HW1 9428   1.524   3.948   8.394
 2916SOL    HW2 9429   1.588   4.008   8.270
 2917SOL     OW 9430   0.233   4.287   9.421
 2917SOL    HW1 9431   0.166   4.323   9.478
 2917SOL    HW2 9432   0.214   4.325   9.335
 2918SOL     OW 9433   0.212   3.997  10.301
 2918SOL    HW1 9434   0.248   3.972  10.386
 2918SOL    HW2 9435   0.135   3.942  10.290
 2919SOL     OW 9436   0.001   4.097   9.941
 2919SOL    HW1 9437   4.423   4.129   9.986
 2919SOL    HW2 9438   4.473   4.016   9.899
 2920SOL     OW 9439   1.735   4.335   9.547
 2920SOL    HW1 9440   1.734   4.320   9.452
 2920SOL    HW2 9441   1.733   4.247   9.584
 2921SOL     OW 9442   0.724   0.265   9.990
 2921SOL    HW1 9443   0.722   0.209  10.067
 2921SOL    HW2 9444   0.633   0.287   9.974
 2922SOL     OW 9445   0.445   4.124  10.794
 2922SOL    HW1 9446   0.523   4.069  10.802
 2922SOL    HW2 9447   0.373   4.066  10.815
 2923SOL     OW 9448   1.616   4.174  10.048
 2923SOL    HW1 9449   1.543   4.200   9.992
 2923SOL    HW2 9450   1.624   4.245  10.112
 2924SOL     OW 9451   1.590   3.839  10.780
 2924SOL    HW1 9452   1.596   3.919  10.728
 2924SOL    HW2 9453   1.588   3.870  10.871
 2925SOL     OW 9454   0.166   4.322   9.941
 2925SOL    HW1 9455   0.106   4.252   9.918
 2925SOL    HW2 9456   0.120   4.403   9.918
 2926SOL     OW 9457   0.100   4.484  10.937
 2926SOL    HW1 9458   0.194   4.471  10.948
 2926SOL    HW2 9459   0.092   0.066  10.889
 2927SOL     OW 9460   0.813   3.723   9.815
 2927SOL    HW1 9461   0.853   3.809   9.801
 2927SOL    HW2 9462   0.720   3.741   9.827
 2928SOL     OW 9463   0.339   3.984   0.007
 2928SOL    HW1 9464   0.384   4.064   0.034
 2928SOL    HW2 9465   0.246   4.005   0.018
 2929SOL     OW 9466   1.278   4.070  10.242
 2929SOL    HW1 9467   1.189   4.036  10.251
 2929SOL    HW2 9468   1.330   4.019  10.305
 2930SOL     OW 9469   0.823   4.304  10.765
 2930SOL    HW1 9470   0.777   4.316  10.848
 2930SOL    HW2 9471   0.757   4.266  10.706
 2931SOL     OW 9472   0.996   4.146  10.546
 2931SOL    HW1 9473   0.920   4.167  10.601
 2931SOL    HW2 9474   0.960   4.089  10.477
 2932SOL     OW 9475   1.057   4.410   9.730
 2932SOL    HW1 9476   1.057   4.444   9.820
 2932SOL    HW2 9477   0.969   4.375   9.718
 2933SOL     OW 9478   0.053   0.048  10.152
 2933SOL    HW1 9479   0.146   0.024  10.159
 2933SOL    HW2 9480   0.051   0.112  10.081
 2934SOL     OW 9481   0.886   4.063   9.501
 2934SOL    HW1 9482   0.930   4.125   9.444
 2934SOL    HW2 9483   0.905   3.977   9.464
 2935SOL     OW 9484   0.552   3.907  10.202
 2935SOL    HW1 9485   0.553   3.936  10.294
 2935SOL    HW2 9486   0.549   3.989  10.152
 2936SOL     OW 9487   1.488   4.462  10.046
 2936SOL    HW1 9488   1.467   4.408  10.122
 2936SOL    HW2 9489   1.529   0.040  10.082
 2937SOL     OW 9490   0.192   4.001  10.798
 2937SOL    HW1 9491   0.138   4.080  10.805
 2937SOL    HW2 9492   0.188   3.962  10.885
 2938SOL     OW 9493   1.401   3.831   9.740
 2938SOL    HW1 9494   1.390   3.806   9.648
 2938SOL    HW2 9495   1.495   3.840   9.751
 2939SOL     OW 9496   0.352   4.378   9.718
 2939SOL    HW1 9497   0.399   4.306   9.761
 2939SOL    HW2 9498   0.297   4.415   9.787
 2940SOL     OW 9499   0.631   3.851   9.414
 2940SOL    HW1 9500   0.703   3.790   9.429
 2940SOL    HW2 9501   0.585   3.816   9.338
 2941SOL     OW 9502   0.771   3.997  11.045
 2941SOL    HW1 9503   0.836   3.939  11.084
 2941SOL    HW2 9504   0.709   4.015   0.016
 2942SOL     OW 9505   1.352   4.308  10.744
 2942SOL    HW1 9506   1.375   4.286  10.834
 2942SOL    HW2 9507   1.375   4.400  10.735
 2943SOL     OW 9508   0.923   4.236  10.209
 2943SOL    HW1 9509   0.900   4.221  10.118
 2943SOL    HW2 9510   0.961   4.154  10.239
 2944SOL     OW 9511   0.550   3.786   9.814
 2944SOL    HW1 9512   0.469   3.785   9.866
 2944SOL    HW2 9513   0.543   3.865   9.760
 2945SOL     OW 9514   0.294   3.770   9.488
 2945SOL    HW1 9515   0.355   3.838   9.460
 2945SOL    HW2 9516   0.349   3.705   9.532
 2946SOL     OW 9517   0.935   3.970   9.775
 2946SOL    HW1 9518   0.907   4.009   9.692
 2946SOL    HW2 9519   1.031   3.980   9.775
 2947SOL     OW 9520   1.080   4.390  10.811
 2947SOL    HW1 9521   0.993   4.362  10.780
 2947SOL    HW2 9522   1.141   4.342  10.755
 2948SOL     OW 9523   1.026   4.269   9.333
 2948SOL    HW1 9524   1.006   4.357   9.301
 2948SOL    HW2 9525   1.088   4.283   9.404
 2949SOL     OW 9526   0.080   4.257  10.719
 2949SOL    HW1 9527   0.154   4.264  10.659
 2949SOL    HW2 9528   0.054   4.347  10.736
 2950SOL     OW 9529   0.561   3.950  10.474
 2950SOL    HW1 9530   0.600   3.869  10.508
 2950SOL    HW2 9531   0.470   3.947  10.502
 2951SOL     OW 9532   0.872   4.189   9.948
 2951SOL    HW1 9533   0.832   4.246   9.883
 2951SOL    HW2 9534   0.888   4.107   9.901
 2952SOL     OW 9535   1.014   3.777  10.063
 2952SOL    HW1 9536   0.955   3.768   9.988
 2952SOL    HW2 9537   0.994   3.701  10.118
 2953SOL     OW 9538   1.477   4.312  10.279
 2953SOL    HW1 9539   1.422   4.236  10.299
 2953SOL    HW2 9540   1.529   4.326  10.358
 2954SOL     OW 9541   1.400   4.296   9.382
 2954SOL    HW1 9542   1.339   4.270   9.451
 2954SOL    HW2 9543   1.483   4.255   9.408
 2955SOL     OW 9544   0.523   3.984   9.628
 2955SOL    HW1 9545   0.565   3.936   9.558
 2955SOL    HW2 9546   0.511   4.073   9.593
 2956SOL     OW 9547   0.918   3.823  10.709
 2956SOL    HW1 9548   0.941   3.802  10.618
 2956SOL    HW2 9549   0.996   3.863  10.745
 2957SOL     OW 9550   0.446   4.499  10.554
 2957SOL    HW1 9551   0.498   0.014  10.633
 2957SOL    HW2 9552   0.387   4.427  10.577
 2958SOL     OW 9553   1.267   4.100  10.584
 2958SOL    HW1 9554   1.301   4.178  10.628
 2958SOL    HW2 9555   1.179   4.126  10.557
 2959SOL     OW 9556   0.562   4.252  10.172
 2959SOL    HW1 9557   0.578   4.304  10.093
 2959SOL    HW2 9558   0.621   4.289  10.237
 2960SOL     OW 9559   1.573   4.342   9.785
 2960SOL    HW1 9560   1.540   4.407   9.847
 2960SOL    HW2 9561   1.630   4.391   9.726
 2961SOL     OW 9562   0.485   4.499  10.994
 2961SOL    HW1 9563   0.477   0.046  10.911
 2961SOL    HW2 9564   0.481   4.406  10.970
 2962SOL     OW 9565   1.212   4.255   9.577
 2962SOL    HW1 9566   1.221   4.176   9.629
 2962SOL    HW2 9567   1.162   4.315   9.633
 2963SOL     OW 9568   0.301   3.922  10.553
 2963SOL    HW1 9569   0.265   3.954  10.635
 2963SOL    HW2 9570   0.285   3.828  10.554
 2964SOL     OW 9571   0.732   4.359  10.359
 2964SOL    HW1 9572   0.804   4.326  10.307
 2964SOL    HW2 9573   0.734   4.454  10.345
 2965SOL     OW 9574   0.308   3.794   9.929
 2965SOL    HW1 9575   0.286   3.882   9.957
 2965SOL    HW2 9576   0.303   3.741  10.009
 2966SOL     OW 9577   1.612   4.091   9.680
 2966SOL    HW1 9578   1.641   4.030   9.748
 2966SOL    HW2 9579   1.590   4.171   9.727
 2967SOL     OW 9580   1.529   3.999   9.437
 2967SOL    HW1 9581   1.467   3.932   9.463
 2967SOL    HW2 9582   1.563   4.034   9.519
 2968SOL     OW 9583   0.318   0.018  10.234
 2968SOL    HW1 9584   0.401   0.065  10.241
 2968SOL    HW2 9585   0.330   4.439  10.286
 2969SOL     OW 9586   0.337   4.239  10.312
 2969SOL    HW1 9587   0.292   4.157  10.291
 2969SOL    HW2 9588   0.411   4.242  10.253
 2970SOL     OW 9589   1.157   3.933  10.781
 2970SOL    HW1 9590   1.165   3.992  10.856
 2970SOL    HW2 9591   1.196   3.981  10.708
 2971SOL     OW 9592   0.027   4.277  10.416
 2971SOL    HW1 9593   0.113   4.256  10.379
 2971SOL    HW2 9594   0.032   4.248  10.507
 2972SOL     OW 9595   1.355   0.183  10.988
 2972SOL    HW1 9596   1.413   0.258  10.999
 2972SOL    HW2 9597   1.369   0.154  10.898
 2973SOL     OW 9598   0.820   4.288   9.649
 2973SOL    HW1 9599   0.817   4.209   9.595
 2973SOL    HW2 9600   0.730   4.321   9.648
 2974SOL     OW 9601   1.638   4.319  10.499
 2974SOL    HW1 9602   1.633   4.260  10.574
 2974SOL    HW2 9603   1.726   4.305  10.463
 2975SOL     OW 9604   0.681   4.184  10.570
 2975SOL    HW1 9605   0.639   4.104  10.536
 2975SOL    HW2 9606   0.685   4.243  10.494
 2976SOL     OW 9607   0.486   4.222   9.500
 2976SOL    HW1 9608   0.520   4.309   9.522
 2976SOL    HW2 9609   0.392   4.235   9.487
 2977SOL     OW 9610   1.719   3.866   9.823
 2977SOL    HW1 9611   1.792   3.852   9.763
 2977SOL    HW2 9612   1.703   3.780   9.862
 2978SOL     OW 9613   1.280   0.138   9.989
 2978SOL    HW1 9614   1.338   0.062   9.995
 2978SOL    HW2 9615   1.330   0.203   9.939
 2979SOL     OW 9616   1.839   3.897  10.277
 2979SOL    HW1 9617   1.868   3.811  10.249
 2979SOL    HW2 9618   1.753   3.909  10.238
 2980SOL     OW 9619   0.268   4.042  10.030
 2980SOL    HW1 9620   0.191   4.090  10.001
 2980SOL    HW2 9621   0.256   4.030  10.125
 2981SOL     OW 9622   0.910   0.094   9.536
 2981SOL    HW1 9623   0.992   0.135   9.508
 2981SOL    HW2 9624   0.932   0.050   9.618
 2982SOL     OW 9625   1.067   0.306  10.046
 2982SOL    HW1 9626   0.983   0.286  10.005
 2982SOL    HW2 9627   1.127   0.239  10.011
 2983SOL     OW 9628   1.019   3.964  10.275
 2983SOL    HW1 9629   1.014   3.916  10.193
 2983SOL    HW2 9630   1.014   3.896  10.343
 2984SOL     OW 9631   1.716   4.116  10.689
 2984SOL    HW1 9632   1.788   4.180  10.689
 2984SOL    HW2 9633   1.747   4.045  10.633
 2985SOL     OW 9634   0.672   3.920  10.804
 2985SOL    HW1 9635   0.754   3.900  10.758
 2985SOL    HW2 9636   0.700   3.954  10.889
 2986SOL     OW 9637   0.068   4.046   9.341
 2986SOL    HW1 9638   4.474   4.062   9.334
 2986SOL    HW2 9639   0.109   4.131   9.325
 2987SOL     OW 9640   0.085   3.903   9.617
 2987SOL    HW1 9641   0.076   3.971   9.551
 2987SOL    HW2 9642   0.160   3.851   9.588
 2988SOL     OW 9643   0.719   4.290  11.022
 2988SOL    HW1 9644   0.749   4.344  11.095
 2988SOL    HW2 9645   0.768   4.209  11.031
 2989SOL     OW 9646   1.220   4.043   9.765
 2989SOL    HW1 9647   1.283   3.972   9.756
 2989SOL    HW2 9648   1.248   4.091   9.843
 2990SOL     OW 9649   1.756   4.051  10.952
 2990SOL    HW1 9650   1.734   4.082  10.864
 2990SOL    HW2 9651   1.672   4.053  10.999
 2991SOL     OW 9652   1.109   0.230   9.415
 2991SOL    HW1 9653   1.088   0.269   9.330
 2991SOL    HW2 9654   1.188   0.178   9.398
 2992SOL     OW 9655   1.811   3.909  10.548
 2992SOL    HW1 9656   1.823   3.816  10.564
 2992SOL    HW2 9657   1.821   3.919  10.453
 2993SOL     OW 9658   0.451   4.151   9.846
 2993SOL    HW1 9659   0.461   4.079   9.785
 2993SOL    HW2 9660   0.391   4.118   9.913
 2994SOL     OW 9661   0.313   4.236  10.576
 2994SOL    HW1 9662   0.374   4.178  10.621
 2994SOL    HW2 9663   0.337   4.230  10.484
 2995SOL     OW 9664   1.432   3.947  10.428
 2995SOL    HW1 9665   1.462   3.870  10.475
 2995SOL    HW2 9666   1.380   3.995  10.492
 2996SOL     OW 9667   1.008   3.745  10.456
 2996SOL    HW1 9668   0.953   3.677  10.417
 2996SOL    HW2 9669   1.096   3.707  10.457
 2997SOL     OW 9670   1.352   3.777   9.473
 2997SOL    HW1 9671   1.378   3.718   9.403
 2997SOL    HW2 9672   1.266   3.746   9.501
 2998SOL     OW 9673   1.299   4.176   9.993
 2998SOL    HW1 9674   1.256   4.261  10.007
 2998SOL    HW2 9675   1.300   4.135  10.079
 2999SOL     OW 9676   1.587   3.929  10.187
 2999SOL    HW1 9677   1.524   3.948  10.256
 2999SOL    HW2 9678   1.588   4.008  10.133
 3000SOL     OW 9679   2.090   0.618   0.121
 3000SOL    HW1 9680   2.002   0.621   0.158
 3000SOL    HW2 9681   2.077   0.628   0.027
 3001SOL     OW 9682   2.072   0.295   0.988
 3001SOL    HW1 9683   2.103   0.269   1.075
 3001SOL    HW2 9684   1.990   0.248   0.976
 3002SOL     OW 9685   1.870   0.383   0.639
 3002SOL    HW1 9686   1.785   0.404   0.676
 3002SOL    HW2 9687   1.854   0.307   0.583
 3003SOL     OW 9688   2.429   1.283   1.171
 3003SOL    HW1 9689   2.341   1.284   1.135
 3003SOL    HW2 9690   2.442   1.371   1.206
 3004SOL     OW 9691   3.419   1.511   0.705
 3004SOL    HW1 9692   3.376   1.493   0.788
 3004SOL    HW2 9693   3.349   1.516   0.641
 3005SOL     OW 9694   2.993   0.700   0.701
 3005SOL    HW1 9695   3.042   0.782   0.690
 3005SOL    HW2 9696   2.944   0.712   0.783
 3006SOL     OW 9697   3.635   0.603   0.221
 3006SOL    HW1 9698   3.587   0.601   0.138
 3006SOL    HW2 9699   3.596   0.533   0.273
 3007SOL     OW 9700   2.622   1.145   1.038
 3007SOL    HW1 9701   2.551   1.177   1.093
 3007SOL    HW2 9702   2.655   1.222   0.993
 3008SOL     OW 9703   2.724   0.780   1.821
 3008SOL    HW1 9704   2.712   0.852   1.884
 3008SOL    HW2 9705   2.748   0.824   1.740
 3009SOL     OW 9706   2.549   1.007   0.648
 3009SOL    HW1 9707   2.613   0.992   0.718
 3009SOL    HW2 9708   2.478   1.056   0.690
 3010SOL     OW 9709   2.570   1.152   1.809
 3010SOL    HW1 9710   2.617   1.231   1.833
 3010SOL    HW2 9711   2.485   1.184   1.776
 3011SOL     OW 9712   2.193   1.428   1.069
 3011SOL    HW1 9713   2.120   1.392   1.018
 3011SOL    HW2 9714   2.244   1.478   1.004
 3012SOL     OW 9715   3.324   1.498   1.350
 3012SOL    HW1 9716   3.367   1.582   1.361
 3012SOL    HW2 9717   3.269   1.489   1.428
 3013SOL     OW 9718   2.303   0.396   1.492
 3013SOL    HW1 9719   2.384   0.346   1.493
 3013SOL    HW2 9720   2.234   0.330   1.504
 3014SOL     OW 9721   3.475   0.448   0.738
 3014SOL    HW1 9722   3.393   0.471   0.693
 3014SOL    HW2 9723   3.496   0.525   0.791
 3015SOL     OW 9724   2.080   1.710   0.473
 3015SOL    HW1 9725   2.105   1.785   0.527
 3015SOL    HW2 9726   2.149   1.704   0.407
 3016SOL     OW 9727   2.998   1.341   1.691
 3016SOL    HW1 9728   3.037   1.338   1.778
 3016SOL    HW2 9729   2.945   1.261   1.686
 3017SOL     OW 9730   2.091   1.439   0.535
 3017SOL    HW1 9731   2.072   1.533   0.538
 3017SOL    HW2 9732   2.028   1.400   0.595
 3018SOL     OW 9733   2.116   1.090   0.890
 3018SOL    HW1 9734   2.113   1.004   0.933
 3018SOL    HW2 9735   2.058   1.145   0.943
 3019SOL     OW 9736   2.476   1.789   1.428
 3019SOL    HW1 9737   2.394   1.772   1.474
 3019SOL    HW2 9738   2.500   1.878   1.455
 3020SOL     OW 9739   2.449   0.985   0.138
 3020SOL    HW1 9740   2.486   1.043   0.072
 3020SOL    HW2 9741   2.493   1.010   0.219
 3021SOL     OW 9742   3.448   0.114   1.475
 3021SOL    HW1 9743   3.459   0.182   1.408
 3021SOL    HW2 9744   3.437   0.162   1.557
 3022SOL     OW 9745   1.977   0.651   0.559
 3022SOL    HW1 9746   1.947   0.562   0.581
 3022SOL    HW2 9747   1.968   0.700   0.641
 3023SOL     OW 9748   3.703   1.761   0.337
 3023SOL    HW1 9749   3.763   1.730   0.405
 3023SOL    HW2 9750   3.732   1.850   0.318
 3024SOL     OW 9751   1.906   1.602   0.121
 3024SOL    HW1 9752   1.877   1.513   0.141
 3024SOL    HW2 9753   1.875   1.655   0.195
 3025SOL     OW 9754   3.552   0.919   0.638
 3025SOL    HW1 9755   3.638   0.881   0.620
 3025SOL    HW2 9756   3.532   0.970   0.560
 3026SOL     OW 9757   3.507   1.107   0.432
 3026SOL    HW1 9758   3.590   1.120   0.384
 3026SOL    HW2 9759   3.512   1.168   0.505
 3027SOL     OW 9760   1.984   0.743   1.586
 3027SOL    HW1 9761   2.075   0.766   1.601
 3027SOL    HW2 9762   1.937   0.826   1.593
 3028SOL     OW 9763   2.475   1.382   0.735
 3028SOL    HW1 9764   2.429   1.299   0.744
 3028SOL    HW2 9765   2.458   1.409   0.644
 3029SOL     OW 9766   3.153   1.239   1.424
 3029SOL    HW1 9767   3.185   1.171   1.365
 3029SOL    HW2 9768   3.208   1.231   1.502
 3030SOL     OW 9769   2.678   0.009   0.548
 3030SOL    HW1 9770   2.715   0.088   0.509
 3030SOL    HW2 9771   2.583   0.022   0.541
 3031SOL     OW 9772   2.054   0.969   1.269
 3031SOL    HW1 9773   2.138   0.925   1.253
 3031SOL    HW2 9774   1.989   0.912   1.227
 3032SOL     OW 9775   3.383   0.998   0.200
 3032SOL    HW1 9776   3.318   0.935   0.233
 3032SOL    HW2 9777   3.430   1.028   0.278
 3033SOL     OW 9778   3.048   1.804   1.620
 3033SOL    HW1 9779   3.062   1.861   1.545
 3033SOL    HW2 9780   3.062   1.715   1.587
 3034SOL     OW 9781   2.177   0.255   1.782
 3034SOL    HW1 9782   2.241   0.319   1.814
 3034SOL    HW2 9783   2.103   0.263   1.841
 3035SOL     OW 9784   3.327   1.420   0.953
 3035SOL    HW1 9785   3.259   1.434   1.019
 3035SOL    HW2 9786   3.316   1.329   0.925
 3036SOL     OW 9787   3.522   1.734   0.579
 3036SOL    HW1 9788   3.501   1.706   0.490
 3036SOL    HW2 9789   3.497   1.660   0.634
 3037SOL     OW 9790   2.455   0.720   0.262
 3037SOL    HW1 9791   2.466   0.801   0.212
 3037SOL    HW2 9792   2.391   0.742   0.330
 3038SOL     OW 9793   3.150   0.357   0.935
 3038SOL    HW1 9794   3.060   0.325   0.924
 3038SOL    HW2 9795   3.190   0.296   0.996
 3039SOL     OW 9796   3.444   1.669   0.311
 3039SOL    HW1 9797   3.533   1.702   0.305
 3039SOL    HW2 9798   3.419   1.650   0.221
 3040SOL     OW 9799   2.658   0.618   1.455
 3040SOL    HW1 9800   2.629   0.594   1.543
 3040SOL    HW2 9801   2.615   0.553   1.398
 3041SOL     OW 9802   3.251   0.478   1.676
 3041SOL    HW1 9803   3.253   0.522   1.761
 3041SOL    HW2 9804   3.318   0.409   1.683
 3042SOL     OW 9805   2.820   0.889   1.581
 3042SOL    HW1 9806   2.873   0.817   1.547
 3042SOL    HW2 9807   2.772   0.921   1.504
 3043SOL     OW 9808   2.857   0.417   1.238
 3043SOL    HW1 9809   2.772   0.431   1.281
 3043SOL    HW2 9810   2.836   0.367   1.160
 3044SOL     OW 9811   2.910   0.701   0.428
 3044SOL    HW1 9812   2.927   0.692   0.522
 3044SOL    HW2 9813   2.829   0.652   0.413
 3045SOL     OW 9814   1.952   0.820   0.775
 3045SOL    HW1 9815   2.033   0.813   0.825
 3045SOL    HW2 9816   1.908   0.897   0.810
 3046SOL     OW 9817   1.988   1.813   1.573
 3046SOL    HW1 9818   1.977   1.811   1.668
 3046SOL    HW2 9819   1.923   1.877   1.543
 3047SOL     OW 9820   2.736   0.358   0.197
 3047SOL    HW1 9821   2.794   0.411   0.144
 3047SOL    HW2 9822   2.770   0.269   0.187
 3048SOL     OW 9823   3.569   0.576   1.828
 3048SOL    HW1 9824   3.534   0.653   1.783
 3048SOL    HW2 9825   3.601   0.519   1.757
 3049SOL     OW 9826   3.237   1.142   0.542
 3049SOL    HW1 9827   3.315   1.127   0.489
 3049SOL    HW2 9828   3.185   1.205   0.491
 3050SOL     OW 9829   2.403   0.202   0.900
 3050SOL    HW1 9830   2.422   0.219   0.992
 3050SOL    HW2 9831   2.395   0.289   0.861
 3051SOL     OW 9832   2.871   1.446   0.474
 3051SOL    HW1 9833   2.829   1.517   0.426
 3051SOL    HW2 9834   2.856   1.468   0.566
 3052SOL     OW 9835   2.216   1.796   0.864
 3052SOL    HW1 9836   2.252   1.708   0.871
 3052SOL    HW2 9837   2.291   1.854   0.881
 3053SOL     OW 9838   3.659   1.060   0.868
 3053SOL    HW1 9839   3.603   1.044   0.792
 3053SOL    HW2 9840   3.599   1.065   0.942
 3054SOL     OW 9841   3.090   1.540   1.512
 3054SOL    HW1 9842   3.076   1.467   1.573
 3054SOL    HW2 9843   3.029   1.523   1.440
 3055SOL     OW 9844   2.180   0.956   0.273
 3055SOL    HW1 9845   2.258   0.982   0.225
 3055SOL    HW2 9846   2.151   0.875   0.231
 3056SOL     OW 9847   3.339   0.739   0.725
 3056SOL    HW1 9848   3.325   0.693   0.808
 3056SOL    HW2 9849   3.414   0.795   0.741
 3057SOL     OW 9850   2.327   1.263   1.737
 3057SOL    HW1 9851   2.298   1.268   1.646
 3057SOL    HW2 9852   2.245   1.261   1.788
 3058SOL     OW 9853   2.969   1.778   0.226
 3058SOL    HW1 9854   2.912   1.725   0.282
 3058SOL    HW2 9855   3.009   1.716   0.166
 3059SOL     OW 9856   2.051   0.268   1.508
 3059SOL    HW1 9857   1.985   0.335   1.491
 3059SOL    HW2 9858   2.060   0.267   1.604
 3060SOL     OW 9859   3.490   1.375   0.088
 3060SOL    HW1 9860   3.448   1.460   0.076
 3060SOL    HW2 9861   3.424   1.311   0.062
 3061SOL     OW 9862   2.329   1.736   0.324
 3061SOL    HW1 9863   2.369   1.796   0.388
 3061SOL    HW2 9864   2.400   1.711   0.266
 3062SOL     OW 9865   3.278   0.129   0.424
 3062SOL    HW1 9866   3.255   0.095   0.338
 3062SOL    HW2 9867   3.374   0.131   0.425
 3063SOL     OW 9868   2.113   1.784   1.236
 3063SOL    HW1 9869   2.169   1.719   1.279
 3063SOL    HW2 9870   2.105   1.752   1.146
 3064SOL     OW 9871   2.798   1.698   0.902
 3064SOL    HW1 9872   2.876   1.645   0.922
 3064SOL    HW2 9873   2.754   1.649   0.832
 3065SOL     OW 9874   2.252   0.694   0.476
 3065SOL    HW1 9875   2.276   0.602   0.488
 3065SOL    HW2 9876   2.159   0.697   0.497
 3066SOL     OW 9877   3.388   0.233   1.722
 3066SOL    HW1 9878   3.387   0.256   1.815
 3066SOL    HW2 9879   3.313   0.174   1.711
 3067SOL     OW 9880   2.466   0.098   0.122
 3067SOL    HW1 9881   2.560   0.082   0.129
 3067SOL    HW2 9882   2.449   0.100   0.028
 3068SOL     OW 9883   2.632   0.271   1.752
 3068SOL    HW1 9884   2.696   0.201   1.770
 3068SOL    HW2 9885   2.583   0.279   1.834
 3069SOL     OW 9886   2.739   1.522   1.193
 3069SOL    HW1 9887   2.724   1.484   1.106
 3069SOL    HW2 9888   2.808   1.466   1.231
 3070SOL     OW 9889   3.204   0.589   1.430
 3070SOL    HW1 9890   3.232   0.559   1.516
 3070SOL    HW2 9891   3.238   0.678   1.423
 3071SOL     OW 9892   2.675   1.399   0.936
 3071SOL    HW1 9893   2.759   1.388   0.891
 3071SOL    HW2 9894   2.610   1.395   0.866
 3072SOL     OW 9895   2.785   0.514   0.902
 3072SOL    HW1 9896   2.768   0.513   0.807
 3072SOL    HW2 9897   2.826   0.429   0.920
 3073SOL     OW 9898   2.415   0.072   0.521
 3073SOL    HW1 9899   2.326   0.051   0.547
 3073SOL    HW2 9900   2.405   0.141   0.454
 3074SOL     OW 9901   3.289   1.196   0.032
 3074SOL    HW1 9902   3.322   1.123   0.085
 3074SOL    HW2 9903   3.205   1.219   0.072
 3075SOL     OW 9904   2.150   0.058   0.196
 3075SOL    HW1 9905   2.217   0.107   0.151
 3075SOL    HW2 9906   2.198   0.004   0.260
 3076SOL     OW 9907   2.810   0.225   0.444
 3076SOL    HW1 9908   2.763   0.292   0.395
 3076SOL    HW2 9909   2.899   0.261   0.454
 3077SOL     OW 9910   2.942   0.679   1.461
 3077SOL    HW1 9911   2.870   0.616   1.463
 3077SOL    HW2 9912   3.020   0.626   1.450
 3078SOL     OW 9913   3.086   1.570   0.794
 3078SOL    HW1 9914   3.105   1.637   0.728
 3078SOL    HW2 9915   3.154   1.580   0.860
 3079SOL     OW 9916   2.330   1.148   0.739
 3079SOL    HW1 9917   2.259   1.129   0.800
 3079SOL    HW2 9918   2.292   1.132   0.652
 3080SOL     OW 9919   3.132   1.795   0.603
 3080SOL    HW1 9920   3.178   1.857   0.546
 3080SOL    HW2 9921   3.070   1.849   0.652
 3081SOL     OW 9922   2.884   0.535   0.032
 3081SOL    HW1 9923   2.848   0.620   0.005
 3081SOL    HW2 9924   2.956   0.557   0.090
 3082SOL     OW 9925   1.941   0.552   1.394
 3082SOL    HW1 9926   2.032   0.554   1.363
 3082SOL    HW2 9927   1.935   0.623   1.457
 3083SOL     OW 9928   2.426   0.241   1.164
 3083SOL    HW1 9929   2.454   0.157   1.201
 3083SOL    HW2 9930   2.334   0.249   1.190
 3084SOL     OW 9931   2.725   0.507   0.627
 3084SOL    HW1 9932   2.677   0.542   0.552
 3084SOL    HW2 9933   2.710   0.412   0.622
 3085SOL     OW 9934   2.831   0.037   0.774
 3085SOL    HW1 9935   2.781   0.028   0.692
 3085SOL    HW2 9936   2.846   4.447   0.803
 3086SOL     OW 9937   3.297   1.164   0.858
 3086SOL    HW1 9938   3.231   1.095   0.856
 3086SOL    HW2 9939   3.321   1.177   0.766
 3087SOL     OW 9940   3.330   0.602   0.979
 3087SOL    HW1 9941   3.279   0.521   0.983
 3087SOL    HW2 9942   3.389   0.597   1.054
 3088SOL     OW 9943   3.712   0.817   0.378
 3088SOL    HW1 9944   3.764   0.765   0.440
 3088SOL    HW2 9945   3.682   0.753   0.313
 3089SOL     OW 9946   2.355   1.423   0.174
 3089SOL    HW1 9947   2.278   1.396   0.223
 3089SOL    HW2 9948   2.349   1.374   0.091
 3090SOL     OW 9949   3.530   1.265   0.649
 3090SOL    HW1 9950   3.625   1.270   0.661
 3090SOL    HW2 9951   3.498   1.353   0.670
 3091SOL     OW 9952   3.252   0.576   0.076
 3091SOL    HW1 9953   3.192   0.556   0.148
 3091SOL    HW2 9954   3.327   0.518   0.091
 3092SOL     OW 9955   2.388   0.264   0.326
 3092SOL    HW1 9956   2.419   0.204   0.257
 3092SOL    HW2 9957   2.373   0.347   0.281
 3093SOL     OW 9958   3.616   1.236   1.576
 3093SOL    HW1 9959   3.703   1.197   1.573
 3093SOL    HW2 9960   3.630   1.326   1.607
 3094SOL     OW 9961   2.923   1.354   1.335
 3094SOL    HW1 9962   2.848   1.322   1.386
 3094SOL    HW2 9963   2.998   1.312   1.376
 3095SOL     OW 9964   3.467   1.625   1.651
 3095SOL    HW1 9965   3.465   1.659   1.562
 3095SOL    HW2 9966   3.551   1.579   1.657
 3096SOL     OW 9967   2.988   1.202   1.107
 3096SOL    HW1 9968   2.929   1.239   1.173
 3096SOL    HW2 9969   2.952   1.232   1.023
 3097SOL     OW 9970   3.493   1.100   1.079
 3097SOL    HW1 9971   3.489   1.162   1.151
 3097SOL    HW2 9972   3.412   1.115   1.030
 3098SOL     OW 9973   2.767   0.130   1.390
 3098SOL    HW1 9974   2.789   0.086   1.308
 3098SOL    HW2 9975   2.851   0.143   1.434
 3099SOL     OW 9976   2.846   1.115   1.722
 3099SOL    HW1 9977   2.753   1.129   1.742
 3099SOL    HW2 9978   2.846   1.037   1.666
 3100SOL     OW 9979   2.571   1.060   0.372
 3100SOL    HW1 9980   2.556   1.046   0.466
 3100SOL    HW2 9981   2.648   1.006   0.352
 3101SOL     OW 9982   2.279   0.814   1.251
 3101SOL    HW1 9983   2.348   0.824   1.316
 3101SOL    HW2 9984   2.244   0.726   1.266
 3102SOL     OW 9985   3.131   0.377   1.271
 3102SOL    HW1 9986   3.163   0.455   1.317
 3102SOL    HW2 9987   3.042   0.400   1.243
 3103SOL     OW 9988   1.928   1.570   1.346
 3103SOL    HW1 9989   1.894   1.648   1.302
 3103SOL    HW2 9990   2.023   1.584   1.348
 3104SOL     OW 9991   2.218   1.111   0.496
 3104SOL    HW1 9992   2.215   1.185   0.435
 3104SOL    HW2 9993   2.211   1.033   0.441
 3105SOL     OW 9994   2.420   0.532   0.859
 3105SOL    HW1 9995   2.436   0.591   0.785
 3105SOL    HW2 9996   2.481   0.562   0.926
 3106SOL     OW 9997   3.110   1.346   0.393
 3106SOL    HW1 9998   3.165   1.419   0.421
 3106SOL    HW2 9999   3.022   1.368   0.425
 3107SOL     OW10000   3.139   1.456   1.146
 3107SOL    HW110001   3.194   1.457   1.224
 3107SOL    HW210002   3.084   1.378   1.157
 3108SOL     OW10003   3.447   0.629   0.474
 3108SOL    HW110004   3.400   0.675   0.542
 3108SOL    HW210005   3.486   0.698   0.420
 3109SOL     OW10006   2.212   1.522   1.319
 3109SOL    HW110007   2.196   1.481   1.234
 3109SOL    HW210008   2.307   1.535   1.322
 3110SOL     OW10009   2.275   0.743   1.602
 3110SOL    HW110010   2.334   0.791   1.543
 3110SOL    HW210011   2.319   0.660   1.619
 3111SOL     OW10012   3.460   0.777   1.679
 3111SOL    HW110013   3.373   0.818   1.672
 3111SOL    HW210014   3.512   0.819   1.611
 3112SOL     OW10015   2.870   0.086   1.727
 3112SOL    HW110016   2.890   0.171   1.687
 3112SOL    HW210017   2.895   0.022   1.661
 3113SOL     OW10018   2.362   0.049   1.755
 3113SOL    HW110019   2.349   0.001   1.674
 3113SOL    HW210020   2.293   0.116   1.755
 3114SOL     OW10021   2.444   0.872   1.031
 3114SOL    HW110022   2.474   0.963   1.028
 3114SOL    HW210023   2.387   0.868   1.108
 3115SOL     OW10024   3.223   0.859   1.033
 3115SOL    HW110025   3.141   0.852   0.983
 3115SOL    HW210026   3.260   0.771   1.030
 3116SOL     OW10027   3.065   0.531   0.268
 3116SOL    HW110028   3.074   0.453   0.322
 3116SOL    HW210029   3.024   0.596   0.326
 3117SOL     OW10030   2.153   0.236   1.240
 3117SOL    HW110031   2.112   0.251   1.325
 3117SOL    HW210032   2.181   0.144   1.244
 3118SOL     OW10033   1.908   1.309   1.277
 3118SOL    HW110034   1.942   1.258   1.350
 3118SOL    HW210035   1.915   1.400   1.306
 3119SOL     OW10036   2.587   0.632   1.060
 3119SOL    HW110037   2.659   0.612   1.000
 3119SOL    HW210038   2.560   0.721   1.036
 3120SOL     OW10039   3.595   0.959   1.851
 3120SOL    HW110040   3.547   0.904   1.789
 3120SOL    HW210041   3.536   0.970   1.925
 3121SOL     OW10042   2.163   0.061   0.652
 3121SOL    HW110043   2.152   0.156   0.659
 3121SOL    HW210044   2.173   0.032   0.743
 3122SOL     OW10045   3.475   0.374   0.367
 3122SOL    HW110046   3.505   0.311   0.432
 3122SOL    HW210047   3.451   0.452   0.418
 3123SOL     OW10048   2.889   0.761   0.962
 3123SOL    HW110049   2.889   0.777   1.057
 3123SOL    HW210050   2.861   0.670   0.954
 3124SOL     OW10051   2.845   1.566   1.714
 3124SOL    HW110052   2.829   1.610   1.631
 3124SOL    HW210053   2.887   1.484   1.690
 3125SOL     OW10054   3.718   1.509   1.606
 3125SOL    HW110055   3.734   1.535   1.515
 3125SOL    HW210056   3.799   1.530   1.652
 3126SOL     OW10057   2.216   0.916   1.807
 3126SOL    HW110058   2.298   0.934   1.853
 3126SOL    HW210059   2.239   0.854   1.739
 3127SOL     OW10060   3.399   0.291   0.114
 3127SOL    HW110061   3.339   0.218   0.127
 3127SOL    HW210062   3.428   0.314   0.203
 3128SOL     OW10063   3.152   0.825   0.033
 3128SOL    HW110064   3.195   0.740   0.043
 3128SOL    HW210065   3.184   0.858  11.049
 3129SOL     OW10066   2.926   1.335   0.852
 3129SOL    HW110067   2.929   1.262   0.790
 3129SOL    HW210068   2.990   1.398   0.818
 3130SOL     OW10069   2.172   0.810   0.948
 3130SOL    HW110070   2.265   0.832   0.942
 3130SOL    HW210071   2.171   0.721   0.983
 3131SOL     OW10072   2.199   0.528   1.013
 3131SOL    HW110073   2.157   0.445   0.993
 3131SOL    HW210074   2.274   0.531   0.953
 3132SOL     OW10075   2.997   0.375   1.692
 3132SOL    HW110076   2.950   0.439   1.744
 3132SOL    HW210077   3.084   0.414   1.679
 3133SOL     OW10078   3.023   0.211   1.474
 3133SOL    HW110079   3.014   0.275   1.544
 3133SOL    HW210080   3.057   0.261   1.400
 3134SOL     OW10081   1.869   1.328   0.196
 3134SOL    HW110082   1.782   1.340   0.157
 3134SOL    HW210083   1.870   1.237   0.225
 3135SOL     OW10084   1.949   1.792   0.934
 3135SOL    HW110085   1.918   1.711   0.893
 3135SOL    HW210086   2.041   1.798   0.908
 3136SOL     OW10087   2.362   1.570   0.905
 3136SOL    HW110088   2.431   1.634   0.924
 3136SOL    HW210089   2.405   1.504   0.851
 3137SOL     OW10090   2.850   0.795   1.229
 3137SOL    HW110091   2.902   0.769   1.305
 3137SOL    HW210092   2.764   0.757   1.245
 3138SOL     OW10093   1.896   0.542   1.118
 3138SOL    HW110094   1.975   0.522   1.068
 3138SOL    HW210095   1.926   0.549   1.208
 3139SOL     OW10096   2.047   0.517   1.720
 3139SOL    HW110097   2.119   0.496   1.661
 3139SOL    HW210098   2.004   0.592   1.679
 3140SOL     OW10099   3.238   0.941   1.659
 3140SOL    HW110100   3.258   1.035   1.660
 3140SOL    HW210101   3.236   0.917   1.567
 3141SOL     OW10102   2.674   0.574   0.355
 3141SOL    HW110103   2.679   0.498   0.297
 3141SOL    HW210104   2.598   0.624   0.323
 3142SOL     OW10105   3.504   0.601   1.190
 3142SOL    HW110106   3.493   0.541   1.263
 3142SOL    HW210107   3.591   0.581   1.155
 3143SOL     OW10108   2.113   1.551   1.733
 3143SOL    HW110109   2.083   1.613   1.800
 3143SOL    HW210110   2.108   1.466   1.775
 3144SOL     OW10111   2.555   0.460   1.265
 3144SOL    HW110112   2.510   0.382   1.232
 3144SOL    HW210113   2.557   0.520   1.191
 3145SOL     OW10114   2.792   1.679   1.466
 3145SOL    HW110115   2.766   1.648   1.379
 3145SOL    HW210116   2.792   1.774   1.459
 3146SOL     OW10117   2.328   0.489   0.182
 3146SOL    HW110118   2.387   0.561   0.202
 3146SOL    HW210119   2.241   0.529   0.178
 3147SOL     OW10120   2.010   1.140   1.472
 3147SOL    HW110121   2.015   1.086   1.551
 3147SOL    HW210122   2.027   1.079   1.400
 3148SOL     OW10123   3.191   1.049   1.225
 3148SOL    HW110124   3.215   0.986   1.157
 3148SOL    HW210125   3.119   1.099   1.187
 3149SOL     OW10126   3.169   0.853   0.310
 3149SOL    HW110127   3.092   0.823   0.357
 3149SOL    HW210128   3.147   0.840   0.217
 3150SOL     OW10129   3.630   1.747   1.148
 3150SOL    HW110130   3.690   1.772   1.078
 3150SOL    HW210131   3.607   1.656   1.128
 3151SOL     OW10132   3.104   1.733   1.117
 3151SOL    HW110133   3.185   1.751   1.070
 3151SOL    HW210134   3.107   1.639   1.134
 3152SOL     OW10135   1.946   1.265   1.014
 3152SOL    HW110136   1.933   1.277   1.108
 3152SOL    HW210137   1.871   1.214   0.985
 3153SOL     OW10138   2.540   1.662   1.723
 3153SOL    HW110139   2.490   1.744   1.724
 3153SOL    HW210140   2.603   1.673   1.652
 3154SOL     OW10141   2.742   0.063   0.126
 3154SOL    HW110142   2.826   0.091   0.089
 3154SOL    HW210143   2.766   0.018   0.207
 3155SOL     OW10144   3.581   0.133   0.501
 3155SOL    HW110145   3.655   0.135   0.440
 3155SOL    HW210146   3.596   0.055   0.554
 3156SOL     OW10147   3.251   1.568   0.483
 3156SOL    HW110148   3.313   1.598   0.416
 3156SOL    HW210149   3.205   1.647   0.511
 3157SOL     OW10150   2.000   1.800   1.848
 3157SOL    HW110151   1.947   1.732   1.890
 3157SOL    HW210152   2.044   1.845   1.920
 3158SOL     OW10153   3.140   0.926   0.673
 3158SOL    HW110154   3.212   0.863   0.675
 3158SOL    HW210155   3.174   0.999   0.620
 3159SOL     OW10156   2.681   1.272   1.431
 3159SOL    HW110157   2.654   1.311   1.515
 3159SOL    HW210158   2.608   1.293   1.372
 3160SOL     OW10159   2.534   1.620   0.166
 3160SOL    HW110160   2.546   1.627   0.071
 3160SOL    HW210161   2.479   1.543   0.177
 3161SOL     OW10162   3.495   1.727   1.392
 3161SOL    HW110163   3.542   1.734   1.309
 3161SOL    HW210164   3.481   1.817   1.421
 3162SOL     OW10165   3.701   0.156   0.967
 3162SOL    HW110166   3.731   0.079   0.918
 3162SOL    HW210167   3.614   0.175   0.931
 3163SOL     OW10168   2.128   0.325   0.720
 3163SOL    HW110169   2.043   0.358   0.691
 3163SOL    HW210170   2.119   0.315   0.814
 3164SOL     OW10171   3.083   1.604   0.050
 3164SOL    HW110172   3.071   1.511   0.071
 3164SOL    HW210173   3.017   1.623  11.084
 3165SOL     OW10174   2.686   1.006   1.372
 3165SOL    HW110175   2.729   1.002   1.286
 3165SOL    HW210176   2.687   1.098   1.395
 3166SOL     OW10177   2.776   0.907   0.283
 3166SOL    HW110178   2.844   0.946   0.227
 3166SOL    HW210179   2.822   0.841   0.334
 3167SOL     OW10180   3.362   1.622   0.046
 3167SOL    HW110181   3.266   1.619   0.041
 3167SOL    HW210182   3.390   1.634  11.055
 3168SOL     OW10183   2.232   1.300   1.492
 3168SOL    HW110184   2.218   1.379   1.439
 3168SOL    HW210185   2.154   1.246   1.475
 3169SOL     OW10186   3.474   1.283   1.281
 3169SOL    HW110187   3.533   1.275   1.356
 3169SOL    HW210188   3.413   1.353   1.305
 3170SOL     OW10189   2.910   1.105   0.704
 3170SOL    HW110190   2.840   1.054   0.745
 3170SOL    HW210191   2.972   1.040   0.672
 3171SOL     OW10192   2.875   0.239   0.989
 3171SOL    HW110193   2.877   0.201   0.901
 3171SOL    HW210194   2.865   0.164   1.047
 3172SOL     OW10195   2.464   1.492   0.482
 3172SOL    HW110196   2.503   1.438   0.414
 3172SOL    HW210197   2.394   1.541   0.438
 3173SOL     OW10198   3.581   0.393   1.378
 3173SOL    HW110199   3.653   0.456   1.376
 3173SOL    HW210200   3.611   0.321   1.322
 3174SOL     OW10201   2.126   1.340   0.290
 3174SOL    HW110202   2.038   1.342   0.254
 3174SOL    HW210203   2.117   1.379   0.377
 3175SOL     OW10204   1.974   1.018   1.719
 3175SOL    HW110205   1.898   0.995   1.773
 3175SOL    HW210206   2.049   0.982   1.767
 3176SOL     OW10207   2.521   0.203   1.496
 3176SOL    HW110208   2.602   0.179   1.450
 3176SOL    HW210209   2.550   0.222   1.586
 3177SOL     OW10210   1.939   0.350   0.053
 3177SOL    HW110211   1.863   0.312   0.010
 3177SOL    HW210212   1.959   0.428   0.002
 3178SOL     OW10213   3.294   0.858   1.401
 3178SOL    HW110214   3.245   0.918   1.344
 3178SOL    HW210215   3.384   0.861   1.368
 3179SOL     OW10216   1.929   0.178   0.326
 3179SOL    HW110217   1.923   0.246   0.259
 3179SOL    HW210218   2.002   0.123   0.299
 3180SOL     OW10219   3.043   1.343   0.121
 3180SOL    HW110220   2.951   1.319   0.117
 3180SOL    HW210221   3.066   1.336   0.214
 3181SOL     OW10222   2.480   0.831   1.432
 3181SOL    HW110223   2.535   0.908   1.418
 3181SOL    HW210224   2.542   0.758   1.441
 3182SOL     OW10225   3.347   1.774   0.975
 3182SOL    HW110226   3.374   1.832   0.903
 3182SOL    HW210227   3.428   1.758   1.024
 3183SOL     OW10228   2.579   0.564   1.706
 3183SOL    HW110229   2.613   0.629   1.768
 3183SOL    HW210230   2.615   0.481   1.736
 3184SOL     OW10231   3.330   1.203   1.633
 3184SOL    HW110232   3.318   1.216   1.727
 3184SOL    HW210233   3.424   1.215   1.619
 3185SOL     OW10234   2.246   1.739   1.564
 3185SOL    HW110235   2.158   1.773   1.547
 3185SOL    HW210236   2.231   1.654   1.605
 3186SOL     OW10237   3.534   0.882   1.256
 3186SOL    HW110238   3.524   0.797   1.213
 3186SOL    HW210239   3.525   0.945   1.185
 3187SOL     OW10240   3.081   0.326   0.447
 3187SOL    HW110241   3.146   0.256   0.439
 3187SOL    HW210242   3.104   0.372   0.528
 3188SOL     OW10243   2.451   0.740   0.668
 3188SOL    HW110244   2.492   0.825   0.651
 3188SOL    HW210245   2.381   0.734   0.602
 3189SOL     OW10246   3.628   0.361   1.642
 3189SOL    HW110247   3.611   0.375   1.549
 3189SOL    HW210248   3.550   0.317   1.675
 3190SOL     OW10249   3.606   0.933   1.513
 3190SOL    HW110250   3.608   1.028   1.526
 3190SOL    HW210251   3.591   0.922   1.419
 3191SOL     OW10252   2.758   1.358   0.061
 3191SOL    HW110253   2.688   1.362   0.125
 3191SOL    HW210254   2.752   1.441   0.014
 3192SOL     OW10255   2.519   1.803   0.938
 3192SOL    HW110256   2.514   1.893   0.972
 3192SOL    HW210257   2.612   1.782   0.939
 3193SOL     OW10258   2.728   0.965   0.856
 3193SOL    HW110259   2.778   0.894   0.896
 3193SOL    HW210260   2.695   1.016   0.930
 3194SOL     OW10261   2.943   0.991   0.086
 3194SOL    HW110262   2.918   1.025   0.000
 3194SOL    HW210263   3.018   0.935   0.069
 3195SOL     OW10264   3.718   1.557   0.846
 3195SOL    HW110265   3.642   1.545   0.789
 3195SOL    HW210266   3.711   1.488   0.912
 3196SOL     OW10267   2.086   1.304   1.856
 3196SOL    HW110268   2.018   1.243   1.827
 3196SOL    HW210269   2.070   1.316   1.949
 3197SOL     OW10270   1.945   1.235   0.664
 3197SOL    HW110271   1.946   1.186   0.745
 3197SOL    HW210272   2.016   1.197   0.611
 3198SOL     OW10273   2.541   1.401   1.625
 3198SOL    HW110274   2.462   1.356   1.656
 3198SOL    HW210275   2.536   1.488   1.663
 3199SOL     OW10276   3.672   0.184   1.239
 3199SOL    HW110277   3.672   0.090   1.260
 3199SOL    HW210278   3.688   0.187   1.144
 3200SOL     OW10279   2.295   0.433   0.527
 3200SOL    HW110280   2.321   0.361   0.468
 3200SOL    HW210281   2.242   0.390   0.594
 3201SOL     OW10282   3.563   1.491   1.101
 3201SOL    HW110283   3.482   1.465   1.056
 3201SOL    HW210284   3.578   1.423   1.165
 3202SOL     OW10285   2.189   0.555   1.291
 3202SOL    HW110286   2.245   0.499   1.345
 3202SOL    HW210287   2.210   0.528   1.201
 3203SOL     OW10288   2.686   1.578   0.680
 3203SOL    HW110289   2.680   1.620   0.594
 3203SOL    HW210290   2.609   1.522   0.685
 3204SOL     OW10291   3.294   0.216   1.118
 3204SOL    HW110292   3.331   0.146   1.171
 3204SOL    HW210293   3.243   0.269   1.179
 3205SOL     OW10294   2.859   0.014   1.147
 3205SOL    HW110295   2.813   4.431   1.138
 3205SOL    HW210296   2.951   4.489   1.161
 3206SOL     OW10297   2.629   1.329   0.313
 3206SOL    HW110298   2.598   1.239   0.325
 3206SOL    HW210299   2.714   1.331   0.356
 3207SOL     OW10300   2.482   1.559   1.282
 3207SOL    HW110301   2.485   1.639   1.334
 3207SOL    HW210302   2.571   1.550   1.246
 3208SOL     OW10303   3.209   0.059   0.168
 3208SOL    HW110304   3.246   0.006   0.098
 3208SOL    HW210305   3.131   0.011   0.197
 3209SOL     OW10306   3.177   0.463   0.682
 3209SOL    HW110307   3.113   0.534   0.682
 3209SOL    HW210308   3.164   0.419   0.766
 3210SOL     OW10309   3.448   0.203   0.868
 3210SOL    HW110310   3.387   0.217   0.940
 3210SOL    HW210311   3.451   0.286   0.821
 3211SOL     OW10312   1.905   1.072   0.300
 3211SOL    HW110313   2.000   1.065   0.295
 3211SOL    HW210314   1.876   0.985   0.327
 3212SOL     OW10315   2.744   1.650   0.347
 3212SOL    HW110316   2.673   1.629   0.287
 3212SOL    HW210317   2.712   1.725   0.397
 3213SOL     OW10318   2.092   0.627   1.981
 3213SOL    HW110319   2.004   0.621   2.018
 3213SOL    HW210320   2.083   0.595   1.892
 3214SOL     OW10321   2.072   0.295   2.850
 3214SOL    HW110322   2.103   0.269   2.937
 3214SOL    HW210323   1.990   0.248   2.839
 3215SOL     OW10324   1.871   0.383   2.502
 3215SOL    HW110325   1.784   0.404   2.538
 3215SOL    HW210326   1.855   0.309   2.444
 3216SOL     OW10327   2.429   1.283   3.034
 3216SOL    HW110328   2.341   1.285   2.996
 3216SOL    HW210329   2.443   1.371   3.068
 3217SOL     OW10330   3.419   1.512   2.568
 3217SOL    HW110331   3.375   1.493   2.651
 3217SOL    HW210332   3.349   1.516   2.503
 3218SOL     OW10333   2.994   0.700   2.564
 3218SOL    HW110334   3.042   0.782   2.552
 3218SOL    HW210335   2.944   0.712   2.645
 3219SOL     OW10336   3.626   0.609   2.092
 3219SOL    HW110337   3.608   0.597   1.998
 3219SOL    HW210338   3.595   0.528   2.133
 3220SOL     OW10339   2.622   1.145   2.900
 3220SOL    HW110340   2.551   1.177   2.956
 3220SOL    HW210341   2.655   1.222   2.855
 3221SOL     OW10342   2.724   0.780   3.683
 3221SOL    HW110343   2.712   0.851   3.746
 3221SOL    HW210344   2.748   0.824   3.602
 3222SOL     OW10345   2.549   1.007   2.511
 3222SOL    HW110346   2.612   0.992   2.581
 3222SOL    HW210347   2.478   1.056   2.553
 3223SOL     OW10348   2.569   1.152   3.670
 3223SOL    HW110349   2.617   1.231   3.695
 3223SOL    HW210350   2.485   1.183   3.638
 3224SOL     OW10351   2.194   1.428   2.930
 3224SOL    HW110352   2.121   1.393   2.880
 3224SOL    HW210353   2.244   1.479   2.867
 3225SOL     OW10354   3.324   1.498   3.213
 3225SOL    HW110355   3.367   1.583   3.223
 3225SOL    HW210356   3.268   1.489   3.290
 3226SOL     OW10357   2.303   0.396   3.354
 3226SOL    HW110358   2.384   0.346   3.355
 3226SOL    HW210359   2.234   0.330   3.366
 3227SOL     OW10360   3.475   0.448   2.600
 3227SOL    HW110361   3.394   0.472   2.554
 3227SOL    HW210362   3.496   0.525   2.652
 3228SOL     OW10363   2.083   1.724   2.337
 3228SOL    HW110364   2.124   1.769   2.411
 3228SOL    HW210365   2.155   1.709   2.276
 3229SOL     OW10366   2.998   1.341   3.553
 3229SOL    HW110367   3.037   1.338   3.641
 3229SOL    HW210368   2.945   1.262   3.548
 3230SOL     OW10369   2.089   1.442   2.395
 3230SOL    HW110370   2.067   1.535   2.406
 3230SOL    HW210371   2.030   1.397   2.456
 3231SOL     OW10372   2.116   1.090   2.752
 3231SOL    HW110373   2.113   1.004   2.795
 3231SOL    HW210374   2.058   1.145   2.805
 3232SOL     OW10375   2.477   1.791   3.293
 3232SOL    HW110376   2.394   1.773   3.337
 3232SOL    HW210377   2.499   1.881   3.317
 3233SOL     OW10378   2.451   0.979   1.994
 3233SOL    HW110379   2.494   1.032   1.926
 3233SOL    HW210380   2.492   1.008   2.075
 3234SOL     OW10381   3.448   0.114   3.337
 3234SOL    HW110382   3.459   0.182   3.270
 3234SOL    HW210383   3.437   0.162   3.419
 3235SOL     OW10384   1.977   0.651   2.421
 3235SOL    HW110385   1.948   0.562   2.443
 3235SOL    HW210386   1.968   0.700   2.503
 3236SOL     OW10387   3.703   1.761   2.199
 3236SOL    HW110388   3.762   1.732   2.268
 3236SOL    HW210389   3.731   1.851   2.181
 3237SOL     OW10390   1.894   1.597   1.986
 3237SOL    HW110391   1.876   1.505   2.003
 3237SOL    HW210392   1.866   1.642   2.066
 3238SOL     OW10393   3.553   0.921   2.500
 3238SOL    HW110394   3.638   0.880   2.481
 3238SOL    HW210395   3.532   0.969   2.421
 3239SOL     OW10396   3.507   1.108   2.291
 3239SOL    HW110397   3.592   1.117   2.249
 3239SOL    HW210398   3.511   1.168   2.366
 3240SOL     OW10399   1.984   0.743   3.448
 3240SOL    HW110400   2.076   0.765   3.463
 3240SOL    HW210401   1.937   0.826   3.455
 3241SOL     OW10402   2.475   1.382   2.597
 3241SOL    HW110403   2.429   1.299   2.606
 3241SOL    HW210404   2.458   1.409   2.506
 3242SOL     OW10405   3.153   1.239   3.286
 3242SOL    HW110406   3.185   1.171   3.227
 3242SOL    HW210407   3.208   1.231   3.364
 3243SOL     OW10408   2.677   0.011   2.407
 3243SOL    HW110409   2.711   0.098   2.384
 3243SOL    HW210410   2.582   0.021   2.401
 3244SOL     OW10411   2.054   0.969   3.131
 3244SOL    HW110412   2.138   0.925   3.115
 3244SOL    HW210413   1.989   0.912   3.089
 3245SOL     OW10414   3.394   0.991   2.058
 3245SOL    HW110415   3.324   0.934   2.088
 3245SOL    HW210416   3.433   1.025   2.139
 3246SOL     OW10417   3.048   1.804   3.482
 3246SOL    HW110418   3.063   1.860   3.406
 3246SOL    HW210419   3.062   1.715   3.449
 3247SOL     OW10420   2.178   0.255   3.644
 3247SOL    HW110421   2.241   0.319   3.676
 3247SOL    HW210422   2.103   0.263   3.703
 3248SOL     OW10423   3.328   1.419   2.815
 3248SOL    HW110424   3.259   1.434   2.881
 3248SOL    HW210425   3.316   1.329   2.788
 3249SOL     OW10426   3.524   1.733   2.439
 3249SOL    HW110427   3.500   1.705   2.351
 3249SOL    HW210428   3.497   1.660   2.496
 3250SOL     OW10429   2.456   0.724   2.126
 3250SOL    HW110430   2.464   0.804   2.074
 3250SOL    HW210431   2.391   0.745   2.193
 3251SOL     OW10432   3.152   0.358   2.796
 3251SOL    HW110433   3.063   0.327   2.781
 3251SOL    HW210434   3.189   0.296   2.859
 3252SOL     OW10435   3.443   1.668   2.171
 3252SOL    HW110436   3.533   1.703   2.165
 3252SOL    HW210437   3.418   1.651   2.080
 3253SOL     OW10438   2.658   0.618   3.317
 3253SOL    HW110439   2.629   0.594   3.405
 3253SOL    HW210440   2.615   0.554   3.260
 3254SOL     OW10441   3.251   0.478   3.538
 3254SOL    HW110442   3.253   0.522   3.623
 3254SOL    HW210443   3.318   0.410   3.545
 3255SOL     OW10444   2.820   0.889   3.443
 3255SOL    HW110445   2.873   0.817   3.409
 3255SOL    HW210446   2.773   0.921   3.366
 3256SOL     OW10447   2.857   0.416   3.100
 3256SOL    HW110448   2.772   0.431   3.141
 3256SOL    HW210449   2.838   0.365   3.022
 3257SOL     OW10450   2.911   0.698   2.290
 3257SOL    HW110451   2.926   0.691   2.384
 3257SOL    HW210452   2.829   0.651   2.275
 3258SOL     OW10453   1.951   0.820   2.638
 3258SOL    HW110454   2.033   0.813   2.687
 3258SOL    HW210455   1.908   0.898   2.673
 3259SOL     OW10456   1.989   1.809   3.436
 3259SOL    HW110457   1.976   1.807   3.531
 3259SOL    HW210458   1.922   1.870   3.404
 3260SOL     OW10459   2.716   0.368   2.041
 3260SOL    HW110460   2.791   0.403   1.994
 3260SOL    HW210461   2.733   0.274   2.046
 3261SOL     OW10462   3.569   0.576   3.690
 3261SOL    HW110463   3.534   0.653   3.645
 3261SOL    HW210464   3.601   0.519   3.619
 3262SOL     OW10465   3.237   1.143   2.404
 3262SOL    HW110466   3.315   1.128   2.351
 3262SOL    HW210467   3.185   1.205   2.353
 3263SOL     OW10468   2.402   0.202   2.763
 3263SOL    HW110469   2.421   0.219   2.855
 3263SOL    HW210470   2.393   0.288   2.723
 3264SOL     OW10471   2.871   1.446   2.336
 3264SOL    HW110472   2.830   1.517   2.287
 3264SOL    HW210473   2.856   1.468   2.428
 3265SOL     OW10474   2.218   1.807   2.701
 3265SOL    HW110475   2.261   1.723   2.719
 3265SOL    HW210476   2.285   1.872   2.720
 3266SOL     OW10477   3.660   1.062   2.729
 3266SOL    HW110478   3.603   1.043   2.654
 3266SOL    HW210479   3.599   1.065   2.803
 3267SOL     OW10480   3.090   1.540   3.374
 3267SOL    HW110481   3.076   1.467   3.435
 3267SOL    HW210482   3.029   1.523   3.302
 3268SOL     OW10483   2.183   0.955   2.110
 3268SOL    HW110484   2.265   0.974   2.064
 3268SOL    HW210485   2.152   0.874   2.070
 3269SOL     OW10486   3.339   0.739   2.587
 3269SOL    HW110487   3.325   0.692   2.670
 3269SOL    HW210488   3.415   0.795   2.604
 3270SOL     OW10489   2.326   1.263   3.599
 3270SOL    HW110490   2.298   1.268   3.508
 3270SOL    HW210491   2.245   1.262   3.650
 3271SOL     OW10492   2.983   1.777   2.094
 3271SOL    HW110493   2.911   1.734   2.141
 3271SOL    HW210494   3.004   1.718   2.022
 3272SOL     OW10495   2.051   0.268   3.370
 3272SOL    HW110496   1.985   0.335   3.353
 3272SOL    HW210497   2.060   0.267   3.466
 3273SOL     OW10498   3.492   1.379   1.948
 3273SOL    HW110499   3.450   1.464   1.934
 3273SOL    HW210500   3.422   1.315   1.930
 3274SOL     OW10501   2.328   1.724   2.199
 3274SOL    HW110502   2.365   1.796   2.251
 3274SOL    HW210503   2.390   1.712   2.127
 3275SOL     OW10504   3.278   0.132   2.281
 3275SOL    HW110505   3.261   0.085   2.199
 3275SOL    HW210506   3.373   0.129   2.290
 3276SOL     OW10507   2.110   1.785   3.095
 3276SOL    HW110508   2.168   1.724   3.140
 3276SOL    HW210509   2.106   1.753   3.005
 3277SOL     OW10510   2.801   1.698   2.763
 3277SOL    HW110511   2.878   1.644   2.782
 3277SOL    HW210512   2.755   1.650   2.695
 3278SOL     OW10513   2.252   0.695   2.339
 3278SOL    HW110514   2.277   0.603   2.350
 3278SOL    HW210515   2.159   0.697   2.358
 3279SOL     OW10516   3.388   0.233   3.584
 3279SOL    HW110517   3.387   0.256   3.677
 3279SOL    HW210518   3.313   0.175   3.573
 3280SOL     OW10519   2.486   0.123   1.982
 3280SOL    HW110520   2.574   0.087   1.991
 3280SOL    HW210521   2.454   0.088   1.899
 3281SOL     OW10522   2.632   0.270   3.614
 3281SOL    HW110523   2.696   0.202   3.632
 3281SOL    HW210524   2.584   0.280   3.696
 3282SOL     OW10525   2.739   1.521   3.055
 3282SOL    HW110526   2.724   1.485   2.968
 3282SOL    HW210527   2.808   1.466   3.092
 3283SOL     OW10528   3.205   0.589   3.292
 3283SOL    HW110529   3.232   0.559   3.378
 3283SOL    HW210530   3.238   0.678   3.285
 3284SOL     OW10531   2.675   1.398   2.798
 3284SOL    HW110532   2.759   1.388   2.753
 3284SOL    HW210533   2.610   1.396   2.728
 3285SOL     OW10534   2.784   0.515   2.764
 3285SOL    HW110535   2.768   0.513   2.669
 3285SOL    HW210536   2.825   0.431   2.783
 3286SOL     OW10537   2.415   0.072   2.382
 3286SOL    HW110538   2.325   0.049   2.406
 3286SOL    HW210539   2.405   0.141   2.315
 3287SOL     OW10540   3.291   1.197   1.903
 3287SOL    HW110541   3.321   1.122   1.953
 3287SOL    HW210542   3.205   1.217   1.940
 3288SOL     OW10543   2.158   0.072   2.054
 3288SOL    HW110544   2.237   0.123   2.036
 3288SOL    HW210545   2.189   4.499   2.108
 3289SOL     OW10546   2.811   0.240   2.334
 3289SOL    HW110547   2.760   0.289   2.270
 3289SOL    HW210548   2.900   0.275   2.325
 3290SOL     OW10549   2.942   0.679   3.323
 3290SOL    HW110550   2.869   0.616   3.325
 3290SOL    HW210551   3.020   0.625   3.311
 3291SOL     OW10552   3.087   1.569   2.655
 3291SOL    HW110553   3.105   1.637   2.590
 3291SOL    HW210554   3.154   1.581   2.722
 3292SOL     OW10555   2.329   1.148   2.599
 3292SOL    HW110556   2.258   1.129   2.661
 3292SOL    HW210557   2.291   1.130   2.513
 3293SOL     OW10558   3.133   1.795   2.468
 3293SOL    HW110559   3.177   1.857   2.409
 3293SOL    HW210560   3.068   1.848   2.514
 3294SOL     OW10561   2.893   0.549   1.876
 3294SOL    HW110562   2.845   0.631   1.861
 3294SOL    HW210563   2.951   0.569   1.950
 3295SOL     OW10564   1.941   0.552   3.256
 3295SOL    HW110565   2.032   0.554   3.225
 3295SOL    HW210566   1.935   0.624   3.319
 3296SOL     OW10567   2.426   0.241   3.026
 3296SOL    HW110568   2.454   0.157   3.064
 3296SOL    HW210569   2.334   0.249   3.053
 3297SOL     OW10570   2.728   0.501   2.488
 3297SOL    HW110571   2.677   0.543   2.419
 3297SOL    HW210572   2.712   0.407   2.477
 3298SOL     OW10573   2.833   0.032   2.636
 3298SOL    HW110574   2.783   0.027   2.555
 3298SOL    HW210575   2.842   4.441   2.664
 3299SOL     OW10576   3.298   1.164   2.720
 3299SOL    HW110577   3.230   1.096   2.719
 3299SOL    HW210578   3.320   1.177   2.627
 3300SOL     OW10579   3.330   0.602   2.841
 3300SOL    HW110580   3.279   0.521   2.845
 3300SOL    HW210581   3.389   0.597   2.916
 3301SOL     OW10582   3.710   0.819   2.243
 3301SOL    HW110583   3.765   0.766   2.302
 3301SOL    HW210584   3.680   0.757   2.176
 3302SOL     OW10585   2.354   1.414   2.022
 3302SOL    HW110586   2.280   1.385   2.075
 3302SOL    HW210587   2.333   1.386   1.933
 3303SOL     OW10588   3.530   1.266   2.510
 3303SOL    HW110589   3.625   1.271   2.523
 3303SOL    HW210590   3.498   1.353   2.532
 3304SOL     OW10591   3.256   0.570   1.932
 3304SOL    HW110592   3.195   0.554   2.004
 3304SOL    HW210593   3.342   0.548   1.968
 3305SOL     OW10594   2.386   0.266   2.187
 3305SOL    HW110595   2.429   0.213   2.119
 3305SOL    HW210596   2.371   0.350   2.144
 3306SOL     OW10597   3.615   1.236   3.438
 3306SOL    HW110598   3.703   1.197   3.436
 3306SOL    HW210599   3.630   1.325   3.469
 3307SOL     OW10600   2.923   1.354   3.197
 3307SOL    HW110601   2.848   1.322   3.248
 3307SOL    HW210602   2.999   1.312   3.238
 3308SOL     OW10603   3.467   1.625   3.513
 3308SOL    HW110604   3.465   1.659   3.424
 3308SOL    HW210605   3.551   1.579   3.519
 3309SOL     OW10606   2.988   1.202   2.969
 3309SOL    HW110607   2.929   1.239   3.035
 3309SOL    HW210608   2.953   1.232   2.885
 3310SOL     OW10609   3.493   1.100   2.941
 3310SOL    HW110610   3.489   1.162   3.013
 3310SOL    HW210611   3.412   1.114   2.892
 3311SOL     OW10612   2.767   0.130   3.252
 3311SOL    HW110613   2.789   0.087   3.170
 3311SOL    HW210614   2.851   0.143   3.296
 3312SOL     OW10615   2.846   1.115   3.584
 3312SOL    HW110616   2.753   1.130   3.604
 3312SOL    HW210617   2.846   1.037   3.528
 3313SOL     OW10618   2.570   1.060   2.234
 3313SOL    HW110619   2.557   1.046   2.328
 3313SOL    HW210620   2.646   1.007   2.212
 3314SOL     OW10621   2.279   0.814   3.113
 3314SOL    HW110622   2.348   0.824   3.178
 3314SOL    HW210623   2.244   0.726   3.128
 3315SOL     OW10624   3.131   0.377   3.133
 3315SOL    HW110625   3.163   0.455   3.179
 3315SOL    HW210626   3.043   0.399   3.105
 3316SOL     OW10627   1.928   1.570   3.208
 3316SOL    HW110628   1.895   1.648   3.163
 3316SOL    HW210629   2.023   1.583   3.210
 3317SOL     OW10630   2.215   1.106   2.354
 3317SOL    HW110631   2.219   1.179   2.292
 3317SOL    HW210632   2.214   1.028   2.299
 3318SOL     OW10633   2.420   0.532   2.721
 3318SOL    HW110634   2.435   0.591   2.647
 3318SOL    HW210635   2.481   0.562   2.788
 3319SOL     OW10636   3.110   1.348   2.251
 3319SOL    HW110637   3.165   1.420   2.282
 3319SOL    HW210638   3.023   1.368   2.285
 3320SOL     OW10639   3.139   1.456   3.008
 3320SOL    HW110640   3.193   1.457   3.086
 3320SOL    HW210641   3.084   1.378   3.018
 3321SOL     OW10642   3.445   0.625   2.337
 3321SOL    HW110643   3.400   0.678   2.403
 3321SOL    HW210644   3.490   0.689   2.281
 3322SOL     OW10645   2.212   1.522   3.181
 3322SOL    HW110646   2.197   1.481   3.096
 3322SOL    HW210647   2.307   1.535   3.184
 3323SOL     OW10648   2.275   0.743   3.464
 3323SOL    HW110649   2.334   0.791   3.405
 3323SOL    HW210650   2.319   0.660   3.481
 3324SOL     OW10651   3.460   0.777   3.541
 3324SOL    HW110652   3.373   0.818   3.534
 3324SOL    HW210653   3.512   0.819   3.473
 3325SOL     OW10654   2.870   0.086   3.589
 3325SOL    HW110655   2.890   0.171   3.550
 3325SOL    HW210656   2.896   0.022   3.523
 3326SOL     OW10657   2.361   0.049   3.618
 3326SOL    HW110658   2.349   0.002   3.535
 3326SOL    HW210659   2.293   0.116   3.617
 3327SOL     OW10660   2.444   0.873   2.893
 3327SOL    HW110661   2.474   0.963   2.890
 3327SOL    HW210662   2.387   0.868   2.970
 3328SOL     OW10663   3.223   0.859   2.895
 3328SOL    HW110664   3.141   0.852   2.846
 3328SOL    HW210665   3.260   0.771   2.892
 3329SOL     OW10666   3.069   0.535   2.128
 3329SOL    HW110667   3.075   0.454   2.179
 3329SOL    HW210668   3.026   0.597   2.187
 3330SOL     OW10669   2.152   0.235   3.102
 3330SOL    HW110670   2.112   0.251   3.187
 3330SOL    HW210671   2.181   0.144   3.106
 3331SOL     OW10672   1.907   1.309   3.139
 3331SOL    HW110673   1.942   1.258   3.212
 3331SOL    HW210674   1.915   1.400   3.168
 3332SOL     OW10675   2.587   0.632   2.922
 3332SOL    HW110676   2.659   0.612   2.863
 3332SOL    HW210677   2.560   0.721   2.898
 3333SOL     OW10678   3.595   0.959   3.712
 3333SOL    HW110679   3.546   0.904   3.651
 3333SOL    HW210680   3.536   0.970   3.787
 3334SOL     OW10681   2.161   0.060   2.515
 3334SOL    HW110682   2.151   0.155   2.520
 3334SOL    HW210683   2.172   0.032   2.606
 3335SOL     OW10684   3.473   0.374   2.228
 3335SOL    HW110685   3.504   0.312   2.293
 3335SOL    HW210686   3.451   0.453   2.279
 3336SOL     OW10687   2.889   0.761   2.825
 3336SOL    HW110688   2.889   0.777   2.919
 3336SOL    HW210689   2.861   0.670   2.816
 3337SOL     OW10690   2.845   1.567   3.576
 3337SOL    HW110691   2.829   1.610   3.492
 3337SOL    HW210692   2.887   1.484   3.553
 3338SOL     OW10693   3.718   1.509   3.468
 3338SOL    HW110694   3.734   1.535   3.377
 3338SOL    HW210695   3.799   1.530   3.514
 3339SOL     OW10696   2.216   0.916   3.669
 3339SOL    HW110697   2.297   0.934   3.715
 3339SOL    HW210698   2.240   0.854   3.600
 3340SOL     OW10699   3.394   0.267   1.990
 3340SOL    HW110700   3.322   0.211   2.017
 3340SOL    HW210701   3.422   0.312   2.070
 3341SOL     OW10702   3.157   0.827   1.895
 3341SOL    HW110703   3.198   0.741   1.897
 3341SOL    HW210704   3.187   0.866   1.813
 3342SOL     OW10705   2.927   1.335   2.714
 3342SOL    HW110706   2.929   1.262   2.653
 3342SOL    HW210707   2.990   1.398   2.679
 3343SOL     OW10708   2.172   0.810   2.810
 3343SOL    HW110709   2.265   0.833   2.804
 3343SOL    HW210710   2.171   0.721   2.845
 3344SOL     OW10711   2.199   0.528   2.874
 3344SOL    HW110712   2.157   0.445   2.855
 3344SOL    HW210713   2.274   0.531   2.816
 3345SOL     OW10714   2.997   0.375   3.554
 3345SOL    HW110715   2.949   0.440   3.606
 3345SOL    HW210716   3.084   0.414   3.541
 3346SOL     OW10717   3.023   0.211   3.336
 3346SOL    HW110718   3.014   0.275   3.406
 3346SOL    HW210719   3.057   0.261   3.262
 3347SOL     OW10720   1.867   1.323   2.057
 3347SOL    HW110721   1.780   1.336   2.020
 3347SOL    HW210722   1.865   1.233   2.090
 3348SOL     OW10723   1.959   1.786   2.792
 3348SOL    HW110724   1.928   1.704   2.753
 3348SOL    HW210725   2.046   1.798   2.756
 3349SOL     OW10726   2.359   1.573   2.766
 3349SOL    HW110727   2.428   1.635   2.791
 3349SOL    HW210728   2.404   1.507   2.714
 3350SOL     OW10729   2.850   0.795   3.091
 3350SOL    HW110730   2.902   0.769   3.167
 3350SOL    HW210731   2.764   0.757   3.107
 3351SOL     OW10732   1.896   0.541   2.980
 3351SOL    HW110733   1.975   0.522   2.929
 3351SOL    HW210734   1.926   0.549   3.070
 3352SOL     OW10735   2.047   0.517   3.581
 3352SOL    HW110736   2.119   0.496   3.523
 3352SOL    HW210737   2.004   0.592   3.541
 3353SOL     OW10738   3.238   0.941   3.521
 3353SOL    HW110739   3.258   1.035   3.522
 3353SOL    HW210740   3.236   0.917   3.429
 3354SOL     OW10741   2.674   0.573   2.215
 3354SOL    HW110742   2.677   0.501   2.152
 3354SOL    HW210743   2.599   0.626   2.186
 3355SOL     OW10744   3.504   0.601   3.052
 3355SOL    HW110745   3.493   0.541   3.125
 3355SOL    HW210746   3.591   0.581   3.017
 3356SOL     OW10747   2.114   1.552   3.596
 3356SOL    HW110748   2.082   1.613   3.663
 3356SOL    HW210749   2.108   1.466   3.638
 3357SOL     OW10750   2.555   0.460   3.128
 3357SOL    HW110751   2.510   0.382   3.094
 3357SOL    HW210752   2.557   0.520   3.053
 3358SOL     OW10753   2.792   1.679   3.328
 3358SOL    HW110754   2.766   1.647   3.242
 3358SOL    HW210755   2.792   1.774   3.320
 3359SOL     OW10756   2.329   0.493   2.047
 3359SOL    HW110757   2.387   0.566   2.068
 3359SOL    HW210758   2.242   0.533   2.039
 3360SOL     OW10759   2.010   1.140   3.334
 3360SOL    HW110760   2.015   1.086   3.413
 3360SOL    HW210761   2.027   1.078   3.262
 3361SOL     OW10762   3.191   1.049   3.087
 3361SOL    HW110763   3.215   0.986   3.019
 3361SOL    HW210764   3.119   1.099   3.049
 3362SOL     OW10765   3.171   0.856   2.169
 3362SOL    HW110766   3.095   0.827   2.219
 3362SOL    HW210767   3.147   0.843   2.078
 3363SOL     OW10768   3.630   1.747   3.011
 3363SOL    HW110769   3.690   1.772   2.940
 3363SOL    HW210770   3.607   1.656   2.990
 3364SOL     OW10771   3.104   1.733   2.979
 3364SOL    HW110772   3.185   1.751   2.932
 3364SOL    HW210773   3.107   1.639   2.996
 3365SOL     OW10774   1.946   1.265   2.876
 3365SOL    HW110775   1.933   1.277   2.970
 3365SOL    HW210776   1.871   1.213   2.847
 3366SOL     OW10777   2.541   1.663   3.586
 3366SOL    HW110778   2.490   1.744   3.583
 3366SOL    HW210779   2.603   1.672   3.514
 3367SOL     OW10780   3.580   0.130   2.360
 3367SOL    HW110781   3.654   0.135   2.299
 3367SOL    HW210782   3.600   0.056   2.417
 3368SOL     OW10783   3.252   1.568   2.345
 3368SOL    HW110784   3.312   1.599   2.277
 3368SOL    HW210785   3.204   1.646   2.372
 3369SOL     OW10786   1.992   1.802   3.708
 3369SOL    HW110787   1.943   1.733   3.753
 3369SOL    HW210788   2.045   1.843   3.776
 3370SOL     OW10789   3.140   0.926   2.534
 3370SOL    HW110790   3.213   0.863   2.538
 3370SOL    HW210791   3.174   0.999   2.482
 3371SOL     OW10792   2.681   1.272   3.293
 3371SOL    HW110793   2.654   1.310   3.377
 3371SOL    HW210794   2.609   1.293   3.233
 3372SOL     OW10795   2.535   1.617   2.015
 3372SOL    HW110796   2.543   1.626   1.920
 3372SOL    HW210797   2.481   1.539   2.027
 3373SOL     OW10798   3.495   1.727   3.254
 3373SOL    HW110799   3.542   1.734   3.171
 3373SOL    HW210800   3.481   1.817   3.283
 3374SOL     OW10801   3.701   0.155   2.829
 3374SOL    HW110802   3.732   0.080   2.779
 3374SOL    HW210803   3.614   0.174   2.793
 3375SOL     OW10804   2.129   0.325   2.582
 3375SOL    HW110805   2.044   0.358   2.553
 3375SOL    HW210806   2.120   0.314   2.676
 3376SOL     OW10807   3.068   1.608   1.893
 3376SOL    HW110808   3.059   1.517   1.921
 3376SOL    HW210809   3.003   1.618   1.823
 3377SOL     OW10810   2.686   1.006   3.234
 3377SOL    HW110811   2.729   1.002   3.148
 3377SOL    HW210812   2.687   1.098   3.257
 3378SOL     OW10813   2.777   0.910   2.151
 3378SOL    HW110814   2.840   0.941   2.086
 3378SOL    HW210815   2.823   0.839   2.196
 3379SOL     OW10816   3.357   1.624   1.904
 3379SOL    HW110817   3.262   1.620   1.893
 3379SOL    HW210818   3.391   1.630   1.815
 3380SOL     OW10819   2.232   1.300   3.354
 3380SOL    HW110820   2.219   1.378   3.300
 3380SOL    HW210821   2.154   1.246   3.337
 3381SOL     OW10822   3.474   1.283   3.143
 3381SOL    HW110823   3.532   1.275   3.219
 3381SOL    HW210824   3.413   1.353   3.167
 3382SOL     OW10825   2.910   1.105   2.567
 3382SOL    HW110826   2.840   1.054   2.607
 3382SOL    HW210827   2.971   1.040   2.533
 3383SOL     OW10828   2.870   0.241   2.858
 3383SOL    HW110829   2.877   0.212   2.768
 3383SOL    HW210830   2.863   0.160   2.909
 3384SOL     OW10831   2.462   1.490   2.344
 3384SOL    HW110832   2.503   1.438   2.274
 3384SOL    HW210833   2.400   1.547   2.298
 3385SOL     OW10834   3.581   0.393   3.240
 3385SOL    HW110835   3.653   0.456   3.238
 3385SOL    HW210836   3.611   0.321   3.184
 3386SOL     OW10837   2.120   1.347   2.149
 3386SOL    HW110838   2.027   1.345   2.127
 3386SOL    HW210839   2.123   1.384   2.237
 3387SOL     OW10840   1.974   1.017   3.581
 3387SOL    HW110841   1.898   0.995   3.635
 3387SOL    HW210842   2.049   0.982   3.629
 3388SOL     OW10843   2.521   0.203   3.358
 3388SOL    HW110844   2.602   0.179   3.312
 3388SOL    HW210845   2.550   0.222   3.448
 3389SOL     OW10846   1.942   0.343   1.908
 3389SOL    HW110847   1.870   0.292   1.872
 3389SOL    HW210848   1.959   0.411   1.843
 3390SOL     OW10849   3.294   0.858   3.263
 3390SOL    HW110850   3.245   0.918   3.206
 3390SOL    HW210851   3.384   0.861   3.230
 3391SOL     OW10852   1.928   0.180   2.185
 3391SOL    HW110853   1.924   0.246   2.116
 3391SOL    HW210854   2.003   0.125   2.161
 3392SOL     OW10855   3.042   1.342   1.979
 3392SOL    HW110856   2.951   1.312   1.982
 3392SOL    HW210857   3.071   1.341   2.070
 3393SOL     OW10858   2.480   0.831   3.294
 3393SOL    HW110859   2.535   0.908   3.280
 3393SOL    HW210860   2.542   0.758   3.303
 3394SOL     OW10861   3.347   1.774   2.837
 3394SOL    HW110862   3.373   1.831   2.765
 3394SOL    HW210863   3.428   1.759   2.886
 3395SOL     OW10864   2.578   0.564   3.569
 3395SOL    HW110865   2.613   0.629   3.630
 3395SOL    HW210866   2.616   0.481   3.598
 3396SOL     OW10867   3.330   1.203   3.495
 3396SOL    HW110868   3.318   1.216   3.589
 3396SOL    HW210869   3.424   1.215   3.481
 3397SOL     OW10870   2.247   1.739   3.428
 3397SOL    HW110871   2.159   1.773   3.410
 3397SOL    HW210872   2.233   1.654   3.468
 3398SOL     OW10873   3.534   0.882   3.118
 3398SOL    HW110874   3.524   0.797   3.075
 3398SOL    HW210875   3.525   0.945   3.047
 3399SOL     OW10876   3.080   0.327   2.310
 3399SOL    HW110877   3.145   0.258   2.301
 3399SOL    HW210878   3.106   0.375   2.389
 3400SOL     OW10879   2.451   0.740   2.530
 3400SOL    HW110880   2.492   0.825   2.513
 3400SOL    HW210881   2.382   0.734   2.464
 3401SOL     OW10882   3.628   0.361   3.505
 3401SOL    HW110883   3.611   0.375   3.411
 3401SOL    HW210884   3.550   0.317   3.537
 3402SOL     OW10885   3.606   0.933   3.375
 3402SOL    HW110886   3.607   1.028   3.388
 3402SOL    HW210887   3.591   0.922   3.281
 3403SOL     OW10888   2.724   1.369   1.892
 3403SOL    HW110889   2.685   1.394   1.975
 3403SOL    HW210890   2.744   1.452   1.848
 3404SOL     OW10891   2.526   1.783   2.807
 3404SOL    HW110892   2.503   1.874   2.786
 3404SOL    HW210893   2.621   1.781   2.805
 3405SOL     OW10894   2.728   0.965   2.718
 3405SOL    HW110895   2.778   0.894   2.758
 3405SOL    HW210896   2.695   1.016   2.792
 3406SOL     OW10897   2.942   0.988   1.951
 3406SOL    HW110898   2.920   1.038   1.872
 3406SOL    HW210899   3.017   0.935   1.925
 3407SOL     OW10900   3.718   1.557   2.707
 3407SOL    HW110901   3.642   1.545   2.652
 3407SOL    HW210902   3.711   1.488   2.774
 3408SOL     OW10903   2.086   1.304   3.718
 3408SOL    HW110904   2.018   1.243   3.689
 3408SOL    HW210905   2.069   1.317   3.811
 3409SOL     OW10906   1.947   1.236   2.525
 3409SOL    HW110907   1.947   1.187   2.607
 3409SOL    HW210908   2.015   1.194   2.472
 3410SOL     OW10909   2.541   1.401   3.486
 3410SOL    HW110910   2.462   1.356   3.517
 3410SOL    HW210911   2.536   1.488   3.525
 3411SOL     OW10912   3.672   0.184   3.101
 3411SOL    HW110913   3.672   0.090   3.122
 3411SOL    HW210914   3.688   0.187   3.007
 3412SOL     OW10915   2.296   0.433   2.389
 3412SOL    HW110916   2.320   0.363   2.329
 3412SOL    HW210917   2.242   0.390   2.456
 3413SOL     OW10918   3.563   1.491   2.962
 3413SOL    HW110919   3.482   1.466   2.918
 3413SOL    HW210920   3.578   1.423   3.027
 3414SOL     OW10921   2.189   0.554   3.153
 3414SOL    HW110922   2.245   0.499   3.207
 3414SOL    HW210923   2.210   0.528   3.063
 3415SOL     OW10924   2.687   1.578   2.541
 3415SOL    HW110925   2.680   1.621   2.456
 3415SOL    HW210926   2.609   1.523   2.547
 3416SOL     OW10927   3.294   0.215   2.980
 3416SOL    HW110928   3.331   0.145   3.034
 3416SOL    HW210929   3.243   0.268   3.041
 3417SOL     OW10930   2.859   0.013   3.010
 3417SOL    HW110931   2.813   4.429   3.000
 3417SOL    HW210932   2.951   4.488   3.023
 3418SOL     OW10933   2.634   1.332   2.172
 3418SOL    HW110934   2.599   1.243   2.179
 3418SOL    HW210935   2.716   1.330   2.221
 3419SOL     OW10936   2.482   1.558   3.146
 3419SOL    HW110937   2.485   1.640   3.197
 3419SOL    HW210938   2.569   1.551   3.107
 3420SOL     OW10939   3.205   0.054   2.014
 3420SOL    HW110940   3.244   4.479   1.969
 3420SOL    HW210941   3.129   0.017   2.060
 3421SOL     OW10942   3.176   0.463   2.543
 3421SOL    HW110943   3.114   0.535   2.543
 3421SOL    HW210944   3.164   0.419   2.627
 3422SOL     OW10945   3.448   0.202   2.729
 3422SOL    HW110946   3.387   0.217   2.802
 3422SOL    HW210947   3.451   0.286   2.684
 3423SOL     OW10948   1.906   1.073   2.166
 3423SOL    HW110949   2.000   1.064   2.150
 3423SOL    HW210950   1.876   0.985   2.190
 3424SOL     OW10951   2.743   1.650   2.207
 3424SOL    HW110952   2.672   1.631   2.145
 3424SOL    HW210953   2.712   1.726   2.256
 3425SOL     OW10954   2.092   0.627   3.843
 3425SOL    HW110955   2.004   0.621   3.880
 3425SOL    HW210956   2.083   0.595   3.754
 3426SOL     OW10957   2.072   0.295   4.712
 3426SOL    HW110958   2.103   0.269   4.799
 3426SOL    HW210959   1.990   0.248   4.701
 3427SOL     OW10960   1.871   0.383   4.364
 3427SOL    HW110961   1.784   0.404   4.400
 3427SOL    HW210962   1.855   0.309   4.306
 3428SOL     OW10963   2.419   1.255   4.907
 3428SOL    HW110964   2.339   1.261   4.856
 3428SOL    HW210965   2.445   1.346   4.922
 3429SOL     OW10966   3.420   1.512   4.429
 3429SOL    HW110967   3.377   1.495   4.513
 3429SOL    HW210968   3.348   1.516   4.366
 3430SOL     OW10969   2.994   0.699   4.426
 3430SOL    HW110970   3.042   0.781   4.414
 3430SOL    HW210971   2.945   0.712   4.507
 3431SOL     OW10972   3.627   0.609   3.953
 3431SOL    HW110973   3.608   0.597   3.860
 3431SOL    HW210974   3.594   0.529   3.995
 3432SOL     OW10975   2.617   1.129   4.767
 3432SOL    HW110976   2.551   1.171   4.822
 3432SOL    HW210977   2.650   1.199   4.711
 3433SOL     OW10978   2.725   0.780   5.545
 3433SOL    HW110979   2.710   0.853   5.606
 3433SOL    HW210980   2.748   0.823   5.463
 3434SOL     OW10981   2.548   1.006   4.373
 3434SOL    HW110982   2.613   0.993   4.441
 3434SOL    HW210983   2.479   1.058   4.415
 3435SOL     OW10984   2.567   1.148   5.530
 3435SOL    HW110985   2.617   1.227   5.554
 3435SOL    HW210986   2.482   1.182   5.500
 3436SOL     OW10987   3.324   1.499   5.074
 3436SOL    HW110988   3.369   1.583   5.082
 3436SOL    HW210989   3.279   1.487   5.158
 3437SOL     OW10990   2.303   0.396   5.216
 3437SOL    HW110991   2.384   0.346   5.217
 3437SOL    HW210992   2.234   0.330   5.228
 3438SOL     OW10993   3.475   0.448   4.462
 3438SOL    HW110994   3.394   0.472   4.416
 3438SOL    HW210995   3.496   0.525   4.514
 3439SOL     OW10996   2.082   1.718   4.197
 3439SOL    HW110997   2.114   1.791   4.252
 3439SOL    HW210998   2.152   1.704   4.134
 3440SOL     OW10999   2.995   1.341   5.417
 3440SOL    HW111000   3.035   1.337   5.503
 3440SOL    HW211001   2.943   1.261   5.410
 3441SOL     OW11002   2.087   1.441   4.260
 3441SOL    HW111003   2.069   1.535   4.269
 3441SOL    HW211004   2.027   1.399   4.322
 3442SOL     OW11005   2.116   1.090   4.614
 3442SOL    HW111006   2.113   1.004   4.656
 3442SOL    HW211007   2.059   1.145   4.668
 3443SOL     OW11008   2.451   0.979   3.856
 3443SOL    HW111009   2.494   1.032   3.788
 3443SOL    HW211010   2.492   1.008   3.938
 3444SOL     OW11011   3.448   0.114   5.199
 3444SOL    HW111012   3.459   0.182   5.132
 3444SOL    HW211013   3.437   0.162   5.281
 3445SOL     OW11014   1.977   0.651   4.284
 3445SOL    HW111015   1.948   0.563   4.305
 3445SOL    HW211016   1.968   0.700   4.365
 3446SOL     OW11017   3.703   1.761   4.060
 3446SOL    HW111018   3.762   1.731   4.130
 3446SOL    HW211019   3.731   1.851   4.043
 3447SOL     OW11020   1.893   1.597   3.848
 3447SOL    HW111021   1.876   1.504   3.866
 3447SOL    HW211022   1.867   1.642   3.928
 3448SOL     OW11023   3.553   0.920   4.362
 3448SOL    HW111024   3.638   0.880   4.342
 3448SOL    HW211025   3.531   0.969   4.283
 3449SOL     OW11026   3.507   1.108   4.153
 3449SOL    HW111027   3.593   1.117   4.111
 3449SOL    HW211028   3.511   1.168   4.228
 3450SOL     OW11029   1.984   0.743   5.311
 3450SOL    HW111030   2.076   0.765   5.325
 3450SOL    HW211031   1.938   0.827   5.316
 3451SOL     OW11032   2.474   1.382   4.447
 3451SOL    HW111033   2.424   1.302   4.460
 3451SOL    HW211034   2.451   1.411   4.358
 3452SOL     OW11035   3.163   1.239   5.155
 3452SOL    HW111036   3.192   1.173   5.092
 3452SOL    HW211037   3.221   1.226   5.230
 3453SOL     OW11038   2.677   0.011   4.269
 3453SOL    HW111039   2.711   0.098   4.246
 3453SOL    HW211040   2.582   0.020   4.262
 3454SOL     OW11041   2.053   0.969   4.994
 3454SOL    HW111042   2.137   0.927   4.978
 3454SOL    HW211043   1.989   0.914   4.948
 3455SOL     OW11044   3.394   0.991   3.921
 3455SOL    HW111045   3.324   0.934   3.950
 3455SOL    HW211046   3.433   1.025   4.001
 3456SOL     OW11047   3.054   1.786   5.338
 3456SOL    HW111048   3.076   1.839   5.262
 3456SOL    HW211049   3.088   1.699   5.317
 3457SOL     OW11050   2.177   0.255   5.506
 3457SOL    HW111051   2.241   0.319   5.537
 3457SOL    HW211052   2.103   0.263   5.566
 3458SOL     OW11053   3.334   1.417   4.676
 3458SOL    HW111054   3.263   1.434   4.738
 3458SOL    HW211055   3.320   1.327   4.648
 3459SOL     OW11056   3.523   1.733   4.301
 3459SOL    HW111057   3.499   1.705   4.213
 3459SOL    HW211058   3.496   1.661   4.358
 3460SOL     OW11059   2.456   0.723   3.988
 3460SOL    HW111060   2.465   0.804   3.937
 3460SOL    HW211061   2.391   0.745   4.055
 3461SOL     OW11062   3.152   0.358   4.658
 3461SOL    HW111063   3.063   0.327   4.643
 3461SOL    HW211064   3.189   0.295   4.721
 3462SOL     OW11065   3.443   1.670   4.033
 3462SOL    HW111066   3.533   1.703   4.027
 3462SOL    HW211067   3.418   1.651   3.942
 3463SOL     OW11068   2.658   0.617   5.179
 3463SOL    HW111069   2.629   0.594   5.267
 3463SOL    HW211070   2.615   0.554   5.122
 3464SOL     OW11071   3.251   0.478   5.400
 3464SOL    HW111072   3.253   0.522   5.486
 3464SOL    HW211073   3.318   0.410   5.407
 3465SOL     OW11074   2.820   0.889   5.304
 3465SOL    HW111075   2.873   0.817   5.271
 3465SOL    HW211076   2.773   0.922   5.227
 3466SOL     OW11077   2.857   0.415   4.963
 3466SOL    HW111078   2.771   0.431   5.003
 3466SOL    HW211079   2.838   0.366   4.883
 3467SOL     OW11080   2.911   0.698   4.152
 3467SOL    HW111081   2.926   0.692   4.246
 3467SOL    HW211082   2.829   0.651   4.137
 3468SOL     OW11083   1.950   0.819   4.500
 3468SOL    HW111084   2.033   0.813   4.549
 3468SOL    HW211085   1.908   0.899   4.534
 3469SOL     OW11086   2.716   0.367   3.902
 3469SOL    HW111087   2.791   0.403   3.856
 3469SOL    HW211088   2.734   0.274   3.908
 3470SOL     OW11089   3.569   0.576   5.552
 3470SOL    HW111090   3.534   0.653   5.507
 3470SOL    HW211091   3.601   0.519   5.481
 3471SOL     OW11092   3.237   1.143   4.267
 3471SOL    HW111093   3.315   1.129   4.213
 3471SOL    HW211094   3.184   1.204   4.216
 3472SOL     OW11095   2.402   0.202   4.625
 3472SOL    HW111096   2.421   0.219   4.717
 3472SOL    HW211097   2.392   0.288   4.585
 3473SOL     OW11098   2.871   1.446   4.197
 3473SOL    HW111099   2.830   1.518   4.149
 3473SOL    HW211100   2.855   1.466   4.289
 3474SOL     OW11101   3.659   1.061   4.591
 3474SOL    HW111102   3.603   1.044   4.516
 3474SOL    HW211103   3.599   1.065   4.666
 3475SOL     OW11104   3.115   1.530   5.259
 3475SOL    HW111105   3.091   1.455   5.313
 3475SOL    HW211106   3.076   1.512   5.173
 3476SOL     OW11107   2.183   0.955   3.971
 3476SOL    HW111108   2.266   0.974   3.926
 3476SOL    HW211109   2.153   0.874   3.932
 3477SOL     OW11110   3.340   0.738   4.449
 3477SOL    HW111111   3.324   0.693   4.532
 3477SOL    HW211112   3.414   0.796   4.466
 3478SOL     OW11113   2.329   1.264   5.456
 3478SOL    HW111114   2.296   1.268   5.367
 3478SOL    HW211115   2.251   1.270   5.511
 3479SOL     OW11116   2.982   1.778   3.955
 3479SOL    HW111117   2.912   1.734   4.003
 3479SOL    HW211118   3.004   1.718   3.884
 3480SOL     OW11119   2.051   0.267   5.232
 3480SOL    HW111120   1.985   0.335   5.215
 3480SOL    HW211121   2.060   0.267   5.328
 3481SOL     OW11122   3.492   1.379   3.810
 3481SOL    HW111123   3.450   1.464   3.796
 3481SOL    HW211124   3.422   1.315   3.793
 3482SOL     OW11125   2.329   1.738   4.044
 3482SOL    HW111126   2.371   1.794   4.109
 3482SOL    HW211127   2.401   1.707   3.988
 3483SOL     OW11128   3.278   0.131   4.143
 3483SOL    HW111129   3.261   0.085   4.061
 3483SOL    HW211130   3.374   0.130   4.152
 3484SOL     OW11131   2.801   1.695   4.617
 3484SOL    HW111132   2.869   1.634   4.646
 3484SOL    HW211133   2.752   1.647   4.550
 3485SOL     OW11134   2.252   0.695   4.200
 3485SOL    HW111135   2.277   0.603   4.211
 3485SOL    HW211136   2.158   0.697   4.220
 3486SOL     OW11137   3.388   0.233   5.446
 3486SOL    HW111138   3.387   0.256   5.539
 3486SOL    HW211139   3.313   0.175   5.435
 3487SOL     OW11140   2.485   0.122   3.845
 3487SOL    HW111141   2.574   0.088   3.853
 3487SOL    HW211142   2.454   0.088   3.761
 3488SOL     OW11143   2.632   0.271   5.476
 3488SOL    HW111144   2.696   0.201   5.494
 3488SOL    HW211145   2.583   0.279   5.558
 3489SOL     OW11146   3.205   0.589   5.153
 3489SOL    HW111147   3.232   0.559   5.240
 3489SOL    HW211148   3.238   0.678   5.146
 3490SOL     OW11149   2.686   1.330   4.607
 3490SOL    HW111150   2.770   1.367   4.578
 3490SOL    HW211151   2.622   1.363   4.545
 3491SOL     OW11152   2.784   0.514   4.626
 3491SOL    HW111153   2.767   0.513   4.532
 3491SOL    HW211154   2.825   0.430   4.645
 3492SOL     OW11155   2.415   0.071   4.243
 3492SOL    HW111156   2.325   0.050   4.268
 3492SOL    HW211157   2.405   0.140   4.177
 3493SOL     OW11158   3.291   1.197   3.766
 3493SOL    HW111159   3.321   1.122   3.815
 3493SOL    HW211160   3.205   1.217   3.803
 3494SOL     OW11161   2.158   0.071   3.915
 3494SOL    HW111162   2.236   0.123   3.897
 3494SOL    HW211163   2.189   4.499   3.971
 3495SOL     OW11164   2.812   0.240   4.196
 3495SOL    HW111165   2.760   0.289   4.133
 3495SOL    HW211166   2.900   0.275   4.187
 3496SOL     OW11167   2.942   0.679   5.187
 3496SOL    HW111168   2.869   0.616   5.186
 3496SOL    HW211169   3.020   0.625   5.173
 3497SOL     OW11170   3.094   1.570   4.511
 3497SOL    HW111171   3.113   1.643   4.452
 3497SOL    HW211172   3.152   1.585   4.586
 3498SOL     OW11173   2.328   1.148   4.460
 3498SOL    HW111174   2.257   1.130   4.522
 3498SOL    HW211175   2.290   1.129   4.374
 3499SOL     OW11176   3.135   1.795   4.328
 3499SOL    HW111177   3.176   1.859   4.271
 3499SOL    HW211178   3.065   1.844   4.373
 3500SOL     OW11179   2.893   0.549   3.739
 3500SOL    HW111180   2.845   0.631   3.723
 3500SOL    HW211181   2.951   0.569   3.812
 3501SOL     OW11182   1.941   0.552   5.118
 3501SOL    HW111183   2.032   0.554   5.087
 3501SOL    HW211184   1.936   0.624   5.181
 3502SOL     OW11185   2.426   0.241   4.888
 3502SOL    HW111186   2.454   0.157   4.926
 3502SOL    HW211187   2.335   0.249   4.915
 3503SOL     OW11188   2.728   0.500   4.350
 3503SOL    HW111189   2.677   0.543   4.282
 3503SOL    HW211190   2.712   0.407   4.337
 3504SOL     OW11191   2.833   0.032   4.498
 3504SOL    HW111192   2.783   0.027   4.417
 3504SOL    HW211193   2.842   4.440   4.526
 3505SOL     OW11194   3.301   1.161   4.582
 3505SOL    HW111195   3.227   1.101   4.584
 3505SOL    HW211196   3.318   1.175   4.489
 3506SOL     OW11197   3.330   0.602   4.703
 3506SOL    HW111198   3.279   0.521   4.707
 3506SOL    HW211199   3.388   0.597   4.778
 3507SOL     OW11200   3.710   0.819   4.105
 3507SOL    HW111201   3.765   0.766   4.164
 3507SOL    HW211202   3.680   0.757   4.038
 3508SOL     OW11203   2.353   1.415   3.885
 3508SOL    HW111204   2.279   1.385   3.937
 3508SOL    HW211205   2.334   1.386   3.796
 3509SOL     OW11206   3.531   1.266   4.370
 3509SOL    HW111207   3.625   1.272   4.385
 3509SOL    HW211208   3.497   1.352   4.394
 3510SOL     OW11209   3.256   0.570   3.794
 3510SOL    HW111210   3.195   0.554   3.866
 3510SOL    HW211211   3.342   0.548   3.830
 3511SOL     OW11212   2.386   0.265   4.049
 3511SOL    HW111213   2.429   0.212   3.981
 3511SOL    HW211214   2.371   0.350   4.007
 3512SOL     OW11215   3.616   1.236   5.302
 3512SOL    HW111216   3.703   1.197   5.297
 3512SOL    HW211217   3.631   1.326   5.331
 3513SOL     OW11218   2.928   1.297   5.044
 3513SOL    HW111219   2.850   1.289   5.100
 3513SOL    HW211220   3.001   1.274   5.102
 3514SOL     OW11221   3.467   1.625   5.375
 3514SOL    HW111222   3.466   1.660   5.286
 3514SOL    HW211223   3.551   1.579   5.381
 3515SOL     OW11224   2.986   1.180   4.813
 3515SOL    HW111225   2.941   1.223   4.886
 3515SOL    HW211226   2.958   1.229   4.736
 3516SOL     OW11227   3.493   1.099   4.803
 3516SOL    HW111228   3.487   1.163   4.875
 3516SOL    HW211229   3.414   1.115   4.751
 3517SOL     OW11230   2.767   0.129   5.115
 3517SOL    HW111231   2.789   0.087   5.032
 3517SOL    HW211232   2.851   0.143   5.158
 3518SOL     OW11233   2.847   1.113   5.447
 3518SOL    HW111234   2.755   1.129   5.465
 3518SOL    HW211235   2.847   1.036   5.389
 3519SOL     OW11236   2.570   1.060   4.096
 3519SOL    HW111237   2.556   1.046   4.190
 3519SOL    HW211238   2.646   1.007   4.075
 3520SOL     OW11239   2.278   0.815   4.977
 3520SOL    HW111240   2.349   0.824   5.041
 3520SOL    HW211241   2.244   0.727   4.991
 3521SOL     OW11242   3.131   0.377   4.995
 3521SOL    HW111243   3.163   0.455   5.040
 3521SOL    HW211244   3.043   0.399   4.967
 3522SOL     OW11245   2.215   1.106   4.216
 3522SOL    HW111246   2.219   1.179   4.155
 3522SOL    HW211247   2.214   1.028   4.160
 3523SOL     OW11248   2.420   0.532   4.583
 3523SOL    HW111249   2.435   0.591   4.509
 3523SOL    HW211250   2.481   0.563   4.650
 3524SOL     OW11251   3.110   1.348   4.112
 3524SOL    HW111252   3.165   1.419   4.144
 3524SOL    HW211253   3.023   1.367   4.147
 3525SOL     OW11254   3.145   1.442   4.863
 3525SOL    HW111255   3.196   1.452   4.943
 3525SOL    HW211256   3.081   1.374   4.883
 3526SOL     OW11257   3.445   0.625   4.199
 3526SOL    HW111258   3.401   0.677   4.266
 3526SOL    HW211259   3.489   0.690   4.143
 3527SOL     OW11260   2.275   0.743   5.325
 3527SOL    HW111261   2.334   0.791   5.267
 3527SOL    HW211262   2.319   0.660   5.343
 3528SOL     OW11263   3.460   0.777   5.403
 3528SOL    HW111264   3.373   0.817   5.395
 3528SOL    HW211265   3.512   0.819   5.334
 3529SOL     OW11266   2.870   0.086   5.451
 3529SOL    HW111267   2.890   0.171   5.411
 3529SOL    HW211268   2.895   0.022   5.385
 3530SOL     OW11269   2.361   0.049   5.480
 3530SOL    HW111270   2.350   0.002   5.397
 3530SOL    HW211271   2.293   0.116   5.479
 3531SOL     OW11272   2.443   0.873   4.754
 3531SOL    HW111273   2.481   0.961   4.752
 3531SOL    HW211274   2.388   0.872   4.832
 3532SOL     OW11275   3.224   0.858   4.760
 3532SOL    HW111276   3.142   0.856   4.711
 3532SOL    HW211277   3.259   0.769   4.753
 3533SOL     OW11278   3.069   0.534   3.990
 3533SOL    HW111279   3.074   0.454   4.042
 3533SOL    HW211280   3.026   0.597   4.049
 3534SOL     OW11281   2.152   0.235   4.964
 3534SOL    HW111282   2.112   0.251   5.049
 3534SOL    HW211283   2.181   0.144   4.968
 3535SOL     OW11284   1.903   1.324   5.015
 3535SOL    HW111285   1.941   1.261   5.076
 3535SOL    HW211286   1.958   1.401   5.022
 3536SOL     OW11287   2.586   0.632   4.784
 3536SOL    HW111288   2.659   0.612   4.725
 3536SOL    HW211289   2.560   0.721   4.760
 3537SOL     OW11290   3.595   0.959   5.575
 3537SOL    HW111291   3.547   0.904   5.513
 3537SOL    HW211292   3.535   0.970   5.649
 3538SOL     OW11293   2.161   0.059   4.377
 3538SOL    HW111294   2.151   0.155   4.382
 3538SOL    HW211295   2.173   0.032   4.468
 3539SOL     OW11296   3.472   0.374   4.090
 3539SOL    HW111297   3.504   0.312   4.156
 3539SOL    HW211298   3.451   0.453   4.141
 3540SOL     OW11299   2.891   0.760   4.686
 3540SOL    HW111300   2.890   0.778   4.780
 3540SOL    HW211301   2.861   0.669   4.679
 3541SOL     OW11302   2.836   1.562   5.443
 3541SOL    HW111303   2.843   1.620   5.367
 3541SOL    HW211304   2.885   1.484   5.418
 3542SOL     OW11305   3.718   1.509   5.330
 3542SOL    HW111306   3.734   1.534   5.239
 3542SOL    HW211307   3.799   1.530   5.376
 3543SOL     OW11308   2.214   0.916   5.530
 3543SOL    HW111309   2.295   0.936   5.577
 3543SOL    HW211310   2.239   0.854   5.462
 3544SOL     OW11311   3.394   0.267   3.852
 3544SOL    HW111312   3.322   0.211   3.879
 3544SOL    HW211313   3.422   0.312   3.932
 3545SOL     OW11314   3.156   0.827   3.756
 3545SOL    HW111315   3.198   0.741   3.759
 3545SOL    HW211316   3.187   0.866   3.674
 3546SOL     OW11317   2.957   1.332   4.575
 3546SOL    HW111318   2.950   1.262   4.511
 3546SOL    HW211319   3.012   1.398   4.533
 3547SOL     OW11320   2.172   0.810   4.673
 3547SOL    HW111321   2.265   0.834   4.667
 3547SOL    HW211322   2.172   0.721   4.707
 3548SOL     OW11323   2.199   0.528   4.737
 3548SOL    HW111324   2.157   0.444   4.717
 3548SOL    HW211325   2.275   0.532   4.678
 3549SOL     OW11326   2.997   0.375   5.416
 3549SOL    HW111327   2.949   0.439   5.468
 3549SOL    HW211328   3.083   0.414   5.403
 3550SOL     OW11329   3.023   0.211   5.198
 3550SOL    HW111330   3.014   0.275   5.268
 3550SOL    HW211331   3.056   0.261   5.123
 3551SOL     OW11332   1.867   1.323   3.918
 3551SOL    HW111333   1.780   1.336   3.881
 3551SOL    HW211334   1.866   1.233   3.952
 3552SOL     OW11335   2.851   0.792   4.953
 3552SOL    HW111336   2.902   0.768   5.030
 3552SOL    HW211337   2.764   0.758   4.970
 3553SOL     OW11338   1.896   0.541   4.842
 3553SOL    HW111339   1.975   0.523   4.791
 3553SOL    HW211340   1.927   0.549   4.932
 3554SOL     OW11341   2.047   0.517   5.443
 3554SOL    HW111342   2.120   0.496   5.385
 3554SOL    HW211343   2.004   0.592   5.403
 3555SOL     OW11344   3.238   0.941   5.384
 3555SOL    HW111345   3.259   1.034   5.383
 3555SOL    HW211346   3.235   0.917   5.291
 3556SOL     OW11347   2.673   0.572   4.077
 3556SOL    HW111348   2.676   0.501   4.014
 3556SOL    HW211349   2.599   0.626   4.049
 3557SOL     OW11350   3.504   0.601   4.914
 3557SOL    HW111351   3.493   0.541   4.987
 3557SOL    HW211352   3.591   0.581   4.879
 3558SOL     OW11353   2.554   0.460   4.990
 3558SOL    HW111354   2.510   0.382   4.955
 3558SOL    HW211355   2.557   0.520   4.915
 3559SOL     OW11356   2.329   0.493   3.909
 3559SOL    HW111357   2.387   0.566   3.930
 3559SOL    HW211358   2.242   0.533   3.901
 3560SOL     OW11359   2.014   1.142   5.194
 3560SOL    HW111360   2.018   1.089   5.274
 3560SOL    HW211361   2.029   1.079   5.123
 3561SOL     OW11362   3.190   1.050   4.950
 3561SOL    HW111363   3.217   0.987   4.883
 3561SOL    HW211364   3.116   1.097   4.911
 3562SOL     OW11365   3.172   0.856   4.031
 3562SOL    HW111366   3.096   0.828   4.081
 3562SOL    HW211367   3.146   0.843   3.939
 3563SOL     OW11368   3.634   1.746   4.875
 3563SOL    HW111369   3.691   1.772   4.803
 3563SOL    HW211370   3.606   1.657   4.853
 3564SOL     OW11371   1.950   1.250   4.753
 3564SOL    HW111372   1.921   1.272   4.842
 3564SOL    HW211373   1.871   1.218   4.709
 3565SOL     OW11374   3.580   0.130   4.221
 3565SOL    HW111375   3.654   0.135   4.161
 3565SOL    HW211376   3.600   0.056   4.279
 3566SOL     OW11377   3.252   1.567   4.205
 3566SOL    HW111378   3.312   1.600   4.139
 3566SOL    HW211379   3.205   1.645   4.236
 3567SOL     OW11380   3.139   0.924   4.394
 3567SOL    HW111381   3.213   0.863   4.399
 3567SOL    HW211382   3.173   0.999   4.344
 3568SOL     OW11383   2.681   1.271   5.160
 3568SOL    HW111384   2.647   1.311   5.240
 3568SOL    HW211385   2.616   1.292   5.093
 3569SOL     OW11386   2.532   1.618   3.879
 3569SOL    HW111387   2.543   1.628   3.785
 3569SOL    HW211388   2.480   1.538   3.889
 3570SOL     OW11389   3.495   1.726   5.117
 3570SOL    HW111390   3.542   1.734   5.034
 3570SOL    HW211391   3.481   1.816   5.145
 3571SOL     OW11392   3.701   0.155   4.691
 3571SOL    HW111393   3.731   0.080   4.641
 3571SOL    HW211394   3.614   0.175   4.655
 3572SOL     OW11395   2.129   0.324   4.444
 3572SOL    HW111396   2.044   0.358   4.415
 3572SOL    HW211397   2.120   0.314   4.538
 3573SOL     OW11398   3.068   1.608   3.755
 3573SOL    HW111399   3.060   1.517   3.783
 3573SOL    HW211400   3.003   1.617   3.685
 3574SOL     OW11401   2.688   1.006   5.094
 3574SOL    HW111402   2.728   1.004   5.007
 3574SOL    HW211403   2.689   1.098   5.119
 3575SOL     OW11404   2.776   0.909   4.012
 3575SOL    HW111405   2.840   0.941   3.948
 3575SOL    HW211406   2.823   0.840   4.058
 3576SOL     OW11407   3.357   1.624   3.766
 3576SOL    HW111408   3.262   1.620   3.755
 3576SOL    HW211409   3.391   1.630   3.677
 3577SOL     OW11410   2.231   1.310   5.211
 3577SOL    HW111411   2.201   1.390   5.167
 3577SOL    HW211412   2.159   1.247   5.197
 3578SOL     OW11413   3.475   1.283   5.005
 3578SOL    HW111414   3.532   1.277   5.082
 3578SOL    HW211415   3.412   1.353   5.027
 3579SOL     OW11416   2.910   1.106   4.424
 3579SOL    HW111417   2.840   1.060   4.469
 3579SOL    HW211418   2.970   1.037   4.396
 3580SOL     OW11419   2.870   0.241   4.721
 3580SOL    HW111420   2.877   0.212   4.630
 3580SOL    HW211421   2.863   0.160   4.771
 3581SOL     OW11422   2.462   1.494   4.198
 3581SOL    HW111423   2.503   1.439   4.132
 3581SOL    HW211424   2.393   1.541   4.151
 3582SOL     OW11425   3.581   0.393   5.102
 3582SOL    HW111426   3.653   0.456   5.100
 3582SOL    HW211427   3.611   0.321   5.046
 3583SOL     OW11428   2.120   1.349   4.012
 3583SOL    HW111429   2.027   1.345   3.989
 3583SOL    HW211430   2.121   1.383   4.101
 3584SOL     OW11431   1.973   1.021   5.443
 3584SOL    HW111432   1.897   0.996   5.496
 3584SOL    HW211433   2.048   0.985   5.489
 3585SOL     OW11434   2.521   0.203   5.220
 3585SOL    HW111435   2.601   0.179   5.174
 3585SOL    HW211436   2.550   0.222   5.310
 3586SOL     OW11437   1.942   0.343   3.770
 3586SOL    HW111438   1.870   0.293   3.733
 3586SOL    HW211439   1.959   0.411   3.705
 3587SOL     OW11440   3.294   0.859   5.126
 3587SOL    HW111441   3.244   0.917   5.069
 3587SOL    HW211442   3.383   0.862   5.091
 3588SOL     OW11443   1.928   0.179   4.047
 3588SOL    HW111444   1.925   0.246   3.978
 3588SOL    HW211445   2.003   0.125   4.023
 3589SOL     OW11446   3.042   1.342   3.841
 3589SOL    HW111447   2.951   1.311   3.845
 3589SOL    HW211448   3.071   1.342   3.932
 3590SOL     OW11449   2.481   0.832   5.156
 3590SOL    HW111450   2.536   0.908   5.140
 3590SOL    HW211451   2.543   0.759   5.164
 3591SOL     OW11452   3.351   1.774   4.679
 3591SOL    HW111453   3.392   1.835   4.618
 3591SOL    HW211454   3.415   1.762   4.749
 3592SOL     OW11455   2.578   0.564   5.431
 3592SOL    HW111456   2.613   0.629   5.492
 3592SOL    HW211457   2.616   0.481   5.460
 3593SOL     OW11458   3.335   1.201   5.361
 3593SOL    HW111459   3.323   1.215   5.455
 3593SOL    HW211460   3.429   1.214   5.347
 3594SOL     OW11461   3.534   0.882   4.980
 3594SOL    HW111462   3.524   0.797   4.936
 3594SOL    HW211463   3.524   0.946   4.909
 3595SOL     OW11464   3.080   0.327   4.172
 3595SOL    HW111465   3.145   0.258   4.163
 3595SOL    HW211466   3.106   0.375   4.251
 3596SOL     OW11467   2.451   0.739   4.392
 3596SOL    HW111468   2.492   0.825   4.378
 3596SOL    HW211469   2.382   0.735   4.326
 3597SOL     OW11470   3.628   0.361   5.367
 3597SOL    HW111471   3.611   0.375   5.274
 3597SOL    HW211472   3.550   0.317   5.399
 3598SOL     OW11473   3.607   0.933   5.237
 3598SOL    HW111474   3.607   1.028   5.249
 3598SOL    HW211475   3.591   0.922   5.143
 3599SOL     OW11476   2.723   1.368   3.753
 3599SOL    HW111477   2.686   1.392   3.838
 3599SOL    HW211478   2.744   1.452   3.711
 3600SOL     OW11479   2.526   1.826   4.637
 3600SOL    HW111480   2.515   1.914   4.672
 3600SOL    HW211481   2.615   1.801   4.660
 3601SOL     OW11482   2.730   0.964   4.578
 3601SOL    HW111483   2.782   0.895   4.619
 3601SOL    HW211484   2.697   1.016   4.652
 3602SOL     OW11485   2.943   0.989   3.813
 3602SOL    HW111486   2.920   1.038   3.734
 3602SOL    HW211487   3.018   0.935   3.787
 3603SOL     OW11488   3.718   1.556   4.569
 3603SOL    HW111489   3.640   1.546   4.514
 3603SOL    HW211490   3.709   1.489   4.637
 3604SOL     OW11491   2.083   1.296   5.572
 3604SOL    HW111492   2.018   1.228   5.553
 3604SOL    HW211493   2.064   1.322   5.662
 3605SOL     OW11494   1.945   1.226   4.380
 3605SOL    HW111495   1.951   1.188   4.467
 3605SOL    HW211496   2.020   1.191   4.333
 3606SOL     OW11497   2.533   1.409   5.340
 3606SOL    HW111498   2.462   1.357   5.378
 3606SOL    HW211499   2.537   1.488   5.394
 3607SOL     OW11500   3.673   0.184   4.963
 3607SOL    HW111501   3.672   0.090   4.984
 3607SOL    HW211502   3.688   0.187   4.869
 3608SOL     OW11503   2.296   0.433   4.251
 3608SOL    HW111504   2.320   0.363   4.191
 3608SOL    HW211505   2.242   0.390   4.318
 3609SOL     OW11506   3.563   1.491   4.824
 3609SOL    HW111507   3.482   1.467   4.778
 3609SOL    HW211508   3.576   1.421   4.889
 3610SOL     OW11509   2.189   0.554   5.015
 3610SOL    HW111510   2.245   0.499   5.069
 3610SOL    HW211511   2.210   0.529   4.925
 3611SOL     OW11512   2.685   1.571   4.404
 3611SOL    HW111513   2.676   1.614   4.319
 3611SOL    HW211514   2.603   1.523   4.416
 3612SOL     OW11515   3.294   0.215   4.842
 3612SOL    HW111516   3.331   0.145   4.896
 3612SOL    HW211517   3.243   0.268   4.903
 3613SOL     OW11518   2.859   0.012   4.872
 3613SOL    HW111519   2.814   4.429   4.863
 3613SOL    HW211520   2.951   4.488   4.885
 3614SOL     OW11521   2.635   1.332   4.032
 3614SOL    HW111522   2.600   1.243   4.041
 3614SOL    HW211523   2.715   1.331   4.084
 3615SOL     OW11524   3.205   0.054   3.876
 3615SOL    HW111525   3.244   4.479   3.831
 3615SOL    HW211526   3.129   0.017   3.922
 3616SOL     OW11527   3.176   0.462   4.404
 3616SOL    HW111528   3.114   0.535   4.405
 3616SOL    HW211529   3.164   0.420   4.489
 3617SOL     OW11530   3.448   0.203   4.591
 3617SOL    HW111531   3.387   0.217   4.664
 3617SOL    HW211532   3.451   0.287   4.546
 3618SOL     OW11533   1.905   1.073   4.027
 3618SOL    HW111534   1.999   1.064   4.012
 3618SOL    HW211535   1.876   0.985   4.051
 3619SOL     OW11536   2.744   1.650   4.067
 3619SOL    HW111537   2.671   1.631   4.008
 3619SOL    HW211538   2.714   1.725   4.119
 3620SOL     OW11539   2.092   0.627   5.705
 3620SOL    HW111540   2.004   0.621   5.742
 3620SOL    HW211541   2.083   0.595   5.616
 3621SOL     OW11542   2.072   0.295   6.574
 3621SOL    HW111543   2.103   0.269   6.661
 3621SOL    HW211544   1.990   0.248   6.563
 3622SOL     OW11545   1.871   0.383   6.226
 3622SOL    HW111546   1.784   0.404   6.262
 3622SOL    HW211547   1.855   0.309   6.168
 3623SOL     OW11548   2.428   1.281   6.758
 3623SOL    HW111549   2.339   1.283   6.723
 3623SOL    HW211550   2.444   1.371   6.787
 3624SOL     OW11551   3.419   1.512   6.291
 3624SOL    HW111552   3.376   1.495   6.375
 3624SOL    HW211553   3.346   1.516   6.228
 3625SOL     OW11554   2.994   0.700   6.287
 3625SOL    HW111555   3.042   0.782   6.276
 3625SOL    HW211556   2.944   0.712   6.369
 3626SOL     OW11557   3.626   0.609   5.816
 3626SOL    HW111558   3.607   0.598   5.722
 3626SOL    HW211559   3.595   0.528   5.856
 3627SOL     OW11560   2.621   1.146   6.623
 3627SOL    HW111561   2.551   1.177   6.680
 3627SOL    HW211562   2.653   1.225   6.579
 3628SOL     OW11563   2.724   0.780   7.407
 3628SOL    HW111564   2.712   0.852   7.470
 3628SOL    HW211565   2.748   0.824   7.325
 3629SOL     OW11566   2.550   1.008   6.237
 3629SOL    HW111567   2.613   0.992   6.307
 3629SOL    HW211568   2.478   1.056   6.279
 3630SOL     OW11569   2.569   1.152   7.395
 3630SOL    HW111570   2.617   1.231   7.419
 3630SOL    HW211571   2.485   1.183   7.362
 3631SOL     OW11572   2.183   1.431   6.661
 3631SOL    HW111573   2.118   1.390   6.604
 3631SOL    HW211574   2.246   1.471   6.601
 3632SOL     OW11575   3.323   1.497   6.937
 3632SOL    HW111576   3.364   1.583   6.945
 3632SOL    HW211577   3.268   1.489   7.014
 3633SOL     OW11578   2.303   0.396   7.078
 3633SOL    HW111579   2.384   0.346   7.079
 3633SOL    HW211580   2.234   0.330   7.090
 3634SOL     OW11581   3.475   0.448   6.324
 3634SOL    HW111582   3.394   0.472   6.278
 3634SOL    HW211583   3.496   0.525   6.376
 3635SOL     OW11584   2.998   1.341   7.277
 3635SOL    HW111585   3.037   1.337   7.364
 3635SOL    HW211586   2.945   1.261   7.271
 3636SOL     OW11587   2.118   1.089   6.476
 3636SOL    HW111588   2.114   1.003   6.517
 3636SOL    HW211589   2.059   1.144   6.528
 3637SOL     OW11590   2.476   1.793   7.015
 3637SOL    HW111591   2.394   1.774   7.061
 3637SOL    HW211592   2.498   1.882   7.042
 3638SOL     OW11593   2.451   0.977   5.717
 3638SOL    HW111594   2.494   1.031   5.650
 3638SOL    HW211595   2.490   1.005   5.799
 3639SOL     OW11596   3.448   0.114   7.061
 3639SOL    HW111597   3.459   0.182   6.994
 3639SOL    HW211598   3.437   0.162   7.143
 3640SOL     OW11599   1.977   0.651   6.145
 3640SOL    HW111600   1.948   0.562   6.167
 3640SOL    HW211601   1.968   0.700   6.227
 3641SOL     OW11602   3.703   1.762   5.922
 3641SOL    HW111603   3.761   1.732   5.993
 3641SOL    HW211604   3.731   1.851   5.905
 3642SOL     OW11605   3.553   0.921   6.224
 3642SOL    HW111606   3.638   0.879   6.206
 3642SOL    HW211607   3.533   0.969   6.144
 3643SOL     OW11608   3.507   1.108   6.016
 3643SOL    HW111609   3.592   1.116   5.972
 3643SOL    HW211610   3.512   1.168   6.090
 3644SOL     OW11611   1.984   0.743   7.172
 3644SOL    HW111612   2.075   0.766   7.187
 3644SOL    HW211613   1.937   0.826   7.178
 3645SOL     OW11614   2.475   1.377   6.316
 3645SOL    HW111615   2.429   1.295   6.332
 3645SOL    HW211616   2.461   1.396   6.223
 3646SOL     OW11617   3.153   1.238   7.011
 3646SOL    HW111618   3.185   1.171   6.951
 3646SOL    HW211619   3.208   1.230   7.088
 3647SOL     OW11620   2.677   0.012   6.131
 3647SOL    HW111621   2.711   0.098   6.108
 3647SOL    HW211622   2.582   0.021   6.125
 3648SOL     OW11623   2.054   0.968   6.856
 3648SOL    HW111624   2.138   0.925   6.839
 3648SOL    HW211625   1.989   0.913   6.811
 3649SOL     OW11626   3.394   0.991   5.782
 3649SOL    HW111627   3.324   0.933   5.812
 3649SOL    HW211628   3.433   1.025   5.863
 3650SOL     OW11629   3.047   1.804   7.205
 3650SOL    HW111630   3.064   1.859   7.129
 3650SOL    HW211631   3.062   1.715   7.173
 3651SOL     OW11632   2.177   0.255   7.368
 3651SOL    HW111633   2.241   0.319   7.399
 3651SOL    HW211634   2.103   0.263   7.427
 3652SOL     OW11635   3.328   1.420   6.538
 3652SOL    HW111636   3.261   1.433   6.605
 3652SOL    HW211637   3.317   1.328   6.512
 3653SOL     OW11638   3.526   1.732   6.164
 3653SOL    HW111639   3.499   1.707   6.076
 3653SOL    HW211640   3.498   1.659   6.219
 3654SOL     OW11641   2.456   0.724   5.851
 3654SOL    HW111642   2.464   0.803   5.798
 3654SOL    HW211643   2.390   0.745   5.917
 3655SOL     OW11644   3.152   0.358   6.521
 3655SOL    HW111645   3.063   0.327   6.505
 3655SOL    HW211646   3.189   0.296   6.583
 3656SOL     OW11647   3.445   1.663   5.895
 3656SOL    HW111648   3.532   1.701   5.890
 3656SOL    HW211649   3.419   1.649   5.804
 3657SOL     OW11650   2.658   0.618   7.041
 3657SOL    HW111651   2.629   0.594   7.129
 3657SOL    HW211652   2.615   0.554   6.984
 3658SOL     OW11653   3.251   0.478   7.262
 3658SOL    HW111654   3.253   0.522   7.347
 3658SOL    HW211655   3.318   0.410   7.269
 3659SOL     OW11656   2.820   0.889   7.167
 3659SOL    HW111657   2.873   0.817   7.133
 3659SOL    HW211658   2.773   0.922   7.090
 3660SOL     OW11659   2.857   0.417   6.824
 3660SOL    HW111660   2.772   0.430   6.865
 3660SOL    HW211661   2.838   0.365   6.746
 3661SOL     OW11662   2.911   0.698   6.014
 3661SOL    HW111663   2.926   0.690   6.108
 3661SOL    HW211664   2.829   0.651   5.999
 3662SOL     OW11665   1.951   0.820   6.362
 3662SOL    HW111666   2.032   0.813   6.412
 3662SOL    HW211667   1.907   0.898   6.397
 3663SOL     OW11668   1.992   1.831   7.160
 3663SOL    HW111669   1.986   1.817   7.255
 3663SOL    HW211670   1.902   1.853   7.133
 3664SOL     OW11671   2.716   0.368   5.766
 3664SOL    HW111672   2.791   0.403   5.717
 3664SOL    HW211673   2.733   0.274   5.770
 3665SOL     OW11674   3.569   0.576   7.414
 3665SOL    HW111675   3.534   0.653   7.369
 3665SOL    HW211676   3.601   0.519   7.343
 3666SOL     OW11677   3.239   1.142   6.127
 3666SOL    HW111678   3.320   1.124   6.078
 3666SOL    HW211679   3.190   1.202   6.071
 3667SOL     OW11680   2.402   0.202   6.487
 3667SOL    HW111681   2.421   0.219   6.579
 3667SOL    HW211682   2.393   0.288   6.447
 3668SOL     OW11683   3.660   1.061   6.453
 3668SOL    HW111684   3.603   1.043   6.378
 3668SOL    HW211685   3.599   1.065   6.528
 3669SOL     OW11686   3.090   1.540   7.099
 3669SOL    HW111687   3.075   1.465   7.158
 3669SOL    HW211688   3.031   1.525   7.026
 3670SOL     OW11689   2.183   0.952   5.834
 3670SOL    HW111690   2.264   0.974   5.789
 3670SOL    HW211691   2.153   0.871   5.792
 3671SOL     OW11692   3.338   0.741   6.312
 3671SOL    HW111693   3.324   0.692   6.394
 3671SOL    HW211694   3.415   0.795   6.328
 3672SOL     OW11695   2.326   1.263   7.324
 3672SOL    HW111696   2.298   1.268   7.232
 3672SOL    HW211697   2.245   1.262   7.374
 3673SOL     OW11698   2.051   0.268   7.094
 3673SOL    HW111699   1.985   0.335   7.077
 3673SOL    HW211700   2.060   0.267   7.190
 3674SOL     OW11701   3.492   1.380   5.673
 3674SOL    HW111702   3.451   1.465   5.658
 3674SOL    HW211703   3.422   1.316   5.655
 3675SOL     OW11704   3.278   0.132   6.005
 3675SOL    HW111705   3.261   0.085   5.923
 3675SOL    HW211706   3.373   0.129   6.014
 3676SOL     OW11707   2.109   1.779   6.819
 3676SOL    HW111708   2.166   1.727   6.875
 3676SOL    HW211709   2.122   1.743   6.731
 3677SOL     OW11710   2.820   1.661   6.502
 3677SOL    HW111711   2.904   1.621   6.479
 3677SOL    HW211712   2.762   1.638   6.429
 3678SOL     OW11713   2.253   0.695   6.064
 3678SOL    HW111714   2.277   0.603   6.074
 3678SOL    HW211715   2.159   0.697   6.082
 3679SOL     OW11716   3.388   0.233   7.308
 3679SOL    HW111717   3.387   0.256   7.401
 3679SOL    HW211718   3.313   0.174   7.297
 3680SOL     OW11719   2.486   0.123   5.706
 3680SOL    HW111720   2.574   0.087   5.715
 3680SOL    HW211721   2.454   0.088   5.623
 3681SOL     OW11722   2.632   0.271   7.339
 3681SOL    HW111723   2.696   0.201   7.356
 3681SOL    HW211724   2.583   0.279   7.420
 3682SOL     OW11725   2.732   1.514   6.787
 3682SOL    HW111726   2.729   1.499   6.693
 3682SOL    HW211727   2.809   1.464   6.817
 3683SOL     OW11728   3.205   0.589   7.016
 3683SOL    HW111729   3.232   0.559   7.102
 3683SOL    HW211730   3.238   0.678   7.009
 3684SOL     OW11731   2.672   1.395   6.514
 3684SOL    HW111732   2.758   1.384   6.474
 3684SOL    HW211733   2.611   1.393   6.441
 3685SOL     OW11734   2.784   0.515   6.488
 3685SOL    HW111735   2.768   0.513   6.393
 3685SOL    HW211736   2.825   0.431   6.507
 3686SOL     OW11737   2.415   0.073   6.106
 3686SOL    HW111738   2.325   0.049   6.130
 3686SOL    HW211739   2.405   0.141   6.039
 3687SOL     OW11740   3.291   1.198   5.629
 3687SOL    HW111741   3.322   1.122   5.678
 3687SOL    HW211742   3.204   1.215   5.664
 3688SOL     OW11743   2.158   0.072   5.778
 3688SOL    HW111744   2.237   0.123   5.759
 3688SOL    HW211745   2.189   4.499   5.832
 3689SOL     OW11746   2.811   0.240   6.058
 3689SOL    HW111747   2.760   0.288   5.994
 3689SOL    HW211748   2.900   0.275   6.049
 3690SOL     OW11749   2.942   0.679   7.047
 3690SOL    HW111750   2.869   0.616   7.049
 3690SOL    HW211751   3.020   0.625   7.035
 3691SOL     OW11752   3.087   1.568   6.378
 3691SOL    HW111753   3.110   1.639   6.317
 3691SOL    HW211754   3.151   1.577   6.449
 3692SOL     OW11755   2.329   1.149   6.322
 3692SOL    HW111756   2.258   1.129   6.383
 3692SOL    HW211757   2.291   1.130   6.235
 3693SOL     OW11758   3.147   1.787   6.206
 3693SOL    HW111759   3.193   1.838   6.139
 3693SOL    HW211760   3.085   1.849   6.245
 3694SOL     OW11761   2.893   0.549   5.601
 3694SOL    HW111762   2.845   0.631   5.584
 3694SOL    HW211763   2.951   0.569   5.674
 3695SOL     OW11764   1.941   0.552   6.980
 3695SOL    HW111765   2.032   0.554   6.949
 3695SOL    HW211766   1.935   0.624   7.043
 3696SOL     OW11767   2.426   0.241   6.750
 3696SOL    HW111768   2.454   0.157   6.787
 3696SOL    HW211769   2.334   0.249   6.776
 3697SOL     OW11770   2.728   0.501   6.212
 3697SOL    HW111771   2.677   0.543   6.142
 3697SOL    HW211772   2.712   0.408   6.201
 3698SOL     OW11773   2.833   0.032   6.360
 3698SOL    HW111774   2.783   0.027   6.279
 3698SOL    HW211775   2.842   4.441   6.388
 3699SOL     OW11776   3.297   1.164   6.444
 3699SOL    HW111777   3.232   1.094   6.442
 3699SOL    HW211778   3.321   1.176   6.352
 3700SOL     OW11779   3.330   0.602   6.565
 3700SOL    HW111780   3.279   0.521   6.568
 3700SOL    HW211781   3.389   0.597   6.640
 3701SOL     OW11782   3.709   0.819   5.967
 3701SOL    HW111783   3.764   0.766   6.026
 3701SOL    HW211784   3.680   0.757   5.900
 3702SOL     OW11785   3.530   1.266   6.234
 3702SOL    HW111786   3.624   1.270   6.247
 3702SOL    HW211787   3.498   1.353   6.256
 3703SOL     OW11788   3.256   0.570   5.656
 3703SOL    HW111789   3.195   0.554   5.728
 3703SOL    HW211790   3.342   0.547   5.691
 3704SOL     OW11791   2.386   0.266   5.911
 3704SOL    HW111792   2.429   0.213   5.843
 3704SOL    HW211793   2.371   0.350   5.868
 3705SOL     OW11794   3.616   1.236   7.162
 3705SOL    HW111795   3.703   1.197   7.160
 3705SOL    HW211796   3.630   1.326   7.192
 3706SOL     OW11797   2.924   1.352   6.920
 3706SOL    HW111798   2.849   1.323   6.971
 3706SOL    HW211799   2.999   1.311   6.963
 3707SOL     OW11800   3.468   1.625   7.237
 3707SOL    HW111801   3.465   1.659   7.148
 3707SOL    HW211802   3.551   1.579   7.243
 3708SOL     OW11803   2.986   1.200   6.693
 3708SOL    HW111804   2.930   1.239   6.760
 3708SOL    HW211805   2.949   1.232   6.610
 3709SOL     OW11806   3.493   1.100   6.665
 3709SOL    HW111807   3.489   1.162   6.737
 3709SOL    HW211808   3.412   1.115   6.616
 3710SOL     OW11809   2.767   0.130   6.976
 3710SOL    HW111810   2.789   0.087   6.894
 3710SOL    HW211811   2.851   0.143   7.020
 3711SOL     OW11812   2.846   1.114   7.308
 3711SOL    HW111813   2.753   1.129   7.327
 3711SOL    HW211814   2.847   1.037   7.252
 3712SOL     OW11815   2.563   1.046   5.962
 3712SOL    HW111816   2.552   1.034   6.056
 3712SOL    HW211817   2.641   0.995   5.940
 3713SOL     OW11818   2.280   0.814   6.837
 3713SOL    HW111819   2.349   0.824   6.902
 3713SOL    HW211820   2.244   0.726   6.852
 3714SOL     OW11821   3.131   0.377   6.857
 3714SOL    HW111822   3.162   0.455   6.903
 3714SOL    HW211823   3.043   0.399   6.829
 3715SOL     OW11824   1.929   1.571   6.936
 3715SOL    HW111825   1.894   1.644   6.883
 3715SOL    HW211826   2.024   1.582   6.932
 3716SOL     OW11827   2.221   1.110   6.074
 3716SOL    HW111828   2.202   1.178   6.010
 3716SOL    HW211829   2.220   1.029   6.024
 3717SOL     OW11830   2.420   0.532   6.445
 3717SOL    HW111831   2.435   0.591   6.371
 3717SOL    HW211832   2.481   0.562   6.512
 3718SOL     OW11833   3.113   1.343   5.972
 3718SOL    HW111834   3.166   1.417   6.002
 3718SOL    HW211835   3.033   1.349   6.025
 3719SOL     OW11836   3.140   1.452   6.729
 3719SOL    HW111837   3.193   1.458   6.809
 3719SOL    HW211838   3.082   1.378   6.745
 3720SOL     OW11839   3.445   0.625   6.061
 3720SOL    HW111840   3.400   0.679   6.127
 3720SOL    HW211841   3.490   0.688   6.005
 3721SOL     OW11842   2.212   1.521   6.909
 3721SOL    HW111843   2.194   1.482   6.824
 3721SOL    HW211844   2.307   1.535   6.909
 3722SOL     OW11845   2.275   0.744   7.188
 3722SOL    HW111846   2.334   0.791   7.129
 3722SOL    HW211847   2.319   0.660   7.205
 3723SOL     OW11848   3.460   0.777   7.265
 3723SOL    HW111849   3.373   0.818   7.258
 3723SOL    HW211850   3.512   0.819   7.197
 3724SOL     OW11851   2.870   0.086   7.313
 3724SOL    HW111852   2.890   0.171   7.273
 3724SOL    HW211853   2.895   0.022   7.247
 3725SOL     OW11854   2.362   0.049   7.342
 3725SOL    HW111855   2.349   0.001   7.260
 3725SOL    HW211856   2.293   0.116   7.341
 3726SOL     OW11857   2.444   0.873   6.617
 3726SOL    HW111858   2.473   0.964   6.615
 3726SOL    HW211859   2.387   0.867   6.693
 3727SOL     OW11860   3.223   0.859   6.619
 3727SOL    HW111861   3.141   0.852   6.570
 3727SOL    HW211862   3.260   0.771   6.616
 3728SOL     OW11863   3.069   0.535   5.853
 3728SOL    HW111864   3.075   0.454   5.903
 3728SOL    HW211865   3.026   0.597   5.911
 3729SOL     OW11866   2.153   0.235   6.826
 3729SOL    HW111867   2.112   0.251   6.911
 3729SOL    HW211868   2.181   0.144   6.830
 3730SOL     OW11869   1.904   1.310   6.864
 3730SOL    HW111870   1.941   1.258   6.935
 3730SOL    HW211871   1.915   1.401   6.893
 3731SOL     OW11872   2.587   0.632   6.646
 3731SOL    HW111873   2.659   0.612   6.587
 3731SOL    HW211874   2.560   0.721   6.622
 3732SOL     OW11875   3.595   0.959   7.437
 3732SOL    HW111876   3.547   0.904   7.375
 3732SOL    HW211877   3.536   0.970   7.511
 3733SOL     OW11878   2.161   0.060   6.239
 3733SOL    HW111879   2.151   0.155   6.244
 3733SOL    HW211880   2.172   0.032   6.330
 3734SOL     OW11881   3.473   0.374   5.952
 3734SOL    HW111882   3.504   0.312   6.017
 3734SOL    HW211883   3.451   0.453   6.003
 3735SOL     OW11884   2.889   0.761   6.548
 3735SOL    HW111885   2.889   0.777   6.643
 3735SOL    HW211886   2.861   0.670   6.540
 3736SOL     OW11887   2.845   1.566   7.301
 3736SOL    HW111888   2.828   1.610   7.217
 3736SOL    HW211889   2.887   1.484   7.277
 3737SOL     OW11890   3.718   1.509   7.192
 3737SOL    HW111891   3.734   1.534   7.101
 3737SOL    HW211892   3.799   1.530   7.238
 3738SOL     OW11893   2.216   0.916   7.393
 3738SOL    HW111894   2.298   0.934   7.439
 3738SOL    HW211895   2.239   0.854   7.325
 3739SOL     OW11896   3.394   0.267   5.714
 3739SOL    HW111897   3.322   0.211   5.741
 3739SOL    HW211898   3.422   0.311   5.794
 3740SOL     OW11899   3.157   0.827   5.619
 3740SOL    HW111900   3.198   0.741   5.621
 3740SOL    HW211901   3.186   0.866   5.537
 3741SOL     OW11902   2.923   1.336   6.433
 3741SOL    HW111903   2.930   1.261   6.375
 3741SOL    HW211904   2.992   1.396   6.403
 3742SOL     OW11905   2.172   0.810   6.534
 3742SOL    HW111906   2.265   0.832   6.528
 3742SOL    HW211907   2.171   0.721   6.569
 3743SOL     OW11908   2.199   0.528   6.599
 3743SOL    HW111909   2.157   0.445   6.579
 3743SOL    HW211910   2.274   0.531   6.540
 3744SOL     OW11911   2.997   0.375   7.278
 3744SOL    HW111912   2.949   0.439   7.330
 3744SOL    HW211913   3.084   0.414   7.265
 3745SOL     OW11914   3.023   0.211   7.060
 3745SOL    HW111915   3.014   0.275   7.130
 3745SOL    HW211916   3.057   0.261   6.986
 3746SOL     OW11917   1.875   1.324   5.781
 3746SOL    HW111918   1.790   1.347   5.742
 3746SOL    HW211919   1.865   1.234   5.811
 3747SOL     OW11920   2.382   1.542   6.520
 3747SOL    HW111921   2.436   1.621   6.517
 3747SOL    HW211922   2.418   1.486   6.452
 3748SOL     OW11923   2.850   0.795   6.815
 3748SOL    HW111924   2.902   0.769   6.891
 3748SOL    HW211925   2.764   0.757   6.831
 3749SOL     OW11926   1.896   0.541   6.704
 3749SOL    HW111927   1.975   0.522   6.653
 3749SOL    HW211928   1.926   0.549   6.794
 3750SOL     OW11929   2.047   0.517   7.306
 3750SOL    HW111930   2.119   0.496   7.246
 3750SOL    HW211931   2.004   0.592   7.265
 3751SOL     OW11932   3.238   0.941   7.246
 3751SOL    HW111933   3.258   1.035   7.245
 3751SOL    HW211934   3.235   0.917   7.153
 3752SOL     OW11935   2.674   0.574   5.939
 3752SOL    HW111936   2.677   0.501   5.876
 3752SOL    HW211937   2.599   0.626   5.910
 3753SOL     OW11938   3.504   0.602   6.776
 3753SOL    HW111939   3.493   0.541   6.849
 3753SOL    HW211940   3.591   0.581   6.741
 3754SOL     OW11941   2.111   1.552   7.318
 3754SOL    HW111942   2.082   1.615   7.385
 3754SOL    HW211943   2.108   1.467   7.361
 3755SOL     OW11944   2.555   0.460   6.852
 3755SOL    HW111945   2.510   0.382   6.818
 3755SOL    HW211946   2.557   0.520   6.777
 3756SOL     OW11947   2.790   1.677   7.053
 3756SOL    HW111948   2.767   1.645   6.966
 3756SOL    HW211949   2.792   1.772   7.045
 3757SOL     OW11950   2.329   0.493   5.772
 3757SOL    HW111951   2.387   0.567   5.792
 3757SOL    HW211952   2.242   0.533   5.763
 3758SOL     OW11953   2.010   1.140   7.057
 3758SOL    HW111954   2.015   1.086   7.136
 3758SOL    HW211955   2.027   1.079   6.986
 3759SOL     OW11956   3.191   1.049   6.811
 3759SOL    HW111957   3.215   0.986   6.743
 3759SOL    HW211958   3.118   1.098   6.773
 3760SOL     OW11959   3.170   0.858   5.894
 3760SOL    HW111960   3.094   0.826   5.942
 3760SOL    HW211961   3.147   0.844   5.802
 3761SOL     OW11962   3.630   1.747   6.734
 3761SOL    HW111963   3.690   1.772   6.664
 3761SOL    HW211964   3.606   1.657   6.714
 3762SOL     OW11965   3.123   1.734   6.717
 3762SOL    HW111966   3.196   1.745   6.656
 3762SOL    HW211967   3.110   1.639   6.721
 3763SOL     OW11968   1.951   1.260   6.603
 3763SOL    HW111969   1.934   1.275   6.696
 3763SOL    HW211970   1.871   1.219   6.570
 3764SOL     OW11971   2.540   1.664   7.310
 3764SOL    HW111972   2.489   1.744   7.306
 3764SOL    HW211973   2.603   1.672   7.239
 3765SOL     OW11974   3.580   0.130   6.084
 3765SOL    HW111975   3.654   0.135   6.023
 3765SOL    HW211976   3.600   0.056   6.141
 3766SOL     OW11977   3.248   1.566   6.064
 3766SOL    HW111978   3.313   1.596   6.000
 3766SOL    HW211979   3.210   1.647   6.100
 3767SOL     OW11980   1.994   1.797   7.429
 3767SOL    HW111981   1.943   1.731   7.475
 3767SOL    HW211982   2.045   1.840   7.497
 3768SOL     OW11983   3.140   0.927   6.259
 3768SOL    HW111984   3.211   0.863   6.263
 3768SOL    HW211985   3.174   0.998   6.205
 3769SOL     OW11986   2.681   1.272   7.018
 3769SOL    HW111987   2.653   1.310   7.101
 3769SOL    HW211988   2.613   1.296   6.956
 3770SOL     OW11989   3.497   1.727   6.979
 3770SOL    HW111990   3.542   1.735   6.895
 3770SOL    HW211991   3.481   1.817   7.007
 3771SOL     OW11992   3.701   0.155   6.553
 3771SOL    HW111993   3.732   0.080   6.503
 3771SOL    HW211994   3.614   0.174   6.517
 3772SOL     OW11995   2.129   0.325   6.306
 3772SOL    HW111996   2.044   0.358   6.277
 3772SOL    HW211997   2.120   0.314   6.400
 3773SOL     OW11998   3.080   1.609   5.617
 3773SOL    HW111999   3.061   1.520   5.647
 3773SOL    HW212000   3.011   1.628   5.554
 3774SOL     OW12001   2.686   1.006   6.958
 3774SOL    HW112002   2.729   1.002   6.872
 3774SOL    HW212003   2.687   1.098   6.982
 3775SOL     OW12004   2.779   0.911   5.877
 3775SOL    HW112005   2.840   0.943   5.811
 3775SOL    HW212006   2.825   0.839   5.920
 3776SOL     OW12007   3.357   1.626   5.628
 3776SOL    HW112008   3.262   1.619   5.617
 3776SOL    HW212009   3.391   1.631   5.539
 3777SOL     OW12010   2.232   1.300   7.079
 3777SOL    HW112011   2.220   1.378   7.025
 3777SOL    HW212012   2.154   1.246   7.061
 3778SOL     OW12013   3.474   1.283   6.867
 3778SOL    HW112014   3.533   1.276   6.943
 3778SOL    HW212015   3.413   1.353   6.891
 3779SOL     OW12016   2.910   1.106   6.286
 3779SOL    HW112017   2.840   1.057   6.329
 3779SOL    HW212018   2.972   1.039   6.257
 3780SOL     OW12019   2.870   0.241   6.582
 3780SOL    HW112020   2.876   0.212   6.492
 3780SOL    HW212021   2.863   0.160   6.633
 3781SOL     OW12022   3.581   0.393   6.964
 3781SOL    HW112023   3.653   0.456   6.962
 3781SOL    HW212024   3.611   0.321   6.908
 3782SOL     OW12025   2.113   1.313   5.914
 3782SOL    HW112026   2.027   1.318   5.871
 3782SOL    HW212027   2.115   1.388   5.973
 3783SOL     OW12028   1.974   1.018   7.305
 3783SOL    HW112029   1.898   0.995   7.359
 3783SOL    HW212030   2.049   0.982   7.353
 3784SOL     OW12031   2.521   0.203   7.082
 3784SOL    HW112032   2.602   0.179   7.036
 3784SOL    HW212033   2.550   0.222   7.172
 3785SOL     OW12034   1.942   0.344   5.632
 3785SOL    HW112035   1.870   0.292   5.596
 3785SOL    HW212036   1.959   0.411   5.567
 3786SOL     OW12037   3.294   0.858   6.988
 3786SOL    HW112038   3.245   0.918   6.931
 3786SOL    HW212039   3.384   0.861   6.954
 3787SOL     OW12040   1.928   0.180   5.909
 3787SOL    HW112041   1.925   0.246   5.840
 3787SOL    HW212042   2.003   0.125   5.885
 3788SOL     OW12043   3.039   1.342   5.702
 3788SOL    HW112044   2.951   1.303   5.707
 3788SOL    HW212045   3.072   1.340   5.792
 3789SOL     OW12046   2.480   0.831   7.019
 3789SOL    HW112047   2.535   0.908   7.004
 3789SOL    HW212048   2.542   0.758   7.027
 3790SOL     OW12049   3.350   1.771   6.555
 3790SOL    HW112050   3.377   1.831   6.486
 3790SOL    HW212051   3.428   1.760   6.609
 3791SOL     OW12052   2.578   0.564   7.293
 3791SOL    HW112053   2.613   0.629   7.354
 3791SOL    HW212054   2.615   0.481   7.322
 3792SOL     OW12055   3.331   1.203   7.219
 3792SOL    HW112056   3.319   1.216   7.313
 3792SOL    HW212057   3.424   1.215   7.205
 3793SOL     OW12058   2.246   1.741   7.151
 3793SOL    HW112059   2.159   1.778   7.137
 3793SOL    HW212060   2.229   1.655   7.190
 3794SOL     OW12061   3.534   0.882   6.842
 3794SOL    HW112062   3.524   0.797   6.799
 3794SOL    HW212063   3.525   0.945   6.771
 3795SOL     OW12064   3.080   0.327   6.034
 3795SOL    HW112065   3.145   0.258   6.025
 3795SOL    HW212066   3.107   0.374   6.113
 3796SOL     OW12067   2.451   0.741   6.255
 3796SOL    HW112068   2.492   0.825   6.236
 3796SOL    HW212069   2.382   0.733   6.189
 3797SOL     OW12070   3.628   0.361   7.229
 3797SOL    HW112071   3.611   0.375   7.135
 3797SOL    HW212072   3.550   0.317   7.261
 3798SOL     OW12073   3.606   0.933   7.099
 3798SOL    HW112074   3.607   1.028   7.112
 3798SOL    HW212075   3.591   0.922   7.005
 3799SOL     OW12076   2.723   1.358   5.598
 3799SOL    HW112077   2.709   1.368   5.692
 3799SOL    HW212078   2.753   1.444   5.569
 3800SOL     OW12079   2.730   0.967   6.442
 3800SOL    HW112080   2.779   0.895   6.482
 3800SOL    HW212081   2.696   1.017   6.516
 3801SOL     OW12082   2.944   0.990   5.676
 3801SOL    HW112083   2.919   1.037   5.596
 3801SOL    HW212084   3.018   0.935   5.649
 3802SOL     OW12085   3.719   1.556   6.432
 3802SOL    HW112086   3.642   1.546   6.376
 3802SOL    HW212087   3.710   1.488   6.498
 3803SOL     OW12088   2.086   1.304   7.442
 3803SOL    HW112089   2.018   1.243   7.413
 3803SOL    HW212090   2.068   1.317   7.535
 3804SOL     OW12091   1.941   1.235   6.246
 3804SOL    HW112092   1.951   1.186   6.328
 3804SOL    HW212093   2.017   1.209   6.193
 3805SOL     OW12094   2.542   1.400   7.212
 3805SOL    HW112095   2.462   1.356   7.241
 3805SOL    HW212096   2.536   1.488   7.249
 3806SOL     OW12097   3.672   0.184   6.825
 3806SOL    HW112098   3.672   0.090   6.846
 3806SOL    HW212099   3.688   0.187   6.731
 3807SOL     OW12100   2.296   0.433   6.114
 3807SOL    HW112101   2.320   0.363   6.053
 3807SOL    HW212102   2.242   0.390   6.180
 3808SOL     OW12103   3.564   1.491   6.686
 3808SOL    HW112104   3.482   1.466   6.642
 3808SOL    HW212105   3.578   1.423   6.751
 3809SOL     OW12106   2.189   0.554   6.877
 3809SOL    HW112107   2.245   0.499   6.931
 3809SOL    HW212108   2.210   0.528   6.787
 3810SOL     OW12109   3.294   0.215   6.704
 3810SOL    HW112110   3.331   0.145   6.758
 3810SOL    HW212111   3.243   0.268   6.765
 3811SOL     OW12112   2.859   0.013   6.734
 3811SOL    HW112113   2.813   4.429   6.725
 3811SOL    HW212114   2.951   4.488   6.747
 3812SOL     OW12115   2.688   1.277   5.875
 3812SOL    HW112116   2.626   1.206   5.893
 3812SOL    HW212117   2.721   1.302   5.961
 3813SOL     OW12118   2.479   1.560   6.871
 3813SOL    HW112119   2.486   1.641   6.921
 3813SOL    HW212120   2.567   1.547   6.834
 3814SOL     OW12121   3.205   0.054   5.738
 3814SOL    HW112122   3.244   4.479   5.693
 3814SOL    HW212123   3.129   0.017   5.784
 3815SOL     OW12124   3.177   0.463   6.267
 3815SOL    HW112125   3.113   0.535   6.267
 3815SOL    HW212126   3.164   0.419   6.351
 3816SOL     OW12127   3.448   0.202   6.453
 3816SOL    HW112128   3.387   0.217   6.526
 3816SOL    HW212129   3.451   0.286   6.408
 3817SOL     OW12130   1.902   1.073   5.889
 3817SOL    HW112131   1.996   1.068   5.876
 3817SOL    HW212132   1.876   0.984   5.913
 3818SOL     OW12133   2.092   0.627   7.567
 3818SOL    HW112134   2.004   0.621   7.604
 3818SOL    HW212135   2.083   0.595   7.478
 3819SOL     OW12136   2.072   0.295   8.436
 3819SOL    HW112137   2.103   0.269   8.523
 3819SOL    HW212138   1.990   0.248   8.425
 3820SOL     OW12139   1.871   0.383   8.088
 3820SOL    HW112140   1.784   0.404   8.124
 3820SOL    HW212141   1.855   0.309   8.030
 3821SOL     OW12142   2.429   1.283   8.619
 3821SOL    HW112143   2.341   1.284   8.583
 3821SOL    HW212144   2.442   1.371   8.655
 3822SOL     OW12145   3.420   1.512   8.154
 3822SOL    HW112146   3.376   1.493   8.237
 3822SOL    HW212147   3.349   1.516   8.089
 3823SOL     OW12148   2.994   0.700   8.150
 3823SOL    HW112149   3.042   0.782   8.138
 3823SOL    HW212150   2.944   0.712   8.231
 3824SOL     OW12151   3.626   0.609   7.678
 3824SOL    HW112152   3.608   0.597   7.584
 3824SOL    HW212153   3.595   0.528   7.718
 3825SOL     OW12154   2.622   1.145   8.486
 3825SOL    HW112155   2.551   1.178   8.542
 3825SOL    HW212156   2.655   1.222   8.441
 3826SOL     OW12157   2.724   0.780   9.269
 3826SOL    HW112158   2.712   0.852   9.332
 3826SOL    HW212159   2.748   0.824   9.187
 3827SOL     OW12160   2.549   1.007   8.097
 3827SOL    HW112161   2.612   0.992   8.167
 3827SOL    HW212162   2.478   1.056   8.139
 3828SOL     OW12163   2.569   1.152   9.257
 3828SOL    HW112164   2.617   1.231   9.281
 3828SOL    HW212165   2.485   1.184   9.224
 3829SOL     OW12166   2.193   1.428   8.517
 3829SOL    HW112167   2.120   1.392   8.467
 3829SOL    HW212168   2.244   1.478   8.452
 3830SOL     OW12169   3.324   1.498   8.798
 3830SOL    HW112170   3.367   1.582   8.809
 3830SOL    HW212171   3.268   1.489   8.876
 3831SOL     OW12172   2.303   0.396   8.940
 3831SOL    HW112173   2.384   0.346   8.941
 3831SOL    HW212174   2.234   0.330   8.952
 3832SOL     OW12175   3.474   0.448   8.186
 3832SOL    HW112176   3.394   0.472   8.140
 3832SOL    HW212177   3.496   0.525   8.238
 3833SOL     OW12178   2.082   1.715   7.924
 3833SOL    HW112179   2.108   1.792   7.975
 3833SOL    HW212180   2.152   1.706   7.859
 3834SOL     OW12181   2.998   1.341   9.139
 3834SOL    HW112182   3.037   1.337   9.226
 3834SOL    HW212183   2.945   1.261   9.134
 3835SOL     OW12184   2.092   1.440   7.983
 3835SOL    HW112185   2.072   1.534   7.989
 3835SOL    HW212186   2.030   1.399   8.043
 3836SOL     OW12187   2.116   1.090   8.338
 3836SOL    HW112188   2.113   1.004   8.381
 3836SOL    HW212189   2.058   1.145   8.391
 3837SOL     OW12190   2.481   1.786   8.884
 3837SOL    HW112191   2.395   1.772   8.924
 3837SOL    HW212192   2.499   1.879   8.898
 3838SOL     OW12193   2.451   0.979   7.580
 3838SOL    HW112194   2.493   1.032   7.512
 3838SOL    HW212195   2.492   1.008   7.661
 3839SOL     OW12196   3.448   0.114   8.923
 3839SOL    HW112197   3.459   0.182   8.856
 3839SOL    HW212198   3.437   0.162   9.005
 3840SOL     OW12199   1.977   0.651   8.007
 3840SOL    HW112200   1.948   0.562   8.029
 3840SOL    HW212201   1.968   0.700   8.089
 3841SOL     OW12202   3.703   1.761   7.785
 3841SOL    HW112203   3.762   1.732   7.854
 3841SOL    HW212204   3.730   1.851   7.767
 3842SOL     OW12205   1.892   1.596   7.572
 3842SOL    HW112206   1.874   1.504   7.591
 3842SOL    HW212207   1.867   1.642   7.652
 3843SOL     OW12208   3.553   0.921   8.086
 3843SOL    HW112209   3.638   0.880   8.068
 3843SOL    HW212210   3.532   0.969   8.007
 3844SOL     OW12211   3.507   1.108   7.877
 3844SOL    HW112212   3.592   1.117   7.835
 3844SOL    HW212213   3.511   1.168   7.952
 3845SOL     OW12214   1.984   0.743   9.034
 3845SOL    HW112215   2.075   0.766   9.049
 3845SOL    HW212216   1.937   0.826   9.041
 3846SOL     OW12217   2.475   1.382   8.183
 3846SOL    HW112218   2.429   1.298   8.192
 3846SOL    HW212219   2.458   1.409   8.092
 3847SOL     OW12220   3.153   1.239   8.872
 3847SOL    HW112221   3.185   1.171   8.813
 3847SOL    HW212222   3.208   1.231   8.950
 3848SOL     OW12223   2.677   0.011   7.993
 3848SOL    HW112224   2.711   0.098   7.970
 3848SOL    HW212225   2.582   0.021   7.987
 3849SOL     OW12226   2.054   0.969   8.717
 3849SOL    HW112227   2.138   0.925   8.701
 3849SOL    HW212228   1.989   0.912   8.675
 3850SOL     OW12229   3.394   0.991   7.644
 3850SOL    HW112230   3.324   0.934   7.674
 3850SOL    HW212231   3.433   1.025   7.725
 3851SOL     OW12232   3.048   1.804   9.068
 3851SOL    HW112233   3.063   1.860   8.993
 3851SOL    HW212234   3.062   1.715   9.035
 3852SOL     OW12235   2.177   0.255   9.230
 3852SOL    HW112236   2.241   0.319   9.261
 3852SOL    HW212237   2.103   0.263   9.289
 3853SOL     OW12238   3.327   1.420   8.401
 3853SOL    HW112239   3.259   1.434   8.467
 3853SOL    HW212240   3.316   1.329   8.373
 3854SOL     OW12241   3.523   1.733   8.026
 3854SOL    HW112242   3.500   1.705   7.937
 3854SOL    HW212243   3.497   1.660   8.082
 3855SOL     OW12244   2.456   0.724   7.712
 3855SOL    HW112245   2.464   0.804   7.660
 3855SOL    HW212246   2.391   0.745   7.779
 3856SOL     OW12247   3.152   0.358   8.383
 3856SOL    HW112248   3.063   0.327   8.367
 3856SOL    HW212249   3.189   0.296   8.445
 3857SOL     OW12250   3.443   1.668   7.757
 3857SOL    HW112251   3.532   1.703   7.751
 3857SOL    HW212252   3.418   1.651   7.666
 3858SOL     OW12253   2.658   0.618   8.903
 3858SOL    HW112254   2.629   0.594   8.991
 3858SOL    HW212255   2.615   0.554   8.846
 3859SOL     OW12256   3.251   0.478   9.124
 3859SOL    HW112257   3.253   0.522   9.209
 3859SOL    HW212258   3.318   0.410   9.131
 3860SOL     OW12259   2.820   0.889   9.029
 3860SOL    HW112260   2.873   0.817   8.995
 3860SOL    HW212261   2.772   0.921   8.952
 3861SOL     OW12262   2.857   0.417   8.686
 3861SOL    HW112263   2.772   0.430   8.727
 3861SOL    HW212264   2.838   0.365   8.608
 3862SOL     OW12265   2.911   0.698   7.876
 3862SOL    HW112266   2.926   0.691   7.970
 3862SOL    HW212267   2.829   0.651   7.861
 3863SOL     OW12268   1.951   0.820   8.224
 3863SOL    HW112269   2.033   0.813   8.273
 3863SOL    HW212270   1.908   0.898   8.259
 3864SOL     OW12271   1.989   1.815   9.022
 3864SOL    HW112272   1.977   1.810   9.117
 3864SOL    HW212273   1.920   1.873   8.992
 3865SOL     OW12274   2.716   0.368   7.628
 3865SOL    HW112275   2.791   0.403   7.579
 3865SOL    HW212276   2.733   0.274   7.632
 3866SOL     OW12277   3.569   0.576   9.276
 3866SOL    HW112278   3.534   0.653   9.231
 3866SOL    HW212279   3.601   0.519   9.206
 3867SOL     OW12280   3.237   1.143   7.990
 3867SOL    HW112281   3.315   1.128   7.937
 3867SOL    HW212282   3.185   1.205   7.939
 3868SOL     OW12283   2.402   0.202   8.349
 3868SOL    HW112284   2.421   0.219   8.441
 3868SOL    HW212285   2.393   0.288   8.309
 3869SOL     OW12286   2.871   1.446   7.922
 3869SOL    HW112287   2.830   1.517   7.873
 3869SOL    HW212288   2.857   1.468   8.014
 3870SOL     OW12289   2.215   1.798   8.305
 3870SOL    HW112290   2.248   1.709   8.312
 3870SOL    HW212291   2.291   1.854   8.324
 3871SOL     OW12292   3.660   1.062   8.315
 3871SOL    HW112293   3.604   1.043   8.240
 3871SOL    HW212294   3.599   1.065   8.389
 3872SOL     OW12295   3.090   1.540   8.960
 3872SOL    HW112296   3.076   1.467   9.021
 3872SOL    HW212297   3.029   1.524   8.889
 3873SOL     OW12298   2.183   0.955   7.696
 3873SOL    HW112299   2.265   0.974   7.650
 3873SOL    HW212300   2.152   0.874   7.656
 3874SOL     OW12301   3.339   0.740   8.174
 3874SOL    HW112302   3.325   0.692   8.256
 3874SOL    HW212303   3.415   0.795   8.190
 3875SOL     OW12304   2.326   1.263   9.185
 3875SOL    HW112305   2.298   1.268   9.094
 3875SOL    HW212306   2.245   1.262   9.236
 3876SOL     OW12307   2.982   1.777   7.680
 3876SOL    HW112308   2.911   1.733   7.726
 3876SOL    HW212309   3.004   1.718   7.608
 3877SOL     OW12310   2.051   0.268   8.956
 3877SOL    HW112311   1.985   0.335   8.939
 3877SOL    HW212312   2.060   0.267   9.052
 3878SOL     OW12313   3.492   1.379   7.535
 3878SOL    HW112314   3.450   1.464   7.520
 3878SOL    HW212315   3.422   1.315   7.517
 3879SOL     OW12316   2.330   1.737   7.770
 3879SOL    HW112317   2.372   1.794   7.834
 3879SOL    HW212318   2.402   1.708   7.714
 3880SOL     OW12319   3.278   0.132   7.867
 3880SOL    HW112320   3.261   0.085   7.785
 3880SOL    HW212321   3.373   0.129   7.876
 3881SOL     OW12322   2.104   1.780   8.685
 3881SOL    HW112323   2.168   1.723   8.728
 3881SOL    HW212324   2.106   1.753   8.593
 3882SOL     OW12325   2.798   1.697   8.350
 3882SOL    HW112326   2.876   1.645   8.370
 3882SOL    HW212327   2.754   1.649   8.279
 3883SOL     OW12328   2.252   0.695   7.925
 3883SOL    HW112329   2.277   0.603   7.936
 3883SOL    HW212330   2.159   0.697   7.944
 3884SOL     OW12331   3.388   0.233   9.170
 3884SOL    HW112332   3.387   0.256   9.263
 3884SOL    HW212333   3.313   0.174   9.159
 3885SOL     OW12334   2.486   0.123   7.568
 3885SOL    HW112335   2.574   0.087   7.577
 3885SOL    HW212336   2.454   0.088   7.485
 3886SOL     OW12337   2.633   0.271   9.201
 3886SOL    HW112338   2.696   0.201   9.218
 3886SOL    HW212339   2.583   0.279   9.282
 3887SOL     OW12340   2.739   1.522   8.641
 3887SOL    HW112341   2.724   1.484   8.554
 3887SOL    HW212342   2.808   1.467   8.679
 3888SOL     OW12343   3.204   0.589   8.878
 3888SOL    HW112344   3.232   0.559   8.964
 3888SOL    HW212345   3.238   0.678   8.871
 3889SOL     OW12346   2.675   1.399   8.384
 3889SOL    HW112347   2.759   1.388   8.339
 3889SOL    HW212348   2.610   1.395   8.314
 3890SOL     OW12349   2.784   0.515   8.350
 3890SOL    HW112350   2.768   0.513   8.255
 3890SOL    HW212351   2.825   0.431   8.369
 3891SOL     OW12352   2.415   0.073   7.968
 3891SOL    HW112353   2.325   0.049   7.992
 3891SOL    HW212354   2.405   0.141   7.901
 3892SOL     OW12355   3.291   1.198   7.490
 3892SOL    HW112356   3.321   1.122   7.539
 3892SOL    HW212357   3.204   1.217   7.526
 3893SOL     OW12358   2.158   0.072   7.640
 3893SOL    HW112359   2.237   0.123   7.621
 3893SOL    HW212360   2.189   4.499   7.694
 3894SOL     OW12361   2.811   0.240   7.920
 3894SOL    HW112362   2.760   0.289   7.856
 3894SOL    HW212363   2.900   0.275   7.911
 3895SOL     OW12364   2.942   0.679   8.909
 3895SOL    HW112365   2.869   0.616   8.911
 3895SOL    HW212366   3.020   0.625   8.897
 3896SOL     OW12367   3.086   1.570   8.242
 3896SOL    HW112368   3.106   1.637   8.176
 3896SOL    HW212369   3.154   1.580   8.308
 3897SOL     OW12370   2.329   1.148   8.185
 3897SOL    HW112371   2.258   1.129   8.247
 3897SOL    HW212372   2.291   1.130   8.099
 3898SOL     OW12373   3.133   1.795   8.053
 3898SOL    HW112374   3.177   1.856   7.994
 3898SOL    HW212375   3.070   1.849   8.100
 3899SOL     OW12376   2.893   0.549   7.462
 3899SOL    HW112377   2.845   0.631   7.447
 3899SOL    HW212378   2.951   0.569   7.536
 3900SOL     OW12379   1.941   0.552   8.842
 3900SOL    HW112380   2.032   0.554   8.811
 3900SOL    HW212381   1.935   0.623   8.905
 3901SOL     OW12382   2.426   0.241   8.612
 3901SOL    HW112383   2.454   0.157   8.649
 3901SOL    HW212384   2.334   0.249   8.638
 3902SOL     OW12385   2.728   0.501   8.074
 3902SOL    HW112386   2.677   0.543   8.004
 3902SOL    HW212387   2.712   0.407   8.063
 3903SOL     OW12388   2.833   0.032   8.222
 3903SOL    HW112389   2.783   0.027   8.141
 3903SOL    HW212390   2.842   4.441   8.250
 3904SOL     OW12391   3.297   1.164   8.306
 3904SOL    HW112392   3.230   1.095   8.304
 3904SOL    HW212393   3.320   1.177   8.213
 3905SOL     OW12394   3.330   0.602   8.427
 3905SOL    HW112395   3.279   0.521   8.430
 3905SOL    HW212396   3.389   0.597   8.502
 3906SOL     OW12397   3.710   0.819   7.829
 3906SOL    HW112398   3.764   0.766   7.888
 3906SOL    HW212399   3.680   0.757   7.762
 3907SOL     OW12400   2.354   1.415   7.609
 3907SOL    HW112401   2.279   1.385   7.660
 3907SOL    HW212402   2.334   1.386   7.520
 3908SOL     OW12403   3.530   1.266   8.096
 3908SOL    HW112404   3.625   1.270   8.109
 3908SOL    HW212405   3.498   1.353   8.118
 3909SOL     OW12406   3.256   0.570   7.518
 3909SOL    HW112407   3.195   0.554   7.590
 3909SOL    HW212408   3.342   0.548   7.554
 3910SOL     OW12409   2.386   0.266   7.773
 3910SOL    HW112410   2.429   0.213   7.705
 3910SOL    HW212411   2.371   0.350   7.730
 3911SOL     OW12412   3.615   1.236   9.024
 3911SOL    HW112413   3.703   1.197   9.021
 3911SOL    HW212414   3.630   1.326   9.055
 3912SOL     OW12415   2.922   1.354   8.783
 3912SOL    HW112416   2.848   1.322   8.834
 3912SOL    HW212417   2.998   1.312   8.824
 3913SOL     OW12418   3.467   1.625   9.099
 3913SOL    HW112419   3.465   1.659   9.010
 3913SOL    HW212420   3.551   1.579   9.105
 3914SOL     OW12421   2.988   1.202   8.555
 3914SOL    HW112422   2.929   1.239   8.621
 3914SOL    HW212423   2.953   1.231   8.471
 3915SOL     OW12424   3.493   1.100   8.527
 3915SOL    HW112425   3.488   1.162   8.599
 3915SOL    HW212426   3.412   1.114   8.478
 3916SOL     OW12427   2.767   0.130   8.838
 3916SOL    HW112428   2.789   0.087   8.756
 3916SOL    HW212429   2.851   0.143   8.882
 3917SOL     OW12430   2.846   1.114   9.170
 3917SOL    HW112431   2.753   1.129   9.189
 3917SOL    HW212432   2.846   1.037   9.114
 3918SOL     OW12433   2.570   1.061   7.820
 3918SOL    HW112434   2.557   1.046   7.913
 3918SOL    HW212435   2.646   1.007   7.798
 3919SOL     OW12436   2.279   0.814   8.699
 3919SOL    HW112437   2.348   0.823   8.764
 3919SOL    HW212438   2.244   0.726   8.714
 3920SOL     OW12439   3.131   0.377   8.719
 3920SOL    HW112440   3.162   0.455   8.765
 3920SOL    HW212441   3.043   0.399   8.691
 3921SOL     OW12442   1.928   1.570   8.794
 3921SOL    HW112443   1.894   1.648   8.750
 3921SOL    HW212444   2.023   1.583   8.796
 3922SOL     OW12445   2.216   1.106   7.940
 3922SOL    HW112446   2.218   1.179   7.878
 3922SOL    HW212447   2.214   1.028   7.885
 3923SOL     OW12448   2.420   0.532   8.307
 3923SOL    HW112449   2.435   0.591   8.233
 3923SOL    HW212450   2.481   0.562   8.374
 3924SOL     OW12451   3.110   1.348   7.837
 3924SOL    HW112452   3.165   1.420   7.868
 3924SOL    HW212453   3.023   1.368   7.871
 3925SOL     OW12454   3.139   1.456   8.594
 3925SOL    HW112455   3.193   1.457   8.672
 3925SOL    HW212456   3.084   1.378   8.604
 3926SOL     OW12457   3.445   0.625   7.923
 3926SOL    HW112458   3.400   0.679   7.989
 3926SOL    HW212459   3.490   0.689   7.867
 3927SOL     OW12460   2.213   1.520   8.768
 3927SOL    HW112461   2.197   1.480   8.683
 3927SOL    HW212462   2.308   1.534   8.770
 3928SOL     OW12463   2.275   0.744   9.050
 3928SOL    HW112464   2.334   0.791   8.991
 3928SOL    HW212465   2.319   0.660   9.067
 3929SOL     OW12466   3.460   0.777   9.127
 3929SOL    HW112467   3.373   0.818   9.119
 3929SOL    HW212468   3.512   0.819   9.059
 3930SOL     OW12469   2.870   0.086   9.175
 3930SOL    HW112470   2.890   0.171   9.135
 3930SOL    HW212471   2.895   0.022   9.109
 3931SOL     OW12472   2.362   0.049   9.204
 3931SOL    HW112473   2.349   0.001   9.122
 3931SOL    HW212474   2.293   0.116   9.203
 3932SOL     OW12475   2.444   0.872   8.479
 3932SOL    HW112476   2.474   0.963   8.476
 3932SOL    HW212477   2.387   0.868   8.556
 3933SOL     OW12478   3.223   0.859   8.481
 3933SOL    HW112479   3.141   0.852   8.431
 3933SOL    HW212480   3.260   0.771   8.478
 3934SOL     OW12481   3.069   0.535   7.715
 3934SOL    HW112482   3.075   0.454   7.765
 3934SOL    HW212483   3.026   0.597   7.773
 3935SOL     OW12484   2.153   0.236   8.688
 3935SOL    HW112485   2.112   0.251   8.773
 3935SOL    HW212486   2.181   0.144   8.692
 3936SOL     OW12487   1.907   1.309   8.725
 3936SOL    HW112488   1.942   1.258   8.798
 3936SOL    HW212489   1.915   1.400   8.753
 3937SOL     OW12490   2.587   0.632   8.508
 3937SOL    HW112491   2.659   0.612   8.449
 3937SOL    HW212492   2.560   0.721   8.484
 3938SOL     OW12493   3.595   0.959   9.299
 3938SOL    HW112494   3.547   0.904   9.237
 3938SOL    HW212495   3.536   0.970   9.373
 3939SOL     OW12496   2.161   0.060   8.101
 3939SOL    HW112497   2.151   0.155   8.106
 3939SOL    HW212498   2.172   0.032   8.192
 3940SOL     OW12499   3.473   0.374   7.814
 3940SOL    HW112500   3.504   0.312   7.879
 3940SOL    HW212501   3.451   0.453   7.865
 3941SOL     OW12502   2.889   0.761   8.411
 3941SOL    HW112503   2.889   0.777   8.505
 3941SOL    HW212504   2.861   0.670   8.402
 3942SOL     OW12505   2.845   1.566   9.162
 3942SOL    HW112506   2.829   1.611   9.079
 3942SOL    HW212507   2.887   1.484   9.138
 3943SOL     OW12508   3.718   1.509   9.054
 3943SOL    HW112509   3.734   1.535   8.963
 3943SOL    HW212510   3.799   1.530   9.100
 3944SOL     OW12511   2.216   0.916   9.255
 3944SOL    HW112512   2.298   0.934   9.301
 3944SOL    HW212513   2.239   0.854   9.187
 3945SOL     OW12514   3.394   0.267   7.576
 3945SOL    HW112515   3.322   0.211   7.603
 3945SOL    HW212516   3.422   0.311   7.656
 3946SOL     OW12517   3.157   0.827   7.481
 3946SOL    HW112518   3.198   0.741   7.483
 3946SOL    HW212519   3.187   0.866   7.399
 3947SOL     OW12520   2.926   1.335   8.300
 3947SOL    HW112521   2.929   1.261   8.239
 3947SOL    HW212522   2.990   1.398   8.266
 3948SOL     OW12523   2.172   0.810   8.397
 3948SOL    HW112524   2.265   0.832   8.390
 3948SOL    HW212525   2.171   0.721   8.431
 3949SOL     OW12526   2.199   0.528   8.461
 3949SOL    HW112527   2.157   0.445   8.441
 3949SOL    HW212528   2.274   0.531   8.402
 3950SOL     OW12529   2.997   0.375   9.140
 3950SOL    HW112530   2.950   0.439   9.192
 3950SOL    HW212531   3.084   0.414   9.127
 3951SOL     OW12532   3.023   0.211   8.922
 3951SOL    HW112533   3.014   0.275   8.992
 3951SOL    HW212534   3.057   0.261   8.848
 3952SOL     OW12535   1.867   1.322   7.643
 3952SOL    HW112536   1.780   1.336   7.606
 3952SOL    HW212537   1.865   1.233   7.676
 3953SOL     OW12538   1.949   1.792   8.381
 3953SOL    HW112539   1.918   1.711   8.341
 3953SOL    HW212540   2.040   1.799   8.353
 3954SOL     OW12541   2.360   1.571   8.352
 3954SOL    HW112542   2.430   1.634   8.372
 3954SOL    HW212543   2.404   1.504   8.299
 3955SOL     OW12544   2.850   0.795   8.677
 3955SOL    HW112545   2.902   0.769   8.753
 3955SOL    HW212546   2.764   0.757   8.693
 3956SOL     OW12547   1.896   0.542   8.566
 3956SOL    HW112548   1.975   0.522   8.515
 3956SOL    HW212549   1.926   0.549   8.656
 3957SOL     OW12550   2.047   0.517   9.168
 3957SOL    HW112551   2.119   0.496   9.108
 3957SOL    HW212552   2.004   0.592   9.127
 3958SOL     OW12553   3.238   0.941   9.108
 3958SOL    HW112554   3.258   1.035   9.107
 3958SOL    HW212555   3.236   0.917   9.015
 3959SOL     OW12556   2.674   0.573   7.801
 3959SOL    HW112557   2.677   0.501   7.738
 3959SOL    HW212558   2.599   0.626   7.772
 3960SOL     OW12559   3.504   0.602   8.638
 3960SOL    HW112560   3.493   0.541   8.711
 3960SOL    HW212561   3.591   0.581   8.603
 3961SOL     OW12562   2.114   1.552   9.182
 3961SOL    HW112563   2.083   1.614   9.248
 3961SOL    HW212564   2.108   1.467   9.225
 3962SOL     OW12565   2.555   0.460   8.714
 3962SOL    HW112566   2.510   0.382   8.680
 3962SOL    HW212567   2.557   0.520   8.639
 3963SOL     OW12568   2.794   1.678   8.914
 3963SOL    HW112569   2.765   1.648   8.828
 3963SOL    HW212570   2.792   1.774   8.908
 3964SOL     OW12571   2.329   0.493   7.634
 3964SOL    HW112572   2.387   0.566   7.654
 3964SOL    HW212573   2.242   0.533   7.625
 3965SOL     OW12574   2.010   1.140   8.920
 3965SOL    HW112575   2.015   1.086   8.999
 3965SOL    HW212576   2.027   1.079   8.848
 3966SOL     OW12577   3.191   1.049   8.673
 3966SOL    HW112578   3.215   0.986   8.605
 3966SOL    HW212579   3.119   1.099   8.635
 3967SOL     OW12580   3.171   0.856   7.755
 3967SOL    HW112581   3.095   0.827   7.805
 3967SOL    HW212582   3.147   0.843   7.664
 3968SOL     OW12583   3.630   1.747   8.596
 3968SOL    HW112584   3.690   1.772   8.526
 3968SOL    HW212585   3.607   1.656   8.576
 3969SOL     OW12586   3.104   1.733   8.565
 3969SOL    HW112587   3.185   1.751   8.518
 3969SOL    HW212588   3.107   1.639   8.582
 3970SOL     OW12589   1.947   1.265   8.462
 3970SOL    HW112590   1.933   1.277   8.556
 3970SOL    HW212591   1.871   1.214   8.433
 3971SOL     OW12592   2.541   1.663   9.173
 3971SOL    HW112593   2.488   1.743   9.171
 3971SOL    HW212594   2.601   1.673   9.099
 3972SOL     OW12595   3.580   0.130   7.946
 3972SOL    HW112596   3.654   0.135   7.885
 3972SOL    HW212597   3.600   0.056   8.003
 3973SOL     OW12598   3.252   1.568   7.931
 3973SOL    HW112599   3.313   1.598   7.863
 3973SOL    HW212600   3.205   1.646   7.958
 3974SOL     OW12601   1.996   1.801   9.295
 3974SOL    HW112602   1.945   1.734   9.340
 3974SOL    HW212603   2.046   1.844   9.364
 3975SOL     OW12604   3.140   0.926   8.120
 3975SOL    HW112605   3.212   0.863   8.124
 3975SOL    HW212606   3.174   0.999   8.068
 3976SOL     OW12607   2.680   1.272   8.879
 3976SOL    HW112608   2.654   1.311   8.963
 3976SOL    HW212609   2.608   1.293   8.820
 3977SOL     OW12610   2.533   1.618   7.604
 3977SOL    HW112611   2.543   1.628   7.509
 3977SOL    HW212612   2.480   1.538   7.614
 3978SOL     OW12613   3.495   1.727   8.840
 3978SOL    HW112614   3.542   1.734   8.757
 3978SOL    HW212615   3.481   1.817   8.869
 3979SOL     OW12616   3.701   0.155   8.415
 3979SOL    HW112617   3.732   0.080   8.365
 3979SOL    HW212618   3.614   0.174   8.379
 3980SOL     OW12619   2.129   0.325   8.168
 3980SOL    HW112620   2.044   0.358   8.139
 3980SOL    HW212621   2.120   0.314   8.262
 3981SOL     OW12622   3.067   1.608   7.479
 3981SOL    HW112623   3.060   1.517   7.506
 3981SOL    HW212624   3.003   1.618   7.409
 3982SOL     OW12625   2.686   1.006   8.820
 3982SOL    HW112626   2.729   1.002   8.734
 3982SOL    HW212627   2.688   1.099   8.843
 3983SOL     OW12628   2.777   0.910   7.737
 3983SOL    HW112629   2.840   0.942   7.672
 3983SOL    HW212630   2.823   0.839   7.782
 3984SOL     OW12631   3.357   1.624   7.490
 3984SOL    HW112632   3.262   1.620   7.479
 3984SOL    HW212633   3.392   1.630   7.401
 3985SOL     OW12634   2.232   1.299   8.940
 3985SOL    HW112635   2.219   1.378   8.887
 3985SOL    HW212636   2.154   1.246   8.924
 3986SOL     OW12637   3.474   1.283   8.729
 3986SOL    HW112638   3.532   1.275   8.805
 3986SOL    HW212639   3.413   1.353   8.753
 3987SOL     OW12640   2.910   1.105   8.153
 3987SOL    HW112641   2.840   1.054   8.193
 3987SOL    HW212642   2.971   1.040   8.119
 3988SOL     OW12643   2.870   0.241   8.445
 3988SOL    HW112644   2.876   0.212   8.354
 3988SOL    HW212645   2.863   0.160   8.495
 3989SOL     OW12646   2.465   1.491   7.930
 3989SOL    HW112647   2.505   1.437   7.861
 3989SOL    HW212648   2.396   1.540   7.885
 3990SOL     OW12649   3.581   0.393   8.826
 3990SOL    HW112650   3.653   0.456   8.824
 3990SOL    HW212651   3.611   0.321   8.770
 3991SOL     OW12652   2.120   1.347   7.735
 3991SOL    HW112653   2.027   1.345   7.713
 3991SOL    HW212654   2.122   1.383   7.824
 3992SOL     OW12655   1.974   1.017   9.167
 3992SOL    HW112656   1.898   0.995   9.221
 3992SOL    HW212657   2.049   0.982   9.215
 3993SOL     OW12658   2.521   0.203   8.944
 3993SOL    HW112659   2.602   0.179   8.898
 3993SOL    HW212660   2.550   0.222   9.034
 3994SOL     OW12661   1.942   0.343   7.494
 3994SOL    HW112662   1.870   0.292   7.458
 3994SOL    HW212663   1.959   0.411   7.429
 3995SOL     OW12664   3.294   0.859   8.850
 3995SOL    HW112665   3.245   0.918   8.792
 3995SOL    HW212666   3.384   0.861   8.816
 3996SOL     OW12667   1.928   0.180   7.771
 3996SOL    HW112668   1.924   0.246   7.702
 3996SOL    HW212669   2.003   0.125   7.747
 3997SOL     OW12670   3.042   1.342   7.565
 3997SOL    HW112671   2.951   1.311   7.568
 3997SOL    HW212672   3.071   1.341   7.656
 3998SOL     OW12673   2.480   0.831   8.880
 3998SOL    HW112674   2.535   0.908   8.866
 3998SOL    HW212675   2.542   0.758   8.889
 3999SOL     OW12676   3.347   1.775   8.423
 3999SOL    HW112677   3.373   1.832   8.351
 3999SOL    HW212678   3.428   1.758   8.472
 4000SOL     OW12679   2.578   0.564   9.155
 4000SOL    HW112680   2.613   0.629   9.216
 4000SOL    HW212681   2.615   0.481   9.184
 4001SOL     OW12682   3.330   1.203   9.081
 4001SOL    HW112683   3.318   1.216   9.175
 4001SOL    HW212684   3.424   1.215   9.067
 4002SOL     OW12685   2.246   1.738   9.013
 4002SOL    HW112686   2.159   1.773   8.995
 4002SOL    HW212687   2.230   1.654   9.054
 4003SOL     OW12688   3.534   0.882   8.704
 4003SOL    HW112689   3.524   0.797   8.661
 4003SOL    HW212690   3.525   0.945   8.633
 4004SOL     OW12691   3.080   0.327   7.896
 4004SOL    HW112692   3.145   0.258   7.887
 4004SOL    HW212693   3.107   0.375   7.975
 4005SOL     OW12694   2.451   0.740   8.116
 4005SOL    HW112695   2.492   0.825   8.099
 4005SOL    HW212696   2.382   0.734   8.051
 4006SOL     OW12697   3.628   0.361   9.091
 4006SOL    HW112698   3.611   0.375   8.997
 4006SOL    HW212699   3.550   0.317   9.123
 4007SOL     OW12700   3.606   0.933   8.961
 4007SOL    HW112701   3.608   1.028   8.974
 4007SOL    HW212702   3.591   0.922   8.867
 4008SOL     OW12703   2.725   1.368   7.478
 4008SOL    HW112704   2.685   1.395   7.561
 4008SOL    HW212705   2.744   1.451   7.434
 4009SOL     OW12706   2.521   1.798   8.384
 4009SOL    HW112707   2.517   1.890   8.412
 4009SOL    HW212708   2.614   1.776   8.386
 4010SOL     OW12709   2.728   0.965   8.304
 4010SOL    HW112710   2.778   0.894   8.344
 4010SOL    HW212711   2.695   1.016   8.378
 4011SOL     OW12712   2.943   0.989   7.537
 4011SOL    HW112713   2.920   1.038   7.458
 4011SOL    HW212714   3.018   0.935   7.511
 4012SOL     OW12715   3.718   1.557   8.293
 4012SOL    HW112716   3.642   1.545   8.238
 4012SOL    HW212717   3.711   1.488   8.359
 4013SOL     OW12718   2.086   1.304   9.304
 4013SOL    HW112719   2.018   1.244   9.275
 4013SOL    HW212720   2.068   1.317   9.397
 4014SOL     OW12721   1.946   1.236   8.111
 4014SOL    HW112722   1.946   1.186   8.193
 4014SOL    HW212723   2.015   1.195   8.058
 4015SOL     OW12724   2.542   1.401   9.073
 4015SOL    HW112725   2.462   1.357   9.103
 4015SOL    HW212726   2.536   1.488   9.111
 4016SOL     OW12727   3.672   0.184   8.687
 4016SOL    HW112728   3.672   0.090   8.708
 4016SOL    HW212729   3.688   0.187   8.593
 4017SOL     OW12730   2.296   0.433   7.976
 4017SOL    HW112731   2.320   0.363   7.915
 4017SOL    HW212732   2.242   0.390   8.042
 4018SOL     OW12733   3.563   1.491   8.548
 4018SOL    HW112734   3.482   1.465   8.504
 4018SOL    HW212735   3.578   1.423   8.613
 4019SOL     OW12736   2.189   0.554   8.739
 4019SOL    HW112737   2.245   0.499   8.793
 4019SOL    HW212738   2.210   0.528   8.649
 4020SOL     OW12739   2.686   1.579   8.128
 4020SOL    HW112740   2.681   1.621   8.042
 4020SOL    HW212741   2.609   1.523   8.132
 4021SOL     OW12742   3.294   0.215   8.566
 4021SOL    HW112743   3.331   0.145   8.620
 4021SOL    HW212744   3.243   0.268   8.627
 4022SOL     OW12745   2.859   0.013   8.596
 4022SOL    HW112746   2.813   4.429   8.587
 4022SOL    HW212747   2.951   4.488   8.609
 4023SOL     OW12748   2.633   1.332   7.759
 4023SOL    HW112749   2.599   1.243   7.765
 4023SOL    HW212750   2.716   1.329   7.806
 4024SOL     OW12751   2.482   1.560   8.730
 4024SOL    HW112752   2.486   1.639   8.784
 4024SOL    HW212753   2.570   1.551   8.694
 4025SOL     OW12754   3.205   0.054   7.600
 4025SOL    HW112755   3.244   4.479   7.555
 4025SOL    HW212756   3.129   0.017   7.646
 4026SOL     OW12757   3.177   0.463   8.129
 4026SOL    HW112758   3.114   0.535   8.129
 4026SOL    HW212759   3.164   0.419   8.213
 4027SOL     OW12760   3.448   0.202   8.315
 4027SOL    HW112761   3.387   0.217   8.388
 4027SOL    HW212762   3.451   0.286   8.270
 4028SOL     OW12763   1.906   1.073   7.753
 4028SOL    HW112764   2.000   1.063   7.735
 4028SOL    HW212765   1.876   0.985   7.776
 4029SOL     OW12766   2.743   1.649   7.793
 4029SOL    HW112767   2.672   1.631   7.731
 4029SOL    HW212768   2.713   1.726   7.842
 4030SOL     OW12769   2.092   0.627   9.429
 4030SOL    HW112770   2.004   0.621   9.466
 4030SOL    HW212771   2.083   0.595   9.340
 4031SOL     OW12772   2.072   0.295  10.298
 4031SOL    HW112773   2.103   0.269  10.385
 4031SOL    HW212774   1.990   0.248  10.287
 4032SOL     OW12775   1.871   0.384   9.950
 4032SOL    HW112776   1.784   0.404   9.986
 4032SOL    HW212777   1.855   0.309   9.892
 4033SOL     OW12778   2.429   1.283  10.482
 4033SOL    HW112779   2.341   1.283  10.445
 4033SOL    HW212780   2.441   1.372  10.516
 4034SOL     OW12781   3.420   1.512  10.015
 4034SOL    HW112782   3.376   1.493  10.098
 4034SOL    HW212783   3.349   1.516   9.951
 4035SOL     OW12784   2.994   0.700  10.012
 4035SOL    HW112785   3.042   0.782  10.000
 4035SOL    HW212786   2.945   0.712  10.093
 4036SOL     OW12787   3.626   0.609   9.540
 4036SOL    HW112788   3.607   0.597   9.446
 4036SOL    HW212789   3.595   0.528   9.580
 4037SOL     OW12790   2.623   1.145  10.349
 4037SOL    HW112791   2.551   1.178  10.404
 4037SOL    HW212792   2.655   1.223  10.303
 4038SOL     OW12793   2.712   0.782   0.020
 4038SOL    HW112794   2.720   0.840   0.097
 4038SOL    HW212795   2.746   0.834  11.047
 4039SOL     OW12796   2.549   1.007   9.959
 4039SOL    HW112797   2.612   0.992  10.029
 4039SOL    HW212798   2.478   1.056  10.000
 4040SOL     OW12799   2.194   1.428  10.378
 4040SOL    HW112800   2.120   1.392  10.328
 4040SOL    HW212801   2.244   1.477  10.314
 4041SOL     OW12802   3.325   1.500  10.656
 4041SOL    HW112803   3.376   1.580  10.667
 4041SOL    HW212804   3.280   1.488  10.740
 4042SOL     OW12805   2.308   0.395  10.791
 4042SOL    HW112806   2.385   0.340  10.801
 4042SOL    HW212807   2.235   0.341  10.819
 4043SOL     OW12808   3.474   0.448  10.048
 4043SOL    HW112809   3.394   0.472  10.002
 4043SOL    HW212810   3.497   0.525  10.100
 4044SOL     OW12811   2.079   1.707   9.778
 4044SOL    HW112812   2.104   1.779   9.836
 4044SOL    HW212813   2.151   1.700   9.715
 4045SOL     OW12814   2.093   1.438   9.846
 4045SOL    HW112815   2.073   1.531   9.848
 4045SOL    HW212816   2.030   1.398   9.906
 4046SOL     OW12817   2.117   1.090  10.201
 4046SOL    HW112818   2.113   1.004  10.243
 4046SOL    HW212819   2.058   1.145  10.253
 4047SOL     OW12820   2.475   1.790  10.738
 4047SOL    HW112821   2.395   1.771  10.787
 4047SOL    HW212822   2.498   1.879  10.764
 4048SOL     OW12823   2.451   0.979   9.442
 4048SOL    HW112824   2.494   1.032   9.374
 4048SOL    HW212825   2.492   1.008   9.523
 4049SOL     OW12826   3.419   0.130  10.780
 4049SOL    HW112827   3.466   0.191  10.722
 4049SOL    HW212828   3.470   0.131  10.861
 4050SOL     OW12829   1.977   0.651   9.869
 4050SOL    HW112830   1.948   0.562   9.891
 4050SOL    HW212831   1.968   0.700   9.951
 4051SOL     OW12832   3.703   1.761   9.647
 4051SOL    HW112833   3.762   1.732   9.716
 4051SOL    HW212834   3.730   1.851   9.629
 4052SOL     OW12835   1.893   1.596   9.434
 4052SOL    HW112836   1.875   1.504   9.452
 4052SOL    HW212837   1.867   1.643   9.513
 4053SOL     OW12838   3.553   0.921   9.948
 4053SOL    HW112839   3.638   0.880   9.930
 4053SOL    HW212840   3.532   0.969   9.868
 4054SOL     OW12841   3.507   1.108   9.739
 4054SOL    HW112842   3.592   1.117   9.697
 4054SOL    HW212843   3.511   1.168   9.814
 4055SOL     OW12844   1.986   0.727  10.912
 4055SOL    HW112845   2.079   0.747  10.911
 4055SOL    HW212846   1.943   0.812  10.906
 4056SOL     OW12847   2.474   1.382  10.045
 4056SOL    HW112848   2.428   1.299  10.054
 4056SOL    HW212849   2.458   1.409   9.955
 4057SOL     OW12850   3.159   1.238  10.750
 4057SOL    HW112851   3.183   1.177  10.681
 4057SOL    HW212852   3.214   1.212  10.825
 4058SOL     OW12853   2.677   0.011   9.855
 4058SOL    HW112854   2.711   0.098   9.832
 4058SOL    HW212855   2.582   0.021   9.849
 4059SOL     OW12856   2.054   0.968  10.577
 4059SOL    HW112857   2.137   0.924  10.561
 4059SOL    HW212858   1.988   0.910  10.538
 4060SOL     OW12859   3.394   0.991   9.506
 4060SOL    HW112860   3.324   0.934   9.536
 4060SOL    HW212861   3.433   1.025   9.587
 4061SOL     OW12862   3.056   1.805  10.926
 4061SOL    HW112863   3.060   1.866  10.852
 4061SOL    HW212864   3.064   1.718  10.885
 4062SOL     OW12865   2.195   0.274  11.088
 4062SOL    HW112866   2.252   0.337   0.032
 4062SOL    HW212867   2.112   0.280   0.035
 4063SOL     OW12868   3.328   1.420  10.263
 4063SOL    HW112869   3.259   1.434  10.327
 4063SOL    HW212870   3.316   1.329  10.235
 4064SOL     OW12871   3.523   1.733   9.887
 4064SOL    HW112872   3.500   1.705   9.799
 4064SOL    HW212873   3.497   1.660   9.943
 4065SOL     OW12874   2.456   0.724   9.574
 4065SOL    HW112875   2.464   0.804   9.522
 4065SOL    HW212876   2.391   0.745   9.641
 4066SOL     OW12877   3.152   0.358  10.245
 4066SOL    HW112878   3.063   0.327  10.229
 4066SOL    HW212879   3.189   0.295  10.307
 4067SOL     OW12880   3.443   1.668   9.619
 4067SOL    HW112881   3.532   1.703   9.613
 4067SOL    HW212882   3.418   1.651   9.528
 4068SOL     OW12883   2.658   0.616  10.766
 4068SOL    HW112884   2.626   0.593  10.853
 4068SOL    HW212885   2.617   0.553  10.708
 4069SOL     OW12886   2.828   0.897  10.899
 4069SOL    HW112887   2.876   0.824  10.861
 4069SOL    HW212888   2.778   0.934  10.826
 4070SOL     OW12889   2.857   0.418  10.548
 4070SOL    HW112890   2.771   0.431  10.588
 4070SOL    HW212891   2.840   0.365  10.470
 4071SOL     OW12892   2.911   0.698   9.738
 4071SOL    HW112893   2.926   0.691   9.832
 4071SOL    HW212894   2.829   0.651   9.723
 4072SOL     OW12895   1.951   0.820  10.086
 4072SOL    HW112896   2.033   0.813  10.136
 4072SOL    HW212897   1.908   0.898  10.121
 4073SOL     OW12898   1.993   1.831  10.894
 4073SOL    HW112899   1.966   1.808  10.983
 4073SOL    HW212900   1.912   1.852  10.849
 4074SOL     OW12901   2.716   0.368   9.490
 4074SOL    HW112902   2.791   0.403   9.441
 4074SOL    HW212903   2.733   0.274   9.494
 4075SOL     OW12904   3.237   1.143   9.852
 4075SOL    HW112905   3.315   1.128   9.799
 4075SOL    HW212906   3.185   1.205   9.801
 4076SOL     OW12907   2.403   0.202  10.211
 4076SOL    HW112908   2.422   0.220  10.303
 4076SOL    HW212909   2.393   0.288  10.171
 4077SOL     OW12910   2.871   1.446   9.784
 4077SOL    HW112911   2.830   1.517   9.735
 4077SOL    HW212912   2.856   1.469   9.876
 4078SOL     OW12913   2.218   1.798  10.176
 4078SOL    HW112914   2.252   1.709  10.181
 4078SOL    HW212915   2.292   1.854  10.198
 4079SOL     OW12916   3.660   1.061  10.177
 4079SOL    HW112917   3.604   1.043  10.102
 4079SOL    HW212918   3.599   1.065  10.251
 4080SOL     OW12919   3.087   1.541  10.825
 4080SOL    HW112920   3.097   1.454  10.864
 4080SOL    HW212921   3.030   1.527  10.749
 4081SOL     OW12922   2.183   0.955   9.558
 4081SOL    HW112923   2.265   0.974   9.512
 4081SOL    HW212924   2.152   0.874   9.518
 4082SOL     OW12925   3.338   0.740  10.036
 4082SOL    HW112926   3.325   0.692  10.118
 4082SOL    HW212927   3.415   0.795  10.052
 4083SOL     OW12928   2.315   1.269  11.053
 4083SOL    HW112929   2.287   1.277  10.962
 4083SOL    HW212930   2.249   1.211  11.093
 4084SOL     OW12931   2.983   1.777   9.542
 4084SOL    HW112932   2.911   1.734   9.588
 4084SOL    HW212933   3.004   1.718   9.470
 4085SOL     OW12934   2.056   0.267  10.812
 4085SOL    HW112935   1.987   0.333  10.804
 4085SOL    HW212936   2.068   0.257  10.907
 4086SOL     OW12937   3.492   1.379   9.396
 4086SOL    HW112938   3.450   1.464   9.382
 4086SOL    HW212939   3.422   1.315   9.378
 4087SOL     OW12940   2.330   1.735   9.632
 4087SOL    HW112941   2.371   1.793   9.696
 4087SOL    HW212942   2.401   1.707   9.575
 4088SOL     OW12943   3.278   0.132   9.729
 4088SOL    HW112944   3.261   0.085   9.647
 4088SOL    HW212945   3.373   0.129   9.738
 4089SOL     OW12946   2.104   1.781  10.550
 4089SOL    HW112947   2.169   1.724  10.592
 4089SOL    HW212948   2.108   1.759  10.457
 4090SOL     OW12949   2.799   1.697  10.213
 4090SOL    HW112950   2.878   1.645  10.229
 4090SOL    HW212951   2.754   1.650  10.143
 4091SOL     OW12952   2.253   0.695   9.787
 4091SOL    HW112953   2.277   0.603   9.798
 4091SOL    HW212954   2.159   0.697   9.806
 4092SOL     OW12955   2.486   0.123   9.430
 4092SOL    HW112956   2.574   0.087   9.439
 4092SOL    HW212957   2.454   0.088   9.347
 4093SOL     OW12958   2.625   0.266  11.044
 4093SOL    HW112959   2.693   0.208  11.078
 4093SOL    HW212960   2.582   0.300   0.022
 4094SOL     OW12961   2.738   1.521  10.503
 4094SOL    HW112962   2.723   1.486  10.415
 4094SOL    HW212963   2.809   1.468  10.539
 4095SOL     OW12964   3.206   0.589  10.752
 4095SOL    HW112965   3.254   0.571  10.833
 4095SOL    HW212966   3.233   0.678  10.728
 4096SOL     OW12967   2.675   1.399  10.246
 4096SOL    HW112968   2.759   1.388  10.201
 4096SOL    HW212969   2.610   1.395  10.176
 4097SOL     OW12970   2.784   0.515  10.212
 4097SOL    HW112971   2.768   0.513  10.117
 4097SOL    HW212972   2.825   0.431  10.231
 4098SOL     OW12973   2.415   0.073   9.830
 4098SOL    HW112974   2.325   0.049   9.854
 4098SOL    HW212975   2.405   0.141   9.763
 4099SOL     OW12976   3.291   1.198   9.351
 4099SOL    HW112977   3.321   1.122   9.401
 4099SOL    HW212978   3.204   1.217   9.388
 4100SOL     OW12979   2.158   0.072   9.502
 4100SOL    HW112980   2.237   0.123   9.483
 4100SOL    HW212981   2.189   4.499   9.556
 4101SOL     OW12982   2.811   0.240   9.782
 4101SOL    HW112983   2.760   0.288   9.718
 4101SOL    HW212984   2.900   0.275   9.773
 4102SOL     OW12985   2.940   0.682  10.773
 4102SOL    HW112986   2.867   0.620  10.772
 4102SOL    HW212987   3.018   0.627  10.764
 4103SOL     OW12988   3.086   1.570  10.104
 4103SOL    HW112989   3.104   1.637  10.038
 4103SOL    HW212990   3.155   1.581  10.170
 4104SOL     OW12991   2.329   1.148  10.047
 4104SOL    HW112992   2.258   1.129  10.109
 4104SOL    HW212993   2.291   1.130   9.961
 4105SOL     OW12994   3.133   1.795   9.915
 4105SOL    HW112995   3.177   1.856   9.857
 4105SOL    HW212996   3.068   1.848   9.962
 4106SOL     OW12997   2.893   0.549   9.324
 4106SOL    HW112998   2.845   0.631   9.309
 4106SOL    HW212999   2.951   0.569   9.398
 4107SOL     OW13000   1.940   0.551  10.705
 4107SOL    HW113001   2.031   0.554  10.675
 4107SOL    HW213002   1.935   0.616  10.775
 4108SOL     OW13003   2.425   0.241  10.475
 4108SOL    HW113004   2.450   0.155  10.508
 4108SOL    HW213005   2.334   0.251  10.501
 4109SOL     OW13006   2.729   0.501   9.936
 4109SOL    HW113007   2.677   0.543   9.867
 4109SOL    HW213008   2.711   0.408   9.925
 4110SOL     OW13009   2.833   0.032  10.084
 4110SOL    HW113010   2.783   0.027  10.003
 4110SOL    HW213011   2.842   4.441  10.112
 4111SOL     OW13012   3.297   1.164  10.168
 4111SOL    HW113013   3.231   1.095  10.166
 4111SOL    HW213014   3.320   1.177  10.076
 4112SOL     OW13015   3.329   0.603  10.289
 4112SOL    HW113016   3.279   0.522  10.292
 4112SOL    HW213017   3.389   0.597  10.364
 4113SOL     OW13018   3.710   0.819   9.691
 4113SOL    HW113019   3.764   0.767   9.750
 4113SOL    HW213020   3.680   0.757   9.624
 4114SOL     OW13021   2.354   1.415   9.471
 4114SOL    HW113022   2.279   1.385   9.522
 4114SOL    HW213023   2.334   1.387   9.381
 4115SOL     OW13024   3.530   1.265   9.958
 4115SOL    HW113025   3.625   1.270   9.971
 4115SOL    HW213026   3.498   1.353   9.980
 4116SOL     OW13027   3.256   0.570   9.380
 4116SOL    HW113028   3.195   0.554   9.452
 4116SOL    HW213029   3.342   0.548   9.416
 4117SOL     OW13030   2.386   0.266   9.635
 4117SOL    HW113031   2.429   0.213   9.567
 4117SOL    HW213032   2.371   0.350   9.592
 4118SOL     OW13033   3.622   1.229  10.874
 4118SOL    HW113034   3.713   1.199  10.878
 4118SOL    HW213035   3.623   1.316  10.914
 4119SOL     OW13036   2.927   1.355  10.651
 4119SOL    HW113037   2.849   1.321  10.695
 4119SOL    HW213038   3.000   1.306  10.690
 4120SOL     OW13039   2.988   1.205  10.418
 4120SOL    HW113040   2.924   1.239  10.479
 4120SOL    HW213041   2.955   1.231  10.332
 4121SOL     OW13042   3.493   1.100  10.389
 4121SOL    HW113043   3.489   1.162  10.462
 4121SOL    HW213044   3.412   1.116  10.340
 4122SOL     OW13045   2.763   0.127  10.700
 4122SOL    HW113046   2.790   0.087  10.617
 4122SOL    HW213047   2.845   0.139  10.748
 4123SOL     OW13048   2.570   1.061   9.682
 4123SOL    HW113049   2.557   1.046   9.775
 4123SOL    HW213050   2.646   1.007   9.660
 4124SOL     OW13051   2.279   0.814  10.561
 4124SOL    HW113052   2.349   0.823  10.627
 4124SOL    HW213053   2.244   0.726  10.575
 4125SOL     OW13054   3.132   0.381  10.581
 4125SOL    HW113055   3.162   0.459  10.627
 4125SOL    HW213056   3.044   0.403  10.551
 4126SOL     OW13057   1.928   1.573  10.657
 4126SOL    HW113058   1.895   1.647  10.606
 4126SOL    HW213059   2.024   1.583  10.655
 4127SOL     OW13060   2.216   1.106   9.802
 4127SOL    HW113061   2.218   1.179   9.740
 4127SOL    HW213062   2.214   1.028   9.747
 4128SOL     OW13063   2.420   0.532  10.169
 4128SOL    HW113064   2.435   0.591  10.095
 4128SOL    HW213065   2.481   0.563  10.237
 4129SOL     OW13066   3.110   1.348   9.699
 4129SOL    HW113067   3.165   1.420   9.730
 4129SOL    HW213068   3.023   1.368   9.733
 4130SOL     OW13069   3.138   1.457  10.454
 4130SOL    HW113070   3.194   1.459  10.531
 4130SOL    HW213071   3.085   1.377  10.465
 4131SOL     OW13072   3.445   0.625   9.785
 4131SOL    HW113073   3.400   0.679   9.851
 4131SOL    HW213074   3.490   0.688   9.729
 4132SOL     OW13075   2.212   1.519  10.629
 4132SOL    HW113076   2.197   1.479  10.543
 4132SOL    HW213077   2.307   1.535  10.632
 4133SOL     OW13078   2.275   0.736  10.906
 4133SOL    HW113079   2.336   0.782  10.849
 4133SOL    HW213080   2.314   0.650  10.919
 4134SOL     OW13081   3.453   0.762  10.971
 4134SOL    HW113082   3.375   0.818  10.965
 4134SOL    HW213083   3.522   0.812  10.927
 4135SOL     OW13084   2.445   0.872  10.341
 4135SOL    HW113085   2.472   0.964  10.338
 4135SOL    HW213086   2.387   0.867  10.417
 4136SOL     OW13087   3.222   0.860  10.346
 4136SOL    HW113088   3.142   0.854  10.294
 4136SOL    HW213089   3.261   0.773  10.342
 4137SOL     OW13090   3.069   0.535   9.577
 4137SOL    HW113091   3.075   0.454   9.627
 4137SOL    HW213092   3.026   0.597   9.635
 4138SOL     OW13093   2.152   0.234  10.549
 4138SOL    HW113094   2.115   0.252  10.635
 4138SOL    HW213095   2.180   0.143  10.553
 4139SOL     OW13096   1.911   1.311  10.586
 4139SOL    HW113097   1.939   1.258  10.661
 4139SOL    HW213098   1.915   1.401  10.617
 4140SOL     OW13099   2.587   0.633  10.371
 4140SOL    HW113100   2.659   0.612  10.311
 4140SOL    HW213101   2.560   0.721  10.346
 4141SOL     OW13102   2.161   0.060   9.963
 4141SOL    HW113103   2.151   0.155   9.968
 4141SOL    HW213104   2.172   0.032  10.054
 4142SOL     OW13105   3.472   0.374   9.676
 4142SOL    HW113106   3.504   0.312   9.741
 4142SOL    HW213107   3.451   0.453   9.727
 4143SOL     OW13108   2.889   0.761  10.272
 4143SOL    HW113109   2.889   0.777  10.367
 4143SOL    HW213110   2.861   0.670  10.263
 4144SOL     OW13111   2.835   1.572  11.004
 4144SOL    HW113112   2.822   1.621  10.924
 4144SOL    HW213113   2.869   1.487  10.976
 4145SOL     OW13114   3.720   1.498  10.912
 4145SOL    HW113115   3.734   1.531  10.824
 4145SOL    HW213116   3.789   1.539  10.965
 4146SOL     OW13117   2.222   0.920  11.095
 4146SOL    HW113118   2.306   0.933   0.037
 4146SOL    HW213119   2.238   0.853  11.029
 4147SOL     OW13120   3.394   0.267   9.438
 4147SOL    HW113121   3.322   0.211   9.465
 4147SOL    HW213122   3.422   0.311   9.518
 4148SOL     OW13123   3.157   0.827   9.343
 4148SOL    HW113124   3.198   0.741   9.345
 4148SOL    HW213125   3.187   0.866   9.261
 4149SOL     OW13126   2.927   1.334  10.163
 4149SOL    HW113127   2.929   1.261  10.101
 4149SOL    HW213128   2.990   1.398  10.128
 4150SOL     OW13129   2.172   0.810  10.259
 4150SOL    HW113130   2.265   0.832  10.251
 4150SOL    HW213131   2.171   0.721  10.293
 4151SOL     OW13132   2.199   0.528  10.322
 4151SOL    HW113133   2.157   0.444  10.303
 4151SOL    HW213134   2.274   0.531  10.263
 4152SOL     OW13135   3.019   0.216  10.773
 4152SOL    HW113136   3.025   0.273  10.849
 4152SOL    HW213137   3.053   0.268  10.701
 4153SOL     OW13138   1.867   1.323   9.505
 4153SOL    HW113139   1.780   1.336   9.468
 4153SOL    HW213140   1.865   1.233   9.538
 4154SOL     OW13141   1.949   1.792  10.243
 4154SOL    HW113142   1.918   1.711  10.203
 4154SOL    HW213143   2.041   1.799  10.218
 4155SOL     OW13144   2.362   1.570  10.215
 4155SOL    HW113145   2.431   1.635  10.232
 4155SOL    HW213146   2.405   1.504  10.161
 4156SOL     OW13147   2.850   0.796  10.539
 4156SOL    HW113148   2.901   0.771  10.616
 4156SOL    HW213149   2.764   0.757  10.554
 4157SOL     OW13150   1.897   0.542  10.428
 4157SOL    HW113151   1.976   0.522  10.378
 4157SOL    HW213152   1.926   0.549  10.519
 4158SOL     OW13153   2.674   0.573   9.663
 4158SOL    HW113154   2.677   0.501   9.600
 4158SOL    HW213155   2.599   0.626   9.634
 4159SOL     OW13156   3.504   0.601  10.499
 4159SOL    HW113157   3.494   0.541  10.573
 4159SOL    HW213158   3.591   0.582  10.464
 4160SOL     OW13159   2.120   1.563  11.057
 4160SOL    HW113160   2.064   1.603   0.023
 4160SOL    HW213161   2.114   1.469  11.073
 4161SOL     OW13162   2.558   0.459  10.575
 4161SOL    HW113163   2.511   0.382  10.543
 4161SOL    HW213164   2.559   0.519  10.501
 4162SOL     OW13165   2.802   1.682  10.761
 4162SOL    HW113166   2.765   1.651  10.678
 4162SOL    HW213167   2.792   1.777  10.758
 4163SOL     OW13168   2.329   0.493   9.496
 4163SOL    HW113169   2.387   0.567   9.516
 4163SOL    HW213170   2.242   0.533   9.487
 4164SOL     OW13171   2.017   1.138  10.780
 4164SOL    HW113172   2.011   1.082  10.857
 4164SOL    HW213173   2.029   1.078  10.707
 4165SOL     OW13174   3.189   1.054  10.539
 4165SOL    HW113175   3.217   0.989  10.474
 4165SOL    HW213176   3.117   1.100  10.497
 4166SOL     OW13177   3.171   0.856   9.617
 4166SOL    HW113178   3.095   0.827   9.667
 4166SOL    HW213179   3.147   0.843   9.526
 4167SOL     OW13180   3.632   1.747  10.460
 4167SOL    HW113181   3.691   1.773  10.389
 4167SOL    HW213182   3.607   1.657  10.440
 4168SOL     OW13183   3.104   1.733  10.427
 4168SOL    HW113184   3.185   1.752  10.381
 4168SOL    HW213185   3.107   1.639  10.443
 4169SOL     OW13186   1.946   1.266  10.323
 4169SOL    HW113187   1.934   1.278  10.417
 4169SOL    HW213188   1.871   1.213  10.295
 4170SOL     OW13189   3.580   0.130   9.808
 4170SOL    HW113190   3.654   0.135   9.747
 4170SOL    HW213191   3.600   0.056   9.865
 4171SOL     OW13192   3.252   1.568   9.793
 4171SOL    HW113193   3.312   1.599   9.725
 4171SOL    HW213194   3.205   1.646   9.820
 4172SOL     OW13195   3.140   0.926   9.983
 4172SOL    HW113196   3.212   0.863   9.986
 4172SOL    HW213197   3.174   0.999   9.930
 4173SOL     OW13198   2.683   1.273  10.739
 4173SOL    HW113199   2.654   1.307  10.823
 4173SOL    HW213200   2.612   1.293  10.679
 4174SOL     OW13201   2.533   1.617   9.466
 4174SOL    HW113202   2.543   1.628   9.371
 4174SOL    HW213203   2.480   1.538   9.475
 4175SOL     OW13204   3.490   1.720  10.701
 4175SOL    HW113205   3.541   1.733  10.621
 4175SOL    HW213206   3.475   1.808  10.735
 4176SOL     OW13207   3.701   0.156  10.278
 4176SOL    HW113208   3.732   0.080  10.228
 4176SOL    HW213209   3.614   0.174  10.241
 4177SOL     OW13210   2.129   0.325  10.030
 4177SOL    HW113211   2.043   0.358  10.001
 4177SOL    HW213212   2.120   0.314  10.124
 4178SOL     OW13213   3.068   1.608   9.341
 4178SOL    HW113214   3.060   1.517   9.369
 4178SOL    HW213215   3.003   1.618   9.271
 4179SOL     OW13216   2.687   1.005  10.685
 4179SOL    HW113217   2.728   0.999  10.598
 4179SOL    HW213218   2.689   1.099  10.706
 4180SOL     OW13219   2.778   0.911   9.600
 4180SOL    HW113220   2.840   0.942   9.534
 4180SOL    HW213221   2.823   0.839   9.644
 4181SOL     OW13222   3.357   1.624   9.352
 4181SOL    HW113223   3.262   1.620   9.341
 4181SOL    HW213224   3.391   1.630   9.263
 4182SOL     OW13225   2.230   1.303  10.805
 4182SOL    HW113226   2.218   1.378  10.748
 4182SOL    HW213227   2.156   1.246  10.786
 4183SOL     OW13228   3.475   1.283  10.593
 4183SOL    HW113229   3.531   1.273  10.670
 4183SOL    HW213230   3.417   1.356  10.615
 4184SOL     OW13231   2.910   1.105  10.015
 4184SOL    HW113232   2.840   1.054  10.055
 4184SOL    HW213233   2.971   1.040   9.981
 4185SOL     OW13234   2.870   0.242  10.307
 4185SOL    HW113235   2.877   0.213  10.216
 4185SOL    HW213236   2.863   0.161  10.357
 4186SOL     OW13237   2.464   1.490   9.792
 4186SOL    HW113238   2.505   1.437   9.723
 4186SOL    HW213239   2.396   1.540   9.748
 4187SOL     OW13240   3.579   0.393  10.688
 4187SOL    HW113241   3.651   0.457  10.689
 4187SOL    HW213242   3.609   0.323  10.630
 4188SOL     OW13243   2.120   1.347   9.597
 4188SOL    HW113244   2.027   1.345   9.575
 4188SOL    HW213245   2.123   1.383   9.686
 4189SOL     OW13246   1.975   1.010  11.020
 4189SOL    HW113247   1.904   0.995  11.083
 4189SOL    HW213248   2.054   0.982  11.066
 4190SOL     OW13249   2.517   0.189  10.808
 4190SOL    HW113250   2.595   0.168  10.757
 4190SOL    HW213251   2.551   0.223  10.891
 4191SOL     OW13252   1.942   0.343   9.356
 4191SOL    HW113253   1.870   0.292   9.320
 4191SOL    HW213254   1.959   0.411   9.291
 4192SOL     OW13255   3.293   0.849  10.710
 4192SOL    HW113256   3.245   0.916  10.661
 4192SOL    HW213257   3.384   0.859  10.681
 4193SOL     OW13258   1.928   0.180   9.633
 4193SOL    HW113259   1.924   0.246   9.564
 4193SOL    HW213260   2.003   0.125   9.609
 4194SOL     OW13261   3.042   1.342   9.427
 4194SOL    HW113262   2.951   1.311   9.430
 4194SOL    HW213263   3.071   1.341   9.518
 4195SOL     OW13264   2.481   0.831  10.743
 4195SOL    HW113265   2.536   0.907  10.728
 4195SOL    HW213266   2.542   0.758  10.751
 4196SOL     OW13267   3.347   1.774  10.285
 4196SOL    HW113268   3.373   1.831  10.213
 4196SOL    HW213269   3.427   1.758  10.334
 4197SOL     OW13270   2.576   0.564  11.018
 4197SOL    HW113271   2.610   0.637  11.071
 4197SOL    HW213272   2.630   0.489  11.043
 4198SOL     OW13273   2.249   1.734  10.873
 4198SOL    HW113274   2.167   1.782  10.862
 4198SOL    HW213275   2.225   1.658  10.926
 4199SOL     OW13276   3.535   0.883  10.567
 4199SOL    HW113277   3.524   0.797  10.524
 4199SOL    HW213278   3.526   0.946  10.496
 4200SOL     OW13279   3.080   0.327   9.758
 4200SOL    HW113280   3.145   0.258   9.749
 4200SOL    HW213281   3.107   0.375   9.837
 4201SOL     OW13282   2.451   0.741   9.979
 4201SOL    HW113283   2.492   0.825   9.961
 4201SOL    HW213284   2.382   0.733   9.913
 4202SOL     OW13285   3.618   0.316  10.948
 4202SOL    HW113286   3.599   0.356  10.863
 4202SOL    HW213287   3.539   0.330  11.000
 4203SOL     OW13288   3.610   0.935  10.825
 4203SOL    HW113289   3.605   1.030  10.839
 4203SOL    HW213290   3.593   0.923  10.732
 4204SOL     OW13291   2.725   1.369   9.340
 4204SOL    HW113292   2.685   1.394   9.423
 4204SOL    HW213293   2.744   1.451   9.296
 4205SOL     OW13294   2.517   1.803  10.246
 4205SOL    HW113295   2.503   1.883  10.297
 4205SOL    HW213296   2.611   1.788  10.248
 4206SOL     OW13297   2.728   0.965  10.166
 4206SOL    HW113298   2.778   0.894  10.206
 4206SOL    HW213299   2.695   1.016  10.241
 4207SOL     OW13300   2.942   0.988   9.399
 4207SOL    HW113301   2.920   1.038   9.320
 4207SOL    HW213302   3.017   0.935   9.373
 4208SOL     OW13303   3.719   1.557  10.155
 4208SOL    HW113304   3.642   1.545  10.100
 4208SOL    HW213305   3.711   1.488  10.221
 4209SOL     OW13306   1.945   1.236   9.973
 4209SOL    HW113307   1.946   1.186  10.055
 4209SOL    HW213308   2.014   1.196   9.921
 4210SOL     OW13309   2.540   1.394  10.936
 4210SOL    HW113310   2.466   1.344  10.970
 4210SOL    HW213311   2.512   1.485  10.940
 4211SOL     OW13312   3.669   0.182  10.550
 4211SOL    HW113313   3.677   0.089  10.569
 4211SOL    HW213314   3.686   0.188  10.456
 4212SOL     OW13315   2.296   0.433   9.838
 4212SOL    HW113316   2.320   0.363   9.777
 4212SOL    HW213317   2.242   0.390   9.904
 4213SOL     OW13318   3.563   1.492  10.411
 4213SOL    HW113319   3.483   1.465  10.367
 4213SOL    HW213320   3.580   1.423  10.475
 4214SOL     OW13321   2.189   0.555  10.600
 4214SOL    HW113322   2.242   0.499  10.656
 4214SOL    HW213323   2.209   0.528  10.511
 4215SOL     OW13324   2.687   1.578   9.990
 4215SOL    HW113325   2.681   1.622   9.905
 4215SOL    HW213326   2.609   1.523   9.994
 4216SOL     OW13327   3.293   0.214  10.429
 4216SOL    HW113328   3.333   0.147  10.483
 4216SOL    HW213329   3.243   0.268  10.490
 4217SOL     OW13330   2.859   0.013  10.458
 4217SOL    HW113331   2.813   4.430  10.447
 4217SOL    HW213332   2.950   4.488  10.472
 4218SOL     OW13333   2.633   1.332   9.621
 4218SOL    HW113334   2.599   1.243   9.627
 4218SOL    HW213335   2.716   1.329   9.669
 4219SOL     OW13336   2.482   1.558  10.594
 4219SOL    HW113337   2.484   1.640  10.644
 4219SOL    HW213338   2.569   1.551  10.556
 4220SOL     OW13339   3.205   0.054   9.462
 4220SOL    HW113340   3.244   4.479   9.417
 4220SOL    HW213341   3.129   0.017   9.508
 4221SOL     OW13342   3.176   0.463   9.991
 4221SOL    HW113343   3.114   0.535   9.991
 4221SOL    HW213344   3.164   0.419  10.075
 4222SOL     OW13345   3.448   0.202  10.177
 4222SOL    HW113346   3.387   0.216  10.250
 4222SOL    HW213347   3.451   0.286  10.132
 4223SOL     OW13348   1.906   1.073   9.615
 4223SOL    HW113349   1.999   1.063   9.597
 4223SOL    HW213350   1.876   0.985   9.638
 4224SOL     OW13351   2.743   1.649   9.654
 4224SOL    HW113352   2.672   1.631   9.593
 4224SOL    HW213353   2.713   1.725   9.704
 4225SOL     OW13354   2.068   2.522   0.104
 4225SOL    HW113355   1.993   2.486   0.151
 4225SOL    HW213356   2.107   2.446   0.059
 4226SOL     OW13357   1.865   2.247   0.630
 4226SOL    HW113358   1.786   2.266   0.680
 4226SOL    HW213359   1.847   2.161   0.590
 4227SOL     OW13360   2.428   3.144   1.172
 4227SOL    HW113361   2.341   3.147   1.134
 4227SOL    HW213362   2.443   3.232   1.206
 4228SOL     OW13363   3.419   3.373   0.705
 4228SOL    HW113364   3.375   3.355   0.788
 4228SOL    HW213365   3.348   3.378   0.641
 4229SOL     OW13366   2.991   2.561   0.703
 4229SOL    HW113367   3.041   2.641   0.689
 4229SOL    HW213368   2.945   2.575   0.786
 4230SOL     OW13369   3.634   2.465   0.221
 4230SOL    HW113370   3.587   2.463   0.138
 4230SOL    HW213371   3.595   2.395   0.273
 4231SOL     OW13372   2.621   3.006   1.038
 4231SOL    HW113373   2.550   3.040   1.093
 4231SOL    HW213374   2.654   3.083   0.992
 4232SOL     OW13375   2.722   2.644   1.821
 4232SOL    HW113376   2.714   2.716   1.883
 4232SOL    HW213377   2.748   2.686   1.739
 4233SOL     OW13378   2.549   2.871   0.649
 4233SOL    HW113379   2.612   2.854   0.719
 4233SOL    HW213380   2.479   2.919   0.691
 4234SOL     OW13381   2.569   3.014   1.808
 4234SOL    HW113382   2.617   3.093   1.833
 4234SOL    HW213383   2.485   3.046   1.776
 4235SOL     OW13384   2.193   3.291   1.068
 4235SOL    HW113385   2.121   3.254   1.017
 4235SOL    HW213386   2.244   3.341   1.005
 4236SOL     OW13387   3.323   3.360   1.350
 4236SOL    HW113388   3.367   3.444   1.361
 4236SOL    HW213389   3.269   3.351   1.429
 4237SOL     OW13390   3.475   2.312   0.739
 4237SOL    HW113391   3.398   2.338   0.688
 4237SOL    HW213392   3.496   2.388   0.793
 4238SOL     OW13393   2.081   3.575   0.476
 4238SOL    HW113394   2.105   3.652   0.526
 4238SOL    HW213395   2.148   3.569   0.407
 4239SOL     OW13396   2.998   3.203   1.691
 4239SOL    HW113397   3.038   3.199   1.778
 4239SOL    HW213398   2.945   3.123   1.686
 4240SOL     OW13399   2.091   3.302   0.534
 4240SOL    HW113400   2.075   3.396   0.538
 4240SOL    HW213401   2.028   3.264   0.596
 4241SOL     OW13402   2.116   2.954   0.890
 4241SOL    HW113403   2.112   2.867   0.931
 4241SOL    HW213404   2.057   3.008   0.943
 4242SOL     OW13405   2.478   3.652   1.432
 4242SOL    HW113406   2.394   3.635   1.476
 4242SOL    HW213407   2.499   3.742   1.456
 4243SOL     OW13408   2.450   2.844   0.137
 4243SOL    HW113409   2.485   2.906   0.073
 4243SOL    HW213410   2.493   2.868   0.219
 4244SOL     OW13411   3.458   1.983   1.470
 4244SOL    HW113412   3.456   2.062   1.416
 4244SOL    HW213413   3.447   2.014   1.560
 4245SOL     OW13414   1.983   2.505   0.562
 4245SOL    HW113415   1.946   2.419   0.582
 4245SOL    HW213416   1.968   2.557   0.641
 4246SOL     OW13417   3.703   3.623   0.336
 4246SOL    HW113418   3.763   3.593   0.405
 4246SOL    HW213419   3.732   3.713   0.318
 4247SOL     OW13420   1.903   3.464   0.120
 4247SOL    HW113421   1.877   3.375   0.142
 4247SOL    HW213422   1.876   3.517   0.195
 4248SOL     OW13423   3.550   2.779   0.637
 4248SOL    HW113424   3.637   2.743   0.621
 4248SOL    HW213425   3.531   2.831   0.559
 4249SOL     OW13426   3.508   2.968   0.432
 4249SOL    HW113427   3.589   2.982   0.384
 4249SOL    HW213428   3.512   3.030   0.505
 4250SOL     OW13429   1.983   2.598   1.583
 4250SOL    HW113430   2.071   2.614   1.617
 4250SOL    HW213431   1.937   2.681   1.596
 4251SOL     OW13432   2.475   3.245   0.735
 4251SOL    HW113433   2.428   3.161   0.744
 4251SOL    HW213434   2.458   3.272   0.645
 4252SOL     OW13435   3.152   3.101   1.424
 4252SOL    HW113436   3.185   3.033   1.365
 4252SOL    HW213437   3.208   3.093   1.502
 4253SOL     OW13438   2.673   1.862   0.503
 4253SOL    HW113439   2.714   1.947   0.490
 4253SOL    HW213440   2.580   1.881   0.515
 4254SOL     OW13441   2.054   2.832   1.268
 4254SOL    HW113442   2.137   2.788   1.250
 4254SOL    HW213443   1.987   2.776   1.228
 4255SOL     OW13444   3.383   2.860   0.200
 4255SOL    HW113445   3.319   2.797   0.233
 4255SOL    HW213446   3.430   2.890   0.278
 4256SOL     OW13447   3.047   3.666   1.620
 4256SOL    HW113448   3.062   3.723   1.545
 4256SOL    HW213449   3.062   3.577   1.586
 4257SOL     OW13450   3.327   3.282   0.953
 4257SOL    HW113451   3.259   3.296   1.019
 4257SOL    HW213452   3.316   3.191   0.926
 4258SOL     OW13453   3.522   3.596   0.579
 4258SOL    HW113454   3.501   3.568   0.490
 4258SOL    HW213455   3.497   3.522   0.634
 4259SOL     OW13456   2.463   2.585   0.269
 4259SOL    HW113457   2.466   2.660   0.210
 4259SOL    HW213458   2.390   2.604   0.328
 4260SOL     OW13459   3.142   2.209   0.932
 4260SOL    HW113460   3.053   2.177   0.940
 4260SOL    HW213461   3.192   2.158   0.995
 4261SOL     OW13462   3.444   3.530   0.311
 4261SOL    HW113463   3.534   3.564   0.305
 4261SOL    HW213464   3.419   3.512   0.221
 4262SOL     OW13465   2.655   2.482   1.453
 4262SOL    HW113466   2.630   2.456   1.542
 4262SOL    HW213467   2.620   2.413   1.397
 4263SOL     OW13468   3.256   2.336   1.678
 4263SOL    HW113469   3.256   2.380   1.763
 4263SOL    HW213470   3.319   2.264   1.688
 4264SOL     OW13471   2.820   2.750   1.581
 4264SOL    HW113472   2.874   2.679   1.546
 4264SOL    HW213473   2.772   2.783   1.504
 4265SOL     OW13474   2.856   2.273   1.240
 4265SOL    HW113475   2.771   2.298   1.276
 4265SOL    HW213476   2.834   2.227   1.159
 4266SOL     OW13477   2.911   2.563   0.427
 4266SOL    HW113478   2.926   2.556   0.521
 4266SOL    HW213479   2.828   2.516   0.413
 4267SOL     OW13480   1.951   2.682   0.773
 4267SOL    HW113481   2.033   2.677   0.822
 4267SOL    HW213482   1.906   2.758   0.809
 4268SOL     OW13483   1.990   3.701   1.576
 4268SOL    HW113484   1.988   3.682   1.669
 4268SOL    HW213485   1.898   3.705   1.550
 4269SOL     OW13486   2.745   2.215   0.205
 4269SOL    HW113487   2.796   2.270   0.146
 4269SOL    HW213488   2.762   2.126   0.176
 4270SOL     OW13489   3.573   2.439   1.828
 4270SOL    HW113490   3.536   2.515   1.783
 4270SOL    HW213491   3.597   2.379   1.758
 4271SOL     OW13492   3.237   3.004   0.542
 4271SOL    HW113493   3.315   2.989   0.489
 4271SOL    HW213494   3.185   3.066   0.492
 4272SOL     OW13495   2.871   3.308   0.474
 4272SOL    HW113496   2.829   3.379   0.425
 4272SOL    HW213497   2.855   3.330   0.566
 4273SOL     OW13498   2.216   3.668   0.859
 4273SOL    HW113499   2.260   3.584   0.867
 4273SOL    HW213500   2.285   3.733   0.874
 4274SOL     OW13501   3.659   2.922   0.868
 4274SOL    HW113502   3.602   2.907   0.792
 4274SOL    HW213503   3.600   2.927   0.942
 4275SOL     OW13504   3.090   3.402   1.512
 4275SOL    HW113505   3.076   3.328   1.572
 4275SOL    HW213506   3.029   3.385   1.440
 4276SOL     OW13507   2.178   2.814   0.271
 4276SOL    HW113508   2.256   2.841   0.221
 4276SOL    HW213509   2.146   2.736   0.227
 4277SOL     OW13510   3.338   2.599   0.727
 4277SOL    HW113511   3.327   2.555   0.812
 4277SOL    HW213512   3.413   2.656   0.739
 4278SOL     OW13513   2.326   3.125   1.737
 4278SOL    HW113514   2.298   3.130   1.646
 4278SOL    HW213515   2.245   3.124   1.787
 4279SOL     OW13516   2.969   3.640   0.226
 4279SOL    HW113517   2.912   3.588   0.282
 4279SOL    HW213518   3.009   3.577   0.167
 4280SOL     OW13519   1.975   2.105   1.501
 4280SOL    HW113520   1.972   2.200   1.490
 4280SOL    HW213521   2.059   2.089   1.544
 4281SOL     OW13522   3.490   3.237   0.088
 4281SOL    HW113523   3.448   3.322   0.076
 4281SOL    HW213524   3.424   3.173   0.061
 4282SOL     OW13525   2.331   3.597   0.326
 4282SOL    HW113526   2.368   3.658   0.390
 4282SOL    HW213527   2.405   3.576   0.268
 4283SOL     OW13528   3.264   1.970   0.429
 4283SOL    HW113529   3.254   1.947   0.337
 4283SOL    HW213530   3.358   1.977   0.443
 4284SOL     OW13531   2.117   3.654   1.233
 4284SOL    HW113532   2.169   3.589   1.280
 4284SOL    HW213533   2.105   3.617   1.146
 4285SOL     OW13534   2.800   3.560   0.900
 4285SOL    HW113535   2.877   3.507   0.920
 4285SOL    HW213536   2.754   3.511   0.832
 4286SOL     OW13537   2.250   2.558   0.474
 4286SOL    HW113538   2.271   2.468   0.450
 4286SOL    HW213539   2.158   2.555   0.500
 4287SOL     OW13540   3.400   2.088   1.725
 4287SOL    HW113541   3.408   2.109   1.818
 4287SOL    HW213542   3.332   2.021   1.722
 4288SOL     OW13543   2.466   1.975   0.120
 4288SOL    HW113544   2.556   1.949   0.139
 4288SOL    HW213545   2.451   1.948   0.030
 4289SOL     OW13546   2.630   2.141   1.754
 4289SOL    HW113547   2.702   2.078   1.759
 4289SOL    HW213548   2.577   2.122   1.832
 4290SOL     OW13549   2.739   3.383   1.194
 4290SOL    HW113550   2.724   3.347   1.106
 4290SOL    HW213551   2.808   3.328   1.230
 4291SOL     OW13552   3.204   2.450   1.432
 4291SOL    HW113553   3.234   2.419   1.517
 4291SOL    HW213554   3.239   2.539   1.425
 4292SOL     OW13555   2.675   3.260   0.936
 4292SOL    HW113556   2.759   3.250   0.891
 4292SOL    HW213557   2.610   3.258   0.866
 4293SOL     OW13558   2.787   2.369   0.903
 4293SOL    HW113559   2.764   2.361   0.811
 4293SOL    HW213560   2.822   2.283   0.927
 4294SOL     OW13561   2.407   1.930   0.503
 4294SOL    HW113562   2.327   1.923   0.555
 4294SOL    HW213563   2.400   2.015   0.460
 4295SOL     OW13564   3.288   3.058   0.032
 4295SOL    HW113565   3.322   2.986   0.085
 4295SOL    HW213566   3.205   3.081   0.073
 4296SOL     OW13567   2.155   1.910   0.190
 4296SOL    HW113568   2.217   1.961   0.137
 4296SOL    HW213569   2.207   1.837   0.223
 4297SOL     OW13570   2.798   2.106   0.462
 4297SOL    HW113571   2.772   2.153   0.384
 4297SOL    HW213572   2.893   2.119   0.467
 4298SOL     OW13573   2.942   2.541   1.459
 4298SOL    HW113574   2.872   2.476   1.465
 4298SOL    HW213575   3.022   2.490   1.452
 4299SOL     OW13576   3.086   3.431   0.794
 4299SOL    HW113577   3.105   3.499   0.728
 4299SOL    HW213578   3.155   3.443   0.860
 4300SOL     OW13579   2.330   3.010   0.738
 4300SOL    HW113580   2.259   2.992   0.799
 4300SOL    HW213581   2.293   2.994   0.652
 4301SOL     OW13582   3.132   3.657   0.604
 4301SOL    HW113583   3.178   3.719   0.546
 4301SOL    HW213584   3.069   3.711   0.652
 4302SOL     OW13585   2.876   2.401   0.034
 4302SOL    HW113586   2.845   2.489   0.010
 4302SOL    HW213587   2.955   2.417   0.086
 4303SOL     OW13588   1.943   2.416   1.388
 4303SOL    HW113589   2.039   2.413   1.383
 4303SOL    HW213590   1.926   2.481   1.456
 4304SOL     OW13591   2.459   2.050   1.147
 4304SOL    HW113592   2.469   1.983   1.215
 4304SOL    HW213593   2.374   2.090   1.166
 4305SOL     OW13594   2.726   2.318   0.640
 4305SOL    HW113595   2.687   2.378   0.577
 4305SOL    HW213596   2.749   2.240   0.589
 4306SOL     OW13597   2.876   1.914   0.754
 4306SOL    HW113598   2.817   1.904   0.678
 4306SOL    HW213599   2.856   1.839   0.809
 4307SOL     OW13600   3.298   3.026   0.858
 4307SOL    HW113601   3.230   2.958   0.856
 4307SOL    HW213602   3.321   3.039   0.766
 4308SOL     OW13603   3.330   2.464   0.981
 4308SOL    HW113604   3.282   2.381   0.986
 4308SOL    HW213605   3.391   2.461   1.054
 4309SOL     OW13606   3.712   2.678   0.378
 4309SOL    HW113607   3.765   2.627   0.440
 4309SOL    HW213608   3.683   2.615   0.313
 4310SOL     OW13609   2.356   3.285   0.173
 4310SOL    HW113610   2.278   3.258   0.223
 4310SOL    HW213611   2.349   3.236   0.091
 4311SOL     OW13612   3.530   3.127   0.650
 4311SOL    HW113613   3.625   3.132   0.661
 4311SOL    HW213614   3.498   3.215   0.670
 4312SOL     OW13615   3.253   2.441   0.079
 4312SOL    HW113616   3.193   2.417   0.151
 4312SOL    HW213617   3.324   2.378   0.086
 4313SOL     OW13618   3.615   3.098   1.576
 4313SOL    HW113619   3.703   3.059   1.574
 4313SOL    HW213620   3.630   3.188   1.606
 4314SOL     OW13621   2.923   3.216   1.335
 4314SOL    HW113622   2.848   3.185   1.386
 4314SOL    HW213623   2.999   3.174   1.376
 4315SOL     OW13624   3.467   3.487   1.651
 4315SOL    HW113625   3.465   3.521   1.562
 4315SOL    HW213626   3.551   3.441   1.657
 4316SOL     OW13627   2.988   3.064   1.107
 4316SOL    HW113628   2.929   3.102   1.173
 4316SOL    HW213629   2.953   3.094   1.023
 4317SOL     OW13630   3.493   2.962   1.079
 4317SOL    HW113631   3.489   3.024   1.151
 4317SOL    HW213632   3.412   2.977   1.029
 4318SOL     OW13633   2.784   1.957   1.399
 4318SOL    HW113634   2.805   1.941   1.307
 4318SOL    HW213635   2.863   1.998   1.435
 4319SOL     OW13636   2.846   2.976   1.722
 4319SOL    HW113637   2.753   2.991   1.741
 4319SOL    HW213638   2.847   2.899   1.666
 4320SOL     OW13639   2.571   2.922   0.372
 4320SOL    HW113640   2.556   2.908   0.465
 4320SOL    HW213641   2.647   2.867   0.352
 4321SOL     OW13642   2.279   2.673   1.251
 4321SOL    HW113643   2.350   2.691   1.312
 4321SOL    HW213644   2.249   2.585   1.274
 4322SOL     OW13645   3.130   2.241   1.272
 4322SOL    HW113646   3.161   2.318   1.319
 4322SOL    HW213647   3.040   2.263   1.248
 4323SOL     OW13648   1.930   3.434   1.350
 4323SOL    HW113649   1.897   3.507   1.297
 4323SOL    HW213650   2.025   3.442   1.345
 4324SOL     OW13651   2.217   2.972   0.495
 4324SOL    HW113652   2.215   3.046   0.435
 4324SOL    HW213653   2.210   2.894   0.440
 4325SOL     OW13654   3.109   3.208   0.393
 4325SOL    HW113655   3.165   3.281   0.421
 4325SOL    HW213656   3.022   3.231   0.425
 4326SOL     OW13657   3.139   3.318   1.146
 4326SOL    HW113658   3.194   3.320   1.224
 4326SOL    HW213659   3.084   3.240   1.157
 4327SOL     OW13660   3.447   2.490   0.475
 4327SOL    HW113661   3.400   2.540   0.542
 4327SOL    HW213662   3.486   2.557   0.419
 4328SOL     OW13663   2.210   3.386   1.318
 4328SOL    HW113664   2.196   3.344   1.233
 4328SOL    HW213665   2.305   3.399   1.323
 4329SOL     OW13666   2.276   2.621   1.598
 4329SOL    HW113667   2.339   2.665   1.540
 4329SOL    HW213668   2.322   2.543   1.629
 4330SOL     OW13669   3.460   2.640   1.680
 4330SOL    HW113670   3.373   2.680   1.672
 4330SOL    HW213671   3.512   2.681   1.611
 4331SOL     OW13672   2.857   1.980   1.755
 4331SOL    HW113673   2.910   2.053   1.724
 4331SOL    HW213674   2.908   1.902   1.730
 4332SOL     OW13675   2.365   1.898   1.747
 4332SOL    HW113676   2.325   1.843   1.679
 4332SOL    HW213677   2.304   1.971   1.757
 4333SOL     OW13678   2.439   2.736   1.027
 4333SOL    HW113679   2.478   2.824   1.025
 4333SOL    HW213680   2.388   2.735   1.108
 4334SOL     OW13681   3.223   2.721   1.033
 4334SOL    HW113682   3.140   2.714   0.985
 4334SOL    HW213683   3.260   2.633   1.031
 4335SOL     OW13684   3.067   2.388   0.271
 4335SOL    HW113685   3.075   2.311   0.328
 4335SOL    HW213686   3.026   2.454   0.327
 4336SOL     OW13687   1.909   3.172   1.277
 4336SOL    HW113688   1.942   3.120   1.350
 4336SOL    HW213689   1.916   3.263   1.308
 4337SOL     OW13690   2.596   2.505   1.067
 4337SOL    HW113691   2.648   2.472   0.994
 4337SOL    HW213692   2.550   2.581   1.031
 4338SOL     OW13693   3.595   2.821   1.851
 4338SOL    HW113694   3.547   2.765   1.790
 4338SOL    HW213695   3.535   2.832   1.924
 4339SOL     OW13696   2.162   1.918   0.632
 4339SOL    HW113697   2.124   2.001   0.660
 4339SOL    HW213698   2.168   1.866   0.712
 4340SOL     OW13699   3.476   2.235   0.368
 4340SOL    HW113700   3.503   2.170   0.434
 4340SOL    HW213701   3.452   2.312   0.419
 4341SOL     OW13702   2.891   2.621   0.962
 4341SOL    HW113703   2.889   2.640   1.056
 4341SOL    HW213704   2.858   2.531   0.956
 4342SOL     OW13705   2.844   3.428   1.714
 4342SOL    HW113706   2.829   3.473   1.631
 4342SOL    HW213707   2.887   3.346   1.690
 4343SOL     OW13708   3.718   3.372   1.606
 4343SOL    HW113709   3.734   3.397   1.515
 4343SOL    HW213710   3.799   3.392   1.652
 4344SOL     OW13711   2.217   2.783   1.810
 4344SOL    HW113712   2.301   2.797   1.854
 4344SOL    HW213713   2.237   2.725   1.736
 4345SOL     OW13714   3.400   2.146   0.118
 4345SOL    HW113715   3.338   2.075   0.135
 4345SOL    HW213716   3.429   2.174   0.205
 4346SOL     OW13717   3.151   2.687   0.033
 4346SOL    HW113718   3.195   2.603   0.044
 4346SOL    HW213719   3.186   2.721  11.050
 4347SOL     OW13720   2.926   3.197   0.852
 4347SOL    HW113721   2.929   3.124   0.790
 4347SOL    HW213722   2.989   3.260   0.818
 4348SOL     OW13723   2.174   2.677   0.945
 4348SOL    HW113724   2.266   2.700   0.936
 4348SOL    HW213725   2.173   2.596   0.995
 4349SOL     OW13726   2.996   2.241   1.679
 4349SOL    HW113727   2.951   2.295   1.743
 4349SOL    HW213728   3.085   2.277   1.675
 4350SOL     OW13729   3.024   2.067   1.470
 4350SOL    HW113730   3.014   2.129   1.542
 4350SOL    HW213731   3.060   2.119   1.398
 4351SOL     OW13732   1.869   3.190   0.196
 4351SOL    HW113733   1.782   3.201   0.157
 4351SOL    HW213734   1.870   3.099   0.225
 4352SOL     OW13735   1.952   3.652   0.937
 4352SOL    HW113736   1.921   3.572   0.894
 4352SOL    HW213737   2.042   3.662   0.905
 4353SOL     OW13738   2.361   3.435   0.906
 4353SOL    HW113739   2.430   3.497   0.930
 4353SOL    HW213740   2.405   3.370   0.851
 4354SOL     OW13741   2.850   2.659   1.228
 4354SOL    HW113742   2.900   2.631   1.305
 4354SOL    HW213743   2.765   2.618   1.238
 4355SOL     OW13744   1.902   2.423   1.116
 4355SOL    HW113745   1.954   2.355   1.074
 4355SOL    HW213746   1.920   2.412   1.210
 4356SOL     OW13747   3.237   2.804   1.659
 4356SOL    HW113748   3.258   2.897   1.659
 4356SOL    HW213749   3.236   2.779   1.567
 4357SOL     OW13750   2.675   2.433   0.362
 4357SOL    HW113751   2.683   2.361   0.300
 4357SOL    HW213752   2.601   2.485   0.331
 4358SOL     OW13753   3.505   2.463   1.189
 4358SOL    HW113754   3.493   2.403   1.263
 4358SOL    HW213755   3.592   2.442   1.155
 4359SOL     OW13756   2.110   3.415   1.731
 4359SOL    HW113757   2.084   3.478   1.797
 4359SOL    HW213758   2.107   3.330   1.775
 4360SOL     OW13759   2.573   2.317   1.256
 4360SOL    HW113760   2.527   2.242   1.217
 4360SOL    HW213761   2.572   2.384   1.188
 4361SOL     OW13762   2.792   3.541   1.466
 4361SOL    HW113763   2.765   3.510   1.380
 4361SOL    HW213764   2.791   3.636   1.459
 4362SOL     OW13765   2.011   3.002   1.472
 4362SOL    HW113766   2.014   2.947   1.551
 4362SOL    HW213767   2.027   2.941   1.400
 4363SOL     OW13768   3.191   2.911   1.225
 4363SOL    HW113769   3.215   2.848   1.157
 4363SOL    HW213770   3.118   2.961   1.187
 4364SOL     OW13771   3.169   2.714   0.310
 4364SOL    HW113772   3.091   2.685   0.356
 4364SOL    HW213773   3.148   2.702   0.217
 4365SOL     OW13774   3.630   3.609   1.149
 4365SOL    HW113775   3.690   3.635   1.079
 4365SOL    HW213776   3.607   3.518   1.128
 4366SOL     OW13777   3.104   3.595   1.117
 4366SOL    HW113778   3.185   3.613   1.070
 4366SOL    HW213779   3.107   3.501   1.134
 4367SOL     OW13780   1.945   3.128   1.014
 4367SOL    HW113781   1.932   3.139   1.108
 4367SOL    HW213782   1.870   3.075   0.985
 4368SOL     OW13783   2.540   3.526   1.724
 4368SOL    HW113784   2.488   3.606   1.722
 4368SOL    HW213785   2.602   3.535   1.653
 4369SOL     OW13786   2.779   1.954   0.113
 4369SOL    HW113787   2.829   1.920   0.039
 4369SOL    HW213788   2.815   1.910   0.190
 4370SOL     OW13789   3.580   2.005   0.512
 4370SOL    HW113790   3.654   1.991   0.453
 4370SOL    HW213791   3.565   1.919   0.552
 4371SOL     OW13792   3.251   3.430   0.483
 4371SOL    HW113793   3.313   3.460   0.416
 4371SOL    HW213794   3.205   3.509   0.511
 4372SOL     OW13795   1.997   3.658   1.843
 4372SOL    HW113796   1.946   3.594   1.892
 4372SOL    HW213797   2.045   3.707   1.910
 4373SOL     OW13798   3.139   2.786   0.671
 4373SOL    HW113799   3.213   2.725   0.675
 4373SOL    HW213800   3.172   2.859   0.619
 4374SOL     OW13801   2.681   3.134   1.431
 4374SOL    HW113802   2.654   3.173   1.515
 4374SOL    HW213803   2.610   3.156   1.371
 4375SOL     OW13804   2.537   3.480   0.165
 4375SOL    HW113805   2.544   3.490   0.070
 4375SOL    HW213806   2.480   3.404   0.177
 4376SOL     OW13807   3.495   3.588   1.392
 4376SOL    HW113808   3.542   3.596   1.309
 4376SOL    HW213809   3.481   3.679   1.421
 4377SOL     OW13810   3.701   2.035   0.968
 4377SOL    HW113811   3.731   1.949   0.938
 4377SOL    HW213812   3.615   2.046   0.928
 4378SOL     OW13813   3.084   3.466   0.050
 4378SOL    HW113814   3.071   3.373   0.071
 4378SOL    HW213815   3.017   3.485  11.084
 4379SOL     OW13816   2.685   2.868   1.372
 4379SOL    HW113817   2.730   2.863   1.288
 4379SOL    HW213818   2.688   2.961   1.395
 4380SOL     OW13819   2.776   2.770   0.282
 4380SOL    HW113820   2.844   2.808   0.226
 4380SOL    HW213821   2.823   2.703   0.333
 4381SOL     OW13822   3.362   3.484   0.046
 4381SOL    HW113823   3.266   3.481   0.041
 4381SOL    HW213824   3.390   3.497  11.055
 4382SOL     OW13825   2.232   3.163   1.491
 4382SOL    HW113826   2.218   3.241   1.438
 4382SOL    HW213827   2.155   3.108   1.475
 4383SOL     OW13828   3.474   3.145   1.281
 4383SOL    HW113829   3.533   3.137   1.356
 4383SOL    HW213830   3.413   3.215   1.305
 4384SOL     OW13831   2.910   2.967   0.705
 4384SOL    HW113832   2.840   2.916   0.745
 4384SOL    HW213833   2.972   2.902   0.671
 4385SOL     OW13834   2.882   2.102   0.965
 4385SOL    HW113835   2.877   2.053   0.883
 4385SOL    HW213836   2.876   2.035   1.033
 4386SOL     OW13837   2.464   3.353   0.483
 4386SOL    HW113838   2.501   3.300   0.412
 4386SOL    HW213839   2.396   3.406   0.440
 4387SOL     OW13840   3.581   2.254   1.380
 4387SOL    HW113841   3.653   2.317   1.378
 4387SOL    HW213842   3.611   2.182   1.324
 4388SOL     OW13843   2.126   3.202   0.290
 4388SOL    HW113844   2.038   3.204   0.254
 4388SOL    HW213845   2.118   3.241   0.376
 4389SOL     OW13846   1.974   2.880   1.719
 4389SOL    HW113847   1.897   2.857   1.772
 4389SOL    HW213848   2.048   2.844   1.769
 4390SOL     OW13849   2.542   2.046   1.496
 4390SOL    HW113850   2.629   2.030   1.459
 4390SOL    HW213851   2.560   2.084   1.582
 4391SOL     OW13852   1.927   2.212   0.067
 4391SOL    HW113853   1.861   2.186   0.003
 4391SOL    HW213854   1.995   2.256   0.015
 4392SOL     OW13855   3.294   2.721   1.402
 4392SOL    HW113856   3.245   2.780   1.345
 4392SOL    HW213857   3.384   2.723   1.369
 4393SOL     OW13858   1.936   2.022   0.313
 4393SOL    HW113859   1.915   2.097   0.258
 4393SOL    HW213860   2.015   1.984   0.273
 4394SOL     OW13861   3.043   3.205   0.122
 4394SOL    HW113862   2.950   3.181   0.118
 4394SOL    HW213863   3.066   3.198   0.214
 4395SOL     OW13864   2.482   2.694   1.429
 4395SOL    HW113865   2.536   2.772   1.416
 4395SOL    HW213866   2.544   2.622   1.438
 4396SOL     OW13867   3.347   3.636   0.975
 4396SOL    HW113868   3.373   3.694   0.903
 4396SOL    HW213869   3.428   3.620   1.024
 4397SOL     OW13870   2.580   2.426   1.705
 4397SOL    HW113871   2.615   2.491   1.766
 4397SOL    HW213872   2.613   2.342   1.736
 4398SOL     OW13873   3.330   3.065   1.633
 4398SOL    HW113874   3.319   3.078   1.727
 4398SOL    HW213875   3.424   3.077   1.619
 4399SOL     OW13876   2.245   3.602   1.564
 4399SOL    HW113877   2.158   3.641   1.551
 4399SOL    HW213878   2.226   3.517   1.605
 4400SOL     OW13879   3.533   2.744   1.256
 4400SOL    HW113880   3.525   2.659   1.213
 4400SOL    HW213881   3.525   2.807   1.184
 4401SOL     OW13882   3.079   2.180   0.459
 4401SOL    HW113883   3.144   2.111   0.448
 4401SOL    HW213884   3.108   2.229   0.536
 4402SOL     OW13885   2.458   2.605   0.656
 4402SOL    HW113886   2.494   2.693   0.645
 4402SOL    HW213887   2.383   2.602   0.596
 4403SOL     OW13888   3.628   2.221   1.649
 4403SOL    HW113889   3.609   2.235   1.556
 4403SOL    HW213890   3.556   2.165   1.679
 4404SOL     OW13891   3.605   2.796   1.513
 4404SOL    HW113892   3.608   2.890   1.525
 4404SOL    HW213893   3.591   2.784   1.419
 4405SOL     OW13894   2.757   3.220   0.060
 4405SOL    HW113895   2.688   3.224   0.126
 4405SOL    HW213896   2.752   3.304   0.014
 4406SOL     OW13897   2.521   3.656   0.948
 4406SOL    HW113898   2.500   3.746   0.923
 4406SOL    HW213899   2.616   3.651   0.940
 4407SOL     OW13900   2.728   2.827   0.856
 4407SOL    HW113901   2.777   2.755   0.897
 4407SOL    HW213902   2.696   2.879   0.930
 4408SOL     OW13903   2.942   2.852   0.086
 4408SOL    HW113904   2.919   2.889   0.001
 4408SOL    HW213905   3.018   2.797   0.069
 4409SOL     OW13906   3.718   3.419   0.846
 4409SOL    HW113907   3.642   3.407   0.789
 4409SOL    HW213908   3.711   3.349   0.911
 4410SOL     OW13909   2.086   3.167   1.856
 4410SOL    HW113910   2.018   3.106   1.827
 4410SOL    HW213911   2.068   3.180   1.949
 4411SOL     OW13912   1.944   3.098   0.664
 4411SOL    HW113913   1.947   3.047   0.745
 4411SOL    HW213914   2.014   3.061   0.610
 4412SOL     OW13915   2.541   3.262   1.625
 4412SOL    HW113916   2.462   3.219   1.656
 4412SOL    HW213917   2.536   3.350   1.663
 4413SOL     OW13918   3.676   2.047   1.238
 4413SOL    HW113919   3.685   1.954   1.254
 4413SOL    HW213920   3.685   2.057   1.143
 4414SOL     OW13921   3.563   3.353   1.101
 4414SOL    HW113922   3.482   3.327   1.057
 4414SOL    HW213923   3.578   3.284   1.165
 4415SOL     OW13924   2.687   3.440   0.680
 4415SOL    HW113925   2.680   3.484   0.595
 4415SOL    HW213926   2.608   3.385   0.684
 4416SOL     OW13927   3.294   2.085   1.118
 4416SOL    HW113928   3.323   2.008   1.166
 4416SOL    HW213929   3.242   2.135   1.181
 4417SOL     OW13930   2.871   1.883   1.145
 4417SOL    HW113931   2.817   1.813   1.108
 4417SOL    HW213932   2.959   1.846   1.147
 4418SOL     OW13933   2.629   3.191   0.312
 4418SOL    HW113934   2.598   3.101   0.325
 4418SOL    HW213935   2.714   3.193   0.357
 4419SOL     OW13936   2.482   3.421   1.284
 4419SOL    HW113937   2.485   3.502   1.335
 4419SOL    HW213938   2.569   3.413   1.245
 4420SOL     OW13939   3.213   1.916   0.164
 4420SOL    HW113940   3.236   1.866   0.085
 4420SOL    HW213941   3.127   1.882   0.189
 4421SOL     OW13942   3.159   2.321   0.682
 4421SOL    HW113943   3.106   2.401   0.691
 4421SOL    HW213944   3.156   2.281   0.769
 4422SOL     OW13945   3.449   2.067   0.877
 4422SOL    HW113946   3.385   2.085   0.945
 4422SOL    HW213947   3.449   2.146   0.822
 4423SOL     OW13948   1.904   2.934   0.301
 4423SOL    HW113949   1.999   2.927   0.294
 4423SOL    HW213950   1.875   2.846   0.327
 4424SOL     OW13951   2.744   3.513   0.347
 4424SOL    HW113952   2.674   3.492   0.286
 4424SOL    HW213953   2.712   3.588   0.397
 4425SOL     OW13954   2.078   2.527   1.982
 4425SOL    HW113955   1.994   2.497   2.016
 4425SOL    HW213956   2.099   2.465   1.912
 4426SOL     OW13957   2.006   2.137   2.935
 4426SOL    HW113958   2.066   2.075   2.976
 4426SOL    HW213959   1.943   2.083   2.888
 4427SOL     OW13960   1.858   2.245   2.493
 4427SOL    HW113961   1.778   2.267   2.541
 4427SOL    HW213962   1.841   2.159   2.455
 4428SOL     OW13963   2.428   3.144   3.034
 4428SOL    HW113964   2.340   3.148   2.996
 4428SOL    HW213965   2.443   3.232   3.068
 4429SOL     OW13966   3.420   3.373   2.567
 4429SOL    HW113967   3.376   3.355   2.651
 4429SOL    HW213968   3.349   3.378   2.503
 4430SOL     OW13969   2.992   2.561   2.564
 4430SOL    HW113970   3.041   2.642   2.552
 4430SOL    HW213971   2.945   2.573   2.647
 4431SOL     OW13972   3.627   2.469   2.092
 4431SOL    HW113973   3.607   2.460   1.999
 4431SOL    HW213974   3.591   2.390   2.132
 4432SOL     OW13975   2.620   3.006   2.899
 4432SOL    HW113976   2.550   3.039   2.955
 4432SOL    HW213977   2.654   3.083   2.855
 4433SOL     OW13978   2.723   2.644   3.683
 4433SOL    HW113979   2.712   2.715   3.745
 4433SOL    HW213980   2.748   2.687   3.601
 4434SOL     OW13981   2.548   2.867   2.512
 4434SOL    HW113982   2.613   2.854   2.581
 4434SOL    HW213983   2.479   2.920   2.553
 4435SOL     OW13984   2.569   3.014   3.671
 4435SOL    HW113985   2.617   3.093   3.695
 4435SOL    HW213986   2.485   3.046   3.638
 4436SOL     OW13987   2.193   3.291   2.930
 4436SOL    HW113988   2.121   3.254   2.879
 4436SOL    HW213989   2.244   3.341   2.867
 4437SOL     OW13990   3.323   3.360   3.212
 4437SOL    HW113991   3.368   3.444   3.223
 4437SOL    HW213992   3.269   3.352   3.291
 4438SOL     OW13993   3.475   2.312   2.601
 4438SOL    HW113994   3.398   2.337   2.549
 4438SOL    HW213995   3.495   2.389   2.654
 4439SOL     OW13996   2.082   3.575   2.337
 4439SOL    HW113997   2.106   3.652   2.389
 4439SOL    HW213998   2.151   3.568   2.271
 4440SOL     OW13999   2.997   3.203   3.553
 4440SOL    HW114000   3.038   3.199   3.640
 4440SOL    HW214001   2.945   3.123   3.548
 4441SOL     OW14002   2.092   3.302   2.397
 4441SOL    HW114003   2.075   3.396   2.402
 4441SOL    HW214004   2.030   3.263   2.458
 4442SOL     OW14005   2.117   2.955   2.752
 4442SOL    HW114006   2.112   2.868   2.792
 4442SOL    HW214007   2.057   3.008   2.804
 4443SOL     OW14008   2.477   3.652   3.294
 4443SOL    HW114009   2.394   3.635   3.338
 4443SOL    HW214010   2.500   3.742   3.318
 4444SOL     OW14011   2.452   2.840   1.990
 4444SOL    HW114012   2.495   2.895   1.924
 4444SOL    HW214013   2.492   2.867   2.073
 4445SOL     OW14014   3.458   1.983   3.332
 4445SOL    HW114015   3.456   2.062   3.278
 4445SOL    HW214016   3.447   2.014   3.421
 4446SOL     OW14017   1.970   2.506   2.421
 4446SOL    HW114018   1.942   2.418   2.445
 4446SOL    HW214019   1.966   2.555   2.503
 4447SOL     OW14020   3.703   3.623   2.199
 4447SOL    HW114021   3.763   3.594   2.268
 4447SOL    HW214022   3.730   3.713   2.181
 4448SOL     OW14023   1.892   3.458   1.986
 4448SOL    HW114024   1.874   3.366   2.006
 4448SOL    HW214025   1.867   3.505   2.066
 4449SOL     OW14026   3.552   2.781   2.500
 4449SOL    HW114027   3.637   2.742   2.482
 4449SOL    HW214028   3.531   2.831   2.420
 4450SOL     OW14029   3.507   2.970   2.292
 4450SOL    HW114030   3.592   2.978   2.249
 4450SOL    HW214031   3.512   3.030   2.366
 4451SOL     OW14032   1.983   2.598   3.445
 4451SOL    HW114033   2.071   2.612   3.481
 4451SOL    HW214034   1.938   2.681   3.459
 4452SOL     OW14035   2.474   3.244   2.597
 4452SOL    HW114036   2.428   3.161   2.606
 4452SOL    HW214037   2.458   3.271   2.507
 4453SOL     OW14038   3.152   3.101   3.286
 4453SOL    HW114039   3.185   3.033   3.227
 4453SOL    HW214040   3.208   3.093   3.364
 4454SOL     OW14041   2.669   1.861   2.365
 4454SOL    HW114042   2.711   1.945   2.351
 4454SOL    HW214043   2.576   1.882   2.376
 4455SOL     OW14044   2.053   2.831   3.131
 4455SOL    HW114045   2.137   2.789   3.110
 4455SOL    HW214046   1.987   2.775   3.090
 4456SOL     OW14047   3.394   2.853   2.058
 4456SOL    HW114048   3.324   2.795   2.088
 4456SOL    HW214049   3.433   2.887   2.139
 4457SOL     OW14050   3.047   3.665   3.482
 4457SOL    HW114051   3.062   3.723   3.407
 4457SOL    HW214052   3.062   3.577   3.448
 4458SOL     OW14053   3.327   3.282   2.815
 4458SOL    HW114054   3.259   3.296   2.881
 4458SOL    HW214055   3.316   3.191   2.788
 4459SOL     OW14056   3.523   3.595   2.440
 4459SOL    HW114057   3.500   3.567   2.351
 4459SOL    HW214058   3.497   3.522   2.495
 4460SOL     OW14059   2.463   2.588   2.132
 4460SOL    HW114060   2.478   2.655   2.065
 4460SOL    HW214061   2.380   2.613   2.173
 4461SOL     OW14062   3.143   2.210   2.794
 4461SOL    HW114063   3.053   2.178   2.802
 4461SOL    HW214064   3.192   2.157   2.857
 4462SOL     OW14065   3.444   3.530   2.171
 4462SOL    HW114066   3.532   3.565   2.165
 4462SOL    HW214067   3.419   3.513   2.080
 4463SOL     OW14068   2.650   2.470   3.311
 4463SOL    HW114069   2.632   2.459   3.404
 4463SOL    HW214070   2.601   2.400   3.269
 4464SOL     OW14071   3.256   2.336   3.540
 4464SOL    HW114072   3.257   2.380   3.625
 4464SOL    HW214073   3.319   2.264   3.549
 4465SOL     OW14074   2.819   2.750   3.442
 4465SOL    HW114075   2.874   2.680   3.408
 4465SOL    HW214076   2.773   2.784   3.366
 4466SOL     OW14077   2.860   2.271   3.101
 4466SOL    HW114078   2.780   2.308   3.138
 4466SOL    HW214079   2.833   2.230   3.019
 4467SOL     OW14080   2.910   2.560   2.289
 4467SOL    HW114081   2.926   2.554   2.383
 4467SOL    HW214082   2.828   2.513   2.275
 4468SOL     OW14083   1.951   2.683   2.636
 4468SOL    HW114084   2.032   2.677   2.686
 4468SOL    HW214085   1.906   2.760   2.672
 4469SOL     OW14086   1.990   3.700   3.437
 4469SOL    HW114087   1.988   3.682   3.531
 4469SOL    HW214088   1.898   3.706   3.412
 4470SOL     OW14089   2.751   2.210   2.059
 4470SOL    HW114090   2.794   2.268   1.997
 4470SOL    HW214091   2.758   2.123   2.019
 4471SOL     OW14092   3.573   2.440   3.690
 4471SOL    HW114093   3.536   2.515   3.644
 4471SOL    HW214094   3.597   2.378   3.620
 4472SOL     OW14095   3.237   3.005   2.404
 4472SOL    HW114096   3.315   2.990   2.351
 4472SOL    HW214097   3.185   3.067   2.353
 4473SOL     OW14098   2.436   2.032   2.735
 4473SOL    HW114099   2.440   2.045   2.830
 4473SOL    HW214100   2.437   2.120   2.699
 4474SOL     OW14101   2.870   3.308   2.336
 4474SOL    HW114102   2.830   3.379   2.287
 4474SOL    HW214103   2.857   3.331   2.428
 4475SOL     OW14104   2.216   3.668   2.720
 4475SOL    HW114105   2.260   3.584   2.729
 4475SOL    HW214106   2.285   3.733   2.736
 4476SOL     OW14107   3.659   2.923   2.729
 4476SOL    HW114108   3.603   2.905   2.654
 4476SOL    HW214109   3.599   2.927   2.804
 4477SOL     OW14110   3.090   3.402   3.375
 4477SOL    HW114111   3.076   3.328   3.434
 4477SOL    HW214112   3.030   3.385   3.302
 4478SOL     OW14113   2.190   2.805   2.115
 4478SOL    HW114114   2.265   2.831   2.062
 4478SOL    HW214115   2.149   2.733   2.067
 4479SOL     OW14116   3.337   2.601   2.589
 4479SOL    HW114117   3.326   2.555   2.673
 4479SOL    HW214118   3.414   2.656   2.603
 4480SOL     OW14119   2.326   3.125   3.599
 4480SOL    HW114120   2.298   3.130   3.508
 4480SOL    HW214121   2.245   3.123   3.650
 4481SOL     OW14122   2.982   3.639   2.094
 4481SOL    HW114123   2.911   3.596   2.141
 4481SOL    HW214124   3.004   3.580   2.022
 4482SOL     OW14125   1.978   2.091   3.358
 4482SOL    HW114126   1.951   2.183   3.362
 4482SOL    HW214127   2.010   2.072   3.446
 4483SOL     OW14128   3.492   3.241   1.949
 4483SOL    HW114129   3.451   3.326   1.934
 4483SOL    HW214130   3.422   3.177   1.930
 4484SOL     OW14131   2.329   3.600   2.183
 4484SOL    HW114132   2.369   3.657   2.249
 4484SOL    HW214133   2.402   3.573   2.128
 4485SOL     OW14134   3.263   1.970   2.292
 4485SOL    HW114135   3.251   1.945   2.201
 4485SOL    HW214136   3.358   1.977   2.303
 4486SOL     OW14137   2.116   3.654   3.095
 4486SOL    HW114138   2.169   3.589   3.142
 4486SOL    HW214139   2.105   3.617   3.008
 4487SOL     OW14140   2.800   3.560   2.763
 4487SOL    HW114141   2.878   3.507   2.782
 4487SOL    HW214142   2.754   3.511   2.694
 4488SOL     OW14143   3.400   2.088   3.587
 4488SOL    HW114144   3.408   2.109   3.680
 4488SOL    HW214145   3.332   2.020   3.584
 4489SOL     OW14146   2.499   1.997   1.964
 4489SOL    HW114147   2.564   1.933   1.993
 4489SOL    HW214148   2.451   1.953   1.894
 4490SOL     OW14149   2.632   2.139   3.616
 4490SOL    HW114150   2.704   2.077   3.620
 4490SOL    HW214151   2.580   2.119   3.694
 4491SOL     OW14152   2.738   3.382   3.056
 4491SOL    HW114153   2.724   3.347   2.968
 4491SOL    HW214154   2.808   3.328   3.092
 4492SOL     OW14155   3.202   2.452   3.295
 4492SOL    HW114156   3.234   2.419   3.379
 4492SOL    HW214157   3.240   2.539   3.287
 4493SOL     OW14158   2.675   3.260   2.798
 4493SOL    HW114159   2.759   3.250   2.753
 4493SOL    HW214160   2.610   3.258   2.728
 4494SOL     OW14161   2.799   2.370   2.772
 4494SOL    HW114162   2.760   2.366   2.684
 4494SOL    HW214163   2.827   2.280   2.789
 4495SOL     OW14164   2.398   1.934   2.365
 4495SOL    HW114165   2.349   1.941   2.447
 4495SOL    HW214166   2.388   2.019   2.323
 4496SOL     OW14167   3.291   3.060   1.903
 4496SOL    HW114168   3.322   2.984   1.953
 4496SOL    HW214169   3.205   3.079   1.940
 4497SOL     OW14170   2.796   2.105   2.323
 4497SOL    HW114171   2.772   2.148   2.242
 4497SOL    HW214172   2.891   2.116   2.329
 4498SOL     OW14173   2.940   2.540   3.321
 4498SOL    HW114174   2.874   2.472   3.328
 4498SOL    HW214175   3.023   2.493   3.314
 4499SOL     OW14176   3.086   3.432   2.656
 4499SOL    HW114177   3.105   3.499   2.590
 4499SOL    HW214178   3.155   3.443   2.722
 4500SOL     OW14179   2.329   3.010   2.598
 4500SOL    HW114180   2.258   2.993   2.660
 4500SOL    HW214181   2.291   2.992   2.512
 4501SOL     OW14182   3.133   3.657   2.467
 4501SOL    HW114183   3.177   3.718   2.408
 4501SOL    HW214184   3.069   3.711   2.514
 4502SOL     OW14185   2.888   2.407   1.881
 4502SOL    HW114186   2.846   2.491   1.861
 4502SOL    HW214187   2.952   2.428   1.950
 4503SOL     OW14188   1.936   2.421   3.249
 4503SOL    HW114189   2.030   2.413   3.237
 4503SOL    HW214190   1.926   2.485   3.318
 4504SOL     OW14191   2.435   2.034   3.006
 4504SOL    HW114192   2.458   1.976   3.079
 4504SOL    HW214193   2.356   2.080   3.036
 4505SOL     OW14194   2.738   2.319   2.500
 4505SOL    HW114195   2.689   2.375   2.440
 4505SOL    HW214196   2.754   2.239   2.451
 4506SOL     OW14197   2.878   1.914   2.615
 4506SOL    HW114198   2.817   1.906   2.541
 4506SOL    HW214199   2.857   1.838   2.670
 4507SOL     OW14200   3.297   3.026   2.720
 4507SOL    HW114201   3.231   2.957   2.718
 4507SOL    HW214202   3.321   3.039   2.628
 4508SOL     OW14203   3.330   2.464   2.843
 4508SOL    HW114204   3.282   2.382   2.847
 4508SOL    HW214205   3.391   2.460   2.917
 4509SOL     OW14206   3.710   2.681   2.243
 4509SOL    HW114207   3.765   2.628   2.301
 4509SOL    HW214208   3.680   2.619   2.176
 4510SOL     OW14209   2.354   3.276   2.023
 4510SOL    HW114210   2.279   3.246   2.075
 4510SOL    HW214211   2.334   3.249   1.933
 4511SOL     OW14212   3.530   3.127   2.510
 4511SOL    HW114213   3.625   3.132   2.523
 4511SOL    HW214214   3.498   3.215   2.532
 4512SOL     OW14215   3.256   2.434   1.933
 4512SOL    HW114216   3.196   2.415   2.006
 4512SOL    HW214217   3.340   2.400   1.963
 4513SOL     OW14218   3.615   3.098   3.439
 4513SOL    HW114219   3.703   3.059   3.436
 4513SOL    HW214220   3.630   3.188   3.468
 4514SOL     OW14221   2.923   3.216   3.197
 4514SOL    HW114222   2.848   3.185   3.248
 4514SOL    HW214223   2.999   3.174   3.238
 4515SOL     OW14224   3.467   3.487   3.513
 4515SOL    HW114225   3.465   3.521   3.424
 4515SOL    HW214226   3.551   3.441   3.519
 4516SOL     OW14227   2.988   3.064   2.969
 4516SOL    HW114228   2.929   3.102   3.034
 4516SOL    HW214229   2.953   3.094   2.885
 4517SOL     OW14230   3.493   2.962   2.941
 4517SOL    HW114231   3.488   3.024   3.013
 4517SOL    HW214232   3.412   2.977   2.891
 4518SOL     OW14233   2.783   1.959   3.262
 4518SOL    HW114234   2.803   1.941   3.170
 4518SOL    HW214235   2.863   1.998   3.296
 4519SOL     OW14236   2.846   2.976   3.584
 4519SOL    HW114237   2.753   2.991   3.603
 4519SOL    HW214238   2.847   2.899   3.527
 4520SOL     OW14239   2.570   2.922   2.234
 4520SOL    HW114240   2.557   2.908   2.328
 4520SOL    HW214241   2.646   2.868   2.211
 4521SOL     OW14242   2.280   2.674   3.112
 4521SOL    HW114243   2.351   2.692   3.174
 4521SOL    HW214244   2.240   2.594   3.145
 4522SOL     OW14245   3.132   2.240   3.135
 4522SOL    HW114246   3.162   2.318   3.181
 4522SOL    HW214247   3.042   2.260   3.109
 4523SOL     OW14248   1.930   3.434   3.212
 4523SOL    HW114249   1.897   3.507   3.160
 4523SOL    HW214250   2.025   3.442   3.207
 4524SOL     OW14251   2.217   2.966   2.352
 4524SOL    HW114252   2.220   3.044   2.296
 4524SOL    HW214253   2.213   2.893   2.290
 4525SOL     OW14254   2.516   2.429   2.706
 4525SOL    HW114255   2.485   2.483   2.633
 4525SOL    HW214256   2.479   2.470   2.784
 4526SOL     OW14257   3.110   3.210   2.251
 4526SOL    HW114258   3.165   3.282   2.282
 4526SOL    HW214259   3.023   3.230   2.285
 4527SOL     OW14260   3.139   3.318   3.008
 4527SOL    HW114261   3.194   3.320   3.086
 4527SOL    HW214262   3.084   3.240   3.019
 4528SOL     OW14263   3.445   2.488   2.338
 4528SOL    HW114264   3.401   2.543   2.402
 4528SOL    HW214265   3.490   2.549   2.280
 4529SOL     OW14266   2.210   3.386   3.180
 4529SOL    HW114267   2.196   3.344   3.095
 4529SOL    HW214268   2.305   3.399   3.185
 4530SOL     OW14269   2.278   2.608   3.462
 4530SOL    HW114270   2.340   2.657   3.407
 4530SOL    HW214271   2.319   2.522   3.473
 4531SOL     OW14272   3.460   2.640   3.542
 4531SOL    HW114273   3.373   2.680   3.534
 4531SOL    HW214274   3.512   2.681   3.473
 4532SOL     OW14275   2.858   1.980   3.617
 4532SOL    HW114276   2.911   2.053   3.584
 4532SOL    HW214277   2.907   1.902   3.592
 4533SOL     OW14278   2.360   1.906   3.608
 4533SOL    HW114279   2.323   1.848   3.541
 4533SOL    HW214280   2.294   1.973   3.621
 4534SOL     OW14281   2.440   2.731   2.888
 4534SOL    HW114282   2.478   2.819   2.884
 4534SOL    HW214283   2.389   2.732   2.969
 4535SOL     OW14284   3.222   2.721   2.895
 4535SOL    HW114285   3.141   2.714   2.846
 4535SOL    HW214286   3.260   2.633   2.893
 4536SOL     OW14287   3.069   2.391   2.131
 4536SOL    HW114288   3.077   2.313   2.185
 4536SOL    HW214289   3.027   2.455   2.189
 4537SOL     OW14290   1.910   3.172   3.139
 4537SOL    HW114291   1.942   3.120   3.212
 4537SOL    HW214292   1.916   3.263   3.170
 4538SOL     OW14293   2.615   2.515   2.956
 4538SOL    HW114294   2.652   2.468   2.882
 4538SOL    HW214295   2.571   2.591   2.917
 4539SOL     OW14296   3.595   2.821   3.713
 4539SOL    HW114297   3.548   2.765   3.652
 4539SOL    HW214298   3.535   2.832   3.786
 4540SOL     OW14299   3.476   2.234   2.231
 4540SOL    HW114300   3.503   2.171   2.297
 4540SOL    HW214301   3.452   2.313   2.281
 4541SOL     OW14302   2.890   2.623   2.824
 4541SOL    HW114303   2.889   2.641   2.918
 4541SOL    HW214304   2.860   2.532   2.816
 4542SOL     OW14305   2.844   3.428   3.576
 4542SOL    HW114306   2.829   3.473   3.493
 4542SOL    HW214307   2.887   3.346   3.552
 4543SOL     OW14308   3.718   3.371   3.468
 4543SOL    HW114309   3.734   3.397   3.377
 4543SOL    HW214310   3.799   3.392   3.514
 4544SOL     OW14311   2.217   2.781   3.667
 4544SOL    HW114312   2.299   2.795   3.715
 4544SOL    HW214313   2.240   2.719   3.598
 4545SOL     OW14314   3.393   2.136   1.989
 4545SOL    HW114315   3.329   2.070   2.016
 4545SOL    HW214316   3.425   2.172   2.072
 4546SOL     OW14317   3.156   2.689   1.895
 4546SOL    HW114318   3.199   2.603   1.898
 4546SOL    HW214319   3.187   2.728   1.813
 4547SOL     OW14320   2.926   3.197   2.714
 4547SOL    HW114321   2.930   3.124   2.653
 4547SOL    HW214322   2.990   3.260   2.680
 4548SOL     OW14323   2.172   2.679   2.807
 4548SOL    HW114324   2.266   2.698   2.804
 4548SOL    HW214325   2.166   2.596   2.853
 4549SOL     OW14326   2.996   2.242   3.540
 4549SOL    HW114327   2.951   2.296   3.606
 4549SOL    HW214328   3.085   2.277   3.537
 4550SOL     OW14329   3.023   2.067   3.332
 4550SOL    HW114330   3.014   2.130   3.403
 4550SOL    HW214331   3.061   2.118   3.260
 4551SOL     OW14332   1.867   3.184   2.057
 4551SOL    HW114333   1.780   3.198   2.019
 4551SOL    HW214334   1.865   3.094   2.090
 4552SOL     OW14335   1.952   3.651   2.798
 4552SOL    HW114336   1.922   3.571   2.756
 4552SOL    HW214337   2.042   3.662   2.767
 4553SOL     OW14338   2.361   3.435   2.768
 4553SOL    HW114339   2.430   3.497   2.792
 4553SOL    HW214340   2.405   3.370   2.714
 4554SOL     OW14341   2.849   2.662   3.091
 4554SOL    HW114342   2.897   2.631   3.168
 4554SOL    HW214343   2.766   2.614   3.094
 4555SOL     OW14344   1.913   2.412   2.974
 4555SOL    HW114345   1.952   2.331   2.942
 4555SOL    HW214346   1.922   2.407   3.069
 4556SOL     OW14347   3.237   2.804   3.521
 4556SOL    HW114348   3.259   2.897   3.521
 4556SOL    HW214349   3.236   2.779   3.429
 4557SOL     OW14350   2.674   2.429   2.219
 4557SOL    HW114351   2.681   2.357   2.157
 4557SOL    HW214352   2.602   2.482   2.187
 4558SOL     OW14353   3.505   2.463   3.052
 4558SOL    HW114354   3.494   2.403   3.125
 4558SOL    HW214355   3.592   2.443   3.016
 4559SOL     OW14356   2.110   3.415   3.593
 4559SOL    HW114357   2.084   3.478   3.659
 4559SOL    HW214358   2.107   3.330   3.637
 4560SOL     OW14359   2.792   3.541   3.328
 4560SOL    HW114360   2.765   3.510   3.242
 4560SOL    HW214361   2.791   3.636   3.321
 4561SOL     OW14362   2.011   3.002   3.334
 4561SOL    HW114363   2.014   2.948   3.413
 4561SOL    HW214364   2.027   2.940   3.263
 4562SOL     OW14365   3.191   2.911   3.087
 4562SOL    HW114366   3.215   2.848   3.019
 4562SOL    HW214367   3.118   2.960   3.049
 4563SOL     OW14368   3.171   2.719   2.169
 4563SOL    HW114369   3.094   2.688   2.218
 4563SOL    HW214370   3.148   2.705   2.077
 4564SOL     OW14371   3.630   3.609   3.011
 4564SOL    HW114372   3.690   3.635   2.941
 4564SOL    HW214373   3.607   3.518   2.990
 4565SOL     OW14374   3.104   3.595   2.979
 4565SOL    HW114375   3.185   3.613   2.932
 4565SOL    HW214376   3.107   3.501   2.996
 4566SOL     OW14377   1.945   3.128   2.876
 4566SOL    HW114378   1.932   3.139   2.970
 4566SOL    HW214379   1.870   3.075   2.847
 4567SOL     OW14380   2.540   3.526   3.586
 4567SOL    HW114381   2.488   3.606   3.584
 4567SOL    HW214382   2.602   3.536   3.515
 4568SOL     OW14383   3.580   2.004   2.374
 4568SOL    HW114384   3.654   1.990   2.315
 4568SOL    HW214385   3.565   1.919   2.414
 4569SOL     OW14386   3.252   3.430   2.345
 4569SOL    HW114387   3.313   3.461   2.277
 4569SOL    HW214388   3.205   3.508   2.372
 4570SOL     OW14389   1.997   3.658   3.705
 4570SOL    HW114390   1.946   3.594   3.754
 4570SOL    HW214391   2.045   3.707   3.772
 4571SOL     OW14392   3.139   2.787   2.534
 4571SOL    HW114393   3.212   2.725   2.538
 4571SOL    HW214394   3.173   2.860   2.481
 4572SOL     OW14395   2.681   3.134   3.293
 4572SOL    HW114396   2.654   3.173   3.377
 4572SOL    HW214397   2.610   3.157   3.233
 4573SOL     OW14398   2.534   3.479   2.017
 4573SOL    HW114399   2.543   3.490   1.923
 4573SOL    HW214400   2.481   3.400   2.028
 4574SOL     OW14401   3.494   3.588   3.254
 4574SOL    HW114402   3.542   3.596   3.171
 4574SOL    HW214403   3.481   3.679   3.283
 4575SOL     OW14404   3.702   2.035   2.830
 4575SOL    HW114405   3.731   1.949   2.800
 4575SOL    HW214406   3.615   2.046   2.790
 4576SOL     OW14407   3.068   3.470   1.893
 4576SOL    HW114408   3.060   3.379   1.920
 4576SOL    HW214409   3.003   3.480   1.823
 4577SOL     OW14410   2.685   2.868   3.234
 4577SOL    HW114411   2.731   2.861   3.151
 4577SOL    HW214412   2.688   2.962   3.256
 4578SOL     OW14413   2.777   2.772   2.151
 4578SOL    HW114414   2.839   2.804   2.086
 4578SOL    HW214415   2.824   2.702   2.196
 4579SOL     OW14416   3.357   3.486   1.904
 4579SOL    HW114417   3.262   3.483   1.893
 4579SOL    HW214418   3.392   3.492   1.815
 4580SOL     OW14419   2.232   3.162   3.353
 4580SOL    HW114420   2.218   3.241   3.300
 4580SOL    HW214421   2.155   3.108   3.338
 4581SOL     OW14422   3.474   3.145   3.143
 4581SOL    HW114423   3.533   3.138   3.218
 4581SOL    HW214424   3.413   3.215   3.167
 4582SOL     OW14425   2.910   2.967   2.567
 4582SOL    HW114426   2.840   2.915   2.607
 4582SOL    HW214427   2.971   2.902   2.533
 4583SOL     OW14428   2.883   2.101   2.828
 4583SOL    HW114429   2.876   2.053   2.745
 4583SOL    HW214430   2.876   2.033   2.896
 4584SOL     OW14431   2.463   3.351   2.345
 4584SOL    HW114432   2.504   3.300   2.274
 4584SOL    HW214433   2.397   3.404   2.301
 4585SOL     OW14434   3.581   2.254   3.242
 4585SOL    HW114435   3.653   2.317   3.240
 4585SOL    HW214436   3.611   2.182   3.186
 4586SOL     OW14437   2.120   3.208   2.149
 4586SOL    HW114438   2.027   3.207   2.127
 4586SOL    HW214439   2.123   3.245   2.237
 4587SOL     OW14440   1.973   2.880   3.581
 4587SOL    HW114441   1.897   2.857   3.634
 4587SOL    HW214442   2.048   2.844   3.629
 4588SOL     OW14443   2.541   2.053   3.353
 4588SOL    HW114444   2.628   2.030   3.319
 4588SOL    HW214445   2.558   2.088   3.441
 4589SOL     OW14446   1.909   2.196   1.904
 4589SOL    HW114447   1.829   2.164   1.862
 4589SOL    HW214448   1.935   2.272   1.852
 4590SOL     OW14449   3.294   2.721   3.264
 4590SOL    HW114450   3.245   2.780   3.207
 4590SOL    HW214451   3.384   2.723   3.231
 4591SOL     OW14452   1.933   2.018   2.172
 4591SOL    HW114453   1.907   2.095   2.121
 4591SOL    HW214454   2.028   2.022   2.175
 4592SOL     OW14455   3.042   3.204   1.979
 4592SOL    HW114456   2.951   3.174   1.982
 4592SOL    HW214457   3.071   3.203   2.070
 4593SOL     OW14458   2.481   2.693   3.292
 4593SOL    HW114459   2.535   2.771   3.279
 4593SOL    HW214460   2.544   2.622   3.298
 4594SOL     OW14461   3.347   3.636   2.837
 4594SOL    HW114462   3.373   3.694   2.765
 4594SOL    HW214463   3.428   3.621   2.886
 4595SOL     OW14464   2.584   2.429   3.567
 4595SOL    HW114465   2.620   2.493   3.628
 4595SOL    HW214466   2.619   2.345   3.598
 4596SOL     OW14467   3.331   3.065   3.495
 4596SOL    HW114468   3.319   3.078   3.589
 4596SOL    HW214469   3.424   3.077   3.480
 4597SOL     OW14470   2.244   3.602   3.425
 4597SOL    HW114471   2.158   3.641   3.413
 4597SOL    HW214472   2.226   3.517   3.467
 4598SOL     OW14473   3.533   2.744   3.118
 4598SOL    HW114474   3.525   2.658   3.075
 4598SOL    HW214475   3.525   2.807   3.046
 4599SOL     OW14476   3.081   2.182   2.319
 4599SOL    HW114477   3.144   2.111   2.311
 4599SOL    HW214478   3.109   2.230   2.397
 4600SOL     OW14479   2.443   2.609   2.517
 4600SOL    HW114480   2.492   2.691   2.508
 4600SOL    HW214481   2.367   2.620   2.461
 4601SOL     OW14482   3.627   2.221   3.511
 4601SOL    HW114483   3.609   2.235   3.418
 4601SOL    HW214484   3.556   2.165   3.541
 4602SOL     OW14485   3.605   2.796   3.375
 4602SOL    HW114486   3.608   2.890   3.387
 4602SOL    HW214487   3.591   2.784   3.281
 4603SOL     OW14488   2.724   3.230   1.892
 4603SOL    HW114489   2.685   3.257   1.975
 4603SOL    HW214490   2.744   3.313   1.848
 4604SOL     OW14491   2.521   3.656   2.810
 4604SOL    HW114492   2.500   3.746   2.785
 4604SOL    HW214493   2.616   3.651   2.802
 4605SOL     OW14494   2.727   2.826   2.718
 4605SOL    HW114495   2.778   2.755   2.758
 4605SOL    HW214496   2.697   2.878   2.793
 4606SOL     OW14497   2.941   2.849   1.950
 4606SOL    HW114498   2.920   2.900   1.872
 4606SOL    HW214499   3.017   2.797   1.925
 4607SOL     OW14500   3.719   3.419   2.707
 4607SOL    HW114501   3.642   3.407   2.651
 4607SOL    HW214502   3.711   3.350   2.773
 4608SOL     OW14503   2.086   3.167   3.718
 4608SOL    HW114504   2.019   3.105   3.689
 4608SOL    HW214505   2.069   3.179   3.811
 4609SOL     OW14506   1.945   3.099   2.526
 4609SOL    HW114507   1.945   3.048   2.607
 4609SOL    HW214508   2.013   3.058   2.472
 4610SOL     OW14509   2.542   3.262   3.488
 4610SOL    HW114510   2.462   3.219   3.518
 4610SOL    HW214511   2.536   3.351   3.524
 4611SOL     OW14512   3.676   2.048   3.100
 4611SOL    HW114513   3.685   1.954   3.116
 4611SOL    HW214514   3.685   2.057   3.006
 4612SOL     OW14515   3.563   3.353   2.963
 4612SOL    HW114516   3.482   3.327   2.918
 4612SOL    HW214517   3.578   3.284   3.027
 4613SOL     OW14518   2.687   3.440   2.542
 4613SOL    HW114519   2.681   3.485   2.457
 4613SOL    HW214520   2.608   3.385   2.545
 4614SOL     OW14521   3.295   2.085   2.980
 4614SOL    HW114522   3.322   2.007   3.028
 4614SOL    HW214523   3.242   2.135   3.043
 4615SOL     OW14524   2.870   1.882   3.008
 4615SOL    HW114525   2.815   1.814   2.969
 4615SOL    HW214526   2.958   1.844   3.009
 4616SOL     OW14527   2.633   3.194   2.173
 4616SOL    HW114528   2.599   3.105   2.179
 4616SOL    HW214529   2.716   3.192   2.221
 4617SOL     OW14530   2.482   3.421   3.146
 4617SOL    HW114531   2.485   3.502   3.197
 4617SOL    HW214532   2.569   3.413   3.108
 4618SOL     OW14533   3.214   1.916   2.026
 4618SOL    HW114534   3.239   1.856   1.955
 4618SOL    HW214535   3.128   1.884   2.053
 4619SOL     OW14536   3.160   2.322   2.545
 4619SOL    HW114537   3.104   2.400   2.553
 4619SOL    HW214538   3.156   2.281   2.632
 4620SOL     OW14539   3.450   2.068   2.739
 4620SOL    HW114540   3.385   2.085   2.807
 4620SOL    HW214541   3.449   2.146   2.684
 4621SOL     OW14542   1.905   2.935   2.168
 4621SOL    HW114543   1.998   2.925   2.151
 4621SOL    HW214544   1.875   2.847   2.190
 4622SOL     OW14545   2.743   3.511   2.207
 4622SOL    HW114546   2.672   3.494   2.145
 4622SOL    HW214547   2.713   3.588   2.256
 4623SOL     OW14548   2.068   2.521   3.841
 4623SOL    HW114549   1.983   2.494   3.876
 4623SOL    HW214550   2.085   2.459   3.770
 4624SOL     OW14551   1.871   2.241   4.356
 4624SOL    HW114552   1.788   2.272   4.392
 4624SOL    HW214553   1.850   2.157   4.315
 4625SOL     OW14554   2.439   3.169   4.874
 4625SOL    HW114555   2.344   3.176   4.862
 4625SOL    HW214556   2.459   3.234   4.942
 4626SOL     OW14557   3.419   3.373   4.429
 4626SOL    HW114558   3.375   3.357   4.513
 4626SOL    HW214559   3.348   3.379   4.365
 4627SOL     OW14560   2.993   2.556   4.430
 4627SOL    HW114561   3.040   2.639   4.421
 4627SOL    HW214562   2.937   2.568   4.506
 4628SOL     OW14563   3.626   2.469   3.955
 4628SOL    HW114564   3.607   2.460   3.861
 4628SOL    HW214565   3.592   2.389   3.994
 4629SOL     OW14566   2.618   3.033   4.715
 4629SOL    HW114567   2.556   3.046   4.787
 4629SOL    HW214568   2.651   3.121   4.696
 4630SOL     OW14569   2.690   2.688   5.499
 4630SOL    HW114570   2.698   2.721   5.588
 4630SOL    HW214571   2.758   2.734   5.449
 4631SOL     OW14572   2.552   2.876   4.389
 4631SOL    HW114573   2.594   2.853   4.472
 4631SOL    HW214574   2.469   2.916   4.414
 4632SOL     OW14575   2.577   3.021   5.519
 4632SOL    HW114576   2.618   3.101   5.551
 4632SOL    HW214577   2.487   3.047   5.499
 4633SOL     OW14578   2.188   3.291   4.787
 4633SOL    HW114579   2.120   3.274   4.722
 4633SOL    HW214580   2.253   3.343   4.739
 4634SOL     OW14581   3.324   3.361   5.072
 4634SOL    HW114582   3.367   3.445   5.087
 4634SOL    HW214583   3.270   3.347   5.150
 4635SOL     OW14584   3.478   2.312   4.460
 4635SOL    HW114585   3.401   2.338   4.409
 4635SOL    HW214586   3.496   2.388   4.516
 4636SOL     OW14587   2.082   3.574   4.199
 4636SOL    HW114588   2.105   3.652   4.251
 4636SOL    HW214589   2.151   3.568   4.133
 4637SOL     OW14590   3.005   3.210   5.417
 4637SOL    HW114591   3.046   3.204   5.503
 4637SOL    HW214592   2.946   3.134   5.413
 4638SOL     OW14593   2.094   3.302   4.260
 4638SOL    HW114594   2.076   3.396   4.263
 4638SOL    HW214595   2.030   3.263   4.319
 4639SOL     OW14596   2.479   3.654   5.157
 4639SOL    HW114597   2.396   3.636   5.201
 4639SOL    HW214598   2.500   3.744   5.182
 4640SOL     OW14599   2.451   2.839   3.854
 4640SOL    HW114600   2.493   2.894   3.787
 4640SOL    HW214601   2.492   2.867   3.936
 4641SOL     OW14602   3.458   1.981   5.196
 4641SOL    HW114603   3.453   2.057   5.138
 4641SOL    HW214604   3.448   2.017   5.284
 4642SOL     OW14605   1.982   2.504   4.286
 4642SOL    HW114606   1.947   2.417   4.306
 4642SOL    HW214607   1.964   2.556   4.365
 4643SOL     OW14608   3.703   3.623   4.061
 4643SOL    HW114609   3.763   3.594   4.130
 4643SOL    HW214610   3.730   3.713   4.043
 4644SOL     OW14611   1.892   3.458   3.848
 4644SOL    HW114612   1.874   3.366   3.868
 4644SOL    HW214613   1.867   3.505   3.928
 4645SOL     OW14614   3.550   2.779   4.361
 4645SOL    HW114615   3.637   2.742   4.346
 4645SOL    HW214616   3.532   2.830   4.282
 4646SOL     OW14617   3.507   2.970   4.154
 4646SOL    HW114618   3.592   2.978   4.111
 4646SOL    HW214619   3.512   3.030   4.228
 4647SOL     OW14620   2.472   3.244   4.457
 4647SOL    HW114621   2.430   3.158   4.460
 4647SOL    HW214622   2.457   3.275   4.368
 4648SOL     OW14623   3.157   3.112   5.139
 4648SOL    HW114624   3.183   3.036   5.087
 4648SOL    HW214625   3.202   3.099   5.223
 4649SOL     OW14626   2.675   1.861   4.227
 4649SOL    HW114627   2.715   1.946   4.213
 4649SOL    HW214628   2.581   1.880   4.240
 4650SOL     OW14629   3.394   2.854   3.920
 4650SOL    HW114630   3.324   2.795   3.950
 4650SOL    HW214631   3.433   2.887   4.001
 4651SOL     OW14632   3.047   3.666   5.345
 4651SOL    HW114633   3.063   3.722   5.269
 4651SOL    HW214634   3.063   3.577   5.313
 4652SOL     OW14635   3.325   3.283   4.679
 4652SOL    HW114636   3.257   3.296   4.745
 4652SOL    HW214637   3.314   3.192   4.651
 4653SOL     OW14638   3.523   3.595   4.302
 4653SOL    HW114639   3.500   3.567   4.213
 4653SOL    HW214640   3.497   3.521   4.358
 4654SOL     OW14641   2.460   2.585   3.991
 4654SOL    HW114642   2.465   2.659   3.930
 4654SOL    HW214643   2.385   2.605   4.047
 4655SOL     OW14644   3.167   2.150   4.653
 4655SOL    HW114645   3.073   2.138   4.637
 4655SOL    HW214646   3.179   2.125   4.744
 4656SOL     OW14647   3.444   3.530   4.033
 4656SOL    HW114648   3.532   3.565   4.027
 4656SOL    HW214649   3.419   3.513   3.942
 4657SOL     OW14650   3.265   2.338   5.400
 4657SOL    HW114651   3.253   2.374   5.488
 4657SOL    HW214652   3.318   2.259   5.414
 4658SOL     OW14653   2.873   2.783   5.321
 4658SOL    HW114654   2.918   2.698   5.319
 4658SOL    HW214655   2.817   2.783   5.243
 4659SOL     OW14656   2.910   2.560   4.152
 4659SOL    HW114657   2.927   2.549   4.245
 4659SOL    HW214658   2.829   2.513   4.135
 4660SOL     OW14659   1.947   2.682   4.496
 4660SOL    HW114660   2.025   2.672   4.551
 4660SOL    HW214661   1.898   2.754   4.536
 4661SOL     OW14662   1.990   3.701   5.300
 4661SOL    HW114663   1.988   3.682   5.394
 4661SOL    HW214664   1.898   3.705   5.275
 4662SOL     OW14665   2.749   2.209   3.919
 4662SOL    HW114666   2.793   2.268   3.858
 4662SOL    HW214667   2.763   2.122   3.882
 4663SOL     OW14668   3.574   2.440   5.552
 4663SOL    HW114669   3.535   2.516   5.507
 4663SOL    HW214670   3.594   2.378   5.482
 4664SOL     OW14671   3.234   3.002   4.265
 4664SOL    HW114672   3.315   2.989   4.215
 4664SOL    HW214673   3.185   3.067   4.215
 4665SOL     OW14674   2.870   3.307   4.198
 4665SOL    HW114675   2.829   3.378   4.148
 4665SOL    HW214676   2.858   3.332   4.290
 4666SOL     OW14677   2.216   3.668   4.583
 4666SOL    HW114678   2.262   3.584   4.591
 4666SOL    HW214679   2.284   3.734   4.598
 4667SOL     OW14680   3.659   2.923   4.591
 4667SOL    HW114681   3.602   2.906   4.516
 4667SOL    HW214682   3.600   2.927   4.666
 4668SOL     OW14683   3.093   3.404   5.240
 4668SOL    HW114684   3.079   3.329   5.298
 4668SOL    HW214685   3.036   3.388   5.165
 4669SOL     OW14686   2.182   2.816   3.972
 4669SOL    HW114687   2.263   2.835   3.925
 4669SOL    HW214688   2.148   2.736   3.932
 4670SOL     OW14689   3.335   2.604   4.455
 4670SOL    HW114690   3.329   2.555   4.537
 4670SOL    HW214691   3.414   2.656   4.463
 4671SOL     OW14692   2.326   3.141   5.460
 4671SOL    HW114693   2.297   3.141   5.369
 4671SOL    HW214694   2.245   3.134   5.511
 4672SOL     OW14695   2.982   3.639   3.956
 4672SOL    HW114696   2.911   3.595   4.003
 4672SOL    HW214697   3.004   3.580   3.884
 4673SOL     OW14698   1.975   2.128   5.259
 4673SOL    HW114699   1.986   2.199   5.195
 4673SOL    HW214700   2.063   2.094   5.274
 4674SOL     OW14701   3.491   3.241   3.811
 4674SOL    HW114702   3.451   3.326   3.796
 4674SOL    HW214703   3.422   3.177   3.792
 4675SOL     OW14704   2.329   3.600   4.046
 4675SOL    HW114705   2.369   3.658   4.111
 4675SOL    HW214706   2.402   3.574   3.990
 4676SOL     OW14707   3.263   1.973   4.153
 4676SOL    HW114708   3.251   1.945   4.062
 4676SOL    HW214709   3.358   1.975   4.165
 4677SOL     OW14710   2.118   3.655   4.956
 4677SOL    HW114711   2.176   3.595   5.003
 4677SOL    HW214712   2.110   3.617   4.869
 4678SOL     OW14713   2.800   3.563   4.624
 4678SOL    HW114714   2.876   3.509   4.647
 4678SOL    HW214715   2.754   3.512   4.557
 4679SOL     OW14716   2.240   2.567   4.188
 4679SOL    HW114717   2.266   2.479   4.160
 4679SOL    HW214718   2.149   2.558   4.216
 4680SOL     OW14719   3.401   2.087   5.449
 4680SOL    HW114720   3.410   2.109   5.542
 4680SOL    HW214721   3.331   2.022   5.447
 4681SOL     OW14722   2.488   1.995   3.829
 4681SOL    HW114723   2.558   1.936   3.856
 4681SOL    HW214724   2.449   1.952   3.752
 4682SOL     OW14725   2.736   3.387   4.915
 4682SOL    HW114726   2.717   3.358   4.825
 4682SOL    HW214727   2.792   3.318   4.950
 4683SOL     OW14728   3.225   2.467   5.165
 4683SOL    HW114729   3.239   2.430   5.252
 4683SOL    HW214730   3.250   2.559   5.174
 4684SOL     OW14731   2.681   3.284   4.654
 4684SOL    HW114732   2.763   3.263   4.611
 4684SOL    HW214733   2.614   3.273   4.586
 4685SOL     OW14734   2.409   1.930   4.222
 4685SOL    HW114735   2.335   1.924   4.282
 4685SOL    HW214736   2.403   2.019   4.186
 4686SOL     OW14737   3.291   3.060   3.765
 4686SOL    HW114738   3.322   2.984   3.815
 4686SOL    HW214739   3.205   3.079   3.802
 4687SOL     OW14740   2.159   1.904   3.903
 4687SOL    HW114741   2.224   1.967   3.872
 4687SOL    HW214742   2.210   1.836   3.946
 4688SOL     OW14743   2.796   2.107   4.186
 4688SOL    HW114744   2.772   2.150   4.105
 4688SOL    HW214745   2.891   2.116   4.191
 4689SOL     OW14746   3.087   3.430   4.517
 4689SOL    HW114747   3.104   3.499   4.452
 4689SOL    HW214748   3.154   3.443   4.584
 4690SOL     OW14749   3.132   3.657   4.329
 4690SOL    HW114750   3.177   3.718   4.271
 4690SOL    HW214751   3.069   3.711   4.376
 4691SOL     OW14752   2.888   2.408   3.743
 4691SOL    HW114753   2.847   2.492   3.724
 4691SOL    HW214754   2.952   2.427   3.811
 4692SOL     OW14755   1.992   2.386   5.094
 4692SOL    HW114756   2.082   2.420   5.091
 4692SOL    HW214757   1.941   2.458   5.131
 4693SOL     OW14758   2.727   2.324   4.362
 4693SOL    HW114759   2.686   2.376   4.293
 4693SOL    HW214760   2.751   2.242   4.319
 4694SOL     OW14761   2.881   1.896   4.456
 4694SOL    HW114762   2.813   1.892   4.389
 4694SOL    HW214763   2.859   1.824   4.516
 4695SOL     OW14764   3.296   3.027   4.582
 4695SOL    HW114765   3.233   2.955   4.577
 4695SOL    HW214766   3.323   3.042   4.492
 4696SOL     OW14767   3.333   2.464   4.702
 4696SOL    HW114768   3.286   2.381   4.712
 4696SOL    HW214769   3.394   2.466   4.776
 4697SOL     OW14770   3.709   2.681   4.105
 4697SOL    HW114771   3.765   2.629   4.163
 4697SOL    HW214772   3.680   2.619   4.038
 4698SOL     OW14773   2.354   3.276   3.885
 4698SOL    HW114774   2.279   3.247   3.937
 4698SOL    HW214775   2.334   3.249   3.795
 4699SOL     OW14776   3.529   3.127   4.373
 4699SOL    HW114777   3.624   3.131   4.386
 4699SOL    HW214778   3.498   3.215   4.394
 4700SOL     OW14779   3.256   2.434   3.796
 4700SOL    HW114780   3.196   2.415   3.868
 4700SOL    HW214781   3.340   2.400   3.825
 4701SOL     OW14782   3.615   3.098   5.299
 4701SOL    HW114783   3.703   3.058   5.298
 4701SOL    HW214784   3.630   3.187   5.330
 4702SOL     OW14785   3.468   3.488   5.376
 4702SOL    HW114786   3.465   3.521   5.286
 4702SOL    HW214787   3.551   3.441   5.381
 4703SOL     OW14788   2.986   3.076   4.837
 4703SOL    HW114789   2.907   3.071   4.890
 4703SOL    HW214790   2.956   3.101   4.750
 4704SOL     OW14791   3.493   2.962   4.802
 4704SOL    HW114792   3.491   3.024   4.875
 4704SOL    HW214793   3.412   2.978   4.755
 4705SOL     OW14794   2.847   3.002   5.464
 4705SOL    HW114795   2.752   3.001   5.480
 4705SOL    HW214796   2.864   2.923   5.412
 4706SOL     OW14797   2.571   2.923   4.096
 4706SOL    HW114798   2.559   2.908   4.190
 4706SOL    HW214799   2.646   2.869   4.073
 4707SOL     OW14800   1.935   3.451   5.068
 4707SOL    HW114801   1.905   3.528   5.020
 4707SOL    HW214802   2.030   3.460   5.072
 4708SOL     OW14803   2.219   2.965   4.226
 4708SOL    HW114804   2.222   3.041   4.168
 4708SOL    HW214805   2.216   2.890   4.167
 4709SOL     OW14806   3.110   3.210   4.114
 4709SOL    HW114807   3.165   3.282   4.144
 4709SOL    HW214808   3.022   3.231   4.147
 4710SOL     OW14809   3.133   3.314   4.875
 4710SOL    HW114810   3.190   3.314   4.952
 4710SOL    HW214811   3.089   3.229   4.877
 4711SOL     OW14812   3.444   2.488   4.201
 4711SOL    HW114813   3.401   2.546   4.263
 4711SOL    HW214814   3.491   2.547   4.142
 4712SOL     OW14815   2.213   3.380   5.042
 4712SOL    HW114816   2.200   3.343   4.955
 4712SOL    HW214817   2.307   3.396   5.047
 4713SOL     OW14818   3.461   2.642   5.406
 4713SOL    HW114819   3.373   2.679   5.399
 4713SOL    HW214820   3.510   2.683   5.335
 4714SOL     OW14821   3.221   2.722   4.757
 4714SOL    HW114822   3.147   2.707   4.699
 4714SOL    HW214823   3.262   2.636   4.766
 4715SOL     OW14824   3.069   2.391   3.993
 4715SOL    HW114825   3.077   2.312   4.046
 4715SOL    HW214826   3.027   2.455   4.051
 4716SOL     OW14827   1.859   3.194   5.079
 4716SOL    HW114828   1.917   3.133   5.033
 4716SOL    HW214829   1.899   3.280   5.064
 4717SOL     OW14830   3.597   2.821   5.574
 4717SOL    HW114831   3.549   2.764   5.514
 4717SOL    HW214832   3.536   2.837   5.646
 4718SOL     OW14833   2.175   1.921   4.366
 4718SOL    HW114834   2.148   2.008   4.395
 4718SOL    HW214835   2.163   1.865   4.442
 4719SOL     OW14836   3.477   2.235   4.093
 4719SOL    HW114837   3.502   2.170   4.159
 4719SOL    HW214838   3.453   2.313   4.143
 4720SOL     OW14839   2.843   3.429   5.438
 4720SOL    HW114840   2.829   3.472   5.354
 4720SOL    HW214841   2.886   3.346   5.416
 4721SOL     OW14842   3.718   3.372   5.330
 4721SOL    HW114843   3.734   3.397   5.239
 4721SOL    HW214844   3.799   3.392   5.376
 4722SOL     OW14845   3.392   2.136   3.851
 4722SOL    HW114846   3.329   2.070   3.877
 4722SOL    HW214847   3.425   2.172   3.934
 4723SOL     OW14848   3.157   2.689   3.757
 4723SOL    HW114849   3.199   2.604   3.761
 4723SOL    HW214850   3.187   2.728   3.675
 4724SOL     OW14851   2.928   3.198   4.576
 4724SOL    HW114852   2.932   3.126   4.513
 4724SOL    HW214853   2.990   3.263   4.544
 4725SOL     OW14854   1.867   3.185   3.920
 4725SOL    HW114855   1.780   3.198   3.882
 4725SOL    HW214856   1.865   3.094   3.952
 4726SOL     OW14857   1.951   3.649   4.659
 4726SOL    HW114858   1.923   3.569   4.616
 4726SOL    HW214859   2.041   3.663   4.629
 4727SOL     OW14860   2.361   3.434   4.633
 4727SOL    HW114861   2.429   3.498   4.657
 4727SOL    HW214862   2.407   3.369   4.580
 4728SOL     OW14863   1.901   2.418   4.835
 4728SOL    HW114864   1.974   2.372   4.793
 4728SOL    HW214865   1.911   2.400   4.928
 4729SOL     OW14866   3.234   2.803   5.385
 4729SOL    HW114867   3.253   2.897   5.386
 4729SOL    HW214868   3.238   2.779   5.292
 4730SOL     OW14869   2.677   2.431   4.079
 4730SOL    HW114870   2.680   2.356   4.019
 4730SOL    HW214871   2.601   2.482   4.050
 4731SOL     OW14872   3.504   2.465   4.911
 4731SOL    HW114873   3.489   2.411   4.988
 4731SOL    HW214874   3.591   2.440   4.880
 4732SOL     OW14875   2.111   3.421   5.452
 4732SOL    HW114876   2.084   3.484   5.519
 4732SOL    HW214877   2.104   3.336   5.495
 4733SOL     OW14878   2.560   2.315   4.949
 4733SOL    HW114879   2.501   2.246   4.920
 4733SOL    HW214880   2.550   2.385   4.884
 4734SOL     OW14881   2.798   3.540   5.186
 4734SOL    HW114882   2.761   3.513   5.102
 4734SOL    HW214883   2.794   3.636   5.184
 4735SOL     OW14884   3.190   2.911   4.949
 4735SOL    HW114885   3.213   2.849   4.879
 4735SOL    HW214886   3.122   2.966   4.911
 4736SOL     OW14887   3.169   2.719   4.032
 4736SOL    HW114888   3.092   2.687   4.079
 4736SOL    HW214889   3.149   2.705   3.939
 4737SOL     OW14890   3.630   3.609   4.872
 4737SOL    HW114891   3.690   3.635   4.802
 4737SOL    HW214892   3.607   3.518   4.852
 4738SOL     OW14893   3.103   3.594   4.840
 4738SOL    HW114894   3.185   3.612   4.794
 4738SOL    HW214895   3.107   3.500   4.860
 4739SOL     OW14896   2.541   3.533   5.457
 4739SOL    HW114897   2.490   3.613   5.448
 4739SOL    HW214898   2.600   3.533   5.382
 4740SOL     OW14899   3.581   2.004   4.237
 4740SOL    HW114900   3.654   1.991   4.177
 4740SOL    HW214901   3.565   1.918   4.276
 4741SOL     OW14902   3.251   3.430   4.206
 4741SOL    HW114903   3.313   3.461   4.139
 4741SOL    HW214904   3.205   3.508   4.234
 4742SOL     OW14905   1.996   3.657   5.569
 4742SOL    HW114906   1.947   3.592   5.619
 4742SOL    HW214907   2.044   3.706   5.635
 4743SOL     OW14908   3.137   2.787   4.399
 4743SOL    HW114909   3.209   2.724   4.403
 4743SOL    HW214910   3.170   2.859   4.345
 4744SOL     OW14911   2.535   3.478   3.879
 4744SOL    HW114912   2.543   3.490   3.785
 4744SOL    HW214913   2.480   3.400   3.889
 4745SOL     OW14914   3.495   3.588   5.116
 4745SOL    HW114915   3.542   3.596   5.033
 4745SOL    HW214916   3.481   3.679   5.145
 4746SOL     OW14917   3.701   2.036   4.692
 4746SOL    HW114918   3.729   1.949   4.662
 4746SOL    HW214919   3.613   2.047   4.657
 4747SOL     OW14920   3.067   3.470   3.755
 4747SOL    HW114921   3.060   3.378   3.782
 4747SOL    HW214922   3.003   3.480   3.685
 4748SOL     OW14923   2.779   2.775   4.017
 4748SOL    HW114924   2.840   2.805   3.948
 4748SOL    HW214925   2.824   2.700   4.057
 4749SOL     OW14926   3.357   3.486   3.766
 4749SOL    HW114927   3.262   3.483   3.754
 4749SOL    HW214928   3.392   3.492   3.677
 4750SOL     OW14929   2.203   3.160   5.223
 4750SOL    HW114930   2.214   3.240   5.172
 4750SOL    HW214931   2.154   3.101   5.166
 4751SOL     OW14932   3.475   3.146   5.004
 4751SOL    HW114933   3.531   3.136   5.081
 4751SOL    HW214934   3.413   3.214   5.029
 4752SOL     OW14935   2.914   2.973   4.424
 4752SOL    HW114936   2.833   2.924   4.437
 4752SOL    HW214937   2.976   2.909   4.388
 4753SOL     OW14938   2.888   2.068   4.661
 4753SOL    HW114939   2.878   2.017   4.580
 4753SOL    HW214940   2.868   2.006   4.731
 4754SOL     OW14941   2.462   3.349   4.207
 4754SOL    HW114942   2.504   3.300   4.137
 4754SOL    HW214943   2.398   3.405   4.163
 4755SOL     OW14944   3.582   2.253   5.103
 4755SOL    HW114945   3.653   2.317   5.102
 4755SOL    HW214946   3.613   2.181   5.048
 4756SOL     OW14947   2.120   3.210   4.011
 4756SOL    HW114948   2.027   3.207   3.989
 4756SOL    HW214949   2.123   3.246   4.100
 4757SOL     OW14950   1.922   2.202   3.774
 4757SOL    HW114951   1.841   2.177   3.729
 4757SOL    HW214952   1.963   2.265   3.715
 4758SOL     OW14953   3.299   2.733   5.131
 4758SOL    HW114954   3.249   2.788   5.071
 4758SOL    HW214955   3.386   2.728   5.093
 4759SOL     OW14956   1.937   2.020   4.037
 4759SOL    HW114957   1.914   2.095   3.982
 4759SOL    HW214958   2.017   1.985   3.997
 4760SOL     OW14959   3.042   3.203   3.841
 4760SOL    HW114960   2.951   3.174   3.844
 4760SOL    HW214961   3.071   3.203   3.932
 4761SOL     OW14962   3.347   3.635   4.698
 4761SOL    HW114963   3.373   3.694   4.628
 4761SOL    HW214964   3.428   3.621   4.748
 4762SOL     OW14965   2.569   2.384   5.455
 4762SOL    HW114966   2.592   2.474   5.479
 4762SOL    HW214967   2.653   2.341   5.442
 4763SOL     OW14968   3.328   3.066   5.356
 4763SOL    HW114969   3.317   3.079   5.450
 4763SOL    HW214970   3.422   3.076   5.342
 4764SOL     OW14971   2.245   3.602   5.285
 4764SOL    HW114972   2.158   3.642   5.275
 4764SOL    HW214973   2.228   3.519   5.329
 4765SOL     OW14974   3.534   2.744   4.980
 4765SOL    HW114975   3.526   2.658   4.938
 4765SOL    HW214976   3.526   2.806   4.908
 4766SOL     OW14977   3.081   2.183   4.180
 4766SOL    HW114978   3.143   2.111   4.171
 4766SOL    HW214979   3.110   2.230   4.258
 4767SOL     OW14980   2.456   2.607   4.349
 4767SOL    HW114981   2.490   2.697   4.343
 4767SOL    HW214982   2.377   2.608   4.296
 4768SOL     OW14983   3.628   2.220   5.372
 4768SOL    HW114984   3.609   2.236   5.280
 4768SOL    HW214985   3.556   2.165   5.403
 4769SOL     OW14986   3.609   2.796   5.236
 4769SOL    HW114987   3.606   2.890   5.249
 4769SOL    HW214988   3.591   2.784   5.143
 4770SOL     OW14989   2.725   3.231   3.755
 4770SOL    HW114990   2.684   3.259   3.836
 4770SOL    HW214991   2.745   3.312   3.709
 4771SOL     OW14992   2.520   3.655   4.670
 4771SOL    HW114993   2.499   3.746   4.647
 4771SOL    HW214994   2.615   3.650   4.665
 4772SOL     OW14995   2.941   2.849   3.812
 4772SOL    HW114996   2.920   2.900   3.734
 4772SOL    HW214997   3.017   2.797   3.787
 4773SOL     OW14998   3.719   3.418   4.569
 4773SOL    HW114999   3.642   3.407   4.514
 4773SOL    HW215000   3.711   3.350   4.636
 4774SOL     OW15001   2.072   3.187   5.580
 4774SOL    HW115002   2.003   3.122   5.565
 4774SOL    HW215003   2.079   3.194   5.675
 4775SOL     OW15004   1.947   3.101   4.394
 4775SOL    HW115005   1.924   3.037   4.461
 4775SOL    HW215006   2.012   3.056   4.340
 4776SOL     OW15007   2.524   3.285   5.335
 4776SOL    HW115008   2.461   3.226   5.377
 4776SOL    HW215009   2.526   3.362   5.391
 4777SOL     OW15010   3.679   2.047   4.962
 4777SOL    HW115011   3.682   1.953   4.978
 4777SOL    HW215012   3.688   2.057   4.867
 4778SOL     OW15013   3.564   3.353   4.824
 4778SOL    HW115014   3.482   3.328   4.781
 4778SOL    HW215015   3.578   3.286   4.890
 4779SOL     OW15016   2.688   3.441   4.400
 4779SOL    HW115017   2.684   3.488   4.317
 4779SOL    HW215018   2.607   3.390   4.402
 4780SOL     OW15019   2.632   3.195   4.036
 4780SOL    HW115020   2.599   3.105   4.040
 4780SOL    HW215021   2.716   3.192   4.081
 4781SOL     OW15022   2.478   3.428   5.004
 4781SOL    HW115023   2.485   3.506   5.060
 4781SOL    HW215024   2.566   3.415   4.970
 4782SOL     OW15025   3.213   1.916   3.887
 4782SOL    HW115026   3.240   1.855   3.818
 4782SOL    HW215027   3.127   1.884   3.915
 4783SOL     OW15028   3.165   2.318   4.408
 4783SOL    HW115029   3.107   2.393   4.421
 4783SOL    HW215030   3.164   2.272   4.492
 4784SOL     OW15031   3.445   2.079   4.607
 4784SOL    HW115032   3.350   2.082   4.623
 4784SOL    HW215033   3.462   2.152   4.548
 4785SOL     OW15034   1.907   2.935   4.031
 4785SOL    HW115035   2.000   2.924   4.010
 4785SOL    HW215036   1.877   2.847   4.053
 4786SOL     OW15037   2.742   3.511   4.069
 4786SOL    HW115038   2.672   3.494   4.007
 4786SOL    HW215039   2.713   3.588   4.118
 4787SOL     OW15040   2.081   2.524   5.691
 4787SOL    HW115041   2.016   2.478   5.744
 4787SOL    HW215042   2.119   2.456   5.634
 4788SOL     OW15043   2.429   3.144   6.758
 4788SOL    HW115044   2.341   3.147   6.719
 4788SOL    HW215045   2.442   3.233   6.792
 4789SOL     OW15046   3.420   3.373   6.291
 4789SOL    HW115047   3.376   3.356   6.375
 4789SOL    HW215048   3.349   3.379   6.227
 4790SOL     OW15049   3.628   2.469   5.816
 4790SOL    HW115050   3.608   2.460   5.723
 4790SOL    HW215051   3.593   2.389   5.855
 4791SOL     OW15052   2.625   3.012   6.622
 4791SOL    HW115053   2.554   3.040   6.679
 4791SOL    HW215054   2.654   3.092   6.578
 4792SOL     OW15055   2.723   2.643   7.406
 4792SOL    HW115056   2.712   2.714   7.470
 4792SOL    HW215057   2.748   2.687   7.325
 4793SOL     OW15058   2.569   3.014   7.395
 4793SOL    HW115059   2.617   3.093   7.419
 4793SOL    HW215060   2.485   3.046   7.362
 4794SOL     OW15061   2.193   3.291   6.654
 4794SOL    HW115062   2.121   3.254   6.603
 4794SOL    HW215063   2.244   3.341   6.591
 4795SOL     OW15064   3.323   3.360   6.936
 4795SOL    HW115065   3.367   3.444   6.947
 4795SOL    HW215066   3.269   3.351   7.014
 4796SOL     OW15067   3.480   2.312   6.324
 4796SOL    HW115068   3.393   2.328   6.288
 4796SOL    HW215069   3.498   2.391   6.375
 4797SOL     OW15070   2.081   3.578   6.060
 4797SOL    HW115071   2.106   3.654   6.112
 4797SOL    HW215072   2.151   3.570   5.995
 4798SOL     OW15073   2.998   3.203   7.277
 4798SOL    HW115074   3.037   3.199   7.364
 4798SOL    HW215075   2.945   3.123   7.272
 4799SOL     OW15076   2.097   3.307   6.115
 4799SOL    HW115077   2.076   3.400   6.122
 4799SOL    HW215078   2.041   3.265   6.181
 4800SOL     OW15079   2.112   2.951   6.481
 4800SOL    HW115080   2.087   2.867   6.517
 4800SOL    HW215081   2.058   3.015   6.528
 4801SOL     OW15082   2.478   3.652   7.018
 4801SOL    HW115083   2.394   3.635   7.062
 4801SOL    HW215084   2.499   3.742   7.042
 4802SOL     OW15085   3.459   1.983   7.056
 4802SOL    HW115086   3.455   2.062   7.002
 4802SOL    HW215087   3.447   2.015   7.145
 4803SOL     OW15088   3.703   3.623   5.923
 4803SOL    HW115089   3.763   3.594   5.992
 4803SOL    HW215090   3.730   3.713   5.905
 4804SOL     OW15091   1.891   3.451   5.712
 4804SOL    HW115092   1.831   3.376   5.713
 4804SOL    HW215093   1.869   3.500   5.791
 4805SOL     OW15094   3.554   2.782   6.225
 4805SOL    HW115095   3.639   2.742   6.206
 4805SOL    HW215096   3.533   2.832   6.145
 4806SOL     OW15097   3.504   2.969   6.019
 4806SOL    HW115098   3.586   2.977   5.970
 4806SOL    HW215099   3.513   3.030   6.092
 4807SOL     OW15100   1.984   2.598   7.166
 4807SOL    HW115101   2.071   2.609   7.203
 4807SOL    HW215102   1.939   2.680   7.184
 4808SOL     OW15103   2.473   3.251   6.322
 4808SOL    HW115104   2.420   3.171   6.332
 4808SOL    HW215105   2.457   3.277   6.231
 4809SOL     OW15106   3.153   3.101   7.010
 4809SOL    HW115107   3.185   3.034   6.951
 4809SOL    HW215108   3.208   3.093   7.088
 4810SOL     OW15109   2.052   2.836   6.849
 4810SOL    HW115110   2.134   2.788   6.839
 4810SOL    HW215111   1.984   2.772   6.827
 4811SOL     OW15112   3.399   2.858   5.773
 4811SOL    HW115113   3.329   2.792   5.775
 4811SOL    HW215114   3.420   2.873   5.865
 4812SOL     OW15115   3.047   3.666   7.206
 4812SOL    HW115116   3.062   3.723   7.131
 4812SOL    HW215117   3.062   3.577   7.172
 4813SOL     OW15118   3.327   3.281   6.539
 4813SOL    HW115119   3.260   3.295   6.605
 4813SOL    HW215120   3.315   3.190   6.512
 4814SOL     OW15121   3.523   3.595   6.164
 4814SOL    HW115122   3.500   3.567   6.075
 4814SOL    HW215123   3.497   3.522   6.219
 4815SOL     OW15124   3.136   2.203   6.521
 4815SOL    HW115125   3.054   2.154   6.514
 4815SOL    HW215126   3.187   2.155   6.585
 4816SOL     OW15127   3.444   3.530   5.895
 4816SOL    HW115128   3.532   3.565   5.889
 4816SOL    HW215129   3.418   3.513   5.804
 4817SOL     OW15130   2.653   2.465   7.034
 4817SOL    HW115131   2.633   2.457   7.128
 4817SOL    HW215132   2.596   2.401   6.992
 4818SOL     OW15133   3.256   2.335   7.264
 4818SOL    HW115134   3.256   2.380   7.349
 4818SOL    HW215135   3.319   2.264   7.273
 4819SOL     OW15136   2.819   2.749   7.166
 4819SOL    HW115137   2.874   2.680   7.131
 4819SOL    HW215138   2.772   2.784   7.091
 4820SOL     OW15139   2.857   2.269   6.821
 4820SOL    HW115140   2.787   2.313   6.869
 4820SOL    HW215141   2.814   2.227   6.747
 4821SOL     OW15142   1.990   3.701   7.162
 4821SOL    HW115143   1.988   3.682   7.255
 4821SOL    HW215144   1.898   3.705   7.135
 4822SOL     OW15145   3.573   2.439   7.414
 4822SOL    HW115146   3.536   2.515   7.369
 4822SOL    HW215147   3.597   2.379   7.344
 4823SOL     OW15148   3.233   3.001   6.120
 4823SOL    HW115149   3.318   2.994   6.077
 4823SOL    HW215150   3.187   3.069   6.070
 4824SOL     OW15151   2.432   2.088   6.489
 4824SOL    HW115152   2.440   2.082   6.584
 4824SOL    HW215153   2.438   2.181   6.470
 4825SOL     OW15154   2.880   3.323   6.060
 4825SOL    HW115155   2.834   3.388   6.007
 4825SOL    HW215156   2.861   3.349   6.150
 4826SOL     OW15157   2.216   3.668   6.443
 4826SOL    HW115158   2.259   3.583   6.454
 4826SOL    HW215159   2.285   3.732   6.460
 4827SOL     OW15160   3.659   2.923   6.453
 4827SOL    HW115161   3.603   2.904   6.378
 4827SOL    HW215162   3.599   2.928   6.528
 4828SOL     OW15163   3.090   3.402   7.098
 4828SOL    HW115164   3.076   3.329   7.159
 4828SOL    HW215165   3.029   3.385   7.026
 4829SOL     OW15166   3.342   2.598   6.307
 4829SOL    HW115167   3.327   2.552   6.390
 4829SOL    HW215168   3.411   2.661   6.326
 4830SOL     OW15169   2.326   3.125   7.323
 4830SOL    HW115170   2.298   3.130   7.232
 4830SOL    HW215171   2.245   3.124   7.374
 4831SOL     OW15172   2.983   3.639   5.818
 4831SOL    HW115173   2.910   3.596   5.864
 4831SOL    HW215174   3.004   3.580   5.746
 4832SOL     OW15175   3.492   3.242   5.673
 4832SOL    HW115176   3.451   3.327   5.658
 4832SOL    HW215177   3.424   3.178   5.654
 4833SOL     OW15178   2.329   3.600   5.907
 4833SOL    HW115179   2.369   3.657   5.973
 4833SOL    HW215180   2.402   3.573   5.852
 4834SOL     OW15181   3.283   1.925   6.018
 4834SOL    HW115182   3.265   1.929   5.924
 4834SOL    HW215183   3.369   1.967   6.028
 4835SOL     OW15184   2.117   3.654   6.819
 4835SOL    HW115185   2.169   3.589   6.866
 4835SOL    HW215186   2.104   3.617   6.732
 4836SOL     OW15187   2.800   3.561   6.486
 4836SOL    HW115188   2.876   3.508   6.508
 4836SOL    HW215189   2.755   3.511   6.418
 4837SOL     OW15190   3.400   2.088   7.311
 4837SOL    HW115191   3.408   2.109   7.404
 4837SOL    HW215192   3.333   2.020   7.308
 4838SOL     OW15193   2.439   1.976   5.724
 4838SOL    HW115194   2.533   1.970   5.742
 4838SOL    HW215195   2.433   1.973   5.628
 4839SOL     OW15196   2.631   2.139   7.340
 4839SOL    HW115197   2.703   2.077   7.345
 4839SOL    HW215198   2.579   2.121   7.418
 4840SOL     OW15199   2.739   3.383   6.779
 4840SOL    HW115200   2.723   3.347   6.692
 4840SOL    HW215201   2.807   3.328   6.817
 4841SOL     OW15202   3.202   2.451   7.019
 4841SOL    HW115203   3.234   2.419   7.103
 4841SOL    HW215204   3.239   2.539   7.011
 4842SOL     OW15205   2.675   3.263   6.521
 4842SOL    HW115206   2.757   3.253   6.473
 4842SOL    HW215207   2.607   3.261   6.454
 4843SOL     OW15208   3.292   3.064   5.625
 4843SOL    HW115209   3.323   2.987   5.672
 4843SOL    HW215210   3.203   3.078   5.659
 4844SOL     OW15211   2.940   2.541   7.043
 4844SOL    HW115212   2.873   2.474   7.053
 4844SOL    HW215213   3.022   2.492   7.038
 4845SOL     OW15214   3.086   3.429   6.381
 4845SOL    HW115215   3.103   3.497   6.315
 4845SOL    HW215216   3.155   3.442   6.447
 4846SOL     OW15217   2.308   3.038   6.321
 4846SOL    HW115218   2.240   3.003   6.378
 4846SOL    HW215219   2.304   2.983   6.243
 4847SOL     OW15220   3.132   3.656   6.192
 4847SOL    HW115221   3.177   3.717   6.133
 4847SOL    HW215222   3.069   3.711   6.238
 4848SOL     OW15223   1.921   2.431   6.962
 4848SOL    HW115224   2.013   2.408   6.945
 4848SOL    HW215225   1.925   2.490   7.038
 4849SOL     OW15226   2.432   2.040   6.754
 4849SOL    HW115227   2.461   1.968   6.811
 4849SOL    HW215228   2.340   2.053   6.777
 4850SOL     OW15229   3.293   3.025   6.442
 4850SOL    HW115230   3.234   2.949   6.435
 4850SOL    HW215231   3.323   3.039   6.352
 4851SOL     OW15232   3.328   2.465   6.570
 4851SOL    HW115233   3.284   2.380   6.574
 4851SOL    HW215234   3.391   2.463   6.642
 4852SOL     OW15235   3.708   2.680   5.968
 4852SOL    HW115236   3.764   2.628   6.025
 4852SOL    HW215237   3.680   2.619   5.900
 4853SOL     OW15238   2.359   3.271   5.748
 4853SOL    HW115239   2.278   3.250   5.795
 4853SOL    HW215240   2.339   3.252   5.657
 4854SOL     OW15241   3.529   3.127   6.235
 4854SOL    HW115242   3.624   3.132   6.248
 4854SOL    HW215243   3.498   3.216   6.256
 4855SOL     OW15244   3.252   2.431   5.659
 4855SOL    HW115245   3.199   2.421   5.739
 4855SOL    HW215246   3.339   2.402   5.684
 4856SOL     OW15247   3.615   3.098   7.162
 4856SOL    HW115248   3.703   3.059   7.160
 4856SOL    HW215249   3.630   3.188   7.192
 4857SOL     OW15250   2.923   3.216   6.922
 4857SOL    HW115251   2.848   3.185   6.972
 4857SOL    HW215252   2.999   3.174   6.963
 4858SOL     OW15253   3.467   3.487   7.237
 4858SOL    HW115254   3.465   3.521   7.148
 4858SOL    HW215255   3.551   3.441   7.243
 4859SOL     OW15256   2.988   3.066   6.693
 4859SOL    HW115257   2.930   3.099   6.762
 4859SOL    HW215258   2.946   3.094   6.612
 4860SOL     OW15259   3.493   2.962   6.664
 4860SOL    HW115260   3.489   3.024   6.737
 4860SOL    HW215261   3.410   2.975   6.618
 4861SOL     OW15262   2.784   1.957   6.984
 4861SOL    HW115263   2.803   1.937   6.893
 4861SOL    HW215264   2.864   1.997   7.018
 4862SOL     OW15265   2.846   2.976   7.308
 4862SOL    HW115266   2.753   2.991   7.327
 4862SOL    HW215267   2.846   2.899   7.251
 4863SOL     OW15268   2.269   2.672   6.841
 4863SOL    HW115269   2.345   2.691   6.896
 4863SOL    HW215270   2.239   2.587   6.871
 4864SOL     OW15271   3.131   2.240   6.859
 4864SOL    HW115272   3.162   2.318   6.905
 4864SOL    HW215273   3.041   2.262   6.833
 4865SOL     OW15274   1.930   3.434   6.936
 4865SOL    HW115275   1.897   3.506   6.882
 4865SOL    HW215276   2.025   3.442   6.931
 4866SOL     OW15277   2.512   2.416   6.420
 4866SOL    HW115278   2.443   2.457   6.367
 4866SOL    HW215279   2.490   2.442   6.510
 4867SOL     OW15280   3.110   3.210   5.977
 4867SOL    HW115281   3.169   3.280   6.003
 4867SOL    HW215282   3.024   3.238   6.008
 4868SOL     OW15283   3.139   3.317   6.731
 4868SOL    HW115284   3.193   3.320   6.810
 4868SOL    HW215285   3.084   3.239   6.743
 4869SOL     OW15286   3.435   2.490   6.053
 4869SOL    HW115287   3.404   2.538   6.129
 4869SOL    HW215288   3.496   2.551   6.010
 4870SOL     OW15289   2.210   3.386   6.904
 4870SOL    HW115290   2.196   3.344   6.819
 4870SOL    HW215291   2.305   3.399   6.909
 4871SOL     OW15292   2.277   2.615   7.186
 4871SOL    HW115293   2.339   2.660   7.129
 4871SOL    HW215294   2.319   2.530   7.203
 4872SOL     OW15295   3.460   2.640   7.266
 4872SOL    HW115296   3.373   2.680   7.258
 4872SOL    HW215297   3.512   2.681   7.197
 4873SOL     OW15298   2.858   1.980   7.342
 4873SOL    HW115299   2.910   2.053   7.309
 4873SOL    HW215300   2.907   1.902   7.316
 4874SOL     OW15301   2.358   1.908   7.332
 4874SOL    HW115302   2.320   1.850   7.266
 4874SOL    HW215303   2.295   1.980   7.341
 4875SOL     OW15304   2.485   2.733   6.674
 4875SOL    HW115305   2.498   2.819   6.632
 4875SOL    HW215306   2.397   2.738   6.711
 4876SOL     OW15307   3.226   2.722   6.622
 4876SOL    HW115308   3.154   2.723   6.559
 4876SOL    HW215309   3.260   2.632   6.617
 4877SOL     OW15310   1.907   3.172   6.864
 4877SOL    HW115311   1.941   3.120   6.937
 4877SOL    HW215312   1.915   3.263   6.894
 4878SOL     OW15313   2.609   2.495   6.670
 4878SOL    HW115314   2.653   2.487   6.586
 4878SOL    HW215315   2.573   2.584   6.670
 4879SOL     OW15316   3.595   2.821   7.437
 4879SOL    HW115317   3.547   2.765   7.376
 4879SOL    HW215318   3.535   2.832   7.510
 4880SOL     OW15319   3.491   2.236   5.954
 4880SOL    HW115320   3.514   2.171   6.021
 4880SOL    HW215321   3.461   2.312   6.004
 4881SOL     OW15322   2.844   3.428   7.300
 4881SOL    HW115323   2.829   3.473   7.217
 4881SOL    HW215324   2.887   3.346   7.276
 4882SOL     OW15325   3.718   3.371   7.192
 4882SOL    HW115326   3.735   3.397   7.101
 4882SOL    HW215327   3.799   3.392   7.238
 4883SOL     OW15328   2.217   2.782   7.394
 4883SOL    HW115329   2.301   2.796   7.439
 4883SOL    HW215330   2.238   2.722   7.323
 4884SOL     OW15331   3.401   2.139   5.712
 4884SOL    HW115332   3.342   2.068   5.736
 4884SOL    HW215333   3.436   2.170   5.795
 4885SOL     OW15334   3.187   2.704   5.642
 4885SOL    HW115335   3.201   2.610   5.633
 4885SOL    HW215336   3.189   2.737   5.552
 4886SOL     OW15337   2.927   3.198   6.430
 4886SOL    HW115338   2.956   3.125   6.376
 4886SOL    HW215339   2.988   3.269   6.409
 4887SOL     OW15340   2.996   2.241   7.265
 4887SOL    HW115341   2.951   2.295   7.329
 4887SOL    HW215342   3.085   2.277   7.261
 4888SOL     OW15343   3.021   2.068   7.054
 4888SOL    HW115344   3.013   2.130   7.127
 4888SOL    HW215345   3.062   2.119   6.984
 4889SOL     OW15346   1.952   3.652   6.523
 4889SOL    HW115347   1.919   3.573   6.481
 4889SOL    HW215348   2.042   3.661   6.490
 4890SOL     OW15349   2.360   3.436   6.493
 4890SOL    HW115350   2.430   3.498   6.516
 4890SOL    HW215351   2.402   3.371   6.437
 4891SOL     OW15352   2.850   2.669   6.813
 4891SOL    HW115353   2.898   2.634   6.888
 4891SOL    HW215354   2.769   2.618   6.811
 4892SOL     OW15355   3.237   2.803   7.245
 4892SOL    HW115356   3.258   2.897   7.245
 4892SOL    HW215357   3.236   2.779   7.153
 4893SOL     OW15358   3.505   2.463   6.775
 4893SOL    HW115359   3.494   2.403   6.849
 4893SOL    HW215360   3.592   2.443   6.741
 4894SOL     OW15361   2.110   3.415   7.317
 4894SOL    HW115362   2.084   3.478   7.384
 4894SOL    HW215363   2.107   3.330   7.361
 4895SOL     OW15364   2.792   3.541   7.052
 4895SOL    HW115365   2.765   3.510   6.966
 4895SOL    HW215366   2.791   3.636   7.045
 4896SOL     OW15367   2.011   3.002   7.058
 4896SOL    HW115368   2.014   2.946   7.136
 4896SOL    HW215369   2.027   2.942   6.985
 4897SOL     OW15370   3.192   2.912   6.811
 4897SOL    HW115371   3.215   2.848   6.744
 4897SOL    HW215372   3.119   2.961   6.773
 4898SOL     OW15373   3.630   3.609   6.734
 4898SOL    HW115374   3.690   3.635   6.665
 4898SOL    HW215375   3.607   3.518   6.714
 4899SOL     OW15376   3.103   3.594   6.702
 4899SOL    HW115377   3.185   3.613   6.656
 4899SOL    HW215378   3.107   3.501   6.721
 4900SOL     OW15379   1.948   3.131   6.600
 4900SOL    HW115380   1.933   3.140   6.695
 4900SOL    HW215381   1.873   3.079   6.569
 4901SOL     OW15382   2.540   3.526   7.310
 4901SOL    HW115383   2.488   3.606   7.308
 4901SOL    HW215384   2.602   3.536   7.239
 4902SOL     OW15385   3.581   2.005   6.098
 4902SOL    HW115386   3.655   1.990   6.040
 4902SOL    HW215387   3.564   1.920   6.138
 4903SOL     OW15388   3.253   3.429   6.068
 4903SOL    HW115389   3.313   3.461   6.001
 4903SOL    HW215390   3.205   3.508   6.096
 4904SOL     OW15391   1.997   3.658   7.429
 4904SOL    HW115392   1.946   3.594   7.478
 4904SOL    HW215393   2.045   3.707   7.496
 4905SOL     OW15394   3.151   2.803   6.294
 4905SOL    HW115395   3.197   2.722   6.271
 4905SOL    HW215396   3.168   2.862   6.220
 4906SOL     OW15397   2.681   3.135   7.017
 4906SOL    HW115398   2.654   3.173   7.100
 4906SOL    HW215399   2.609   3.155   6.957
 4907SOL     OW15400   2.534   3.480   5.742
 4907SOL    HW115401   2.542   3.492   5.647
 4907SOL    HW215402   2.483   3.399   5.751
 4908SOL     OW15403   3.495   3.588   6.978
 4908SOL    HW115404   3.542   3.596   6.895
 4908SOL    HW215405   3.481   3.679   7.007
 4909SOL     OW15406   3.702   2.035   6.554
 4909SOL    HW115407   3.731   1.949   6.524
 4909SOL    HW215408   3.615   2.046   6.514
 4910SOL     OW15409   3.067   3.470   5.617
 4910SOL    HW115410   3.060   3.379   5.644
 4910SOL    HW215411   3.003   3.480   5.546
 4911SOL     OW15412   2.684   2.868   6.961
 4911SOL    HW115413   2.726   2.858   6.875
 4911SOL    HW215414   2.689   2.962   6.979
 4912SOL     OW15415   3.357   3.487   5.628
 4912SOL    HW115416   3.262   3.482   5.616
 4912SOL    HW215417   3.392   3.493   5.539
 4913SOL     OW15418   2.232   3.163   7.077
 4913SOL    HW115419   2.218   3.241   7.024
 4913SOL    HW215420   2.155   3.109   7.062
 4914SOL     OW15421   3.474   3.145   6.867
 4914SOL    HW115422   3.533   3.137   6.942
 4914SOL    HW215423   3.413   3.215   6.891
 4915SOL     OW15424   2.465   3.356   6.069
 4915SOL    HW115425   2.503   3.303   5.998
 4915SOL    HW215426   2.395   3.406   6.026
 4916SOL     OW15427   3.581   2.254   6.966
 4916SOL    HW115428   3.653   2.317   6.964
 4916SOL    HW215429   3.611   2.182   6.910
 4917SOL     OW15430   2.114   3.225   5.861
 4917SOL    HW115431   2.021   3.200   5.867
 4917SOL    HW215432   2.136   3.257   5.949
 4918SOL     OW15433   1.974   2.879   7.305
 4918SOL    HW115434   1.897   2.857   7.358
 4918SOL    HW215435   2.048   2.844   7.354
 4919SOL     OW15436   2.541   2.051   7.081
 4919SOL    HW115437   2.628   2.031   7.045
 4919SOL    HW215438   2.559   2.087   7.167
 4920SOL     OW15439   1.906   2.191   5.622
 4920SOL    HW115440   1.828   2.161   5.575
 4920SOL    HW215441   1.948   2.252   5.561
 4921SOL     OW15442   3.294   2.720   6.988
 4921SOL    HW115443   3.245   2.779   6.931
 4921SOL    HW215444   3.384   2.723   6.954
 4922SOL     OW15445   1.974   2.091   5.914
 4922SOL    HW115446   1.952   2.126   5.827
 4922SOL    HW215447   2.011   2.005   5.896
 4923SOL     OW15448   3.043   3.205   5.702
 4923SOL    HW115449   2.952   3.175   5.701
 4923SOL    HW215450   3.068   3.203   5.795
 4924SOL     OW15451   2.480   2.692   7.015
 4924SOL    HW115452   2.532   2.771   7.000
 4924SOL    HW215453   2.545   2.622   7.021
 4925SOL     OW15454   3.347   3.636   6.561
 4925SOL    HW115455   3.373   3.694   6.489
 4925SOL    HW215456   3.428   3.621   6.610
 4926SOL     OW15457   2.582   2.428   7.291
 4926SOL    HW115458   2.618   2.493   7.352
 4926SOL    HW215459   2.618   2.345   7.322
 4927SOL     OW15460   3.330   3.065   7.219
 4927SOL    HW115461   3.319   3.078   7.313
 4927SOL    HW215462   3.424   3.077   7.205
 4928SOL     OW15463   2.245   3.602   7.150
 4928SOL    HW115464   2.158   3.641   7.137
 4928SOL    HW215465   2.226   3.517   7.191
 4929SOL     OW15466   3.534   2.744   6.842
 4929SOL    HW115467   3.525   2.658   6.799
 4929SOL    HW215468   3.525   2.807   6.770
 4930SOL     OW15469   3.628   2.221   7.235
 4930SOL    HW115470   3.609   2.235   7.142
 4930SOL    HW215471   3.556   2.165   7.265
 4931SOL     OW15472   3.605   2.795   7.099
 4931SOL    HW115473   3.608   2.890   7.111
 4931SOL    HW215474   3.591   2.784   7.005
 4932SOL     OW15475   2.720   3.236   5.617
 4932SOL    HW115476   2.683   3.265   5.701
 4932SOL    HW215477   2.743   3.318   5.573
 4933SOL     OW15478   2.521   3.656   6.533
 4933SOL    HW115479   2.500   3.746   6.509
 4933SOL    HW215480   2.617   3.652   6.526
 4934SOL     OW15481   2.707   2.804   6.461
 4934SOL    HW115482   2.787   2.767   6.500
 4934SOL    HW215483   2.685   2.878   6.518
 4935SOL     OW15484   3.719   3.419   6.431
 4935SOL    HW115485   3.642   3.407   6.376
 4935SOL    HW215486   3.711   3.350   6.498
 4936SOL     OW15487   2.086   3.167   7.442
 4936SOL    HW115488   2.018   3.105   7.413
 4936SOL    HW215489   2.068   3.180   7.535
 4937SOL     OW15490   1.958   3.128   6.266
 4937SOL    HW115491   1.950   3.069   6.341
 4937SOL    HW215492   2.004   3.077   6.200
 4938SOL     OW15493   2.541   3.263   7.211
 4938SOL    HW115494   2.462   3.219   7.242
 4938SOL    HW215495   2.536   3.350   7.249
 4939SOL     OW15496   3.676   2.048   6.824
 4939SOL    HW115497   3.685   1.954   6.840
 4939SOL    HW215498   3.685   2.057   6.730
 4940SOL     OW15499   3.563   3.353   6.686
 4940SOL    HW115500   3.482   3.327   6.643
 4940SOL    HW215501   3.579   3.285   6.751
 4941SOL     OW15502   2.689   3.437   6.263
 4941SOL    HW115503   2.680   3.486   6.182
 4941SOL    HW215504   2.609   3.385   6.270
 4942SOL     OW15505   3.296   2.087   6.704
 4942SOL    HW115506   3.317   2.004   6.748
 4942SOL    HW215507   3.244   2.135   6.768
 4943SOL     OW15508   2.635   3.201   5.894
 4943SOL    HW115509   2.591   3.117   5.903
 4943SOL    HW215510   2.716   3.192   5.945
 4944SOL     OW15511   2.482   3.421   6.870
 4944SOL    HW115512   2.485   3.502   6.921
 4944SOL    HW215513   2.569   3.413   6.832
 4945SOL     OW15514   3.237   1.918   5.738
 4945SOL    HW115515   3.259   1.851   5.674
 4945SOL    HW215516   3.146   1.898   5.762
 4946SOL     OW15517   3.203   2.335   6.298
 4946SOL    HW115518   3.134   2.400   6.288
 4946SOL    HW215519   3.177   2.283   6.374
 4947SOL     OW15520   3.449   2.067   6.462
 4947SOL    HW115521   3.387   2.087   6.532
 4947SOL    HW215522   3.450   2.146   6.408
 4948SOL     OW15523   2.742   3.514   5.928
 4948SOL    HW115524   2.670   3.495   5.868
 4948SOL    HW215525   2.712   3.589   5.979
 4949SOL     OW15526   2.068   2.524   7.562
 4949SOL    HW115527   1.988   2.495   7.604
 4949SOL    HW215528   2.080   2.463   7.489
 4950SOL     OW15529   1.867   2.246   8.080
 4950SOL    HW115530   1.786   2.266   8.128
 4950SOL    HW215531   1.850   2.161   8.040
 4951SOL     OW15532   2.428   3.144   8.620
 4951SOL    HW115533   2.341   3.147   8.582
 4951SOL    HW215534   2.443   3.233   8.654
 4952SOL     OW15535   3.420   3.373   8.153
 4952SOL    HW115536   3.375   3.355   8.237
 4952SOL    HW215537   3.349   3.378   8.089
 4953SOL     OW15538   2.991   2.560   8.152
 4953SOL    HW115539   3.041   2.641   8.137
 4953SOL    HW215540   2.946   2.575   8.235
 4954SOL     OW15541   3.627   2.469   7.678
 4954SOL    HW115542   3.607   2.460   7.585
 4954SOL    HW215543   3.592   2.390   7.718
 4955SOL     OW15544   2.620   3.006   8.485
 4955SOL    HW115545   2.550   3.040   8.541
 4955SOL    HW215546   2.654   3.083   8.441
 4956SOL     OW15547   2.721   2.644   9.269
 4956SOL    HW115548   2.714   2.715   9.332
 4956SOL    HW215549   2.748   2.687   9.187
 4957SOL     OW15550   2.547   2.867   8.098
 4957SOL    HW115551   2.612   2.853   8.168
 4957SOL    HW215552   2.479   2.919   8.140
 4958SOL     OW15553   2.569   3.014   9.256
 4958SOL    HW115554   2.617   3.093   9.281
 4958SOL    HW215555   2.485   3.046   9.224
 4959SOL     OW15556   2.193   3.291   8.516
 4959SOL    HW115557   2.121   3.254   8.465
 4959SOL    HW215558   2.244   3.341   8.453
 4960SOL     OW15559   3.324   3.360   8.798
 4960SOL    HW115560   3.367   3.444   8.809
 4960SOL    HW215561   3.269   3.351   8.877
 4961SOL     OW15562   3.475   2.312   8.187
 4961SOL    HW115563   3.399   2.338   8.135
 4961SOL    HW215564   3.496   2.389   8.240
 4962SOL     OW15565   2.082   3.575   7.923
 4962SOL    HW115566   2.106   3.652   7.975
 4962SOL    HW215567   2.151   3.568   7.857
 4963SOL     OW15568   2.998   3.203   9.139
 4963SOL    HW115569   3.038   3.199   9.226
 4963SOL    HW215570   2.945   3.123   9.134
 4964SOL     OW15571   2.092   3.302   7.982
 4964SOL    HW115572   2.075   3.396   7.988
 4964SOL    HW215573   2.030   3.262   8.044
 4965SOL     OW15574   2.117   2.954   8.338
 4965SOL    HW115575   2.112   2.867   8.379
 4965SOL    HW215576   2.057   3.008   8.390
 4966SOL     OW15577   2.477   3.652   8.880
 4966SOL    HW115578   2.394   3.635   8.924
 4966SOL    HW215579   2.499   3.742   8.904
 4967SOL     OW15580   2.452   2.840   7.577
 4967SOL    HW115581   2.494   2.895   7.511
 4967SOL    HW215582   2.492   2.868   7.660
 4968SOL     OW15583   3.458   1.983   8.918
 4968SOL    HW115584   3.456   2.062   8.864
 4968SOL    HW215585   3.447   2.014   9.007
 4969SOL     OW15586   1.970   2.506   8.007
 4969SOL    HW115587   1.944   2.417   8.031
 4969SOL    HW215588   1.966   2.555   8.089
 4970SOL     OW15589   3.703   3.623   7.785
 4970SOL    HW115590   3.763   3.594   7.854
 4970SOL    HW215591   3.730   3.713   7.767
 4971SOL     OW15592   1.892   3.458   7.572
 4971SOL    HW115593   1.874   3.366   7.592
 4971SOL    HW215594   1.867   3.505   7.652
 4972SOL     OW15595   3.551   2.781   8.086
 4972SOL    HW115596   3.637   2.742   8.068
 4972SOL    HW215597   3.531   2.831   8.006
 4973SOL     OW15598   3.507   2.970   7.878
 4973SOL    HW115599   3.592   2.978   7.835
 4973SOL    HW215600   3.512   3.030   7.952
 4974SOL     OW15601   1.985   2.596   9.030
 4974SOL    HW115602   2.071   2.615   9.066
 4974SOL    HW215603   1.936   2.678   9.042
 4975SOL     OW15604   2.474   3.244   8.183
 4975SOL    HW115605   2.428   3.161   8.192
 4975SOL    HW215606   2.458   3.271   8.093
 4976SOL     OW15607   3.152   3.101   8.872
 4976SOL    HW115608   3.185   3.033   8.813
 4976SOL    HW215609   3.208   3.093   8.950
 4977SOL     OW15610   2.674   1.861   7.953
 4977SOL    HW115611   2.715   1.946   7.937
 4977SOL    HW215612   2.581   1.881   7.963
 4978SOL     OW15613   2.053   2.832   8.716
 4978SOL    HW115614   2.137   2.789   8.697
 4978SOL    HW215615   1.987   2.775   8.677
 4979SOL     OW15616   3.394   2.853   7.644
 4979SOL    HW115617   3.324   2.795   7.674
 4979SOL    HW215618   3.433   2.887   7.725
 4980SOL     OW15619   3.047   3.665   9.068
 4980SOL    HW115620   3.062   3.723   8.993
 4980SOL    HW215621   3.062   3.577   9.034
 4981SOL     OW15622   3.328   3.282   8.401
 4981SOL    HW115623   3.259   3.296   8.467
 4981SOL    HW215624   3.316   3.191   8.374
 4982SOL     OW15625   3.523   3.595   8.026
 4982SOL    HW115626   3.500   3.567   7.937
 4982SOL    HW215627   3.497   3.522   8.081
 4983SOL     OW15628   2.466   2.586   7.711
 4983SOL    HW115629   2.473   2.660   7.651
 4983SOL    HW215630   2.385   2.603   7.760
 4984SOL     OW15631   3.142   2.210   8.380
 4984SOL    HW115632   3.053   2.177   8.388
 4984SOL    HW215633   3.192   2.158   8.443
 4985SOL     OW15634   3.444   3.530   7.757
 4985SOL    HW115635   3.532   3.565   7.751
 4985SOL    HW215636   3.419   3.513   7.666
 4986SOL     OW15637   2.652   2.470   8.895
 4986SOL    HW115638   2.635   2.459   8.988
 4986SOL    HW215639   2.604   2.399   8.852
 4987SOL     OW15640   3.256   2.335   9.126
 4987SOL    HW115641   3.256   2.380   9.211
 4987SOL    HW215642   3.319   2.264   9.135
 4988SOL     OW15643   2.819   2.750   9.028
 4988SOL    HW115644   2.874   2.680   8.993
 4988SOL    HW215645   2.773   2.784   8.952
 4989SOL     OW15646   2.861   2.270   8.687
 4989SOL    HW115647   2.782   2.310   8.724
 4989SOL    HW215648   2.831   2.230   8.605
 4990SOL     OW15649   2.911   2.560   7.874
 4990SOL    HW115650   2.925   2.555   7.969
 4990SOL    HW215651   2.829   2.514   7.860
 4991SOL     OW15652   1.951   2.682   8.223
 4991SOL    HW115653   2.033   2.677   8.272
 4991SOL    HW215654   1.907   2.759   8.258
 4992SOL     OW15655   1.990   3.700   9.023
 4992SOL    HW115656   1.988   3.682   9.117
 4992SOL    HW215657   1.898   3.705   8.998
 4993SOL     OW15658   2.750   2.208   7.643
 4993SOL    HW115659   2.793   2.269   7.584
 4993SOL    HW215660   2.765   2.122   7.604
 4994SOL     OW15661   3.573   2.439   9.276
 4994SOL    HW115662   3.536   2.515   9.231
 4994SOL    HW215663   3.597   2.379   9.206
 4995SOL     OW15664   3.237   3.004   7.990
 4995SOL    HW115665   3.315   2.990   7.937
 4995SOL    HW215666   3.185   3.066   7.939
 4996SOL     OW15667   2.871   3.308   7.922
 4996SOL    HW115668   2.830   3.379   7.873
 4996SOL    HW215669   2.856   3.330   8.014
 4997SOL     OW15670   2.216   3.668   8.306
 4997SOL    HW115671   2.260   3.584   8.315
 4997SOL    HW215672   2.285   3.733   8.322
 4998SOL     OW15673   3.659   2.923   8.315
 4998SOL    HW115674   3.603   2.906   8.240
 4998SOL    HW215675   3.599   2.927   8.390
 4999SOL     OW15676   3.090   3.402   8.960
 4999SOL    HW115677   3.076   3.328   9.020
 4999SOL    HW215678   3.029   3.385   8.888
 5000SOL     OW15679   2.188   2.807   7.700
 5000SOL    HW115680   2.265   2.831   7.648
 5000SOL    HW215681   2.148   2.734   7.653
 5001SOL     OW15682   3.338   2.600   8.176
 5001SOL    HW115683   3.326   2.555   8.260
 5001SOL    HW215684   3.414   2.656   8.189
 5002SOL     OW15685   2.326   3.125   9.185
 5002SOL    HW115686   2.298   3.130   9.094
 5002SOL    HW215687   2.245   3.124   9.235
 5003SOL     OW15688   2.982   3.639   7.680
 5003SOL    HW115689   2.911   3.596   7.727
 5003SOL    HW215690   3.004   3.580   7.608
 5004SOL     OW15691   1.966   2.104   8.952
 5004SOL    HW115692   1.989   2.194   8.927
 5004SOL    HW215693   2.037   2.075   9.009
 5005SOL     OW15694   3.492   3.241   7.535
 5005SOL    HW115695   3.451   3.326   7.520
 5005SOL    HW215696   3.422   3.177   7.516
 5006SOL     OW15697   2.329   3.600   7.769
 5006SOL    HW115698   2.369   3.657   7.835
 5006SOL    HW215699   2.402   3.573   7.714
 5007SOL     OW15700   3.263   1.970   7.878
 5007SOL    HW115701   3.251   1.945   7.786
 5007SOL    HW215702   3.358   1.977   7.889
 5008SOL     OW15703   2.117   3.654   8.681
 5008SOL    HW115704   2.169   3.589   8.729
 5008SOL    HW215705   2.105   3.617   8.594
 5009SOL     OW15706   2.800   3.560   8.348
 5009SOL    HW115707   2.877   3.507   8.368
 5009SOL    HW215708   2.754   3.511   8.280
 5010SOL     OW15709   3.400   2.088   9.173
 5010SOL    HW115710   3.408   2.109   9.266
 5010SOL    HW215711   3.332   2.021   9.170
 5011SOL     OW15712   2.486   1.992   7.554
 5011SOL    HW115713   2.560   1.935   7.576
 5011SOL    HW215714   2.447   1.952   7.477
 5012SOL     OW15715   2.630   2.141   9.200
 5012SOL    HW115716   2.701   2.078   9.208
 5012SOL    HW215717   2.575   2.124   9.277
 5013SOL     OW15718   2.739   3.383   8.642
 5013SOL    HW115719   2.724   3.347   8.554
 5013SOL    HW215720   2.808   3.328   8.678
 5014SOL     OW15721   3.202   2.451   8.881
 5014SOL    HW115722   3.234   2.419   8.965
 5014SOL    HW215723   3.240   2.539   8.873
 5015SOL     OW15724   2.675   3.260   8.384
 5015SOL    HW115725   2.759   3.250   8.339
 5015SOL    HW215726   2.610   3.258   8.314
 5016SOL     OW15727   2.786   2.367   8.353
 5016SOL    HW115728   2.763   2.361   8.260
 5016SOL    HW215729   2.823   2.282   8.374
 5017SOL     OW15730   2.409   1.931   7.948
 5017SOL    HW115731   2.329   1.928   8.001
 5017SOL    HW215732   2.406   2.017   7.906
 5018SOL     OW15733   3.291   3.060   7.489
 5018SOL    HW115734   3.321   2.984   7.539
 5018SOL    HW215735   3.205   3.079   7.526
 5019SOL     OW15736   2.156   1.895   7.627
 5019SOL    HW115737   2.219   1.960   7.597
 5019SOL    HW215738   2.210   1.829   7.671
 5020SOL     OW15739   2.797   2.107   7.910
 5020SOL    HW115740   2.771   2.149   7.829
 5020SOL    HW215741   2.892   2.117   7.913
 5021SOL     OW15742   2.941   2.541   8.906
 5021SOL    HW115743   2.874   2.472   8.915
 5021SOL    HW215744   3.023   2.493   8.900
 5022SOL     OW15745   3.087   3.431   8.241
 5022SOL    HW115746   3.105   3.499   8.176
 5022SOL    HW215747   3.155   3.443   8.308
 5023SOL     OW15748   2.329   3.010   8.184
 5023SOL    HW115749   2.258   2.992   8.246
 5023SOL    HW215750   2.291   2.992   8.098
 5024SOL     OW15751   3.133   3.657   8.053
 5024SOL    HW115752   3.177   3.718   7.994
 5024SOL    HW215753   3.069   3.711   8.100
 5025SOL     OW15754   2.888   2.408   7.467
 5025SOL    HW115755   2.846   2.491   7.448
 5025SOL    HW215756   2.952   2.428   7.536
 5026SOL     OW15757   1.949   2.412   8.834
 5026SOL    HW115758   2.044   2.397   8.837
 5026SOL    HW215759   1.933   2.479   8.900
 5027SOL     OW15760   2.726   2.318   8.088
 5027SOL    HW115761   2.686   2.377   8.025
 5027SOL    HW215762   2.750   2.241   8.037
 5028SOL     OW15763   2.875   1.914   8.202
 5028SOL    HW115764   2.818   1.904   8.125
 5028SOL    HW215765   2.855   1.838   8.257
 5029SOL     OW15766   3.298   3.026   8.306
 5029SOL    HW115767   3.230   2.958   8.304
 5029SOL    HW215768   3.320   3.039   8.214
 5030SOL     OW15769   3.330   2.464   8.429
 5030SOL    HW115770   3.282   2.381   8.433
 5030SOL    HW215771   3.391   2.461   8.503
 5031SOL     OW15772   3.710   2.681   7.829
 5031SOL    HW115773   3.765   2.628   7.887
 5031SOL    HW215774   3.680   2.619   7.762
 5032SOL     OW15775   2.354   3.276   7.609
 5032SOL    HW115776   2.279   3.246   7.661
 5032SOL    HW215777   2.334   3.249   7.520
 5033SOL     OW15778   3.530   3.127   8.096
 5033SOL    HW115779   3.625   3.132   8.109
 5033SOL    HW215780   3.498   3.215   8.118
 5034SOL     OW15781   3.256   2.434   7.519
 5034SOL    HW115782   3.196   2.415   7.592
 5034SOL    HW215783   3.340   2.401   7.549
 5035SOL     OW15784   3.615   3.098   9.024
 5035SOL    HW115785   3.703   3.059   9.022
 5035SOL    HW215786   3.630   3.188   9.054
 5036SOL     OW15787   2.923   3.216   8.783
 5036SOL    HW115788   2.848   3.185   8.834
 5036SOL    HW215789   2.999   3.174   8.824
 5037SOL     OW15790   3.467   3.487   9.099
 5037SOL    HW115791   3.465   3.521   9.010
 5037SOL    HW215792   3.551   3.441   9.105
 5038SOL     OW15793   2.988   3.064   8.555
 5038SOL    HW115794   2.929   3.102   8.621
 5038SOL    HW215795   2.953   3.094   8.471
 5039SOL     OW15796   3.493   2.962   8.527
 5039SOL    HW115797   3.489   3.024   8.599
 5039SOL    HW215798   3.412   2.977   8.477
 5040SOL     OW15799   2.786   1.958   8.848
 5040SOL    HW115800   2.806   1.940   8.756
 5040SOL    HW215801   2.865   1.998   8.883
 5041SOL     OW15802   2.846   2.976   9.170
 5041SOL    HW115803   2.753   2.992   9.189
 5041SOL    HW215804   2.846   2.899   9.113
 5042SOL     OW15805   2.570   2.922   7.820
 5042SOL    HW115806   2.557   2.907   7.914
 5042SOL    HW215807   2.646   2.868   7.798
 5043SOL     OW15808   2.280   2.675   8.699
 5043SOL    HW115809   2.351   2.691   8.761
 5043SOL    HW215810   2.244   2.590   8.726
 5044SOL     OW15811   3.132   2.240   8.721
 5044SOL    HW115812   3.162   2.318   8.767
 5044SOL    HW215813   3.042   2.261   8.695
 5045SOL     OW15814   1.930   3.434   8.798
 5045SOL    HW115815   1.897   3.507   8.746
 5045SOL    HW215816   2.025   3.442   8.793
 5046SOL     OW15817   2.217   2.966   7.938
 5046SOL    HW115818   2.220   3.044   7.882
 5046SOL    HW215819   2.213   2.893   7.877
 5047SOL     OW15820   3.110   3.210   7.837
 5047SOL    HW115821   3.165   3.282   7.868
 5047SOL    HW215822   3.023   3.230   7.871
 5048SOL     OW15823   3.139   3.318   8.594
 5048SOL    HW115824   3.194   3.320   8.672
 5048SOL    HW215825   3.084   3.240   8.605
 5049SOL     OW15826   3.445   2.487   7.924
 5049SOL    HW115827   3.401   2.543   7.988
 5049SOL    HW215828   3.490   2.549   7.866
 5050SOL     OW15829   2.210   3.386   8.766
 5050SOL    HW115830   2.196   3.344   8.681
 5050SOL    HW215831   2.304   3.399   8.771
 5051SOL     OW15832   2.277   2.625   9.052
 5051SOL    HW115833   2.340   2.666   8.993
 5051SOL    HW215834   2.322   2.547   9.084
 5052SOL     OW15835   3.460   2.640   9.128
 5052SOL    HW115836   3.373   2.680   9.120
 5052SOL    HW215837   3.512   2.681   9.059
 5053SOL     OW15838   2.857   1.980   9.204
 5053SOL    HW115839   2.910   2.053   9.171
 5053SOL    HW215840   2.907   1.902   9.179
 5054SOL     OW15841   2.364   1.899   9.193
 5054SOL    HW115842   2.325   1.843   9.126
 5054SOL    HW215843   2.302   1.972   9.203
 5055SOL     OW15844   2.437   2.736   8.474
 5055SOL    HW115845   2.479   2.822   8.474
 5055SOL    HW215846   2.388   2.734   8.556
 5056SOL     OW15847   3.222   2.721   8.481
 5056SOL    HW115848   3.140   2.714   8.433
 5056SOL    HW215849   3.260   2.633   8.479
 5057SOL     OW15850   3.069   2.391   7.717
 5057SOL    HW115851   3.077   2.312   7.771
 5057SOL    HW215852   3.027   2.455   7.774
 5058SOL     OW15853   1.910   3.172   8.725
 5058SOL    HW115854   1.942   3.120   8.798
 5058SOL    HW215855   1.916   3.263   8.756
 5059SOL     OW15856   2.612   2.514   8.532
 5059SOL    HW115857   2.649   2.465   8.458
 5059SOL    HW215858   2.554   2.578   8.492
 5060SOL     OW15859   3.595   2.821   9.299
 5060SOL    HW115860   3.547   2.765   9.238
 5060SOL    HW215861   3.535   2.832   9.373
 5061SOL     OW15862   2.166   1.933   8.075
 5061SOL    HW115863   2.141   2.022   8.103
 5061SOL    HW215864   2.165   1.882   8.156
 5062SOL     OW15865   3.475   2.234   7.817
 5062SOL    HW115866   3.503   2.171   7.883
 5062SOL    HW215867   3.453   2.313   7.867
 5063SOL     OW15868   2.891   2.621   8.410
 5063SOL    HW115869   2.889   2.641   8.503
 5063SOL    HW215870   2.855   2.532   8.404
 5064SOL     OW15871   2.844   3.428   9.162
 5064SOL    HW115872   2.829   3.473   9.079
 5064SOL    HW215873   2.887   3.346   9.138
 5065SOL     OW15874   3.718   3.371   9.054
 5065SOL    HW115875   3.734   3.397   8.963
 5065SOL    HW215876   3.799   3.392   9.100
 5066SOL     OW15877   2.216   2.784   9.261
 5066SOL    HW115878   2.301   2.799   9.304
 5066SOL    HW215879   2.236   2.728   9.187
 5067SOL     OW15880   3.393   2.136   7.575
 5067SOL    HW115881   3.329   2.070   7.602
 5067SOL    HW215882   3.425   2.172   7.658
 5068SOL     OW15883   3.156   2.689   7.481
 5068SOL    HW115884   3.199   2.603   7.484
 5068SOL    HW215885   3.187   2.728   7.399
 5069SOL     OW15886   2.926   3.197   8.300
 5069SOL    HW115887   2.929   3.124   8.238
 5069SOL    HW215888   2.990   3.260   8.266
 5070SOL     OW15889   2.175   2.676   8.392
 5070SOL    HW115890   2.267   2.699   8.389
 5070SOL    HW215891   2.173   2.593   8.440
 5071SOL     OW15892   2.996   2.242   9.126
 5071SOL    HW115893   2.951   2.295   9.191
 5071SOL    HW215894   3.085   2.277   9.123
 5072SOL     OW15895   3.024   2.067   8.918
 5072SOL    HW115896   3.014   2.129   8.990
 5072SOL    HW215897   3.061   2.118   8.846
 5073SOL     OW15898   1.867   3.184   7.643
 5073SOL    HW115899   1.780   3.198   7.605
 5073SOL    HW215900   1.865   3.094   7.676
 5074SOL     OW15901   1.952   3.651   8.384
 5074SOL    HW115902   1.921   3.571   8.342
 5074SOL    HW215903   2.042   3.662   8.353
 5075SOL     OW15904   2.361   3.435   8.354
 5075SOL    HW115905   2.430   3.497   8.378
 5075SOL    HW215906   2.405   3.370   8.300
 5076SOL     OW15907   2.850   2.661   8.676
 5076SOL    HW115908   2.896   2.630   8.754
 5076SOL    HW215909   2.766   2.616   8.678
 5077SOL     OW15910   1.903   2.423   8.564
 5077SOL    HW115911   1.955   2.355   8.521
 5077SOL    HW215912   1.922   2.412   8.657
 5078SOL     OW15913   3.237   2.803   9.107
 5078SOL    HW115914   3.258   2.897   9.107
 5078SOL    HW215915   3.236   2.779   9.015
 5079SOL     OW15916   2.677   2.429   7.804
 5079SOL    HW115917   2.679   2.355   7.744
 5079SOL    HW215918   2.602   2.482   7.776
 5080SOL     OW15919   3.505   2.463   8.637
 5080SOL    HW115920   3.494   2.403   8.711
 5080SOL    HW215921   3.592   2.443   8.602
 5081SOL     OW15922   2.110   3.415   9.179
 5081SOL    HW115923   2.084   3.478   9.245
 5081SOL    HW215924   2.107   3.330   9.223
 5082SOL     OW15925   2.792   3.541   8.914
 5082SOL    HW115926   2.765   3.510   8.828
 5082SOL    HW215927   2.791   3.636   8.907
 5083SOL     OW15928   2.011   3.002   8.920
 5083SOL    HW115929   2.013   2.947   8.999
 5083SOL    HW215930   2.027   2.941   8.848
 5084SOL     OW15931   3.191   2.911   8.673
 5084SOL    HW115932   3.215   2.848   8.605
 5084SOL    HW215933   3.118   2.960   8.635
 5085SOL     OW15934   3.171   2.718   7.755
 5085SOL    HW115935   3.094   2.689   7.804
 5085SOL    HW215936   3.148   2.705   7.663
 5086SOL     OW15937   3.630   3.609   8.597
 5086SOL    HW115938   3.690   3.635   8.527
 5086SOL    HW215939   3.607   3.518   8.576
 5087SOL     OW15940   3.104   3.595   8.565
 5087SOL    HW115941   3.185   3.613   8.518
 5087SOL    HW215942   3.107   3.501   8.582
 5088SOL     OW15943   1.945   3.128   8.461
 5088SOL    HW115944   1.932   3.139   8.556
 5088SOL    HW215945   1.871   3.075   8.433
 5089SOL     OW15946   2.540   3.526   9.172
 5089SOL    HW115947   2.488   3.606   9.170
 5089SOL    HW215948   2.602   3.536   9.101
 5090SOL     OW15949   3.580   2.005   7.960
 5090SOL    HW115950   3.654   1.991   7.901
 5090SOL    HW215951   3.565   1.919   8.000
 5091SOL     OW15952   3.252   3.430   7.931
 5091SOL    HW115953   3.313   3.461   7.863
 5091SOL    HW215954   3.205   3.508   7.958
 5092SOL     OW15955   1.997   3.658   9.291
 5092SOL    HW115956   1.946   3.594   9.340
 5092SOL    HW215957   2.045   3.707   9.358
 5093SOL     OW15958   3.139   2.786   8.119
 5093SOL    HW115959   3.212   2.725   8.124
 5093SOL    HW215960   3.173   2.859   8.067
 5094SOL     OW15961   2.681   3.134   8.879
 5094SOL    HW115962   2.654   3.173   8.963
 5094SOL    HW215963   2.610   3.156   8.819
 5095SOL     OW15964   2.534   3.479   7.603
 5095SOL    HW115965   2.543   3.490   7.509
 5095SOL    HW215966   2.481   3.400   7.614
 5096SOL     OW15967   3.495   3.588   8.840
 5096SOL    HW115968   3.542   3.596   8.757
 5096SOL    HW215969   3.481   3.679   8.869
 5097SOL     OW15970   3.702   2.035   8.416
 5097SOL    HW115971   3.731   1.949   8.386
 5097SOL    HW215972   3.615   2.046   8.376
 5098SOL     OW15973   3.068   3.470   7.479
 5098SOL    HW115974   3.060   3.379   7.506
 5098SOL    HW215975   3.003   3.480   7.409
 5099SOL     OW15976   2.685   2.868   8.820
 5099SOL    HW115977   2.730   2.862   8.736
 5099SOL    HW215978   2.688   2.961   8.842
 5100SOL     OW15979   2.778   2.773   7.737
 5100SOL    HW115980   2.840   2.804   7.671
 5100SOL    HW215981   2.824   2.702   7.781
 5101SOL     OW15982   3.357   3.486   7.490
 5101SOL    HW115983   3.262   3.483   7.479
 5101SOL    HW215984   3.391   3.492   7.401
 5102SOL     OW15985   2.232   3.162   8.939
 5102SOL    HW115986   2.218   3.241   8.886
 5102SOL    HW215987   2.155   3.108   8.924
 5103SOL     OW15988   3.474   3.145   8.729
 5103SOL    HW115989   3.533   3.137   8.804
 5103SOL    HW215990   3.413   3.215   8.753
 5104SOL     OW15991   2.910   2.967   8.153
 5104SOL    HW115992   2.840   2.916   8.194
 5104SOL    HW215993   2.971   2.902   8.119
 5105SOL     OW15994   2.881   2.101   8.413
 5105SOL    HW115995   2.877   2.052   8.331
 5105SOL    HW215996   2.878   2.034   8.481
 5106SOL     OW15997   2.464   3.351   7.931
 5106SOL    HW115998   2.504   3.300   7.860
 5106SOL    HW215999   2.397   3.404   7.887
 5107SOL     OW16000   3.581   2.254   8.828
 5107SOL    HW116001   3.653   2.317   8.826
 5107SOL    HW216002   3.611   2.182   8.772
 5108SOL     OW16003   2.120   3.208   7.735
 5108SOL    HW116004   2.027   3.206   7.713
 5108SOL    HW216005   2.123   3.245   7.823
 5109SOL     OW16006   1.974   2.879   9.167
 5109SOL    HW116007   1.897   2.857   9.219
 5109SOL    HW216008   2.048   2.845   9.217
 5110SOL     OW16009   2.546   2.050   8.941
 5110SOL    HW116010   2.632   2.025   8.906
 5110SOL    HW216011   2.565   2.083   9.029
 5111SOL     OW16012   1.922   2.205   7.497
 5111SOL    HW116013   1.843   2.179   7.450
 5111SOL    HW216014   1.974   2.252   7.432
 5112SOL     OW16015   3.294   2.720   8.850
 5112SOL    HW116016   3.245   2.780   8.793
 5112SOL    HW216017   3.384   2.723   8.817
 5113SOL     OW16018   1.935   2.020   7.761
 5113SOL    HW116019   1.914   2.096   7.708
 5113SOL    HW216020   2.016   1.985   7.722
 5114SOL     OW16021   3.042   3.204   7.565
 5114SOL    HW116022   2.951   3.174   7.568
 5114SOL    HW216023   3.071   3.203   7.656
 5115SOL     OW16024   2.482   2.693   8.879
 5115SOL    HW116025   2.534   2.772   8.865
 5115SOL    HW216026   2.546   2.622   8.883
 5116SOL     OW16027   3.347   3.636   8.423
 5116SOL    HW116028   3.373   3.694   8.351
 5116SOL    HW216029   3.428   3.621   8.472
 5117SOL     OW16030   2.582   2.427   9.148
 5117SOL    HW116031   2.614   2.490   9.213
 5117SOL    HW216032   2.609   2.342   9.182
 5118SOL     OW16033   3.330   3.065   9.081
 5118SOL    HW116034   3.319   3.078   9.175
 5118SOL    HW216035   3.424   3.077   9.067
 5119SOL     OW16036   2.244   3.602   9.011
 5119SOL    HW116037   2.158   3.641   8.999
 5119SOL    HW216038   2.226   3.517   9.053
 5120SOL     OW16039   3.533   2.744   8.704
 5120SOL    HW116040   3.525   2.658   8.661
 5120SOL    HW216041   3.525   2.807   8.632
 5121SOL     OW16042   3.080   2.181   7.906
 5121SOL    HW116043   3.144   2.111   7.896
 5121SOL    HW216044   3.109   2.230   7.983
 5122SOL     OW16045   2.457   2.601   8.092
 5122SOL    HW116046   2.499   2.687   8.091
 5122SOL    HW216047   2.370   2.617   8.056
 5123SOL     OW16048   3.628   2.221   9.097
 5123SOL    HW116049   3.609   2.235   9.004
 5123SOL    HW216050   3.556   2.165   9.127
 5124SOL     OW16051   3.605   2.796   8.961
 5124SOL    HW116052   3.608   2.890   8.973
 5124SOL    HW216053   3.591   2.784   8.867
 5125SOL     OW16054   2.724   3.230   7.478
 5125SOL    HW116055   2.685   3.257   7.561
 5125SOL    HW216056   2.744   3.313   7.434
 5126SOL     OW16057   2.521   3.656   8.396
 5126SOL    HW116058   2.500   3.746   8.371
 5126SOL    HW216059   2.616   3.651   8.388
 5127SOL     OW16060   2.728   2.827   8.304
 5127SOL    HW116061   2.777   2.755   8.345
 5127SOL    HW216062   2.696   2.878   8.378
 5128SOL     OW16063   2.942   2.849   7.536
 5128SOL    HW116064   2.920   2.900   7.458
 5128SOL    HW216065   3.018   2.797   7.511
 5129SOL     OW16066   3.719   3.419   8.293
 5129SOL    HW116067   3.642   3.407   8.238
 5129SOL    HW216068   3.711   3.350   8.360
 5130SOL     OW16069   2.086   3.167   9.304
 5130SOL    HW116070   2.018   3.106   9.275
 5130SOL    HW216071   2.068   3.180   9.397
 5131SOL     OW16072   1.945   3.099   8.112
 5131SOL    HW116073   1.945   3.048   8.193
 5131SOL    HW216074   2.013   3.058   8.058
 5132SOL     OW16075   2.541   3.262   9.073
 5132SOL    HW116076   2.462   3.219   9.104
 5132SOL    HW216077   2.536   3.350   9.111
 5133SOL     OW16078   3.676   2.047   8.686
 5133SOL    HW116079   3.685   1.953   8.702
 5133SOL    HW216080   3.685   2.057   8.591
 5134SOL     OW16081   3.563   3.353   8.548
 5134SOL    HW116082   3.482   3.327   8.505
 5134SOL    HW216083   3.578   3.285   8.613
 5135SOL     OW16084   2.687   3.440   8.128
 5135SOL    HW116085   2.681   3.485   8.043
 5135SOL    HW216086   2.609   3.385   8.131
 5136SOL     OW16087   3.294   2.085   8.566
 5136SOL    HW116088   3.323   2.007   8.614
 5136SOL    HW216089   3.243   2.135   8.629
 5137SOL     OW16090   2.871   1.882   8.593
 5137SOL    HW116091   2.817   1.812   8.557
 5137SOL    HW216092   2.959   1.846   8.595
 5138SOL     OW16093   2.633   3.194   7.758
 5138SOL    HW116094   2.599   3.105   7.765
 5138SOL    HW216095   2.716   3.192   7.807
 5139SOL     OW16096   2.482   3.421   8.732
 5139SOL    HW116097   2.485   3.502   8.783
 5139SOL    HW216098   2.569   3.413   8.694
 5140SOL     OW16099   3.214   1.916   7.612
 5140SOL    HW116100   3.240   1.856   7.542
 5140SOL    HW216101   3.127   1.884   7.639
 5141SOL     OW16102   3.159   2.322   8.131
 5141SOL    HW116103   3.105   2.401   8.139
 5141SOL    HW216104   3.157   2.282   8.218
 5142SOL     OW16105   3.449   2.067   8.325
 5142SOL    HW116106   3.385   2.085   8.393
 5142SOL    HW216107   3.449   2.146   8.270
 5143SOL     OW16108   1.905   2.935   7.754
 5143SOL    HW116109   1.999   2.925   7.737
 5143SOL    HW216110   1.876   2.847   7.776
 5144SOL     OW16111   2.743   3.512   7.793
 5144SOL    HW116112   2.672   3.493   7.731
 5144SOL    HW216113   2.713   3.588   7.842
 5145SOL     OW16114   2.077   2.525   9.428
 5145SOL    HW116115   1.994   2.497   9.467
 5145SOL    HW216116   2.085   2.473   9.348
 5146SOL     OW16117   1.864   2.241   9.946
 5146SOL    HW116118   1.784   2.264   9.993
 5146SOL    HW216119   1.842   2.159   9.901
 5147SOL     OW16120   2.428   3.144  10.482
 5147SOL    HW116121   2.341   3.147  10.444
 5147SOL    HW216122   2.442   3.232  10.517
 5148SOL     OW16123   3.420   3.373  10.015
 5148SOL    HW116124   3.376   3.356  10.098
 5148SOL    HW216125   3.349   3.378   9.951
 5149SOL     OW16126   2.992   2.561  10.012
 5149SOL    HW116127   3.042   2.642  10.000
 5149SOL    HW216128   2.945   2.573  10.095
 5150SOL     OW16129   3.627   2.469   9.540
 5150SOL    HW116130   3.607   2.460   9.447
 5150SOL    HW216131   3.591   2.390   9.580
 5151SOL     OW16132   2.621   3.006  10.348
 5151SOL    HW116133   2.550   3.040  10.403
 5151SOL    HW216134   2.654   3.084  10.302
 5152SOL     OW16135   2.710   2.646   0.019
 5152SOL    HW116136   2.717   2.702   0.097
 5152SOL    HW216137   2.746   2.699  11.048
 5153SOL     OW16138   2.549   2.869   9.959
 5153SOL    HW116139   2.613   2.855  10.029
 5153SOL    HW216140   2.479   2.920  10.001
 5154SOL     OW16141   2.194   3.290  10.377
 5154SOL    HW116142   2.121   3.254  10.327
 5154SOL    HW216143   2.244   3.341  10.314
 5155SOL     OW16144   3.325   3.362  10.656
 5155SOL    HW116145   3.376   3.442  10.667
 5155SOL    HW216146   3.281   3.350  10.740
 5156SOL     OW16147   3.475   2.312  10.049
 5156SOL    HW116148   3.399   2.337   9.997
 5156SOL    HW216149   3.495   2.389  10.102
 5157SOL     OW16150   2.082   3.575   9.785
 5157SOL    HW116151   2.105   3.652   9.837
 5157SOL    HW216152   2.151   3.569   9.719
 5158SOL     OW16153   2.092   3.301   9.845
 5158SOL    HW116154   2.075   3.396   9.850
 5158SOL    HW216155   2.030   3.262   9.906
 5159SOL     OW16156   2.117   2.954  10.200
 5159SOL    HW116157   2.111   2.868  10.241
 5159SOL    HW216158   2.058   3.009  10.252
 5160SOL     OW16159   2.476   3.652  10.740
 5160SOL    HW116160   2.395   3.633  10.788
 5160SOL    HW216161   2.498   3.741  10.765
 5161SOL     OW16162   2.453   2.840   9.438
 5161SOL    HW116163   2.495   2.895   9.373
 5161SOL    HW216164   2.492   2.867   9.521
 5162SOL     OW16165   3.451   1.978  10.780
 5162SOL    HW116166   3.459   2.057  10.727
 5162SOL    HW216167   3.453   2.009  10.870
 5163SOL     OW16168   1.968   2.507   9.869
 5163SOL    HW116169   1.944   2.418   9.894
 5163SOL    HW216170   1.966   2.556   9.951
 5164SOL     OW16171   3.703   3.623   9.647
 5164SOL    HW116172   3.763   3.594   9.716
 5164SOL    HW216173   3.730   3.713   9.629
 5165SOL     OW16174   1.892   3.458   9.434
 5165SOL    HW116175   1.874   3.366   9.454
 5165SOL    HW216176   1.868   3.505   9.514
 5166SOL     OW16177   3.551   2.781   9.948
 5166SOL    HW116178   3.637   2.742   9.931
 5166SOL    HW216179   3.532   2.831   9.868
 5167SOL     OW16180   3.507   2.970   9.740
 5167SOL    HW116181   3.592   2.978   9.697
 5167SOL    HW216182   3.512   3.030   9.814
 5168SOL     OW16183   1.981   2.598  10.889
 5168SOL    HW116184   2.065   2.606  10.935
 5168SOL    HW216185   1.936   2.681  10.905
 5169SOL     OW16186   2.475   3.244  10.045
 5169SOL    HW116187   2.428   3.161  10.054
 5169SOL    HW216188   2.458   3.271   9.955
 5170SOL     OW16189   3.159   3.100  10.750
 5170SOL    HW116190   3.183   3.038  10.681
 5170SOL    HW216191   3.214   3.075  10.825
 5171SOL     OW16192   2.673   1.860   9.814
 5171SOL    HW116193   2.715   1.945   9.799
 5171SOL    HW216194   2.580   1.881   9.826
 5172SOL     OW16195   2.055   2.832  10.574
 5172SOL    HW116196   2.137   2.785  10.557
 5172SOL    HW216197   1.987   2.773  10.542
 5173SOL     OW16198   3.394   2.853   9.506
 5173SOL    HW116199   3.324   2.795   9.536
 5173SOL    HW216200   3.433   2.887   9.587
 5174SOL     OW16201   3.057   3.667  10.926
 5174SOL    HW116202   3.059   3.729  10.853
 5174SOL    HW216203   3.064   3.581  10.885
 5175SOL     OW16204   3.328   3.282  10.263
 5175SOL    HW116205   3.259   3.296  10.328
 5175SOL    HW216206   3.316   3.191  10.235
 5176SOL     OW16207   3.523   3.595   9.888
 5176SOL    HW116208   3.500   3.567   9.799
 5176SOL    HW216209   3.497   3.522   9.943
 5177SOL     OW16210   2.462   2.587   9.578
 5177SOL    HW116211   2.477   2.655   9.513
 5177SOL    HW216212   2.381   2.613   9.622
 5178SOL     OW16213   3.143   2.210  10.243
 5178SOL    HW116214   3.053   2.178  10.249
 5178SOL    HW216215   3.192   2.157  10.305
 5179SOL     OW16216   3.444   3.530   9.619
 5179SOL    HW116217   3.532   3.565   9.613
 5179SOL    HW216218   3.419   3.513   9.528
 5180SOL     OW16219   2.653   2.466  10.760
 5180SOL    HW116220   2.631   2.457  10.853
 5180SOL    HW216221   2.596   2.403  10.716
 5181SOL     OW16222   2.827   2.758  10.898
 5181SOL    HW116223   2.876   2.686  10.858
 5181SOL    HW216224   2.778   2.796  10.825
 5182SOL     OW16225   2.859   2.269  10.550
 5182SOL    HW116226   2.780   2.312  10.584
 5182SOL    HW216227   2.832   2.231  10.467
 5183SOL     OW16228   2.910   2.560   9.737
 5183SOL    HW116229   2.927   2.553   9.831
 5183SOL    HW216230   2.828   2.513   9.723
 5184SOL     OW16231   1.951   2.683  10.084
 5184SOL    HW116232   2.033   2.677  10.134
 5184SOL    HW216233   1.906   2.759  10.120
 5185SOL     OW16234   1.991   3.699  10.893
 5185SOL    HW116235   1.972   3.669  10.982
 5185SOL    HW216236   1.905   3.708  10.852
 5186SOL     OW16237   2.749   2.209   9.505
 5186SOL    HW116238   2.793   2.269   9.444
 5186SOL    HW216239   2.763   2.122   9.467
 5187SOL     OW16240   3.237   3.004   9.852
 5187SOL    HW116241   3.315   2.990   9.799
 5187SOL    HW216242   3.185   3.067   9.801
 5188SOL     OW16243   2.870   3.308   9.784
 5188SOL    HW116244   2.830   3.379   9.735
 5188SOL    HW216245   2.856   3.331   9.876
 5189SOL     OW16246   2.216   3.668  10.168
 5189SOL    HW116247   2.260   3.584  10.177
 5189SOL    HW216248   2.284   3.733  10.185
 5190SOL     OW16249   3.659   2.923  10.177
 5190SOL    HW116250   3.603   2.905  10.102
 5190SOL    HW216251   3.600   2.927  10.252
 5191SOL     OW16252   3.087   3.403  10.825
 5191SOL    HW116253   3.097   3.316  10.864
 5191SOL    HW216254   3.030   3.389  10.750
 5192SOL     OW16255   2.190   2.805   9.564
 5192SOL    HW116256   2.265   2.831   9.510
 5192SOL    HW216257   2.149   2.734   9.515
 5193SOL     OW16258   3.337   2.601  10.037
 5193SOL    HW116259   3.326   2.555  10.121
 5193SOL    HW216260   3.414   2.656  10.051
 5194SOL     OW16261   2.314   3.131  11.053
 5194SOL    HW116262   2.287   3.138  10.961
 5194SOL    HW216263   2.250   3.072  11.092
 5195SOL     OW16264   2.982   3.639   9.542
 5195SOL    HW116265   2.911   3.596   9.589
 5195SOL    HW216266   3.004   3.580   9.470
 5196SOL     OW16267   3.491   3.241   9.397
 5196SOL    HW116268   3.451   3.326   9.382
 5196SOL    HW216269   3.422   3.177   9.378
 5197SOL     OW16270   2.329   3.600   9.631
 5197SOL    HW116271   2.369   3.657   9.697
 5197SOL    HW216272   2.402   3.573   9.576
 5198SOL     OW16273   3.263   1.970   9.740
 5198SOL    HW116274   3.251   1.945   9.649
 5198SOL    HW216275   3.358   1.977   9.751
 5199SOL     OW16276   2.116   3.655  10.544
 5199SOL    HW116277   2.168   3.592  10.594
 5199SOL    HW216278   2.106   3.614  10.457
 5200SOL     OW16279   2.800   3.560  10.211
 5200SOL    HW116280   2.878   3.507  10.230
 5200SOL    HW216281   2.755   3.511  10.142
 5201SOL     OW16282   2.487   1.994   9.415
 5201SOL    HW116283   2.560   1.938   9.441
 5201SOL    HW216284   2.449   1.950   9.339
 5202SOL     OW16285   2.630   2.132  11.046
 5202SOL    HW116286   2.698   2.076  11.082
 5202SOL    HW216287   2.573   2.153   0.020
 5203SOL     OW16288   2.738   3.383  10.503
 5203SOL    HW116289   2.723   3.347  10.415
 5203SOL    HW216290   2.809   3.330  10.539
 5204SOL     OW16291   3.204   2.452  10.753
 5204SOL    HW116292   3.254   2.429  10.831
 5204SOL    HW216293   3.233   2.540  10.730
 5205SOL     OW16294   2.675   3.260  10.246
 5205SOL    HW116295   2.759   3.250  10.201
 5205SOL    HW216296   2.610   3.258  10.176
 5206SOL     OW16297   2.798   2.369  10.220
 5206SOL    HW116298   2.761   2.367  10.132
 5206SOL    HW216299   2.827   2.280  10.236
 5207SOL     OW16300   2.406   1.929   9.810
 5207SOL    HW116301   2.328   1.920   9.864
 5207SOL    HW216302   2.399   2.016   9.771
 5208SOL     OW16303   3.290   3.059   9.351
 5208SOL    HW116304   3.322   2.984   9.401
 5208SOL    HW216305   3.205   3.079   9.389
 5209SOL     OW16306   2.160   1.905   9.495
 5209SOL    HW116307   2.225   1.973   9.479
 5209SOL    HW216308   2.210   1.833   9.535
 5210SOL     OW16309   2.797   2.104   9.771
 5210SOL    HW116310   2.772   2.149   9.690
 5210SOL    HW216311   2.892   2.117   9.776
 5211SOL     OW16312   2.939   2.544  10.770
 5211SOL    HW116313   2.871   2.477  10.776
 5211SOL    HW216314   3.021   2.494  10.766
 5212SOL     OW16315   3.086   3.432  10.104
 5212SOL    HW116316   3.105   3.499  10.038
 5212SOL    HW216317   3.155   3.443  10.170
 5213SOL     OW16318   2.329   3.009  10.046
 5213SOL    HW116319   2.258   2.993  10.108
 5213SOL    HW216320   2.291   2.992   9.960
 5214SOL     OW16321   3.133   3.657   9.915
 5214SOL    HW116322   3.177   3.718   9.856
 5214SOL    HW216323   3.069   3.711   9.962
 5215SOL     OW16324   2.888   2.407   9.330
 5215SOL    HW116325   2.846   2.491   9.310
 5215SOL    HW216326   2.952   2.428   9.398
 5216SOL     OW16327   1.943   2.423  10.691
 5216SOL    HW116328   2.035   2.401  10.701
 5216SOL    HW216329   1.926   2.487  10.760
 5217SOL     OW16330   2.441   2.004  10.435
 5217SOL    HW116331   2.465   1.973  10.522
 5217SOL    HW216332   2.363   2.059  10.450
 5218SOL     OW16333   2.743   2.321   9.948
 5218SOL    HW116334   2.687   2.375   9.893
 5218SOL    HW216335   2.755   2.239   9.899
 5219SOL     OW16336   2.877   1.913  10.063
 5219SOL    HW116337   2.818   1.906   9.989
 5219SOL    HW216338   2.855   1.838  10.119
 5220SOL     OW16339   3.297   3.026  10.168
 5220SOL    HW116340   3.231   2.957  10.166
 5220SOL    HW216341   3.321   3.039  10.076
 5221SOL     OW16342   3.329   2.465  10.291
 5221SOL    HW116343   3.282   2.382  10.294
 5221SOL    HW216344   3.390   2.461  10.364
 5222SOL     OW16345   3.710   2.681   9.691
 5222SOL    HW116346   3.765   2.628   9.749
 5222SOL    HW216347   3.680   2.619   9.624
 5223SOL     OW16348   2.354   3.276   9.471
 5223SOL    HW116349   2.279   3.246   9.523
 5223SOL    HW216350   2.333   3.249   9.382
 5224SOL     OW16351   3.530   3.127   9.958
 5224SOL    HW116352   3.625   3.132   9.971
 5224SOL    HW216353   3.498   3.215   9.980
 5225SOL     OW16354   3.255   2.434   9.381
 5225SOL    HW116355   3.196   2.415   9.454
 5225SOL    HW216356   3.340   2.400   9.411
 5226SOL     OW16357   3.622   3.091  10.874
 5226SOL    HW116358   3.713   3.061  10.878
 5226SOL    HW216359   3.624   3.178  10.914
 5227SOL     OW16360   2.927   3.216  10.650
 5227SOL    HW116361   2.849   3.183  10.695
 5227SOL    HW216362   3.000   3.168  10.690
 5228SOL     OW16363   2.988   3.066  10.417
 5228SOL    HW116364   2.925   3.102  10.480
 5228SOL    HW216365   2.955   3.094  10.332
 5229SOL     OW16366   3.493   2.962  10.389
 5229SOL    HW116367   3.489   3.024  10.462
 5229SOL    HW216368   3.412   2.978  10.340
 5230SOL     OW16369   2.783   1.959  10.709
 5230SOL    HW116370   2.804   1.941  10.618
 5230SOL    HW216371   2.862   2.001  10.744
 5231SOL     OW16372   2.570   2.922   9.682
 5231SOL    HW116373   2.557   2.909   9.775
 5231SOL    HW216374   2.646   2.868   9.659
 5232SOL     OW16375   2.280   2.669  10.561
 5232SOL    HW116376   2.351   2.690  10.622
 5232SOL    HW216377   2.237   2.593  10.600
 5233SOL     OW16378   3.132   2.240  10.586
 5233SOL    HW116379   3.162   2.320  10.630
 5233SOL    HW216380   3.043   2.261  10.557
 5234SOL     OW16381   1.930   3.436  10.658
 5234SOL    HW116382   1.899   3.510  10.605
 5234SOL    HW216383   2.025   3.442  10.654
 5235SOL     OW16384   2.218   2.966   9.800
 5235SOL    HW116385   2.220   3.044   9.745
 5235SOL    HW216386   2.213   2.893   9.738
 5236SOL     OW16387   2.515   2.429  10.147
 5236SOL    HW116388   2.487   2.485  10.075
 5236SOL    HW216389   2.474   2.466  10.225
 5237SOL     OW16390   3.110   3.210   9.699
 5237SOL    HW116391   3.165   3.282   9.730
 5237SOL    HW216392   3.023   3.230   9.733
 5238SOL     OW16393   3.138   3.319  10.454
 5238SOL    HW116394   3.194   3.322  10.531
 5238SOL    HW216395   3.085   3.240  10.466
 5239SOL     OW16396   3.445   2.488   9.786
 5239SOL    HW116397   3.401   2.543   9.850
 5239SOL    HW216398   3.490   2.549   9.728
 5240SOL     OW16399   2.209   3.384  10.627
 5240SOL    HW116400   2.197   3.342  10.542
 5240SOL    HW216401   2.303   3.399  10.633
 5241SOL     OW16402   2.279   2.600  10.905
 5241SOL    HW116403   2.342   2.647  10.850
 5241SOL    HW216404   2.325   2.520  10.931
 5242SOL     OW16405   3.453   2.625  10.971
 5242SOL    HW116406   3.375   2.681  10.964
 5242SOL    HW216407   3.522   2.675  10.928
 5243SOL     OW16408   2.440   2.731  10.337
 5243SOL    HW116409   2.477   2.819  10.332
 5243SOL    HW216410   2.388   2.731  10.418
 5244SOL     OW16411   3.222   2.722  10.346
 5244SOL    HW116412   3.141   2.715  10.295
 5244SOL    HW216413   3.260   2.635  10.342
 5245SOL     OW16414   3.069   2.391   9.579
 5245SOL    HW116415   3.077   2.313   9.633
 5245SOL    HW216416   3.027   2.455   9.636
 5246SOL     OW16417   1.912   3.173  10.586
 5246SOL    HW116418   1.939   3.119  10.661
 5246SOL    HW216419   1.915   3.263  10.619
 5247SOL     OW16420   2.613   2.513  10.401
 5247SOL    HW116421   2.650   2.467  10.326
 5247SOL    HW216422   2.568   2.589  10.363
 5248SOL     OW16423   2.161   1.905   9.939
 5248SOL    HW116424   2.120   1.989   9.960
 5248SOL    HW216425   2.170   1.861  10.023
 5249SOL     OW16426   3.476   2.234   9.679
 5249SOL    HW116427   3.503   2.171   9.745
 5249SOL    HW216428   3.452   2.313   9.729
 5250SOL     OW16429   2.890   2.623  10.271
 5250SOL    HW116430   2.889   2.641  10.365
 5250SOL    HW216431   2.859   2.533  10.263
 5251SOL     OW16432   2.836   3.434  11.004
 5251SOL    HW116433   2.822   3.483  10.924
 5251SOL    HW216434   2.869   3.349  10.975
 5252SOL     OW16435   3.721   3.359  10.912
 5252SOL    HW116436   3.735   3.393  10.824
 5252SOL    HW216437   3.788   3.401  10.965
 5253SOL     OW16438   2.225   2.790  11.090
 5253SOL    HW116439   2.309   2.796   0.035
 5253SOL    HW216440   2.235   2.717  11.028
 5254SOL     OW16441   3.393   2.136   9.437
 5254SOL    HW116442   3.329   2.070   9.464
 5254SOL    HW216443   3.425   2.172   9.520
 5255SOL     OW16444   3.156   2.689   9.343
 5255SOL    HW116445   3.199   2.603   9.346
 5255SOL    HW216446   3.187   2.728   9.261
 5256SOL     OW16447   2.927   3.196  10.163
 5256SOL    HW116448   2.930   3.124  10.100
 5256SOL    HW216449   2.990   3.260  10.128
 5257SOL     OW16450   2.173   2.678  10.254
 5257SOL    HW116451   2.267   2.699  10.251
 5257SOL    HW216452   2.169   2.597  10.305
 5258SOL     OW16453   3.019   2.072  10.782
 5258SOL    HW116454   3.032   2.130  10.857
 5258SOL    HW216455   3.057   2.120  10.708
 5259SOL     OW16456   1.867   3.184   9.505
 5259SOL    HW116457   1.780   3.198   9.467
 5259SOL    HW216458   1.865   3.094   9.538
 5260SOL     OW16459   1.951   3.651  10.246
 5260SOL    HW116460   1.921   3.571  10.203
 5260SOL    HW216461   2.042   3.662  10.215
 5261SOL     OW16462   2.361   3.435  10.215
 5261SOL    HW116463   2.430   3.497  10.239
 5261SOL    HW216464   2.406   3.370  10.161
 5262SOL     OW16465   2.850   2.661  10.538
 5262SOL    HW116466   2.897   2.633  10.617
 5262SOL    HW216467   2.766   2.616  10.542
 5263SOL     OW16468   1.906   2.418  10.422
 5263SOL    HW116469   1.960   2.348  10.386
 5263SOL    HW216470   1.923   2.415  10.516
 5264SOL     OW16471   2.675   2.429   9.665
 5264SOL    HW116472   2.680   2.356   9.604
 5264SOL    HW216473   2.601   2.482   9.634
 5265SOL     OW16474   3.505   2.463  10.498
 5265SOL    HW116475   3.495   2.404  10.572
 5265SOL    HW216476   3.592   2.444  10.463
 5266SOL     OW16477   2.118   3.426  11.054
 5266SOL    HW116478   2.065   3.466   0.023
 5266SOL    HW216479   2.115   3.332  11.074
 5267SOL     OW16480   2.803   3.544  10.760
 5267SOL    HW116481   2.764   3.513  10.678
 5267SOL    HW216482   2.790   3.639  10.759
 5268SOL     OW16483   2.017   3.000  10.781
 5268SOL    HW116484   2.011   2.943  10.858
 5268SOL    HW216485   2.029   2.939  10.708
 5269SOL     OW16486   3.189   2.916  10.539
 5269SOL    HW116487   3.217   2.851  10.474
 5269SOL    HW216488   3.117   2.962  10.497
 5270SOL     OW16489   3.171   2.718   9.617
 5270SOL    HW116490   3.094   2.688   9.666
 5270SOL    HW216491   3.148   2.705   9.525
 5271SOL     OW16492   3.632   3.609  10.460
 5271SOL    HW116493   3.691   3.635  10.389
 5271SOL    HW216494   3.607   3.519  10.440
 5272SOL     OW16495   3.103   3.595  10.427
 5272SOL    HW116496   3.185   3.614  10.381
 5272SOL    HW216497   3.107   3.501  10.443
 5273SOL     OW16498   1.946   3.128  10.323
 5273SOL    HW116499   1.934   3.140  10.417
 5273SOL    HW216500   1.870   3.075  10.296
 5274SOL     OW16501   3.580   2.005   9.822
 5274SOL    HW116502   3.654   1.990   9.763
 5274SOL    HW216503   3.565   1.919   9.862
 5275SOL     OW16504   3.252   3.430   9.793
 5275SOL    HW116505   3.313   3.460   9.725
 5275SOL    HW216506   3.205   3.508   9.820
 5276SOL     OW16507   3.139   2.787   9.982
 5276SOL    HW116508   3.212   2.725   9.986
 5276SOL    HW216509   3.173   2.860   9.929
 5277SOL     OW16510   2.684   3.134  10.739
 5277SOL    HW116511   2.654   3.168  10.824
 5277SOL    HW216512   2.613   3.156  10.679
 5278SOL     OW16513   2.534   3.479   9.465
 5278SOL    HW116514   2.543   3.490   9.371
 5278SOL    HW216515   2.481   3.400   9.476
 5279SOL     OW16516   3.489   3.581  10.700
 5279SOL    HW116517   3.541   3.595  10.621
 5279SOL    HW216518   3.475   3.669  10.735
 5280SOL     OW16519   3.702   2.035  10.278
 5280SOL    HW116520   3.731   1.949  10.249
 5280SOL    HW216521   3.615   2.046  10.238
 5281SOL     OW16522   3.068   3.470   9.341
 5281SOL    HW116523   3.060   3.379   9.368
 5281SOL    HW216524   3.003   3.480   9.271
 5282SOL     OW16525   2.686   2.868  10.684
 5282SOL    HW116526   2.730   2.861  10.600
 5282SOL    HW216527   2.689   2.961  10.705
 5283SOL     OW16528   2.777   2.772   9.599
 5283SOL    HW116529   2.839   2.804   9.534
 5283SOL    HW216530   2.824   2.701   9.644
 5284SOL     OW16531   3.357   3.486   9.352
 5284SOL    HW116532   3.262   3.483   9.341
 5284SOL    HW216533   3.392   3.492   9.263
 5285SOL     OW16534   2.230   3.165  10.804
 5285SOL    HW116535   2.217   3.241  10.747
 5285SOL    HW216536   2.156   3.108  10.786
 5286SOL     OW16537   3.474   3.145  10.593
 5286SOL    HW116538   3.531   3.135  10.669
 5286SOL    HW216539   3.417   3.218  10.615
 5287SOL     OW16540   2.910   2.967  10.015
 5287SOL    HW116541   2.840   2.915  10.055
 5287SOL    HW216542   2.971   2.902   9.981
 5288SOL     OW16543   2.884   2.101  10.276
 5288SOL    HW116544   2.877   2.054  10.193
 5288SOL    HW216545   2.877   2.033  10.343
 5289SOL     OW16546   2.464   3.351   9.793
 5289SOL    HW116547   2.504   3.300   9.722
 5289SOL    HW216548   2.397   3.404   9.749
 5290SOL     OW16549   3.578   2.256  10.688
 5290SOL    HW116550   3.650   2.318  10.688
 5290SOL    HW216551   3.609   2.184  10.632
 5291SOL     OW16552   2.120   3.208   9.597
 5291SOL    HW116553   2.027   3.207   9.575
 5291SOL    HW216554   2.123   3.245   9.685
 5292SOL     OW16555   1.973   2.871  11.021
 5292SOL    HW116556   1.904   2.853  11.084
 5292SOL    HW216557   2.054   2.844  11.065
 5293SOL     OW16558   2.542   2.051  10.799
 5293SOL    HW116559   2.627   2.028  10.761
 5293SOL    HW216560   2.563   2.091  10.884
 5294SOL     OW16561   1.900   2.193   9.350
 5294SOL    HW116562   1.821   2.163   9.305
 5294SOL    HW216563   1.927   2.271   9.301
 5295SOL     OW16564   3.293   2.711  10.710
 5295SOL    HW116565   3.245   2.778  10.661
 5295SOL    HW216566   3.384   2.720  10.681
 5296SOL     OW16567   1.934   2.020   9.625
 5296SOL    HW116568   1.912   2.096   9.572
 5296SOL    HW216569   2.019   1.991   9.592
 5297SOL     OW16570   3.042   3.204   9.427
 5297SOL    HW116571   2.951   3.174   9.430
 5297SOL    HW216572   3.071   3.203   9.518
 5298SOL     OW16573   2.483   2.693  10.740
 5298SOL    HW116574   2.536   2.772  10.727
 5298SOL    HW216575   2.546   2.622  10.747
 5299SOL     OW16576   3.347   3.636  10.285
 5299SOL    HW116577   3.374   3.694  10.213
 5299SOL    HW216578   3.427   3.620  10.334
 5300SOL     OW16579   2.578   2.427  11.017
 5300SOL    HW116580   2.609   2.500  11.071
 5300SOL    HW216581   2.632   2.353  11.044
 5301SOL     OW16582   2.246   3.594  10.869
 5301SOL    HW116583   2.166   3.646  10.864
 5301SOL    HW216584   2.223   3.519  10.925
 5302SOL     OW16585   3.534   2.745  10.567
 5302SOL    HW116586   3.525   2.659  10.524
 5302SOL    HW216587   3.526   2.808  10.495
 5303SOL     OW16588   3.080   2.182   9.767
 5303SOL    HW116589   3.144   2.111   9.759
 5303SOL    HW216590   3.108   2.230   9.845
 5304SOL     OW16591   2.443   2.613   9.964
 5304SOL    HW116592   2.490   2.696   9.953
 5304SOL    HW216593   2.366   2.621   9.908
 5305SOL     OW16594   3.617   2.183  10.950
 5305SOL    HW116595   3.598   2.219  10.864
 5305SOL    HW216596   3.536   2.194  10.999
 5306SOL     OW16597   3.610   2.797  10.825
 5306SOL    HW116598   3.605   2.892  10.838
 5306SOL    HW216599   3.593   2.785  10.732
 5307SOL     OW16600   2.724   3.230   9.340
 5307SOL    HW116601   2.685   3.257   9.423
 5307SOL    HW216602   2.744   3.313   9.296
 5308SOL     OW16603   2.521   3.656  10.258
 5308SOL    HW116604   2.499   3.746  10.234
 5308SOL    HW216605   2.616   3.651  10.249
 5309SOL     OW16606   2.727   2.826  10.166
 5309SOL    HW116607   2.777   2.755  10.205
 5309SOL    HW216608   2.697   2.878  10.241
 5310SOL     OW16609   2.941   2.849   9.398
 5310SOL    HW116610   2.920   2.900   9.320
 5310SOL    HW216611   3.017   2.797   9.373
 5311SOL     OW16612   3.719   3.418  10.155
 5311SOL    HW116613   3.642   3.407  10.100
 5311SOL    HW216614   3.711   3.350  10.222
 5312SOL     OW16615   1.945   3.099   9.974
 5312SOL    HW116616   1.944   3.048  10.055
 5312SOL    HW216617   2.013   3.058   9.921
 5313SOL     OW16618   2.540   3.255  10.934
 5313SOL    HW116619   2.466   3.206  10.970
 5313SOL    HW216620   2.513   3.347  10.942
 5314SOL     OW16621   3.674   2.047  10.549
 5314SOL    HW116622   3.684   1.953  10.563
 5314SOL    HW216623   3.684   2.058  10.454
 5315SOL     OW16624   3.563   3.354  10.411
 5315SOL    HW116625   3.483   3.327  10.367
 5315SOL    HW216626   3.580   3.285  10.475
 5316SOL     OW16627   2.687   3.440   9.990
 5316SOL    HW116628   2.681   3.485   9.906
 5316SOL    HW216629   2.609   3.385   9.993
 5317SOL     OW16630   3.294   2.085  10.428
 5317SOL    HW116631   3.324   2.007  10.476
 5317SOL    HW216632   3.243   2.134  10.493
 5318SOL     OW16633   2.870   1.881  10.457
 5318SOL    HW116634   2.817   1.813  10.415
 5318SOL    HW216635   2.958   1.845  10.458
 5319SOL     OW16636   2.633   3.194   9.620
 5319SOL    HW116637   2.600   3.105   9.627
 5319SOL    HW216638   2.716   3.192   9.669
 5320SOL     OW16639   2.481   3.420  10.595
 5320SOL    HW116640   2.483   3.502  10.644
 5320SOL    HW216641   2.568   3.414  10.555
 5321SOL     OW16642   3.214   1.916   9.474
 5321SOL    HW116643   3.240   1.856   9.403
 5321SOL    HW216644   3.128   1.884   9.501
 5322SOL     OW16645   3.160   2.322   9.993
 5322SOL    HW116646   3.104   2.400  10.000
 5322SOL    HW216647   3.156   2.282  10.080
 5323SOL     OW16648   3.450   2.068  10.187
 5323SOL    HW116649   3.385   2.085  10.255
 5323SOL    HW216650   3.449   2.146  10.132
 5324SOL     OW16651   1.905   2.935   9.616
 5324SOL    HW116652   1.998   2.926   9.599
 5324SOL    HW216653   1.875   2.847   9.638
 5325SOL     OW16654   2.743   3.511   9.655
 5325SOL    HW116655   2.672   3.494   9.593
 5325SOL    HW216656   2.713   3.588   9.704
 5326SOL     OW16657   2.068   4.295   0.090
 5326SOL    HW116658   2.037   4.352   0.160
 5326SOL    HW216659   2.082   4.354   0.016
 5327SOL     OW16660   2.086   4.001   0.990
 5327SOL    HW116661   2.114   3.969   1.076
 5327SOL    HW216662   1.996   3.969   0.981
 5328SOL     OW16663   1.868   4.102   0.643
 5328SOL    HW116664   1.784   4.128   0.681
 5328SOL    HW216665   1.848   4.025   0.590
 5329SOL     OW16666   3.600   4.333   0.228
 5329SOL    HW116667   3.607   4.305   0.137
 5329SOL    HW216668   3.591   4.251   0.278
 5330SOL     OW16669   2.592   0.267   0.683
 5330SOL    HW116670   2.588   0.204   0.755
 5330SOL    HW216671   2.500   0.285   0.661
 5331SOL     OW16672   2.308   4.119   1.488
 5331SOL    HW116673   2.385   4.062   1.495
 5331SOL    HW216674   2.234   4.060   1.502
 5332SOL     OW16675   3.477   4.173   0.739
 5332SOL    HW116676   3.405   4.200   0.682
 5332SOL    HW216677   3.486   4.245   0.802
 5333SOL     OW16678   3.459   3.845   1.470
 5333SOL    HW116679   3.456   3.924   1.416
 5333SOL    HW216680   3.446   3.876   1.560
 5334SOL     OW16681   1.952   4.365   0.561
 5334SOL    HW116682   1.934   4.276   0.588
 5334SOL    HW216683   1.998   4.404   0.635
 5335SOL     OW16684   1.982   4.472   1.584
 5335SOL    HW116685   2.052   4.486   1.647
 5335SOL    HW216686   1.949   0.060   1.565
 5336SOL     OW16687   2.674   3.724   0.505
 5336SOL    HW116688   2.713   3.810   0.491
 5336SOL    HW216689   2.581   3.742   0.516
 5337SOL     OW16690   2.192   3.976   1.805
 5337SOL    HW116691   2.237   4.059   1.822
 5337SOL    HW216692   2.103   3.988   1.838
 5338SOL     OW16693   3.140   4.070   0.932
 5338SOL    HW116694   3.051   4.036   0.941
 5338SOL    HW216695   3.192   4.019   0.995
 5339SOL     OW16696   2.685   4.310   1.451
 5339SOL    HW116697   2.643   4.315   1.537
 5339SOL    HW216698   2.620   4.267   1.395
 5340SOL     OW16699   3.258   4.199   1.677
 5340SOL    HW116700   3.257   4.242   1.762
 5340SOL    HW216701   3.318   4.125   1.687
 5341SOL     OW16702   2.858   4.147   1.235
 5341SOL    HW116703   2.783   4.168   1.292
 5341SOL    HW216704   2.821   4.089   1.168
 5342SOL     OW16705   2.921   4.403   0.424
 5342SOL    HW116706   2.920   4.450   0.507
 5342SOL    HW216707   2.829   4.384   0.406
 5343SOL     OW16708   2.745   4.072   0.208
 5343SOL    HW116709   2.793   4.129   0.147
 5343SOL    HW216710   2.761   3.984   0.175
 5344SOL     OW16711   3.568   4.298   1.828
 5344SOL    HW116712   3.577   4.387   1.795
 5344SOL    HW216713   3.591   4.242   1.754
 5345SOL     OW16714   2.412   3.907   0.891
 5345SOL    HW116715   2.413   3.934   0.983
 5345SOL    HW216716   2.411   3.990   0.843
 5346SOL     OW16717   3.348   4.460   0.736
 5346SOL    HW116718   3.329   4.407   0.814
 5346SOL    HW216719   3.390   0.039   0.771
 5347SOL     OW16720   2.060   4.006   1.502
 5347SOL    HW116721   1.976   4.052   1.493
 5347SOL    HW216722   2.046   3.943   1.572
 5348SOL     OW16723   3.264   3.831   0.429
 5348SOL    HW116724   3.254   3.808   0.337
 5348SOL    HW216725   3.358   3.840   0.442
 5349SOL     OW16726   2.219   4.381   0.409
 5349SOL    HW116727   2.259   4.309   0.457
 5349SOL    HW216728   2.148   4.412   0.466
 5350SOL     OW16729   3.400   3.951   1.725
 5350SOL    HW116730   3.407   3.972   1.818
 5350SOL    HW216731   3.332   3.883   1.722
 5351SOL     OW16732   2.476   3.831   0.125
 5351SOL    HW116733   2.567   3.801   0.121
 5351SOL    HW216734   2.443   3.818   0.036
 5352SOL     OW16735   2.630   4.001   1.753
 5352SOL    HW116736   2.703   3.939   1.759
 5352SOL    HW216737   2.578   3.985   1.832
 5353SOL     OW16738   3.208   4.311   1.428
 5353SOL    HW116739   3.230   4.274   1.514
 5353SOL    HW216740   3.244   4.399   1.430
 5354SOL     OW16741   2.784   4.237   0.900
 5354SOL    HW116742   2.762   4.220   0.808
 5354SOL    HW216743   2.824   4.155   0.930
 5355SOL     OW16744   2.410   3.787   0.506
 5355SOL    HW116745   2.329   3.787   0.556
 5355SOL    HW216746   2.405   3.865   0.452
 5356SOL     OW16747   2.149   3.770   0.198
 5356SOL    HW116748   2.191   3.825   0.132
 5356SOL    HW216749   2.216   3.707   0.223
 5357SOL     OW16750   2.799   3.970   0.465
 5357SOL    HW116751   2.771   4.012   0.384
 5357SOL    HW216752   2.894   3.982   0.467
 5358SOL     OW16753   2.940   4.396   1.512
 5358SOL    HW116754   2.855   4.365   1.479
 5358SOL    HW216755   3.005   4.352   1.457
 5359SOL     OW16756   2.871   4.266   0.039
 5359SOL    HW116757   2.879   4.329  11.067
 5359SOL    HW216758   2.952   4.277   0.089
 5360SOL     OW16759   1.936   4.280   1.391
 5360SOL    HW116760   2.027   4.272   1.363
 5360SOL    HW216761   1.936   4.353   1.453
 5361SOL     OW16762   2.423   3.950   1.163
 5361SOL    HW116763   2.462   3.871   1.200
 5361SOL    HW216764   2.332   3.949   1.193
 5362SOL     OW16765   2.731   4.188   0.639
 5362SOL    HW116766   2.698   4.249   0.573
 5362SOL    HW216767   2.749   4.107   0.591
 5363SOL     OW16768   2.876   3.777   0.754
 5363SOL    HW116769   2.817   3.768   0.678
 5363SOL    HW216770   2.856   3.701   0.808
 5364SOL     OW16771   3.338   4.313   0.970
 5364SOL    HW116772   3.284   4.237   0.990
 5364SOL    HW216773   3.391   4.326   1.049
 5365SOL     OW16774   3.261   4.294   0.073
 5365SOL    HW116775   3.197   4.277   0.142
 5365SOL    HW216776   3.331   4.231   0.089
 5366SOL     OW16777   2.390   3.990   0.327
 5366SOL    HW116778   2.415   3.929   0.257
 5366SOL    HW216779   2.373   4.073   0.282
 5367SOL     OW16780   2.780   3.822   1.399
 5367SOL    HW116781   2.803   3.802   1.308
 5367SOL    HW216782   2.859   3.861   1.435
 5368SOL     OW16783   2.295   0.008   1.267
 5368SOL    HW116784   2.360   0.008   1.337
 5368SOL    HW216785   2.252   4.422   1.273
 5369SOL     OW16786   3.128   4.101   1.272
 5369SOL    HW116787   3.162   4.178   1.318
 5369SOL    HW216788   3.039   4.125   1.247
 5370SOL     OW16789   2.417   4.257   0.865
 5370SOL    HW116790   2.438   4.303   0.784
 5370SOL    HW216791   2.480   4.289   0.929
 5371SOL     OW16792   3.443   4.343   0.478
 5371SOL    HW116793   3.398   4.406   0.534
 5371SOL    HW216794   3.488   4.397   0.413
 5372SOL     OW16795   2.858   3.842   1.757
 5372SOL    HW116796   2.910   3.916   1.725
 5372SOL    HW216797   2.908   3.764   1.730
 5373SOL     OW16798   2.360   3.768   1.746
 5373SOL    HW116799   2.319   3.713   1.679
 5373SOL    HW216800   2.300   3.840   1.758
 5374SOL     OW16801   3.074   4.252   0.267
 5374SOL    HW116802   3.084   4.173   0.320
 5374SOL    HW216803   3.025   4.312   0.323
 5375SOL     OW16804   2.163   3.924   1.245
 5375SOL    HW116805   2.126   3.957   1.327
 5375SOL    HW216806   2.143   3.831   1.246
 5376SOL     OW16807   2.592   4.360   1.049
 5376SOL    HW116808   2.666   4.325   0.997
 5376SOL    HW216809   2.596   4.454   1.035
 5377SOL     OW16810   3.612   0.137   1.856
 5377SOL    HW116811   3.550   0.148   1.784
 5377SOL    HW216812   3.565   0.167   1.934
 5378SOL     OW16813   2.164   3.790   0.623
 5378SOL    HW116814   2.146   3.881   0.648
 5378SOL    HW216815   2.169   3.743   0.706
 5379SOL     OW16816   3.474   4.092   0.369
 5379SOL    HW116817   3.503   4.030   0.436
 5379SOL    HW216818   3.453   4.171   0.418
 5380SOL     OW16819   3.398   4.009   0.118
 5380SOL    HW116820   3.338   3.937   0.135
 5380SOL    HW216821   3.429   4.035   0.204
 5381SOL     OW16822   2.179   0.012   0.921
 5381SOL    HW116823   2.256   0.068   0.934
 5381SOL    HW216824   2.191   4.441   0.984
 5382SOL     OW16825   2.199   4.239   1.020
 5382SOL    HW116826   2.159   4.154   0.999
 5382SOL    HW216827   2.272   4.247   0.958
 5383SOL     OW16828   3.000   4.096   1.683
 5383SOL    HW116829   2.949   4.155   1.739
 5383SOL    HW216830   3.085   4.139   1.674
 5384SOL     OW16831   3.022   3.928   1.469
 5384SOL    HW116832   3.013   3.989   1.542
 5384SOL    HW216833   3.060   3.980   1.398
 5385SOL     OW16834   1.899   4.270   1.115
 5385SOL    HW116835   1.980   4.250   1.068
 5385SOL    HW216836   1.924   4.274   1.207
 5386SOL     OW16837   2.054   4.243   1.717
 5386SOL    HW116838   2.111   4.200   1.654
 5386SOL    HW216839   1.999   4.301   1.665
 5387SOL     OW16840   2.676   4.307   0.327
 5387SOL    HW116841   2.685   4.220   0.287
 5387SOL    HW216842   2.582   4.318   0.340
 5388SOL     OW16843   3.500   4.319   1.190
 5388SOL    HW116844   3.494   4.260   1.265
 5388SOL    HW216845   3.588   4.304   1.154
 5389SOL     OW16846   2.546   4.182   1.258
 5389SOL    HW116847   2.502   4.104   1.226
 5389SOL    HW216848   2.549   4.241   1.183
 5390SOL     OW16849   2.337   4.219   0.186
 5390SOL    HW116850   2.378   4.304   0.202
 5390SOL    HW216851   2.243   4.237   0.186
 5391SOL     OW16852   2.779   3.814   0.111
 5391SOL    HW116853   2.830   3.780   0.038
 5391SOL    HW216854   2.814   3.771   0.188
 5392SOL     OW16855   3.580   3.866   0.512
 5392SOL    HW116856   3.654   3.853   0.453
 5392SOL    HW216857   3.565   3.780   0.552
 5393SOL     OW16858   3.141   0.138   0.681
 5393SOL    HW116859   3.198   0.062   0.686
 5393SOL    HW216860   3.189   0.201   0.628
 5394SOL     OW16861   3.701   3.897   0.968
 5394SOL    HW116862   3.730   3.811   0.938
 5394SOL    HW216863   3.615   3.908   0.928
 5395SOL     OW16864   2.126   4.043   0.719
 5395SOL    HW116865   2.039   4.074   0.693
 5395SOL    HW216866   2.120   4.031   0.814
 5396SOL     OW16867   2.925   0.306   0.720
 5396SOL    HW116868   2.839   0.267   0.702
 5396SOL    HW216869   2.988   0.238   0.696
 5397SOL     OW16870   2.881   3.964   0.965
 5397SOL    HW116871   2.876   3.915   0.883
 5397SOL    HW216872   2.876   3.897   1.033
 5398SOL     OW16873   3.581   4.114   1.380
 5398SOL    HW116874   3.652   4.178   1.377
 5398SOL    HW216875   3.611   4.043   1.324
 5399SOL     OW16876   2.535   3.919   1.499
 5399SOL    HW116877   2.618   3.902   1.456
 5399SOL    HW216878   2.558   3.950   1.587
 5400SOL     OW16879   1.939   4.052   0.053
 5400SOL    HW116880   1.870   4.045  11.087
 5400SOL    HW216881   1.969   4.142   0.047
 5401SOL     OW16882   1.932   3.884   0.316
 5401SOL    HW116883   1.917   3.960   0.259
 5401SOL    HW216884   2.014   3.846   0.285
 5402SOL     OW16885   2.587   4.288   1.704
 5402SOL    HW116886   2.594   4.336   1.787
 5402SOL    HW216887   2.616   4.199   1.725
 5403SOL     OW16888   3.080   4.040   0.456
 5403SOL    HW116889   3.145   3.971   0.446
 5403SOL    HW216890   3.109   4.089   0.533
 5404SOL     OW16891   3.625   4.088   1.647
 5404SOL    HW116892   3.607   4.098   1.554
 5404SOL    HW216893   3.556   4.030   1.679
 5405SOL     OW16894   2.960   0.204   0.051
 5405SOL    HW116895   2.960   0.288   0.006
 5405SOL    HW216896   3.052   0.176   0.051
 5406SOL     OW16897   3.677   3.909   1.238
 5406SOL    HW116898   3.686   3.815   1.254
 5406SOL    HW216899   3.685   3.919   1.143
 5407SOL     OW16900   2.306   4.153   0.538
 5407SOL    HW116901   2.326   4.084   0.475
 5407SOL    HW216902   2.249   4.112   0.603
 5408SOL     OW16903   2.185   4.265   1.293
 5408SOL    HW116904   2.241   4.210   1.348
 5408SOL    HW216905   2.206   4.238   1.203
 5409SOL     OW16906   3.294   3.947   1.118
 5409SOL    HW116907   3.323   3.870   1.165
 5409SOL    HW216908   3.242   3.996   1.181
 5410SOL     OW16909   2.870   3.745   1.145
 5410SOL    HW116910   2.816   3.676   1.107
 5410SOL    HW216911   2.958   3.707   1.147
 5411SOL     OW16912   3.213   3.778   0.164
 5411SOL    HW116913   3.236   3.728   0.085
 5411SOL    HW216914   3.127   3.744   0.189
 5412SOL     OW16915   3.162   4.176   0.682
 5412SOL    HW116916   3.119   4.260   0.695
 5412SOL    HW216917   3.162   4.135   0.769
 5413SOL     OW16918   3.449   3.929   0.877
 5413SOL    HW116919   3.385   3.948   0.946
 5413SOL    HW216920   3.450   4.008   0.822
 5414SOL     OW16921   2.088   4.292   1.985
 5414SOL    HW116922   2.027   4.356   2.021
 5414SOL    HW216923   2.078   4.299   1.891
 5415SOL     OW16924   2.086   4.000   2.852
 5415SOL    HW116925   2.114   3.969   2.938
 5415SOL    HW216926   1.996   3.969   2.843
 5416SOL     OW16927   1.868   4.101   2.505
 5416SOL    HW116928   1.785   4.129   2.543
 5416SOL    HW216929   1.846   4.025   2.453
 5417SOL     OW16930   3.598   4.335   2.098
 5417SOL    HW116931   3.596   4.320   2.004
 5417SOL    HW216932   3.595   4.247   2.136
 5418SOL     OW16933   2.588   0.266   2.544
 5418SOL    HW116934   2.586   0.209   2.621
 5418SOL    HW216935   2.495   0.285   2.526
 5419SOL     OW16936   2.308   4.119   3.350
 5419SOL    HW116937   2.385   4.062   3.357
 5419SOL    HW216938   2.234   4.060   3.364
 5420SOL     OW16939   3.477   4.173   2.600
 5420SOL    HW116940   3.405   4.200   2.544
 5420SOL    HW216941   3.486   4.245   2.664
 5421SOL     OW16942   3.458   3.845   3.332
 5421SOL    HW116943   3.456   3.924   3.278
 5421SOL    HW216944   3.446   3.876   3.422
 5422SOL     OW16945   1.945   4.369   2.428
 5422SOL    HW116946   1.935   4.277   2.451
 5422SOL    HW216947   2.001   4.405   2.496
 5423SOL     OW16948   1.982   4.472   3.447
 5423SOL    HW116949   2.053   4.487   3.509
 5423SOL    HW216950   1.949   0.060   3.427
 5424SOL     OW16951   2.674   3.723   2.367
 5424SOL    HW116952   2.714   3.808   2.352
 5424SOL    HW216953   2.581   3.742   2.379
 5425SOL     OW16954   2.192   3.975   3.668
 5425SOL    HW116955   2.237   4.059   3.684
 5425SOL    HW216956   2.103   3.989   3.700
 5426SOL     OW16957   3.140   4.070   2.794
 5426SOL    HW116958   3.051   4.036   2.803
 5426SOL    HW216959   3.192   4.019   2.857
 5427SOL     OW16960   2.685   4.309   3.313
 5427SOL    HW116961   2.643   4.315   3.399
 5427SOL    HW216962   2.620   4.267   3.257
 5428SOL     OW16963   3.258   4.199   3.538
 5428SOL    HW116964   3.257   4.242   3.624
 5428SOL    HW216965   3.318   4.126   3.549
 5429SOL     OW16966   2.858   4.147   3.097
 5429SOL    HW116967   2.784   4.168   3.154
 5429SOL    HW216968   2.821   4.089   3.030
 5430SOL     OW16969   2.919   4.409   2.283
 5430SOL    HW116970   2.919   4.444   2.372
 5430SOL    HW216971   2.830   4.375   2.271
 5431SOL     OW16972   2.747   4.063   2.053
 5431SOL    HW116973   2.792   4.126   1.995
 5431SOL    HW216974   2.768   3.977   2.015
 5432SOL     OW16975   3.568   4.298   3.690
 5432SOL    HW116976   3.577   4.387   3.657
 5432SOL    HW216977   3.591   4.243   3.615
 5433SOL     OW16978   2.412   3.907   2.753
 5433SOL    HW116979   2.413   3.934   2.845
 5433SOL    HW216980   2.411   3.990   2.705
 5434SOL     OW16981   3.350   4.461   2.598
 5434SOL    HW116982   3.329   4.408   2.674
 5434SOL    HW216983   3.391   0.040   2.634
 5435SOL     OW16984   2.060   4.006   3.363
 5435SOL    HW116985   1.977   4.052   3.355
 5435SOL    HW216986   2.046   3.944   3.435
 5436SOL     OW16987   3.263   3.831   2.292
 5436SOL    HW116988   3.252   3.806   2.200
 5436SOL    HW216989   3.357   3.840   2.303
 5437SOL     OW16990   2.219   4.384   2.273
 5437SOL    HW116991   2.258   4.311   2.319
 5437SOL    HW216992   2.148   4.413   2.331
 5438SOL     OW16993   3.400   3.950   3.587
 5438SOL    HW116994   3.408   3.972   3.680
 5438SOL    HW216995   3.332   3.883   3.584
 5439SOL     OW16996   2.491   3.849   1.969
 5439SOL    HW116997   2.566   3.790   1.979
 5439SOL    HW216998   2.445   3.816   1.892
 5440SOL     OW16999   2.630   4.000   3.614
 5440SOL    HW117000   2.703   3.938   3.621
 5440SOL    HW217001   2.579   3.986   3.694
 5441SOL     OW17002   3.208   4.311   3.290
 5441SOL    HW117003   3.230   4.274   3.376
 5441SOL    HW217004   3.244   4.399   3.292
 5442SOL     OW17005   2.784   4.236   2.761
 5442SOL    HW117006   2.762   4.220   2.669
 5442SOL    HW217007   2.824   4.155   2.791
 5443SOL     OW17008   2.410   3.787   2.367
 5443SOL    HW117009   2.329   3.788   2.419
 5443SOL    HW217010   2.404   3.866   2.313
 5444SOL     OW17011   2.154   3.770   2.046
 5444SOL    HW117012   2.213   3.836   2.008
 5444SOL    HW217013   2.213   3.707   2.086
 5445SOL     OW17014   2.797   3.969   2.327
 5445SOL    HW117015   2.769   4.009   2.244
 5445SOL    HW217016   2.893   3.980   2.327
 5446SOL     OW17017   2.940   4.395   3.375
 5446SOL    HW117018   2.855   4.365   3.341
 5446SOL    HW217019   3.005   4.352   3.319
 5447SOL     OW17020   2.887   4.269   1.885
 5447SOL    HW117021   2.868   4.357   1.852
 5447SOL    HW217022   2.950   4.284   1.956
 5448SOL     OW17023   1.936   4.280   3.253
 5448SOL    HW117024   2.027   4.272   3.225
 5448SOL    HW217025   1.936   4.353   3.316
 5449SOL     OW17026   2.423   3.950   3.024
 5449SOL    HW117027   2.462   3.871   3.063
 5449SOL    HW217028   2.332   3.949   3.055
 5450SOL     OW17029   2.732   4.189   2.500
 5450SOL    HW117030   2.695   4.247   2.434
 5450SOL    HW217031   2.750   4.107   2.453
 5451SOL     OW17032   2.876   3.777   2.616
 5451SOL    HW117033   2.818   3.768   2.540
 5451SOL    HW217034   2.856   3.701   2.670
 5452SOL     OW17035   3.339   4.313   2.832
 5452SOL    HW117036   3.284   4.237   2.852
 5452SOL    HW217037   3.391   4.326   2.911
 5453SOL     OW17038   3.262   4.296   1.935
 5453SOL    HW117039   3.201   4.270   2.003
 5453SOL    HW217040   3.345   4.255   1.960
 5454SOL     OW17041   2.386   3.987   2.183
 5454SOL    HW117042   2.427   3.937   2.112
 5454SOL    HW217043   2.372   4.074   2.145
 5455SOL     OW17044   2.780   3.822   3.261
 5455SOL    HW117045   2.803   3.802   3.170
 5455SOL    HW217046   2.859   3.861   3.298
 5456SOL     OW17047   2.294   0.008   3.129
 5456SOL    HW117048   2.360   0.008   3.199
 5456SOL    HW217049   2.253   4.422   3.136
 5457SOL     OW17050   3.128   4.101   3.134
 5457SOL    HW117051   3.162   4.178   3.180
 5457SOL    HW217052   3.039   4.125   3.109
 5458SOL     OW17053   2.417   4.256   2.727
 5458SOL    HW117054   2.437   4.304   2.646
 5458SOL    HW217055   2.480   4.289   2.791
 5459SOL     OW17056   3.434   4.342   2.337
 5459SOL    HW117057   3.403   4.407   2.399
 5459SOL    HW217058   3.493   4.391   2.279
 5460SOL     OW17059   2.859   3.842   3.620
 5460SOL    HW117060   2.910   3.916   3.587
 5460SOL    HW217061   2.908   3.764   3.592
 5461SOL     OW17062   2.360   3.767   3.608
 5461SOL    HW117063   2.319   3.713   3.541
 5461SOL    HW217064   2.300   3.840   3.621
 5462SOL     OW17065   3.074   4.255   2.129
 5462SOL    HW117066   3.083   4.176   2.181
 5462SOL    HW217067   3.024   4.315   2.185
 5463SOL     OW17068   2.163   3.924   3.107
 5463SOL    HW117069   2.126   3.958   3.189
 5463SOL    HW217070   2.142   3.831   3.108
 5464SOL     OW17071   2.592   4.360   2.910
 5464SOL    HW117072   2.666   4.326   2.859
 5464SOL    HW217073   2.596   4.454   2.898
 5465SOL     OW17074   3.612   0.136   3.718
 5465SOL    HW117075   3.550   0.149   3.646
 5465SOL    HW217076   3.565   0.167   3.796
 5466SOL     OW17077   2.164   3.790   2.485
 5466SOL    HW117078   2.146   3.881   2.510
 5466SOL    HW217079   2.169   3.743   2.568
 5467SOL     OW17080   3.474   4.091   2.232
 5467SOL    HW117081   3.503   4.030   2.300
 5467SOL    HW217082   3.452   4.171   2.279
 5468SOL     OW17083   3.391   3.999   1.989
 5468SOL    HW117084   3.329   3.932   2.015
 5468SOL    HW217085   3.425   4.034   2.071
 5469SOL     OW17086   2.179   0.012   2.784
 5469SOL    HW117087   2.256   0.069   2.796
 5469SOL    HW217088   2.192   4.441   2.847
 5470SOL     OW17089   2.199   4.239   2.882
 5470SOL    HW117090   2.160   4.154   2.861
 5470SOL    HW217091   2.272   4.247   2.820
 5471SOL     OW17092   3.000   4.096   3.546
 5471SOL    HW117093   2.949   4.155   3.601
 5471SOL    HW217094   3.085   4.139   3.536
 5472SOL     OW17095   3.022   3.928   3.331
 5472SOL    HW117096   3.013   3.989   3.404
 5472SOL    HW217097   3.060   3.980   3.261
 5473SOL     OW17098   1.899   4.270   2.977
 5473SOL    HW117099   1.980   4.251   2.931
 5473SOL    HW217100   1.924   4.274   3.069
 5474SOL     OW17101   2.054   4.243   3.579
 5474SOL    HW117102   2.112   4.201   3.515
 5474SOL    HW217103   1.999   4.301   3.527
 5475SOL     OW17104   2.681   4.285   2.205
 5475SOL    HW117105   2.679   4.209   2.148
 5475SOL    HW217106   2.593   4.323   2.198
 5476SOL     OW17107   3.500   4.319   3.051
 5476SOL    HW117108   3.494   4.260   3.127
 5476SOL    HW217109   3.588   4.304   3.016
 5477SOL     OW17110   2.546   4.182   3.120
 5477SOL    HW117111   2.501   4.104   3.087
 5477SOL    HW217112   2.549   4.241   3.045
 5478SOL     OW17113   2.343   4.222   2.053
 5478SOL    HW117114   2.378   4.310   2.070
 5478SOL    HW217115   2.249   4.235   2.044
 5479SOL     OW17116   3.580   3.866   2.375
 5479SOL    HW117117   3.654   3.852   2.315
 5479SOL    HW217118   3.565   3.780   2.414
 5480SOL     OW17119   3.142   0.138   2.541
 5480SOL    HW117120   3.200   0.062   2.546
 5480SOL    HW217121   3.192   0.203   2.491
 5481SOL     OW17122   3.701   3.897   2.830
 5481SOL    HW117123   3.730   3.811   2.800
 5481SOL    HW217124   3.615   3.908   2.790
 5482SOL     OW17125   2.126   4.042   2.580
 5482SOL    HW117126   2.039   4.074   2.555
 5482SOL    HW217127   2.120   4.031   2.675
 5483SOL     OW17128   2.773   0.093   2.088
 5483SOL    HW117129   2.855   0.135   2.060
 5483SOL    HW217130   2.795   0.051   2.171
 5484SOL     OW17131   2.929   0.306   2.598
 5484SOL    HW117132   2.845   0.286   2.558
 5484SOL    HW217133   2.989   0.239   2.563
 5485SOL     OW17134   2.881   3.964   2.827
 5485SOL    HW117135   2.876   3.915   2.745
 5485SOL    HW217136   2.876   3.897   2.895
 5486SOL     OW17137   3.581   4.114   3.242
 5486SOL    HW117138   3.652   4.178   3.239
 5486SOL    HW217139   3.611   4.043   3.186
 5487SOL     OW17140   2.534   3.919   3.361
 5487SOL    HW117141   2.619   3.902   3.318
 5487SOL    HW217142   2.558   3.950   3.448
 5488SOL     OW17143   1.937   4.048   1.892
 5488SOL    HW117144   1.848   4.039   1.856
 5488SOL    HW217145   1.968   4.132   1.859
 5489SOL     OW17146   1.933   3.882   2.176
 5489SOL    HW117147   1.917   3.962   2.125
 5489SOL    HW217148   2.017   3.850   2.144
 5490SOL     OW17149   2.586   4.288   3.566
 5490SOL    HW117150   2.594   4.337   3.648
 5490SOL    HW217151   2.616   4.200   3.587
 5491SOL     OW17152   3.081   4.043   2.317
 5491SOL    HW117153   3.144   3.972   2.308
 5491SOL    HW217154   3.110   4.090   2.395
 5492SOL     OW17155   3.626   4.088   3.509
 5492SOL    HW117156   3.608   4.098   3.416
 5492SOL    HW217157   3.556   4.030   3.541
 5493SOL     OW17158   2.972   0.230   1.967
 5493SOL    HW117159   2.949   0.269   1.882
 5493SOL    HW217160   3.050   0.178   1.949
 5494SOL     OW17161   3.676   3.909   3.100
 5494SOL    HW117162   3.686   3.815   3.115
 5494SOL    HW217163   3.685   3.919   3.006
 5495SOL     OW17164   2.306   4.153   2.400
 5495SOL    HW117165   2.323   4.084   2.336
 5495SOL    HW217166   2.249   4.111   2.465
 5496SOL     OW17167   2.185   4.264   3.155
 5496SOL    HW117168   2.241   4.210   3.210
 5496SOL    HW217169   2.206   4.239   3.065
 5497SOL     OW17170   3.294   3.947   2.980
 5497SOL    HW117171   3.323   3.870   3.028
 5497SOL    HW217172   3.242   3.996   3.043
 5498SOL     OW17173   2.870   3.745   3.007
 5498SOL    HW117174   2.816   3.676   2.969
 5498SOL    HW217175   2.958   3.708   3.009
 5499SOL     OW17176   3.214   3.778   2.025
 5499SOL    HW117177   3.240   3.718   1.955
 5499SOL    HW217178   3.128   3.746   2.053
 5500SOL     OW17179   3.161   4.176   2.545
 5500SOL    HW117180   3.119   4.261   2.559
 5500SOL    HW217181   3.162   4.135   2.631
 5501SOL     OW17182   3.449   3.929   2.738
 5501SOL    HW117183   3.386   3.948   2.807
 5501SOL    HW217184   3.450   4.008   2.684
 5502SOL     OW17185   2.087   4.291   3.848
 5502SOL    HW117186   2.028   4.357   3.883
 5502SOL    HW217187   2.078   4.299   3.753
 5503SOL     OW17188   2.086   4.000   4.714
 5503SOL    HW117189   2.114   3.970   4.800
 5503SOL    HW217190   1.996   3.969   4.706
 5504SOL     OW17191   1.868   4.101   4.368
 5504SOL    HW117192   1.785   4.129   4.405
 5504SOL    HW217193   1.846   4.025   4.314
 5505SOL     OW17194   3.597   4.335   3.960
 5505SOL    HW117195   3.596   4.320   3.866
 5505SOL    HW217196   3.595   4.247   3.998
 5506SOL     OW17197   2.587   0.265   4.405
 5506SOL    HW117198   2.586   0.210   4.484
 5506SOL    HW217199   2.496   0.287   4.389
 5507SOL     OW17200   2.308   4.118   5.211
 5507SOL    HW117201   2.385   4.062   5.219
 5507SOL    HW217202   2.234   4.060   5.227
 5508SOL     OW17203   3.477   4.173   4.462
 5508SOL    HW117204   3.405   4.200   4.406
 5508SOL    HW217205   3.486   4.245   4.526
 5509SOL     OW17206   3.459   3.845   5.194
 5509SOL    HW117207   3.456   3.924   5.140
 5509SOL    HW217208   3.446   3.876   5.284
 5510SOL     OW17209   1.944   4.369   4.290
 5510SOL    HW117210   1.935   4.277   4.314
 5510SOL    HW217211   2.001   4.406   4.358
 5511SOL     OW17212   1.982   4.472   5.308
 5511SOL    HW117213   2.053   4.487   5.371
 5511SOL    HW217214   1.949   0.060   5.289
 5512SOL     OW17215   2.674   3.723   4.229
 5512SOL    HW117216   2.715   3.808   4.214
 5512SOL    HW217217   2.581   3.742   4.240
 5513SOL     OW17218   2.192   3.976   5.528
 5513SOL    HW117219   2.237   4.058   5.547
 5513SOL    HW217220   2.103   3.989   5.562
 5514SOL     OW17221   3.140   4.069   4.656
 5514SOL    HW117222   3.051   4.036   4.666
 5514SOL    HW217223   3.192   4.019   4.719
 5515SOL     OW17224   2.685   4.309   5.175
 5515SOL    HW117225   2.643   4.315   5.261
 5515SOL    HW217226   2.620   4.267   5.119
 5516SOL     OW17227   3.258   4.199   5.400
 5516SOL    HW117228   3.257   4.242   5.486
 5516SOL    HW217229   3.318   4.125   5.411
 5517SOL     OW17230   2.858   4.147   4.959
 5517SOL    HW117231   2.784   4.168   5.016
 5517SOL    HW217232   2.821   4.089   4.892
 5518SOL     OW17233   2.919   4.409   4.145
 5518SOL    HW117234   2.920   4.445   4.234
 5518SOL    HW217235   2.830   4.375   4.134
 5519SOL     OW17236   2.747   4.063   3.914
 5519SOL    HW117237   2.792   4.126   3.857
 5519SOL    HW217238   2.770   3.977   3.877
 5520SOL     OW17239   3.568   4.298   5.552
 5520SOL    HW117240   3.577   4.387   5.519
 5520SOL    HW217241   3.591   4.242   5.478
 5521SOL     OW17242   2.411   3.907   4.615
 5521SOL    HW117243   2.413   3.933   4.707
 5521SOL    HW217244   2.411   3.990   4.567
 5522SOL     OW17245   3.350   4.461   4.460
 5522SOL    HW117246   3.329   4.408   4.536
 5522SOL    HW217247   3.391   0.040   4.496
 5523SOL     OW17248   2.060   4.005   5.225
 5523SOL    HW117249   1.977   4.052   5.218
 5523SOL    HW217250   2.046   3.944   5.297
 5524SOL     OW17251   3.263   3.831   4.154
 5524SOL    HW117252   3.252   3.806   4.062
 5524SOL    HW217253   3.357   3.841   4.166
 5525SOL     OW17254   2.218   4.384   4.134
 5525SOL    HW117255   2.258   4.311   4.181
 5525SOL    HW217256   2.148   4.414   4.193
 5526SOL     OW17257   3.400   3.950   5.449
 5526SOL    HW117258   3.407   3.972   5.542
 5526SOL    HW217259   3.332   3.882   5.446
 5527SOL     OW17260   2.490   3.848   3.832
 5527SOL    HW117261   2.567   3.791   3.840
 5527SOL    HW217262   2.445   3.816   3.754
 5528SOL     OW17263   2.630   4.000   5.477
 5528SOL    HW117264   2.703   3.939   5.483
 5528SOL    HW217265   2.579   3.985   5.556
 5529SOL     OW17266   3.208   4.311   5.152
 5529SOL    HW117267   3.230   4.274   5.238
 5529SOL    HW217268   3.244   4.399   5.154
 5530SOL     OW17269   2.784   4.236   4.623
 5530SOL    HW117270   2.762   4.220   4.531
 5530SOL    HW217271   2.824   4.155   4.653
 5531SOL     OW17272   2.410   3.787   4.229
 5531SOL    HW117273   2.329   3.788   4.280
 5531SOL    HW217274   2.404   3.866   4.175
 5532SOL     OW17275   2.155   3.770   3.908
 5532SOL    HW117276   2.212   3.836   3.870
 5532SOL    HW217277   2.214   3.707   3.948
 5533SOL     OW17278   2.798   3.969   4.188
 5533SOL    HW117279   2.769   4.010   4.107
 5533SOL    HW217280   2.893   3.980   4.189
 5534SOL     OW17281   2.940   4.395   5.237
 5534SOL    HW117282   2.855   4.365   5.203
 5534SOL    HW217283   3.005   4.352   5.181
 5535SOL     OW17284   2.887   4.269   3.748
 5535SOL    HW117285   2.868   4.357   3.714
 5535SOL    HW217286   2.950   4.284   3.818
 5536SOL     OW17287   1.936   4.280   5.115
 5536SOL    HW117288   2.027   4.272   5.087
 5536SOL    HW217289   1.936   4.353   5.178
 5537SOL     OW17290   2.423   3.949   4.886
 5537SOL    HW117291   2.463   3.872   4.927
 5537SOL    HW217292   2.332   3.949   4.917
 5538SOL     OW17293   2.732   4.188   4.362
 5538SOL    HW117294   2.695   4.247   4.296
 5538SOL    HW217295   2.750   4.107   4.315
 5539SOL     OW17296   2.876   3.777   4.477
 5539SOL    HW117297   2.818   3.769   4.402
 5539SOL    HW217298   2.856   3.702   4.532
 5540SOL     OW17299   3.339   4.312   4.694
 5540SOL    HW117300   3.284   4.237   4.714
 5540SOL    HW217301   3.391   4.326   4.773
 5541SOL     OW17302   3.262   4.296   3.796
 5541SOL    HW117303   3.201   4.270   3.865
 5541SOL    HW217304   3.345   4.256   3.822
 5542SOL     OW17305   2.386   3.987   4.045
 5542SOL    HW117306   2.426   3.936   3.974
 5542SOL    HW217307   2.372   4.074   4.007
 5543SOL     OW17308   2.780   3.823   5.122
 5543SOL    HW117309   2.803   3.802   5.032
 5543SOL    HW217310   2.859   3.862   5.160
 5544SOL     OW17311   2.294   0.008   4.991
 5544SOL    HW117312   2.360   0.008   5.060
 5544SOL    HW217313   2.252   4.422   4.998
 5545SOL     OW17314   3.129   4.101   4.996
 5545SOL    HW117315   3.162   4.178   5.042
 5545SOL    HW217316   3.040   4.125   4.971
 5546SOL     OW17317   2.417   4.256   4.589
 5546SOL    HW117318   2.437   4.304   4.508
 5546SOL    HW217319   2.480   4.289   4.653
 5547SOL     OW17320   3.435   4.342   4.199
 5547SOL    HW117321   3.402   4.407   4.261
 5547SOL    HW217322   3.493   4.391   4.141
 5548SOL     OW17323   2.858   3.842   5.481
 5548SOL    HW117324   2.910   3.916   5.449
 5548SOL    HW217325   2.908   3.764   5.455
 5549SOL     OW17326   2.360   3.768   5.469
 5549SOL    HW117327   2.319   3.713   5.403
 5549SOL    HW217328   2.299   3.841   5.482
 5550SOL     OW17329   3.074   4.255   3.991
 5550SOL    HW117330   3.083   4.175   4.043
 5550SOL    HW217331   3.024   4.315   4.047
 5551SOL     OW17332   2.163   3.925   4.969
 5551SOL    HW117333   2.126   3.959   5.051
 5551SOL    HW217334   2.142   3.832   4.970
 5552SOL     OW17335   2.592   4.360   4.772
 5552SOL    HW117336   2.665   4.326   4.721
 5552SOL    HW217337   2.596   4.454   4.760
 5553SOL     OW17338   3.612   0.136   5.581
 5553SOL    HW117339   3.550   0.148   5.508
 5553SOL    HW217340   3.564   0.167   5.658
 5554SOL     OW17341   2.164   3.790   4.347
 5554SOL    HW117342   2.146   3.881   4.371
 5554SOL    HW217343   2.169   3.743   4.430
 5555SOL     OW17344   3.473   4.091   4.094
 5555SOL    HW117345   3.503   4.030   4.162
 5555SOL    HW217346   3.452   4.171   4.141
 5556SOL     OW17347   3.391   3.999   3.851
 5556SOL    HW117348   3.329   3.932   3.877
 5556SOL    HW217349   3.425   4.034   3.933
 5557SOL     OW17350   2.180   0.012   4.646
 5557SOL    HW117351   2.256   0.069   4.657
 5557SOL    HW217352   2.193   4.442   4.709
 5558SOL     OW17353   2.199   4.239   4.744
 5558SOL    HW117354   2.160   4.154   4.723
 5558SOL    HW217355   2.272   4.247   4.682
 5559SOL     OW17356   3.000   4.096   5.407
 5559SOL    HW117357   2.949   4.155   5.463
 5559SOL    HW217358   3.085   4.139   5.398
 5560SOL     OW17359   3.022   3.928   5.193
 5560SOL    HW117360   3.013   3.989   5.266
 5560SOL    HW217361   3.060   3.981   5.122
 5561SOL     OW17362   1.899   4.269   4.839
 5561SOL    HW117363   1.981   4.252   4.793
 5561SOL    HW217364   1.924   4.274   4.931
 5562SOL     OW17365   2.053   4.243   5.441
 5562SOL    HW117366   2.112   4.201   5.378
 5562SOL    HW217367   1.999   4.301   5.389
 5563SOL     OW17368   2.681   4.284   4.067
 5563SOL    HW117369   2.678   4.208   4.009
 5563SOL    HW217370   2.594   4.324   4.060
 5564SOL     OW17371   3.500   4.319   4.913
 5564SOL    HW117372   3.494   4.260   4.989
 5564SOL    HW217373   3.588   4.304   4.878
 5565SOL     OW17374   2.545   4.182   4.982
 5565SOL    HW117375   2.501   4.104   4.949
 5565SOL    HW217376   2.549   4.241   4.907
 5566SOL     OW17377   2.343   4.222   3.915
 5566SOL    HW117378   2.378   4.309   3.931
 5566SOL    HW217379   2.248   4.235   3.907
 5567SOL     OW17380   3.580   3.866   4.236
 5567SOL    HW117381   3.654   3.853   4.177
 5567SOL    HW217382   3.565   3.780   4.276
 5568SOL     OW17383   3.141   0.137   4.403
 5568SOL    HW117384   3.201   0.062   4.408
 5568SOL    HW217385   3.191   0.204   4.355
 5569SOL     OW17386   3.701   3.897   4.692
 5569SOL    HW117387   3.730   3.811   4.662
 5569SOL    HW217388   3.615   3.908   4.652
 5570SOL     OW17389   2.126   4.042   4.442
 5570SOL    HW117390   2.039   4.074   4.417
 5570SOL    HW217391   2.120   4.031   4.537
 5571SOL     OW17392   2.773   0.092   3.949
 5571SOL    HW117393   2.854   0.135   3.922
 5571SOL    HW217394   2.795   0.051   4.033
 5572SOL     OW17395   2.929   0.305   4.460
 5572SOL    HW117396   2.845   0.287   4.419
 5572SOL    HW217397   2.988   0.239   4.424
 5573SOL     OW17398   2.881   3.964   4.689
 5573SOL    HW117399   2.876   3.915   4.607
 5573SOL    HW217400   2.876   3.897   4.757
 5574SOL     OW17401   3.581   4.114   5.104
 5574SOL    HW117402   3.652   4.178   5.101
 5574SOL    HW217403   3.611   4.043   5.048
 5575SOL     OW17404   2.535   3.920   5.223
 5575SOL    HW117405   2.619   3.902   5.180
 5575SOL    HW217406   2.558   3.950   5.311
 5576SOL     OW17407   1.936   4.047   3.754
 5576SOL    HW117408   1.848   4.039   3.717
 5576SOL    HW217409   1.968   4.132   3.722
 5577SOL     OW17410   1.933   3.882   4.038
 5577SOL    HW117411   1.917   3.962   3.987
 5577SOL    HW217412   2.017   3.850   4.006
 5578SOL     OW17413   2.587   4.288   5.428
 5578SOL    HW117414   2.595   4.336   5.510
 5578SOL    HW217415   2.616   4.200   5.449
 5579SOL     OW17416   3.081   4.043   4.179
 5579SOL    HW117417   3.145   3.972   4.170
 5579SOL    HW217418   3.109   4.090   4.257
 5580SOL     OW17419   3.625   4.088   5.371
 5580SOL    HW117420   3.607   4.098   5.278
 5580SOL    HW217421   3.556   4.030   5.403
 5581SOL     OW17422   2.971   0.230   3.828
 5581SOL    HW117423   2.950   0.270   3.744
 5581SOL    HW217424   3.050   0.178   3.811
 5582SOL     OW17425   3.676   3.909   4.962
 5582SOL    HW117426   3.686   3.815   4.978
 5582SOL    HW217427   3.685   3.919   4.867
 5583SOL     OW17428   2.306   4.153   4.262
 5583SOL    HW117429   2.323   4.084   4.198
 5583SOL    HW217430   2.249   4.111   4.327
 5584SOL     OW17431   2.185   4.264   5.017
 5584SOL    HW117432   2.241   4.210   5.072
 5584SOL    HW217433   2.206   4.239   4.927
 5585SOL     OW17434   3.294   3.947   4.842
 5585SOL    HW117435   3.324   3.870   4.890
 5585SOL    HW217436   3.242   3.996   4.905
 5586SOL     OW17437   2.870   3.745   4.869
 5586SOL    HW117438   2.816   3.676   4.832
 5586SOL    HW217439   2.958   3.708   4.871
 5587SOL     OW17440   3.214   3.778   3.888
 5587SOL    HW117441   3.240   3.718   3.817
 5587SOL    HW217442   3.128   3.746   3.915
 5588SOL     OW17443   3.161   4.176   4.407
 5588SOL    HW117444   3.120   4.262   4.421
 5588SOL    HW217445   3.162   4.135   4.493
 5589SOL     OW17446   3.449   3.929   4.600
 5589SOL    HW117447   3.385   3.948   4.670
 5589SOL    HW217448   3.450   4.008   4.546
 5590SOL     OW17449   2.088   4.291   5.709
 5590SOL    HW117450   2.027   4.356   5.745
 5590SOL    HW217451   2.077   4.299   5.615
 5591SOL     OW17452   2.086   4.000   6.576
 5591SOL    HW117453   2.114   3.969   6.662
 5591SOL    HW217454   1.996   3.969   6.567
 5592SOL     OW17455   1.868   4.102   6.229
 5592SOL    HW117456   1.785   4.129   6.267
 5592SOL    HW217457   1.847   4.024   6.177
 5593SOL     OW17458   3.598   4.335   5.822
 5593SOL    HW117459   3.596   4.320   5.728
 5593SOL    HW217460   3.595   4.247   5.860
 5594SOL     OW17461   2.588   0.266   6.269
 5594SOL    HW117462   2.586   0.208   6.344
 5594SOL    HW217463   2.495   0.285   6.250
 5595SOL     OW17464   2.308   4.119   7.074
 5595SOL    HW117465   2.385   4.062   7.081
 5595SOL    HW217466   2.234   4.060   7.088
 5596SOL     OW17467   3.477   4.173   6.324
 5596SOL    HW117468   3.405   4.200   6.268
 5596SOL    HW217469   3.486   4.245   6.388
 5597SOL     OW17470   3.458   3.845   7.056
 5597SOL    HW117471   3.456   3.924   7.002
 5597SOL    HW217472   3.446   3.876   7.146
 5598SOL     OW17473   1.944   4.369   6.152
 5598SOL    HW117474   1.934   4.277   6.175
 5598SOL    HW217475   2.001   4.405   6.220
 5599SOL     OW17476   1.982   4.472   7.170
 5599SOL    HW117477   2.053   4.486   7.233
 5599SOL    HW217478   1.949   0.060   7.151
 5600SOL     OW17479   2.674   3.723   6.092
 5600SOL    HW117480   2.714   3.808   6.077
 5600SOL    HW217481   2.581   3.742   6.103
 5601SOL     OW17482   2.192   3.976   7.391
 5601SOL    HW117483   2.237   4.059   7.408
 5601SOL    HW217484   2.103   3.988   7.424
 5602SOL     OW17485   3.140   4.070   6.518
 5602SOL    HW117486   3.051   4.036   6.527
 5602SOL    HW217487   3.192   4.019   6.581
 5603SOL     OW17488   2.685   4.309   7.037
 5603SOL    HW117489   2.643   4.315   7.123
 5603SOL    HW217490   2.620   4.267   6.981
 5604SOL     OW17491   3.258   4.199   7.262
 5604SOL    HW117492   3.257   4.242   7.348
 5604SOL    HW217493   3.318   4.125   7.273
 5605SOL     OW17494   2.858   4.147   6.821
 5605SOL    HW117495   2.784   4.168   6.878
 5605SOL    HW217496   2.821   4.089   6.754
 5606SOL     OW17497   2.918   4.409   6.007
 5606SOL    HW117498   2.919   4.444   6.096
 5606SOL    HW217499   2.830   4.375   5.995
 5607SOL     OW17500   2.748   4.063   5.777
 5607SOL    HW117501   2.792   4.126   5.719
 5607SOL    HW217502   2.768   3.977   5.739
 5608SOL     OW17503   3.568   4.298   7.414
 5608SOL    HW117504   3.577   4.387   7.381
 5608SOL    HW217505   3.591   4.242   7.340
 5609SOL     OW17506   2.412   3.907   6.477
 5609SOL    HW117507   2.413   3.934   6.569
 5609SOL    HW217508   2.411   3.990   6.429
 5610SOL     OW17509   3.350   4.461   6.322
 5610SOL    HW117510   3.329   4.408   6.398
 5610SOL    HW217511   3.391   0.040   6.358
 5611SOL     OW17512   2.060   4.006   7.088
 5611SOL    HW117513   1.976   4.052   7.079
 5611SOL    HW217514   2.046   3.943   7.158
 5612SOL     OW17515   3.263   3.831   6.016
 5612SOL    HW117516   3.252   3.806   5.924
 5612SOL    HW217517   3.357   3.840   6.027
 5613SOL     OW17518   2.219   4.384   5.997
 5613SOL    HW117519   2.258   4.310   6.043
 5613SOL    HW217520   2.148   4.414   6.055
 5614SOL     OW17521   3.400   3.950   7.311
 5614SOL    HW117522   3.407   3.972   7.404
 5614SOL    HW217523   3.332   3.883   7.308
 5615SOL     OW17524   2.491   3.849   5.693
 5615SOL    HW117525   2.566   3.790   5.703
 5615SOL    HW217526   2.446   3.816   5.615
 5616SOL     OW17527   2.630   4.001   7.339
 5616SOL    HW117528   2.703   3.939   7.345
 5616SOL    HW217529   2.578   3.985   7.418
 5617SOL     OW17530   3.208   4.311   7.014
 5617SOL    HW117531   3.230   4.274   7.100
 5617SOL    HW217532   3.244   4.399   7.016
 5618SOL     OW17533   2.784   4.237   6.485
 5618SOL    HW117534   2.762   4.220   6.393
 5618SOL    HW217535   2.823   4.155   6.515
 5619SOL     OW17536   2.410   3.787   6.091
 5619SOL    HW117537   2.330   3.787   6.143
 5619SOL    HW217538   2.404   3.866   6.037
 5620SOL     OW17539   2.155   3.770   5.769
 5620SOL    HW117540   2.214   3.837   5.733
 5620SOL    HW217541   2.213   3.706   5.810
 5621SOL     OW17542   2.798   3.969   6.050
 5621SOL    HW117543   2.769   4.009   5.968
 5621SOL    HW217544   2.893   3.980   6.051
 5622SOL     OW17545   2.940   4.395   7.099
 5622SOL    HW117546   2.855   4.365   7.065
 5622SOL    HW217547   3.004   4.352   7.043
 5623SOL     OW17548   2.887   4.269   5.610
 5623SOL    HW117549   2.868   4.357   5.576
 5623SOL    HW217550   2.950   4.284   5.680
 5624SOL     OW17551   1.936   4.280   6.977
 5624SOL    HW117552   2.027   4.272   6.949
 5624SOL    HW217553   1.936   4.353   7.039
 5625SOL     OW17554   2.423   3.950   6.748
 5625SOL    HW117555   2.462   3.871   6.787
 5625SOL    HW217556   2.332   3.949   6.779
 5626SOL     OW17557   2.732   4.189   6.224
 5626SOL    HW117558   2.695   4.247   6.157
 5626SOL    HW217559   2.750   4.107   6.177
 5627SOL     OW17560   2.876   3.777   6.339
 5627SOL    HW117561   2.818   3.769   6.264
 5627SOL    HW217562   2.855   3.701   6.394
 5628SOL     OW17563   3.339   4.313   6.556
 5628SOL    HW117564   3.284   4.237   6.576
 5628SOL    HW217565   3.391   4.326   6.635
 5629SOL     OW17566   3.262   4.296   5.658
 5629SOL    HW117567   3.201   4.270   5.727
 5629SOL    HW217568   3.345   4.255   5.684
 5630SOL     OW17569   2.386   3.987   5.906
 5630SOL    HW117570   2.427   3.937   5.836
 5630SOL    HW217571   2.372   4.074   5.869
 5631SOL     OW17572   2.780   3.822   6.985
 5631SOL    HW117573   2.803   3.802   6.894
 5631SOL    HW217574   2.859   3.861   7.022
 5632SOL     OW17575   2.294   0.008   6.853
 5632SOL    HW117576   2.360   0.008   6.923
 5632SOL    HW217577   2.252   4.422   6.859
 5633SOL     OW17578   3.128   4.101   6.858
 5633SOL    HW117579   3.162   4.178   6.904
 5633SOL    HW217580   3.039   4.125   6.833
 5634SOL     OW17581   2.417   4.256   6.451
 5634SOL    HW117582   2.437   4.304   6.370
 5634SOL    HW217583   2.480   4.289   6.515
 5635SOL     OW17584   3.434   4.342   6.061
 5635SOL    HW117585   3.403   4.407   6.123
 5635SOL    HW217586   3.493   4.391   6.003
 5636SOL     OW17587   2.858   3.842   7.343
 5636SOL    HW117588   2.910   3.916   7.311
 5636SOL    HW217589   2.908   3.764   7.316
 5637SOL     OW17590   2.360   3.768   7.332
 5637SOL    HW117591   2.319   3.713   7.265
 5637SOL    HW217592   2.300   3.840   7.344
 5638SOL     OW17593   3.074   4.255   5.853
 5638SOL    HW117594   3.083   4.176   5.905
 5638SOL    HW217595   3.024   4.315   5.909
 5639SOL     OW17596   2.163   3.925   6.831
 5639SOL    HW117597   2.126   3.957   6.913
 5639SOL    HW217598   2.143   3.831   6.832
 5640SOL     OW17599   2.592   4.360   6.634
 5640SOL    HW117600   2.666   4.326   6.583
 5640SOL    HW217601   2.596   4.454   6.622
 5641SOL     OW17602   3.612   0.136   7.442
 5641SOL    HW117603   3.550   0.148   7.370
 5641SOL    HW217604   3.564   0.167   7.520
 5642SOL     OW17605   2.165   3.791   6.209
 5642SOL    HW117606   2.146   3.881   6.234
 5642SOL    HW217607   2.169   3.743   6.291
 5643SOL     OW17608   3.474   4.091   5.956
 5643SOL    HW117609   3.503   4.030   6.024
 5643SOL    HW217610   3.452   4.171   6.003
 5644SOL     OW17611   3.391   3.999   5.713
 5644SOL    HW117612   3.329   3.932   5.739
 5644SOL    HW217613   3.425   4.034   5.795
 5645SOL     OW17614   2.179   0.012   6.508
 5645SOL    HW117615   2.256   0.068   6.520
 5645SOL    HW217616   2.192   4.441   6.571
 5646SOL     OW17617   2.199   4.239   6.606
 5646SOL    HW117618   2.160   4.154   6.585
 5646SOL    HW217619   2.272   4.247   6.544
 5647SOL     OW17620   3.000   4.096   7.270
 5647SOL    HW117621   2.949   4.155   7.325
 5647SOL    HW217622   3.085   4.139   7.260
 5648SOL     OW17623   3.022   3.928   7.055
 5648SOL    HW117624   3.013   3.989   7.128
 5648SOL    HW217625   3.060   3.980   6.984
 5649SOL     OW17626   1.899   4.270   6.701
 5649SOL    HW117627   1.980   4.250   6.654
 5649SOL    HW217628   1.924   4.274   6.793
 5650SOL     OW17629   2.054   4.243   7.303
 5650SOL    HW117630   2.111   4.200   7.240
 5650SOL    HW217631   1.999   4.301   7.251
 5651SOL     OW17632   2.681   4.285   5.929
 5651SOL    HW117633   2.679   4.209   5.872
 5651SOL    HW217634   2.593   4.323   5.921
 5652SOL     OW17635   3.500   4.319   6.775
 5652SOL    HW117636   3.494   4.260   6.851
 5652SOL    HW217637   3.588   4.304   6.740
 5653SOL     OW17638   2.546   4.182   6.844
 5653SOL    HW117639   2.501   4.104   6.812
 5653SOL    HW217640   2.549   4.241   6.769
 5654SOL     OW17641   2.343   4.222   5.777
 5654SOL    HW117642   2.378   4.309   5.793
 5654SOL    HW217643   2.249   4.235   5.769
 5655SOL     OW17644   3.581   3.866   6.099
 5655SOL    HW117645   3.654   3.853   6.039
 5655SOL    HW217646   3.565   3.780   6.138
 5656SOL     OW17647   3.142   0.138   6.265
 5656SOL    HW117648   3.200   0.062   6.271
 5656SOL    HW217649   3.192   0.202   6.215
 5657SOL     OW17650   3.701   3.897   6.554
 5657SOL    HW117651   3.730   3.811   6.524
 5657SOL    HW217652   3.615   3.908   6.514
 5658SOL     OW17653   2.126   4.043   6.305
 5658SOL    HW117654   2.039   4.074   6.279
 5658SOL    HW217655   2.120   4.031   6.399
 5659SOL     OW17656   2.773   0.093   5.812
 5659SOL    HW117657   2.854   0.135   5.784
 5659SOL    HW217658   2.796   0.051   5.895
 5660SOL     OW17659   2.929   0.306   6.322
 5660SOL    HW117660   2.845   0.286   6.282
 5660SOL    HW217661   2.989   0.240   6.287
 5661SOL     OW17662   2.881   3.964   6.551
 5661SOL    HW117663   2.876   3.915   6.469
 5661SOL    HW217664   2.876   3.897   6.619
 5662SOL     OW17665   3.581   4.114   6.966
 5662SOL    HW117666   3.652   4.178   6.963
 5662SOL    HW217667   3.611   4.043   6.910
 5663SOL     OW17668   2.535   3.919   7.085
 5663SOL    HW117669   2.619   3.902   7.042
 5663SOL    HW217670   2.558   3.950   7.173
 5664SOL     OW17671   1.937   4.047   5.616
 5664SOL    HW117672   1.848   4.039   5.580
 5664SOL    HW217673   1.968   4.132   5.583
 5665SOL     OW17674   1.933   3.882   5.900
 5665SOL    HW117675   1.917   3.962   5.849
 5665SOL    HW217676   2.017   3.849   5.869
 5666SOL     OW17677   2.587   4.288   7.290
 5666SOL    HW117678   2.594   4.336   7.373
 5666SOL    HW217679   2.616   4.200   7.311
 5667SOL     OW17680   3.081   4.043   6.041
 5667SOL    HW117681   3.144   3.972   6.032
 5667SOL    HW217682   3.110   4.090   6.119
 5668SOL     OW17683   3.625   4.088   7.233
 5668SOL    HW117684   3.607   4.098   7.140
 5668SOL    HW217685   3.556   4.030   7.265
 5669SOL     OW17686   2.972   0.230   5.690
 5669SOL    HW117687   2.950   0.270   5.606
 5669SOL    HW217688   3.050   0.177   5.673
 5670SOL     OW17689   3.676   3.909   6.824
 5670SOL    HW117690   3.686   3.815   6.840
 5670SOL    HW217691   3.685   3.919   6.730
 5671SOL     OW17692   2.306   4.153   6.124
 5671SOL    HW117693   2.323   4.084   6.060
 5671SOL    HW217694   2.249   4.111   6.189
 5672SOL     OW17695   2.185   4.264   6.879
 5672SOL    HW117696   2.241   4.210   6.934
 5672SOL    HW217697   2.206   4.239   6.789
 5673SOL     OW17698   3.294   3.947   6.704
 5673SOL    HW117699   3.323   3.870   6.752
 5673SOL    HW217700   3.242   3.996   6.767
 5674SOL     OW17701   2.870   3.745   6.731
 5674SOL    HW117702   2.815   3.676   6.694
 5674SOL    HW217703   2.958   3.708   6.733
 5675SOL     OW17704   3.214   3.777   5.749
 5675SOL    HW117705   3.240   3.718   5.680
 5675SOL    HW217706   3.128   3.746   5.777
 5676SOL     OW17707   3.161   4.176   6.269
 5676SOL    HW117708   3.119   4.261   6.283
 5676SOL    HW217709   3.162   4.135   6.355
 5677SOL     OW17710   3.449   3.929   6.462
 5677SOL    HW117711   3.385   3.948   6.532
 5677SOL    HW217712   3.450   4.008   6.408
 5678SOL     OW17713   2.088   4.292   7.571
 5678SOL    HW117714   2.027   4.356   7.607
 5678SOL    HW217715   2.078   4.299   7.477
 5679SOL     OW17716   2.086   4.000   8.438
 5679SOL    HW117717   2.114   3.969   8.524
 5679SOL    HW217718   1.996   3.969   8.429
 5680SOL     OW17719   1.868   4.102   8.091
 5680SOL    HW117720   1.785   4.129   8.129
 5680SOL    HW217721   1.846   4.025   8.039
 5681SOL     OW17722   3.598   4.335   7.684
 5681SOL    HW117723   3.596   4.320   7.590
 5681SOL    HW217724   3.595   4.247   7.722
 5682SOL     OW17725   2.588   0.266   8.130
 5682SOL    HW117726   2.586   0.208   8.206
 5682SOL    HW217727   2.496   0.285   8.112
 5683SOL     OW17728   2.308   4.119   8.936
 5683SOL    HW117729   2.385   4.062   8.943
 5683SOL    HW217730   2.234   4.060   8.950
 5684SOL     OW17731   3.477   4.173   8.186
 5684SOL    HW117732   3.405   4.200   8.130
 5684SOL    HW217733   3.486   4.245   8.250
 5685SOL     OW17734   3.458   3.845   8.918
 5685SOL    HW117735   3.456   3.924   8.864
 5685SOL    HW217736   3.446   3.876   9.008
 5686SOL     OW17737   1.945   4.369   8.014
 5686SOL    HW117738   1.935   4.277   8.037
 5686SOL    HW217739   2.000   4.405   8.082
 5687SOL     OW17740   1.982   4.472   9.032
 5687SOL    HW117741   2.053   4.487   9.095
 5687SOL    HW217742   1.949   0.060   9.013
 5688SOL     OW17743   2.674   3.723   7.953
 5688SOL    HW117744   2.714   3.808   7.938
 5688SOL    HW217745   2.581   3.742   7.965
 5689SOL     OW17746   2.192   3.976   9.253
 5689SOL    HW117747   2.237   4.059   9.270
 5689SOL    HW217748   2.103   3.988   9.286
 5690SOL     OW17749   3.140   4.070   8.380
 5690SOL    HW117750   3.051   4.036   8.389
 5690SOL    HW217751   3.192   4.019   8.443
 5691SOL     OW17752   2.685   4.309   8.899
 5691SOL    HW117753   2.643   4.315   8.985
 5691SOL    HW217754   2.620   4.267   8.843
 5692SOL     OW17755   3.258   4.199   9.124
 5692SOL    HW117756   3.257   4.242   9.210
 5692SOL    HW217757   3.318   4.125   9.135
 5693SOL     OW17758   2.858   4.147   8.683
 5693SOL    HW117759   2.784   4.168   8.740
 5693SOL    HW217760   2.821   4.089   8.616
 5694SOL     OW17761   2.918   4.409   7.869
 5694SOL    HW117762   2.919   4.444   7.958
 5694SOL    HW217763   2.830   4.375   7.857
 5695SOL     OW17764   2.748   4.063   7.639
 5695SOL    HW117765   2.792   4.126   7.581
 5695SOL    HW217766   2.768   3.977   7.601
 5696SOL     OW17767   3.568   4.298   9.276
 5696SOL    HW117768   3.577   4.387   9.243
 5696SOL    HW217769   3.591   4.242   9.202
 5697SOL     OW17770   2.412   3.907   8.339
 5697SOL    HW117771   2.413   3.934   8.431
 5697SOL    HW217772   2.411   3.990   8.291
 5698SOL     OW17773   3.350   4.461   8.184
 5698SOL    HW117774   3.329   4.408   8.260
 5698SOL    HW217775   3.391   0.040   8.220
 5699SOL     OW17776   2.060   4.006   8.949
 5699SOL    HW117777   1.976   4.052   8.941
 5699SOL    HW217778   2.046   3.944   9.020
 5700SOL     OW17779   3.263   3.831   7.878
 5700SOL    HW117780   3.252   3.806   7.786
 5700SOL    HW217781   3.357   3.840   7.889
 5701SOL     OW17782   2.219   4.384   7.859
 5701SOL    HW117783   2.258   4.310   7.905
 5701SOL    HW217784   2.148   4.413   7.917
 5702SOL     OW17785   3.400   3.950   9.173
 5702SOL    HW117786   3.407   3.972   9.266
 5702SOL    HW217787   3.332   3.883   9.170
 5703SOL     OW17788   2.491   3.849   7.555
 5703SOL    HW117789   2.566   3.790   7.565
 5703SOL    HW217790   2.445   3.816   7.478
 5704SOL     OW17791   2.630   4.001   9.201
 5704SOL    HW117792   2.703   3.939   9.207
 5704SOL    HW217793   2.578   3.985   9.280
 5705SOL     OW17794   3.208   4.311   8.876
 5705SOL    HW117795   3.230   4.274   8.962
 5705SOL    HW217796   3.244   4.399   8.878
 5706SOL     OW17797   2.784   4.236   8.347
 5706SOL    HW117798   2.762   4.220   8.255
 5706SOL    HW217799   2.824   4.155   8.377
 5707SOL     OW17800   2.410   3.787   7.953
 5707SOL    HW117801   2.329   3.788   8.005
 5707SOL    HW217802   2.404   3.866   7.899
 5708SOL     OW17803   2.154   3.771   7.632
 5708SOL    HW117804   2.213   3.836   7.594
 5708SOL    HW217805   2.213   3.707   7.672
 5709SOL     OW17806   2.797   3.969   7.913
 5709SOL    HW117807   2.769   4.009   7.830
 5709SOL    HW217808   2.893   3.980   7.913
 5710SOL     OW17809   2.940   4.395   8.961
 5710SOL    HW117810   2.855   4.365   8.927
 5710SOL    HW217811   3.005   4.352   8.905
 5711SOL     OW17812   2.887   4.269   7.471
 5711SOL    HW117813   2.868   4.357   7.438
 5711SOL    HW217814   2.950   4.284   7.542
 5712SOL     OW17815   1.936   4.280   8.839
 5712SOL    HW117816   2.027   4.272   8.811
 5712SOL    HW217817   1.936   4.353   8.901
 5713SOL     OW17818   2.423   3.950   8.610
 5713SOL    HW117819   2.462   3.871   8.649
 5713SOL    HW217820   2.332   3.949   8.641
 5714SOL     OW17821   2.732   4.189   8.086
 5714SOL    HW117822   2.695   4.247   8.019
 5714SOL    HW217823   2.750   4.107   8.039
 5715SOL     OW17824   2.876   3.777   8.202
 5715SOL    HW117825   2.818   3.768   8.126
 5715SOL    HW217826   2.856   3.701   8.256
 5716SOL     OW17827   3.339   4.313   8.418
 5716SOL    HW117828   3.284   4.237   8.438
 5716SOL    HW217829   3.391   4.326   8.497
 5717SOL     OW17830   3.262   4.296   7.520
 5717SOL    HW117831   3.201   4.270   7.589
 5717SOL    HW217832   3.345   4.255   7.546
 5718SOL     OW17833   2.386   3.987   7.769
 5718SOL    HW117834   2.427   3.937   7.698
 5718SOL    HW217835   2.372   4.074   7.731
 5719SOL     OW17836   2.780   3.822   8.847
 5719SOL    HW117837   2.803   3.802   8.756
 5719SOL    HW217838   2.859   3.861   8.884
 5720SOL     OW17839   2.294   0.008   8.715
 5720SOL    HW117840   2.360   0.008   8.785
 5720SOL    HW217841   2.252   4.422   8.721
 5721SOL     OW17842   3.128   4.101   8.720
 5721SOL    HW117843   3.162   4.178   8.766
 5721SOL    HW217844   3.039   4.125   8.695
 5722SOL     OW17845   2.417   4.256   8.313
 5722SOL    HW117846   2.437   4.304   8.232
 5722SOL    HW217847   2.480   4.289   8.377
 5723SOL     OW17848   3.434   4.342   7.923
 5723SOL    HW117849   3.403   4.407   7.985
 5723SOL    HW217850   3.493   4.391   7.865
 5724SOL     OW17851   2.858   3.842   9.205
 5724SOL    HW117852   2.910   3.916   9.173
 5724SOL    HW217853   2.908   3.764   9.178
 5725SOL     OW17854   2.360   3.767   9.194
 5725SOL    HW117855   2.319   3.713   9.127
 5725SOL    HW217856   2.300   3.840   9.206
 5726SOL     OW17857   3.074   4.255   7.715
 5726SOL    HW117858   3.083   4.176   7.767
 5726SOL    HW217859   3.024   4.315   7.771
 5727SOL     OW17860   2.163   3.924   8.693
 5727SOL    HW117861   2.126   3.958   8.775
 5727SOL    HW217862   2.143   3.831   8.694
 5728SOL     OW17863   2.592   4.360   8.496
 5728SOL    HW117864   2.666   4.326   8.445
 5728SOL    HW217865   2.596   4.454   8.484
 5729SOL     OW17866   3.612   0.136   9.304
 5729SOL    HW117867   3.550   0.148   9.232
 5729SOL    HW217868   3.564   0.167   9.382
 5730SOL     OW17869   2.164   3.790   8.071
 5730SOL    HW117870   2.146   3.881   8.096
 5730SOL    HW217871   2.169   3.743   8.154
 5731SOL     OW17872   3.474   4.091   7.818
 5731SOL    HW117873   3.503   4.030   7.886
 5731SOL    HW217874   3.452   4.171   7.865
 5732SOL     OW17875   3.391   3.999   7.575
 5732SOL    HW117876   3.329   3.932   7.601
 5732SOL    HW217877   3.425   4.034   7.657
 5733SOL     OW17878   2.179   0.012   8.370
 5733SOL    HW117879   2.256   0.068   8.382
 5733SOL    HW217880   2.192   4.441   8.433
 5734SOL     OW17881   2.199   4.239   8.468
 5734SOL    HW117882   2.160   4.154   8.447
 5734SOL    HW217883   2.272   4.247   8.406
 5735SOL     OW17884   3.000   4.096   9.132
 5735SOL    HW117885   2.949   4.155   9.187
 5735SOL    HW217886   3.085   4.139   9.122
 5736SOL     OW17887   3.022   3.928   8.917
 5736SOL    HW117888   3.013   3.989   8.990
 5736SOL    HW217889   3.060   3.980   8.846
 5737SOL     OW17890   1.899   4.270   8.563
 5737SOL    HW117891   1.980   4.251   8.517
 5737SOL    HW217892   1.924   4.274   8.655
 5738SOL     OW17893   2.054   4.243   9.165
 5738SOL    HW117894   2.111   4.200   9.101
 5738SOL    HW217895   1.999   4.301   9.113
 5739SOL     OW17896   2.681   4.285   7.791
 5739SOL    HW117897   2.679   4.209   7.734
 5739SOL    HW217898   2.593   4.323   7.784
 5740SOL     OW17899   3.500   4.319   8.637
 5740SOL    HW117900   3.494   4.260   8.713
 5740SOL    HW217901   3.588   4.304   8.602
 5741SOL     OW17902   2.546   4.182   8.706
 5741SOL    HW117903   2.501   4.104   8.674
 5741SOL    HW217904   2.549   4.241   8.631
 5742SOL     OW17905   2.343   4.222   7.639
 5742SOL    HW117906   2.378   4.310   7.656
 5742SOL    HW217907   2.249   4.235   7.630
 5743SOL     OW17908   3.580   3.866   7.961
 5743SOL    HW117909   3.654   3.852   7.901
 5743SOL    HW217910   3.565   3.780   8.000
 5744SOL     OW17911   3.142   0.138   8.127
 5744SOL    HW117912   3.200   0.062   8.133
 5744SOL    HW217913   3.192   0.203   8.077
 5745SOL     OW17914   3.701   3.897   8.416
 5745SOL    HW117915   3.730   3.811   8.386
 5745SOL    HW217916   3.615   3.908   8.376
 5746SOL     OW17917   2.126   4.042   8.166
 5746SOL    HW117918   2.039   4.074   8.141
 5746SOL    HW217919   2.120   4.031   8.261
 5747SOL     OW17920   2.773   0.093   7.674
 5747SOL    HW117921   2.855   0.135   7.646
 5747SOL    HW217922   2.796   0.051   7.757
 5748SOL     OW17923   2.929   0.306   8.184
 5748SOL    HW117924   2.845   0.286   8.144
 5748SOL    HW217925   2.989   0.239   8.149
 5749SOL     OW17926   2.881   3.964   8.413
 5749SOL    HW117927   2.876   3.915   8.331
 5749SOL    HW217928   2.876   3.897   8.481
 5750SOL     OW17929   3.581   4.114   8.828
 5750SOL    HW117930   3.652   4.178   8.825
 5750SOL    HW217931   3.611   4.043   8.772
 5751SOL     OW17932   2.535   3.919   8.947
 5751SOL    HW117933   2.619   3.902   8.904
 5751SOL    HW217934   2.558   3.950   9.034
 5752SOL     OW17935   1.937   4.048   7.478
 5752SOL    HW117936   1.848   4.039   7.442
 5752SOL    HW217937   1.968   4.132   7.445
 5753SOL     OW17938   1.933   3.882   7.762
 5753SOL    HW117939   1.917   3.962   7.711
 5753SOL    HW217940   2.017   3.850   7.730
 5754SOL     OW17941   2.587   4.288   9.152
 5754SOL    HW117942   2.594   4.336   9.235
 5754SOL    HW217943   2.616   4.200   9.173
 5755SOL     OW17944   3.081   4.043   7.903
 5755SOL    HW117945   3.144   3.972   7.894
 5755SOL    HW217946   3.110   4.090   7.981
 5756SOL     OW17947   3.625   4.088   9.095
 5756SOL    HW117948   3.608   4.098   9.002
 5756SOL    HW217949   3.556   4.030   9.127
 5757SOL     OW17950   2.972   0.230   7.552
 5757SOL    HW117951   2.949   0.269   7.468
 5757SOL    HW217952   3.050   0.178   7.535
 5758SOL     OW17953   3.676   3.909   8.686
 5758SOL    HW117954   3.686   3.815   8.701
 5758SOL    HW217955   3.685   3.919   8.592
 5759SOL     OW17956   2.306   4.153   7.986
 5759SOL    HW117957   2.323   4.084   7.922
 5759SOL    HW217958   2.249   4.111   8.051
 5760SOL     OW17959   2.185   4.264   8.741
 5760SOL    HW117960   2.241   4.210   8.796
 5760SOL    HW217961   2.206   4.239   8.651
 5761SOL     OW17962   3.294   3.947   8.566
 5761SOL    HW117963   3.323   3.870   8.614
 5761SOL    HW217964   3.242   3.996   8.629
 5762SOL     OW17965   2.870   3.745   8.593
 5762SOL    HW117966   2.816   3.676   8.555
 5762SOL    HW217967   2.958   3.708   8.595
 5763SOL     OW17968   3.214   3.778   7.611
 5763SOL    HW117969   3.240   3.718   7.541
 5763SOL    HW217970   3.128   3.746   7.639
 5764SOL     OW17971   3.161   4.176   8.131
 5764SOL    HW117972   3.119   4.261   8.145
 5764SOL    HW217973   3.162   4.135   8.217
 5765SOL     OW17974   3.449   3.929   8.324
 5765SOL    HW117975   3.386   3.948   8.394
 5765SOL    HW217976   3.450   4.008   8.270
 5766SOL     OW17977   2.088   4.292   9.433
 5766SOL    HW117978   2.027   4.356   9.469
 5766SOL    HW217979   2.077   4.299   9.339
 5767SOL     OW17980   2.086   4.000  10.300
 5767SOL    HW117981   2.114   3.969  10.386
 5767SOL    HW217982   1.996   3.969  10.291
 5768SOL     OW17983   1.868   4.102   9.953
 5768SOL    HW117984   1.785   4.129   9.991
 5768SOL    HW217985   1.846   4.024   9.901
 5769SOL     OW17986   3.597   4.335   9.546
 5769SOL    HW117987   3.596   4.320   9.452
 5769SOL    HW217988   3.595   4.247   9.584
 5770SOL     OW17989   2.588   0.266   9.993
 5770SOL    HW117990   2.585   0.208  10.068
 5770SOL    HW217991   2.496   0.284   9.973
 5771SOL     OW17992   2.313   4.119  10.794
 5771SOL    HW117993   2.384   4.055  10.802
 5771SOL    HW217994   2.234   4.071  10.816
 5772SOL     OW17995   3.477   4.173  10.048
 5772SOL    HW117996   3.405   4.200   9.992
 5772SOL    HW217997   3.487   4.245  10.111
 5773SOL     OW17998   3.452   3.839  10.780
 5773SOL    HW117999   3.458   3.919  10.728
 5773SOL    HW218000   3.450   3.870  10.871
 5774SOL     OW18001   1.945   4.369   9.876
 5774SOL    HW118002   1.935   4.277   9.899
 5774SOL    HW218003   2.000   4.405   9.945
 5775SOL     OW18004   1.988   4.458  10.907
 5775SOL    HW118005   2.084   4.464  10.912
 5775SOL    HW218006   1.959   0.048  10.892
 5776SOL     OW18007   2.674   3.723   9.815
 5776SOL    HW118008   2.714   3.808   9.800
 5776SOL    HW218009   2.581   3.742   9.827
 5777SOL     OW18010   2.202   3.979   0.015
 5777SOL    HW118011   2.246   4.062   0.032
 5777SOL    HW218012   2.109   3.997   0.033
 5778SOL     OW18013   3.140   4.070  10.242
 5778SOL    HW118014   3.051   4.036  10.251
 5778SOL    HW218015   3.192   4.019  10.304
 5779SOL     OW18016   2.684   4.305  10.766
 5779SOL    HW118017   2.637   4.318  10.848
 5779SOL    HW218018   2.620   4.265  10.707
 5780SOL     OW18019   2.857   4.146  10.546
 5780SOL    HW118020   2.781   4.167  10.600
 5780SOL    HW218021   2.823   4.089  10.477
 5781SOL     OW18022   2.918   4.409   9.731
 5781SOL    HW118023   2.919   4.444   9.820
 5781SOL    HW218024   2.830   4.375   9.719
 5782SOL     OW18025   2.747   4.063   9.501
 5782SOL    HW118026   2.792   4.126   9.443
 5782SOL    HW218027   2.768   3.977   9.463
 5783SOL     OW18028   2.412   3.907  10.202
 5783SOL    HW118029   2.413   3.934  10.294
 5783SOL    HW218030   2.411   3.990  10.153
 5784SOL     OW18031   3.350   4.461  10.046
 5784SOL    HW118032   3.329   4.408  10.122
 5784SOL    HW218033   3.391   0.040  10.082
 5785SOL     OW18034   2.063   4.005  10.806
 5785SOL    HW118035   1.983   4.057  10.805
 5785SOL    HW218036   2.053   3.946  10.881
 5786SOL     OW18037   3.263   3.831   9.740
 5786SOL    HW118038   3.252   3.806   9.648
 5786SOL    HW218039   3.357   3.840   9.751
 5787SOL     OW18040   2.219   4.384   9.721
 5787SOL    HW118041   2.258   4.310   9.767
 5787SOL    HW218042   2.148   4.414   9.779
 5788SOL     OW18043   2.491   3.849   9.417
 5788SOL    HW118044   2.566   3.790   9.427
 5788SOL    HW218045   2.445   3.816   9.340
 5789SOL     OW18046   2.630   3.998  11.046
 5789SOL    HW118047   2.696   3.940  11.084
 5789SOL    HW218048   2.570   4.017   0.018
 5790SOL     OW18049   3.214   4.308  10.744
 5790SOL    HW118050   3.237   4.286  10.834
 5790SOL    HW218051   3.238   4.400  10.735
 5791SOL     OW18052   2.784   4.236  10.209
 5791SOL    HW118053   2.762   4.220  10.117
 5791SOL    HW218054   2.823   4.154  10.239
 5792SOL     OW18055   2.410   3.787   9.815
 5792SOL    HW118056   2.329   3.788   9.867
 5792SOL    HW218057   2.404   3.866   9.761
 5793SOL     OW18058   2.155   3.770   9.494
 5793SOL    HW118059   2.213   3.837   9.456
 5793SOL    HW218060   2.213   3.707   9.534
 5794SOL     OW18061   2.798   3.969   9.775
 5794SOL    HW118062   2.769   4.009   9.692
 5794SOL    HW218063   2.893   3.980   9.775
 5795SOL     OW18064   2.942   4.389  10.812
 5795SOL    HW118065   2.855   4.362  10.781
 5795SOL    HW218066   3.003   4.343  10.755
 5796SOL     OW18067   2.887   4.269   9.334
 5796SOL    HW118068   2.868   4.357   9.300
 5796SOL    HW218069   2.950   4.284   9.404
 5797SOL     OW18070   1.934   4.282  10.703
 5797SOL    HW118071   2.026   4.274  10.676
 5797SOL    HW218072   1.937   4.341  10.778
 5798SOL     OW18073   2.423   3.950  10.473
 5798SOL    HW118074   2.461   3.871  10.511
 5798SOL    HW218075   2.332   3.950  10.503
 5799SOL     OW18076   2.733   4.189   9.948
 5799SOL    HW118077   2.694   4.247   9.882
 5799SOL    HW218078   2.750   4.107   9.901
 5800SOL     OW18079   2.876   3.777  10.064
 5800SOL    HW118080   2.818   3.768   9.988
 5800SOL    HW218081   2.856   3.701  10.118
 5801SOL     OW18082   3.338   4.313  10.280
 5801SOL    HW118083   3.284   4.236  10.299
 5801SOL    HW218084   3.391   4.326  10.358
 5802SOL     OW18085   3.262   4.296   9.382
 5802SOL    HW118086   3.201   4.270   9.451
 5802SOL    HW218087   3.345   4.255   9.408
 5803SOL     OW18088   2.386   3.987   9.631
 5803SOL    HW118089   2.427   3.937   9.560
 5803SOL    HW218090   2.372   4.074   9.593
 5804SOL     OW18091   2.780   3.822  10.709
 5804SOL    HW118092   2.803   3.802  10.618
 5804SOL    HW218093   2.859   3.863  10.745
 5805SOL     OW18094   2.296   0.006  10.571
 5805SOL    HW118095   2.355   0.010  10.646
 5805SOL    HW218096   2.250   4.423  10.581
 5806SOL     OW18097   3.129   4.100  10.584
 5806SOL    HW118098   3.163   4.178  10.628
 5806SOL    HW218099   3.041   4.126  10.557
 5807SOL     OW18100   2.417   4.255  10.175
 5807SOL    HW118101   2.437   4.304  10.095
 5807SOL    HW218102   2.480   4.289  10.239
 5808SOL     OW18103   3.434   4.342   9.785
 5808SOL    HW118104   3.403   4.407   9.847
 5808SOL    HW218105   3.493   4.391   9.727
 5809SOL     OW18106   2.265   4.464  10.906
 5809SOL    HW118107   2.332   0.029  10.885
 5809SOL    HW218108   2.315   4.383  10.921
 5810SOL     OW18109   3.074   4.255   9.577
 5810SOL    HW118110   3.083   4.176   9.629
 5810SOL    HW218111   3.024   4.315   9.633
 5811SOL     OW18112   2.163   3.925  10.554
 5811SOL    HW118113   2.128   3.958  10.637
 5811SOL    HW218114   2.142   3.831  10.556
 5812SOL     OW18115   2.592   4.360  10.358
 5812SOL    HW118116   2.666   4.326  10.307
 5812SOL    HW218117   2.595   4.455  10.345
 5813SOL     OW18118   2.164   3.790   9.933
 5813SOL    HW118119   2.145   3.881   9.958
 5813SOL    HW218120   2.169   3.743  10.015
 5814SOL     OW18121   3.474   4.091   9.680
 5814SOL    HW118122   3.503   4.030   9.748
 5814SOL    HW218123   3.452   4.171   9.727
 5815SOL     OW18124   3.391   3.999   9.437
 5815SOL    HW118125   3.329   3.932   9.463
 5815SOL    HW218126   3.425   4.034   9.519
 5816SOL     OW18127   2.180   0.012  10.231
 5816SOL    HW118128   2.256   0.068  10.244
 5816SOL    HW218129   2.191   4.441  10.295
 5817SOL     OW18130   2.199   4.239  10.329
 5817SOL    HW118131   2.160   4.154  10.309
 5817SOL    HW218132   2.272   4.246  10.267
 5818SOL     OW18133   3.019   3.933  10.781
 5818SOL    HW118134   3.026   3.993  10.856
 5818SOL    HW218135   3.058   3.981  10.708
 5819SOL     OW18136   1.899   4.271  10.426
 5819SOL    HW118137   1.981   4.251  10.380
 5819SOL    HW218138   1.923   4.275  10.518
 5820SOL     OW18139   3.218   0.182  10.989
 5820SOL    HW118140   3.274   0.259  10.998
 5820SOL    HW218141   3.228   0.155  10.898
 5821SOL     OW18142   2.681   4.285   9.653
 5821SOL    HW118143   2.679   4.209   9.595
 5821SOL    HW218144   2.593   4.323   9.646
 5822SOL     OW18145   3.500   4.319  10.499
 5822SOL    HW118146   3.495   4.260  10.574
 5822SOL    HW218147   3.588   4.305  10.463
 5823SOL     OW18148   2.551   4.181  10.568
 5823SOL    HW118149   2.502   4.104  10.538
 5823SOL    HW218150   2.549   4.241  10.493
 5824SOL     OW18151   2.343   4.222   9.501
 5824SOL    HW118152   2.378   4.310   9.518
 5824SOL    HW218153   2.249   4.235   9.492
 5825SOL     OW18154   3.580   3.866   9.823
 5825SOL    HW118155   3.654   3.853   9.763
 5825SOL    HW218156   3.565   3.780   9.862
 5826SOL     OW18157   3.142   0.138   9.989
 5826SOL    HW118158   3.200   0.062   9.995
 5826SOL    HW218159   3.192   0.202   9.938
 5827SOL     OW18160   3.701   3.897  10.279
 5827SOL    HW118161   3.731   3.811  10.248
 5827SOL    HW218162   3.615   3.908  10.238
 5828SOL     OW18163   2.126   4.042  10.028
 5828SOL    HW118164   2.039   4.074  10.003
 5828SOL    HW218165   2.120   4.031  10.123
 5829SOL     OW18166   2.773   0.093   9.536
 5829SOL    HW118167   2.855   0.135   9.508
 5829SOL    HW218168   2.796   0.051   9.619
 5830SOL     OW18169   2.929   0.306  10.046
 5830SOL    HW118170   2.845   0.286  10.005
 5830SOL    HW218171   2.989   0.239  10.011
 5831SOL     OW18172   2.881   3.964  10.275
 5831SOL    HW118173   2.876   3.916  10.193
 5831SOL    HW218174   2.876   3.897  10.343
 5832SOL     OW18175   3.578   4.116  10.689
 5832SOL    HW118176   3.650   4.180  10.689
 5832SOL    HW218177   3.609   4.045  10.633
 5833SOL     OW18178   2.534   3.918  10.804
 5833SOL    HW118179   2.616   3.899  10.759
 5833SOL    HW218180   2.562   3.953  10.889
 5834SOL     OW18181   1.937   4.047   9.340
 5834SOL    HW118182   1.848   4.039   9.304
 5834SOL    HW218183   1.968   4.132   9.307
 5835SOL     OW18184   1.933   3.882   9.624
 5835SOL    HW118185   1.917   3.962   9.573
 5835SOL    HW218186   2.017   3.850   9.592
 5836SOL     OW18187   2.580   4.298  11.025
 5836SOL    HW118188   2.616   4.344   0.001
 5836SOL    HW218189   2.622   4.212  11.027
 5837SOL     OW18190   3.081   4.043   9.765
 5837SOL    HW118191   3.145   3.972   9.756
 5837SOL    HW218192   3.110   4.090   9.843
 5838SOL     OW18193   3.618   4.052  10.952
 5838SOL    HW118194   3.596   4.082  10.864
 5838SOL    HW218195   3.534   4.053  10.998
 5839SOL     OW18196   2.972   0.230   9.414
 5839SOL    HW118197   2.949   0.269   9.330
 5839SOL    HW218198   3.050   0.178   9.397
 5840SOL     OW18199   3.674   3.909  10.549
 5840SOL    HW118200   3.685   3.815  10.563
 5840SOL    HW218201   3.684   3.919  10.454
 5841SOL     OW18202   2.306   4.153   9.848
 5841SOL    HW118203   2.323   4.084   9.784
 5841SOL    HW218204   2.249   4.111   9.913
 5842SOL     OW18205   2.183   4.264  10.603
 5842SOL    HW118206   2.239   4.210  10.659
 5842SOL    HW218207   2.206   4.237  10.514
 5843SOL     OW18208   3.293   3.947  10.428
 5843SOL    HW118209   3.325   3.870  10.475
 5843SOL    HW218210   3.242   3.995  10.492
 5844SOL     OW18211   2.870   3.745  10.456
 5844SOL    HW118212   2.815   3.677  10.417
 5844SOL    HW218213   2.958   3.707  10.457
 5845SOL     OW18214   3.214   3.778   9.473
 5845SOL    HW118215   3.240   3.718   9.403
 5845SOL    HW218216   3.128   3.746   9.501
 5846SOL     OW18217   3.161   4.176   9.993
 5846SOL    HW118218   3.119   4.261  10.007
 5846SOL    HW218219   3.162   4.135  10.079
 5847SOL     OW18220   3.449   3.929  10.186
 5847SOL    HW118221   3.386   3.948  10.255
 5847SOL    HW218222   3.450   4.008  10.132
 5848SOL     OW18223   3.951   0.615   0.119
 5848SOL    HW118224   3.865   0.621   0.159
 5848SOL    HW218225   3.935   0.628   0.025
 5849SOL     OW18226   3.932   0.299   0.988
 5849SOL    HW118227   3.966   0.270   1.073
 5849SOL    HW218228   3.852   0.249   0.976
 5850SOL     OW18229   3.732   0.384   0.639
 5850SOL    HW118230   3.646   0.404   0.676
 5850SOL    HW218231   3.716   0.307   0.583
 5851SOL     OW18232   4.269   1.251   1.147
 5851SOL    HW118233   4.193   1.304   1.124
 5851SOL    HW218234   4.329   1.311   1.191
 5852SOL     OW18235   0.025   0.781   1.857
 5852SOL    HW118236   0.071   0.833   1.923
 5852SOL    HW218237   0.065   0.806   1.774
 5853SOL     OW18238   4.398   0.995   0.643
 5853SOL    HW118239   4.471   0.993   0.704
 5853SOL    HW218240   4.334   1.053   0.684
 5854SOL     OW18241   4.418   1.161   1.814
 5854SOL    HW118242   4.462   1.242   1.789
 5854SOL    HW218243   4.327   1.173   1.786
 5855SOL     OW18244   4.059   1.434   1.069
 5855SOL    HW118245   3.987   1.393   1.021
 5855SOL    HW218246   4.108   1.482   1.002
 5856SOL     OW18247   4.163   0.396   1.489
 5856SOL    HW118248   4.242   0.342   1.490
 5856SOL    HW218249   4.092   0.334   1.502
 5857SOL     OW18250   3.943   1.713   0.476
 5857SOL    HW118251   3.966   1.790   0.527
 5857SOL    HW218252   4.011   1.707   0.409
 5858SOL     OW18253   3.951   1.439   0.532
 5858SOL    HW118254   3.936   1.533   0.539
 5858SOL    HW218255   3.890   1.401   0.595
 5859SOL     OW18256   3.973   1.089   0.886
 5859SOL    HW118257   3.977   1.005   0.932
 5859SOL    HW218258   3.920   1.144   0.944
 5860SOL     OW18259   4.359   1.798   1.452
 5860SOL    HW118260   4.273   1.764   1.477
 5860SOL    HW218261   4.349   1.893   1.453
 5861SOL     OW18262   4.302   0.999   0.137
 5861SOL    HW118263   4.318   1.064   0.068
 5861SOL    HW218264   4.381   1.002   0.192
 5862SOL     OW18265   3.838   0.650   0.559
 5862SOL    HW118266   3.809   0.562   0.582
 5862SOL    HW218267   3.830   0.700   0.641
 5863SOL     OW18268   3.766   1.602   0.121
 5863SOL    HW118269   3.739   1.513   0.142
 5863SOL    HW218270   3.738   1.655   0.196
 5864SOL     OW18271   3.845   0.743   1.586
 5864SOL    HW118272   3.937   0.765   1.602
 5864SOL    HW218273   3.798   0.826   1.592
 5865SOL     OW18274   4.314   1.385   0.737
 5865SOL    HW118275   4.278   1.297   0.741
 5865SOL    HW218276   4.313   1.408   0.644
 5866SOL     OW18277   0.016   0.009   0.505
 5866SOL    HW118278   0.048   0.079   0.447
 5866SOL    HW218279   4.427   0.037   0.528
 5867SOL     OW18280   3.914   0.968   1.270
 5867SOL    HW118281   3.999   0.927   1.252
 5867SOL    HW218282   3.850   0.912   1.225
 5868SOL     OW18283   4.039   0.254   1.785
 5868SOL    HW118284   4.101   0.320   1.814
 5868SOL    HW218285   3.964   0.263   1.843
 5869SOL     OW18286   4.308   0.720   0.269
 5869SOL    HW118287   4.330   0.794   0.213
 5869SOL    HW218288   4.244   0.754   0.331
 5870SOL     OW18289   3.813   0.820   0.775
 5870SOL    HW118290   3.894   0.812   0.825
 5870SOL    HW218291   3.771   0.899   0.810
 5871SOL     OW18292   3.853   1.838   1.576
 5871SOL    HW118293   3.850   1.820   1.670
 5871SOL    HW218294   3.761   1.844   1.549
 5872SOL     OW18295   4.253   0.201   0.894
 5872SOL    HW118296   4.285   0.218   0.982
 5872SOL    HW218297   4.265   0.284   0.847
 5873SOL     OW18298   4.081   1.809   0.860
 5873SOL    HW118299   4.129   1.727   0.867
 5873SOL    HW218300   4.148   1.877   0.870
 5874SOL     OW18301   4.042   0.957   0.273
 5874SOL    HW118302   4.120   0.983   0.224
 5874SOL    HW218303   4.014   0.875   0.232
 5875SOL     OW18304   4.179   1.254   1.735
 5875SOL    HW118305   4.151   1.265   1.644
 5875SOL    HW218306   4.098   1.263   1.786
 5876SOL     OW18307   3.914   0.270   1.509
 5876SOL    HW118308   3.846   0.335   1.490
 5876SOL    HW218309   3.920   0.268   1.604
 5877SOL     OW18310   4.193   1.734   0.326
 5877SOL    HW118311   4.223   1.794   0.393
 5877SOL    HW218312   4.267   1.725   0.266
 5878SOL     OW18313   3.978   1.793   1.233
 5878SOL    HW118314   4.027   1.725   1.280
 5878SOL    HW218315   3.965   1.757   1.146
 5879SOL     OW18316   4.108   0.694   0.476
 5879SOL    HW118317   4.136   0.603   0.488
 5879SOL    HW218318   4.015   0.694   0.499
 5880SOL     OW18319   4.343   0.132   0.103
 5880SOL    HW118320   4.426   0.096   0.133
 5880SOL    HW218321   4.320   0.078   0.027
 5881SOL     OW18322   0.018   1.425   0.915
 5881SOL    HW118323   0.089   1.457   0.860
 5881SOL    HW218324   4.445   1.409   0.854
 5882SOL     OW18325   4.271   0.106   0.537
 5882SOL    HW118326   4.186   0.071   0.562
 5882SOL    HW218327   4.254   0.156   0.457
 5883SOL     OW18328   4.012   0.058   0.197
 5883SOL    HW118329   4.078   0.111   0.152
 5883SOL    HW218330   4.062   0.006   0.260
 5884SOL     OW18331   0.321   0.682   1.454
 5884SOL    HW118332   0.246   0.623   1.447
 5884SOL    HW218333   0.397   0.626   1.435
 5885SOL     OW18334   4.190   1.145   0.738
 5885SOL    HW118335   4.119   1.127   0.800
 5885SOL    HW218336   4.151   1.129   0.652
 5886SOL     OW18337   3.804   0.551   1.394
 5886SOL    HW118338   3.895   0.555   1.363
 5886SOL    HW218339   3.798   0.623   1.456
 5887SOL     OW18340   4.295   0.235   1.157
 5887SOL    HW118341   4.307   0.142   1.179
 5887SOL    HW218342   4.206   0.255   1.188
 5888SOL     OW18343   4.234   1.401   0.189
 5888SOL    HW118344   4.149   1.386   0.230
 5888SOL    HW218345   4.219   1.388   0.095
 5889SOL     OW18346   4.246   0.266   0.319
 5889SOL    HW118347   4.286   0.213   0.250
 5889SOL    HW218348   4.228   0.350   0.277
 5890SOL     OW18349   4.139   0.813   1.250
 5890SOL    HW118350   4.206   0.824   1.317
 5890SOL    HW218351   4.105   0.725   1.264
 5891SOL     OW18352   3.792   1.572   1.350
 5891SOL    HW118353   3.758   1.645   1.297
 5891SOL    HW218354   3.887   1.581   1.345
 5892SOL     OW18355   4.076   1.112   0.496
 5892SOL    HW118356   4.076   1.185   0.435
 5892SOL    HW218357   4.071   1.034   0.440
 5893SOL     OW18358   4.300   0.539   0.862
 5893SOL    HW118359   4.302   0.605   0.793
 5893SOL    HW218360   4.361   0.571   0.928
 5894SOL     OW18361   4.073   1.530   1.318
 5894SOL    HW118362   4.066   1.487   1.233
 5894SOL    HW218363   4.167   1.533   1.335
 5895SOL     OW18364   4.136   0.742   1.604
 5895SOL    HW118365   4.193   0.789   1.543
 5895SOL    HW218366   4.181   0.660   1.622
 5896SOL     OW18367   4.236   0.069   1.728
 5896SOL    HW118368   4.202   4.487   1.691
 5896SOL    HW218369   4.158   0.121   1.747
 5897SOL     OW18370   4.292   0.885   1.026
 5897SOL    HW118371   4.325   0.974   1.039
 5897SOL    HW218372   4.243   0.866   1.106
 5898SOL     OW18373   4.014   0.238   1.240
 5898SOL    HW118374   3.973   0.250   1.326
 5898SOL    HW218375   4.046   0.148   1.241
 5899SOL     OW18376   3.770   1.310   1.277
 5899SOL    HW118377   3.803   1.257   1.350
 5899SOL    HW218378   3.777   1.400   1.309
 5900SOL     OW18379   4.018   0.061   0.655
 5900SOL    HW118380   4.011   0.156   0.661
 5900SOL    HW218381   4.032   0.032   0.745
 5901SOL     OW18382   4.077   0.916   1.807
 5901SOL    HW118383   4.158   0.931   1.854
 5901SOL    HW218384   4.099   0.852   1.739
 5902SOL     OW18385   4.032   0.809   0.947
 5902SOL    HW118386   4.124   0.836   0.946
 5902SOL    HW218387   4.034   0.720   0.980
 5903SOL     OW18388   4.066   0.529   1.010
 5903SOL    HW118389   4.023   0.446   0.991
 5903SOL    HW218390   4.143   0.530   0.954
 5904SOL     OW18391   3.731   1.328   0.195
 5904SOL    HW118392   3.644   1.339   0.157
 5904SOL    HW218393   3.732   1.237   0.225
 5905SOL     OW18394   3.815   1.790   0.937
 5905SOL    HW118395   3.785   1.710   0.894
 5905SOL    HW218396   3.905   1.801   0.905
 5906SOL     OW18397   4.232   1.581   0.906
 5906SOL    HW118398   4.316   1.619   0.930
 5906SOL    HW218399   4.254   1.508   0.847
 5907SOL     OW18400   3.758   0.543   1.117
 5907SOL    HW118401   3.835   0.519   1.066
 5907SOL    HW218402   3.789   0.548   1.208
 5908SOL     OW18403   3.909   0.517   1.720
 5908SOL    HW118404   3.981   0.496   1.660
 5908SOL    HW218405   3.865   0.592   1.679
 5909SOL     OW18406   0.031   0.552   0.270
 5909SOL    HW118407   0.016   0.480   0.331
 5909SOL    HW218408   4.464   0.617   0.294
 5910SOL     OW18409   3.972   1.554   1.731
 5910SOL    HW118410   3.944   1.616   1.797
 5910SOL    HW218411   3.968   1.469   1.774
 5911SOL     OW18412   4.192   0.491   0.178
 5911SOL    HW118413   4.248   0.563   0.205
 5911SOL    HW218414   4.104   0.529   0.174
 5912SOL     OW18415   3.872   1.139   1.471
 5912SOL    HW118416   3.876   1.086   1.550
 5912SOL    HW218417   3.888   1.078   1.400
 5913SOL     OW18418   3.808   1.268   1.014
 5913SOL    HW118419   3.794   1.277   1.108
 5913SOL    HW218420   3.735   1.212   0.984
 5914SOL     OW18421   4.390   1.652   1.702
 5914SOL    HW118422   4.357   1.739   1.724
 5914SOL    HW218423   4.441   1.665   1.623
 5915SOL     OW18424   3.859   1.797   1.844
 5915SOL    HW118425   3.808   1.732   1.892
 5915SOL    HW218426   3.908   1.845   1.911
 5916SOL     OW18427   3.990   0.328   0.718
 5916SOL    HW118428   3.903   0.359   0.693
 5916SOL    HW218429   3.984   0.315   0.813
 5917SOL     OW18430   4.090   1.304   1.491
 5917SOL    HW118431   4.072   1.381   1.437
 5917SOL    HW218432   4.016   1.246   1.474
 5918SOL     OW18433   4.324   1.489   0.482
 5918SOL    HW118434   4.345   1.433   0.408
 5918SOL    HW218435   4.259   1.551   0.448
 5919SOL     OW18436   3.989   1.344   0.287
 5919SOL    HW118437   3.899   1.344   0.252
 5919SOL    HW218438   3.980   1.382   0.374
 5920SOL     OW18439   3.835   1.019   1.719
 5920SOL    HW118440   3.759   0.996   1.773
 5920SOL    HW218441   3.910   0.983   1.767
 5921SOL     OW18442   4.374   0.205   1.489
 5921SOL    HW118443   4.463   0.216   1.457
 5921SOL    HW218444   4.384   0.182   1.581
 5922SOL     OW18445   3.801   0.348   0.053
 5922SOL    HW118446   3.724   0.311   0.010
 5922SOL    HW218447   3.820   0.428   0.003
 5923SOL     OW18448   3.790   0.178   0.326
 5923SOL    HW118449   3.785   0.246   0.259
 5923SOL    HW218450   3.864   0.123   0.298
 5924SOL     OW18451   4.337   0.840   1.434
 5924SOL    HW118452   4.381   0.923   1.419
 5924SOL    HW218453   4.408   0.777   1.445
 5925SOL     OW18454   4.402   0.558   1.732
 5925SOL    HW118455   4.427   0.634   1.785
 5925SOL    HW218456   4.485   0.515   1.710
 5926SOL     OW18457   4.109   1.739   1.560
 5926SOL    HW118458   4.022   1.778   1.549
 5926SOL    HW218459   4.092   1.656   1.606
 5927SOL     OW18460   4.311   0.732   0.663
 5927SOL    HW118461   4.353   0.818   0.654
 5927SOL    HW218462   4.239   0.733   0.600
 5928SOL     OW18463   3.944   1.307   1.855
 5928SOL    HW118464   3.878   1.244   1.828
 5928SOL    HW218465   3.930   1.318   1.949
 5929SOL     OW18466   3.807   1.235   0.664
 5929SOL    HW118467   3.810   1.185   0.746
 5929SOL    HW218468   3.878   1.199   0.612
 5930SOL     OW18469   4.412   1.387   1.651
 5930SOL    HW118470   4.323   1.353   1.653
 5930SOL    HW218471   4.402   1.481   1.669
 5931SOL     OW18472   4.161   0.432   0.528
 5931SOL    HW118473   4.181   0.360   0.469
 5931SOL    HW218474   4.108   0.394   0.597
 5932SOL     OW18475   4.052   0.554   1.289
 5932SOL    HW118476   4.104   0.496   1.343
 5932SOL    HW218477   4.071   0.528   1.199
 5933SOL     OW18478   0.036   1.594   0.686
 5933SOL    HW118479   0.060   1.650   0.612
 5933SOL    HW218480   4.463   1.541   0.653
 5934SOL     OW18481   3.766   1.072   0.300
 5934SOL    HW118482   3.862   1.066   0.296
 5934SOL    HW218483   3.737   0.985   0.327
 5935SOL     OW18484   3.955   0.627   1.981
 5935SOL    HW118485   3.867   0.621   2.019
 5935SOL    HW218486   3.945   0.594   1.892
 5936SOL     OW18487   3.932   0.299   2.850
 5936SOL    HW118488   3.966   0.270   2.935
 5936SOL    HW218489   3.851   0.248   2.838
 5937SOL     OW18490   3.732   0.384   2.501
 5937SOL    HW118491   3.646   0.404   2.538
 5937SOL    HW218492   3.718   0.309   2.445
 5938SOL     OW18493   4.271   1.251   3.007
 5938SOL    HW118494   4.193   1.303   2.986
 5938SOL    HW218495   4.329   1.311   3.054
 5939SOL     OW18496   0.025   0.781   3.719
 5939SOL    HW118497   0.071   0.834   3.785
 5939SOL    HW218498   0.065   0.805   3.636
 5940SOL     OW18499   4.399   0.997   2.504
 5940SOL    HW118500   4.470   0.990   2.568
 5940SOL    HW218501   4.334   1.054   2.546
 5941SOL     OW18502   4.418   1.161   3.676
 5941SOL    HW118503   4.462   1.242   3.651
 5941SOL    HW218504   4.327   1.173   3.648
 5942SOL     OW18505   4.059   1.434   2.931
 5942SOL    HW118506   3.987   1.392   2.883
 5942SOL    HW218507   4.107   1.482   2.864
 5943SOL     OW18508   4.163   0.396   3.352
 5943SOL    HW118509   4.242   0.342   3.352
 5943SOL    HW218510   4.092   0.334   3.364
 5944SOL     OW18511   3.943   1.713   2.337
 5944SOL    HW118512   3.966   1.790   2.390
 5944SOL    HW218513   4.014   1.706   2.273
 5945SOL     OW18514   3.953   1.440   2.395
 5945SOL    HW118515   3.936   1.533   2.403
 5945SOL    HW218516   3.892   1.399   2.457
 5946SOL     OW18517   3.974   1.089   2.749
 5946SOL    HW118518   3.977   1.004   2.794
 5946SOL    HW218519   3.920   1.144   2.806
 5947SOL     OW18520   4.359   1.798   3.314
 5947SOL    HW118521   4.273   1.764   3.339
 5947SOL    HW218522   4.349   1.893   3.315
 5948SOL     OW18523   4.311   0.984   1.998
 5948SOL    HW118524   4.339   1.038   1.925
 5948SOL    HW218525   4.378   0.997   2.065
 5949SOL     OW18526   3.839   0.651   2.421
 5949SOL    HW118527   3.810   0.562   2.443
 5949SOL    HW218528   3.830   0.700   2.503
 5950SOL     OW18529   3.754   1.597   1.986
 5950SOL    HW118530   3.737   1.504   2.005
 5950SOL    HW218531   3.730   1.643   2.066
 5951SOL     OW18532   3.845   0.743   3.448
 5951SOL    HW118533   3.937   0.766   3.464
 5951SOL    HW218534   3.798   0.826   3.454
 5952SOL     OW18535   4.314   1.385   2.599
 5952SOL    HW118536   4.278   1.297   2.603
 5952SOL    HW218537   4.313   1.408   2.506
 5953SOL     OW18538   0.019   0.017   2.375
 5953SOL    HW118539   0.048   0.081   2.310
 5953SOL    HW218540   4.428   0.041   2.393
 5954SOL     OW18541   3.914   0.968   3.132
 5954SOL    HW118542   3.999   0.927   3.114
 5954SOL    HW218543   3.850   0.912   3.087
 5955SOL     OW18544   4.039   0.254   3.647
 5955SOL    HW118545   4.101   0.320   3.676
 5955SOL    HW218546   3.964   0.263   3.705
 5956SOL     OW18547   4.312   0.729   2.131
 5956SOL    HW118548   4.312   0.804   2.073
 5956SOL    HW218549   4.243   0.748   2.195
 5957SOL     OW18550   3.813   0.820   2.637
 5957SOL    HW118551   3.894   0.812   2.687
 5957SOL    HW218552   3.771   0.899   2.672
 5958SOL     OW18553   3.853   1.838   3.438
 5958SOL    HW118554   3.850   1.820   3.532
 5958SOL    HW218555   3.762   1.843   3.411
 5959SOL     OW18556   4.250   0.201   2.757
 5959SOL    HW118557   4.286   0.219   2.844
 5959SOL    HW218558   4.265   0.282   2.708
 5960SOL     OW18559   4.081   1.809   2.721
 5960SOL    HW118560   4.129   1.727   2.729
 5960SOL    HW218561   4.148   1.877   2.732
 5961SOL     OW18562   4.044   0.956   2.110
 5961SOL    HW118563   4.126   0.974   2.064
 5961SOL    HW218564   4.014   0.874   2.072
 5962SOL     OW18565   4.179   1.254   3.597
 5962SOL    HW118566   4.151   1.265   3.506
 5962SOL    HW218567   4.098   1.263   3.648
 5963SOL     OW18568   3.914   0.270   3.371
 5963SOL    HW118569   3.846   0.335   3.352
 5963SOL    HW218570   3.920   0.268   3.466
 5964SOL     OW18571   4.193   1.735   2.187
 5964SOL    HW118572   4.223   1.794   2.256
 5964SOL    HW218573   4.263   1.735   2.122
 5965SOL     OW18574   3.979   1.793   3.095
 5965SOL    HW118575   4.027   1.725   3.142
 5965SOL    HW218576   3.965   1.757   3.008
 5966SOL     OW18577   4.110   0.694   2.336
 5966SOL    HW118578   4.137   0.603   2.349
 5966SOL    HW218579   4.017   0.695   2.358
 5967SOL     OW18580   4.328   0.123   1.978
 5967SOL    HW118581   4.414   0.084   1.992
 5967SOL    HW218582   4.305   0.099   1.889
 5968SOL     OW18583   0.017   1.426   2.778
 5968SOL    HW118584   0.090   1.455   2.722
 5968SOL    HW218585   4.445   1.409   2.717
 5969SOL     OW18586   4.270   0.107   2.400
 5969SOL    HW118587   4.186   0.066   2.419
 5969SOL    HW218588   4.255   0.158   2.320
 5970SOL     OW18589   4.023   0.073   2.053
 5970SOL    HW118590   4.102   0.124   2.035
 5970SOL    HW218591   4.053   4.500   2.106
 5971SOL     OW18592   0.321   0.681   3.317
 5971SOL    HW118593   0.246   0.623   3.309
 5971SOL    HW218594   0.396   0.626   3.297
 5972SOL     OW18595   4.189   1.145   2.598
 5972SOL    HW118596   4.119   1.127   2.661
 5972SOL    HW218597   4.150   1.127   2.513
 5973SOL     OW18598   3.804   0.551   3.256
 5973SOL    HW118599   3.895   0.555   3.224
 5973SOL    HW218600   3.798   0.623   3.318
 5974SOL     OW18601   4.295   0.235   3.021
 5974SOL    HW118602   4.307   0.142   3.040
 5974SOL    HW218603   4.206   0.255   3.049
 5975SOL     OW18604   4.230   1.387   2.034
 5975SOL    HW118605   4.145   1.372   2.077
 5975SOL    HW218606   4.207   1.404   1.943
 5976SOL     OW18607   4.246   0.270   2.185
 5976SOL    HW118608   4.285   0.213   2.118
 5976SOL    HW218609   4.228   0.352   2.140
 5977SOL     OW18610   4.139   0.813   3.112
 5977SOL    HW118611   4.206   0.824   3.179
 5977SOL    HW218612   4.105   0.725   3.126
 5978SOL     OW18613   3.792   1.572   3.212
 5978SOL    HW118614   3.758   1.644   3.159
 5978SOL    HW218615   3.887   1.581   3.206
 5979SOL     OW18616   4.076   1.106   2.353
 5979SOL    HW118617   4.077   1.179   2.291
 5979SOL    HW218618   4.074   1.028   2.298
 5980SOL     OW18619   4.300   0.539   2.724
 5980SOL    HW118620   4.301   0.605   2.655
 5980SOL    HW218621   4.361   0.572   2.790
 5981SOL     OW18622   4.073   1.530   3.180
 5981SOL    HW118623   4.065   1.487   3.095
 5981SOL    HW218624   4.167   1.533   3.197
 5982SOL     OW18625   4.136   0.742   3.466
 5982SOL    HW118626   4.193   0.789   3.405
 5982SOL    HW218627   4.181   0.660   3.484
 5983SOL     OW18628   4.236   0.068   3.591
 5983SOL    HW118629   4.201   4.488   3.552
 5983SOL    HW218630   4.158   0.121   3.609
 5984SOL     OW18631   4.292   0.886   2.888
 5984SOL    HW118632   4.325   0.975   2.902
 5984SOL    HW218633   4.243   0.866   2.968
 5985SOL     OW18634   4.014   0.238   3.102
 5985SOL    HW118635   3.973   0.250   3.188
 5985SOL    HW218636   4.046   0.148   3.103
 5986SOL     OW18637   3.771   1.310   3.139
 5986SOL    HW118638   3.803   1.257   3.212
 5986SOL    HW218639   3.777   1.400   3.171
 5987SOL     OW18640   4.013   0.059   2.519
 5987SOL    HW118641   4.010   0.155   2.522
 5987SOL    HW218642   4.032   0.033   2.609
 5988SOL     OW18643   4.077   0.916   3.669
 5988SOL    HW118644   4.159   0.931   3.716
 5988SOL    HW218645   4.099   0.852   3.601
 5989SOL     OW18646   4.032   0.809   2.809
 5989SOL    HW118647   4.124   0.836   2.808
 5989SOL    HW218648   4.034   0.720   2.842
 5990SOL     OW18649   4.066   0.529   2.872
 5990SOL    HW118650   4.023   0.446   2.853
 5990SOL    HW218651   4.143   0.530   2.816
 5991SOL     OW18652   3.729   1.322   2.057
 5991SOL    HW118653   3.642   1.336   2.020
 5991SOL    HW218654   3.727   1.233   2.090
 5992SOL     OW18655   3.815   1.789   2.799
 5992SOL    HW118656   3.785   1.709   2.756
 5992SOL    HW218657   3.905   1.801   2.767
 5993SOL     OW18658   4.232   1.581   2.767
 5993SOL    HW118659   4.316   1.618   2.793
 5993SOL    HW218660   4.254   1.508   2.710
 5994SOL     OW18661   3.758   0.543   2.979
 5994SOL    HW118662   3.835   0.519   2.928
 5994SOL    HW218663   3.789   0.548   3.070
 5995SOL     OW18664   3.909   0.517   3.582
 5995SOL    HW118665   3.981   0.496   3.522
 5995SOL    HW218666   3.865   0.592   3.541
 5996SOL     OW18667   0.032   0.554   2.128
 5996SOL    HW118668   0.020   0.481   2.188
 5996SOL    HW218669   4.464   0.617   2.153
 5997SOL     OW18670   3.972   1.554   3.593
 5997SOL    HW118671   3.944   1.616   3.659
 5997SOL    HW218672   3.968   1.469   3.636
 5998SOL     OW18673   4.193   0.494   2.048
 5998SOL    HW118674   4.250   0.569   2.068
 5998SOL    HW218675   4.106   0.533   2.038
 5999SOL     OW18676   3.873   1.139   3.334
 5999SOL    HW118677   3.876   1.086   3.413
 5999SOL    HW218678   3.888   1.078   3.262
 6000SOL     OW18679   3.808   1.268   2.876
 6000SOL    HW118680   3.794   1.277   2.970
 6000SOL    HW218681   3.735   1.213   2.846
 6001SOL     OW18682   4.390   1.652   3.565
 6001SOL    HW118683   4.356   1.739   3.586
 6001SOL    HW218684   4.441   1.665   3.485
 6002SOL     OW18685   3.859   1.797   3.706
 6002SOL    HW118686   3.808   1.732   3.754
 6002SOL    HW218687   3.908   1.845   3.773
 6003SOL     OW18688   3.991   0.328   2.581
 6003SOL    HW118689   3.904   0.359   2.555
 6003SOL    HW218690   3.984   0.315   2.675
 6004SOL     OW18691   4.090   1.304   3.353
 6004SOL    HW118692   4.071   1.381   3.299
 6004SOL    HW218693   4.016   1.245   3.336
 6005SOL     OW18694   4.325   1.490   2.344
 6005SOL    HW118695   4.344   1.431   2.271
 6005SOL    HW218696   4.260   1.552   2.309
 6006SOL     OW18697   3.983   1.351   2.147
 6006SOL    HW118698   3.890   1.346   2.125
 6006SOL    HW218699   3.985   1.386   2.236
 6007SOL     OW18700   3.835   1.019   3.581
 6007SOL    HW118701   3.759   0.996   3.635
 6007SOL    HW218702   3.910   0.983   3.629
 6008SOL     OW18703   4.374   0.205   3.351
 6008SOL    HW118704   4.463   0.217   3.319
 6008SOL    HW218705   4.384   0.182   3.444
 6009SOL     OW18706   3.804   0.343   1.908
 6009SOL    HW118707   3.732   0.292   1.873
 6009SOL    HW218708   3.820   0.411   1.843
 6010SOL     OW18709   3.790   0.179   2.184
 6010SOL    HW118710   3.787   0.246   2.116
 6010SOL    HW218711   3.866   0.125   2.162
 6011SOL     OW18712   4.337   0.840   3.296
 6011SOL    HW118713   4.381   0.923   3.281
 6011SOL    HW218714   4.408   0.776   3.307
 6012SOL     OW18715   4.402   0.558   3.594
 6012SOL    HW118716   4.427   0.634   3.647
 6012SOL    HW218717   4.485   0.515   3.572
 6013SOL     OW18718   4.109   1.739   3.422
 6013SOL    HW118719   4.022   1.778   3.411
 6013SOL    HW218720   4.091   1.656   3.468
 6014SOL     OW18721   4.311   0.733   2.526
 6014SOL    HW118722   4.353   0.818   2.514
 6014SOL    HW218723   4.240   0.732   2.462
 6015SOL     OW18724   3.944   1.307   3.717
 6015SOL    HW118725   3.878   1.244   3.690
 6015SOL    HW218726   3.930   1.318   3.811
 6016SOL     OW18727   3.808   1.236   2.526
 6016SOL    HW118728   3.809   1.186   2.608
 6016SOL    HW218729   3.877   1.196   2.473
 6017SOL     OW18730   4.412   1.387   3.513
 6017SOL    HW118731   4.323   1.353   3.516
 6017SOL    HW218732   4.402   1.481   3.531
 6018SOL     OW18733   4.162   0.434   2.392
 6018SOL    HW118734   4.182   0.364   2.330
 6018SOL    HW218735   4.109   0.393   2.459
 6019SOL     OW18736   4.052   0.555   3.151
 6019SOL    HW118737   4.104   0.495   3.205
 6019SOL    HW218738   4.071   0.528   3.061
 6020SOL     OW18739   0.037   1.594   2.547
 6020SOL    HW118740   0.057   1.651   2.473
 6020SOL    HW218741   4.464   1.541   2.517
 6021SOL     OW18742   3.768   1.073   2.166
 6021SOL    HW118743   3.862   1.063   2.150
 6021SOL    HW218744   3.738   0.985   2.190
 6022SOL     OW18745   3.955   0.627   3.843
 6022SOL    HW118746   3.867   0.621   3.881
 6022SOL    HW218747   3.945   0.594   3.754
 6023SOL     OW18748   3.932   0.299   4.712
 6023SOL    HW118749   3.966   0.270   4.797
 6023SOL    HW218750   3.851   0.249   4.700
 6024SOL     OW18751   3.732   0.384   4.364
 6024SOL    HW118752   3.646   0.404   4.400
 6024SOL    HW218753   3.717   0.309   4.307
 6025SOL     OW18754   4.271   1.251   4.869
 6025SOL    HW118755   4.193   1.303   4.848
 6025SOL    HW218756   4.328   1.312   4.916
 6026SOL     OW18757   0.025   0.781   5.581
 6026SOL    HW118758   0.072   0.834   5.647
 6026SOL    HW218759   0.065   0.805   5.498
 6027SOL     OW18760   4.399   0.997   4.366
 6027SOL    HW118761   4.469   0.989   4.431
 6027SOL    HW218762   4.334   1.054   4.408
 6028SOL     OW18763   4.418   1.161   5.538
 6028SOL    HW118764   4.462   1.242   5.513
 6028SOL    HW218765   4.327   1.173   5.510
 6029SOL     OW18766   4.059   1.433   4.793
 6029SOL    HW118767   3.986   1.392   4.746
 6029SOL    HW218768   4.107   1.482   4.726
 6030SOL     OW18769   4.163   0.396   5.214
 6030SOL    HW118770   4.242   0.342   5.214
 6030SOL    HW218771   4.091   0.334   5.226
 6031SOL     OW18772   3.943   1.714   4.199
 6031SOL    HW118773   3.966   1.790   4.252
 6031SOL    HW218774   4.014   1.706   4.135
 6032SOL     OW18775   3.953   1.440   4.258
 6032SOL    HW118776   3.935   1.533   4.265
 6032SOL    HW218777   3.893   1.399   4.319
 6033SOL     OW18778   3.974   1.089   4.611
 6033SOL    HW118779   3.977   1.004   4.656
 6033SOL    HW218780   3.920   1.144   4.667
 6034SOL     OW18781   4.360   1.798   5.176
 6034SOL    HW118782   4.274   1.763   5.201
 6034SOL    HW218783   4.348   1.893   5.177
 6035SOL     OW18784   4.311   0.984   3.860
 6035SOL    HW118785   4.339   1.038   3.787
 6035SOL    HW218786   4.378   0.997   3.927
 6036SOL     OW18787   3.839   0.651   4.283
 6036SOL    HW118788   3.810   0.562   4.305
 6036SOL    HW218789   3.830   0.700   4.365
 6037SOL     OW18790   3.754   1.596   3.848
 6037SOL    HW118791   3.737   1.504   3.867
 6037SOL    HW218792   3.730   1.643   3.928
 6038SOL     OW18793   3.845   0.743   5.310
 6038SOL    HW118794   3.936   0.766   5.326
 6038SOL    HW218795   3.798   0.826   5.315
 6039SOL     OW18796   4.315   1.385   4.461
 6039SOL    HW118797   4.277   1.297   4.465
 6039SOL    HW218798   4.313   1.408   4.368
 6040SOL     OW18799   0.019   0.018   4.237
 6040SOL    HW118800   0.048   0.081   4.172
 6040SOL    HW218801   4.428   0.041   4.255
 6041SOL     OW18802   3.914   0.968   4.995
 6041SOL    HW118803   3.998   0.927   4.976
 6041SOL    HW218804   3.850   0.913   4.949
 6042SOL     OW18805   4.039   0.253   5.509
 6042SOL    HW118806   4.101   0.320   5.538
 6042SOL    HW218807   3.964   0.263   5.568
 6043SOL     OW18808   4.312   0.729   3.994
 6043SOL    HW118809   4.312   0.804   3.935
 6043SOL    HW218810   4.243   0.748   4.057
 6044SOL     OW18811   3.813   0.820   4.499
 6044SOL    HW118812   3.894   0.813   4.549
 6044SOL    HW218813   3.770   0.898   4.534
 6045SOL     OW18814   3.854   1.838   5.300
 6045SOL    HW118815   3.850   1.820   5.393
 6045SOL    HW218816   3.762   1.844   5.272
 6046SOL     OW18817   4.251   0.201   4.619
 6046SOL    HW118818   4.286   0.219   4.706
 6046SOL    HW218819   4.265   0.282   4.570
 6047SOL     OW18820   4.081   1.809   4.583
 6047SOL    HW118821   4.129   1.726   4.591
 6047SOL    HW218822   4.148   1.876   4.595
 6048SOL     OW18823   4.045   0.956   3.972
 6048SOL    HW118824   4.126   0.974   3.926
 6048SOL    HW218825   4.013   0.874   3.934
 6049SOL     OW18826   4.179   1.254   5.459
 6049SOL    HW118827   4.151   1.264   5.368
 6049SOL    HW218828   4.098   1.263   5.510
 6050SOL     OW18829   3.914   0.270   5.233
 6050SOL    HW118830   3.846   0.335   5.214
 6050SOL    HW218831   3.919   0.268   5.328
 6051SOL     OW18832   4.192   1.735   4.049
 6051SOL    HW118833   4.223   1.794   4.118
 6051SOL    HW218834   4.263   1.735   3.984
 6052SOL     OW18835   3.981   1.793   4.957
 6052SOL    HW118836   4.027   1.724   5.004
 6052SOL    HW218837   3.964   1.756   4.871
 6053SOL     OW18838   4.110   0.694   4.198
 6053SOL    HW118839   4.137   0.603   4.211
 6053SOL    HW218840   4.017   0.695   4.220
 6054SOL     OW18841   4.328   0.123   3.840
 6054SOL    HW118842   4.414   0.084   3.854
 6054SOL    HW218843   4.305   0.099   3.751
 6055SOL     OW18844   0.017   1.426   4.640
 6055SOL    HW118845   0.090   1.454   4.583
 6055SOL    HW218846   4.445   1.409   4.579
 6056SOL     OW18847   4.270   0.107   4.262
 6056SOL    HW118848   4.186   0.066   4.281
 6056SOL    HW218849   4.255   0.158   4.182
 6057SOL     OW18850   4.023   0.073   3.915
 6057SOL    HW118851   4.102   0.124   3.897
 6057SOL    HW218852   4.053   4.500   3.969
 6058SOL     OW18853   0.321   0.681   5.180
 6058SOL    HW118854   0.245   0.623   5.171
 6058SOL    HW218855   0.396   0.626   5.159
 6059SOL     OW18856   4.189   1.145   4.460
 6059SOL    HW118857   4.119   1.127   4.523
 6059SOL    HW218858   4.150   1.127   4.375
 6060SOL     OW18859   3.804   0.551   5.118
 6060SOL    HW118860   3.895   0.555   5.087
 6060SOL    HW218861   3.798   0.623   5.180
 6061SOL     OW18862   4.295   0.235   4.883
 6061SOL    HW118863   4.306   0.142   4.901
 6061SOL    HW218864   4.206   0.255   4.911
 6062SOL     OW18865   4.230   1.387   3.896
 6062SOL    HW118866   4.146   1.372   3.939
 6062SOL    HW218867   4.207   1.404   3.805
 6063SOL     OW18868   4.246   0.269   4.047
 6063SOL    HW118869   4.285   0.213   3.980
 6063SOL    HW218870   4.227   0.352   4.002
 6064SOL     OW18871   4.139   0.813   4.973
 6064SOL    HW118872   4.206   0.824   5.041
 6064SOL    HW218873   4.105   0.725   4.988
 6065SOL     OW18874   3.791   1.572   5.075
 6065SOL    HW118875   3.756   1.643   5.020
 6065SOL    HW218876   3.886   1.582   5.068
 6066SOL     OW18877   4.077   1.106   4.215
 6066SOL    HW118878   4.076   1.179   4.153
 6066SOL    HW218879   4.074   1.028   4.160
 6067SOL     OW18880   4.300   0.539   4.586
 6067SOL    HW118881   4.301   0.605   4.517
 6067SOL    HW218882   4.361   0.572   4.652
 6068SOL     OW18883   4.073   1.530   5.042
 6068SOL    HW118884   4.065   1.487   4.957
 6068SOL    HW218885   4.167   1.533   5.059
 6069SOL     OW18886   4.136   0.742   5.328
 6069SOL    HW118887   4.193   0.789   5.267
 6069SOL    HW218888   4.181   0.660   5.345
 6070SOL     OW18889   4.236   0.068   5.453
 6070SOL    HW118890   4.201   4.488   5.414
 6070SOL    HW218891   4.158   0.121   5.471
 6071SOL     OW18892   4.293   0.885   4.750
 6071SOL    HW118893   4.324   0.975   4.763
 6071SOL    HW218894   4.243   0.866   4.830
 6072SOL     OW18895   4.014   0.238   4.964
 6072SOL    HW118896   3.973   0.250   5.050
 6072SOL    HW218897   4.046   0.148   4.965
 6073SOL     OW18898   3.772   1.310   5.001
 6073SOL    HW118899   3.804   1.257   5.074
 6073SOL    HW218900   3.777   1.401   5.033
 6074SOL     OW18901   4.013   0.059   4.381
 6074SOL    HW118902   4.010   0.155   4.384
 6074SOL    HW218903   4.032   0.033   4.471
 6075SOL     OW18904   4.077   0.916   5.531
 6075SOL    HW118905   4.159   0.931   5.578
 6075SOL    HW218906   4.099   0.852   5.464
 6076SOL     OW18907   4.032   0.809   4.671
 6076SOL    HW118908   4.124   0.836   4.670
 6076SOL    HW218909   4.034   0.720   4.704
 6077SOL     OW18910   4.066   0.529   4.734
 6077SOL    HW118911   4.023   0.446   4.715
 6077SOL    HW218912   4.143   0.530   4.678
 6078SOL     OW18913   3.729   1.322   3.919
 6078SOL    HW118914   3.642   1.336   3.881
 6078SOL    HW218915   3.728   1.233   3.952
 6079SOL     OW18916   3.814   1.790   4.660
 6079SOL    HW118917   3.784   1.709   4.617
 6079SOL    HW218918   3.904   1.801   4.629
 6080SOL     OW18919   4.232   1.581   4.629
 6080SOL    HW118920   4.316   1.618   4.655
 6080SOL    HW218921   4.254   1.508   4.572
 6081SOL     OW18922   3.758   0.542   4.841
 6081SOL    HW118923   3.835   0.519   4.790
 6081SOL    HW218924   3.789   0.548   4.932
 6082SOL     OW18925   3.909   0.517   5.444
 6082SOL    HW118926   3.981   0.496   5.384
 6082SOL    HW218927   3.866   0.592   5.403
 6083SOL     OW18928   0.032   0.555   3.990
 6083SOL    HW118929   0.020   0.481   4.050
 6083SOL    HW218930   4.464   0.617   4.015
 6084SOL     OW18931   3.973   1.554   5.455
 6084SOL    HW118932   3.944   1.617   5.521
 6084SOL    HW218933   3.968   1.469   5.499
 6085SOL     OW18934   4.193   0.494   3.910
 6085SOL    HW118935   4.250   0.569   3.930
 6085SOL    HW218936   4.106   0.532   3.900
 6086SOL     OW18937   3.872   1.140   5.196
 6086SOL    HW118938   3.876   1.086   5.275
 6086SOL    HW218939   3.888   1.078   5.124
 6087SOL     OW18940   3.808   1.267   4.738
 6087SOL    HW118941   3.794   1.277   4.832
 6087SOL    HW218942   3.734   1.214   4.708
 6088SOL     OW18943   4.391   1.652   5.427
 6088SOL    HW118944   4.356   1.738   5.448
 6088SOL    HW218945   4.440   1.666   5.346
 6089SOL     OW18946   3.859   1.797   5.568
 6089SOL    HW118947   3.808   1.732   5.616
 6089SOL    HW218948   3.908   1.845   5.635
 6090SOL     OW18949   3.990   0.328   4.443
 6090SOL    HW118950   3.904   0.359   4.417
 6090SOL    HW218951   3.984   0.315   4.537
 6091SOL     OW18952   4.090   1.304   5.215
 6091SOL    HW118953   4.071   1.381   5.161
 6091SOL    HW218954   4.016   1.245   5.198
 6092SOL     OW18955   4.325   1.490   4.206
 6092SOL    HW118956   4.343   1.431   4.133
 6092SOL    HW218957   4.260   1.551   4.171
 6093SOL     OW18958   3.983   1.351   4.009
 6093SOL    HW118959   3.890   1.346   3.987
 6093SOL    HW218960   3.985   1.386   4.098
 6094SOL     OW18961   3.836   1.019   5.444
 6094SOL    HW118962   3.759   0.996   5.497
 6094SOL    HW218963   3.910   0.983   5.492
 6095SOL     OW18964   4.374   0.205   5.213
 6095SOL    HW118965   4.463   0.216   5.181
 6095SOL    HW218966   4.384   0.182   5.306
 6096SOL     OW18967   3.805   0.343   3.770
 6096SOL    HW118968   3.732   0.292   3.734
 6096SOL    HW218969   3.820   0.412   3.705
 6097SOL     OW18970   3.790   0.179   4.046
 6097SOL    HW118971   3.786   0.246   3.978
 6097SOL    HW218972   3.866   0.125   4.023
 6098SOL     OW18973   4.337   0.840   5.158
 6098SOL    HW118974   4.381   0.923   5.143
 6098SOL    HW218975   4.407   0.776   5.169
 6099SOL     OW18976   4.402   0.558   5.456
 6099SOL    HW118977   4.427   0.634   5.509
 6099SOL    HW218978   4.485   0.515   5.434
 6100SOL     OW18979   4.109   1.739   5.284
 6100SOL    HW118980   4.023   1.779   5.273
 6100SOL    HW218981   4.091   1.656   5.330
 6101SOL     OW18982   4.311   0.733   4.388
 6101SOL    HW118983   4.353   0.818   4.376
 6101SOL    HW218984   4.240   0.732   4.324
 6102SOL     OW18985   3.944   1.307   5.579
 6102SOL    HW118986   3.878   1.244   5.551
 6102SOL    HW218987   3.929   1.318   5.673
 6103SOL     OW18988   3.809   1.236   4.388
 6103SOL    HW118989   3.808   1.186   4.470
 6103SOL    HW218990   3.878   1.195   4.336
 6104SOL     OW18991   4.412   1.387   5.376
 6104SOL    HW118992   4.323   1.353   5.377
 6104SOL    HW218993   4.402   1.481   5.393
 6105SOL     OW18994   4.163   0.434   4.254
 6105SOL    HW118995   4.182   0.364   4.192
 6105SOL    HW218996   4.109   0.393   4.321
 6106SOL     OW18997   4.052   0.555   5.013
 6106SOL    HW118998   4.104   0.495   5.067
 6106SOL    HW218999   4.071   0.528   4.923
 6107SOL     OW19000   0.038   1.595   4.409
 6107SOL    HW119001   0.057   1.651   4.334
 6107SOL    HW219002   4.464   1.541   4.380
 6108SOL     OW19003   3.768   1.073   4.028
 6108SOL    HW119004   3.862   1.062   4.012
 6108SOL    HW219005   3.738   0.986   4.052
 6109SOL     OW19006   3.955   0.627   5.705
 6109SOL    HW119007   3.867   0.620   5.742
 6109SOL    HW219008   3.945   0.595   5.616
 6110SOL     OW19009   3.932   0.299   6.574
 6110SOL    HW119010   3.966   0.270   6.659
 6110SOL    HW219011   3.851   0.248   6.562
 6111SOL     OW19012   3.732   0.384   6.225
 6111SOL    HW119013   3.646   0.404   6.262
 6111SOL    HW219014   3.718   0.309   6.169
 6112SOL     OW19015   4.271   1.251   6.731
 6112SOL    HW119016   4.193   1.304   6.710
 6112SOL    HW219017   4.329   1.311   6.778
 6113SOL     OW19018   0.025   0.781   7.443
 6113SOL    HW119019   0.072   0.833   7.509
 6113SOL    HW219020   0.065   0.805   7.360
 6114SOL     OW19021   4.399   0.997   6.228
 6114SOL    HW119022   4.470   0.989   6.293
 6114SOL    HW219023   4.334   1.054   6.270
 6115SOL     OW19024   4.418   1.161   7.400
 6115SOL    HW119025   4.462   1.242   7.375
 6115SOL    HW219026   4.327   1.173   7.372
 6116SOL     OW19027   4.059   1.434   6.655
 6116SOL    HW119028   3.987   1.392   6.607
 6116SOL    HW219029   4.107   1.482   6.588
 6117SOL     OW19030   4.163   0.396   7.076
 6117SOL    HW119031   4.242   0.342   7.076
 6117SOL    HW219032   4.092   0.334   7.088
 6118SOL     OW19033   3.943   1.713   6.061
 6118SOL    HW119034   3.966   1.790   6.114
 6118SOL    HW219035   4.014   1.706   5.997
 6119SOL     OW19036   3.953   1.440   6.120
 6119SOL    HW119037   3.936   1.534   6.126
 6119SOL    HW219038   3.892   1.400   6.182
 6120SOL     OW19039   3.973   1.089   6.473
 6120SOL    HW119040   3.977   1.004   6.518
 6120SOL    HW219041   3.920   1.144   6.530
 6121SOL     OW19042   4.359   1.798   7.038
 6121SOL    HW119043   4.273   1.764   7.063
 6121SOL    HW219044   4.349   1.893   7.039
 6122SOL     OW19045   4.311   0.984   5.722
 6122SOL    HW119046   4.339   1.038   5.649
 6122SOL    HW219047   4.378   0.997   5.789
 6123SOL     OW19048   3.839   0.651   6.145
 6123SOL    HW119049   3.810   0.562   6.167
 6123SOL    HW219050   3.830   0.700   6.227
 6124SOL     OW19051   3.754   1.597   5.710
 6124SOL    HW119052   3.736   1.504   5.730
 6124SOL    HW219053   3.729   1.643   5.790
 6125SOL     OW19054   3.845   0.743   7.172
 6125SOL    HW119055   3.937   0.765   7.188
 6125SOL    HW219056   3.798   0.826   7.178
 6126SOL     OW19057   4.314   1.385   6.323
 6126SOL    HW119058   4.278   1.297   6.327
 6126SOL    HW219059   4.313   1.408   6.230
 6127SOL     OW19060   0.019   0.017   6.099
 6127SOL    HW119061   0.048   0.081   6.034
 6127SOL    HW219062   4.428   0.041   6.117
 6128SOL     OW19063   3.914   0.968   6.856
 6128SOL    HW119064   3.999   0.927   6.838
 6128SOL    HW219065   3.850   0.912   6.811
 6129SOL     OW19066   4.039   0.254   7.371
 6129SOL    HW119067   4.101   0.320   7.400
 6129SOL    HW219068   3.964   0.263   7.430
 6130SOL     OW19069   4.312   0.729   5.856
 6130SOL    HW119070   4.312   0.804   5.796
 6130SOL    HW219071   4.243   0.748   5.919
 6131SOL     OW19072   3.813   0.820   6.362
 6131SOL    HW119073   3.894   0.812   6.411
 6131SOL    HW219074   3.771   0.899   6.397
 6132SOL     OW19075   3.853   1.838   7.162
 6132SOL    HW119076   3.850   1.820   7.255
 6132SOL    HW219077   3.762   1.843   7.135
 6133SOL     OW19078   4.250   0.201   6.481
 6133SOL    HW119079   4.286   0.219   6.568
 6133SOL    HW219080   4.265   0.282   6.432
 6134SOL     OW19081   4.081   1.809   6.445
 6134SOL    HW119082   4.129   1.727   6.453
 6134SOL    HW219083   4.148   1.877   6.456
 6135SOL     OW19084   4.045   0.956   5.834
 6135SOL    HW119085   4.126   0.974   5.788
 6135SOL    HW219086   4.013   0.874   5.796
 6136SOL     OW19087   4.179   1.254   7.321
 6136SOL    HW119088   4.151   1.265   7.230
 6136SOL    HW219089   4.098   1.263   7.372
 6137SOL     OW19090   3.914   0.270   7.095
 6137SOL    HW119091   3.846   0.335   7.076
 6137SOL    HW219092   3.920   0.268   7.190
 6138SOL     OW19093   4.193   1.735   5.911
 6138SOL    HW119094   4.223   1.794   5.980
 6138SOL    HW219095   4.263   1.735   5.846
 6139SOL     OW19096   3.979   1.793   6.819
 6139SOL    HW119097   4.027   1.725   6.866
 6139SOL    HW219098   3.965   1.757   6.732
 6140SOL     OW19099   4.110   0.694   6.060
 6140SOL    HW119100   4.137   0.603   6.073
 6140SOL    HW219101   4.017   0.695   6.082
 6141SOL     OW19102   4.328   0.123   5.702
 6141SOL    HW119103   4.414   0.084   5.716
 6141SOL    HW219104   4.304   0.099   5.613
 6142SOL     OW19105   0.017   1.426   6.502
 6142SOL    HW119106   0.090   1.454   6.446
 6142SOL    HW219107   4.445   1.409   6.441
 6143SOL     OW19108   4.270   0.107   6.124
 6143SOL    HW119109   4.186   0.066   6.142
 6143SOL    HW219110   4.256   0.158   6.044
 6144SOL     OW19111   4.023   0.073   5.778
 6144SOL    HW119112   4.102   0.124   5.759
 6144SOL    HW219113   4.053   4.500   5.830
 6145SOL     OW19114   0.321   0.681   7.041
 6145SOL    HW119115   0.246   0.623   7.033
 6145SOL    HW219116   0.396   0.626   7.021
 6146SOL     OW19117   4.189   1.145   6.322
 6146SOL    HW119118   4.119   1.127   6.385
 6146SOL    HW219119   4.150   1.127   6.237
 6147SOL     OW19120   3.804   0.551   6.980
 6147SOL    HW119121   3.895   0.555   6.948
 6147SOL    HW219122   3.798   0.623   7.042
 6148SOL     OW19123   4.295   0.235   6.745
 6148SOL    HW119124   4.307   0.142   6.764
 6148SOL    HW219125   4.206   0.255   6.774
 6149SOL     OW19126   4.230   1.387   5.758
 6149SOL    HW119127   4.146   1.372   5.801
 6149SOL    HW219128   4.207   1.404   5.667
 6150SOL     OW19129   4.246   0.270   5.909
 6150SOL    HW119130   4.285   0.213   5.842
 6150SOL    HW219131   4.228   0.352   5.864
 6151SOL     OW19132   4.139   0.813   6.836
 6151SOL    HW119133   4.206   0.824   6.903
 6151SOL    HW219134   4.105   0.725   6.850
 6152SOL     OW19135   3.792   1.572   6.936
 6152SOL    HW119136   3.757   1.644   6.884
 6152SOL    HW219137   3.887   1.581   6.930
 6153SOL     OW19138   4.076   1.106   6.077
 6153SOL    HW119139   4.077   1.179   6.015
 6153SOL    HW219140   4.074   1.028   6.022
 6154SOL     OW19141   4.300   0.539   6.448
 6154SOL    HW119142   4.301   0.605   6.379
 6154SOL    HW219143   4.361   0.572   6.514
 6155SOL     OW19144   4.073   1.530   6.904
 6155SOL    HW119145   4.065   1.487   6.819
 6155SOL    HW219146   4.167   1.533   6.921
 6156SOL     OW19147   4.136   0.742   7.190
 6156SOL    HW119148   4.193   0.789   7.129
 6156SOL    HW219149   4.181   0.660   7.208
 6157SOL     OW19150   4.236   0.068   7.315
 6157SOL    HW119151   4.202   4.488   7.277
 6157SOL    HW219152   4.158   0.121   7.333
 6158SOL     OW19153   4.292   0.886   6.612
 6158SOL    HW119154   4.325   0.975   6.626
 6158SOL    HW219155   4.243   0.866   6.692
 6159SOL     OW19156   4.014   0.238   6.826
 6159SOL    HW119157   3.973   0.250   6.912
 6159SOL    HW219158   4.046   0.148   6.827
 6160SOL     OW19159   3.770   1.310   6.863
 6160SOL    HW119160   3.803   1.257   6.936
 6160SOL    HW219161   3.777   1.400   6.895
 6161SOL     OW19162   4.013   0.059   6.243
 6161SOL    HW119163   4.010   0.155   6.246
 6161SOL    HW219164   4.032   0.033   6.333
 6162SOL     OW19165   4.077   0.916   7.393
 6162SOL    HW119166   4.159   0.931   7.440
 6162SOL    HW219167   4.099   0.852   7.325
 6163SOL     OW19168   4.032   0.809   6.533
 6163SOL    HW119169   4.124   0.836   6.532
 6163SOL    HW219170   4.034   0.720   6.566
 6164SOL     OW19171   4.066   0.529   6.596
 6164SOL    HW119172   4.023   0.446   6.577
 6164SOL    HW219173   4.144   0.530   6.540
 6165SOL     OW19174   3.729   1.322   5.781
 6165SOL    HW119175   3.642   1.336   5.744
 6165SOL    HW219176   3.727   1.232   5.814
 6166SOL     OW19177   3.815   1.790   6.523
 6166SOL    HW119178   3.785   1.709   6.480
 6166SOL    HW219179   3.905   1.801   6.491
 6167SOL     OW19180   4.232   1.581   6.491
 6167SOL    HW119181   4.316   1.618   6.517
 6167SOL    HW219182   4.254   1.508   6.434
 6168SOL     OW19183   3.758   0.543   6.703
 6168SOL    HW119184   3.835   0.519   6.652
 6168SOL    HW219185   3.789   0.548   6.793
 6169SOL     OW19186   3.909   0.517   7.306
 6169SOL    HW119187   3.981   0.496   7.246
 6169SOL    HW219188   3.866   0.592   7.265
 6170SOL     OW19189   0.032   0.555   5.852
 6170SOL    HW119190   0.020   0.481   5.912
 6170SOL    HW219191   4.464   0.617   5.877
 6171SOL     OW19192   3.972   1.554   7.317
 6171SOL    HW119193   3.944   1.616   7.383
 6171SOL    HW219194   3.968   1.469   7.360
 6172SOL     OW19195   4.193   0.494   5.772
 6172SOL    HW119196   4.250   0.569   5.792
 6172SOL    HW219197   4.106   0.533   5.762
 6173SOL     OW19198   3.872   1.139   7.058
 6173SOL    HW119199   3.876   1.086   7.137
 6173SOL    HW219200   3.888   1.078   6.986
 6174SOL     OW19201   3.808   1.268   6.600
 6174SOL    HW119202   3.794   1.277   6.694
 6174SOL    HW219203   3.735   1.213   6.570
 6175SOL     OW19204   4.390   1.652   7.288
 6175SOL    HW119205   4.356   1.739   7.310
 6175SOL    HW219206   4.441   1.665   7.209
 6176SOL     OW19207   3.859   1.797   7.430
 6176SOL    HW119208   3.808   1.732   7.478
 6176SOL    HW219209   3.908   1.845   7.497
 6177SOL     OW19210   3.991   0.328   6.305
 6177SOL    HW119211   3.904   0.359   6.279
 6177SOL    HW219212   3.984   0.315   6.399
 6178SOL     OW19213   4.090   1.304   7.077
 6178SOL    HW119214   4.072   1.381   7.023
 6178SOL    HW219215   4.016   1.245   7.060
 6179SOL     OW19216   4.325   1.490   6.068
 6179SOL    HW119217   4.343   1.431   5.995
 6179SOL    HW219218   4.260   1.552   6.033
 6180SOL     OW19219   3.983   1.351   5.871
 6180SOL    HW119220   3.890   1.347   5.849
 6180SOL    HW219221   3.985   1.386   5.960
 6181SOL     OW19222   3.835   1.019   7.306
 6181SOL    HW119223   3.759   0.996   7.359
 6181SOL    HW219224   3.910   0.983   7.353
 6182SOL     OW19225   4.374   0.205   7.075
 6182SOL    HW119226   4.463   0.216   7.043
 6182SOL    HW219227   4.384   0.182   7.168
 6183SOL     OW19228   3.804   0.344   5.632
 6183SOL    HW119229   3.732   0.292   5.596
 6183SOL    HW219230   3.820   0.412   5.567
 6184SOL     OW19231   3.790   0.180   5.908
 6184SOL    HW119232   3.786   0.246   5.839
 6184SOL    HW219233   3.866   0.125   5.886
 6185SOL     OW19234   4.337   0.840   7.020
 6185SOL    HW119235   4.381   0.923   7.005
 6185SOL    HW219236   4.407   0.776   7.031
 6186SOL     OW19237   4.402   0.558   7.318
 6186SOL    HW119238   4.427   0.634   7.371
 6186SOL    HW219239   4.485   0.515   7.296
 6187SOL     OW19240   4.109   1.739   7.146
 6187SOL    HW119241   4.022   1.778   7.135
 6187SOL    HW219242   4.091   1.656   7.192
 6188SOL     OW19243   4.311   0.733   6.251
 6188SOL    HW119244   4.353   0.818   6.238
 6188SOL    HW219245   4.240   0.732   6.186
 6189SOL     OW19246   3.944   1.307   7.441
 6189SOL    HW119247   3.878   1.244   7.414
 6189SOL    HW219248   3.930   1.318   7.535
 6190SOL     OW19249   3.807   1.235   6.250
 6190SOL    HW119250   3.809   1.186   6.332
 6190SOL    HW219251   3.877   1.197   6.197
 6191SOL     OW19252   4.412   1.387   7.237
 6191SOL    HW119253   4.323   1.353   7.240
 6191SOL    HW219254   4.402   1.481   7.255
 6192SOL     OW19255   4.162   0.434   6.116
 6192SOL    HW119256   4.182   0.364   6.054
 6192SOL    HW219257   4.109   0.393   6.183
 6193SOL     OW19258   4.052   0.554   6.875
 6193SOL    HW119259   4.104   0.495   6.929
 6193SOL    HW219260   4.071   0.528   6.785
 6194SOL     OW19261   0.038   1.594   6.271
 6194SOL    HW119262   0.057   1.651   6.196
 6194SOL    HW219263   4.464   1.541   6.241
 6195SOL     OW19264   3.768   1.073   5.891
 6195SOL    HW119265   3.861   1.063   5.874
 6195SOL    HW219266   3.738   0.985   5.914
 6196SOL     OW19267   3.955   0.627   7.567
 6196SOL    HW119268   3.867   0.621   7.605
 6196SOL    HW219269   3.945   0.594   7.478
 6197SOL     OW19270   3.932   0.299   8.436
 6197SOL    HW119271   3.966   0.270   8.521
 6197SOL    HW219272   3.851   0.248   8.424
 6198SOL     OW19273   3.732   0.384   8.087
 6198SOL    HW119274   3.646   0.404   8.124
 6198SOL    HW219275   3.718   0.309   8.031
 6199SOL     OW19276   4.270   1.251   8.593
 6199SOL    HW119277   4.193   1.304   8.572
 6199SOL    HW219278   4.329   1.311   8.640
 6200SOL     OW19279   0.025   0.781   9.305
 6200SOL    HW119280   0.072   0.833   9.371
 6200SOL    HW219281   0.065   0.805   9.222
 6201SOL     OW19282   4.399   0.997   8.090
 6201SOL    HW119283   4.470   0.990   8.154
 6201SOL    HW219284   4.334   1.054   8.132
 6202SOL     OW19285   4.418   1.161   9.263
 6202SOL    HW119286   4.462   1.242   9.237
 6202SOL    HW219287   4.327   1.173   9.234
 6203SOL     OW19288   4.059   1.434   8.517
 6203SOL    HW119289   3.987   1.392   8.469
 6203SOL    HW219290   4.107   1.482   8.450
 6204SOL     OW19291   4.163   0.396   8.938
 6204SOL    HW119292   4.242   0.342   8.938
 6204SOL    HW219293   4.092   0.334   8.950
 6205SOL     OW19294   3.943   1.713   7.923
 6205SOL    HW119295   3.966   1.790   7.976
 6205SOL    HW219296   4.014   1.706   7.859
 6206SOL     OW19297   3.953   1.440   7.981
 6206SOL    HW119298   3.936   1.533   7.989
 6206SOL    HW219299   3.892   1.399   8.043
 6207SOL     OW19300   3.973   1.089   8.335
 6207SOL    HW119301   3.977   1.004   8.380
 6207SOL    HW219302   3.920   1.144   8.392
 6208SOL     OW19303   4.359   1.798   8.899
 6208SOL    HW119304   4.273   1.764   8.925
 6208SOL    HW219305   4.349   1.893   8.901
 6209SOL     OW19306   4.311   0.984   7.584
 6209SOL    HW119307   4.339   1.038   7.511
 6209SOL    HW219308   4.378   0.997   7.651
 6210SOL     OW19309   3.839   0.651   8.007
 6210SOL    HW119310   3.810   0.562   8.029
 6210SOL    HW219311   3.830   0.700   8.089
 6211SOL     OW19312   3.754   1.597   7.572
 6211SOL    HW119313   3.737   1.504   7.591
 6211SOL    HW219314   3.729   1.643   7.653
 6212SOL     OW19315   3.845   0.743   9.034
 6212SOL    HW119316   3.937   0.765   9.050
 6212SOL    HW219317   3.798   0.826   9.040
 6213SOL     OW19318   4.314   1.385   8.185
 6213SOL    HW119319   4.278   1.297   8.189
 6213SOL    HW219320   4.313   1.408   8.092
 6214SOL     OW19321   0.019   0.017   7.961
 6214SOL    HW119322   0.048   0.081   7.896
 6214SOL    HW219323   4.428   0.041   7.979
 6215SOL     OW19324   3.914   0.968   8.718
 6215SOL    HW119325   3.999   0.927   8.700
 6215SOL    HW219326   3.850   0.912   8.673
 6216SOL     OW19327   4.039   0.254   9.233
 6216SOL    HW119328   4.101   0.320   9.262
 6216SOL    HW219329   3.964   0.263   9.292
 6217SOL     OW19330   4.312   0.729   7.718
 6217SOL    HW119331   4.313   0.804   7.659
 6217SOL    HW219332   4.243   0.748   7.781
 6218SOL     OW19333   3.813   0.820   8.224
 6218SOL    HW119334   3.894   0.812   8.273
 6218SOL    HW219335   3.771   0.899   8.258
 6219SOL     OW19336   3.853   1.838   9.024
 6219SOL    HW119337   3.850   1.820   9.118
 6219SOL    HW219338   3.761   1.844   8.997
 6220SOL     OW19339   4.250   0.201   8.343
 6220SOL    HW119340   4.286   0.219   8.430
 6220SOL    HW219341   4.265   0.282   8.294
 6221SOL     OW19342   4.081   1.809   8.307
 6221SOL    HW119343   4.129   1.727   8.315
 6221SOL    HW219344   4.148   1.877   8.319
 6222SOL     OW19345   4.044   0.956   7.696
 6222SOL    HW119346   4.126   0.974   7.650
 6222SOL    HW219347   4.014   0.874   7.658
 6223SOL     OW19348   4.179   1.254   9.183
 6223SOL    HW119349   4.151   1.265   9.092
 6223SOL    HW219350   4.098   1.263   9.234
 6224SOL     OW19351   3.914   0.269   8.957
 6224SOL    HW119352   3.846   0.335   8.938
 6224SOL    HW219353   3.920   0.268   9.052
 6225SOL     OW19354   4.193   1.735   7.773
 6225SOL    HW119355   4.223   1.794   7.842
 6225SOL    HW219356   4.263   1.735   7.708
 6226SOL     OW19357   3.978   1.793   8.681
 6226SOL    HW119358   4.027   1.725   8.728
 6226SOL    HW219359   3.965   1.756   8.594
 6227SOL     OW19360   4.110   0.694   7.922
 6227SOL    HW119361   4.137   0.603   7.935
 6227SOL    HW219362   4.017   0.695   7.944
 6228SOL     OW19363   4.328   0.123   7.564
 6228SOL    HW119364   4.414   0.084   7.578
 6228SOL    HW219365   4.305   0.099   7.475
 6229SOL     OW19366   0.017   1.426   8.364
 6229SOL    HW119367   0.090   1.455   8.308
 6229SOL    HW219368   4.445   1.409   8.303
 6230SOL     OW19369   4.270   0.107   7.986
 6230SOL    HW119370   4.186   0.066   8.005
 6230SOL    HW219371   4.256   0.158   7.906
 6231SOL     OW19372   4.023   0.073   7.639
 6231SOL    HW119373   4.102   0.124   7.621
 6231SOL    HW219374   4.053   4.500   7.693
 6232SOL     OW19375   0.321   0.681   8.903
 6232SOL    HW119376   0.246   0.623   8.895
 6232SOL    HW219377   0.397   0.626   8.883
 6233SOL     OW19378   4.189   1.145   8.184
 6233SOL    HW119379   4.119   1.127   8.247
 6233SOL    HW219380   4.150   1.127   8.099
 6234SOL     OW19381   3.804   0.551   8.842
 6234SOL    HW119382   3.895   0.555   8.810
 6234SOL    HW219383   3.798   0.623   8.904
 6235SOL     OW19384   4.295   0.235   8.607
 6235SOL    HW119385   4.307   0.142   8.626
 6235SOL    HW219386   4.206   0.254   8.636
 6236SOL     OW19387   4.230   1.387   7.620
 6236SOL    HW119388   4.145   1.372   7.663
 6236SOL    HW219389   4.207   1.404   7.529
 6237SOL     OW19390   4.246   0.270   7.771
 6237SOL    HW119391   4.285   0.213   7.704
 6237SOL    HW219392   4.228   0.352   7.726
 6238SOL     OW19393   4.139   0.813   8.698
 6238SOL    HW119394   4.206   0.824   8.765
 6238SOL    HW219395   4.105   0.725   8.712
 6239SOL     OW19396   3.792   1.572   8.798
 6239SOL    HW119397   3.758   1.645   8.745
 6239SOL    HW219398   3.887   1.581   8.793
 6240SOL     OW19399   4.076   1.106   7.939
 6240SOL    HW119400   4.077   1.179   7.877
 6240SOL    HW219401   4.074   1.028   7.884
 6241SOL     OW19402   4.300   0.539   8.311
 6241SOL    HW119403   4.301   0.605   8.241
 6241SOL    HW219404   4.361   0.572   8.376
 6242SOL     OW19405   4.073   1.530   8.766
 6242SOL    HW119406   4.065   1.487   8.681
 6242SOL    HW219407   4.167   1.533   8.783
 6243SOL     OW19408   4.136   0.742   9.052
 6243SOL    HW119409   4.193   0.789   8.991
 6243SOL    HW219410   4.181   0.660   9.070
 6244SOL     OW19411   4.236   0.068   9.177
 6244SOL    HW119412   4.202   4.488   9.139
 6244SOL    HW219413   4.158   0.121   9.195
 6245SOL     OW19414   4.292   0.886   8.474
 6245SOL    HW119415   4.325   0.975   8.488
 6245SOL    HW219416   4.243   0.866   8.554
 6246SOL     OW19417   4.014   0.238   8.688
 6246SOL    HW119418   3.973   0.250   8.774
 6246SOL    HW219419   4.046   0.148   8.689
 6247SOL     OW19420   3.770   1.310   8.725
 6247SOL    HW119421   3.803   1.257   8.798
 6247SOL    HW219422   3.777   1.400   8.757
 6248SOL     OW19423   4.013   0.059   8.105
 6248SOL    HW119424   4.010   0.155   8.108
 6248SOL    HW219425   4.032   0.033   8.195
 6249SOL     OW19426   4.077   0.916   9.255
 6249SOL    HW119427   4.159   0.931   9.302
 6249SOL    HW219428   4.099   0.852   9.187
 6250SOL     OW19429   4.032   0.809   8.395
 6250SOL    HW119430   4.124   0.836   8.394
 6250SOL    HW219431   4.034   0.720   8.428
 6251SOL     OW19432   4.066   0.529   8.458
 6251SOL    HW119433   4.023   0.446   8.439
 6251SOL    HW219434   4.144   0.530   8.402
 6252SOL     OW19435   3.729   1.322   7.643
 6252SOL    HW119436   3.642   1.336   7.606
 6252SOL    HW219437   3.727   1.233   7.676
 6253SOL     OW19438   3.815   1.790   8.385
 6253SOL    HW119439   3.785   1.710   8.342
 6253SOL    HW219440   3.905   1.801   8.353
 6254SOL     OW19441   4.232   1.581   8.353
 6254SOL    HW119442   4.316   1.618   8.379
 6254SOL    HW219443   4.255   1.508   8.296
 6255SOL     OW19444   3.758   0.543   8.565
 6255SOL    HW119445   3.835   0.519   8.514
 6255SOL    HW219446   3.789   0.548   8.655
 6256SOL     OW19447   3.909   0.517   9.168
 6256SOL    HW119448   3.981   0.496   9.108
 6256SOL    HW219449   3.866   0.592   9.127
 6257SOL     OW19450   0.032   0.554   7.714
 6257SOL    HW119451   0.020   0.481   7.774
 6257SOL    HW219452   4.464   0.617   7.739
 6258SOL     OW19453   3.972   1.554   9.179
 6258SOL    HW119454   3.944   1.616   9.245
 6258SOL    HW219455   3.968   1.469   9.222
 6259SOL     OW19456   4.193   0.494   7.634
 6259SOL    HW119457   4.250   0.569   7.654
 6259SOL    HW219458   4.106   0.533   7.624
 6260SOL     OW19459   3.872   1.139   8.919
 6260SOL    HW119460   3.876   1.086   8.998
 6260SOL    HW219461   3.888   1.078   8.848
 6261SOL     OW19462   3.808   1.268   8.462
 6261SOL    HW119463   3.793   1.277   8.556
 6261SOL    HW219464   3.735   1.212   8.432
 6262SOL     OW19465   4.390   1.652   9.150
 6262SOL    HW119466   4.357   1.739   9.172
 6262SOL    HW219467   4.442   1.665   9.071
 6263SOL     OW19468   3.859   1.797   9.292
 6263SOL    HW119469   3.808   1.732   9.340
 6263SOL    HW219470   3.908   1.845   9.359
 6264SOL     OW19471   3.991   0.328   8.167
 6264SOL    HW119472   3.904   0.359   8.141
 6264SOL    HW219473   3.984   0.315   8.261
 6265SOL     OW19474   4.090   1.304   8.939
 6265SOL    HW119475   4.072   1.381   8.885
 6265SOL    HW219476   4.016   1.245   8.922
 6266SOL     OW19477   4.325   1.490   7.930
 6266SOL    HW119478   4.344   1.431   7.857
 6266SOL    HW219479   4.260   1.552   7.895
 6267SOL     OW19480   3.983   1.351   7.733
 6267SOL    HW119481   3.890   1.346   7.711
 6267SOL    HW219482   3.985   1.386   7.822
 6268SOL     OW19483   3.835   1.019   9.168
 6268SOL    HW119484   3.759   0.996   9.221
 6268SOL    HW219485   3.910   0.983   9.215
 6269SOL     OW19486   4.374   0.205   8.937
 6269SOL    HW119487   4.463   0.216   8.905
 6269SOL    HW219488   4.384   0.182   9.030
 6270SOL     OW19489   3.804   0.344   7.494
 6270SOL    HW119490   3.732   0.292   7.459
 6270SOL    HW219491   3.820   0.411   7.429
 6271SOL     OW19492   3.790   0.179   7.770
 6271SOL    HW119493   3.787   0.246   7.701
 6271SOL    HW219494   3.866   0.125   7.748
 6272SOL     OW19495   4.337   0.840   8.882
 6272SOL    HW119496   4.381   0.923   8.867
 6272SOL    HW219497   4.407   0.776   8.893
 6273SOL     OW19498   4.402   0.558   9.180
 6273SOL    HW119499   4.427   0.634   9.233
 6273SOL    HW219500   4.485   0.515   9.158
 6274SOL     OW19501   4.109   1.739   9.008
 6274SOL    HW119502   4.022   1.778   8.997
 6274SOL    HW219503   4.092   1.656   9.054
 6275SOL     OW19504   4.311   0.733   8.112
 6275SOL    HW119505   4.353   0.818   8.100
 6275SOL    HW219506   4.240   0.732   8.048
 6276SOL     OW19507   3.944   1.307   9.303
 6276SOL    HW119508   3.878   1.244   9.276
 6276SOL    HW219509   3.930   1.318   9.397
 6277SOL     OW19510   3.808   1.236   8.112
 6277SOL    HW119511   3.809   1.186   8.194
 6277SOL    HW219512   3.877   1.196   8.059
 6278SOL     OW19513   4.412   1.387   9.099
 6278SOL    HW119514   4.323   1.353   9.102
 6278SOL    HW219515   4.402   1.481   9.117
 6279SOL     OW19516   4.162   0.434   7.978
 6279SOL    HW119517   4.182   0.364   7.916
 6279SOL    HW219518   4.109   0.393   8.045
 6280SOL     OW19519   4.052   0.554   8.737
 6280SOL    HW119520   4.104   0.495   8.791
 6280SOL    HW219521   4.071   0.528   8.647
 6281SOL     OW19522   0.037   1.594   8.133
 6281SOL    HW119523   0.057   1.651   8.059
 6281SOL    HW219524   4.464   1.541   8.103
 6282SOL     OW19525   3.768   1.073   7.753
 6282SOL    HW119526   3.862   1.063   7.736
 6282SOL    HW219527   3.738   0.985   7.776
 6283SOL     OW19528   3.955   0.628   9.429
 6283SOL    HW119529   3.867   0.620   9.467
 6283SOL    HW219530   3.945   0.594   9.340
 6284SOL     OW19531   3.932   0.299  10.298
 6284SOL    HW119532   3.966   0.270  10.383
 6284SOL    HW219533   3.852   0.248  10.286
 6285SOL     OW19534   3.732   0.384   9.949
 6285SOL    HW119535   3.646   0.404   9.986
 6285SOL    HW219536   3.718   0.309   9.893
 6286SOL     OW19537   4.271   1.251  10.456
 6286SOL    HW119538   4.194   1.303  10.434
 6286SOL    HW219539   4.329   1.311  10.502
 6287SOL     OW19540   0.026   0.808   0.078
 6287SOL    HW119541   0.097   0.853   0.123
 6287SOL    HW219542   0.058   0.796  11.088
 6288SOL     OW19543   4.399   0.997   9.952
 6288SOL    HW119544   4.470   0.989  10.016
 6288SOL    HW219545   4.335   1.054   9.995
 6289SOL     OW19546   4.059   1.433  10.379
 6289SOL    HW119547   3.987   1.392  10.331
 6289SOL    HW219548   4.107   1.482  10.312
 6290SOL     OW19549   4.173   0.397  10.798
 6290SOL    HW119550   4.242   0.331  10.797
 6290SOL    HW219551   4.094   0.349  10.819
 6291SOL     OW19552   3.943   1.713   9.785
 6291SOL    HW119553   3.966   1.790   9.838
 6291SOL    HW219554   4.014   1.706   9.721
 6292SOL     OW19555   3.953   1.440   9.843
 6292SOL    HW119556   3.936   1.533   9.851
 6292SOL    HW219557   3.892   1.399   9.905
 6293SOL     OW19558   3.974   1.089  10.197
 6293SOL    HW119559   3.977   1.004  10.242
 6293SOL    HW219560   3.920   1.144  10.254
 6294SOL     OW19561   4.357   1.798  10.758
 6294SOL    HW119562   4.269   1.768  10.783
 6294SOL    HW219563   4.352   1.893  10.764
 6295SOL     OW19564   4.311   0.984   9.446
 6295SOL    HW119565   4.339   1.038   9.373
 6295SOL    HW219566   4.378   0.997   9.513
 6296SOL     OW19567   3.839   0.651   9.869
 6296SOL    HW119568   3.810   0.562   9.891
 6296SOL    HW219569   3.830   0.700   9.951
 6297SOL     OW19570   3.754   1.597   9.434
 6297SOL    HW119571   3.737   1.504   9.453
 6297SOL    HW219572   3.730   1.643   9.514
 6298SOL     OW19573   3.847   0.727  10.912
 6298SOL    HW119574   3.940   0.749  10.912
 6298SOL    HW219575   3.803   0.812  10.905
 6299SOL     OW19576   4.314   1.385  10.047
 6299SOL    HW119577   4.278   1.297  10.051
 6299SOL    HW219578   4.313   1.408   9.954
 6300SOL     OW19579   0.018   0.017   9.823
 6300SOL    HW119580   0.048   0.081   9.758
 6300SOL    HW219581   4.427   0.041   9.840
 6301SOL     OW19582   3.914   0.967  10.578
 6301SOL    HW119583   3.998   0.926  10.559
 6301SOL    HW219584   3.850   0.910  10.535
 6302SOL     OW19585   4.056   0.275  11.088
 6302SOL    HW119586   4.114   0.334   0.035
 6302SOL    HW219587   3.973   0.281   0.034
 6303SOL     OW19588   4.312   0.729   9.580
 6303SOL    HW119589   4.313   0.804   9.521
 6303SOL    HW219590   4.243   0.748   9.643
 6304SOL     OW19591   3.813   0.820  10.086
 6304SOL    HW119592   3.894   0.812  10.135
 6304SOL    HW219593   3.771   0.899  10.120
 6305SOL     OW19594   3.854   1.840  10.894
 6305SOL    HW119595   3.835   1.804  10.981
 6305SOL    HW219596   3.769   1.843  10.850
 6306SOL     OW19597   4.250   0.202  10.208
 6306SOL    HW119598   4.288   0.221  10.294
 6306SOL    HW219599   4.265   0.281  10.156
 6307SOL     OW19600   4.081   1.809  10.169
 6307SOL    HW119601   4.129   1.727  10.177
 6307SOL    HW219602   4.148   1.877  10.180
 6308SOL     OW19603   4.044   0.956   9.558
 6308SOL    HW119604   4.127   0.974   9.512
 6308SOL    HW219605   4.014   0.874   9.520
 6309SOL     OW19606   4.180   1.262  11.053
 6309SOL    HW119607   4.153   1.272  10.961
 6309SOL    HW219608   4.106   1.217  11.094
 6310SOL     OW19609   3.921   0.272  10.812
 6310SOL    HW119610   3.848   0.333  10.803
 6310SOL    HW219611   3.929   0.258  10.906
 6311SOL     OW19612   4.193   1.735   9.635
 6311SOL    HW119613   4.223   1.794   9.704
 6311SOL    HW219614   4.263   1.735   9.570
 6312SOL     OW19615   3.978   1.793  10.544
 6312SOL    HW119616   4.027   1.725  10.591
 6312SOL    HW219617   3.965   1.756  10.457
 6313SOL     OW19618   4.110   0.695   9.784
 6313SOL    HW119619   4.137   0.603   9.797
 6313SOL    HW219620   4.017   0.695   9.806
 6314SOL     OW19621   4.328   0.123   9.426
 6314SOL    HW119622   4.414   0.084   9.440
 6314SOL    HW219623   4.305   0.099   9.337
 6315SOL     OW19624   0.017   1.427  10.226
 6315SOL    HW119625   0.090   1.454  10.170
 6315SOL    HW219626   4.445   1.409  10.165
 6316SOL     OW19627   4.270   0.107   9.848
 6316SOL    HW119628   4.186   0.066   9.866
 6316SOL    HW219629   4.256   0.158   9.769
 6317SOL     OW19630   4.023   0.073   9.501
 6317SOL    HW119631   4.102   0.124   9.483
 6317SOL    HW219632   4.053   4.500   9.555
 6318SOL     OW19633   0.310   0.684  10.767
 6318SOL    HW119634   0.242   0.616  10.772
 6318SOL    HW219635   0.390   0.636  10.747
 6319SOL     OW19636   4.189   1.145  10.046
 6319SOL    HW119637   4.119   1.127  10.109
 6319SOL    HW219638   4.150   1.127   9.961
 6320SOL     OW19639   3.803   0.551  10.705
 6320SOL    HW119640   3.893   0.554  10.674
 6320SOL    HW219641   3.798   0.616  10.774
 6321SOL     OW19642   4.296   0.235  10.474
 6321SOL    HW119643   4.304   0.140  10.482
 6321SOL    HW219644   4.205   0.253  10.496
 6322SOL     OW19645   4.230   1.387   9.482
 6322SOL    HW119646   4.145   1.372   9.525
 6322SOL    HW219647   4.207   1.404   9.391
 6323SOL     OW19648   4.246   0.270   9.633
 6323SOL    HW119649   4.285   0.213   9.566
 6323SOL    HW219650   4.228   0.352   9.588
 6324SOL     OW19651   4.139   0.813  10.560
 6324SOL    HW119652   4.207   0.823  10.626
 6324SOL    HW219653   4.105   0.725  10.573
 6325SOL     OW19654   3.792   1.575  10.659
 6325SOL    HW119655   3.759   1.646  10.604
 6325SOL    HW219656   3.887   1.581  10.652
 6326SOL     OW19657   4.076   1.106   9.801
 6326SOL    HW119658   4.077   1.179   9.739
 6326SOL    HW219659   4.074   1.028   9.746
 6327SOL     OW19660   4.299   0.539  10.173
 6327SOL    HW119661   4.301   0.605  10.104
 6327SOL    HW219662   4.362   0.571  10.238
 6328SOL     OW19663   4.073   1.529  10.628
 6328SOL    HW119664   4.066   1.486  10.543
 6328SOL    HW219665   4.167   1.533  10.646
 6329SOL     OW19666   4.134   0.738  10.906
 6329SOL    HW119667   4.195   0.784  10.848
 6329SOL    HW219668   4.167   0.648  10.909
 6330SOL     OW19669   4.292   0.886  10.336
 6330SOL    HW119670   4.325   0.975  10.349
 6330SOL    HW219671   4.243   0.866  10.416
 6331SOL     OW19672   4.014   0.238  10.549
 6331SOL    HW119673   3.976   0.252  10.635
 6331SOL    HW219674   4.044   0.147  10.550
 6332SOL     OW19675   3.773   1.311  10.586
 6332SOL    HW119676   3.801   1.257  10.660
 6332SOL    HW219677   3.776   1.401  10.620
 6333SOL     OW19678   4.013   0.059   9.967
 6333SOL    HW119679   4.010   0.155   9.970
 6333SOL    HW219680   4.031   0.033  10.057
 6334SOL     OW19681   4.080   0.919  11.095
 6334SOL    HW119682   4.164   0.934   0.038
 6334SOL    HW219683   4.099   0.852  11.029
 6335SOL     OW19684   4.032   0.809  10.257
 6335SOL    HW119685   4.124   0.836  10.256
 6335SOL    HW219686   4.034   0.719  10.290
 6336SOL     OW19687   4.066   0.529  10.320
 6336SOL    HW119688   4.023   0.446  10.301
 6336SOL    HW219689   4.143   0.530  10.264
 6337SOL     OW19690   3.729   1.322   9.505
 6337SOL    HW119691   3.642   1.336   9.468
 6337SOL    HW219692   3.727   1.233   9.538
 6338SOL     OW19693   3.815   1.790  10.247
 6338SOL    HW119694   3.785   1.710  10.204
 6338SOL    HW219695   3.905   1.801  10.215
 6339SOL     OW19696   4.232   1.581  10.215
 6339SOL    HW119697   4.316   1.618  10.241
 6339SOL    HW219698   4.254   1.508  10.157
 6340SOL     OW19699   3.758   0.543  10.427
 6340SOL    HW119700   3.835   0.519  10.377
 6340SOL    HW219701   3.789   0.548  10.518
 6341SOL     OW19702   0.032   0.554   9.575
 6341SOL    HW119703   0.020   0.481   9.636
 6341SOL    HW219704   4.465   0.617   9.601
 6342SOL     OW19705   3.979   1.566  11.055
 6342SOL    HW119706   3.924   1.603   0.024
 6342SOL    HW219707   3.976   1.472  11.071
 6343SOL     OW19708   4.193   0.494   9.496
 6343SOL    HW119709   4.250   0.569   9.516
 6343SOL    HW219710   4.106   0.533   9.486
 6344SOL     OW19711   3.877   1.138  10.780
 6344SOL    HW119712   3.872   1.082  10.857
 6344SOL    HW219713   3.890   1.077  10.707
 6345SOL     OW19714   3.808   1.268  10.323
 6345SOL    HW119715   3.795   1.278  10.417
 6345SOL    HW219716   3.735   1.212  10.294
 6346SOL     OW19717   4.396   1.666  11.007
 6346SOL    HW119718   4.322   1.725  10.991
 6346SOL    HW219719   4.434   1.652  10.920
 6347SOL     OW19720   3.991   0.328  10.029
 6347SOL    HW119721   3.904   0.359  10.003
 6347SOL    HW219722   3.984   0.315  10.123
 6348SOL     OW19723   4.086   1.307  10.809
 6348SOL    HW119724   4.073   1.380  10.749
 6348SOL    HW219725   4.015   1.246  10.787
 6349SOL     OW19726   4.325   1.490   9.792
 6349SOL    HW119727   4.344   1.431   9.719
 6349SOL    HW219728   4.260   1.552   9.757
 6350SOL     OW19729   3.983   1.351   9.595
 6350SOL    HW119730   3.890   1.346   9.573
 6350SOL    HW219731   3.985   1.386   9.684
 6351SOL     OW19732   3.836   1.012  11.021
 6351SOL    HW119733   3.765   0.995  11.083
 6351SOL    HW219734   3.915   0.982  11.066
 6352SOL     OW19735   4.381   0.185  10.813
 6352SOL    HW119736   4.451   0.206  10.751
 6352SOL    HW219737   4.416   0.210  10.899
 6353SOL     OW19738   3.804   0.344   9.356
 6353SOL    HW119739   3.732   0.292   9.321
 6353SOL    HW219740   3.820   0.411   9.291
 6354SOL     OW19741   3.790   0.180   9.632
 6354SOL    HW119742   3.787   0.246   9.563
 6354SOL    HW219743   3.866   0.125   9.610
 6355SOL     OW19744   4.337   0.839  10.744
 6355SOL    HW119745   4.379   0.924  10.729
 6355SOL    HW219746   4.410   0.777  10.749
 6356SOL     OW19747   4.114   1.735  10.869
 6356SOL    HW119748   4.033   1.785  10.863
 6356SOL    HW219749   4.090   1.658  10.922
 6357SOL     OW19750   4.310   0.733   9.975
 6357SOL    HW119751   4.353   0.818   9.962
 6357SOL    HW219752   4.240   0.732   9.910
 6358SOL     OW19753   3.808   1.236   9.974
 6358SOL    HW119754   3.809   1.186  10.056
 6358SOL    HW219755   3.877   1.196   9.921
 6359SOL     OW19756   4.405   1.392  10.939
 6359SOL    HW119757   4.330   1.343  10.973
 6359SOL    HW219758   4.397   1.478  10.981
 6360SOL     OW19759   4.162   0.434   9.840
 6360SOL    HW119760   4.182   0.364   9.778
 6360SOL    HW219761   4.109   0.393   9.907
 6361SOL     OW19762   4.052   0.554  10.599
 6361SOL    HW119763   4.105   0.494  10.652
 6361SOL    HW219764   4.070   0.529  10.509
 6362SOL     OW19765   0.037   1.595   9.995
 6362SOL    HW119766   0.057   1.651   9.920
 6362SOL    HW219767   4.464   1.541   9.965
 6363SOL     OW19768   3.768   1.073   9.614
 6363SOL    HW119769   3.862   1.063   9.598
 6363SOL    HW219770   3.738   0.985   9.638
 6364SOL     OW19771   3.952   2.478   0.118
 6364SOL    HW119772   3.865   2.482   0.159
 6364SOL    HW219773   3.935   2.490   0.025
 6365SOL     OW19774   3.947   2.144   0.991
 6365SOL    HW119775   3.979   2.110   1.074
 6365SOL    HW219776   3.858   2.110   0.983
 6366SOL     OW19777   3.730   2.244   0.638
 6366SOL    HW119778   3.647   2.268   0.679
 6366SOL    HW219779   3.710   2.163   0.590
 6367SOL     OW19780   4.270   3.113   1.147
 6367SOL    HW119781   4.194   3.166   1.124
 6367SOL    HW219782   4.329   3.173   1.191
 6368SOL     OW19783   0.024   2.645   1.857
 6368SOL    HW119784   0.073   2.694   1.922
 6368SOL    HW219785   0.066   2.666   1.774
 6369SOL     OW19786   4.398   2.858   0.642
 6369SOL    HW119787   4.471   2.852   0.704
 6369SOL    HW219788   4.334   2.915   0.684
 6370SOL     OW19789   4.418   3.023   1.815
 6370SOL    HW119790   4.462   3.104   1.789
 6370SOL    HW219791   4.327   3.035   1.786
 6371SOL     OW19792   4.059   3.296   1.069
 6371SOL    HW119793   3.987   3.255   1.021
 6371SOL    HW219794   4.108   3.344   1.002
 6372SOL     OW19795   4.170   2.261   1.488
 6372SOL    HW119796   4.244   2.200   1.491
 6372SOL    HW219797   4.093   2.205   1.501
 6373SOL     OW19798   3.943   3.574   0.477
 6373SOL    HW119799   3.966   3.652   0.527
 6373SOL    HW219800   4.010   3.569   0.409
 6374SOL     OW19801   3.951   3.301   0.532
 6374SOL    HW119802   3.937   3.395   0.538
 6374SOL    HW219803   3.890   3.263   0.596
 6375SOL     OW19804   3.973   2.951   0.886
 6375SOL    HW119805   3.977   2.867   0.932
 6375SOL    HW219806   3.920   3.006   0.944
 6376SOL     OW19807   4.359   3.660   1.451
 6376SOL    HW119808   4.273   3.626   1.476
 6376SOL    HW219809   4.350   3.755   1.453
 6377SOL     OW19810   4.302   2.861   0.137
 6377SOL    HW119811   4.318   2.926   0.068
 6377SOL    HW219812   4.381   2.864   0.191
 6378SOL     OW19813   3.838   2.512   0.559
 6378SOL    HW119814   3.808   2.424   0.581
 6378SOL    HW219815   3.830   2.561   0.641
 6379SOL     OW19816   3.766   3.464   0.120
 6379SOL    HW119817   3.739   3.375   0.143
 6379SOL    HW219818   3.739   3.517   0.195
 6380SOL     OW19819   3.845   2.603   1.587
 6380SOL    HW119820   3.937   2.625   1.602
 6380SOL    HW219821   3.800   2.687   1.592
 6381SOL     OW19822   4.314   3.247   0.737
 6381SOL    HW119823   4.278   3.159   0.741
 6381SOL    HW219824   4.313   3.270   0.644
 6382SOL     OW19825   0.022   1.871   0.530
 6382SOL    HW119826   0.055   1.931   0.463
 6382SOL    HW219827   4.427   1.884   0.529
 6383SOL     OW19828   3.914   2.830   1.269
 6383SOL    HW119829   3.999   2.789   1.252
 6383SOL    HW219830   3.851   2.773   1.226
 6384SOL     OW19831   4.054   2.113   1.806
 6384SOL    HW119832   4.101   2.195   1.822
 6384SOL    HW219833   3.966   2.128   1.840
 6385SOL     OW19834   4.308   2.582   0.269
 6385SOL    HW119835   4.330   2.657   0.213
 6385SOL    HW219836   4.244   2.617   0.331
 6386SOL     OW19837   3.813   2.682   0.775
 6386SOL    HW119838   3.894   2.674   0.824
 6386SOL    HW219839   3.771   2.761   0.810
 6387SOL     OW19840   3.853   3.701   1.576
 6387SOL    HW119841   3.851   3.682   1.670
 6387SOL    HW219842   3.761   3.705   1.549
 6388SOL     OW19843   4.254   2.055   0.881
 6388SOL    HW119844   4.273   2.060   0.975
 6388SOL    HW219845   4.266   2.145   0.849
 6389SOL     OW19846   4.081   3.671   0.860
 6389SOL    HW119847   4.129   3.588   0.867
 6389SOL    HW219848   4.148   3.739   0.870
 6390SOL     OW19849   4.042   2.819   0.273
 6390SOL    HW119850   4.120   2.845   0.224
 6390SOL    HW219851   4.014   2.737   0.232
 6391SOL     OW19852   4.179   3.116   1.735
 6391SOL    HW119853   4.151   3.127   1.644
 6391SOL    HW219854   4.098   3.125   1.786
 6392SOL     OW19855   3.924   2.145   1.501
 6392SOL    HW119856   3.842   2.195   1.492
 6392SOL    HW219857   3.907   2.083   1.571
 6393SOL     OW19858   4.194   3.595   0.327
 6393SOL    HW119859   4.224   3.656   0.394
 6393SOL    HW219860   4.267   3.589   0.265
 6394SOL     OW19861   3.978   3.655   1.233
 6394SOL    HW119862   4.027   3.587   1.280
 6394SOL    HW219863   3.965   3.619   1.146
 6395SOL     OW19864   4.108   2.557   0.476
 6395SOL    HW119865   4.136   2.466   0.488
 6395SOL    HW219866   4.015   2.556   0.499
 6396SOL     OW19867   4.344   1.990   0.111
 6396SOL    HW119868   4.432   1.955   0.125
 6396SOL    HW219869   4.316   1.951   0.028
 6397SOL     OW19870   0.018   3.287   0.915
 6397SOL    HW119871   0.089   3.318   0.859
 6397SOL    HW219872   4.445   3.271   0.855
 6398SOL     OW19873   4.261   1.926   0.502
 6398SOL    HW119874   4.182   1.930   0.556
 6398SOL    HW219875   4.258   2.005   0.448
 6399SOL     OW19876   4.010   1.910   0.198
 6399SOL    HW119877   4.055   1.964   0.133
 6399SOL    HW219878   4.075   1.845   0.225
 6400SOL     OW19879   0.321   2.540   1.447
 6400SOL    HW119880   0.247   2.479   1.448
 6400SOL    HW219881   0.398   2.483   1.439
 6401SOL     OW19882   4.190   3.007   0.738
 6401SOL    HW119883   4.119   2.989   0.800
 6401SOL    HW219884   4.151   2.991   0.652
 6402SOL     OW19885   3.801   2.417   1.391
 6402SOL    HW119886   3.893   2.415   1.363
 6402SOL    HW219887   3.797   2.487   1.456
 6403SOL     OW19888   4.285   2.076   1.149
 6403SOL    HW119889   4.325   2.005   1.199
 6403SOL    HW219890   4.198   2.086   1.188
 6404SOL     OW19891   4.234   3.263   0.189
 6404SOL    HW119892   4.149   3.247   0.230
 6404SOL    HW219893   4.219   3.251   0.095
 6405SOL     OW19894   4.250   2.130   0.325
 6405SOL    HW119895   4.284   2.074   0.255
 6405SOL    HW219896   4.229   2.213   0.281
 6406SOL     OW19897   4.139   2.674   1.250
 6406SOL    HW119898   4.206   2.685   1.317
 6406SOL    HW219899   4.104   2.586   1.265
 6407SOL     OW19900   3.792   3.434   1.350
 6407SOL    HW119901   3.758   3.506   1.297
 6407SOL    HW219902   3.887   3.443   1.345
 6408SOL     OW19903   4.076   2.974   0.496
 6408SOL    HW119904   4.076   3.047   0.435
 6408SOL    HW219905   4.071   2.896   0.441
 6409SOL     OW19906   4.298   2.401   0.863
 6409SOL    HW119907   4.301   2.467   0.794
 6409SOL    HW219908   4.361   2.431   0.928
 6410SOL     OW19909   4.073   3.392   1.318
 6410SOL    HW119910   4.066   3.349   1.233
 6410SOL    HW219911   4.167   3.395   1.335
 6411SOL     OW19912   4.136   2.606   1.604
 6411SOL    HW119913   4.194   2.651   1.543
 6411SOL    HW219914   4.178   2.521   1.620
 6412SOL     OW19915   4.231   1.914   1.735
 6412SOL    HW119916   4.187   1.854   1.675
 6412SOL    HW219917   4.164   1.980   1.755
 6413SOL     OW19918   4.291   2.748   1.026
 6413SOL    HW119919   4.325   2.836   1.039
 6413SOL    HW219920   4.243   2.728   1.106
 6414SOL     OW19921   4.025   2.064   1.246
 6414SOL    HW119922   3.987   2.096   1.328
 6414SOL    HW219923   4.005   1.970   1.246
 6415SOL     OW19924   3.770   3.172   1.277
 6415SOL    HW119925   3.803   3.119   1.349
 6415SOL    HW219926   3.777   3.262   1.309
 6416SOL     OW19927   4.021   1.929   0.625
 6416SOL    HW119928   4.007   2.020   0.650
 6416SOL    HW219929   4.031   1.882   0.708
 6417SOL     OW19930   4.076   2.777   1.808
 6417SOL    HW119931   4.158   2.793   1.854
 6417SOL    HW219932   4.099   2.714   1.739
 6418SOL     OW19933   4.032   2.671   0.947
 6418SOL    HW119934   4.124   2.698   0.946
 6418SOL    HW219935   4.034   2.581   0.980
 6419SOL     OW19936   4.062   2.386   1.009
 6419SOL    HW119937   4.026   2.299   0.993
 6419SOL    HW219938   4.140   2.390   0.954
 6420SOL     OW19939   3.731   3.190   0.195
 6420SOL    HW119940   3.644   3.201   0.157
 6420SOL    HW219941   3.732   3.099   0.225
 6421SOL     OW19942   3.815   3.652   0.937
 6421SOL    HW119943   3.785   3.572   0.894
 6421SOL    HW219944   3.905   3.663   0.905
 6422SOL     OW19945   4.232   3.443   0.906
 6422SOL    HW119946   4.316   3.480   0.930
 6422SOL    HW219947   4.254   3.370   0.847
 6423SOL     OW19948   3.759   2.405   1.116
 6423SOL    HW119949   3.840   2.387   1.067
 6423SOL    HW219950   3.787   2.411   1.207
 6424SOL     OW19951   3.914   2.380   1.726
 6424SOL    HW119952   3.972   2.344   1.658
 6424SOL    HW219953   3.867   2.451   1.683
 6425SOL     OW19954   0.031   2.416   0.270
 6425SOL    HW119955   0.017   2.343   0.330
 6425SOL    HW219956   4.465   2.480   0.294
 6426SOL     OW19957   3.972   3.416   1.730
 6426SOL    HW119958   3.945   3.479   1.797
 6426SOL    HW219959   3.968   3.331   1.774
 6427SOL     OW19960   4.191   2.352   0.180
 6427SOL    HW119961   4.248   2.425   0.206
 6427SOL    HW219962   4.104   2.391   0.175
 6428SOL     OW19963   3.872   3.001   1.471
 6428SOL    HW119964   3.876   2.948   1.550
 6428SOL    HW219965   3.888   2.940   1.400
 6429SOL     OW19966   3.807   3.130   1.014
 6429SOL    HW119967   3.793   3.139   1.108
 6429SOL    HW219968   3.735   3.074   0.984
 6430SOL     OW19969   4.390   3.514   1.702
 6430SOL    HW119970   4.357   3.601   1.725
 6430SOL    HW219971   4.442   3.528   1.623
 6431SOL     OW19972   3.859   3.659   1.843
 6431SOL    HW119973   3.808   3.594   1.892
 6431SOL    HW219974   3.907   3.707   1.910
 6432SOL     OW19975   3.988   2.183   0.717
 6432SOL    HW119976   3.901   2.216   0.694
 6432SOL    HW219977   3.985   2.171   0.812
 6433SOL     OW19978   4.089   3.166   1.491
 6433SOL    HW119979   4.072   3.243   1.437
 6433SOL    HW219980   4.016   3.107   1.474
 6434SOL     OW19981   4.324   3.352   0.482
 6434SOL    HW119982   4.345   3.295   0.408
 6434SOL    HW219983   4.259   3.413   0.448
 6435SOL     OW19984   3.989   3.206   0.287
 6435SOL    HW119985   3.900   3.206   0.252
 6435SOL    HW219986   3.980   3.244   0.374
 6436SOL     OW19987   3.836   2.881   1.720
 6436SOL    HW119988   3.759   2.858   1.772
 6436SOL    HW219989   3.910   2.845   1.767
 6437SOL     OW19990   4.392   2.067   1.493
 6437SOL    HW119991   4.479   2.061   1.455
 6437SOL    HW219992   4.406   2.058   1.587
 6438SOL     OW19993   3.807   2.211   0.049
 6438SOL    HW119994   3.729   2.173   0.008
 6438SOL    HW219995   3.824   2.290  11.097
 6439SOL     OW19996   3.792   2.021   0.315
 6439SOL    HW119997   3.783   2.102   0.266
 6439SOL    HW219998   3.875   1.984   0.284
 6440SOL     OW19999   4.336   2.701   1.434
 6440SOL    HW120000   4.383   2.784   1.419
 6440SOL    HW220001   4.406   2.636   1.443
 6441SOL     OW20002   4.402   2.418   1.735
 6441SOL    HW120003   4.426   2.496   1.786
 6441SOL    HW220004   4.486   2.379   1.710
 6442SOL     OW20005   4.108   3.601   1.560
 6442SOL    HW120006   4.022   3.640   1.549
 6442SOL    HW220007   4.092   3.519   1.606
 6443SOL     OW20008   4.310   2.595   0.664
 6443SOL    HW120009   4.353   2.679   0.654
 6443SOL    HW220010   4.239   2.596   0.600
 6444SOL     OW20011   3.944   3.169   1.855
 6444SOL    HW120012   3.878   3.106   1.828
 6444SOL    HW220013   3.930   3.180   1.949
 6445SOL     OW20014   3.807   3.097   0.664
 6445SOL    HW120015   3.810   3.047   0.746
 6445SOL    HW220016   3.878   3.061   0.611
 6446SOL     OW20017   4.412   3.249   1.651
 6446SOL    HW120018   4.323   3.215   1.653
 6446SOL    HW220019   4.402   3.343   1.669
 6447SOL     OW20020   4.159   2.295   0.529
 6447SOL    HW120021   4.180   2.224   0.468
 6447SOL    HW220022   4.105   2.253   0.597
 6448SOL     OW20023   4.051   2.414   1.289
 6448SOL    HW120024   4.105   2.357   1.344
 6448SOL    HW220025   4.073   2.387   1.199
 6449SOL     OW20026   0.036   3.456   0.685
 6449SOL    HW120027   0.059   3.512   0.611
 6449SOL    HW220028   4.463   3.403   0.654
 6450SOL     OW20029   3.766   2.934   0.300
 6450SOL    HW120030   3.862   2.928   0.296
 6450SOL    HW220031   3.737   2.847   0.327
 6451SOL     OW20032   3.955   2.485   1.983
 6451SOL    HW120033   3.865   2.485   2.017
 6451SOL    HW220034   3.947   2.458   1.892
 6452SOL     OW20035   3.947   2.144   2.853
 6452SOL    HW120036   3.979   2.110   2.936
 6452SOL    HW220037   3.858   2.110   2.845
 6453SOL     OW20038   3.729   2.244   2.500
 6453SOL    HW120039   3.647   2.268   2.541
 6453SOL    HW220040   3.709   2.164   2.452
 6454SOL     OW20041   4.270   3.113   3.008
 6454SOL    HW120042   4.193   3.166   2.986
 6454SOL    HW220043   4.329   3.173   3.054
 6455SOL     OW20044   0.024   2.645   3.719
 6455SOL    HW120045   0.073   2.695   3.784
 6455SOL    HW220046   0.066   2.666   3.636
 6456SOL     OW20047   4.399   2.859   2.504
 6456SOL    HW120048   4.470   2.851   2.568
 6456SOL    HW220049   4.335   2.916   2.547
 6457SOL     OW20050   4.418   3.023   3.677
 6457SOL    HW120051   4.462   3.104   3.651
 6457SOL    HW220052   4.327   3.035   3.648
 6458SOL     OW20053   4.059   3.296   2.931
 6458SOL    HW120054   3.987   3.254   2.883
 6458SOL    HW220055   4.107   3.344   2.864
 6459SOL     OW20056   4.170   2.261   3.350
 6459SOL    HW120057   4.244   2.200   3.353
 6459SOL    HW220058   4.093   2.205   3.363
 6460SOL     OW20059   3.943   3.575   2.337
 6460SOL    HW120060   3.966   3.652   2.390
 6460SOL    HW220061   4.014   3.568   2.273
 6461SOL     OW20062   3.953   3.302   2.395
 6461SOL    HW120063   3.936   3.396   2.402
 6461SOL    HW220064   3.892   3.262   2.458
 6462SOL     OW20065   3.973   2.951   2.748
 6462SOL    HW120066   3.978   2.866   2.794
 6462SOL    HW220067   3.920   3.006   2.806
 6463SOL     OW20068   4.359   3.659   3.313
 6463SOL    HW120069   4.273   3.626   3.338
 6463SOL    HW220070   4.350   3.755   3.315
 6464SOL     OW20071   4.311   2.846   1.999
 6464SOL    HW120072   4.339   2.900   1.925
 6464SOL    HW220073   4.379   2.859   2.065
 6465SOL     OW20074   3.839   2.512   2.422
 6465SOL    HW120075   3.808   2.424   2.443
 6465SOL    HW220076   3.830   2.561   2.503
 6466SOL     OW20077   3.754   3.459   1.986
 6466SOL    HW120078   3.737   3.366   2.006
 6466SOL    HW220079   3.729   3.505   2.067
 6467SOL     OW20080   3.845   2.603   3.449
 6467SOL    HW120081   3.937   2.624   3.464
 6467SOL    HW220082   3.800   2.687   3.454
 6468SOL     OW20083   4.314   3.247   2.599
 6468SOL    HW120084   4.278   3.159   2.603
 6468SOL    HW220085   4.313   3.270   2.506
 6469SOL     OW20086   0.022   1.869   2.388
 6469SOL    HW120087   0.054   1.933   2.325
 6469SOL    HW220088   4.427   1.883   2.390
 6470SOL     OW20089   3.914   2.830   3.131
 6470SOL    HW120090   3.999   2.789   3.114
 6470SOL    HW220091   3.851   2.773   3.088
 6471SOL     OW20092   4.054   2.113   3.668
 6471SOL    HW120093   4.101   2.195   3.684
 6471SOL    HW220094   3.966   2.128   3.702
 6472SOL     OW20095   4.312   2.590   2.131
 6472SOL    HW120096   4.313   2.666   2.072
 6472SOL    HW220097   4.243   2.611   2.194
 6473SOL     OW20098   3.812   2.682   2.637
 6473SOL    HW120099   3.894   2.674   2.686
 6473SOL    HW220100   3.771   2.761   2.672
 6474SOL     OW20101   3.853   3.700   3.438
 6474SOL    HW120102   3.851   3.682   3.531
 6474SOL    HW220103   3.761   3.705   3.412
 6475SOL     OW20104   4.254   2.055   2.743
 6475SOL    HW120105   4.273   2.060   2.836
 6475SOL    HW220106   4.265   2.144   2.711
 6476SOL     OW20107   4.081   3.671   2.721
 6476SOL    HW120108   4.129   3.589   2.729
 6476SOL    HW220109   4.147   3.739   2.733
 6477SOL     OW20110   4.045   2.818   2.110
 6477SOL    HW120111   4.127   2.837   2.065
 6477SOL    HW220112   4.014   2.736   2.072
 6478SOL     OW20113   4.179   3.116   3.597
 6478SOL    HW120114   4.151   3.127   3.506
 6478SOL    HW220115   4.098   3.125   3.648
 6479SOL     OW20116   3.924   2.146   3.363
 6479SOL    HW120117   3.842   2.194   3.354
 6479SOL    HW220118   3.907   2.083   3.433
 6480SOL     OW20119   4.193   3.597   2.187
 6480SOL    HW120120   4.224   3.656   2.256
 6480SOL    HW220121   4.263   3.599   2.122
 6481SOL     OW20122   3.978   3.655   3.095
 6481SOL    HW120123   4.027   3.587   3.143
 6481SOL    HW220124   3.965   3.619   3.008
 6482SOL     OW20125   4.110   2.557   2.336
 6482SOL    HW120126   4.137   2.466   2.349
 6482SOL    HW220127   4.017   2.557   2.358
 6483SOL     OW20128   4.340   1.975   1.979
 6483SOL    HW120129   4.434   1.958   1.979
 6483SOL    HW220130   4.312   1.951   1.890
 6484SOL     OW20131   0.017   3.288   2.778
 6484SOL    HW120132   0.090   3.317   2.722
 6484SOL    HW220133   4.445   3.271   2.717
 6485SOL     OW20134   4.261   1.926   2.364
 6485SOL    HW120135   4.183   1.931   2.419
 6485SOL    HW220136   4.258   2.004   2.310
 6486SOL     OW20137   4.018   1.909   2.046
 6486SOL    HW120138   4.078   1.974   2.009
 6486SOL    HW220139   4.075   1.844   2.088
 6487SOL     OW20140   0.321   2.540   3.309
 6487SOL    HW120141   0.247   2.479   3.310
 6487SOL    HW220142   0.398   2.483   3.300
 6488SOL     OW20143   4.189   3.008   2.598
 6488SOL    HW120144   4.119   2.989   2.661
 6488SOL    HW220145   4.150   2.989   2.513
 6489SOL     OW20146   3.801   2.417   3.253
 6489SOL    HW120147   3.893   2.415   3.225
 6489SOL    HW220148   3.797   2.487   3.318
 6490SOL     OW20149   4.285   2.076   3.011
 6490SOL    HW120150   4.325   2.005   3.061
 6490SOL    HW220151   4.198   2.087   3.050
 6491SOL     OW20152   4.230   3.249   2.034
 6491SOL    HW120153   4.145   3.234   2.077
 6491SOL    HW220154   4.207   3.266   1.943
 6492SOL     OW20155   4.247   2.127   2.185
 6492SOL    HW120156   4.287   2.073   2.117
 6492SOL    HW220157   4.229   2.210   2.141
 6493SOL     OW20158   4.139   2.674   3.112
 6493SOL    HW120159   4.206   2.685   3.179
 6493SOL    HW220160   4.104   2.586   3.127
 6494SOL     OW20161   3.792   3.434   3.212
 6494SOL    HW120162   3.758   3.507   3.159
 6494SOL    HW220163   3.887   3.443   3.207
 6495SOL     OW20164   4.076   2.969   2.353
 6495SOL    HW120165   4.077   3.041   2.291
 6495SOL    HW220166   4.074   2.890   2.298
 6496SOL     OW20167   4.298   2.401   2.725
 6496SOL    HW120168   4.300   2.467   2.656
 6496SOL    HW220169   4.361   2.432   2.790
 6497SOL     OW20170   4.073   3.392   3.180
 6497SOL    HW120171   4.066   3.349   3.095
 6497SOL    HW220172   4.167   3.395   3.197
 6498SOL     OW20173   4.135   2.606   3.466
 6498SOL    HW120174   4.194   2.651   3.405
 6498SOL    HW220175   4.178   2.521   3.482
 6499SOL     OW20176   4.231   1.914   3.597
 6499SOL    HW120177   4.186   1.854   3.537
 6499SOL    HW220178   4.164   1.980   3.617
 6500SOL     OW20179   4.291   2.748   2.888
 6500SOL    HW120180   4.325   2.836   2.902
 6500SOL    HW220181   4.243   2.728   2.968
 6501SOL     OW20182   4.025   2.064   3.108
 6501SOL    HW120183   3.987   2.096   3.190
 6501SOL    HW220184   4.005   1.970   3.108
 6502SOL     OW20185   3.769   3.172   3.139
 6502SOL    HW120186   3.803   3.119   3.211
 6502SOL    HW220187   3.777   3.262   3.171
 6503SOL     OW20188   4.021   1.929   2.487
 6503SOL    HW120189   4.006   2.020   2.512
 6503SOL    HW220190   4.031   1.882   2.570
 6504SOL     OW20191   4.076   2.777   3.670
 6504SOL    HW120192   4.158   2.793   3.716
 6504SOL    HW220193   4.099   2.714   3.601
 6505SOL     OW20194   4.032   2.671   2.809
 6505SOL    HW120195   4.124   2.698   2.808
 6505SOL    HW220196   4.033   2.581   2.842
 6506SOL     OW20197   4.062   2.386   2.871
 6506SOL    HW120198   4.026   2.299   2.855
 6506SOL    HW220199   4.140   2.390   2.816
 6507SOL     OW20200   3.729   3.185   2.057
 6507SOL    HW120201   3.642   3.198   2.020
 6507SOL    HW220202   3.727   3.095   2.090
 6508SOL     OW20203   3.815   3.651   2.799
 6508SOL    HW120204   3.785   3.572   2.756
 6508SOL    HW220205   3.905   3.663   2.767
 6509SOL     OW20206   4.232   3.443   2.767
 6509SOL    HW120207   4.316   3.480   2.793
 6509SOL    HW220208   4.255   3.370   2.710
 6510SOL     OW20209   3.759   2.405   2.978
 6510SOL    HW120210   3.840   2.387   2.929
 6510SOL    HW220211   3.788   2.411   3.069
 6511SOL     OW20212   3.915   2.380   3.588
 6511SOL    HW120213   3.972   2.344   3.520
 6511SOL    HW220214   3.868   2.451   3.545
 6512SOL     OW20215   0.035   2.421   2.128
 6512SOL    HW120216   0.020   2.342   2.181
 6512SOL    HW220217   4.465   2.481   2.155
 6513SOL     OW20218   3.972   3.416   3.592
 6513SOL    HW120219   3.945   3.479   3.659
 6513SOL    HW220220   3.968   3.331   3.636
 6514SOL     OW20221   4.192   2.355   2.052
 6514SOL    HW120222   4.249   2.429   2.070
 6514SOL    HW220223   4.105   2.394   2.039
 6515SOL     OW20224   3.872   3.001   3.333
 6515SOL    HW120225   3.876   2.948   3.412
 6515SOL    HW220226   3.888   2.940   3.262
 6516SOL     OW20227   3.807   3.130   2.876
 6516SOL    HW120228   3.793   3.139   2.970
 6516SOL    HW220229   3.735   3.074   2.846
 6517SOL     OW20230   4.390   3.514   3.564
 6517SOL    HW120231   4.357   3.601   3.587
 6517SOL    HW220232   4.442   3.528   3.485
 6518SOL     OW20233   3.860   3.658   3.705
 6518SOL    HW120234   3.808   3.594   3.754
 6518SOL    HW220235   3.907   3.707   3.772
 6519SOL     OW20236   3.988   2.182   2.578
 6519SOL    HW120237   3.901   2.216   2.556
 6519SOL    HW220238   3.985   2.171   2.673
 6520SOL     OW20239   4.090   3.166   3.353
 6520SOL    HW120240   4.072   3.243   3.299
 6520SOL    HW220241   4.016   3.107   3.336
 6521SOL     OW20242   4.324   3.352   2.344
 6521SOL    HW120243   4.344   3.293   2.271
 6521SOL    HW220244   4.261   3.414   2.308
 6522SOL     OW20245   3.983   3.213   2.147
 6522SOL    HW120246   3.890   3.209   2.125
 6522SOL    HW220247   3.985   3.248   2.236
 6523SOL     OW20248   3.836   2.881   3.582
 6523SOL    HW120249   3.759   2.858   3.634
 6523SOL    HW220250   3.910   2.845   3.629
 6524SOL     OW20251   4.392   2.067   3.355
 6524SOL    HW120252   4.479   2.061   3.317
 6524SOL    HW220253   4.406   2.057   3.449
 6525SOL     OW20254   3.801   2.198   1.898
 6525SOL    HW120255   3.714   2.178   1.865
 6525SOL    HW220256   3.830   2.272   1.845
 6526SOL     OW20257   3.794   2.020   2.175
 6526SOL    HW120258   3.779   2.099   2.125
 6526SOL    HW220259   3.879   1.988   2.145
 6527SOL     OW20260   4.336   2.701   3.296
 6527SOL    HW120261   4.383   2.784   3.282
 6527SOL    HW220262   4.406   2.636   3.305
 6528SOL     OW20263   4.402   2.418   3.597
 6528SOL    HW120264   4.426   2.496   3.648
 6528SOL    HW220265   4.486   2.379   3.572
 6529SOL     OW20266   4.108   3.601   3.422
 6529SOL    HW120267   4.022   3.640   3.411
 6529SOL    HW220268   4.092   3.518   3.468
 6530SOL     OW20269   4.310   2.595   2.527
 6530SOL    HW120270   4.354   2.680   2.515
 6530SOL    HW220271   4.240   2.595   2.462
 6531SOL     OW20272   3.944   3.169   3.717
 6531SOL    HW120273   3.878   3.105   3.690
 6531SOL    HW220274   3.930   3.180   3.811
 6532SOL     OW20275   3.807   3.097   2.526
 6532SOL    HW120276   3.810   3.048   2.608
 6532SOL    HW220277   3.877   3.059   2.473
 6533SOL     OW20278   4.412   3.249   3.513
 6533SOL    HW120279   4.323   3.215   3.516
 6533SOL    HW220280   4.402   3.343   3.530
 6534SOL     OW20281   4.162   2.295   2.393
 6534SOL    HW120282   4.179   2.225   2.329
 6534SOL    HW220283   4.106   2.253   2.459
 6535SOL     OW20284   4.051   2.414   3.151
 6535SOL    HW120285   4.105   2.357   3.206
 6535SOL    HW220286   4.073   2.387   3.061
 6536SOL     OW20287   0.037   3.456   2.547
 6536SOL    HW120288   0.057   3.513   2.473
 6536SOL    HW220289   4.464   3.403   2.517
 6537SOL     OW20290   3.768   2.935   2.167
 6537SOL    HW120291   3.861   2.925   2.150
 6537SOL    HW220292   3.738   2.847   2.190
 6538SOL     OW20293   3.955   2.486   3.845
 6538SOL    HW120294   3.865   2.485   3.878
 6538SOL    HW220295   3.947   2.458   3.754
 6539SOL     OW20296   3.948   2.144   4.715
 6539SOL    HW120297   3.979   2.110   4.799
 6539SOL    HW220298   3.859   2.110   4.706
 6540SOL     OW20299   3.730   2.244   4.362
 6540SOL    HW120300   3.647   2.269   4.402
 6540SOL    HW220301   3.711   2.164   4.313
 6541SOL     OW20302   4.271   3.113   4.868
 6541SOL    HW120303   4.193   3.165   4.848
 6541SOL    HW220304   4.329   3.173   4.916
 6542SOL     OW20305   0.025   2.644   5.581
 6542SOL    HW120306   0.072   2.695   5.646
 6542SOL    HW220307   0.066   2.667   5.498
 6543SOL     OW20308   4.399   2.859   4.366
 6543SOL    HW120309   4.470   2.851   4.430
 6543SOL    HW220310   4.335   2.916   4.409
 6544SOL     OW20311   4.418   3.023   5.538
 6544SOL    HW120312   4.462   3.104   5.513
 6544SOL    HW220313   4.327   3.034   5.510
 6545SOL     OW20314   4.059   3.296   4.793
 6545SOL    HW120315   3.987   3.255   4.745
 6545SOL    HW220316   4.107   3.344   4.726
 6546SOL     OW20317   4.170   2.261   5.212
 6546SOL    HW120318   4.244   2.200   5.215
 6546SOL    HW220319   4.093   2.206   5.225
 6547SOL     OW20320   3.943   3.575   4.199
 6547SOL    HW120321   3.966   3.652   4.252
 6547SOL    HW220322   4.014   3.568   4.135
 6548SOL     OW20323   3.953   3.301   4.257
 6548SOL    HW120324   3.936   3.395   4.264
 6548SOL    HW220325   3.892   3.262   4.320
 6549SOL     OW20326   3.973   2.951   4.610
 6549SOL    HW120327   3.978   2.866   4.656
 6549SOL    HW220328   3.920   3.006   4.668
 6550SOL     OW20329   4.359   3.659   5.175
 6550SOL    HW120330   4.273   3.626   5.200
 6550SOL    HW220331   4.350   3.754   5.177
 6551SOL     OW20332   4.311   2.847   3.861
 6551SOL    HW120333   4.339   2.900   3.787
 6551SOL    HW220334   4.379   2.859   3.927
 6552SOL     OW20335   3.839   2.512   4.283
 6552SOL    HW120336   3.809   2.424   4.305
 6552SOL    HW220337   3.830   2.561   4.365
 6553SOL     OW20338   3.753   3.459   3.848
 6553SOL    HW120339   3.737   3.366   3.868
 6553SOL    HW220340   3.729   3.505   3.929
 6554SOL     OW20341   3.845   2.603   5.311
 6554SOL    HW120342   3.936   2.626   5.326
 6554SOL    HW220343   3.798   2.686   5.315
 6555SOL     OW20344   4.314   3.247   4.461
 6555SOL    HW120345   4.278   3.159   4.465
 6555SOL    HW220346   4.313   3.270   4.368
 6556SOL     OW20347   0.022   1.869   4.250
 6556SOL    HW120348   0.054   1.933   4.187
 6556SOL    HW220349   4.428   1.883   4.252
 6557SOL     OW20350   3.914   2.831   4.992
 6557SOL    HW120351   3.999   2.789   4.975
 6557SOL    HW220352   3.850   2.772   4.952
 6558SOL     OW20353   4.055   2.113   5.531
 6558SOL    HW120354   4.100   2.196   5.545
 6558SOL    HW220355   3.966   2.128   5.564
 6559SOL     OW20356   4.312   2.590   3.993
 6559SOL    HW120357   4.313   2.666   3.934
 6559SOL    HW220358   4.243   2.611   4.056
 6560SOL     OW20359   3.812   2.683   4.499
 6560SOL    HW120360   3.894   2.673   4.548
 6560SOL    HW220361   3.772   2.762   4.535
 6561SOL     OW20362   3.853   3.701   5.300
 6561SOL    HW120363   3.851   3.682   5.393
 6561SOL    HW220364   3.761   3.705   5.273
 6562SOL     OW20365   4.255   2.055   4.605
 6562SOL    HW120366   4.273   2.060   4.699
 6562SOL    HW220367   4.265   2.145   4.573
 6563SOL     OW20368   4.081   3.671   4.583
 6563SOL    HW120369   4.129   3.589   4.591
 6563SOL    HW220370   4.147   3.739   4.595
 6564SOL     OW20371   4.045   2.818   3.972
 6564SOL    HW120372   4.127   2.837   3.927
 6564SOL    HW220373   4.014   2.736   3.934
 6565SOL     OW20374   4.179   3.116   5.459
 6565SOL    HW120375   4.151   3.126   5.368
 6565SOL    HW220376   4.098   3.125   5.510
 6566SOL     OW20377   3.923   2.146   5.225
 6566SOL    HW120378   3.841   2.194   5.216
 6566SOL    HW220379   3.906   2.082   5.294
 6567SOL     OW20380   4.193   3.597   4.049
 6567SOL    HW120381   4.224   3.656   4.118
 6567SOL    HW220382   4.263   3.599   3.984
 6568SOL     OW20383   3.978   3.655   4.957
 6568SOL    HW120384   4.027   3.587   5.005
 6568SOL    HW220385   3.965   3.618   4.870
 6569SOL     OW20386   4.110   2.557   4.198
 6569SOL    HW120387   4.137   2.466   4.211
 6569SOL    HW220388   4.017   2.557   4.220
 6570SOL     OW20389   4.340   1.975   3.840
 6570SOL    HW120390   4.434   1.957   3.841
 6570SOL    HW220391   4.312   1.951   3.752
 6571SOL     OW20392   0.017   3.288   4.639
 6571SOL    HW120393   0.090   3.317   4.583
 6571SOL    HW220394   4.445   3.271   4.579
 6572SOL     OW20395   4.262   1.925   4.226
 6572SOL    HW120396   4.183   1.930   4.281
 6572SOL    HW220397   4.258   2.004   4.172
 6573SOL     OW20398   4.018   1.909   3.908
 6573SOL    HW120399   4.078   1.974   3.871
 6573SOL    HW220400   4.074   1.844   3.950
 6574SOL     OW20401   0.322   2.539   5.173
 6574SOL    HW120402   0.246   2.481   5.172
 6574SOL    HW220403   0.397   2.481   5.161
 6575SOL     OW20404   4.189   3.008   4.460
 6575SOL    HW120405   4.119   2.989   4.523
 6575SOL    HW220406   4.150   2.989   4.375
 6576SOL     OW20407   3.801   2.417   5.114
 6576SOL    HW120408   3.893   2.416   5.087
 6576SOL    HW220409   3.796   2.487   5.180
 6577SOL     OW20410   4.285   2.076   4.873
 6577SOL    HW120411   4.324   2.004   4.923
 6577SOL    HW220412   4.198   2.087   4.912
 6578SOL     OW20413   4.230   3.248   3.896
 6578SOL    HW120414   4.146   3.234   3.939
 6578SOL    HW220415   4.207   3.266   3.805
 6579SOL     OW20416   4.247   2.127   4.047
 6579SOL    HW120417   4.287   2.073   3.979
 6579SOL    HW220418   4.229   2.210   4.003
 6580SOL     OW20419   4.139   2.674   4.973
 6580SOL    HW120420   4.206   2.685   5.041
 6580SOL    HW220421   4.104   2.586   4.989
 6581SOL     OW20422   3.792   3.434   5.074
 6581SOL    HW120423   3.758   3.507   5.021
 6581SOL    HW220424   3.887   3.442   5.069
 6582SOL     OW20425   4.075   2.969   4.215
 6582SOL    HW120426   4.077   3.041   4.153
 6582SOL    HW220427   4.074   2.890   4.160
 6583SOL     OW20428   4.298   2.401   4.587
 6583SOL    HW120429   4.301   2.467   4.518
 6583SOL    HW220430   4.360   2.432   4.652
 6584SOL     OW20431   4.073   3.392   5.042
 6584SOL    HW120432   4.065   3.349   4.957
 6584SOL    HW220433   4.167   3.395   5.060
 6585SOL     OW20434   4.136   2.606   5.328
 6585SOL    HW120435   4.195   2.651   5.267
 6585SOL    HW220436   4.177   2.521   5.344
 6586SOL     OW20437   4.231   1.914   5.459
 6586SOL    HW120438   4.186   1.854   5.399
 6586SOL    HW220439   4.164   1.980   5.479
 6587SOL     OW20440   4.291   2.748   4.750
 6587SOL    HW120441   4.325   2.837   4.764
 6587SOL    HW220442   4.243   2.728   4.830
 6588SOL     OW20443   4.026   2.064   4.971
 6588SOL    HW120444   3.986   2.096   5.052
 6588SOL    HW220445   4.005   1.970   4.969
 6589SOL     OW20446   3.771   3.172   5.001
 6589SOL    HW120447   3.803   3.119   5.074
 6589SOL    HW220448   3.777   3.262   5.033
 6590SOL     OW20449   4.021   1.929   4.349
 6590SOL    HW120450   4.006   2.020   4.374
 6590SOL    HW220451   4.031   1.882   4.431
 6591SOL     OW20452   4.076   2.777   5.532
 6591SOL    HW120453   4.159   2.793   5.578
 6591SOL    HW220454   4.098   2.714   5.464
 6592SOL     OW20455   4.032   2.671   4.670
 6592SOL    HW120456   4.124   2.698   4.670
 6592SOL    HW220457   4.033   2.582   4.704
 6593SOL     OW20458   4.062   2.386   4.733
 6593SOL    HW120459   4.026   2.299   4.717
 6593SOL    HW220460   4.140   2.390   4.677
 6594SOL     OW20461   3.729   3.185   3.919
 6594SOL    HW120462   3.642   3.198   3.882
 6594SOL    HW220463   3.727   3.095   3.952
 6595SOL     OW20464   3.815   3.651   4.661
 6595SOL    HW120465   3.785   3.571   4.618
 6595SOL    HW220466   3.905   3.663   4.629
 6596SOL     OW20467   4.232   3.443   4.629
 6596SOL    HW120468   4.316   3.480   4.655
 6596SOL    HW220469   4.255   3.370   4.572
 6597SOL     OW20470   3.759   2.405   4.840
 6597SOL    HW120471   3.840   2.387   4.792
 6597SOL    HW220472   3.787   2.411   4.932
 6598SOL     OW20473   3.915   2.380   5.450
 6598SOL    HW120474   3.971   2.343   5.381
 6598SOL    HW220475   3.867   2.450   5.407
 6599SOL     OW20476   0.035   2.421   3.991
 6599SOL    HW120477   0.020   2.342   4.042
 6599SOL    HW220478   4.465   2.481   4.017
 6600SOL     OW20479   3.972   3.416   5.454
 6600SOL    HW120480   3.944   3.478   5.521
 6600SOL    HW220481   3.968   3.331   5.498
 6601SOL     OW20482   4.192   2.355   3.913
 6601SOL    HW120483   4.249   2.429   3.932
 6601SOL    HW220484   4.105   2.394   3.901
 6602SOL     OW20485   3.873   3.001   5.195
 6602SOL    HW120486   3.876   2.947   5.274
 6602SOL    HW220487   3.889   2.940   5.123
 6603SOL     OW20488   3.808   3.130   4.737
 6603SOL    HW120489   3.794   3.139   4.832
 6603SOL    HW220490   3.735   3.074   4.708
 6604SOL     OW20491   4.390   3.514   5.426
 6604SOL    HW120492   4.356   3.601   5.449
 6604SOL    HW220493   4.442   3.528   5.347
 6605SOL     OW20494   3.860   3.659   5.567
 6605SOL    HW120495   3.808   3.594   5.616
 6605SOL    HW220496   3.907   3.707   5.634
 6606SOL     OW20497   3.988   2.182   4.441
 6606SOL    HW120498   3.902   2.216   4.418
 6606SOL    HW220499   3.985   2.170   4.536
 6607SOL     OW20500   4.090   3.166   5.215
 6607SOL    HW120501   4.071   3.243   5.161
 6607SOL    HW220502   4.016   3.107   5.198
 6608SOL     OW20503   4.324   3.352   4.206
 6608SOL    HW120504   4.344   3.293   4.133
 6608SOL    HW220505   4.261   3.414   4.170
 6609SOL     OW20506   3.983   3.213   4.009
 6609SOL    HW120507   3.890   3.209   3.987
 6609SOL    HW220508   3.986   3.247   4.098
 6610SOL     OW20509   3.836   2.883   5.444
 6610SOL    HW120510   3.759   2.858   5.495
 6610SOL    HW220511   3.910   2.845   5.492
 6611SOL     OW20512   4.391   2.067   5.217
 6611SOL    HW120513   4.479   2.061   5.179
 6611SOL    HW220514   4.405   2.057   5.311
 6612SOL     OW20515   3.801   2.199   3.760
 6612SOL    HW120516   3.714   2.178   3.727
 6612SOL    HW220517   3.830   2.273   3.707
 6613SOL     OW20518   3.794   2.020   4.037
 6613SOL    HW120519   3.779   2.100   3.986
 6613SOL    HW220520   3.879   1.988   4.007
 6614SOL     OW20521   4.336   2.701   5.158
 6614SOL    HW120522   4.383   2.784   5.144
 6614SOL    HW220523   4.406   2.636   5.167
 6615SOL     OW20524   4.403   2.418   5.459
 6615SOL    HW120525   4.427   2.496   5.510
 6615SOL    HW220526   4.486   2.378   5.434
 6616SOL     OW20527   4.108   3.601   5.284
 6616SOL    HW120528   4.022   3.640   5.273
 6616SOL    HW220529   4.092   3.519   5.330
 6617SOL     OW20530   4.310   2.595   4.389
 6617SOL    HW120531   4.354   2.680   4.377
 6617SOL    HW220532   4.240   2.595   4.324
 6618SOL     OW20533   3.944   3.169   5.579
 6618SOL    HW120534   3.878   3.105   5.551
 6618SOL    HW220535   3.929   3.180   5.672
 6619SOL     OW20536   3.807   3.097   4.388
 6619SOL    HW120537   3.810   3.048   4.470
 6619SOL    HW220538   3.877   3.059   4.335
 6620SOL     OW20539   4.412   3.249   5.375
 6620SOL    HW120540   4.323   3.215   5.377
 6620SOL    HW220541   4.402   3.343   5.393
 6621SOL     OW20542   4.161   2.295   4.254
 6621SOL    HW120543   4.179   2.225   4.191
 6621SOL    HW220544   4.106   2.253   4.321
 6622SOL     OW20545   4.052   2.414   5.013
 6622SOL    HW120546   4.105   2.357   5.068
 6622SOL    HW220547   4.073   2.387   4.923
 6623SOL     OW20548   0.038   3.456   4.409
 6623SOL    HW120549   0.057   3.513   4.334
 6623SOL    HW220550   4.464   3.403   4.379
 6624SOL     OW20551   3.767   2.935   4.029
 6624SOL    HW120552   3.861   2.925   4.012
 6624SOL    HW220553   3.738   2.847   4.052
 6625SOL     OW20554   3.955   2.485   5.707
 6625SOL    HW120555   3.865   2.485   5.740
 6625SOL    HW220556   3.947   2.459   5.616
 6626SOL     OW20557   3.947   2.144   6.577
 6626SOL    HW120558   3.979   2.110   6.660
 6626SOL    HW220559   3.858   2.110   6.569
 6627SOL     OW20560   3.730   2.244   6.224
 6627SOL    HW120561   3.647   2.269   6.265
 6627SOL    HW220562   3.710   2.163   6.176
 6628SOL     OW20563   4.270   3.113   6.731
 6628SOL    HW120564   4.193   3.166   6.710
 6628SOL    HW220565   4.329   3.173   6.778
 6629SOL     OW20566   0.024   2.645   7.443
 6629SOL    HW120567   0.073   2.694   7.508
 6629SOL    HW220568   0.066   2.666   7.360
 6630SOL     OW20569   4.399   2.859   6.228
 6630SOL    HW120570   4.470   2.851   6.292
 6630SOL    HW220571   4.335   2.916   6.271
 6631SOL     OW20572   4.418   3.023   7.400
 6631SOL    HW120573   4.462   3.104   7.375
 6631SOL    HW220574   4.327   3.035   7.372
 6632SOL     OW20575   4.059   3.296   6.655
 6632SOL    HW120576   3.987   3.255   6.607
 6632SOL    HW220577   4.107   3.344   6.588
 6633SOL     OW20578   4.170   2.261   7.074
 6633SOL    HW120579   4.244   2.200   7.077
 6633SOL    HW220580   4.093   2.205   7.087
 6634SOL     OW20581   3.943   3.575   6.061
 6634SOL    HW120582   3.966   3.652   6.114
 6634SOL    HW220583   4.014   3.568   5.997
 6635SOL     OW20584   3.953   3.302   6.120
 6635SOL    HW120585   3.936   3.396   6.126
 6635SOL    HW220586   3.892   3.262   6.182
 6636SOL     OW20587   3.973   2.951   6.472
 6636SOL    HW120588   3.978   2.867   6.518
 6636SOL    HW220589   3.920   3.006   6.530
 6637SOL     OW20590   4.359   3.659   7.037
 6637SOL    HW120591   4.273   3.626   7.062
 6637SOL    HW220592   4.350   3.755   7.039
 6638SOL     OW20593   4.311   2.846   5.722
 6638SOL    HW120594   4.340   2.900   5.649
 6638SOL    HW220595   4.379   2.859   5.789
 6639SOL     OW20596   3.838   2.512   6.145
 6639SOL    HW120597   3.809   2.424   6.167
 6639SOL    HW220598   3.830   2.561   6.227
 6640SOL     OW20599   3.754   3.459   5.710
 6640SOL    HW120600   3.736   3.367   5.729
 6640SOL    HW220601   3.729   3.505   5.791
 6641SOL     OW20602   3.845   2.603   7.173
 6641SOL    HW120603   3.937   2.625   7.188
 6641SOL    HW220604   3.800   2.687   7.178
 6642SOL     OW20605   4.314   3.247   6.323
 6642SOL    HW120606   4.278   3.159   6.327
 6642SOL    HW220607   4.313   3.270   6.230
 6643SOL     OW20608   0.022   1.869   6.112
 6643SOL    HW120609   0.054   1.933   6.049
 6643SOL    HW220610   4.427   1.882   6.114
 6644SOL     OW20611   3.914   2.830   6.855
 6644SOL    HW120612   3.999   2.789   6.838
 6644SOL    HW220613   3.851   2.773   6.812
 6645SOL     OW20614   4.054   2.113   7.392
 6645SOL    HW120615   4.101   2.195   7.408
 6645SOL    HW220616   3.966   2.128   7.426
 6646SOL     OW20617   4.312   2.591   5.855
 6646SOL    HW120618   4.313   2.666   5.796
 6646SOL    HW220619   4.243   2.611   5.918
 6647SOL     OW20620   3.813   2.682   6.361
 6647SOL    HW120621   3.894   2.674   6.410
 6647SOL    HW220622   3.771   2.761   6.396
 6648SOL     OW20623   3.853   3.700   7.162
 6648SOL    HW120624   3.851   3.682   7.255
 6648SOL    HW220625   3.761   3.705   7.136
 6649SOL     OW20626   4.255   2.055   6.467
 6649SOL    HW120627   4.273   2.060   6.560
 6649SOL    HW220628   4.265   2.144   6.435
 6650SOL     OW20629   4.081   3.671   6.445
 6650SOL    HW120630   4.129   3.589   6.453
 6650SOL    HW220631   4.147   3.739   6.457
 6651SOL     OW20632   4.045   2.818   5.834
 6651SOL    HW120633   4.127   2.837   5.789
 6651SOL    HW220634   4.014   2.736   5.795
 6652SOL     OW20635   4.179   3.116   7.321
 6652SOL    HW120636   4.151   3.127   7.230
 6652SOL    HW220637   4.098   3.125   7.372
 6653SOL     OW20638   3.924   2.146   7.087
 6653SOL    HW120639   3.842   2.195   7.078
 6653SOL    HW220640   3.907   2.083   7.157
 6654SOL     OW20641   4.193   3.597   5.911
 6654SOL    HW120642   4.224   3.656   5.980
 6654SOL    HW220643   4.263   3.599   5.846
 6655SOL     OW20644   3.978   3.655   6.819
 6655SOL    HW120645   4.027   3.587   6.867
 6655SOL    HW220646   3.965   3.619   6.732
 6656SOL     OW20647   4.110   2.557   6.061
 6656SOL    HW120648   4.137   2.466   6.073
 6656SOL    HW220649   4.017   2.557   6.082
 6657SOL     OW20650   4.340   1.975   5.703
 6657SOL    HW120651   4.435   1.957   5.703
 6657SOL    HW220652   4.312   1.951   5.614
 6658SOL     OW20653   0.017   3.288   6.501
 6658SOL    HW120654   0.090   3.317   6.446
 6658SOL    HW220655   4.445   3.271   6.441
 6659SOL     OW20656   4.262   1.925   6.088
 6659SOL    HW120657   4.183   1.931   6.143
 6659SOL    HW220658   4.258   2.004   6.034
 6660SOL     OW20659   4.018   1.909   5.770
 6660SOL    HW120660   4.077   1.974   5.733
 6660SOL    HW220661   4.075   1.845   5.811
 6661SOL     OW20662   0.321   2.540   7.032
 6661SOL    HW120663   0.247   2.480   7.034
 6661SOL    HW220664   0.398   2.483   7.025
 6662SOL     OW20665   4.189   3.007   6.322
 6662SOL    HW120666   4.119   2.989   6.385
 6662SOL    HW220667   4.150   2.989   6.237
 6663SOL     OW20668   3.801   2.417   6.977
 6663SOL    HW120669   3.893   2.415   6.949
 6663SOL    HW220670   3.797   2.487   7.042
 6664SOL     OW20671   4.285   2.075   6.735
 6664SOL    HW120672   4.325   2.005   6.786
 6664SOL    HW220673   4.198   2.087   6.774
 6665SOL     OW20674   4.230   3.248   5.758
 6665SOL    HW120675   4.146   3.234   5.801
 6665SOL    HW220676   4.207   3.266   5.667
 6666SOL     OW20677   4.247   2.127   5.909
 6666SOL    HW120678   4.287   2.073   5.841
 6666SOL    HW220679   4.229   2.210   5.865
 6667SOL     OW20680   4.139   2.674   6.836
 6667SOL    HW120681   4.206   2.685   6.903
 6667SOL    HW220682   4.104   2.586   6.851
 6668SOL     OW20683   3.792   3.434   6.936
 6668SOL    HW120684   3.759   3.507   6.883
 6668SOL    HW220685   3.887   3.443   6.931
 6669SOL     OW20686   4.076   2.968   6.077
 6669SOL    HW120687   4.077   3.041   6.015
 6669SOL    HW220688   4.074   2.890   6.022
 6670SOL     OW20689   4.298   2.401   6.449
 6670SOL    HW120690   4.300   2.467   6.380
 6670SOL    HW220691   4.361   2.432   6.514
 6671SOL     OW20692   4.073   3.392   6.904
 6671SOL    HW120693   4.066   3.349   6.819
 6671SOL    HW220694   4.167   3.395   6.922
 6672SOL     OW20695   4.135   2.606   7.190
 6672SOL    HW120696   4.194   2.651   7.129
 6672SOL    HW220697   4.178   2.521   7.206
 6673SOL     OW20698   4.231   1.914   7.321
 6673SOL    HW120699   4.187   1.854   7.261
 6673SOL    HW220700   4.164   1.980   7.341
 6674SOL     OW20701   4.291   2.748   6.612
 6674SOL    HW120702   4.325   2.836   6.626
 6674SOL    HW220703   4.243   2.728   6.692
 6675SOL     OW20704   4.025   2.064   6.832
 6675SOL    HW120705   3.987   2.096   6.914
 6675SOL    HW220706   4.005   1.970   6.832
 6676SOL     OW20707   3.770   3.172   6.863
 6676SOL    HW120708   3.803   3.119   6.935
 6676SOL    HW220709   3.777   3.262   6.895
 6677SOL     OW20710   4.021   1.929   6.211
 6677SOL    HW120711   4.006   2.020   6.236
 6677SOL    HW220712   4.031   1.882   6.293
 6678SOL     OW20713   4.076   2.777   7.394
 6678SOL    HW120714   4.158   2.793   7.440
 6678SOL    HW220715   4.099   2.714   7.325
 6679SOL     OW20716   4.032   2.671   6.533
 6679SOL    HW120717   4.124   2.698   6.532
 6679SOL    HW220718   4.033   2.581   6.566
 6680SOL     OW20719   4.062   2.386   6.595
 6680SOL    HW120720   4.026   2.299   6.579
 6680SOL    HW220721   4.140   2.390   6.540
 6681SOL     OW20722   3.729   3.184   5.781
 6681SOL    HW120723   3.642   3.198   5.744
 6681SOL    HW220724   3.727   3.094   5.814
 6682SOL     OW20725   3.815   3.651   6.523
 6682SOL    HW120726   3.785   3.571   6.480
 6682SOL    HW220727   3.905   3.663   6.491
 6683SOL     OW20728   4.232   3.443   6.491
 6683SOL    HW120729   4.316   3.480   6.517
 6683SOL    HW220730   4.255   3.370   6.434
 6684SOL     OW20731   3.759   2.405   6.702
 6684SOL    HW120732   3.840   2.387   6.653
 6684SOL    HW220733   3.788   2.411   6.793
 6685SOL     OW20734   3.914   2.380   7.312
 6685SOL    HW120735   3.972   2.344   7.244
 6685SOL    HW220736   3.868   2.451   7.269
 6686SOL     OW20737   0.035   2.421   5.853
 6686SOL    HW120738   0.020   2.343   5.905
 6686SOL    HW220739   4.465   2.482   5.879
 6687SOL     OW20740   3.972   3.416   7.316
 6687SOL    HW120741   3.945   3.479   7.383
 6687SOL    HW220742   3.968   3.331   7.360
 6688SOL     OW20743   4.192   2.355   5.776
 6688SOL    HW120744   4.249   2.430   5.794
 6688SOL    HW220745   4.105   2.394   5.763
 6689SOL     OW20746   3.872   3.001   7.057
 6689SOL    HW120747   3.876   2.948   7.136
 6689SOL    HW220748   3.888   2.940   6.986
 6690SOL     OW20749   3.807   3.130   6.600
 6690SOL    HW120750   3.794   3.139   6.694
 6690SOL    HW220751   3.735   3.074   6.570
 6691SOL     OW20752   4.390   3.514   7.288
 6691SOL    HW120753   4.357   3.601   7.311
 6691SOL    HW220754   4.442   3.528   7.210
 6692SOL     OW20755   3.860   3.659   7.429
 6692SOL    HW120756   3.808   3.594   7.478
 6692SOL    HW220757   3.907   3.707   7.496
 6693SOL     OW20758   3.988   2.182   6.302
 6693SOL    HW120759   3.901   2.216   6.280
 6693SOL    HW220760   3.985   2.171   6.397
 6694SOL     OW20761   4.090   3.166   7.077
 6694SOL    HW120762   4.072   3.243   7.023
 6694SOL    HW220763   4.016   3.107   7.060
 6695SOL     OW20764   4.324   3.352   6.068
 6695SOL    HW120765   4.343   3.293   5.995
 6695SOL    HW220766   4.261   3.414   6.033
 6696SOL     OW20767   3.983   3.213   5.871
 6696SOL    HW120768   3.890   3.208   5.849
 6696SOL    HW220769   3.985   3.248   5.960
 6697SOL     OW20770   3.835   2.881   7.306
 6697SOL    HW120771   3.759   2.858   7.358
 6697SOL    HW220772   3.910   2.845   7.353
 6698SOL     OW20773   4.392   2.067   7.079
 6698SOL    HW120774   4.479   2.061   7.041
 6698SOL    HW220775   4.406   2.058   7.173
 6699SOL     OW20776   3.801   2.198   5.621
 6699SOL    HW120777   3.714   2.177   5.588
 6699SOL    HW220778   3.830   2.273   5.569
 6700SOL     OW20779   3.794   2.020   5.899
 6700SOL    HW120780   3.779   2.100   5.849
 6700SOL    HW220781   3.879   1.988   5.868
 6701SOL     OW20782   4.336   2.701   7.020
 6701SOL    HW120783   4.383   2.784   7.006
 6701SOL    HW220784   4.406   2.636   7.029
 6702SOL     OW20785   4.402   2.418   7.321
 6702SOL    HW120786   4.426   2.496   7.372
 6702SOL    HW220787   4.486   2.379   7.296
 6703SOL     OW20788   4.108   3.601   7.146
 6703SOL    HW120789   4.022   3.640   7.135
 6703SOL    HW220790   4.092   3.519   7.192
 6704SOL     OW20791   4.310   2.595   6.251
 6704SOL    HW120792   4.354   2.680   6.239
 6704SOL    HW220793   4.240   2.595   6.186
 6705SOL     OW20794   3.944   3.169   7.441
 6705SOL    HW120795   3.878   3.106   7.414
 6705SOL    HW220796   3.930   3.180   7.535
 6706SOL     OW20797   3.807   3.097   6.250
 6706SOL    HW120798   3.809   3.048   6.332
 6706SOL    HW220799   3.876   3.059   6.196
 6707SOL     OW20800   4.412   3.249   7.237
 6707SOL    HW120801   4.323   3.215   7.240
 6707SOL    HW220802   4.402   3.343   7.254
 6708SOL     OW20803   4.162   2.295   6.117
 6708SOL    HW120804   4.179   2.225   6.053
 6708SOL    HW220805   4.106   2.253   6.183
 6709SOL     OW20806   4.051   2.414   6.875
 6709SOL    HW120807   4.105   2.357   6.930
 6709SOL    HW220808   4.073   2.387   6.785
 6710SOL     OW20809   0.038   3.456   6.271
 6710SOL    HW120810   0.057   3.513   6.197
 6710SOL    HW220811   4.464   3.403   6.241
 6711SOL     OW20812   3.768   2.935   5.891
 6711SOL    HW120813   3.861   2.924   5.874
 6711SOL    HW220814   3.737   2.847   5.914
 6712SOL     OW20815   3.955   2.485   7.569
 6712SOL    HW120816   3.865   2.485   7.602
 6712SOL    HW220817   3.947   2.458   7.478
 6713SOL     OW20818   3.947   2.144   8.439
 6713SOL    HW120819   3.979   2.110   8.522
 6713SOL    HW220820   3.858   2.110   8.431
 6714SOL     OW20821   3.729   2.244   8.086
 6714SOL    HW120822   3.647   2.268   8.128
 6714SOL    HW220823   3.710   2.164   8.038
 6715SOL     OW20824   4.270   3.113   8.593
 6715SOL    HW120825   4.193   3.166   8.572
 6715SOL    HW220826   4.329   3.173   8.640
 6716SOL     OW20827   0.024   2.645   9.305
 6716SOL    HW120828   0.073   2.694   9.370
 6716SOL    HW220829   0.066   2.666   9.222
 6717SOL     OW20830   4.399   2.859   8.090
 6717SOL    HW120831   4.470   2.851   8.154
 6717SOL    HW220832   4.335   2.916   8.133
 6718SOL     OW20833   4.418   3.023   9.262
 6718SOL    HW120834   4.462   3.104   9.237
 6718SOL    HW220835   4.327   3.035   9.234
 6719SOL     OW20836   4.059   3.296   8.517
 6719SOL    HW120837   3.987   3.255   8.469
 6719SOL    HW220838   4.107   3.344   8.450
 6720SOL     OW20839   4.170   2.261   8.936
 6720SOL    HW120840   4.244   2.200   8.939
 6720SOL    HW220841   4.093   2.205   8.949
 6721SOL     OW20842   3.943   3.575   7.923
 6721SOL    HW120843   3.966   3.652   7.976
 6721SOL    HW220844   4.014   3.568   7.859
 6722SOL     OW20845   3.953   3.302   7.981
 6722SOL    HW120846   3.936   3.396   7.988
 6722SOL    HW220847   3.892   3.262   8.044
 6723SOL     OW20848   3.973   2.951   8.334
 6723SOL    HW120849   3.978   2.866   8.380
 6723SOL    HW220850   3.920   3.006   8.392
 6724SOL     OW20851   4.359   3.659   8.899
 6724SOL    HW120852   4.273   3.626   8.924
 6724SOL    HW220853   4.350   3.755   8.901
 6725SOL     OW20854   4.311   2.846   7.585
 6725SOL    HW120855   4.339   2.900   7.511
 6725SOL    HW220856   4.379   2.859   7.651
 6726SOL     OW20857   3.839   2.512   8.007
 6726SOL    HW120858   3.808   2.424   8.029
 6726SOL    HW220859   3.830   2.561   8.089
 6727SOL     OW20860   3.754   3.459   7.572
 6727SOL    HW120861   3.736   3.366   7.592
 6727SOL    HW220862   3.729   3.505   7.652
 6728SOL     OW20863   3.845   2.603   9.035
 6728SOL    HW120864   3.937   2.625   9.050
 6728SOL    HW220865   3.800   2.687   9.041
 6729SOL     OW20866   4.314   3.247   8.185
 6729SOL    HW120867   4.278   3.159   8.189
 6729SOL    HW220868   4.313   3.270   8.092
 6730SOL     OW20869   0.022   1.869   7.974
 6730SOL    HW120870   0.055   1.933   7.911
 6730SOL    HW220871   4.427   1.883   7.976
 6731SOL     OW20872   3.914   2.830   8.717
 6731SOL    HW120873   3.999   2.789   8.700
 6731SOL    HW220874   3.851   2.773   8.674
 6732SOL     OW20875   4.054   2.113   9.254
 6732SOL    HW120876   4.101   2.195   9.270
 6732SOL    HW220877   3.966   2.128   9.288
 6733SOL     OW20878   4.312   2.590   7.717
 6733SOL    HW120879   4.313   2.666   7.658
 6733SOL    HW220880   4.243   2.611   7.780
 6734SOL     OW20881   3.812   2.682   8.223
 6734SOL    HW120882   3.894   2.674   8.272
 6734SOL    HW220883   3.771   2.761   8.258
 6735SOL     OW20884   3.853   3.700   9.024
 6735SOL    HW120885   3.851   3.682   9.118
 6735SOL    HW220886   3.761   3.705   8.998
 6736SOL     OW20887   4.254   2.055   8.329
 6736SOL    HW120888   4.273   2.060   8.422
 6736SOL    HW220889   4.266   2.144   8.297
 6737SOL     OW20890   4.081   3.671   8.307
 6737SOL    HW120891   4.129   3.589   8.315
 6737SOL    HW220892   4.147   3.739   8.319
 6738SOL     OW20893   4.045   2.818   7.696
 6738SOL    HW120894   4.127   2.837   7.651
 6738SOL    HW220895   4.014   2.736   7.658
 6739SOL     OW20896   4.179   3.116   9.183
 6739SOL    HW120897   4.151   3.127   9.092
 6739SOL    HW220898   4.098   3.125   9.234
 6740SOL     OW20899   3.924   2.145   8.948
 6740SOL    HW120900   3.842   2.195   8.940
 6740SOL    HW220901   3.907   2.083   9.019
 6741SOL     OW20902   4.193   3.597   7.773
 6741SOL    HW120903   4.224   3.656   7.842
 6741SOL    HW220904   4.263   3.599   7.708
 6742SOL     OW20905   3.978   3.655   8.681
 6742SOL    HW120906   4.027   3.587   8.729
 6742SOL    HW220907   3.965   3.619   8.594
 6743SOL     OW20908   4.110   2.557   7.922
 6743SOL    HW120909   4.137   2.466   7.935
 6743SOL    HW220910   4.017   2.557   7.944
 6744SOL     OW20911   4.340   1.975   7.565
 6744SOL    HW120912   4.434   1.958   7.565
 6744SOL    HW220913   4.312   1.951   7.476
 6745SOL     OW20914   0.017   3.288   8.364
 6745SOL    HW120915   0.090   3.317   8.308
 6745SOL    HW220916   4.445   3.271   8.303
 6746SOL     OW20917   4.261   1.926   7.950
 6746SOL    HW120918   4.183   1.931   8.005
 6746SOL    HW220919   4.258   2.004   7.896
 6747SOL     OW20920   4.018   1.909   7.632
 6747SOL    HW120921   4.078   1.974   7.595
 6747SOL    HW220922   4.075   1.844   7.674
 6748SOL     OW20923   0.321   2.540   8.895
 6748SOL    HW120924   0.247   2.479   8.896
 6748SOL    HW220925   0.398   2.484   8.887
 6749SOL     OW20926   4.189   3.008   8.184
 6749SOL    HW120927   4.119   2.989   8.247
 6749SOL    HW220928   4.150   2.989   8.099
 6750SOL     OW20929   3.801   2.417   8.839
 6750SOL    HW120930   3.893   2.415   8.811
 6750SOL    HW220931   3.797   2.487   8.904
 6751SOL     OW20932   4.285   2.075   8.597
 6751SOL    HW120933   4.325   2.005   8.648
 6751SOL    HW220934   4.198   2.086   8.636
 6752SOL     OW20935   4.230   3.248   7.620
 6752SOL    HW120936   4.146   3.234   7.663
 6752SOL    HW220937   4.207   3.266   7.529
 6753SOL     OW20938   4.247   2.127   7.771
 6753SOL    HW120939   4.287   2.073   7.703
 6753SOL    HW220940   4.229   2.210   7.727
 6754SOL     OW20941   4.139   2.674   8.698
 6754SOL    HW120942   4.206   2.685   8.765
 6754SOL    HW220943   4.104   2.586   8.713
 6755SOL     OW20944   3.792   3.434   8.798
 6755SOL    HW120945   3.758   3.507   8.745
 6755SOL    HW220946   3.887   3.443   8.793
 6756SOL     OW20947   4.075   2.969   7.939
 6756SOL    HW120948   4.077   3.041   7.877
 6756SOL    HW220949   4.074   2.890   7.884
 6757SOL     OW20950   4.297   2.401   8.311
 6757SOL    HW120951   4.300   2.467   8.242
 6757SOL    HW220952   4.361   2.431   8.376
 6758SOL     OW20953   4.073   3.392   8.766
 6758SOL    HW120954   4.066   3.349   8.681
 6758SOL    HW220955   4.167   3.395   8.784
 6759SOL     OW20956   4.135   2.605   9.052
 6759SOL    HW120957   4.194   2.651   8.991
 6759SOL    HW220958   4.178   2.521   9.068
 6760SOL     OW20959   4.231   1.914   9.183
 6760SOL    HW120960   4.187   1.854   9.123
 6760SOL    HW220961   4.164   1.980   9.203
 6761SOL     OW20962   4.291   2.748   8.474
 6761SOL    HW120963   4.325   2.836   8.488
 6761SOL    HW220964   4.243   2.728   8.554
 6762SOL     OW20965   4.025   2.064   8.694
 6762SOL    HW120966   3.987   2.096   8.776
 6762SOL    HW220967   4.005   1.970   8.694
 6763SOL     OW20968   3.770   3.172   8.725
 6763SOL    HW120969   3.803   3.119   8.797
 6763SOL    HW220970   3.777   3.262   8.757
 6764SOL     OW20971   4.020   1.929   8.073
 6764SOL    HW120972   4.006   2.020   8.098
 6764SOL    HW220973   4.031   1.882   8.156
 6765SOL     OW20974   4.076   2.777   9.256
 6765SOL    HW120975   4.158   2.794   9.302
 6765SOL    HW220976   4.099   2.714   9.187
 6766SOL     OW20977   4.032   2.671   8.395
 6766SOL    HW120978   4.124   2.698   8.394
 6766SOL    HW220979   4.033   2.581   8.428
 6767SOL     OW20980   4.062   2.386   8.457
 6767SOL    HW120981   4.026   2.299   8.441
 6767SOL    HW220982   4.140   2.390   8.402
 6768SOL     OW20983   3.729   3.184   7.643
 6768SOL    HW120984   3.642   3.198   7.606
 6768SOL    HW220985   3.727   3.095   7.676
 6769SOL     OW20986   3.815   3.651   8.385
 6769SOL    HW120987   3.785   3.571   8.342
 6769SOL    HW220988   3.905   3.663   8.353
 6770SOL     OW20989   4.232   3.443   8.353
 6770SOL    HW120990   4.316   3.480   8.379
 6770SOL    HW220991   4.255   3.370   8.296
 6771SOL     OW20992   3.759   2.405   8.564
 6771SOL    HW120993   3.840   2.387   8.515
 6771SOL    HW220994   3.788   2.411   8.655
 6772SOL     OW20995   3.914   2.380   9.174
 6772SOL    HW120996   3.972   2.344   9.106
 6772SOL    HW220997   3.868   2.451   9.131
 6773SOL     OW20998   0.035   2.421   7.714
 6773SOL    HW120999   0.020   2.343   7.767
 6773SOL    HW221000   4.465   2.481   7.741
 6774SOL     OW21001   3.972   3.416   9.178
 6774SOL    HW121002   3.945   3.479   9.245
 6774SOL    HW221003   3.968   3.331   9.222
 6775SOL     OW21004   4.192   2.355   7.637
 6775SOL    HW121005   4.249   2.429   7.656
 6775SOL    HW221006   4.105   2.394   7.625
 6776SOL     OW21007   3.872   3.001   8.919
 6776SOL    HW121008   3.876   2.948   8.998
 6776SOL    HW221009   3.888   2.940   8.848
 6777SOL     OW21010   3.808   3.130   8.462
 6777SOL    HW121011   3.794   3.139   8.556
 6777SOL    HW221012   3.735   3.074   8.432
 6778SOL     OW21013   4.390   3.514   9.150
 6778SOL    HW121014   4.357   3.601   9.173
 6778SOL    HW221015   4.442   3.528   9.072
 6779SOL     OW21016   3.859   3.659   9.291
 6779SOL    HW121017   3.808   3.594   9.340
 6779SOL    HW221018   3.907   3.707   9.358
 6780SOL     OW21019   3.988   2.182   8.164
 6780SOL    HW121020   3.901   2.216   8.142
 6780SOL    HW221021   3.985   2.171   8.259
 6781SOL     OW21022   4.090   3.166   8.939
 6781SOL    HW121023   4.072   3.243   8.885
 6781SOL    HW221024   4.016   3.107   8.922
 6782SOL     OW21025   4.324   3.352   7.930
 6782SOL    HW121026   4.344   3.293   7.857
 6782SOL    HW221027   4.261   3.414   7.894
 6783SOL     OW21028   3.983   3.213   7.733
 6783SOL    HW121029   3.890   3.209   7.711
 6783SOL    HW221030   3.985   3.248   7.822
 6784SOL     OW21031   3.835   2.881   9.167
 6784SOL    HW121032   3.759   2.858   9.220
 6784SOL    HW221033   3.910   2.845   9.215
 6785SOL     OW21034   4.392   2.067   8.941
 6785SOL    HW121035   4.479   2.061   8.903
 6785SOL    HW221036   4.406   2.058   9.035
 6786SOL     OW21037   3.801   2.198   7.484
 6786SOL    HW121038   3.714   2.178   7.451
 6786SOL    HW221039   3.830   2.273   7.431
 6787SOL     OW21040   3.794   2.020   7.761
 6787SOL    HW121041   3.779   2.099   7.711
 6787SOL    HW221042   3.879   1.988   7.731
 6788SOL     OW21043   4.336   2.701   8.882
 6788SOL    HW121044   4.383   2.784   8.868
 6788SOL    HW221045   4.406   2.636   8.891
 6789SOL     OW21046   4.402   2.418   9.183
 6789SOL    HW121047   4.426   2.496   9.234
 6789SOL    HW221048   4.486   2.379   9.158
 6790SOL     OW21049   4.108   3.601   9.008
 6790SOL    HW121050   4.022   3.640   8.997
 6790SOL    HW221051   4.092   3.519   9.054
 6791SOL     OW21052   4.310   2.595   8.113
 6791SOL    HW121053   4.354   2.679   8.101
 6791SOL    HW221054   4.240   2.595   8.048
 6792SOL     OW21055   3.944   3.169   9.303
 6792SOL    HW121056   3.878   3.106   9.276
 6792SOL    HW221057   3.930   3.180   9.397
 6793SOL     OW21058   3.807   3.097   8.112
 6793SOL    HW121059   3.810   3.048   8.194
 6793SOL    HW221060   3.877   3.059   8.059
 6794SOL     OW21061   4.412   3.249   9.099
 6794SOL    HW121062   4.323   3.215   9.102
 6794SOL    HW221063   4.402   3.343   9.116
 6795SOL     OW21064   4.161   2.295   7.978
 6795SOL    HW121065   4.179   2.225   7.915
 6795SOL    HW221066   4.106   2.253   8.045
 6796SOL     OW21067   4.051   2.414   8.737
 6796SOL    HW121068   4.105   2.357   8.792
 6796SOL    HW221069   4.073   2.387   8.647
 6797SOL     OW21070   0.038   3.456   8.133
 6797SOL    HW121071   0.057   3.513   8.059
 6797SOL    HW221072   4.464   3.403   8.103
 6798SOL     OW21073   3.768   2.935   7.753
 6798SOL    HW121074   3.861   2.925   7.736
 6798SOL    HW221075   3.738   2.847   7.776
 6799SOL     OW21076   3.955   2.485   9.431
 6799SOL    HW121077   3.865   2.485   9.464
 6799SOL    HW221078   3.947   2.458   9.340
 6800SOL     OW21079   3.947   2.144  10.300
 6800SOL    HW121080   3.979   2.110  10.384
 6800SOL    HW221081   3.858   2.110  10.293
 6801SOL     OW21082   3.729   2.244   9.948
 6801SOL    HW121083   3.647   2.268   9.990
 6801SOL    HW221084   3.710   2.164   9.900
 6802SOL     OW21085   4.271   3.113  10.455
 6802SOL    HW121086   4.194   3.165  10.434
 6802SOL    HW221087   4.328   3.173  10.502
 6803SOL     OW21088   0.026   2.670   0.077
 6803SOL    HW121089   0.097   2.715   0.122
 6803SOL    HW221090   0.058   2.658  11.088
 6804SOL     OW21091   4.399   2.859   9.952
 6804SOL    HW121092   4.470   2.851  10.016
 6804SOL    HW221093   4.335   2.916   9.995
 6805SOL     OW21094   4.059   3.295  10.379
 6805SOL    HW121095   3.987   3.255  10.331
 6805SOL    HW221096   4.107   3.344  10.312
 6806SOL     OW21097   4.176   2.262  10.800
 6806SOL    HW121098   4.243   2.194  10.799
 6806SOL    HW221099   4.095   2.215  10.817
 6807SOL     OW21100   3.943   3.575   9.785
 6807SOL    HW121101   3.966   3.652   9.838
 6807SOL    HW221102   4.014   3.568   9.721
 6808SOL     OW21103   3.953   3.302   9.843
 6808SOL    HW121104   3.936   3.395   9.850
 6808SOL    HW221105   3.892   3.262   9.906
 6809SOL     OW21106   3.973   2.951  10.196
 6809SOL    HW121107   3.977   2.867  10.242
 6809SOL    HW221108   3.920   3.006  10.254
 6810SOL     OW21109   4.357   3.660  10.758
 6810SOL    HW121110   4.269   3.630  10.783
 6810SOL    HW221111   4.352   3.755  10.765
 6811SOL     OW21112   4.311   2.846   9.447
 6811SOL    HW121113   4.339   2.900   9.373
 6811SOL    HW221114   4.378   2.859   9.513
 6812SOL     OW21115   3.839   2.512   9.870
 6812SOL    HW121116   3.808   2.424   9.891
 6812SOL    HW221117   3.830   2.561   9.951
 6813SOL     OW21118   3.754   3.459   9.434
 6813SOL    HW121119   3.737   3.366   9.454
 6813SOL    HW221120   3.729   3.505   9.515
 6814SOL     OW21121   3.847   2.589  10.912
 6814SOL    HW121122   3.941   2.611  10.912
 6814SOL    HW221123   3.803   2.674  10.905
 6815SOL     OW21124   4.314   3.247  10.047
 6815SOL    HW121125   4.278   3.159  10.051
 6815SOL    HW221126   4.313   3.270   9.954
 6816SOL     OW21127   0.022   1.869   9.836
 6816SOL    HW121128   0.055   1.933   9.773
 6816SOL    HW221129   4.427   1.883   9.838
 6817SOL     OW21130   3.914   2.829  10.577
 6817SOL    HW121131   3.999   2.788  10.559
 6817SOL    HW221132   3.850   2.772  10.536
 6818SOL     OW21133   4.063   2.119   0.012
 6818SOL    HW121134   4.114   2.194   0.042
 6818SOL    HW221135   3.972   2.142   0.034
 6819SOL     OW21136   4.312   2.590   9.579
 6819SOL    HW121137   4.313   2.666   9.520
 6819SOL    HW221138   4.243   2.611   9.642
 6820SOL     OW21139   3.812   2.682  10.085
 6820SOL    HW121140   3.894   2.674  10.134
 6820SOL    HW221141   3.771   2.761  10.120
 6821SOL     OW21142   3.855   3.699  10.893
 6821SOL    HW121143   3.835   3.668  10.982
 6821SOL    HW221144   3.769   3.707  10.851
 6822SOL     OW21145   4.254   2.055  10.191
 6822SOL    HW121146   4.274   2.060  10.285
 6822SOL    HW221147   4.266   2.144  10.159
 6823SOL     OW21148   4.081   3.671  10.169
 6823SOL    HW121149   4.129   3.589  10.177
 6823SOL    HW221150   4.147   3.739  10.181
 6824SOL     OW21151   4.045   2.818   9.558
 6824SOL    HW121152   4.127   2.837   9.513
 6824SOL    HW221153   4.014   2.736   9.520
 6825SOL     OW21154   4.180   3.124  11.053
 6825SOL    HW121155   4.153   3.134  10.961
 6825SOL    HW221156   4.106   3.079  11.094
 6826SOL     OW21157   3.927   2.145  10.807
 6826SOL    HW121158   3.845   2.195  10.801
 6826SOL    HW221159   3.912   2.083  10.878
 6827SOL     OW21160   4.193   3.597   9.635
 6827SOL    HW121161   4.224   3.656   9.704
 6827SOL    HW221162   4.263   3.599   9.570
 6828SOL     OW21163   3.978   3.655  10.544
 6828SOL    HW121164   4.027   3.588  10.592
 6828SOL    HW221165   3.966   3.618  10.457
 6829SOL     OW21166   4.110   2.557   9.784
 6829SOL    HW121167   4.137   2.466   9.797
 6829SOL    HW221168   4.017   2.557   9.806
 6830SOL     OW21169   4.340   1.975   9.427
 6830SOL    HW121170   4.434   1.958   9.427
 6830SOL    HW221171   4.312   1.951   9.338
 6831SOL     OW21172   0.017   3.289  10.226
 6831SOL    HW121173   0.090   3.317  10.170
 6831SOL    HW221174   4.445   3.271  10.165
 6832SOL     OW21175   4.261   1.925   9.812
 6832SOL    HW121176   4.183   1.931   9.867
 6832SOL    HW221177   4.258   2.004   9.758
 6833SOL     OW21178   4.018   1.909   9.494
 6833SOL    HW121179   4.078   1.974   9.457
 6833SOL    HW221180   4.075   1.844   9.536
 6834SOL     OW21181   0.310   2.542  10.759
 6834SOL    HW121182   0.244   2.474  10.773
 6834SOL    HW221183   0.392   2.493  10.750
 6835SOL     OW21184   4.189   3.007  10.046
 6835SOL    HW121185   4.119   2.989  10.109
 6835SOL    HW221186   4.150   2.989   9.961
 6836SOL     OW21187   3.800   2.416  10.702
 6836SOL    HW121188   3.892   2.415  10.675
 6836SOL    HW221189   3.797   2.479  10.774
 6837SOL     OW21190   4.285   2.076  10.460
 6837SOL    HW121191   4.323   2.002  10.507
 6837SOL    HW221192   4.198   2.086  10.498
 6838SOL     OW21193   4.230   3.248   9.482
 6838SOL    HW121194   4.146   3.234   9.525
 6838SOL    HW221195   4.207   3.266   9.391
 6839SOL     OW21196   4.247   2.127   9.633
 6839SOL    HW121197   4.287   2.073   9.565
 6839SOL    HW221198   4.229   2.210   9.589
 6840SOL     OW21199   4.139   2.674  10.560
 6840SOL    HW121200   4.207   2.685  10.626
 6840SOL    HW221201   4.104   2.586  10.574
 6841SOL     OW21202   3.792   3.437  10.658
 6841SOL    HW121203   3.760   3.508  10.604
 6841SOL    HW221204   3.887   3.443  10.652
 6842SOL     OW21205   4.075   2.969   9.801
 6842SOL    HW121206   4.077   3.041   9.739
 6842SOL    HW221207   4.074   2.890   9.746
 6843SOL     OW21208   4.297   2.401  10.173
 6843SOL    HW121209   4.301   2.467  10.104
 6843SOL    HW221210   4.361   2.431  10.238
 6844SOL     OW21211   4.073   3.391  10.628
 6844SOL    HW121212   4.066   3.348  10.543
 6844SOL    HW221213   4.167   3.395  10.646
 6845SOL     OW21214   4.134   2.599  10.906
 6845SOL    HW121215   4.196   2.645  10.849
 6845SOL    HW221216   4.167   2.509  10.908
 6846SOL     OW21217   4.292   2.748  10.336
 6846SOL    HW121218   4.325   2.837  10.349
 6846SOL    HW221219   4.243   2.728  10.416
 6847SOL     OW21220   4.026   2.063  10.556
 6847SOL    HW121221   3.989   2.096  10.638
 6847SOL    HW221222   4.005   1.970  10.556
 6848SOL     OW21223   3.772   3.173  10.586
 6848SOL    HW121224   3.801   3.119  10.660
 6848SOL    HW221225   3.776   3.263  10.620
 6849SOL     OW21226   4.020   1.929   9.935
 6849SOL    HW121227   4.006   2.020   9.960
 6849SOL    HW221228   4.031   1.882  10.018
 6850SOL     OW21229   4.080   2.780  11.095
 6850SOL    HW121230   4.164   2.795   0.039
 6850SOL    HW221231   4.099   2.713  11.029
 6851SOL     OW21232   4.032   2.671  10.257
 6851SOL    HW121233   4.124   2.698  10.256
 6851SOL    HW221234   4.034   2.581  10.290
 6852SOL     OW21235   4.062   2.386  10.319
 6852SOL    HW121236   4.026   2.299  10.303
 6852SOL    HW221237   4.140   2.390  10.264
 6853SOL     OW21238   3.729   3.185   9.505
 6853SOL    HW121239   3.642   3.198   9.468
 6853SOL    HW221240   3.727   3.095   9.538
 6854SOL     OW21241   3.815   3.652  10.247
 6854SOL    HW121242   3.785   3.571  10.204
 6854SOL    HW221243   3.905   3.663  10.215
 6855SOL     OW21244   4.232   3.443  10.215
 6855SOL    HW121245   4.316   3.480  10.241
 6855SOL    HW221246   4.255   3.370  10.157
 6856SOL     OW21247   3.760   2.405  10.426
 6856SOL    HW121248   3.840   2.387  10.378
 6856SOL    HW221249   3.787   2.411  10.518
 6857SOL     OW21250   0.035   2.421   9.576
 6857SOL    HW121251   0.020   2.343   9.629
 6857SOL    HW221252   4.465   2.481   9.603
 6858SOL     OW21253   3.980   3.428  11.055
 6858SOL    HW121254   3.925   3.466   0.023
 6858SOL    HW221255   3.976   3.333  11.071
 6859SOL     OW21256   4.192   2.355   9.499
 6859SOL    HW121257   4.249   2.429   9.518
 6859SOL    HW221258   4.105   2.394   9.487
 6860SOL     OW21259   3.877   3.000  10.780
 6860SOL    HW121260   3.872   2.944  10.857
 6860SOL    HW221261   3.890   2.939  10.707
 6861SOL     OW21262   3.808   3.130  10.323
 6861SOL    HW121263   3.795   3.140  10.417
 6861SOL    HW221264   3.735   3.074  10.295
 6862SOL     OW21265   4.397   3.528  11.007
 6862SOL    HW121266   4.322   3.586  10.993
 6862SOL    HW221267   4.433   3.514  10.919
 6863SOL     OW21268   3.988   2.182  10.026
 6863SOL    HW121269   3.901   2.216  10.004
 6863SOL    HW221270   3.985   2.171  10.121
 6864SOL     OW21271   4.086   3.168  10.808
 6864SOL    HW121272   4.073   3.242  10.749
 6864SOL    HW221273   4.015   3.108  10.787
 6865SOL     OW21274   4.324   3.352   9.792
 6865SOL    HW121275   4.344   3.293   9.719
 6865SOL    HW221276   4.261   3.414   9.756
 6866SOL     OW21277   3.983   3.213   9.595
 6866SOL    HW121278   3.890   3.209   9.573
 6866SOL    HW221279   3.985   3.248   9.684
 6867SOL     OW21280   3.836   2.874  11.021
 6867SOL    HW121281   3.765   2.857  11.083
 6867SOL    HW221282   3.915   2.844  11.065
 6868SOL     OW21283   4.396   2.065  10.807
 6868SOL    HW121284   4.476   2.067  10.755
 6868SOL    HW221285   4.426   2.074  10.898
 6869SOL     OW21286   3.801   2.198   9.346
 6869SOL    HW121287   3.714   2.178   9.313
 6869SOL    HW221288   3.830   2.272   9.293
 6870SOL     OW21289   3.794   2.020   9.623
 6870SOL    HW121290   3.779   2.100   9.573
 6870SOL    HW221291   3.879   1.988   9.593
 6871SOL     OW21292   4.337   2.700  10.744
 6871SOL    HW121293   4.381   2.784  10.729
 6871SOL    HW221294   4.409   2.637  10.747
 6872SOL     OW21295   4.114   3.596  10.869
 6872SOL    HW121296   4.033   3.647  10.863
 6872SOL    HW221297   4.091   3.520  10.922
 6873SOL     OW21298   4.310   2.595   9.975
 6873SOL    HW121299   4.354   2.680   9.963
 6873SOL    HW221300   4.240   2.595   9.910
 6874SOL     OW21301   3.807   3.097   9.974
 6874SOL    HW121302   3.810   3.048  10.056
 6874SOL    HW221303   3.877   3.059   9.921
 6875SOL     OW21304   4.405   3.254  10.939
 6875SOL    HW121305   4.330   3.205  10.973
 6875SOL    HW221306   4.397   3.340  10.980
 6876SOL     OW21307   4.161   2.295   9.840
 6876SOL    HW121308   4.179   2.225   9.777
 6876SOL    HW221309   4.106   2.253   9.907
 6877SOL     OW21310   4.052   2.414  10.599
 6877SOL    HW121311   4.105   2.356  10.654
 6877SOL    HW221312   4.072   2.388  10.509
 6878SOL     OW21313   0.038   3.456   9.995
 6878SOL    HW121314   0.057   3.514   9.921
 6878SOL    HW221315   4.464   3.403   9.965
 6879SOL     OW21316   3.768   2.935   9.615
 6879SOL    HW121317   3.861   2.925   9.598
 6879SOL    HW221318   3.738   2.847   9.638
 6880SOL     OW21319   3.930   4.295   0.090
 6880SOL    HW121320   3.896   4.351   0.160
 6880SOL    HW221321   3.941   4.355   0.016
 6881SOL     OW21322   3.947   4.004   0.990
 6881SOL    HW121323   3.978   3.970   1.074
 6881SOL    HW221324   3.857   3.970   0.982
 6882SOL     OW21325   3.730   4.102   0.643
 6882SOL    HW121326   3.645   4.128   0.681
 6882SOL    HW221327   3.710   4.025   0.591
 6883SOL     OW21328   0.059   0.016   1.858
 6883SOL    HW121329   0.110   0.084   1.902
 6883SOL    HW221330   0.075   0.030   1.765
 6884SOL     OW21331   4.170   4.119   1.484
 6884SOL    HW121332   4.245   4.060   1.492
 6884SOL    HW221333   4.094   4.063   1.501
 6885SOL     OW21334   3.816   4.364   0.557
 6885SOL    HW121335   3.798   4.275   0.589
 6885SOL    HW221336   3.862   4.406   0.630
 6886SOL     OW21337   3.843   4.472   1.584
 6886SOL    HW121338   3.913   4.487   1.647
 6886SOL    HW221339   3.809   0.060   1.565
 6887SOL     OW21340   0.023   3.733   0.530
 6887SOL    HW121341   0.056   3.793   0.464
 6887SOL    HW221342   4.428   3.745   0.529
 6888SOL     OW21343   4.054   3.976   1.804
 6888SOL    HW121344   4.100   4.058   1.825
 6888SOL    HW221345   3.966   3.988   1.838
 6889SOL     OW21346   4.254   3.915   0.881
 6889SOL    HW121347   4.273   3.921   0.975
 6889SOL    HW221348   4.265   4.005   0.849
 6890SOL     OW21349   3.923   4.007   1.503
 6890SOL    HW121350   3.838   4.052   1.492
 6890SOL    HW221351   3.908   3.944   1.573
 6891SOL     OW21352   4.094   4.387   0.414
 6891SOL    HW121353   4.130   4.313   0.462
 6891SOL    HW221354   4.021   4.418   0.469
 6892SOL     OW21355   4.341   3.845   0.115
 6892SOL    HW121356   4.433   3.817   0.122
 6892SOL    HW221357   4.314   3.817   0.028
 6893SOL     OW21358   4.262   3.788   0.502
 6893SOL    HW121359   4.183   3.792   0.555
 6893SOL    HW221360   4.257   3.867   0.447
 6894SOL     OW21361   4.010   3.771   0.198
 6894SOL    HW121362   4.054   3.826   0.133
 6894SOL    HW221363   4.077   3.707   0.224
 6895SOL     OW21364   0.354   4.398   1.519
 6895SOL    HW121365   0.283   4.370   1.461
 6895SOL    HW221366   0.425   4.335   1.501
 6896SOL     OW21367   3.799   4.279   1.391
 6896SOL    HW121368   3.890   4.272   1.362
 6896SOL    HW221369   3.799   4.353   1.453
 6897SOL     OW21370   4.285   3.938   1.149
 6897SOL    HW121371   4.325   3.867   1.200
 6897SOL    HW221372   4.198   3.949   1.188
 6898SOL     OW21373   4.248   3.992   0.324
 6898SOL    HW121374   4.281   3.934   0.256
 6898SOL    HW221375   4.232   4.075   0.280
 6899SOL     OW21376   4.153   0.010   1.266
 6899SOL    HW121377   4.218   0.010   1.336
 6899SOL    HW221378   4.112   4.423   1.272
 6900SOL     OW21379   4.300   4.264   0.869
 6900SOL    HW121380   4.312   4.331   0.802
 6900SOL    HW221381   4.366   4.284   0.935
 6901SOL     OW21382   4.231   3.776   1.735
 6901SOL    HW121383   4.186   3.716   1.675
 6901SOL    HW221384   4.164   3.843   1.754
 6902SOL     OW21385   4.025   3.925   1.246
 6902SOL    HW121386   3.987   3.958   1.328
 6902SOL    HW221387   4.005   3.832   1.245
 6903SOL     OW21388   4.021   3.791   0.625
 6903SOL    HW121389   4.006   3.882   0.650
 6903SOL    HW221390   4.031   3.744   0.708
 6904SOL     OW21391   4.040   0.014   0.924
 6904SOL    HW121392   4.118   0.069   0.930
 6904SOL    HW221393   4.058   4.441   0.983
 6905SOL     OW21394   4.067   4.241   1.016
 6905SOL    HW121395   4.027   4.157   0.996
 6905SOL    HW221396   4.142   4.247   0.958
 6906SOL     OW21397   3.760   4.270   1.115
 6906SOL    HW121398   3.841   4.250   1.067
 6906SOL    HW221399   3.787   4.274   1.206
 6907SOL     OW21400   3.916   4.244   1.719
 6907SOL    HW121401   3.972   4.199   1.656
 6907SOL    HW221402   3.860   4.300   1.665
 6908SOL     OW21403   4.499   4.292   0.277
 6908SOL    HW121404   0.033   4.211   0.316
 6908SOL    HW221405   4.479   4.348   0.353
 6909SOL     OW21406   4.198   4.217   0.178
 6909SOL    HW121407   4.249   4.290   0.215
 6909SOL    HW221408   4.107   4.247   0.181
 6910SOL     OW21409   3.988   4.045   0.718
 6910SOL    HW121410   3.900   4.075   0.694
 6910SOL    HW221411   3.984   4.032   0.812
 6911SOL     OW21412   4.392   3.928   1.494
 6911SOL    HW121413   4.480   3.926   1.457
 6911SOL    HW221414   4.406   3.922   1.588
 6912SOL     OW21415   3.801   4.051   0.053
 6912SOL    HW121416   3.732   4.044  11.087
 6912SOL    HW221417   3.831   4.142   0.046
 6913SOL     OW21418   3.793   3.884   0.316
 6913SOL    HW121419   3.779   3.960   0.260
 6913SOL    HW221420   3.876   3.846   0.284
 6914SOL     OW21421   4.408   4.272   1.741
 6914SOL    HW121422   4.428   4.356   1.783
 6914SOL    HW221423   4.493   4.236   1.716
 6915SOL     OW21424   4.172   4.152   0.541
 6915SOL    HW121425   4.185   4.084   0.474
 6915SOL    HW221426   4.110   4.112   0.603
 6916SOL     OW21427   4.046   4.264   1.291
 6916SOL    HW121428   4.102   4.208   1.345
 6916SOL    HW221429   4.069   4.239   1.201
 6917SOL     OW21430   3.951   4.295   1.986
 6917SOL    HW121431   3.885   4.356   2.021
 6917SOL    HW221432   3.939   4.298   1.891
 6918SOL     OW21433   3.947   4.004   2.852
 6918SOL    HW121434   3.978   3.971   2.936
 6918SOL    HW221435   3.857   3.970   2.844
 6919SOL     OW21436   3.730   4.102   2.506
 6919SOL    HW121437   3.646   4.129   2.543
 6919SOL    HW221438   3.708   4.025   2.453
 6920SOL     OW21439   0.060   0.016   3.720
 6920SOL    HW121440   0.110   0.084   3.764
 6920SOL    HW221441   0.075   0.030   3.627
 6921SOL     OW21442   4.170   4.119   3.346
 6921SOL    HW121443   4.245   4.060   3.354
 6921SOL    HW221444   4.094   4.063   3.363
 6922SOL     OW21445   3.809   4.367   2.424
 6922SOL    HW121446   3.799   4.276   2.453
 6922SOL    HW221447   3.864   4.408   2.490
 6923SOL     OW21448   3.843   4.472   3.446
 6923SOL    HW121449   3.913   4.487   3.509
 6923SOL    HW221450   3.809   0.060   3.427
 6924SOL     OW21451   0.022   3.730   2.388
 6924SOL    HW121452   0.055   3.795   2.326
 6924SOL    HW221453   4.427   3.744   2.389
 6925SOL     OW21454   4.054   3.976   3.666
 6925SOL    HW121455   4.100   4.058   3.687
 6925SOL    HW221456   3.966   3.988   3.700
 6926SOL     OW21457   4.253   3.915   2.743
 6926SOL    HW121458   4.272   3.921   2.837
 6926SOL    HW221459   4.266   4.003   2.710
 6927SOL     OW21460   3.923   4.007   3.364
 6927SOL    HW121461   3.839   4.052   3.354
 6927SOL    HW221462   3.908   3.944   3.435
 6928SOL     OW21463   4.094   4.392   2.281
 6928SOL    HW121464   4.129   4.314   2.325
 6928SOL    HW221465   4.020   4.418   2.336
 6929SOL     OW21466   4.339   3.834   1.980
 6929SOL    HW121467   4.434   3.823   1.979
 6929SOL    HW221468   4.311   3.812   1.891
 6930SOL     OW21469   4.262   3.788   2.365
 6930SOL    HW121470   4.183   3.793   2.419
 6930SOL    HW221471   4.257   3.866   2.309
 6931SOL     OW21472   4.018   3.770   2.046
 6931SOL    HW121473   4.078   3.836   2.011
 6931SOL    HW221474   4.075   3.706   2.087
 6932SOL     OW21475   0.354   4.398   3.381
 6932SOL    HW121476   0.283   4.370   3.323
 6932SOL    HW221477   0.425   4.336   3.363
 6933SOL     OW21478   3.799   4.279   3.254
 6933SOL    HW121479   3.890   4.272   3.224
 6933SOL    HW221480   3.799   4.353   3.315
 6934SOL     OW21481   4.285   3.937   3.011
 6934SOL    HW121482   4.325   3.867   3.062
 6934SOL    HW221483   4.198   3.949   3.050
 6935SOL     OW21484   4.245   3.988   2.185
 6935SOL    HW121485   4.285   3.933   2.117
 6935SOL    HW221486   4.232   4.073   2.142
 6936SOL     OW21487   4.152   0.010   3.128
 6936SOL    HW121488   4.218   0.010   3.198
 6936SOL    HW221489   4.112   4.423   3.134
 6937SOL     OW21490   4.300   4.264   2.732
 6937SOL    HW121491   4.311   4.331   2.664
 6937SOL    HW221492   4.367   4.285   2.797
 6938SOL     OW21493   4.230   3.776   3.597
 6938SOL    HW121494   4.186   3.716   3.537
 6938SOL    HW221495   4.165   3.843   3.616
 6939SOL     OW21496   4.025   3.925   3.108
 6939SOL    HW121497   3.987   3.958   3.190
 6939SOL    HW221498   4.004   3.832   3.108
 6940SOL     OW21499   4.021   3.791   2.487
 6940SOL    HW121500   4.006   3.882   2.512
 6940SOL    HW221501   4.031   3.744   2.570
 6941SOL     OW21502   4.040   0.014   2.788
 6941SOL    HW121503   4.118   0.069   2.792
 6941SOL    HW221504   4.059   4.441   2.846
 6942SOL     OW21505   4.066   4.241   2.878
 6942SOL    HW121506   4.027   4.156   2.858
 6942SOL    HW221507   4.142   4.247   2.820
 6943SOL     OW21508   3.760   4.269   2.977
 6943SOL    HW121509   3.841   4.251   2.929
 6943SOL    HW221510   3.787   4.274   3.068
 6944SOL     OW21511   3.916   4.244   3.580
 6944SOL    HW121512   3.972   4.199   3.517
 6944SOL    HW221513   3.860   4.301   3.527
 6945SOL     OW21514   0.004   4.295   2.136
 6945SOL    HW121515   0.030   4.209   2.169
 6945SOL    HW221516   4.469   4.341   2.212
 6946SOL     OW21517   4.203   4.216   2.053
 6946SOL    HW121518   4.252   4.297   2.065
 6946SOL    HW221519   4.111   4.244   2.045
 6947SOL     OW21520   3.987   4.044   2.579
 6947SOL    HW121521   3.900   4.075   2.557
 6947SOL    HW221522   3.985   4.031   2.674
 6948SOL     OW21523   4.392   3.927   3.356
 6948SOL    HW121524   4.480   3.927   3.318
 6948SOL    HW221525   4.406   3.923   3.450
 6949SOL     OW21526   3.799   4.048   1.892
 6949SOL    HW121527   3.710   4.039   1.857
 6949SOL    HW221528   3.830   4.132   1.857
 6950SOL     OW21529   3.795   3.882   2.176
 6950SOL    HW121530   3.779   3.962   2.125
 6950SOL    HW221531   3.880   3.850   2.145
 6951SOL     OW21532   4.408   4.271   3.603
 6951SOL    HW121533   4.428   4.355   3.644
 6951SOL    HW221534   4.493   4.236   3.578
 6952SOL     OW21535   4.174   4.151   2.404
 6952SOL    HW121536   4.183   4.087   2.334
 6952SOL    HW221537   4.111   4.111   2.464
 6953SOL     OW21538   4.046   4.264   3.153
 6953SOL    HW121539   4.102   4.208   3.207
 6953SOL    HW221540   4.069   4.239   3.063
 6954SOL     OW21541   3.951   4.295   3.848
 6954SOL    HW121542   3.886   4.356   3.883
 6954SOL    HW221543   3.939   4.298   3.753
 6955SOL     OW21544   3.947   4.004   4.714
 6955SOL    HW121545   3.978   3.971   4.798
 6955SOL    HW221546   3.857   3.971   4.706
 6956SOL     OW21547   3.730   4.102   4.368
 6956SOL    HW121548   3.646   4.129   4.405
 6956SOL    HW221549   3.708   4.025   4.315
 6957SOL     OW21550   0.059   0.016   5.582
 6957SOL    HW121551   0.110   0.084   5.626
 6957SOL    HW221552   0.075   0.030   5.489
 6958SOL     OW21553   4.170   4.119   5.208
 6958SOL    HW121554   4.245   4.059   5.216
 6958SOL    HW221555   4.094   4.063   5.225
 6959SOL     OW21556   3.809   4.367   4.285
 6959SOL    HW121557   3.799   4.276   4.315
 6959SOL    HW221558   3.864   4.408   4.352
 6960SOL     OW21559   3.843   4.472   5.308
 6960SOL    HW121560   3.913   4.487   5.371
 6960SOL    HW221561   3.809   0.060   5.288
 6961SOL     OW21562   0.022   3.729   4.250
 6961SOL    HW121563   0.055   3.795   4.188
 6961SOL    HW221564   4.427   3.744   4.251
 6962SOL     OW21565   4.055   3.976   5.528
 6962SOL    HW121566   4.100   4.058   5.549
 6962SOL    HW221567   3.966   3.988   5.562
 6963SOL     OW21568   4.254   3.915   4.605
 6963SOL    HW121569   4.272   3.921   4.699
 6963SOL    HW221570   4.266   4.004   4.572
 6964SOL     OW21571   3.923   4.007   5.227
 6964SOL    HW121572   3.838   4.052   5.216
 6964SOL    HW221573   3.908   3.944   5.297
 6965SOL     OW21574   4.094   4.391   4.143
 6965SOL    HW121575   4.129   4.314   4.187
 6965SOL    HW221576   4.020   4.418   4.198
 6966SOL     OW21577   4.339   3.833   3.842
 6966SOL    HW121578   4.434   3.823   3.841
 6966SOL    HW221579   4.311   3.812   3.753
 6967SOL     OW21580   4.262   3.788   4.227
 6967SOL    HW121581   4.183   3.793   4.281
 6967SOL    HW221582   4.257   3.866   4.171
 6968SOL     OW21583   4.018   3.770   3.908
 6968SOL    HW121584   4.078   3.837   3.873
 6968SOL    HW221585   4.075   3.706   3.949
 6969SOL     OW21586   0.354   4.398   5.243
 6969SOL    HW121587   0.283   4.370   5.185
 6969SOL    HW221588   0.425   4.336   5.225
 6970SOL     OW21589   3.799   4.279   5.116
 6970SOL    HW121590   3.890   4.272   5.086
 6970SOL    HW221591   3.799   4.353   5.177
 6971SOL     OW21592   4.285   3.937   4.873
 6971SOL    HW121593   4.325   3.867   4.924
 6971SOL    HW221594   4.198   3.949   4.912
 6972SOL     OW21595   4.245   3.988   4.047
 6972SOL    HW121596   4.285   3.933   3.979
 6972SOL    HW221597   4.231   4.073   4.005
 6973SOL     OW21598   4.153   0.009   4.990
 6973SOL    HW121599   4.218   0.010   5.060
 6973SOL    HW221600   4.112   4.423   4.996
 6974SOL     OW21601   4.300   4.264   4.594
 6974SOL    HW121602   4.311   4.331   4.526
 6974SOL    HW221603   4.366   4.285   4.659
 6975SOL     OW21604   4.230   3.776   5.459
 6975SOL    HW121605   4.186   3.716   5.399
 6975SOL    HW221606   4.165   3.843   5.478
 6976SOL     OW21607   4.025   3.925   4.970
 6976SOL    HW121608   3.987   3.958   5.052
 6976SOL    HW221609   4.004   3.832   4.970
 6977SOL     OW21610   4.021   3.791   4.349
 6977SOL    HW121611   4.006   3.882   4.374
 6977SOL    HW221612   4.031   3.744   4.432
 6978SOL     OW21613   4.040   0.014   4.649
 6978SOL    HW121614   4.118   0.069   4.654
 6978SOL    HW221615   4.059   4.441   4.708
 6979SOL     OW21616   4.067   4.241   4.740
 6979SOL    HW121617   4.027   4.156   4.720
 6979SOL    HW221618   4.142   4.247   4.682
 6980SOL     OW21619   3.760   4.268   4.839
 6980SOL    HW121620   3.841   4.251   4.791
 6980SOL    HW221621   3.787   4.273   4.930
 6981SOL     OW21622   3.916   4.244   5.442
 6981SOL    HW121623   3.972   4.199   5.379
 6981SOL    HW221624   3.860   4.301   5.389
 6982SOL     OW21625   0.004   4.295   3.998
 6982SOL    HW121626   0.030   4.209   4.031
 6982SOL    HW221627   4.469   4.341   4.074
 6983SOL     OW21628   4.203   4.216   3.915
 6983SOL    HW121629   4.252   4.297   3.927
 6983SOL    HW221630   4.111   4.244   3.907
 6984SOL     OW21631   3.987   4.044   4.441
 6984SOL    HW121632   3.900   4.075   4.419
 6984SOL    HW221633   3.985   4.031   4.536
 6985SOL     OW21634   4.392   3.927   5.218
 6985SOL    HW121635   4.480   3.927   5.181
 6985SOL    HW221636   4.406   3.923   5.312
 6986SOL     OW21637   3.799   4.048   3.754
 6986SOL    HW121638   3.710   4.039   3.719
 6986SOL    HW221639   3.830   4.132   3.720
 6987SOL     OW21640   3.794   3.882   4.037
 6987SOL    HW121641   3.779   3.962   3.987
 6987SOL    HW221642   3.880   3.850   4.007
 6988SOL     OW21643   4.408   4.272   5.465
 6988SOL    HW121644   4.428   4.356   5.506
 6988SOL    HW221645   4.493   4.236   5.440
 6989SOL     OW21646   4.174   4.151   4.267
 6989SOL    HW121647   4.183   4.087   4.196
 6989SOL    HW221648   4.111   4.111   4.327
 6990SOL     OW21649   4.046   4.264   5.015
 6990SOL    HW121650   4.102   4.208   5.069
 6990SOL    HW221651   4.068   4.239   4.925
 6991SOL     OW21652   3.951   4.296   5.710
 6991SOL    HW121653   3.885   4.356   5.745
 6991SOL    HW221654   3.939   4.298   5.615
 6992SOL     OW21655   3.947   4.004   6.576
 6992SOL    HW121656   3.978   3.971   6.660
 6992SOL    HW221657   3.857   3.971   6.568
 6993SOL     OW21658   3.730   4.102   6.230
 6993SOL    HW121659   3.646   4.129   6.267
 6993SOL    HW221660   3.708   4.025   6.177
 6994SOL     OW21661   0.059   0.016   7.444
 6994SOL    HW121662   0.110   0.084   7.488
 6994SOL    HW221663   0.075   0.030   7.351
 6995SOL     OW21664   4.170   4.119   7.070
 6995SOL    HW121665   4.245   4.060   7.078
 6995SOL    HW221666   4.094   4.063   7.087
 6996SOL     OW21667   3.809   4.367   6.148
 6996SOL    HW121668   3.799   4.276   6.177
 6996SOL    HW221669   3.864   4.408   6.214
 6997SOL     OW21670   3.843   4.472   7.170
 6997SOL    HW121671   3.913   4.487   7.233
 6997SOL    HW221672   3.809   0.060   7.151
 6998SOL     OW21673   0.022   3.729   6.112
 6998SOL    HW121674   0.055   3.795   6.051
 6998SOL    HW221675   4.427   3.744   6.113
 6999SOL     OW21676   4.054   3.976   7.390
 6999SOL    HW121677   4.100   4.057   7.411
 6999SOL    HW221678   3.966   3.988   7.424
 7000SOL     OW21679   4.253   3.915   6.467
 7000SOL    HW121680   4.272   3.921   6.561
 7000SOL    HW221681   4.266   4.004   6.434
 7001SOL     OW21682   3.923   4.007   7.089
 7001SOL    HW121683   3.838   4.052   7.078
 7001SOL    HW221684   3.908   3.944   7.159
 7002SOL     OW21685   4.094   4.392   6.005
 7002SOL    HW121686   4.129   4.314   6.049
 7002SOL    HW221687   4.020   4.418   6.060
 7003SOL     OW21688   4.339   3.834   5.704
 7003SOL    HW121689   4.434   3.823   5.703
 7003SOL    HW221690   4.311   3.812   5.615
 7004SOL     OW21691   4.262   3.788   6.089
 7004SOL    HW121692   4.183   3.793   6.143
 7004SOL    HW221693   4.257   3.866   6.033
 7005SOL     OW21694   4.018   3.771   5.770
 7005SOL    HW121695   4.078   3.837   5.735
 7005SOL    HW221696   4.075   3.706   5.811
 7006SOL     OW21697   0.354   4.398   7.105
 7006SOL    HW121698   0.283   4.370   7.047
 7006SOL    HW221699   0.425   4.336   7.087
 7007SOL     OW21700   3.799   4.279   6.978
 7007SOL    HW121701   3.890   4.272   6.948
 7007SOL    HW221702   3.799   4.353   7.039
 7008SOL     OW21703   4.285   3.937   6.735
 7008SOL    HW121704   4.325   3.867   6.786
 7008SOL    HW221705   4.198   3.949   6.774
 7009SOL     OW21706   4.245   3.988   5.909
 7009SOL    HW121707   4.285   3.933   5.841
 7009SOL    HW221708   4.232   4.073   5.867
 7010SOL     OW21709   4.152   0.010   6.852
 7010SOL    HW121710   4.218   0.010   6.922
 7010SOL    HW221711   4.112   4.423   6.858
 7011SOL     OW21712   4.300   4.264   6.456
 7011SOL    HW121713   4.311   4.331   6.388
 7011SOL    HW221714   4.367   4.285   6.521
 7012SOL     OW21715   4.231   3.776   7.321
 7012SOL    HW121716   4.186   3.716   7.261
 7012SOL    HW221717   4.165   3.843   7.340
 7013SOL     OW21718   4.025   3.925   6.832
 7013SOL    HW121719   3.987   3.958   6.914
 7013SOL    HW221720   4.004   3.832   6.832
 7014SOL     OW21721   4.021   3.791   6.211
 7014SOL    HW121722   4.006   3.882   6.236
 7014SOL    HW221723   4.031   3.744   6.294
 7015SOL     OW21724   4.040   0.014   6.512
 7015SOL    HW121725   4.118   0.069   6.516
 7015SOL    HW221726   4.059   4.441   6.570
 7016SOL     OW21727   4.066   4.241   6.602
 7016SOL    HW121728   4.027   4.156   6.582
 7016SOL    HW221729   4.143   4.247   6.545
 7017SOL     OW21730   3.760   4.269   6.701
 7017SOL    HW121731   3.841   4.251   6.653
 7017SOL    HW221732   3.787   4.274   6.792
 7018SOL     OW21733   3.915   4.244   7.304
 7018SOL    HW121734   3.972   4.199   7.241
 7018SOL    HW221735   3.860   4.301   7.251
 7019SOL     OW21736   0.004   4.295   5.860
 7019SOL    HW121737   0.030   4.209   5.893
 7019SOL    HW221738   4.469   4.341   5.936
 7020SOL     OW21739   4.203   4.216   5.777
 7020SOL    HW121740   4.252   4.297   5.789
 7020SOL    HW221741   4.111   4.244   5.768
 7021SOL     OW21742   3.987   4.044   6.303
 7021SOL    HW121743   3.899   4.075   6.281
 7021SOL    HW221744   3.985   4.031   6.398
 7022SOL     OW21745   4.392   3.927   7.080
 7022SOL    HW121746   4.480   3.927   7.043
 7022SOL    HW221747   4.406   3.923   7.174
 7023SOL     OW21748   3.799   4.048   5.616
 7023SOL    HW121749   3.710   4.039   5.581
 7023SOL    HW221750   3.830   4.132   5.581
 7024SOL     OW21751   3.795   3.882   5.900
 7024SOL    HW121752   3.779   3.962   5.849
 7024SOL    HW221753   3.880   3.850   5.869
 7025SOL     OW21754   4.408   4.272   7.327
 7025SOL    HW121755   4.428   4.356   7.369
 7025SOL    HW221756   4.493   4.236   7.302
 7026SOL     OW21757   4.174   4.151   6.128
 7026SOL    HW121758   4.183   4.087   6.058
 7026SOL    HW221759   4.111   4.111   6.188
 7027SOL     OW21760   4.046   4.264   6.877
 7027SOL    HW121761   4.102   4.208   6.931
 7027SOL    HW221762   4.069   4.239   6.787
 7028SOL     OW21763   3.951   4.295   7.572
 7028SOL    HW121764   3.885   4.356   7.607
 7028SOL    HW221765   3.939   4.298   7.477
 7029SOL     OW21766   3.947   4.004   8.438
 7029SOL    HW121767   3.978   3.971   8.522
 7029SOL    HW221768   3.857   3.970   8.430
 7030SOL     OW21769   3.730   4.102   8.092
 7030SOL    HW121770   3.646   4.129   8.129
 7030SOL    HW221771   3.708   4.025   8.039
 7031SOL     OW21772   0.059   0.016   9.306
 7031SOL    HW121773   0.110   0.084   9.350
 7031SOL    HW221774   0.075   0.030   9.213
 7032SOL     OW21775   4.170   4.119   8.932
 7032SOL    HW121776   4.245   4.060   8.940
 7032SOL    HW221777   4.094   4.063   8.949
 7033SOL     OW21778   3.809   4.367   8.010
 7033SOL    HW121779   3.799   4.276   8.039
 7033SOL    HW221780   3.864   4.408   8.076
 7034SOL     OW21781   3.843   4.472   9.032
 7034SOL    HW121782   3.913   4.487   9.095
 7034SOL    HW221783   3.809   0.060   9.013
 7035SOL     OW21784   0.022   3.729   7.974
 7035SOL    HW121785   0.055   3.795   7.913
 7035SOL    HW221786   4.427   3.744   7.975
 7036SOL     OW21787   4.054   3.976   9.252
 7036SOL    HW121788   4.100   4.057   9.273
 7036SOL    HW221789   3.966   3.988   9.286
 7037SOL     OW21790   4.253   3.915   8.329
 7037SOL    HW121791   4.272   3.921   8.423
 7037SOL    HW221792   4.266   4.004   8.296
 7038SOL     OW21793   3.923   4.007   8.950
 7038SOL    HW121794   3.838   4.052   8.940
 7038SOL    HW221795   3.908   3.944   9.021
 7039SOL     OW21796   4.094   4.392   7.867
 7039SOL    HW121797   4.129   4.314   7.911
 7039SOL    HW221798   4.020   4.418   7.922
 7040SOL     OW21799   4.339   3.834   7.566
 7040SOL    HW121800   4.434   3.823   7.565
 7040SOL    HW221801   4.311   3.812   7.477
 7041SOL     OW21802   4.262   3.788   7.951
 7041SOL    HW121803   4.183   3.793   8.005
 7041SOL    HW221804   4.257   3.866   7.895
 7042SOL     OW21805   4.018   3.770   7.632
 7042SOL    HW121806   4.078   3.837   7.597
 7042SOL    HW221807   4.075   3.706   7.673
 7043SOL     OW21808   0.354   4.398   8.967
 7043SOL    HW121809   0.283   4.370   8.909
 7043SOL    HW221810   0.425   4.336   8.949
 7044SOL     OW21811   3.799   4.279   8.840
 7044SOL    HW121812   3.890   4.272   8.810
 7044SOL    HW221813   3.799   4.353   8.901
 7045SOL     OW21814   4.285   3.937   8.597
 7045SOL    HW121815   4.325   3.867   8.648
 7045SOL    HW221816   4.198   3.949   8.636
 7046SOL     OW21817   4.245   3.988   7.771
 7046SOL    HW121818   4.285   3.933   7.703
 7046SOL    HW221819   4.232   4.073   7.729
 7047SOL     OW21820   4.152   0.010   8.714
 7047SOL    HW121821   4.218   0.010   8.784
 7047SOL    HW221822   4.112   4.423   8.720
 7048SOL     OW21823   4.300   4.264   8.318
 7048SOL    HW121824   4.311   4.331   8.250
 7048SOL    HW221825   4.367   4.285   8.383
 7049SOL     OW21826   4.231   3.776   9.183
 7049SOL    HW121827   4.186   3.716   9.123
 7049SOL    HW221828   4.165   3.843   9.202
 7050SOL     OW21829   4.025   3.925   8.694
 7050SOL    HW121830   3.987   3.958   8.776
 7050SOL    HW221831   4.004   3.832   8.694
 7051SOL     OW21832   4.021   3.791   8.073
 7051SOL    HW121833   4.006   3.882   8.098
 7051SOL    HW221834   4.031   3.744   8.156
 7052SOL     OW21835   4.040   0.014   8.374
 7052SOL    HW121836   4.118   0.069   8.378
 7052SOL    HW221837   4.059   4.441   8.432
 7053SOL     OW21838   4.066   4.241   8.464
 7053SOL    HW121839   4.027   4.156   8.444
 7053SOL    HW221840   4.143   4.247   8.407
 7054SOL     OW21841   3.760   4.269   8.563
 7054SOL    HW121842   3.841   4.251   8.515
 7054SOL    HW221843   3.787   4.274   8.654
 7055SOL     OW21844   3.915   4.244   9.166
 7055SOL    HW121845   3.972   4.199   9.104
 7055SOL    HW221846   3.860   4.301   9.113
 7056SOL     OW21847   0.004   4.295   7.722
 7056SOL    HW121848   0.030   4.209   7.755
 7056SOL    HW221849   4.469   4.341   7.798
 7057SOL     OW21850   4.203   4.216   7.639
 7057SOL    HW121851   4.252   4.297   7.651
 7057SOL    HW221852   4.111   4.244   7.631
 7058SOL     OW21853   3.987   4.044   8.165
 7058SOL    HW121854   3.899   4.075   8.143
 7058SOL    HW221855   3.985   4.031   8.260
 7059SOL     OW21856   4.392   3.927   8.942
 7059SOL    HW121857   4.480   3.927   8.905
 7059SOL    HW221858   4.406   3.923   9.036
 7060SOL     OW21859   3.799   4.048   7.478
 7060SOL    HW121860   3.710   4.039   7.443
 7060SOL    HW221861   3.830   4.132   7.443
 7061SOL     OW21862   3.795   3.882   7.762
 7061SOL    HW121863   3.779   3.962   7.711
 7061SOL    HW221864   3.880   3.850   7.731
 7062SOL     OW21865   4.408   4.272   9.189
 7062SOL    HW121866   4.428   4.356   9.231
 7062SOL    HW221867   4.493   4.236   9.164
 7063SOL     OW21868   4.174   4.151   7.990
 7063SOL    HW121869   4.183   4.087   7.920
 7063SOL    HW221870   4.111   4.111   8.050
 7064SOL     OW21871   4.046   4.264   8.739
 7064SOL    HW121872   4.102   4.208   8.793
 7064SOL    HW221873   4.069   4.239   8.649
 7065SOL     OW21874   3.951   4.295   9.434
 7065SOL    HW121875   3.885   4.356   9.469
 7065SOL    HW221876   3.939   4.298   9.339
 7066SOL     OW21877   3.947   4.004  10.300
 7066SOL    HW121878   3.978   3.971  10.384
 7066SOL    HW221879   3.857   3.970  10.293
 7067SOL     OW21880   3.730   4.102   9.954
 7067SOL    HW121881   3.646   4.129   9.991
 7067SOL    HW221882   3.709   4.024   9.901
 7068SOL     OW21883   4.177   4.122  10.799
 7068SOL    HW121884   4.244   4.053  10.800
 7068SOL    HW221885   4.096   4.076  10.819
 7069SOL     OW21886   3.808   4.367   9.872
 7069SOL    HW121887   3.799   4.277   9.901
 7069SOL    HW221888   3.865   4.408   9.938
 7070SOL     OW21889   3.850   4.458  10.908
 7070SOL    HW121890   3.945   4.466  10.916
 7070SOL    HW221891   3.818   0.047  10.893
 7071SOL     OW21892   0.022   3.729   9.836
 7071SOL    HW121893   0.055   3.795   9.775
 7071SOL    HW221894   4.427   3.744   9.837
 7072SOL     OW21895   4.063   3.980   0.012
 7072SOL    HW121896   4.108   4.060   0.039
 7072SOL    HW221897   3.971   3.997   0.032
 7073SOL     OW21898   4.254   3.915  10.192
 7073SOL    HW121899   4.273   3.922  10.285
 7073SOL    HW221900   4.266   4.003  10.158
 7074SOL     OW21901   3.926   4.007  10.807
 7074SOL    HW121902   3.845   4.057  10.804
 7074SOL    HW221903   3.915   3.948  10.881
 7075SOL     OW21904   4.094   4.392   9.729
 7075SOL    HW121905   4.129   4.314   9.773
 7075SOL    HW221906   4.020   4.418   9.784
 7076SOL     OW21907   4.339   3.833   9.428
 7076SOL    HW121908   4.434   3.823   9.427
 7076SOL    HW221909   4.311   3.812   9.339
 7077SOL     OW21910   4.262   3.788   9.813
 7077SOL    HW121911   4.183   3.793   9.867
 7077SOL    HW221912   4.257   3.866   9.757
 7078SOL     OW21913   4.018   3.770   9.494
 7078SOL    HW121914   4.078   3.837   9.459
 7078SOL    HW221915   4.075   3.706   9.535
 7079SOL     OW21916   0.320   4.403  10.791
 7079SOL    HW121917   0.236   4.359  10.796
 7079SOL    HW221918   0.381   4.335  10.762
 7080SOL     OW21919   3.797   4.281  10.703
 7080SOL    HW121920   3.889   4.274  10.675
 7080SOL    HW221921   3.800   4.341  10.777
 7081SOL     OW21922   4.285   3.938  10.460
 7081SOL    HW121923   4.323   3.864  10.508
 7081SOL    HW221924   4.198   3.948  10.498
 7082SOL     OW21925   4.245   3.988   9.633
 7082SOL    HW121926   4.285   3.933   9.565
 7082SOL    HW221927   4.232   4.073   9.591
 7083SOL     OW21928   4.152   0.008  10.572
 7083SOL    HW121929   4.220   0.007  10.639
 7083SOL    HW221930   4.109   4.423  10.580
 7084SOL     OW21931   4.300   4.264  10.180
 7084SOL    HW121932   4.312   4.331  10.112
 7084SOL    HW221933   4.367   4.284  10.245
 7085SOL     OW21934   4.125   4.465  10.914
 7085SOL    HW121935   4.190   0.026  10.880
 7085SOL    HW221936   4.169   4.380  10.913
 7086SOL     OW21937   4.026   3.925  10.556
 7086SOL    HW121938   3.989   3.958  10.638
 7086SOL    HW221939   4.005   3.832  10.556
 7087SOL     OW21940   4.021   3.791   9.935
 7087SOL    HW121941   4.006   3.882   9.960
 7087SOL    HW221942   4.031   3.744  10.018
 7088SOL     OW21943   4.040   0.014  10.236
 7088SOL    HW121944   4.118   0.069  10.241
 7088SOL    HW221945   4.059   4.441  10.294
 7089SOL     OW21946   4.066   4.241  10.326
 7089SOL    HW121947   4.027   4.156  10.306
 7089SOL    HW221948   4.143   4.247  10.269
 7090SOL     OW21949   3.760   4.270  10.425
 7090SOL    HW121950   3.842   4.251  10.378
 7090SOL    HW221951   3.786   4.275  10.517
 7091SOL     OW21952   0.004   4.295   9.584
 7091SOL    HW121953   0.031   4.209   9.617
 7091SOL    HW221954   4.470   4.341   9.660
 7092SOL     OW21955   4.202   4.216   9.501
 7092SOL    HW121956   4.252   4.297   9.513
 7092SOL    HW221957   4.111   4.244   9.493
 7093SOL     OW21958   3.987   4.044  10.027
 7093SOL    HW121959   3.900   4.075  10.005
 7093SOL    HW221960   3.985   4.031  10.122
 7094SOL     OW21961   4.396   3.926  10.809
 7094SOL    HW121962   4.476   3.930  10.756
 7094SOL    HW221963   4.427   3.939  10.899
 7095SOL     OW21964   3.799   4.048   9.340
 7095SOL    HW121965   3.710   4.039   9.305
 7095SOL    HW221966   3.830   4.132   9.305
 7096SOL     OW21967   3.795   3.882   9.623
 7096SOL    HW121968   3.779   3.962   9.573
 7096SOL    HW221969   3.880   3.850   9.593
 7097SOL     OW21970   4.174   4.151   9.852
 7097SOL    HW121971   4.183   4.087   9.782
 7097SOL    HW221972   4.111   4.111   9.912
 7098SOL     OW21973   4.047   4.263  10.601
 7098SOL    HW121974   4.102   4.206  10.655
 7098SOL    HW221975   4.068   4.238  10.511
   4.50000   4.50000  11.10000
